CNT in water
33518
    1C        C    1   2.840   2.771   4.744 -0.0690  0.0659  0.2174
    1C        C    2   2.894   2.718   4.863 -0.1951  0.3848  0.4177
    1C        C    3   2.833   2.763   4.981 -0.2930  0.2374  0.4253
    1C        C    4   2.844   2.774   4.257  0.1280 -0.0552  0.0731
    1C        C    5   2.896   2.723   4.379  0.1133 -0.0138  0.0989
    1C        C    6   2.841   2.771   4.500 -0.3715 -0.1284 -0.0679
    1C        C    7   3.013   2.647   4.623 -0.4059  0.0718  0.2828
    1C        C    8   2.897   2.727   4.622 -0.1059  0.5044  0.0418
    1C        C    9   3.075   2.607   4.743 -0.0978  0.0752  0.1254
    1C        C   10   3.005   2.630   4.863 -0.1747  0.4063  0.0167
    1C        C   11   3.177   2.491   4.970  0.0160  0.0577 -0.4957
    1C        C   12   3.059   2.565   4.975  0.1303  0.2214 -0.2398
    1C        C   13   2.849   2.775   3.771  0.0359  0.5488  0.0464
    1C        C   14   2.900   2.725   3.893  0.0924  0.3858 -0.0416
    1C        C   15   2.844   2.770   4.014  0.3206  0.3802  0.0692
    1C        C   16   3.023   2.656   4.136  0.4196  0.3202  0.2179
    1C        C   17   2.907   2.736   4.136 -0.0732 -0.3816  0.0672
    1C        C   18   3.082   2.617   4.259  0.4754  0.4972  0.2482
    1C        C   19   3.014   2.646   4.379  0.3472  0.3418  0.2151
    1C        C   20   3.209   2.562   4.501 -0.1677  0.0311 -0.0894
    1C        C   21   3.079   2.618   4.501 -0.1343  0.1121  0.4196
    1C        C   22   3.278   2.536   4.621 -0.0580 -0.5150 -0.2715
    1C        C   23   3.208   2.557   4.742  0.0085  0.3700 -0.3840
    1C        C   24   3.409   2.482   4.864 -0.0343 -0.0439  0.1993
    1C        C   25   3.268   2.507   4.861  0.0231  0.2018 -0.4656
    1C        C   26   3.490   2.476   4.978  0.1891  0.3736  0.0639
    1C        C   27   2.850   2.769   3.282 -0.1067  0.1565  0.3301
    1C        C   28   2.910   2.731   3.404  0.3311  0.9306  0.3700
    1C        C   29   2.852   2.772   3.526 -0.1049  0.0842  0.4621
    1C        C   30   3.022   2.650   3.648  0.1164 -0.1597 -0.1895
    1C        C   31   2.906   2.731   3.650  0.5680  0.4881  0.3130
    1C        C   32   3.081   2.612   3.770  0.0620 -0.2225 -0.1792
    1C        C   33   3.016   2.645   3.892  0.0495  0.3218 -0.3246
    1C        C   34   3.212   2.564   4.014 -0.2048  0.6785 -0.1340
    1C        C   35   3.080   2.613   4.014 -0.3786  0.2166 -0.1254
    1C        C   36   3.279   2.535   4.135  0.0633  0.0633 -0.4238
    1C        C   37   3.212   2.563   4.257  0.2156 -0.1205 -0.2983
    1C        C   38   3.417   2.516   4.381 -0.0600  0.2989  0.0904
    1C        C   39   3.278   2.544   4.380 -0.0089  0.5304 -0.0734
    1C        C   40   3.489   2.508   4.502 -0.1309  0.4273  0.1394
    1C        C   41   3.417   2.510   4.624  0.0226 -0.0488  0.2366
    1C        C   42   3.629   2.483   4.742  0.0266  0.0636  0.2768
    1C        C   43   3.487   2.491   4.745 -0.0043 -0.4432  0.1899
    1C        C   44   3.703   2.485   4.861  0.1413  0.0975  0.2031
    1C        C   45   3.629   2.476   4.979  0.1879  0.3264  0.2505
    1C        C   46   2.837   2.755   2.790  0.0933  0.4257  0.0212
    1C        C   47   2.895   2.716   2.913 -0.1534  0.0979  0.0393
    1C        C   48   2.841   2.762   3.035  0.1203  0.1601  0.1408
    1C        C   49   3.020   2.650   3.155  0.0786  0.7914 -0.1295
    1C        C   50   2.899   2.723   3.158 -0.7005 -0.4886  0.3289
    1C        C   51   3.083   2.616   3.276 -0.0038  0.8795 -0.0570
    1C        C   52   3.024   2.648   3.401  0.2816  0.8671  0.0859
    1C        C   53   3.213   2.561   3.525  0.3262 -0.0539 -0.0365
    1C        C   54   3.082   2.614   3.525  0.4334  0.2262 -0.1504
    1C        C   55   3.279   2.537   3.648 -0.0605 -1.0391 -0.0141
    1C        C   56   3.211   2.558   3.769 -0.0816 -0.5787 -0.1013
    1C        C   57   3.419   2.518   3.894 -0.0963  0.2204  0.1406
    1C        C   58   3.280   2.545   3.892 -0.1029  0.1776 -0.0008
    1C        C   59   3.490   2.506   4.015 -0.0495 -0.3696  0.0564
    1C        C   60   3.417   2.509   4.136  0.0228 -0.1432  0.0923
    1C        C   61   3.628   2.508   4.257 -0.0509  0.3712  0.5000
    1C        C   62   3.487   2.505   4.259 -0.0472 -0.0758  0.1320
    1C        C   63   3.700   2.511   4.378  0.2059 -0.1325  0.3582
    1C        C   64   3.630   2.500   4.500 -0.1298  0.4639  0.2170
    1C        C   65   3.837   2.537   4.620 -0.1636 -0.2645  0.1387
    1C        C   66   3.702   2.494   4.622 -0.0940 -0.4796  0.1521
    1C        C   67   3.904   2.554   4.743 -0.1540  0.5556  0.0220
    1C        C   68   3.841   2.518   4.864  0.2121 -0.1823 -0.0069
    1C        C   69   4.046   2.584   4.975  0.0552 -0.2236 -0.0203
    1C        C   70   3.920   2.524   4.979  0.0993 -0.3103  0.0779
    1C        C   71   2.824   2.733   2.306 -0.1679 -0.2578  0.0716
    1C        C   72   2.882   2.693   2.428 -0.0842 -0.3812 -0.0095
    1C        C   73   2.824   2.738   2.548  0.2641  0.0595 -0.0049
    1C        C   74   3.010   2.632   2.671 -0.2389 -0.4542 -0.0058
    1C        C   75   2.892   2.709   2.668 -0.3798 -0.6579  0.1973
    1C        C   76   3.075   2.600   2.792 -0.2145  0.4963  0.2492
    1C        C   77   3.014   2.640   2.913  0.0519  0.4062  0.4188
    1C        C   78   3.209   2.552   3.035  0.0298 -0.5685  0.0825
    1C        C   79   3.081   2.612   3.034  0.4145  0.2814  0.1958
    1C        C   80   3.277   2.528   3.157  0.0460 -0.2536  0.1422
    1C        C   81   3.211   2.556   3.279 -0.6034 -0.4442 -0.1539
    1C        C   82   3.415   2.511   3.403 -0.2714 -0.9679  0.5564
    1C        C   83   3.276   2.533   3.402 -0.1131  0.1022 -0.3018
    1C        C   84   3.487   2.501   3.524  0.3134 -0.3383  0.2784
    1C        C   85   3.418   2.508   3.647  0.1757  0.0519  0.1822
    1C        C   86   3.627   2.500   3.768  0.0468  0.2249  0.1453
    1C        C   87   3.486   2.503   3.771  0.0401 -0.0990  0.2532
    1C        C   88   3.699   2.508   3.889  0.0779 -0.4339  0.1742
    1C        C   89   3.632   2.511   4.013 -0.0520 -0.3247  0.0987
    1C        C   90   3.836   2.549   4.134 -0.3563 -0.0585  0.0099
    1C        C   91   3.700   2.511   4.136 -0.3903  0.0954  0.2899
    1C        C   92   3.905   2.567   4.256 -0.2052 -0.0197 -0.0834
    1C        C   93   3.839   2.537   4.377  0.3698 -0.9738  0.0060
    1C        C   94   4.030   2.628   4.496 -0.1656 -0.1292  0.3720
    1C        C   95   3.906   2.560   4.499 -0.1867 -0.1023  0.1575
    1C        C   96   4.084   2.672   4.618  0.6782 -0.2464  0.0472
    1C        C   97   4.028   2.624   4.739  0.2185 -0.1065 -0.1096
    1C        C   98   4.183   2.767   4.857  0.2521 -0.2949 -0.2059
    1C        C   99   4.096   2.653   4.860 -0.0500 -0.0602  0.0314
    1C        C  100   4.211   2.841   4.972 -0.5995  0.3259 -0.3845
    1C        C  101   2.816   2.729   2.071 -0.4197 -0.2292 -0.2935
    1C        C  102   2.991   2.594   2.188 -0.2250  0.3296 -0.2820
    1C        C  103   2.872   2.673   2.187 -0.4505 -0.0042 -0.1705
    1C        C  104   3.061   2.572   2.310 -0.3754  0.2001 -0.2166
    1C        C  105   3.003   2.619   2.429 -0.1003 -0.4075  0.1689
    1C        C  106   3.203   2.541   2.549 -0.0400 -0.6267 -0.0950
    1C        C  107   3.071   2.593   2.550  0.1114 -0.2315  0.0913
    1C        C  108   3.272   2.520   2.671 -0.3416 -0.3134  0.1368
    1C        C  109   3.203   2.541   2.793 -0.2721  0.3553  0.0715
    1C        C  110   3.410   2.489   2.914 -0.1341 -0.0106 -0.1521
    1C        C  111   3.272   2.518   2.914 -0.2347 -0.4561 -0.0939
    1C        C  112   3.483   2.488   3.034 -0.3787  0.0275  0.0044
    1C        C  113   3.415   2.501   3.158 -0.0402 -0.7436  0.2874
    1C        C  114   3.625   2.492   3.277 -0.3272 -0.2026 -0.0836
    1C        C  115   3.484   2.495   3.281 -0.3304 -0.6084  0.4656
    1C        C  116   3.696   2.499   3.399  0.0720 -0.7271 -0.2732
    1C        C  117   3.628   2.495   3.523  0.2997 -0.8260 -0.1453
    1C        C  118   3.834   2.536   3.643 -0.1893 -0.2377  0.2998
    1C        C  119   3.698   2.499   3.646 -0.0729 -0.7020  0.0674
    1C        C  120   3.902   2.563   3.763  0.0662 -0.0927  0.1248
    1C        C  121   3.836   2.543   3.886  0.1112 -0.5784  0.0696
    1C        C  122   4.027   2.631   4.009 -0.0492 -0.4170  0.2406
    1C        C  123   3.899   2.570   4.009 -0.0241 -0.4611  0.1113
    1C        C  124   4.093   2.662   4.130 -0.0594 -0.1032  0.1609
    1C        C  125   4.034   2.623   4.252 -0.3313  0.2754  0.1481
    1C        C  126   4.203   2.753   4.374 -0.1949 -0.2958 -0.2118
    1C        C  127   4.090   2.668   4.374 -0.4975  0.1073  0.2835
    1C        C  128   4.251   2.808   4.494  0.0866  0.3014 -0.5928
    1C        C  129   4.192   2.763   4.615  0.5396 -0.0996 -0.5202
    1C        C  130   4.323   2.932   4.738 -0.2831 -0.0738 -0.0484
    1C        C  131   4.239   2.817   4.736  0.4215 -0.5925 -0.2518
    1C        C  132   4.346   3.004   4.857 -0.6735 -0.0877  0.0379
    1C        C  133   4.273   2.965   4.970 -0.4177  0.2534  0.3224
    1C        C  134   3.172   2.466   2.080 -0.2169  0.0805  0.0651
    1C        C  135   3.039   2.510   2.083 -0.0030  0.7890 -0.5508
    1C        C  136   3.259   2.477   2.189  0.0858  0.4348 -0.2099
    1C        C  137   3.193   2.519   2.307 -0.2344  0.5545 -0.4261
    1C        C  138   3.405   2.485   2.427 -0.3810 -0.2986 -0.3370
    1C        C  139   3.267   2.511   2.427 -0.3569 -0.1452 -0.3870
    1C        C  140   3.479   2.478   2.547 -0.4561 -0.1496 -0.2771
    1C        C  141   3.409   2.489   2.670 -0.3319 -0.2855 -0.1877
    1C        C  142   3.621   2.484   2.789 -0.2338 -0.4272 -0.0450
    1C        C  143   3.480   2.480   2.791 -0.2512 -0.1443 -0.2167
    1C        C  144   3.693   2.498   2.910 -0.3107 -0.5302  0.0203
    1C        C  145   3.624   2.491   3.034 -0.3646 -0.2474  0.0138
    1C        C  146   3.833   2.531   3.155 -0.5056  0.9532  0.5743
    1C        C  147   3.696   2.500   3.155 -0.2299 -0.3717 -0.0468
    1C        C  148   3.901   2.553   3.277  0.4566  0.0644  0.2220
    1C        C  149   3.833   2.530   3.399  0.0795 -0.7259 -0.1193
    1C        C  150   4.026   2.621   3.520 -0.4882 -0.2659 -0.0059
    1C        C  151   3.901   2.556   3.520 -0.5257 -0.2031  0.1175
    1C        C  152   4.089   2.660   3.640  0.0133 -0.4110 -0.2131
    1C        C  153   4.027   2.630   3.763 -0.0760  0.1730 -0.1108
    1C        C  154   4.196   2.755   3.886 -0.7434  0.2613  0.1560
    1C        C  155   4.087   2.665   3.886 -0.4151 -0.1327  0.1434
    1C        C  156   4.255   2.799   4.006 -0.6136  0.3384  0.0585
    1C        C  157   4.205   2.747   4.128 -0.2264  0.1100  0.1156
    1C        C  158   4.334   2.915   4.250  0.2115 -0.0972 -0.1035
    1C        C  159   4.255   2.798   4.250  0.1414 -0.0439  0.0252
    1C        C  160   4.370   2.979   4.371 -0.5025  0.5048 -0.2058
    1C        C  161   4.334   2.922   4.495  0.3502  0.1077 -0.1383
    1C        C  162   4.433   3.112   4.611  0.5445 -0.3362  0.1567
    1C        C  163   4.362   2.990   4.615  0.7978 -0.4850  0.0954
    1C        C  164   4.467   3.178   4.731  0.1962 -0.1235  0.1355
    1C        C  165   4.427   3.119   4.852  0.3479 -0.7989 -0.1394
    1C        C  166   4.513   3.314   4.967 -0.4610 -0.0692 -0.1991
    1C        C  167   4.466   3.184   4.971 -1.2844  0.2224 -0.1333
    1C        C  168   3.470   2.426   2.073 -0.0822  0.0609 -0.0578
    1C        C  169   3.399   2.458   2.189 -0.0402 -0.5706  0.1507
    1C        C  170   3.618   2.469   2.306  0.0865 -1.0224  0.4146
    1C        C  171   3.476   2.460   2.307  0.0840 -1.0812  0.0844
    1C        C  172   3.692   2.475   2.426  0.1046 -0.4673  0.3829
    1C        C  173   3.620   2.483   2.547 -0.4214 -0.7952  0.0971
    1C        C  174   3.829   2.532   2.667 -0.2691 -0.2074  0.2653
    1C        C  175   3.691   2.499   2.668 -0.3048 -0.0936 -0.0515
    1C        C  176   3.897   2.553   2.789 -0.1537 -0.2169  0.2086
    1C        C  177   3.831   2.526   2.911 -0.2344 -0.8584  0.0356
    1C        C  178   4.022   2.622   3.031 -0.9363  0.2389 -0.2598
    1C        C  179   3.899   2.553   3.032 -0.8993  0.1574  0.2049
    1C        C  180   4.085   2.657   3.153 -0.7181  0.3229 -0.3863
    1C        C  181   4.026   2.620   3.276  0.1207  0.7114  0.1498
    1C        C  182   4.197   2.745   3.396 -0.0741  0.1523  0.3184
    1C        C  183   4.087   2.658   3.398  0.5545 -0.6553  0.3791
    1C        C  184   4.246   2.798   3.518 -0.1808  0.2799  0.3073
    1C        C  185   4.201   2.746   3.641 -0.0328 -0.3521  0.0961
    1C        C  186   4.332   2.913   3.762 -0.3878 -0.2025  0.1375
    1C        C  187   4.247   2.801   3.762 -0.2498 -0.3026  0.1532
    1C        C  188   4.367   2.977   3.883 -0.9767  0.1841  0.1035
    1C        C  189   4.326   2.921   4.006 -0.7507  0.4126  0.2770
    1C        C  190   4.429   3.105   4.124  0.1910  0.2373  0.1076
    1C        C  191   4.364   2.980   4.128 -0.2195  0.4535  0.0853
    1C        C  192   4.447   3.175   4.245 -0.2112  0.2501  0.1559
    1C        C  193   4.423   3.109   4.368 -0.6260  0.5602  0.2356
    1C        C  194   4.503   3.310   4.487 -0.1367  0.2194 -0.2327
    1C        C  195   4.458   3.176   4.488 -0.3803  0.3076  0.3011
    1C        C  196   4.516   3.383   4.607  0.1360  0.0486 -0.1616
    1C        C  197   4.510   3.314   4.729 -0.3418  0.0450 -0.1875
    1C        C  198   4.540   3.531   4.845  0.0596 -0.0319  0.0274
    1C        C  199   4.528   3.388   4.849 -0.4444  0.0058 -0.1495
    1C        C  200   4.566   3.613   4.959 -0.1250 -0.4970  0.4097
    1C        C  201   3.610   2.417   2.074 -0.0990 -0.2359  0.0193
    1C        C  202   3.824   2.513   2.180 -0.4958  0.3299 -0.1909
    1C        C  203   3.688   2.467   2.183 -0.1926 -0.5737  0.2435
    1C        C  204   3.894   2.536   2.301 -0.4639 -0.3976 -0.0638
    1C        C  205   3.829   2.511   2.424  0.0693 -0.3261  0.2408
    1C        C  206   4.019   2.614   2.543 -0.4910  0.4414  0.2209
    1C        C  207   3.896   2.543   2.544 -0.1559 -0.1549  0.3267
    1C        C  208   4.082   2.653   2.663 -0.2139  0.6282  0.0183
    1C        C  209   4.021   2.621   2.786 -0.3153  0.0777 -0.1682
    1C        C  210   4.195   2.740   2.907 -0.1288 -0.5257  0.3315
    1C        C  211   4.083   2.653   2.908 -0.1623 -0.5012 -0.0837
    1C        C  212   4.249   2.788   3.028 -0.3908 -0.0421  0.2690
    1C        C  213   4.201   2.737   3.150 -0.8248  0.5196  0.3392
    1C        C  214   4.336   2.901   3.271 -0.3289  0.3632  0.0538
    1C        C  215   4.250   2.788   3.272 -0.5789  0.5502  0.2329
    1C        C  216   4.367   2.966   3.392 -0.5234  0.3273  0.1252
    1C        C  217   4.334   2.908   3.517 -0.1452  0.2502  0.1909
    1C        C  218   4.425   3.100   3.636 -0.1323  0.0620  0.0873
    1C        C  219   4.372   2.969   3.638 -0.4243  0.1884  0.3055
    1C        C  220   4.454   3.165   3.758 -0.1426  0.0555  0.0874
    1C        C  221   4.436   3.100   3.882 -0.2919 -0.2054 -0.0769
    1C        C  222   4.493   3.306   3.998 -0.4331 -0.1591 -0.2587
    1C        C  223   4.466   3.168   4.003  0.1503 -0.2654 -0.1574
    1C        C  224   4.501   3.376   4.120 -0.1551  0.0035 -0.3775
    1C        C  225   4.487   3.310   4.244 -0.2939  0.2651 -0.2629
    1C        C  226   4.510   3.523   4.362  0.5276  0.1412  0.1332
    1C        C  227   4.503   3.382   4.365  0.2291  0.1526 -0.2690
    1C        C  228   4.517   3.596   4.482  0.3480  0.1613  0.1268
    1C        C  229   4.526   3.524   4.603 -0.1313  0.0712  0.1048
    1C        C  230   4.492   3.739   4.724 -0.0934  0.0672 -0.0474
    1C        C  231   4.519   3.599   4.723  0.2104  0.1245  0.0896
    1C        C  232   4.492   3.818   4.841 -0.3735  0.0511 -0.0366
    1C        C  233   4.537   3.750   4.955 -0.2247 -0.5357 -0.4352
    1C        C  234   4.011   2.615   2.059 -0.0737 -0.0962  0.1037
    1C        C  235   3.891   2.545   2.061 -0.1532  0.0317 -0.0823
    1C        C  236   4.081   2.642   2.177 -0.7009  0.5772  0.3336
    1C        C  237   4.020   2.602   2.298 -0.5799 -0.1594  0.1605
    1C        C  238   4.191   2.730   2.416 -0.0670 -0.4677 -0.1678
    1C        C  239   4.078   2.644   2.419 -0.9046  0.6118  0.0580
    1C        C  240   4.244   2.780   2.537 -0.7338  0.3440 -0.2012
    1C        C  241   4.196   2.737   2.663  0.0902  0.2300  0.0868
    1C        C  242   4.329   2.904   2.784 -0.3830 -0.0456  0.0882
    1C        C  243   4.244   2.791   2.784 -0.4475 -0.0032  0.4123
    1C        C  244   4.372   2.961   2.906 -0.4125 -0.0591  0.1093
    1C        C  245   4.333   2.902   3.029 -0.3516 -0.0637  0.1313
    1C        C  246   4.439   3.087   3.145 -0.1772  0.1506  0.0631
    1C        C  247   4.374   2.962   3.149 -0.2967  0.2075 -0.0181
    1C        C  248   4.449   3.159   3.267  0.3009  0.2390 -0.0234
    1C        C  249   4.418   3.098   3.390 -0.7373  0.4048 -0.1964
    1C        C  250   4.479   3.301   3.511 -0.2900 -0.0756  0.0104
    1C        C  251   4.442   3.165   3.512 -0.6698  0.0280 -0.0026
    1C        C  252   4.496   3.370   3.633 -0.1464 -0.1414  0.0241
    1C        C  253   4.485   3.303   3.757  0.0395  0.0082  0.1165
    1C        C  254   4.513   3.518   3.874 -0.2242  0.2277 -0.0730
    1C        C  255   4.500   3.377   3.876 -0.0855  0.2226 -0.0091
    1C        C  256   4.508   3.590   3.995  0.1560  0.2153 -0.0564
    1C        C  257   4.504   3.517   4.116 -0.2637  0.0025 -0.2068
    1C        C  258   4.487   3.729   4.236  0.3222 -0.2598  0.2311
    1C        C  259   4.503   3.589   4.238  0.5067 -0.2369 -0.0609
    1C        C  260   4.470   3.799   4.357 -0.3495  0.2930 -0.1791
    1C        C  261   4.491   3.735   4.481  0.3819  0.1627 -0.3701
    1C        C  262   4.424   3.940   4.599  0.8058  0.0785  0.2865
    1C        C  263   4.471   3.806   4.602  0.2011 -0.1478 -0.2158
    1C        C  264   4.399   4.010   4.719 -0.0868  0.1673  0.0536
    1C        C  265   4.429   3.944   4.840 -0.1312  0.1756  0.0693
    1C        C  266   4.318   4.130   4.953 -0.0907  0.4380 -0.0281
    1C        C  267   4.390   4.011   4.956 -0.3964  0.2484 -0.0590
    1C        C  268   4.250   2.777   2.059 -0.3568 -0.1444  0.2510
    1C        C  269   4.195   2.725   2.177 -0.1635 -0.1403  0.3442
    1C        C  270   4.343   2.884   2.297 -0.7160  0.8408 -0.1002
    1C        C  271   4.249   2.777   2.296  0.0488  0.1536  0.1225
    1C        C  272   4.378   2.945   2.419 -0.9638  0.7454  0.0221
    1C        C  273   4.336   2.887   2.540 -0.9443  0.5270 -0.0723
    1C        C  274   4.438   3.078   2.658  0.1680 -0.2194  0.1585
    1C        C  275   4.374   2.952   2.660 -0.8808  0.2994  0.0361
    1C        C  276   4.460   3.150   2.778  0.1545 -0.0973  0.0918
    1C        C  277   4.443   3.083   2.901  0.0826 -0.3468 -0.0492
    1C        C  278   4.493   3.289   3.022  0.0460 -0.1356 -0.0679
    1C        C  279   4.468   3.150   3.022 -0.4063 -0.0595 -0.1019
    1C        C  280   4.497   3.362   3.143  0.4543 -0.0698 -0.1163
    1C        C  281   4.478   3.297   3.267  0.4490  0.2089  0.0318
    1C        C  282   4.503   3.509   3.387 -0.2034  0.1199 -0.0303
    1C        C  283   4.489   3.369   3.388  0.1321  0.0875  0.1322
    1C        C  284   4.506   3.581   3.508 -0.3544 -0.3898  0.2760
    1C        C  285   4.512   3.511   3.631  0.9046 -0.2513  0.3069
    1C        C  286   4.492   3.726   3.748  0.4824  0.3317 -0.0863
    1C        C  287   4.508   3.586   3.750 -0.0622  0.2734 -0.0473
    1C        C  288   4.472   3.795   3.869  0.6692  0.2256 -0.0026
    1C        C  289   4.484   3.729   3.993  0.3573  0.2441  0.0290
    1C        C  290   4.426   3.933   4.114 -0.1214 -0.4044  0.1748
    1C        C  291   4.474   3.800   4.115  0.5692 -0.1517  0.2745
    1C        C  292   4.397   4.000   4.235 -0.1213  0.3224 -0.2264
    1C        C  293   4.422   3.932   4.356  0.1775  0.4809 -0.2034
    1C        C  294   4.319   4.121   4.475 -0.1337 -0.5348  0.0716
    1C        C  295   4.384   3.996   4.476  0.4598 -0.2222  0.2627
    1C        C  296   4.284   4.189   4.593  0.2713  0.2889 -0.2810
    1C        C  297   4.330   4.134   4.715  0.3106  0.3832 -0.2536
    1C        C  298   4.197   4.310   4.834  0.1956  0.2271 -0.2030
    1C        C  299   4.283   4.195   4.834  0.2982  0.3035 -0.2177
    1C        C  300   4.171   4.401   4.941  0.2773 -0.2107  0.1882
    1C        C  301   4.349   2.875   2.060 -0.7552  0.2635  0.0916
    1C        C  302   4.465   3.061   2.174  0.3181 -0.2025  0.0245
    1C        C  303   4.401   2.933   2.176  0.1299 -0.1141 -0.1047
    1C        C  304   4.475   3.134   2.295  0.3930 -0.2515  0.0503
    1C        C  305   4.444   3.071   2.417  0.5907 -0.0395  0.2165
    1C        C  306   4.505   3.279   2.534 -0.0606  0.0675  0.2902
    1C        C  307   4.466   3.143   2.536  0.2755 -0.0355  0.2767
    1C        C  308   4.506   3.352   2.654  0.2238  0.0303  0.3167
    1C        C  309   4.492   3.287   2.779 -0.1231 -0.0287  0.2530
    1C        C  310   4.518   3.499   2.896  0.1975  0.1958  0.3546
    1C        C  311   4.508   3.358   2.900 -0.0299  0.2025  0.1098
    1C        C  312   4.509   3.569   3.019  0.3885  0.0648  0.4481
    1C        C  313   4.507   3.503   3.144  0.1585 -0.0469  0.3885
    1C        C  314   4.492   3.717   3.261 -0.2124  0.1006  0.2482
    1C        C  315   4.512   3.578   3.264  1.2366  0.2886  0.1524
    1C        C  316   4.476   3.790   3.381  0.1884  0.0432  0.3384
    1C        C  317   4.488   3.721   3.504 -0.1593 -0.3715  0.1420
    1C        C  318   4.425   3.924   3.623  0.5444  0.2292 -0.0242
    1C        C  319   4.477   3.793   3.625  0.5021  0.2148 -0.1463
    1C        C  320   4.391   3.989   3.744  0.0955 -0.1714  0.0601
    1C        C  321   4.419   3.926   3.867  0.4008  0.1118  0.1302
    1C        C  322   4.315   4.109   3.989 -0.1933 -0.3868  0.0763
    1C        C  323   4.392   3.991   3.989  0.0941 -0.1918  0.2216
    1C        C  324   4.277   4.173   4.109 -0.5715 -0.1443 -0.1718
    1C        C  325   4.325   4.121   4.232 -0.0519  0.3612 -0.1594
    1C        C  326   4.185   4.284   4.349  0.1706  0.0039  0.0841
    1C        C  327   4.281   4.181   4.353 -0.4012 -0.5269  0.1586
    1C        C  328   4.136   4.339   4.469  0.1451  0.5082 -0.1576
    1C        C  329   4.193   4.297   4.591 -0.2719 -0.1628 -0.1903
    1C        C  330   4.022   4.432   4.710  0.4700  0.7500 -0.1406
    1C        C  331   4.137   4.348   4.710 -0.2684 -0.2815 -0.1374
    1C        C  332   3.968   4.487   4.828  0.3588  0.1761  0.0852
    1C        C  333   4.057   4.482   4.936  0.4852  0.0696 -0.0232
    1C        C  334   4.554   3.261   2.061  0.0374 -0.0780 -0.0186
    1C        C  335   4.533   3.122   2.064  0.0734 -0.0853 -0.0645
    1C        C  336   4.532   3.344   2.171  0.3440 -0.2079  0.1435
    1C        C  337   4.504   3.274   2.291  0.2847 -0.2232  0.1246
    1C        C  338   4.514   3.489   2.407  0.7974 -0.3360 -0.3237
    1C        C  339   4.514   3.348   2.411  1.1671 -0.3339  0.1340
    1C        C  340   4.507   3.562   2.527  0.5039 -0.3614 -0.3198
    1C        C  341   4.506   3.493   2.650  0.0028  0.0252 -0.0961
    1C        C  342   4.483   3.704   2.770  0.6165 -0.1307  0.1474
    1C        C  343   4.510   3.565   2.772 -0.2078 -0.2993  0.1107
    1C        C  344   4.469   3.775   2.891 -0.0921 -0.0148  0.0030
    1C        C  345   4.489   3.709   3.014  0.2217  0.0283 -0.0217
    1C        C  346   4.422   3.910   3.133  0.2813 -0.1452  0.3142
    1C        C  347   4.473   3.779   3.135  0.6311 -0.0154  0.0610
    1C        C  348   4.387   3.977   3.252  0.1088  0.1430  0.1031
    1C        C  349   4.421   3.920   3.376  0.1150  0.0010  0.0350
    1C        C  350   4.322   4.106   3.499 -0.4879 -0.2662 -0.3005
    1C        C  351   4.394   3.985   3.499 -0.1313 -0.0512  0.0067
    1C        C  352   4.279   4.166   3.619 -0.6523 -0.8641 -0.0583
    1C        C  353   4.319   4.110   3.742 -0.3669 -0.4486  0.0377
    1C        C  354   4.172   4.261   3.863  0.2629  0.0708  0.0595
    1C        C  355   4.273   4.163   3.865 -0.1960 -0.4005  0.0761
    1C        C  356   4.117   4.313   3.983 -0.1467  0.2043 -0.1890
    1C        C  357   4.175   4.269   4.104 -0.5104 -0.0820 -0.1216
    1C        C  358   4.008   4.398   4.225  0.5716  0.6304  0.1523
    1C        C  359   4.126   4.321   4.226  0.2493  0.1341  0.0884
    1C        C  360   3.949   4.441   4.346 -0.2579 -0.1490  0.0282
    1C        C  361   4.014   4.411   4.468 -0.2096 -0.0896  0.0169
    1C        C  362   3.826   4.512   4.588  0.0260  0.2240  0.3922
    1C        C  363   3.957   4.458   4.588  0.0960  0.3867 -0.0212
    1C        C  364   3.761   4.548   4.708 -0.3926  0.2656  0.1578
    1C        C  365   3.836   4.536   4.827  0.3052  0.0321 -0.2922
    1C        C  366   3.632   4.594   4.944  0.5386  0.2574  0.3562
    1C        C  367   3.771   4.582   4.943  0.5076 -0.0628 -0.1390
    1C        C  368   4.502   3.557   2.049  0.2090 -0.1018  0.2302
    1C        C  369   4.516   3.484   2.168  0.1683 -0.2228  0.1623
    1C        C  370   4.494   3.700   2.286 -0.4562  0.1166  0.2616
    1C        C  371   4.518   3.561   2.286 -0.1970  0.1546 -0.0730
    1C        C  372   4.470   3.773   2.405 -0.5909 -0.1642  0.4115
    1C        C  373   4.487   3.702   2.526  0.2015 -0.3916  0.1816
    1C        C  374   4.426   3.906   2.649  0.0918 -0.3892  0.3839
    1C        C  375   4.471   3.772   2.647  0.9786 -0.0965  0.1247
    1C        C  376   4.394   3.974   2.769 -0.2459  0.0995  0.0251
    1C        C  377   4.427   3.910   2.891  0.1723  0.0708 -0.1008
    1C        C  378   4.315   4.094   3.010 -0.3333 -0.7496 -0.0513
    1C        C  379   4.390   3.974   3.011 -0.0036 -0.5400  0.1787
    1C        C  380   4.271   4.151   3.131  0.0777  0.0292 -0.2633
    1C        C  381   4.313   4.097   3.255 -0.1545 -0.0110 -0.2026
    1C        C  382   4.171   4.255   3.373 -0.5136 -0.1525  0.1163
    1C        C  383   4.273   4.157   3.376 -0.5299 -0.1782 -0.2451
    1C        C  384   4.119   4.305   3.494 -0.1151 -0.1468  0.2866
    1C        C  385   4.175   4.262   3.616 -0.3361 -0.5118  0.2581
    1C        C  386   4.001   4.379   3.739 -0.0210  0.1527  0.2310
    1C        C  387   4.120   4.304   3.739 -0.2062 -0.1380  0.1843
    1C        C  388   3.938   4.419   3.859 -0.3902 -0.0825  0.1136
    1C        C  389   4.001   4.393   3.983  0.3711  0.9642 -0.0366
    1C        C  390   3.815   4.493   4.103  0.3952  0.3356 -0.0872
    1C        C  391   3.942   4.432   4.105  0.4017  0.3632  0.1720
    1C        C  392   3.747   4.508   4.225  0.1032  0.7726 -0.3031
    1C        C  393   3.818   4.492   4.346 -0.1053  0.2459 -0.2469
    1C        C  394   3.614   4.549   4.469  0.4082  0.1045 -0.3315
    1C        C  395   3.753   4.524   4.468  0.3487 -0.2775  0.1384
    1C        C  396   3.545   4.562   4.591  0.3682  0.1396 -0.3548
    1C        C  397   3.621   4.566   4.710 -0.3915  0.2964  0.1412
    1C        C  398   3.413   4.546   4.834  0.3103 -0.3020 -0.3163
    1C        C  399   3.551   4.572   4.832  0.3517 -0.3963  0.6134
    1C        C  400   3.346   4.512   4.953  0.0535 -0.7455 -0.5826
    1C        C  401   4.497   3.696   2.050  0.1068 -0.1060  0.4656
    1C        C  402   4.449   3.911   2.163  0.4630  0.2922  0.0886
    1C        C  403   4.482   3.774   2.166  0.1381  0.2159  0.2569
    1C        C  404   4.408   3.974   2.282  0.3249  0.1407  0.1235
    1C        C  405   4.431   3.909   2.405 -0.4417 -0.1161  0.1369
    1C        C  406   4.329   4.095   2.522  0.2143 -0.2511 -0.2103
    1C        C  407   4.399   3.972   2.527 -0.3118 -0.5323  0.3913
    1C        C  408   4.281   4.149   2.643  0.4249  0.2866 -0.3639
    1C        C  409   4.320   4.094   2.768 -0.4215 -0.0110 -0.2244
    1C        C  410   4.170   4.249   2.886 -0.2997 -0.4918 -0.1734
    1C        C  411   4.270   4.149   2.888 -0.3864 -0.5719  0.0505
    1C        C  412   4.119   4.301   3.007  0.0697  0.1255 -0.2813
    1C        C  413   4.171   4.251   3.129 -0.0728 -0.1252 -0.3266
    1C        C  414   4.002   4.379   3.252  0.2090 -0.1747 -0.2185
    1C        C  415   4.117   4.298   3.250  0.3718  0.0612 -0.2033
    1C        C  416   3.942   4.418   3.374  0.0815 -0.1131 -0.3042
    1C        C  417   4.005   4.388   3.497 -0.0134  0.0057 -0.2308
    1C        C  418   3.810   4.475   3.617  0.4449  0.0561 -0.2025
    1C        C  419   3.940   4.421   3.618  0.5016  0.2056 -0.0118
    1C        C  420   3.739   4.498   3.737 -0.0200  0.4087 -0.5452
    1C        C  421   3.808   4.474   3.858 -0.0199  0.7905 -0.4744
    1C        C  422   3.606   4.529   3.983  0.3658 -0.1458 -0.0992
    1C        C  423   3.744   4.500   3.981  0.4417  0.2315 -0.1170
    1C        C  424   3.536   4.537   4.105  0.2075  0.4546 -0.2302
    1C        C  425   3.608   4.536   4.227  0.0883  0.6910 -0.1584
    1C        C  426   3.399   4.547   4.352  0.0938  0.6261 -0.4589
    1C        C  427   3.540   4.551   4.349  0.1043  0.6071 -0.1389
    1C        C  428   3.329   4.546   4.475  0.6018 -0.1494 -0.1614
    1C        C  429   3.404   4.556   4.594  0.3781 -0.0370 -0.0248
    1C        C  430   3.196   4.510   4.720  0.1026 -0.0323 -0.1157
    1C        C  431   3.335   4.541   4.716  0.0513  0.2111 -0.1724
    1C        C  432   3.126   4.488   4.842  0.0242 -0.0224 -0.1556
    1C        C  433   3.208   4.494   4.955 -0.0683  0.1832 -0.0962
    1C        C  434   4.376   4.115   2.045 -0.0799  0.0226 -0.1274
    1C        C  435   4.439   3.990   2.047 -0.4094 -0.1451 -0.1455
    1C        C  436   4.302   4.160   2.159  0.2578  0.1613  0.0378
    1C        C  437   4.332   4.094   2.282  0.5265  0.2690  0.0300
    1C        C  438   4.183   4.250   2.401  0.3062  0.1396  0.1742
    1C        C  439   4.286   4.154   2.401  0.5031  0.3521 -0.0207
    1C        C  440   4.125   4.297   2.521  0.0787  0.5699 -0.1064
    1C        C  441   4.176   4.244   2.641 -0.0088 -0.1896 -0.4053
    1C        C  442   4.008   4.377   2.759  0.2476 -0.1699  0.0967
    1C        C  443   4.121   4.293   2.761  0.1011 -0.3710 -0.2856
    1C        C  444   3.943   4.410   2.880  0.1113 -0.2768  0.0477
    1C        C  445   4.000   4.377   3.005  0.0854  0.1590  0.1709
    1C        C  446   3.812   4.468   3.127 -0.3061 -0.4067 -0.1619
    1C        C  447   3.943   4.415   3.128  0.1033  0.5803  0.0478
    1C        C  448   3.745   4.492   3.249 -0.1893  0.1612 -0.2094
    1C        C  449   3.811   4.470   3.372  0.0636 -0.1720 -0.4066
    1C        C  450   3.605   4.518   3.491  0.5415  0.9240  0.1693
    1C        C  451   3.744   4.496   3.494  0.3608 -0.3157 -0.2171
    1C        C  452   3.537   4.534   3.614 -0.2342  0.5073 -0.2052
    1C        C  453   3.601   4.529   3.739 -0.0804  0.1094 -0.3032
    1C        C  454   3.393   4.533   3.860  0.3557 -0.1654 -0.2580
    1C        C  455   3.534   4.541   3.862  0.3398  0.0065 -0.0640
    1C        C  456   3.326   4.524   3.985  0.3801  0.3145 -0.2125
    1C        C  457   3.395   4.529   4.107  0.2313  0.0835 -0.1202
    1C        C  458   3.189   4.509   4.232  0.0103  0.2424 -0.0101
    1C        C  459   3.328   4.535   4.231 -0.1532  1.1355 -0.3683
    1C        C  460   3.122   4.493   4.356  0.5665 -0.3641  0.2206
    1C        C  461   3.192   4.509   4.477  0.6499 -0.3237  0.1695
    1C        C  462   3.000   4.424   4.599  0.0394 -0.0673 -0.0120
    1C        C  463   3.127   4.486   4.600  0.1133 -0.2101 -0.0899
    1C        C  464   2.932   4.396   4.720  0.3011 -0.3136  0.0808
    1C        C  465   2.991   4.441   4.841  0.1237 -0.3295  0.1754
    1C        C  466   2.803   4.330   4.956 -0.5828  0.3200 -0.4015
    1C        C  467   2.913   4.417   4.958 -0.1422 -0.2397  0.0224
    1C        C  468   4.123   4.283   2.042  0.0004  0.3403  0.5498
    1C        C  469   4.186   4.244   2.160  0.1256 -0.0237  0.3614
    1C        C  470   4.010   4.375   2.276  0.0947  0.1277 -0.3779
    1C        C  471   4.128   4.295   2.279  0.0619  0.1034  0.2724
    1C        C  472   3.943   4.404   2.396 -0.1056 -0.3671 -0.3707
    1C        C  473   4.003   4.368   2.518 -0.4173 -0.2780 -0.1941
    1C        C  474   3.810   4.461   2.639  0.1503 -0.3347 -0.3134
    1C        C  475   3.940   4.406   2.639  0.1353 -0.3584  0.1193
    1C        C  476   3.742   4.483   2.761  0.3085 -0.0379 -0.2833
    1C        C  477   3.813   4.464   2.881  0.1190 -0.2644 -0.2132
    1C        C  478   3.610   4.525   3.006  0.0728 -0.2576  0.0772
    1C        C  479   3.747   4.490   3.003  0.2572  0.4981 -0.3034
    1C        C  480   3.537   4.535   3.126 -0.0999 -0.3258 -0.0277
    1C        C  481   3.607   4.519   3.248 -0.3003 -0.4061  0.0721
    1C        C  482   3.393   4.530   3.372  0.1837 -0.2071  0.3982
    1C        C  483   3.534   4.527   3.369  0.1933  0.2811  0.3258
    1C        C  484   3.323   4.530   3.494 -0.1558 -0.0145  0.1988
    1C        C  485   3.396   4.534   3.615 -0.2285  0.6087  0.2243
    1C        C  486   3.187   4.497   3.741 -0.2867 -0.3015 -0.1181
    1C        C  487   3.325   4.527   3.737 -0.3516  0.0253  0.1188
    1C        C  488   3.121   4.477   3.865  0.0737 -0.1163  0.1034
    1C        C  489   3.188   4.497   3.987  0.3104  0.6884 -0.1542
    1C        C  490   2.997   4.416   4.112  0.4707  0.3011  0.1206
    1C        C  491   3.121   4.483   4.111  0.1118  0.9782 -0.2269
    1C        C  492   2.939   4.381   4.236  0.3696 -0.4662 -0.1367
    1C        C  493   2.998   4.425   4.356  0.6471 -0.5242 -0.2487
    1C        C  494   2.827   4.300   4.479  0.3121  0.0689 -0.2263
    1C        C  495   2.937   4.388   4.478  0.4244 -0.0678 -0.2148
    1C        C  496   2.776   4.246   4.599  0.4235 -0.3431 -0.3576
    1C        C  497   2.822   4.306   4.719  0.2819 -0.2918 -0.3254
    1C        C  498   2.670   4.159   4.843 -0.6477  0.3161 -0.1768
    1C        C  499   2.756   4.271   4.838  0.1348 -0.2787 -0.4000
    1C        C  500   2.588   4.119   4.949 -0.4267 -0.0582 -0.1409
    1C        C  501   4.004   4.356   2.037 -0.3231 -0.2132 -0.0675
    1C        C  502   3.814   4.459   2.154 -0.1599  0.1951 -0.0924
    1C        C  503   3.944   4.403   2.154  0.0300  0.6320 -0.2230
    1C        C  504   3.740   4.472   2.273 -0.2275  0.2684 -0.1453
    1C        C  505   3.811   4.455   2.394  0.1760  0.3564 -0.3746
    1C        C  506   3.606   4.511   2.515  0.1844 -0.1337  0.1964
    1C        C  507   3.744   4.481   2.515  0.2170  0.0247 -0.2876
    1C        C  508   3.537   4.515   2.638 -0.0031 -0.2744  0.0900
    1C        C  509   3.603   4.508   2.762  0.3062 -0.0951 -0.0703
    1C        C  510   3.395   4.520   2.885  0.3089 -0.4649  0.2746
    1C        C  511   3.536   4.519   2.886  0.3127 -0.0464 -0.0768
    1C        C  512   3.325   4.515   3.007  0.0050 -0.1946  0.1078
    1C        C  513   3.396   4.520   3.129 -0.1235 -0.0183  0.1702
    1C        C  514   3.186   4.483   3.251  0.2633 -0.3719 -0.0892
    1C        C  515   3.323   4.518   3.250  0.2343 -0.2589  0.3797
    1C        C  516   3.120   4.466   3.374  0.1577 -0.8504 -0.2131
    1C        C  517   3.186   4.494   3.496 -0.1075 -0.2107 -0.2155
    1C        C  518   2.993   4.412   3.618  0.0483 -0.6529 -0.3339
    1C        C  519   3.121   4.472   3.619  0.0158 -0.5946 -0.2214
    1C        C  520   2.939   4.375   3.743  0.2384 -0.3867 -0.1748
    1C        C  521   2.996   4.411   3.867  0.2931 -0.5430 -0.1549
    1C        C  522   2.835   4.280   3.991  0.6899 -0.0682  0.1452
    1C        C  523   2.936   4.378   3.990  0.5760  0.0502  0.1462
    1C        C  524   2.789   4.230   4.115  0.5616 -0.4336 -0.0435
    1C        C  525   2.831   4.289   4.236 -0.1017  0.0752 -0.0484
    1C        C  526   2.697   4.128   4.360  0.6674 -0.5778 -0.0023
    1C        C  527   2.781   4.241   4.359  0.1177 -0.1569 -0.0461
    1C        C  528   2.652   4.071   4.481 -0.8374  0.4822 -0.0356
    1C        C  529   2.686   4.138   4.601  0.1332 -0.1047  0.0265
    1C        C  530   2.587   3.955   4.729  0.0662 -0.1655  0.0196
    1C        C  531   2.648   4.084   4.725  0.1464 -0.2007 -0.0069
    1C        C  532   2.536   3.897   4.848  0.1244 -0.1943  0.0339
    1C        C  533   2.525   3.994   4.953  0.3396 -0.4390  0.2872
    1C        C  534   3.617   4.555   2.039 -0.1911  0.0570 -0.4574
    1C        C  535   3.752   4.517   2.043 -0.1350  0.2858 -0.0580
    1C        C  536   3.532   4.530   2.152  0.0978  0.0209 -0.2464
    1C        C  537   3.602   4.508   2.273 -0.4179 -0.4406 -0.0283
    1C        C  538   3.391   4.514   2.397  0.0631 -0.6330  0.2666
    1C        C  539   3.532   4.516   2.395  0.0582 -0.6319  0.2579
    1C        C  540   3.323   4.501   2.520  0.2350 -0.1136  0.4172
    1C        C  541   3.396   4.507   2.641  0.0163 -0.3696  0.5595
    1C        C  542   3.186   4.483   2.764 -0.0265 -0.4906  0.0703
    1C        C  543   3.324   4.508   2.763 -0.1112 -0.0141  0.4775
    1C        C  544   3.117   4.463   2.886 -0.2428 -0.2038 -0.0086
    1C        C  545   3.187   4.486   3.007 -0.0370  0.0201 -0.1725
    1C        C  546   2.992   4.402   3.132  0.2488 -0.2839  0.2367
    1C        C  547   3.118   4.465   3.128  0.2159 -0.2431 -0.0771
    1C        C  548   2.931   4.366   3.254 -0.2823 -0.4670 -0.0830
    1C        C  549   2.992   4.408   3.374  0.0099 -0.5225 -0.2154
    1C        C  550   2.830   4.274   3.501 -0.0401 -0.6323 -0.4431
    1C        C  551   2.933   4.370   3.497 -0.1160 -0.5459 -0.2867
    1C        C  552   2.786   4.223   3.625  0.1542 -0.2310 -0.2080
    1C        C  553   2.836   4.278   3.745  0.0135 -0.1440 -0.1893
    1C        C  554   2.704   4.115   3.871  0.5207  0.1498  0.0004
    1C        C  555   2.787   4.230   3.868  0.4463  0.2099  0.1244
    1C        C  556   2.668   4.055   3.993  0.5553  0.0271 -0.0466
    1C        C  557   2.707   4.115   4.115  0.8986 -0.6779  0.1992
    1C        C  558   2.604   3.935   4.241  0.2791 -0.5268 -0.2310
    1C        C  559   2.665   4.062   4.239  0.2310 -0.4919  0.0587
    1C        C  560   2.572   3.872   4.364  0.5268 -0.2451 -0.0149
    1C        C  561   2.594   3.943   4.484  0.0707  0.0622 -0.1011
    1C        C  562   2.535   3.746   4.612 -0.5111  0.1976 -0.1372
    1C        C  563   2.564   3.884   4.609 -0.1841  0.1376 -0.1200
    1C        C  564   2.514   3.676   4.733 -0.6068 -0.1827 -0.3653
    1C        C  565   2.513   3.756   4.850 -0.3296 -0.1299 -0.3948
    1C        C  566   2.534   3.544   4.973  0.0093  0.0417  0.2803
    1C        C  567   2.526   3.683   4.969  0.3535  0.0480 -0.3556
    1C        C  568   3.327   4.468   2.039  0.3042 -0.5645  0.0740
    1C        C  569   3.391   4.511   2.156  0.1071  0.0141 -0.0318
    1C        C  570   3.180   4.467   2.278  0.1748  0.1715  0.0912
    1C        C  571   3.317   4.505   2.277  0.3380 -0.4208  0.0858
    1C        C  572   3.116   4.445   2.401  0.5314 -0.4210  0.1697
    1C        C  573   3.185   4.467   2.522  0.3353 -0.5197  0.2990
    1C        C  574   2.988   4.397   2.647 -0.1034 -0.2287  0.1053
    1C        C  575   3.116   4.457   2.644 -0.1251 -0.1875  0.0654
    1C        C  576   2.928   4.359   2.769 -0.2702 -0.5058 -0.0615
    1C        C  577   2.993   4.397   2.889 -0.0322 -0.5975 -0.1626
    1C        C  578   2.827   4.266   3.014  0.4524 -0.3930  0.3211
    1C        C  579   2.933   4.360   3.011  0.6287 -0.5989  0.1635
    1C        C  580   2.775   4.219   3.136 -0.5896 -0.2054 -0.0400
    1C        C  581   2.826   4.271   3.258 -0.5324 -0.1881 -0.0731
    1C        C  582   2.698   4.106   3.383 -0.4799 -0.6629  0.0929
    1C        C  583   2.776   4.223   3.381 -0.4588 -0.6829 -0.2343
    1C        C  584   2.663   4.048   3.507 -0.1175 -0.0880  0.4672
    1C        C  585   2.705   4.107   3.628 -0.3276  0.1149  0.4435
    1C        C  586   2.598   3.927   3.752  0.0960 -0.3002  0.0322
    1C        C  587   2.665   4.051   3.752 -0.1351 -0.1694  0.3792
    1C        C  588   2.568   3.867   3.876 -0.4908  0.1312  0.1029
    1C        C  589   2.598   3.933   3.998  0.1404  0.2558 -0.1127
    1C        C  590   2.536   3.732   4.124 -1.3145  0.2183 -0.0361
    1C        C  591   2.571   3.869   4.121 -0.3311 -0.0269 -0.3521
    1C        C  592   2.522   3.666   4.248 -0.5316 -0.2612 -0.1872
    1C        C  593   2.531   3.737   4.370 -0.0515 -0.0925 -0.3107
    1C        C  594   2.501   3.530   4.495 -0.0570  0.2014 -0.0353
    1C        C  595   2.519   3.671   4.493 -0.9863  0.3272 -0.1619
    1C        C  596   2.504   3.459   4.617  0.1077  0.1747 -0.0463
    1C        C  597   2.509   3.534   4.737  0.2483 -0.2046  0.1912
    1C        C  598   2.531   3.323   4.860  0.7888  0.0180  0.1668
    1C        C  599   2.522   3.463   4.859 -0.0271 -0.0267  0.3298
    1C        C  600   2.532   3.247   4.978 -0.3202 -0.0873  0.1160
    1C        C  601   3.196   4.426   2.041  0.3362 -0.6485  0.3089
    1C        C  602   2.981   4.385   2.158  0.3580 -0.5718  0.0396
    1C        C  603   3.115   4.435   2.156  0.1812 -0.0885  0.1575
    1C        C  604   2.919   4.359   2.283  0.6856 -0.2673  0.2653
    1C        C  605   2.983   4.398   2.403  0.4373 -0.1411  0.3548
    1C        C  606   2.819   4.266   2.527 -0.1551 -0.2170  0.2962
    1C        C  607   2.924   4.360   2.526  0.0893 -0.4895  0.0837
    1C        C  608   2.772   4.212   2.648 -1.2907  0.1157  0.0227
    1C        C  609   2.824   4.264   2.769 -0.6557 -0.0907 -0.1582
    1C        C  610   2.685   4.107   2.894 -0.3118  0.4558  0.0065
    1C        C  611   2.777   4.214   2.893  0.3397 -0.0874  0.2373
    1C        C  612   2.651   4.046   3.016 -0.6692  0.1080 -0.2633
    1C        C  613   2.693   4.105   3.137 -1.2264  0.2477 -0.1350
    1C        C  614   2.588   3.923   3.264 -0.9727  0.1038  0.1990
    1C        C  615   2.659   4.046   3.261 -0.8163  0.0074 -0.1352
    1C        C  616   2.561   3.860   3.387 -0.2220 -0.3003  0.1649
    1C        C  617   2.590   3.927   3.507 -0.4815  0.1266 -0.0057
    1C        C  618   2.525   3.728   3.634 -0.4438  0.0697 -0.3834
    1C        C  619   2.564   3.863   3.631 -0.4716  0.0901 -0.0210
    1C        C  620   2.514   3.662   3.758 -0.3943  0.5470 -0.1186
    1C        C  621   2.532   3.731   3.880 -0.7155  0.1860  0.1408
    1C        C  622   2.501   3.522   4.005 -1.4512  0.0785 -0.1304
    1C        C  623   2.516   3.663   4.003 -1.1407  0.0554  0.0203
    1C        C  624   2.502   3.454   4.128 -0.5351  0.2225 -0.0456
    1C        C  625   2.506   3.526   4.250 -0.4448 -0.2744  0.2564
    1C        C  626   2.531   3.320   4.376 -0.4228 -0.2827  0.3794
    1C        C  627   2.503   3.459   4.374 -0.5577 -0.3057  0.2442
    1C        C  628   2.548   3.250   4.497 -0.0829 -0.2205  0.3749
    1C        C  629   2.526   3.320   4.618 -0.7588  0.0244  0.1204
    1C        C  630   2.597   3.118   4.742 -0.3058 -0.0279  0.0269
    1C        C  631   2.548   3.251   4.740 -0.1810  0.0210  0.0219
    1C        C  632   2.621   3.050   4.865 -0.1923  0.0097  0.0287
    1C        C  633   2.565   3.111   4.981 -0.3345 -0.0933  0.0153
    1C        C  634   2.775   4.305   2.055  0.0460 -0.3406  0.1591
    1C        C  635   2.891   4.383   2.046 -0.0147 -0.2319  0.3327
    1C        C  636   2.740   4.231   2.168 -0.3593  0.4223  0.5386
    1C        C  637   2.809   4.270   2.285  0.0967  0.4453  0.2616
    1C        C  638   2.679   4.102   2.406 -0.4479  0.5306 -0.2966
    1C        C  639   2.764   4.215   2.407 -0.4331  0.5210  0.1021
    1C        C  640   2.643   4.042   2.529 -0.4808  0.3868 -0.3735
    1C        C  641   2.684   4.102   2.650 -0.5276 -0.5006  0.0870
    1C        C  642   2.582   3.919   2.774 -0.4151 -0.0633 -0.1420
    1C        C  643   2.644   4.045   2.773 -0.5844  0.0269  0.3146
    1C        C  644   2.559   3.854   2.897 -0.4690  0.0149 -0.1096
    1C        C  645   2.588   3.919   3.019 -0.8300  0.1893 -0.1135
    1C        C  646   2.525   3.720   3.145 -0.4013  0.3024 -0.1787
    1C        C  647   2.560   3.857   3.142 -0.8835  0.4300 -0.0027
    1C        C  648   2.507   3.654   3.269 -0.1431 -0.1545 -0.3817
    1C        C  649   2.517   3.725   3.390 -0.6794 -0.1689 -0.3234
    1C        C  650   2.500   3.516   3.517 -0.5610 -0.0865  0.2228
    1C        C  651   2.509   3.657   3.513 -0.5751 -0.0943 -0.2730
    1C        C  652   2.513   3.449   3.640 -0.7326  0.2204  0.4097
    1C        C  653   2.505   3.521   3.762  0.0008  0.5274  0.2834
    1C        C  654   2.523   3.310   3.886 -0.8284 -0.0044  0.0108
    1C        C  655   2.500   3.449   3.884 -1.0333 -0.0350 -0.0722
    1C        C  656   2.546   3.246   4.010 -0.3870  0.4284  0.1618
    1C        C  657   2.534   3.316   4.132  0.4442  0.4399  0.2534
    1C        C  658   2.604   3.119   4.254  0.0106  0.1276 -0.2702
    1C        C  659   2.552   3.250   4.255  0.3229  0.2555  0.1799
    1C        C  660   2.628   3.053   4.377 -0.0759 -0.0775 -0.3574
    1C        C  661   2.592   3.116   4.498 -0.2633 -0.2899 -0.2988
    1C        C  662   2.707   2.937   4.621 -0.0088  0.1979 -0.1225
    1C        C  663   2.625   3.053   4.620  0.2806  0.4070 -0.0775
    1C        C  664   2.743   2.874   4.742  0.2128  0.3269 -0.1190
    1C        C  665   2.693   2.927   4.865 -0.0965  0.0646 -0.1300
    1C        C  666   2.735   2.862   4.982 -0.5712 -0.0321 -0.0127
    1C        C  667   2.672   4.025   2.047  0.3894 -0.0569  0.2657
    1C        C  668   2.678   4.104   2.162 -0.3897  0.4625 -0.0385
    1C        C  669   2.588   3.910   2.287 -0.1366  0.1232 -0.1340
    1C        C  670   2.643   4.042   2.284 -0.4764  0.2676 -0.1609
    1C        C  671   2.560   3.845   2.408 -0.2801  0.3261 -0.0543
    1C        C  672   2.583   3.915   2.529 -0.3318  0.3133 -0.0346
    1C        C  673   2.518   3.715   2.656 -0.4144  0.0551 -0.3039
    1C        C  674   2.556   3.851   2.653 -0.6937  0.1387 -0.1984
    1C        C  675   2.508   3.648   2.780  0.0635  0.0114 -0.2849
    1C        C  676   2.524   3.717   2.902  0.0038 -0.1088 -0.2078
    1C        C  677   2.499   3.508   3.027 -0.3578  0.1578  0.1036
    1C        C  678   2.517   3.648   3.025  0.3401  0.0631 -0.0901
    1C        C  679   2.499   3.440   3.151 -0.3177 -0.1989 -0.0910
    1C        C  680   2.497   3.513   3.272 -0.5284 -0.1243 -0.1389
    1C        C  681   2.526   3.305   3.397 -0.4099  0.2613  0.0763
    1C        C  682   2.500   3.444   3.395 -0.7609  0.1981  0.0505
    1C        C  683   2.541   3.236   3.519 -0.6555  0.4908  0.2373
    1C        C  684   2.531   3.309   3.640 -0.0801  0.2992  0.4061
    1C        C  685   2.593   3.110   3.765 -0.1217 -0.1180 -0.1649
    1C        C  686   2.548   3.244   3.764 -0.1148 -0.1101  0.2006
    1C        C  687   2.630   3.052   3.888  0.1566  0.6219  0.1121
    1C        C  688   2.599   3.115   4.010 -0.1403  0.5225  0.0912
    1C        C  689   2.709   2.936   4.134  0.1517  0.2667  0.0437
    1C        C  690   2.629   3.052   4.133 -0.6785 -0.2970 -0.1861
    1C        C  691   2.752   2.881   4.257  0.2637  0.0650 -0.0807
    1C        C  692   2.707   2.936   4.378 -0.3637 -0.2718 -0.1572
    1C        C  693   2.754   2.882   4.500  0.4847  0.5619 -0.1027
    1C        C  694   2.626   3.893   2.051 -0.1507  0.1246  0.2285
    1C        C  695   2.525   3.702   2.171 -1.0487  0.1317 -0.2048
    1C        C  696   2.576   3.834   2.168 -0.1863 -0.1814  0.0636
    1C        C  697   2.507   3.637   2.295 -0.1693  0.1238 -0.0676
    1C        C  698   2.519   3.710   2.415  0.0092  0.2302 -0.1476
    1C        C  699   2.484   3.502   2.540 -0.7406  0.0177  0.1792
    1C        C  700   2.496   3.643   2.537 -0.0725 -0.0432 -0.3094
    1C        C  701   2.501   3.435   2.663 -0.0876 -0.0805  0.0403
    1C        C  702   2.502   3.507   2.784 -0.6842  0.0420 -0.0210
    1C        C  703   2.535   3.299   2.911 -0.0694  0.3409 -0.2476
    1C        C  704   2.500   3.436   2.906 -0.6733  0.2030  0.0725
    1C        C  705   2.541   3.230   3.034 -0.3237  0.1915 -0.3198
    1C        C  706   2.521   3.301   3.154 -0.2125 -0.1814 -0.0804
    1C        C  707   2.595   3.102   3.280  0.3202  0.3971  0.2182
    1C        C  708   2.541   3.233   3.276 -0.0286  0.2518  0.1304
    1C        C  709   2.627   3.039   3.402 -0.0434  0.2413  0.2322
    1C        C  710   2.593   3.105   3.522 -0.4046  0.5804 -0.0521
    1C        C  711   2.706   2.928   3.646 -0.1572  0.1768  0.1779
    1C        C  712   2.623   3.042   3.645 -0.2503  0.1081 -0.3293
    1C        C  713   2.754   2.879   3.770  0.1428  0.6529  0.2519
    1C        C  714   2.716   2.940   3.891  0.3372  0.7615  0.2610
    1C        C  715   2.753   2.877   4.013  0.1342  0.2256  0.0542
    1C        C  716   2.448   3.497   2.061  0.5405 -0.5104 -0.4746
    1C        C  717   2.488   3.631   2.057 -0.4795 -0.1902 -0.1995
    1C        C  718   2.458   3.421   2.182 -0.1446  0.2589  0.0818
    1C        C  719   2.477   3.498   2.300 -0.0767  0.1092  0.1710
    1C        C  720   2.504   3.287   2.424  0.1186  0.1881 -0.2343
    1C        C  721   2.480   3.426   2.421 -0.7721  0.0497  0.1585
    1C        C  722   2.531   3.222   2.546  0.4752  0.0967 -0.3598
    1C        C  723   2.523   3.295   2.667  0.0039 -0.0753 -0.2853
    1C        C  724   2.594   3.096   2.789  0.5508  0.3550  0.1370
    1C        C  725   2.546   3.228   2.789  0.1859  0.2231 -0.1557
    1C        C  726   2.616   3.031   2.913  0.6384  0.3729  0.1290
    1C        C  727   2.588   3.096   3.035  0.6111  0.5143  0.0469
    1C        C  728   2.701   2.919   3.157 -0.7595 -0.0956  0.4139
    1C        C  729   2.622   3.036   3.158 -0.2194  0.2738  0.1652
    1C        C  730   2.749   2.868   3.280 -0.1154  0.1484  0.2628
    1C        C  731   2.703   2.920   3.402 -0.1090  0.1974  0.2454
    1C        C  732   2.751   2.870   3.525  0.1411  0.3415  0.2089
    1C        C  733   2.492   3.197   2.073 -0.4259 -0.2645  0.5629
    1C        C  734   2.483   3.280   2.186 -1.1449  0.0811  0.2603
    1C        C  735   2.576   3.082   2.306  0.2057  0.0976  0.0956
    1C        C  736   2.516   3.211   2.305 -0.1713 -0.0771 -0.0948
    1C        C  737   2.606   3.019   2.428  0.6317  0.3873  0.1398
    1C        C  738   2.585   3.092   2.547  0.7306  0.2067  0.2654
    1C        C  739   2.692   2.906   2.668  0.2366 -0.0392  0.0973
    1C        C  740   2.620   3.028   2.668  0.3411  0.0209  0.2792
    1C        C  741   2.738   2.855   2.791 -0.3553 -0.0114  0.3328
    1C        C  742   2.693   2.913   2.912  0.3677  0.1930  0.5104
    1C        C  743   2.744   2.865   3.035  0.0468  0.0978  0.6074
    1C        C  744   2.545   3.069   2.073  0.7263  0.1940 -0.1809
    1C        C  745   2.688   2.898   2.185 -0.1827 -0.1044  0.0905
    1C        C  746   2.609   3.015   2.186  0.4486  0.3220  0.0381
    1C        C  747   2.732   2.841   2.307  0.4306  0.2562  0.0387
    1C        C  748   2.687   2.903   2.426  0.8735  0.5603  0.0458
    1C        C  749   2.736   2.849   2.547  0.5189  0.2646  0.0543
    1C        C  750   2.724   2.832   2.067 -0.2543 -0.0670  0.0493
    1C        C  751   3.654   2.299   1.996  0.7854  0.1307 -0.0546
    1C        O  752   3.648   2.182   2.043  0.4134 -0.0444 -0.5233
    1C        O  753   3.660   2.307   1.856 -0.0724  0.4138 -0.0846
    1C        C  754   4.640   3.047   1.994  0.1465 -0.3049  0.2846
    1C        O  755   4.758   3.089   2.005 -0.1934  0.7431 -0.0006
    1C        O  756   4.626   2.996   1.865  0.1111 -0.0892  0.2029
    1C        C  757   4.445   4.211   1.956  0.5139 -0.4161 -0.1456
    1C        O  758   4.517   4.302   2.006 -0.5800 -0.0042  0.7327
    1C        O  759   4.401   4.249   1.828  0.0368 -0.2324  0.0699
    1C        C  760   3.590   4.667   1.946 -0.3641  0.1156 -0.3358
    1C        O  761   3.604   4.789   1.971  0.1576  0.0442 -0.2658
    1C        O  762   3.553   4.635   1.815 -0.0630  0.1715 -0.4336
    1C        C  763   2.884   4.487   1.941  0.0946 -0.4287  0.1294
    1C        O  764   2.899   4.440   1.826  0.2428 -0.1129  0.0191
    1C        O  765   2.802   4.600   1.956  0.2390 -0.3716  0.4960
    1C        C  766   2.341   3.459   1.965 -0.0433  0.0834 -0.0686
    1C        O  767   2.221   3.441   1.998  0.1442  0.4006  0.8187
    1C        O  768   2.376   3.451   1.830  0.3754 -0.6553  0.0752
    1C        C  769   4.687   3.591   5.042  0.4090 -0.2341 -0.2869
    1C        O  770   4.676   3.577   5.167  0.2420  0.5510 -0.2099
    1C        O  771   4.813   3.634   4.997  0.5385 -0.3089  0.0030
    1C        C  772   4.290   4.445   5.019 -0.1271 -0.4701  0.9710
    1C        O  773   4.298   4.425   5.143  0.1198 -0.7072  0.9160
    1C        O  774   4.373   4.548   4.971 -0.7257 -0.4147  0.0064
    1C        C  775   4.153   2.509   5.045  0.1565  0.0828  0.1563
    1C        O  776   4.204   2.409   4.987 -0.5574 -0.0788 -0.2022
    1C        O  777   4.158   2.510   5.185 -0.7274 -0.0489  0.1981
    1C        C  778   2.914   4.505   5.077 -0.2020 -0.2487  0.0312
    1C        O  779   2.871   4.624   5.085  0.3042 -0.0981  0.6055
    1C        O  780   2.945   4.460   5.206  0.1695 -0.0057  0.0296
    1C        C  781   2.501   3.032   5.088 -0.1448 -0.4475 -0.1314
    1C        O  782   2.382   2.994   5.069 -0.3267  0.0498 -0.0066
    1C        O  783   2.507   3.077   5.220 -0.2183  0.3095 -0.3834
    1C        C  784   2.425   3.983   5.062  0.4009 -0.2977  0.3585
    1C        O  785   2.307   3.946   5.039  0.3520 -0.0196  0.1617
    1C        O  786   2.444   4.012   5.198  0.3745 -0.0868  0.3176
    1C        C  787   2.951   2.437   1.988  0.0564 -0.2043  0.1376
    1C        O  788   2.925   2.477   1.871 -0.3151 -0.0204  0.2824
    1C        O  789   2.945   2.298   1.991  0.0716 -0.2075  0.0409
    1C        C  790   3.164   2.363   5.044  0.6476 -0.0240 -0.5142
    1C        O  791   3.115   2.261   4.989 -0.0848 -0.0496  0.1608
    1C        O  792   3.125   2.365   5.179  0.1658  0.2947 -0.6534
    1C        H  793   4.275   3.019   5.063 -2.0778  0.0132  0.5234
    1C        H  794   4.228   2.787   5.063 -0.4705  1.6231  0.3924
    1C        H  795   4.478   3.127   5.061  1.3568  0.3544 -0.3354
    1C        H  796   4.527   3.364   5.061 -0.0999 -1.2566  0.3917
    1C        H  797   4.596   3.815   5.017 -0.2163 -0.9105 -0.0473
    1C        H  798   4.414   3.976   5.055 -0.2016  0.2174 -0.1162
    1C        H  799   4.294   4.175   5.047  1.2210 -0.6508  0.8626
    1C        H  800   4.059   4.567   5.001  0.2186 -0.4658  0.7015
    1C        H  801   3.828   4.627   5.021 -0.2566  0.4712  0.1243
    1C        H  802   3.593   4.640   5.033  1.1087 -1.2935  1.4546
    1C        H  803   3.402   4.468   5.033 -1.7403 -2.0642  0.0154
    1C        H  804   3.165   4.530   5.046  0.9818 -1.3381  1.0534
    1C        H  805   3.901   2.459   5.062  0.2680 -0.5441 -0.0682
    1C        H  806   3.676   2.455   5.073 -0.1716  0.1800  0.3992
    1C        H  807   3.032   2.609   5.069  0.1576  0.7730 -0.4841
    1C        H  808   3.441   2.494   5.072 -0.8109  2.3209 -0.7748
    1C        H  809   2.818   2.689   5.056  1.6324 -0.1096  0.5138
    1C        H  810   2.663   2.854   5.061 -1.8954  0.3407 -1.1435
    1C        H  811   2.527   3.295   5.074  0.3491 -0.2447  0.2355
    1C        H  812   2.600   3.509   5.050 -0.1494 -0.4357  0.2006
    1C        H  813   2.567   3.729   5.056  0.1245 -1.0522  0.3599
    1C        H  814   2.595   4.176   5.040  0.0085 -0.0973 -0.1487
    1C        H  815   2.781   4.285   5.051 -0.5585 -0.5496 -0.7977
    1C        H  816   2.668   2.848   1.976  0.1517  0.6123 -0.0890
    1C        H  817   2.821   2.667   1.983 -1.2804 -0.9764  0.1642
    1C        H  818   3.191   2.385   2.013 -0.2492  0.4096 -0.3442
    1C        H  819   3.419   2.399   1.983  2.2571  1.1042 -1.8172
    1C        H  820   3.833   2.539   1.971 -0.4583  0.9212  0.0429
    1C        H  821   4.034   2.664   1.967  1.2719 -0.4748  0.2221
    1C        H  822   4.238   2.718   1.970 -0.3093 -0.6286  0.5618
    1C        H  823   4.417   2.866   1.978 -0.4954  0.1547  0.3189
    1C        H  824   4.613   3.301   1.981  1.4997 -1.2884  0.4070
    1C        H  825   4.468   3.504   1.963  1.1374  0.4850 -0.5172
    1C        H  826   4.524   3.745   1.959 -0.7935 -0.3410  0.0588
    1C        H  827   3.813   4.552   1.962  0.9514 -0.5106  0.4001
    1C        H  828   3.965   4.379   1.940 -0.3608  0.0029 -0.0004
    1C        H  829   4.156   4.238   1.950  0.5463 -1.1694  1.4555
    1C        H  830   4.457   3.951   1.949  0.0139  0.5623 -0.3527
    1C        H  831   2.662   3.829   1.973 -0.6863  1.6442 -1.3013
    1C        H  832   2.672   4.071   1.950 -2.9247  0.4696  0.3955
    1C        H  833   2.697   4.321   1.984  0.6282 -3.4508 -1.3672
    1C        H  834   3.386   4.453   1.950  0.3274  0.3098 -0.0667
    1C        H  835   3.175   4.349   1.970  0.6144  0.7358 -1.3367
    1C        H  836   2.507   2.999   2.002  0.8379 -1.0790  0.9735
    1C        H  837   2.424   3.217   1.992 -0.0603 -1.5810 -0.0903
    1C        H  838   2.531   3.660   1.963 -1.4565  1.2489 -0.2413
    2V3OU   H29  839   2.797   3.545   0.588 -1.1548  1.1591 -0.2461
    2V3OU   C27  840   2.776   3.498   0.687  0.5006 -0.0621 -0.4306
    2V3OU   H27  841   2.716   3.566   0.753  0.9343  1.1669 -1.2821
    2V3OU   H28  842   2.730   3.396   0.680  1.0226 -0.1914 -2.2867
    2V3OU   O11  843   2.905   3.474   0.745  0.3325 -0.7589 -0.3328
    2V3OU   C15  844   2.919   3.396   0.858 -0.1853 -0.0640  0.2173
    2V3OU   C13  845   3.051   3.373   0.902  0.0574 -0.1069 -0.5145
    2V3OU   C14  846   3.074   3.266   0.988  0.2381 -0.4265 -0.9546
    2V3OU   C16  847   2.974   3.179   1.032 -0.1729  0.5059  0.0133
    2V3OU    H6  848   2.990   3.095   1.101  0.3165  0.9065  0.3963
    2V3OU   C12  849   3.212   3.233   1.031  0.0808  0.0543 -0.0509
    2V3OU    O2  850   3.239   3.130   1.097  0.5286  0.1838 -0.0340
    2V3OU   C10  851   3.320   3.302   0.961  0.3342 -0.3291 -0.0429
    2V3OU    C8  852   3.452   3.264   0.980  0.3398 -0.0328  0.5236
    2V3OU   O10  853   3.482   3.141   1.031  0.0805 -0.1925  0.2959
    2V3OU   H26  854   3.395   3.111   1.062 -0.0214  0.4866  0.6955
    2V3OU    C6  855   3.564   3.340   0.935  0.2006 -0.2100 -0.1402
    2V3OU    C5  856   3.534   3.461   0.874 -0.1957 -0.1747  0.1202
    2V3OU    C4  857   3.703   3.287   0.940  0.2466 -0.0698  0.1177
    2V3OU    H4  858   3.718   3.229   1.035 -1.2125 -0.1438  0.3205
    2V3OU    H5  859   3.714   3.219   0.850 -0.3996  0.4194 -0.3442
    2V3OU    C2  860   3.817   3.390   0.938  0.3583 -0.1998 -0.6227
    2V3OU    O6  861   3.800   3.466   1.058  0.4191 -0.3788 -0.4999
    2V3OU   H21  862   3.759   3.547   1.026  2.5394  1.2443  0.6477
    2V3OU    C3  863   3.777   3.483   0.823 -0.2800  0.2891 -0.0139
    2V3OU    H2  864   3.853   3.565   0.814 -0.9813  0.8918 -0.4795
    2V3OU    H3  865   3.777   3.435   0.722  0.0433  1.7915 -0.7448
    2V3OU   C25  866   3.955   3.325   0.924  0.3501 -0.4213  0.2363
    2V3OU    O7  867   4.000   3.297   0.813  0.4366  0.2874  0.0889
    2V3OU   C26  868   4.030   3.293   1.052  0.4909  0.2144  0.3147
    2V3OU   H22  869   4.062   3.390   1.099 -0.9294  0.5703  0.5798
    2V3OU   H23  870   4.122   3.234   1.029  1.4563  1.7402  0.0757
    2V3OU    O8  871   3.958   3.207   1.137  0.5094  0.1749  0.2908
    2V3OU   H24  872   3.933   3.257   1.217 -0.1841  1.2375 -0.5671
    2V3OU    C1  873   3.646   3.557   0.842 -0.3844  0.0600  0.1616
    2V3OU    H1  874   3.623   3.616   0.749 -0.7262 -0.4318 -0.0753
    2V3OU    O3  875   3.660   3.653   0.947 -0.1810 -0.1149  0.2956
    2V3OU   C19  876   3.616   3.789   0.939  0.0387 -0.0457  0.2790
    2V3OU    H9  877   3.524   3.800   0.875 -0.1689  1.9739  0.8697
    2V3OU    O4  878   3.707   3.850   0.851  0.0432 -0.2062  0.1723
    2V3OU   C20  879   3.839   3.871   0.903  0.1083  0.4275 -0.2424
    2V3OU   H10  880   3.887   3.771   0.924  3.6460  2.0753  0.2422
    2V3OU   C24  881   3.609   3.852   1.078  0.2544 -0.3787  0.4446
    2V3OU   H16  882   3.554   3.787   1.150  0.3792  1.3848  2.2436
    2V3OU   H17  883   3.560   3.953   1.074 -2.0395 -1.4210  0.7530
    2V3OU   C23  884   3.749   3.872   1.137  0.4511  0.5762 -0.3167
    2V3OU   H15  885   3.798   3.770   1.150 -0.1775  0.0034 -2.0813
    2V3OU    N1  886   3.736   3.951   1.258 -0.0284 -0.7941  0.5455
    2V3OU   H19  887   3.810   3.916   1.315  1.5594 -1.7066 -1.8838
    2V3OU   H20  888   3.644   3.932   1.294 -0.9766 -0.5062 -1.5293
    2V3OU   C21  889   3.844   3.945   1.037  0.4339  0.5736 -0.3346
    2V3OU   H11  890   3.950   3.926   1.072 -0.0341  1.4020  1.7140
    2V3OU    O5  891   3.828   4.085   1.021  0.2197  0.5875  0.0017
    2V3OU   H18  892   3.771   4.112   1.095  0.4338  3.1354 -0.6651
    2V3OU   C22  893   3.909   3.945   0.790  0.5707  0.1904 -0.1094
    2V3OU   H12  894   3.863   4.045   0.772  2.5260  1.1710  0.0685
    2V3OU   H13  895   3.902   3.886   0.695  0.2900  1.1133 -0.6656
    2V3OU   H14  896   4.015   3.965   0.819 -0.1864  2.3310  1.4338
    2V3OU   C11  897   3.156   3.466   0.858  0.3117 -0.0448  0.2174
    2V3OU    O1  898   3.133   3.585   0.829 -0.6232 -0.1301  0.5758
    2V3OU    C9  899   3.293   3.427   0.898  0.3299 -0.4030 -0.1890
    2V3OU    C7  900   3.399   3.503   0.850 -0.0460  0.2302 -0.0329
    2V3OU    O9  901   3.382   3.614   0.770 -0.0687  0.5611  0.4250
    2V3OU   H25  902   3.286   3.628   0.773 -0.1159  0.0631  2.5707
    2V3OU   C17  903   2.820   3.313   0.915 -0.0509 -0.2384  0.1968
    2V3OU    H7  904   2.715   3.336   0.898 -0.3382  2.4679  4.3248
    2V3OU   C18  905   2.841   3.205   1.000 -0.3848 -0.2816  0.2265
    2V3OU    H8  906   2.776   3.158   1.074  0.5017 -0.2216  1.0680
    3SOL     OW  907   1.655   6.037   1.668 -0.1931 -0.4070 -0.3212
    3SOL    HW1  908   1.576   6.014   1.726 -1.3174 -0.5910 -1.8668
    3SOL    HW2  909   1.679   6.133   1.680 -0.2442 -0.5000  0.6168
    4SOL     OW  910   6.215   1.511   1.518 -0.1074 -0.3327  0.6862
    4SOL    HW1  911   6.189   1.479   1.427  1.1815 -0.5665  0.3813
    4SOL    HW2  912   6.212   1.611   1.520 -0.6463 -0.3419  0.5537
    5SOL     OW  913   4.103   2.791   1.634  1.0924  0.2951 -0.4261
    5SOL    HW1  914   4.097   2.839   1.546 -0.3374 -0.3275 -0.6965
    5SOL    HW2  915   4.064   2.848   1.706  0.8488  0.1862 -0.4705
    6SOL     OW  916   4.304   2.457   1.154 -0.1853  0.0856  0.1127
    6SOL    HW1  917   4.262   2.366   1.165  0.2865 -0.8532 -4.1401
    6SOL    HW2  918   4.403   2.448   1.150 -0.1964  0.3208 -2.5449
    7SOL     OW  919   4.939   0.578   0.982 -0.2696 -0.4872 -0.4419
    7SOL    HW1  920   5.007   0.611   1.048 -1.3244  0.9402 -0.0026
    7SOL    HW2  921   4.856   0.550   1.031 -1.6236  1.9608 -1.1532
    8SOL     OW  922   5.413   2.099   2.158  0.2840  0.3786 -0.3197
    8SOL    HW1  923   5.334   2.059   2.206  0.4620  0.4930  0.0720
    8SOL    HW2  924   5.468   2.152   2.223  1.8513 -1.4166 -0.1163
    9SOL     OW  925   6.028   3.768   6.202  0.0076 -0.3216 -0.4684
    9SOL    HW1  926   5.958   3.747   6.270  2.6400  0.0939  2.6404
    9SOL    HW2  927   6.065   3.859   6.220 -0.3120  0.5153 -3.6109
   10SOL     OW  928   4.747   4.823   0.323 -0.1365  0.3212  0.1661
   10SOL    HW1  929   4.685   4.788   0.393  0.0586  0.1284  0.2443
   10SOL    HW2  930   4.802   4.897   0.362  0.7623 -0.5243  0.5627
   11SOL     OW  931   3.720   6.836   6.624  0.3519  0.5150  0.6832
   11SOL    HW1  932   3.766   6.758   6.665 -0.0586  0.0860  0.3290
   11SOL    HW2  933   3.633   6.852   6.672 -0.9583 -1.0376 -1.0547
   12SOL     OW  934   3.991   6.276   1.764  0.4888 -0.0954  0.3226
   12SOL    HW1  935   3.985   6.347   1.694  1.8263 -3.3119 -3.3886
   12SOL    HW2  936   4.071   6.294   1.822 -1.0079  2.9724  1.6844
   13SOL     OW  937   1.829   5.855   2.298  0.2682 -0.3634 -0.8174
   13SOL    HW1  938   1.814   5.944   2.340 -0.8111 -0.4710 -0.9441
   13SOL    HW2  939   1.911   5.859   2.240  0.6447  0.3284 -0.2548
   14SOL     OW  940   1.812   0.985   2.940  0.2224 -0.0460 -0.2388
   14SOL    HW1  941   1.778   0.897   2.908 -0.3168  0.2429 -0.4746
   14SOL    HW2  942   1.817   0.985   3.040  0.9874 -0.6149 -0.2703
   15SOL     OW  943   1.659   6.065   5.504  0.1734 -0.0514 -0.4782
   15SOL    HW1  944   1.696   5.975   5.528  0.1434  0.5043  1.9134
   15SOL    HW2  945   1.641   6.117   5.587 -2.9854  0.9488 -1.6160
   16SOL     OW  946   4.911   0.195   6.764 -0.5385 -0.0957  0.2138
   16SOL    HW1  947   4.812   0.208   6.776 -0.6651  0.1864 -0.9862
   16SOL    HW2  948   4.940   0.241   6.680  0.5610 -0.4465  0.3925
   17SOL     OW  949   3.570   5.436   4.996  0.7143  0.3853  0.1861
   17SOL    HW1  950   3.584   5.503   5.069 -1.2334  0.9644  0.0644
   17SOL    HW2  951   3.567   5.344   5.035 -0.3070  0.6889  0.8581
   18SOL     OW  952   1.969   0.372   0.086 -0.2952  0.2798 -0.6415
   18SOL    HW1  953   1.890   0.414   0.041 -0.3741 -1.4573 -2.2169
   18SOL    HW2  954   1.939   0.289   0.134  0.1039  1.1674  1.2540
   19SOL     OW  955   0.693   6.040   0.540  0.1840  0.1746 -0.1053
   19SOL    HW1  956   0.641   5.957   0.561  0.6464 -0.4661 -1.3729
   19SOL    HW2  957   0.677   6.109   0.611  0.7812 -1.4186  1.6256
   20SOL     OW  958   2.790   0.470   4.263  0.2798 -0.4005 -0.1996
   20SOL    HW1  959   2.715   0.419   4.220 -1.7651  0.2917  2.2999
   20SOL    HW2  960   2.789   0.564   4.230 -0.1825 -0.2994  0.1019
   21SOL     OW  961   2.957   3.511   2.250 -0.1100  0.2218 -0.1978
   21SOL    HW1  962   2.948   3.545   2.344 -0.0769  0.5888 -0.3244
   21SOL    HW2  963   3.025   3.439   2.247 -1.9534 -1.6541  0.5345
   22SOL     OW  964   0.523   0.286   4.897 -0.1942  0.5419  0.2907
   22SOL    HW1  965   0.430   0.279   4.862  0.7424  0.2021 -2.3847
   22SOL    HW2  966   0.566   0.370   4.862  0.6914  0.4306  1.0593
   23SOL     OW  967   1.938   5.554   3.318  0.0350 -0.1499  0.2926
   23SOL    HW1  968   1.853   5.561   3.266  0.9114 -0.6077 -1.2758
   23SOL    HW2  969   1.982   5.466   3.297 -0.7654 -1.5627  3.7552
   24SOL     OW  970   5.288   1.000   0.786  0.3629 -0.3562 -0.0156
   24SOL    HW1  971   5.319   0.910   0.755 -1.8324 -1.0537 -0.3764
   24SOL    HW2  972   5.339   1.071   0.736  1.2424 -1.3913 -0.6526
   25SOL     OW  973   2.507   6.266   1.681 -0.5266 -0.7002  0.4959
   25SOL    HW1  974   2.525   6.349   1.733 -2.0231  1.5327 -2.2626
   25SOL    HW2  975   2.568   6.193   1.712  1.0884  1.4789  2.8197
   26SOL     OW  976   1.060   0.618   3.061  0.2798 -0.7355 -0.3379
   26SOL    HW1  977   1.123   0.653   3.130  0.5655  2.4650 -2.0564
   26SOL    HW2  978   1.004   0.545   3.101  2.8022 -1.4565  2.1624
   27SOL     OW  979   6.221   0.726   2.540 -0.3095  0.3548 -0.5724
   27SOL    HW1  980   6.271   0.746   2.625 -0.3967  3.7175 -1.1730
   27SOL    HW2  981   6.158   0.801   2.520 -1.5572 -1.1694 -2.7620
   28SOL     OW  982   1.741   1.428   0.792  0.1308  0.6243 -0.0656
   28SOL    HW1  983   1.739   1.481   0.877  1.3834  0.0519  0.3507
   28SOL    HW2  984   1.820   1.457   0.737 -1.5104  2.0697 -1.7849
   29SOL     OW  985   5.231   1.835   2.697  0.2706  0.2075  0.3719
   29SOL    HW1  986   5.326   1.818   2.671  0.5048  2.7714 -0.6847
   29SOL    HW2  987   5.221   1.930   2.726 -1.9693 -0.0521  0.5716
   30SOL     OW  988   4.726   1.692   1.064 -0.1591 -0.0925 -0.0434
   30SOL    HW1  989   4.626   1.687   1.061 -0.1225 -0.8507 -0.1610
   30SOL    HW2  990   4.764   1.600   1.071  0.5599  0.1245 -0.8613
   31SOL     OW  991   1.326   2.029   5.172 -1.0206 -0.1225 -0.4329
   31SOL    HW1  992   1.301   2.115   5.215 -2.2377 -0.0534 -1.2509
   31SOL    HW2  993   1.244   1.976   5.151 -0.3230 -1.2079 -0.4978
   32SOL     OW  994   5.241   6.882   2.210 -0.1740  0.1938 -0.2760
   32SOL    HW1  995   5.247   6.919   2.302  0.8390 -0.8645  0.1139
   32SOL    HW2  996   5.276   6.949   2.145 -0.1409  0.6416  0.1971
   33SOL     OW  997   0.900   1.364   3.828 -0.4326  0.1617  0.0956
   33SOL    HW1  998   0.822   1.322   3.874 -0.6391 -0.1216 -0.5004
   33SOL    HW2  999   0.867   1.431   3.761 -0.2337 -0.9134 -1.1036
   34SOL     OW 1000   0.820   0.276   6.333 -0.1291  0.1673 -0.0654
   34SOL    HW1 1001   0.740   0.269   6.274 -0.0376 -0.4567 -0.1224
   34SOL    HW2 1002   0.794   0.253   6.427 -0.3590  1.5356  0.2243
   35SOL     OW 1003   4.174   1.611   5.545  0.1414 -0.2239  0.2601
   35SOL    HW1 1004   4.191   1.600   5.643  1.3999  0.6775  0.1732
   35SOL    HW2 1005   4.096   1.671   5.531  0.2108 -0.0243  0.7223
   36SOL     OW 1006   1.136   3.089   5.087 -0.4275  0.4442 -0.3566
   36SOL    HW1 1007   1.120   2.997   5.123 -0.8415  1.2552  1.6950
   36SOL    HW2 1008   1.182   3.083   4.999 -0.1030 -1.7191 -0.0979
   37SOL     OW 1009   3.301   6.010   3.301 -0.2898  0.1143 -0.1112
   37SOL    HW1 1010   3.245   5.976   3.226  0.5701 -1.3223 -0.1310
   37SOL    HW2 1011   3.245   6.014   3.384 -0.6056 -0.6720 -0.2780
   38SOL     OW 1012   0.201   4.725   0.556 -0.2095 -0.0041 -0.7461
   38SOL    HW1 1013   0.196   4.766   0.465  0.6209 -0.8282 -1.1765
   38SOL    HW2 1014   0.292   4.688   0.571 -0.5380 -0.4786  0.1630
   39SOL     OW 1015   1.177   4.285   5.100  0.2006  0.3801  0.4367
   39SOL    HW1 1016   1.158   4.383   5.101 -0.0705  0.3304  0.2789
   39SOL    HW2 1017   1.222   4.259   5.186  0.6251  0.7093  0.3150
   40SOL     OW 1018   6.852   1.448   2.770 -0.0748 -0.3571 -0.2633
   40SOL    HW1 1019   6.787   1.453   2.846 -0.6002  0.5700 -0.7574
   40SOL    HW2 1020   6.803   1.463   2.684  0.6151 -0.7909 -0.7303
   41SOL     OW 1021   6.958   3.059   6.141 -0.5036 -0.3322 -0.8409
   41SOL    HW1 1022   6.962   3.096   6.048  0.4313  0.3419 -0.5482
   41SOL    HW2 1023   6.881   3.100   6.190 -0.4291  0.0260 -1.0216
   42SOL     OW 1024   4.944   1.305   1.958  0.5623  0.7633  0.3787
   42SOL    HW1 1025   4.955   1.208   1.936 -0.5739  1.4027 -3.6754
   42SOL    HW2 1026   5.030   1.353   1.944  0.1904  0.9209 -1.5634
   43SOL     OW 1027   4.319   6.409   6.121  0.1347 -0.0772 -0.2926
   43SOL    HW1 1028   4.280   6.455   6.201  2.8588  1.4843  0.2843
   43SOL    HW2 1029   4.321   6.310   6.137 -2.9134 -0.2213 -0.1886
   44SOL     OW 1030   1.670   5.486   6.674  0.6930  0.1179  0.4717
   44SOL    HW1 1031   1.655   5.568   6.728 -0.0051  0.5127 -0.2928
   44SOL    HW2 1032   1.725   5.508   6.593  1.2317 -0.3441  0.7024
   45SOL     OW 1033   1.279   6.816   1.984  0.0561  0.0443 -0.0369
   45SOL    HW1 1034   1.237   6.902   1.954  0.2352  0.1457  0.0051
   45SOL    HW2 1035   1.351   6.836   2.051  2.2682  0.1368 -2.2831
   46SOL     OW 1036   1.222   4.972   3.036 -0.3332  1.0348 -0.1523
   46SOL    HW1 1037   1.171   5.026   2.969 -1.0394  1.3972  0.6595
   46SOL    HW2 1038   1.159   4.912   3.086  0.4813 -0.8826 -1.3104
   47SOL     OW 1039   0.206   4.997   2.593 -0.2750 -0.1320 -0.6178
   47SOL    HW1 1040   0.195   5.058   2.672 -0.3263 -0.3940 -0.4218
   47SOL    HW2 1041   0.229   4.905   2.625 -2.4086 -0.7899 -0.7606
   48SOL     OW 1042   3.355   2.526   6.631  0.0286 -0.0842  0.0915
   48SOL    HW1 1043   3.329   2.470   6.710 -1.0819 -2.2294 -1.6874
   48SOL    HW2 1044   3.454   2.531   6.626  0.1328 -0.6302  1.1592
   49SOL     OW 1045   6.543   2.831   6.752 -0.2083 -0.3855 -0.3125
   49SOL    HW1 1046   6.548   2.745   6.803 -0.9531 -0.7343 -0.8181
   49SOL    HW2 1047   6.620   2.889   6.778 -0.3601 -0.7121  0.9206
   50SOL     OW 1048   2.306   4.537   4.521 -0.1655  0.1766  0.4970
   50SOL    HW1 1049   2.360   4.515   4.440 -0.4677 -1.5447  0.7149
   50SOL    HW2 1050   2.366   4.540   4.601 -0.0389  0.7313  0.3853
   51SOL     OW 1051   2.699   0.204   6.473  0.1368  0.3878 -0.3903
   51SOL    HW1 1052   2.793   0.226   6.446  0.2796 -0.6012 -0.7259
   51SOL    HW2 1053   2.638   0.218   6.395  0.5623 -2.5583 -1.3621
   52SOL     OW 1054   1.799   4.194   2.296  0.1258 -0.0924  0.0496
   52SOL    HW1 1055   1.888   4.222   2.330  0.5597  0.6965 -1.6541
   52SOL    HW2 1056   1.744   4.159   2.372  1.1892  1.1757  1.4677
   53SOL     OW 1057   6.042   6.596   3.413 -0.0972  0.2420 -0.2342
   53SOL    HW1 1058   5.990   6.607   3.329 -0.3055  2.9711  0.1817
   53SOL    HW2 1059   5.988   6.544   3.480 -0.5531 -0.5827 -1.2202
   54SOL     OW 1060   4.199   4.643   5.253  0.3077 -0.3568 -0.3146
   54SOL    HW1 1061   4.174   4.722   5.197  1.7807  0.5085  0.1835
   54SOL    HW2 1062   4.219   4.565   5.194 -0.6500 -0.2048 -0.8447
   55SOL     OW 1063   4.870   2.047   6.800  0.4909 -0.6746  0.2546
   55SOL    HW1 1064   4.871   2.144   6.779  1.3062 -0.8748 -0.7173
   55SOL    HW2 1065   4.866   2.034   6.899  1.0345  0.3576  0.4248
   56SOL     OW 1066   1.302   0.289   1.820 -0.2693 -0.1180 -0.0703
   56SOL    HW1 1067   1.383   0.303   1.762  0.3058  1.7918  1.1075
   56SOL    HW2 1068   1.227   0.344   1.786 -0.5315 -0.4983 -0.1132
   57SOL     OW 1069   5.809   6.801   4.115 -0.1364 -0.2728 -0.2687
   57SOL    HW1 1070   5.833   6.793   4.018 -1.4347 -0.0156 -0.6316
   57SOL    HW2 1071   5.758   6.719   4.143 -1.2788  0.4096 -0.2810
   58SOL     OW 1072   0.771   2.329   0.292  0.3264 -0.4725 -0.4728
   58SOL    HW1 1073   0.730   2.340   0.383  0.7161 -0.6134 -0.2769
   58SOL    HW2 1074   0.708   2.278   0.234 -0.1194  0.0033 -0.4219
   59SOL     OW 1075   6.552   5.950   3.973 -0.6205 -0.5685 -0.0078
   59SOL    HW1 1076   6.579   6.029   3.917  0.6390 -1.4280 -0.6468
   59SOL    HW2 1077   6.573   5.969   4.069 -0.7317  0.0367 -0.0948
   60SOL     OW 1078   3.807   1.970   6.978  0.5077 -0.3851  0.3269
   60SOL    HW1 1079   3.758   1.927   6.902  0.9947  0.1713 -0.3190
   60SOL    HW2 1080   3.905   1.969   6.958  0.5283  1.0586  0.2723
   61SOL     OW 1081   1.925   1.468   5.343  0.2450  0.0503 -0.5655
   61SOL    HW1 1082   2.022   1.495   5.344  0.3925 -0.4838  0.5449
   61SOL    HW2 1083   1.874   1.524   5.408  0.1975 -1.0472  0.3586
   62SOL     OW 1084   2.524   2.286   5.174 -0.4395 -0.3385  0.0811
   62SOL    HW1 1085   2.572   2.212   5.221 -1.1247 -0.9372 -0.1417
   62SOL    HW2 1086   2.557   2.292   5.080 -1.3348 -1.2875 -0.3203
   63SOL     OW 1087   0.989   5.841   4.346 -0.2300  0.0514 -0.2859
   63SOL    HW1 1088   0.944   5.899   4.414 -1.8831 -0.0446 -1.2486
   63SOL    HW2 1089   0.929   5.764   4.323  0.8040 -0.5621 -1.0069
   64SOL     OW 1090   5.868   1.307   5.810 -0.2667 -0.3853 -0.0615
   64SOL    HW1 1091   5.943   1.304   5.743  2.0587  0.6830  2.3120
   64SOL    HW2 1092   5.817   1.392   5.797 -2.4705 -1.9467 -2.9164
   65SOL     OW 1093   0.499   4.476   6.109 -0.2418  0.5728  0.2411
   65SOL    HW1 1094   0.509   4.515   6.017  0.4689  1.7242  0.7749
   65SOL    HW2 1095   0.526   4.545   6.177 -0.6060 -0.3098  1.3073
   66SOL     OW 1096   2.947   1.709   1.282  0.0131  0.0954 -0.2248
   66SOL    HW1 1097   2.999   1.627   1.307  1.8613  0.8068 -1.5611
   66SOL    HW2 1098   2.984   1.788   1.331  0.7008  0.7268 -1.7118
   67SOL     OW 1099   4.219   6.119   4.796  0.6483  0.2517 -0.3853
   67SOL    HW1 1100   4.245   6.148   4.704  2.3704 -0.7915 -0.2656
   67SOL    HW2 1101   4.218   6.198   4.857  0.3469  0.8109 -1.1011
   68SOL     OW 1102   5.975   1.882   6.776 -0.4596  0.3929 -0.0104
   68SOL    HW1 1103   5.986   1.847   6.870  0.2423  1.1194  0.1868
   68SOL    HW2 1104   5.881   1.865   6.745 -0.5419 -0.3502  0.6179
   69SOL     OW 1105   1.492   5.283   6.587 -0.2493  0.1313  0.2576
   69SOL    HW1 1106   1.444   5.349   6.528  1.3986  1.2764  0.1476
   69SOL    HW2 1107   1.581   5.320   6.613 -0.5570 -0.7230  2.7898
   70SOL     OW 1108   0.839   2.327   0.901  0.2169 -0.1689 -0.0869
   70SOL    HW1 1109   0.864   2.299   0.993  1.6404  0.0893 -0.3689
   70SOL    HW2 1110   0.775   2.261   0.862 -1.3156  0.3218  1.4719
   71SOL     OW 1111   1.668   4.353   1.365  0.5772 -0.0915 -0.3819
   71SOL    HW1 1112   1.659   4.401   1.278 -1.1505 -2.2329 -1.4872
   71SOL    HW2 1113   1.765   4.345   1.388  1.2459 -1.0180 -3.0878
   72SOL     OW 1114   2.411   4.903   3.100  0.4471  0.0400 -0.3972
   72SOL    HW1 1115   2.509   4.898   3.117  0.4631  0.1264 -0.4618
   72SOL    HW2 1116   2.367   4.818   3.128  0.9531 -1.2307 -3.1490
   73SOL     OW 1117   3.025   1.877   5.213 -0.3135  0.3758  0.2428
   73SOL    HW1 1118   3.101   1.815   5.234 -1.8976 -1.2150  1.5851
   73SOL    HW2 1119   3.052   1.971   5.231  0.9861 -0.2567  1.7913
   74SOL     OW 1120   4.616   5.958   5.782 -0.1039  0.7697 -0.1645
   74SOL    HW1 1121   4.567   5.896   5.721 -1.2684  1.6452 -0.1534
   74SOL    HW2 1122   4.555   6.032   5.810  1.6603  2.8353 -1.4385
   75SOL     OW 1123   2.991   5.206   4.762  0.1640 -0.5185  0.5344
   75SOL    HW1 1124   2.986   5.289   4.707  1.7342 -1.5324 -1.2558
   75SOL    HW2 1125   2.981   5.229   4.858  2.2395  1.9649  0.2594
   76SOL     OW 1126   1.940   2.105   0.518  0.4894  0.2624 -0.2952
   76SOL    HW1 1127   2.021   2.114   0.576 -1.0602  0.6844  1.9289
   76SOL    HW2 1128   1.954   2.032   0.451  1.4774 -2.0869  2.2828
   77SOL     OW 1129   0.158   5.584   0.341 -0.0683  0.7248  0.1795
   77SOL    HW1 1130   0.192   5.674   0.315 -0.8353  0.4055 -2.1484
   77SOL    HW2 1131   0.060   5.589   0.359 -0.3819  0.1656 -1.2300
   78SOL     OW 1132   6.741   0.495   4.175 -0.1891 -0.0605 -0.3944
   78SOL    HW1 1133   6.695   0.469   4.259 -2.0075  0.6998 -1.0994
   78SOL    HW2 1134   6.728   0.424   4.106  0.4441 -0.2235 -0.3578
   79SOL     OW 1135   3.742   4.542   0.255  0.0957  0.2850 -0.6448
   79SOL    HW1 1136   3.690   4.507   0.177  0.8418 -0.1692 -0.9518
   79SOL    HW2 1137   3.724   4.640   0.266 -0.0468  0.3472 -1.3749
   80SOL     OW 1138   1.024   1.387   4.184 -0.4057 -0.3268 -0.6687
   80SOL    HW1 1139   1.039   1.436   4.269 -0.9802 -0.2676 -0.5961
   80SOL    HW2 1140   1.104   1.330   4.163  0.1036  0.3352 -0.5536
   81SOL     OW 1141   6.646   6.172   2.018 -0.0816  0.0187  0.0625
   81SOL    HW1 1142   6.558   6.175   2.066 -0.3364  1.0670 -0.4392
   81SOL    HW2 1143   6.671   6.265   1.989  0.7909 -0.3881 -0.5166
   82SOL     OW 1144   0.160   2.492   5.482  0.4284 -0.7438  0.3252
   82SOL    HW1 1145   0.090   2.563   5.488  1.1804 -0.0111  0.5826
   82SOL    HW2 1146   0.204   2.481   5.572  0.7803 -1.0566  0.1182
   83SOL     OW 1147   5.032   1.018   5.409 -0.1264 -0.1043 -0.0855
   83SOL    HW1 1148   4.951   0.960   5.415  0.8414 -1.5000 -0.1068
   83SOL    HW2 1149   5.100   0.976   5.349  0.0935  1.7278 -1.2158
   84SOL     OW 1150   2.269   3.000   2.918 -0.3325  0.1203 -0.5176
   84SOL    HW1 1151   2.306   2.962   3.003  0.4762 -1.0165 -1.3431
   84SOL    HW2 1152   2.210   3.078   2.939  0.2631  0.1863  1.0440
   85SOL     OW 1153   6.909   1.953   4.444 -0.1944 -0.4616  0.2148
   85SOL    HW1 1154   6.937   1.857   4.456  0.0342 -0.2675  1.3886
   85SOL    HW2 1155   6.867   1.985   4.529  1.0557  0.9248  0.3445
   86SOL     OW 1156   0.306   6.297   2.424  0.2008 -0.1544 -0.1413
   86SOL    HW1 1157   0.363   6.307   2.506  0.9445 -0.9570 -0.5460
   86SOL    HW2 1158   0.246   6.377   2.415  0.5089  0.2053  0.8702
   87SOL     OW 1159   3.672   1.726   2.882 -0.4329  0.3620 -0.8776
   87SOL    HW1 1160   3.641   1.690   2.970 -0.9496 -0.6626 -1.4598
   87SOL    HW2 1161   3.663   1.825   2.882  0.6372  0.5032  0.6279
   88SOL     OW 1162   4.336   6.844   1.356  0.2241  0.2921  0.0599
   88SOL    HW1 1163   4.405   6.880   1.419  0.0559  0.0315  0.4010
   88SOL    HW2 1164   4.378   6.825   1.267  0.5397  0.3557  0.1946
   89SOL     OW 1165   3.254   1.175   4.657  0.3998 -0.4549  0.3691
   89SOL    HW1 1166   3.162   1.215   4.657 -0.1613 -1.6792 -0.0252
   89SOL    HW2 1167   3.246   1.075   4.659  1.7240 -0.5764  0.0981
   90SOL     OW 1168   5.307   5.228   3.152 -0.1131 -0.3405 -0.0459
   90SOL    HW1 1169   5.297   5.328   3.153 -0.2293 -0.3528  0.2124
   90SOL    HW2 1170   5.402   5.205   3.175 -0.1934 -0.2985  0.3425
   91SOL     OW 1171   4.206   4.681   4.188 -0.0463  0.0891  0.6218
   91SOL    HW1 1172   4.229   4.669   4.285  0.4823 -0.2611  0.4573
   91SOL    HW2 1173   4.280   4.646   4.131 -0.7256 -0.5157  0.0818
   92SOL     OW 1174   2.854   5.073   2.091 -0.0660  0.2746  0.1040
   92SOL    HW1 1175   2.812   5.062   2.001 -1.1203  2.8616  0.1707
   92SOL    HW2 1176   2.937   5.127   2.083  0.4639 -0.4496  0.5791
   93SOL     OW 1177   2.084   5.031   6.309  0.1243  0.1187  0.3644
   93SOL    HW1 1178   2.156   4.961   6.304 -0.7435 -0.8192  0.6818
   93SOL    HW2 1179   2.076   5.063   6.404  0.2929  0.4097  0.2812
   94SOL     OW 1180   1.607   6.892   1.534 -0.8581 -0.0938  0.4704
   94SOL    HW1 1181   1.612   6.985   1.571  0.4101  0.8920 -1.9378
   94SOL    HW2 1182   1.515   6.876   1.497  0.0389  2.1501 -3.3639
   95SOL     OW 1183   4.656   5.805   3.849 -0.2465 -0.2495  0.5024
   95SOL    HW1 1184   4.642   5.708   3.869 -0.0976 -0.1424  1.1437
   95SOL    HW2 1185   4.701   5.849   3.927 -1.9690  0.7309  1.0036
   96SOL     OW 1186   2.510   0.509   5.243 -0.0370  0.2736  0.4490
   96SOL    HW1 1187   2.537   0.578   5.310 -0.0368 -1.0093  1.8255
   96SOL    HW2 1188   2.577   0.435   5.241  0.3511  0.6253 -1.5423
   97SOL     OW 1189   0.918   3.020   3.879 -0.1987 -0.4410 -0.0783
   97SOL    HW1 1190   0.942   3.111   3.845  1.7702 -1.4056 -1.4864
   97SOL    HW2 1191   0.991   2.986   3.939 -0.9669 -1.0582  0.5406
   98SOL     OW 1192   6.150   6.998   3.697  0.6730  0.5162 -0.2111
   98SOL    HW1 1193   6.055   7.019   3.675 -0.3508 -0.6444  2.6493
   98SOL    HW2 1194   6.188   6.937   3.628 -1.2215 -0.3121 -0.5689
   99SOL     OW 1195   3.662   5.869   6.774 -0.1832 -0.1234  0.4295
   99SOL    HW1 1196   3.647   5.958   6.730  2.0905 -0.1896 -0.6215
   99SOL    HW2 1197   3.623   5.870   6.866 -2.3568  1.0896 -0.4275
  100SOL     OW 1198   6.609   6.357   1.642  0.9777 -0.6966 -0.5275
  100SOL    HW1 1199   6.659   6.272   1.622  2.5643  0.3875 -1.3472
  100SOL    HW2 1200   6.627   6.424   1.569 -0.1678  0.3877  0.1576
  101SOL     OW 1201   0.827   6.984   3.346 -0.0194  0.4606  0.3641
  101SOL    HW1 1202   0.863   7.076   3.333  1.1262  0.4003  2.7628
  101SOL    HW2 1203   0.731   6.989   3.374  0.7491  1.1411  3.1368
  102SOL     OW 1204   5.283   1.956   4.389 -0.4875 -0.2041 -0.0336
  102SOL    HW1 1205   5.304   1.890   4.461 -0.6560  0.5375  0.7161
  102SOL    HW2 1206   5.284   1.910   4.301  1.5218 -0.7959  0.2289
  103SOL     OW 1207   5.690   1.225   3.375  0.2566  0.0191  0.1057
  103SOL    HW1 1208   5.772   1.180   3.412 -1.9298 -0.9774  4.3601
  103SOL    HW2 1209   5.691   1.322   3.400  0.0793 -0.0361  0.3332
  104SOL     OW 1210   6.042   5.426   2.135  0.5806 -0.1391  0.1752
  104SOL    HW1 1211   6.023   5.473   2.049 -0.5869 -0.2758  0.3451
  104SOL    HW2 1212   6.136   5.446   2.164  0.7056  0.5919 -0.6891
  105SOL     OW 1213   4.466   1.905   5.085  0.1724  0.6156  0.7334
  105SOL    HW1 1214   4.518   1.820   5.077 -0.4014  0.3812 -0.8660
  105SOL    HW2 1215   4.397   1.909   5.013 -1.9845  0.9731  2.6759
  106SOL     OW 1216   4.627   0.223   6.481  0.0962  0.0408  0.5950
  106SOL    HW1 1217   4.700   0.272   6.432 -1.0560  0.7207 -0.5055
  106SOL    HW2 1218   4.610   0.136   6.435 -1.1904  0.8096 -0.4681
  107SOL     OW 1219   2.311   5.025   0.233  0.1495 -0.2198  0.5904
  107SOL    HW1 1220   2.274   4.955   0.172  1.1726  0.8812 -1.3732
  107SOL    HW2 1221   2.377   4.982   0.296 -0.8956 -1.3649  0.9389
  108SOL     OW 1222   4.157   4.854   5.075  0.4295 -0.9390  0.0273
  108SOL    HW1 1223   4.062   4.878   5.058  1.0527  0.7451 -1.4036
  108SOL    HW2 1224   4.193   4.802   4.997  1.3733  0.7262 -0.6989
  109SOL     OW 1225   2.747   0.264   2.106 -0.0707  0.1218  0.6044
  109SOL    HW1 1226   2.806   0.231   2.179  0.5843  2.5223  1.2517
  109SOL    HW2 1227   2.662   0.210   2.104  0.5549 -0.9758  2.1011
  110SOL     OW 1228   5.195   0.655   4.369  0.4757 -0.3311 -0.1289
  110SOL    HW1 1229   5.152   0.672   4.458  0.5343  1.3251 -0.3831
  110SOL    HW2 1230   5.157   0.571   4.330 -0.5813 -0.3323  0.8322
  111SOL     OW 1231   4.812   1.485   4.981  0.1974 -0.3738 -0.6453
  111SOL    HW1 1232   4.798   1.390   4.951  3.8823 -1.5554  0.6941
  111SOL    HW2 1233   4.861   1.535   4.910 -1.1962  0.4005 -1.0936
  112SOL     OW 1234   6.009   1.914   0.549 -0.0267 -0.3712  0.5436
  112SOL    HW1 1235   6.060   1.899   0.633  0.5995  0.0521  0.2469
  112SOL    HW2 1236   6.063   1.970   0.487  0.5280 -2.5526 -1.0789
  113SOL     OW 1237   5.112   6.231   5.542  0.4817 -0.4736  0.2628
  113SOL    HW1 1238   5.022   6.255   5.579 -0.0984 -2.5624  0.3485
  113SOL    HW2 1239   5.183   6.261   5.606 -0.1026  1.3546  0.1154
  114SOL     OW 1240   1.723   0.266   6.468 -0.0271  0.0360 -0.5774
  114SOL    HW1 1241   1.769   0.202   6.529  0.1431 -0.4667 -1.2219
  114SOL    HW2 1242   1.641   0.224   6.430  0.1755  0.1318 -1.1329
  115SOL     OW 1243   0.160   3.742   6.965 -0.1953  0.0480  0.4728
  115SOL    HW1 1244   0.088   3.689   6.921 -0.1156  0.2711  0.0729
  115SOL    HW2 1245   0.138   3.840   6.959  0.7895  0.2166 -0.8412
  116SOL     OW 1246   6.514   2.849   2.149  0.0478 -0.0402  0.2800
  116SOL    HW1 1247   6.437   2.840   2.212 -0.2518  1.9653  0.2647
  116SOL    HW2 1248   6.526   2.763   2.099 -2.0058 -0.5063  0.4893
  117SOL     OW 1249   0.252   5.763   4.861  0.2536  0.1176 -0.2474
  117SOL    HW1 1250   0.166   5.813   4.874  0.0190  0.3078 -2.2635
  117SOL    HW2 1251   0.268   5.704   4.940 -1.8980 -0.1878  0.0148
  118SOL     OW 1252   2.616   2.022   3.886 -0.8514  0.0269  0.2588
  118SOL    HW1 1253   2.624   2.097   3.952 -0.5002  0.6738 -0.5105
  118SOL    HW2 1254   2.522   1.986   3.889 -1.1642  0.8160  0.2954
  119SOL     OW 1255   6.577   2.584   6.872  0.2596 -0.2443  0.2499
  119SOL    HW1 1256   6.640   2.544   6.806 -0.4167  1.3620 -1.4677
  119SOL    HW2 1257   6.551   2.516   6.940  1.8772 -1.6310 -0.4687
  120SOL     OW 1258   4.065   5.886   6.546 -0.1735  0.4046  0.4520
  120SOL    HW1 1259   4.010   5.948   6.491 -0.6147  0.5081  1.0038
  120SOL    HW2 1260   4.064   5.916   6.642  1.9638  1.2283  0.2812
  121SOL     OW 1261   3.671   1.847   6.786 -1.0474 -0.7282  0.6758
  121SOL    HW1 1262   3.620   1.781   6.841 -2.4588 -2.3365 -2.3487
  121SOL    HW2 1263   3.681   1.813   6.693  0.9228  2.0049 -0.2407
  122SOL     OW 1264   2.236   4.116   4.249  0.3601  0.2082  0.3674
  122SOL    HW1 1265   2.213   4.148   4.158 -0.0452  1.9683  1.0567
  122SOL    HW2 1266   2.250   4.017   4.247 -2.3587 -0.2341 -1.0680
  123SOL     OW 1267   5.855   2.775   2.236  0.0161 -0.0683 -0.2654
  123SOL    HW1 1268   5.946   2.735   2.223  0.1550 -0.1447  0.8486
  123SOL    HW2 1269   5.854   2.869   2.201  1.2189  0.7531  1.7301
  124SOL     OW 1270   3.458   5.272   6.926  0.3041 -0.0411 -0.0189
  124SOL    HW1 1271   3.464   5.280   7.026  0.6992 -0.1058 -0.0377
  124SOL    HW2 1272   3.364   5.292   6.897 -0.4659 -2.4098  0.5958
  125SOL     OW 1273   2.497   1.480   0.144 -0.2642  0.4999 -0.1941
  125SOL    HW1 1274   2.562   1.553   0.168 -0.4307  0.3461  0.7726
  125SOL    HW2 1275   2.405   1.519   0.140 -0.5475  0.1059  1.7022
  126SOL     OW 1276   1.141   6.637   5.238 -0.4165 -0.0499 -0.6665
  126SOL    HW1 1277   1.203   6.580   5.292  1.3032 -0.4633 -2.9005
  126SOL    HW2 1278   1.113   6.586   5.157 -1.7418  1.0354 -0.9166
  127SOL     OW 1279   1.492   5.034   5.742 -0.8006 -0.3518 -0.4594
  127SOL    HW1 1280   1.540   4.981   5.811 -1.2311 -0.1452  0.0053
  127SOL    HW2 1281   1.499   5.132   5.764  1.3809 -0.0524 -2.1766
  128SOL     OW 1282   5.820   0.953   1.319  0.1263 -0.3764  0.6342
  128SOL    HW1 1283   5.760   0.877   1.295  1.4488 -1.3103  0.1667
  128SOL    HW2 1284   5.766   1.027   1.360 -1.5171 -0.6524 -0.9136
  129SOL     OW 1285   1.307   3.989   6.894 -0.8815  0.6379 -0.2216
  129SOL    HW1 1286   1.333   3.900   6.858 -2.6470 -0.3168  0.7423
  129SOL    HW2 1287   1.359   4.060   6.847  0.2906 -0.8462 -1.2778
  130SOL     OW 1288   0.704   3.611   6.461 -0.1121  0.6827  0.3211
  130SOL    HW1 1289   0.685   3.553   6.382 -2.6705  1.2631  0.3976
  130SOL    HW2 1290   0.797   3.647   6.456  0.0590  0.0457 -1.9757
  131SOL     OW 1291   6.832   1.986   2.613  0.2495 -0.0531 -0.4463
  131SOL    HW1 1292   6.858   2.054   2.682 -0.2140  0.2914 -0.6089
  131SOL    HW2 1293   6.847   1.894   2.649 -1.4179  0.0909  0.6968
  132SOL     OW 1294   1.602   0.547   2.274 -0.6597  0.3241 -0.3270
  132SOL    HW1 1295   1.613   0.485   2.351 -0.0850  2.3645  1.3524
  132SOL    HW2 1296   1.566   0.498   2.195 -1.6551 -1.7672  1.3532
  133SOL     OW 1297   0.573   6.941   4.105 -0.1563 -0.1967  0.3625
  133SOL    HW1 1298   0.672   6.930   4.112 -0.1277  0.0600  0.3830
  133SOL    HW2 1299   0.538   6.882   4.033  0.0221 -0.2349  0.3063
  134SOL     OW 1300   2.307   2.284   4.611  0.4274  0.4841 -0.6181
  134SOL    HW1 1301   2.298   2.365   4.552  0.3338  0.1198 -1.1177
  134SOL    HW2 1302   2.401   2.278   4.646 -0.3139  2.5578  2.0367
  135SOL     OW 1303   5.451   6.043   5.535  0.1617 -0.3591 -0.2204
  135SOL    HW1 1304   5.453   6.134   5.577 -0.9116 -0.9280  1.1669
  135SOL    HW2 1305   5.366   6.032   5.484  0.5949 -0.3635 -0.9539
  136SOL     OW 1306   5.568   4.485   6.275 -0.0602  0.3953 -0.2859
  136SOL    HW1 1307   5.535   4.448   6.188  0.0485  0.4789 -0.3637
  136SOL    HW2 1308   5.516   4.567   6.298  0.0681  0.5052 -0.3891
  137SOL     OW 1309   5.107   1.176   5.611  0.3790 -0.8008 -0.4820
  137SOL    HW1 1310   5.166   1.255   5.591 -0.8787  0.1286 -0.6135
  137SOL    HW2 1311   5.076   1.135   5.526  0.0084 -0.6637 -0.4116
  138SOL     OW 1312   4.852   4.624   4.956  0.5835 -0.1261 -0.6646
  138SOL    HW1 1313   4.774   4.562   4.949  0.3775  0.0701 -0.1356
  138SOL    HW2 1314   4.858   4.660   5.049  0.1705  1.3426 -1.1733
  139SOL     OW 1315   3.315   4.947   4.703 -0.0479  0.7566  0.5268
  139SOL    HW1 1316   3.235   4.896   4.735 -1.4597  1.2870 -1.9035
  139SOL    HW2 1317   3.292   5.043   4.694  0.4659  0.7445 -1.2718
  140SOL     OW 1318   0.167   4.322   2.848  0.2490 -0.1723  0.0597
  140SOL    HW1 1319   0.103   4.370   2.909 -0.4008  1.3302 -1.7097
  140SOL    HW2 1320   0.201   4.240   2.894 -0.5141  0.6605  2.2673
  141SOL     OW 1321   6.985   1.805   2.119  0.2084 -0.7102  0.3127
  141SOL    HW1 1322   6.961   1.885   2.063  0.8847 -0.0050  1.0112
  141SOL    HW2 1323   6.940   1.810   2.207 -0.3439 -1.4964  0.0878
  142SOL     OW 1324   1.176   0.137   0.978  0.4584 -0.3574 -0.4667
  142SOL    HW1 1325   1.137   0.217   1.024  1.2255 -0.7458  0.9393
  142SOL    HW2 1326   1.120   0.113   0.899  0.3268  1.6853 -1.0499
  143SOL     OW 1327   4.509   4.393   1.469  0.2789 -0.7077 -0.0407
  143SOL    HW1 1328   4.455   4.424   1.392 -0.2553  0.2027  0.6770
  143SOL    HW2 1329   4.606   4.412   1.452  0.0982  0.0813 -0.2084
  144SOL     OW 1330   2.864   5.689   1.242  0.9120 -0.1022  0.7588
  144SOL    HW1 1331   2.962   5.671   1.235  1.0373  0.7765 -0.0777
  144SOL    HW2 1332   2.816   5.634   1.174  0.7759 -0.8241  1.4316
  145SOL     OW 1333   1.345   6.860   1.477  0.5901 -0.3492 -0.1512
  145SOL    HW1 1334   1.352   6.773   1.429  1.2817 -0.7038  0.5706
  145SOL    HW2 1335   1.248   6.884   1.488  0.3879 -1.1629 -0.1064
  146SOL     OW 1336   6.863   4.146   0.050 -0.0883  0.1789  0.5089
  146SOL    HW1 1337   6.798   4.113   0.117 -0.8887  0.6010 -0.0418
  146SOL    HW2 1338   6.825   4.226   0.003  1.5539  1.6004  1.4479
  147SOL     OW 1339   6.178   1.469   1.244 -0.0150  0.3250 -0.0735
  147SOL    HW1 1340   6.099   1.432   1.195  0.2025  0.2393 -0.3645
  147SOL    HW2 1341   6.231   1.527   1.182  0.0775  0.4874  0.1588
  148SOL     OW 1342   2.373   0.060   0.439 -0.1176 -0.0720  0.3672
  148SOL    HW1 1343   2.305   0.117   0.393  1.9386  0.9347 -1.6349
  148SOL    HW2 1344   2.404   0.105   0.522 -1.9725 -0.6547  1.4371
  149SOL     OW 1345   2.820   6.910   6.194 -0.7272  0.1473  0.4448
  149SOL    HW1 1346   2.781   6.952   6.276 -0.3015  1.2775  0.0783
  149SOL    HW2 1347   2.910   6.873   6.216 -0.2167  1.2722  0.2676
  150SOL     OW 1348   6.339   6.630   6.940  0.2357  0.5187 -0.0178
  150SOL    HW1 1349   6.400   6.697   6.983  0.8116 -0.1215  0.1756
  150SOL    HW2 1350   6.384   6.592   6.859 -0.4336  0.9734 -0.6178
  151SOL     OW 1351   4.294   0.508   1.404  0.1801  0.1856  0.1801
  151SOL    HW1 1352   4.328   0.602   1.408 -0.8413  0.7285 -2.1719
  151SOL    HW2 1353   4.300   0.467   1.495  3.7577  1.3690  0.6372
  152SOL     OW 1354   1.585   0.906   4.113 -0.0915  0.3082  1.4017
  152SOL    HW1 1355   1.614   1.001   4.125 -1.0045  0.5844  1.4986
  152SOL    HW2 1356   1.644   0.862   4.045 -2.7002  2.4308 -2.5816
  153SOL     OW 1357   1.494   0.712   3.061  0.1404 -0.2894  0.1204
  153SOL    HW1 1358   1.463   0.807   3.053 -0.8052 -0.7170 -1.4814
  153SOL    HW2 1359   1.436   0.663   3.127 -0.2665 -0.1265 -0.1150
  154SOL     OW 1360   1.710   0.393   3.247 -0.4999  0.4358  0.0618
  154SOL    HW1 1361   1.763   0.431   3.171 -1.5682 -1.0553 -1.4982
  154SOL    HW2 1362   1.627   0.448   3.259 -0.1096  0.9467  0.4829
  155SOL     OW 1363   0.385   1.388   3.352  0.1454 -0.0586  0.5032
  155SOL    HW1 1364   0.382   1.383   3.452  0.2162 -0.1908  0.4988
  155SOL    HW2 1365   0.306   1.341   3.314 -1.2070  2.0484  0.5517
  156SOL     OW 1366   0.156   1.195   1.885 -0.1928  0.4887 -0.7114
  156SOL    HW1 1367   0.144   1.294   1.890 -0.4915  0.4077  0.7903
  156SOL    HW2 1368   0.082   1.150   1.934  1.4090 -0.3492  1.1051
  157SOL     OW 1369   1.538   1.934   2.532 -0.2147  0.1227 -0.1668
  157SOL    HW1 1370   1.601   1.861   2.560  0.6239  1.0653  0.4988
  157SOL    HW2 1371   1.590   2.006   2.485 -0.8203  0.8354  0.2334
  158SOL     OW 1372   1.449   0.818   1.942  0.0812  0.0068 -1.1845
  158SOL    HW1 1373   1.465   0.740   2.003 -0.2387  0.0140 -1.0914
  158SOL    HW2 1374   1.351   0.829   1.926  0.0858  0.7023 -0.7875
  159SOL     OW 1375   5.398   5.268   1.507 -0.1653  0.3718  0.0328
  159SOL    HW1 1376   5.470   5.227   1.450  1.0171  1.8825  0.3921
  159SOL    HW2 1377   5.368   5.201   1.576  0.8730 -0.2787 -0.1296
  160SOL     OW 1378   5.409   4.580   5.297  0.5270 -0.1617 -0.2927
  160SOL    HW1 1379   5.381   4.623   5.210  0.7223  0.0692 -0.2422
  160SOL    HW2 1380   5.354   4.498   5.312 -0.3426  0.4536 -0.0428
  161SOL     OW 1381   3.374   5.479   4.800  0.4602 -0.9203 -0.6777
  161SOL    HW1 1382   3.368   5.579   4.803 -1.7379 -1.0132  0.0211
  161SOL    HW2 1383   3.428   5.447   4.878 -0.6101 -0.3196  0.3539
  162SOL     OW 1384   5.013   6.717   3.252 -0.0044  0.1461  0.6437
  162SOL    HW1 1385   4.981   6.625   3.229  0.2968 -0.1607  1.4224
  162SOL    HW2 1386   5.027   6.769   3.168 -1.1505 -0.1751  0.2363
  163SOL     OW 1387   5.134   6.246   1.477 -0.3891  0.2455 -0.5671
  163SOL    HW1 1388   5.055   6.304   1.459 -1.2980 -0.9122 -0.3785
  163SOL    HW2 1389   5.125   6.160   1.428  0.1473 -0.4058  0.4438
  164SOL     OW 1390   7.012   3.506   1.335  0.1102  0.2297 -0.8476
  164SOL    HW1 1391   7.008   3.470   1.241 -0.7038  0.4175 -0.8918
  164SOL    HW2 1392   7.093   3.563   1.345  0.4150 -0.1044 -1.3233
  165SOL     OW 1393   0.494   2.361   6.492  0.2320 -0.9272 -0.0290
  165SOL    HW1 1394   0.526   2.358   6.397  0.4543 -3.3030  0.0637
  165SOL    HW2 1395   0.395   2.376   6.494  0.4283  0.6140 -0.5414
  166SOL     OW 1396   1.615   0.660   0.718 -0.7836  0.2385 -0.1773
  166SOL    HW1 1397   1.583   0.591   0.654 -1.4180  0.6279 -0.2867
  166SOL    HW2 1398   1.632   0.618   0.807 -0.7588 -0.1308 -0.3533
  167SOL     OW 1399   6.075   0.321   2.348 -0.0621  0.3155 -0.6749
  167SOL    HW1 1400   6.079   0.405   2.294  0.4829  1.0619  0.4872
  167SOL    HW2 1401   6.133   0.251   2.306  1.3288  1.2794 -0.4145
  168SOL     OW 1402   4.271   5.609   0.767  0.4815 -0.0957 -0.1956
  168SOL    HW1 1403   4.190   5.641   0.718 -0.3252  1.8883  2.2287
  168SOL    HW2 1404   4.353   5.649   0.727 -0.1427  1.3559 -0.0675
  169SOL     OW 1405   1.149   1.363   6.739 -0.0528  0.0345 -0.2717
  169SOL    HW1 1406   1.207   1.307   6.798 -0.0985  0.3567  0.0794
  169SOL    HW2 1407   1.201   1.393   6.659  0.8815  1.9651  0.9921
  170SOL     OW 1408   1.534   2.947   3.658 -0.1001 -0.2661  0.4490
  170SOL    HW1 1409   1.586   2.986   3.734  0.3800  0.2344 -0.1283
  170SOL    HW2 1410   1.513   2.851   3.678  0.6312 -0.3406  0.9024
  171SOL     OW 1411   2.851   4.124   0.210 -0.4175  0.8210  0.0182
  171SOL    HW1 1412   2.949   4.143   0.202 -0.0398 -0.3031  1.5192
  171SOL    HW2 1413   2.828   4.115   0.307 -2.0505  1.2342 -0.3161
  172SOL     OW 1414   0.503   5.942   6.859  0.4764  0.3598  0.2672
  172SOL    HW1 1415   0.417   5.986   6.887  0.1893 -0.3572  0.5198
  172SOL    HW2 1416   0.512   5.854   6.905  0.5351 -0.3471 -1.0595
  173SOL     OW 1417   1.444   6.333   4.049 -0.2911  0.1035 -0.3292
  173SOL    HW1 1418   1.371   6.266   4.064 -0.0928  0.1681  1.0673
  173SOL    HW2 1419   1.523   6.309   4.105  0.1363  0.9677 -0.5504
  174SOL     OW 1420   2.447   5.889   4.112  0.3383 -0.6162 -0.1620
  174SOL    HW1 1421   2.383   5.831   4.162 -1.2551  0.4807 -0.8811
  174SOL    HW2 1422   2.448   5.863   4.016  1.9201 -1.4127  0.0291
  175SOL     OW 1423   0.442   6.526   3.340 -0.7016  0.2505  0.0466
  175SOL    HW1 1424   0.458   6.433   3.371 -0.3757  0.8069  1.6020
  175SOL    HW2 1425   0.360   6.562   3.383 -1.0093  0.5811 -0.7979
  176SOL     OW 1426   3.663   4.961   6.241  0.0801 -0.6005 -0.2300
  176SOL    HW1 1427   3.649   4.931   6.146  3.2906  1.8804 -1.7155
  176SOL    HW2 1428   3.667   5.061   6.243 -2.4964 -0.3844  3.1102
  177SOL     OW 1429   6.282   1.326   2.434 -0.2097  0.1850  0.3345
  177SOL    HW1 1430   6.302   1.368   2.346  1.7963  3.0260  1.9554
  177SOL    HW2 1431   6.306   1.229   2.431 -1.4162 -0.1210 -2.5367
  178SOL     OW 1432   6.907   4.651   5.940 -0.2315 -0.4480 -0.5802
  178SOL    HW1 1433   6.833   4.583   5.941 -1.7199  1.1012  0.0607
  178SOL    HW2 1434   6.992   4.607   5.968 -1.4995 -1.6974  1.6880
  179SOL     OW 1435   3.127   6.248   0.185  0.3011  0.0237 -0.0134
  179SOL    HW1 1436   3.224   6.223   0.179  0.0498 -0.6555 -1.7359
  179SOL    HW2 1437   3.095   6.280   0.096 -1.1872 -0.2185  0.4040
  180SOL     OW 1438   0.519   2.484   6.014 -0.4121  0.1958  0.4169
  180SOL    HW1 1439   0.568   2.567   5.988 -0.6445  0.2027  0.0030
  180SOL    HW2 1440   0.429   2.507   6.050 -0.3238  0.1476  0.6715
  181SOL     OW 1441   3.163   4.051   3.357  0.2307  0.2273 -0.0494
  181SOL    HW1 1442   3.192   4.144   3.382 -0.2321  0.5997 -0.8480
  181SOL    HW2 1443   3.243   3.994   3.342  0.5230  0.2242  1.3875
  182SOL     OW 1444   5.769   2.778   4.641  0.0028 -0.0350  0.1679
  182SOL    HW1 1445   5.810   2.828   4.564  0.2986  0.3309  0.5589
  182SOL    HW2 1446   5.827   2.700   4.664  1.1241  1.1315  1.4622
  183SOL     OW 1447   6.210   3.015   4.453 -0.3591 -0.2508  0.2618
  183SOL    HW1 1448   6.259   2.987   4.536  2.0081  0.4528 -0.8149
  183SOL    HW2 1449   6.211   3.115   4.446 -1.6246 -0.2390 -0.0369
  184SOL     OW 1450   0.706   4.284   2.241  0.1145 -0.5039  0.0153
  184SOL    HW1 1451   0.625   4.322   2.285 -0.0769  1.1752 -1.6363
  184SOL    HW2 1452   0.788   4.314   2.290 -0.1705 -0.5975  0.5571
  185SOL     OW 1453   3.714   3.514   5.532  0.1882  0.1217  0.1208
  185SOL    HW1 1454   3.744   3.609   5.539  1.3885 -0.2708  0.6099
  185SOL    HW2 1455   3.749   3.474   5.448  0.0720 -0.0204  0.1398
  186SOL     OW 1456   5.360   6.301   4.699 -0.0508  0.4270 -0.9181
  186SOL    HW1 1457   5.365   6.212   4.746  0.0350  1.1715  0.5309
  186SOL    HW2 1458   5.399   6.292   4.607  2.6954 -0.3889  0.2147
  187SOL     OW 1459   6.463   6.577   4.757  0.4739  0.0180  0.4851
  187SOL    HW1 1460   6.482   6.591   4.854  0.3287 -2.3785  0.9224
  187SOL    HW2 1461   6.368   6.548   4.745  0.7368 -0.5557 -0.2709
  188SOL     OW 1462   5.917   2.708   5.982  0.1548 -0.4419  0.4360
  188SOL    HW1 1463   5.862   2.760   6.048 -0.2488 -0.7064  0.3091
  188SOL    HW2 1464   5.900   2.742   5.890  0.0956 -0.6207  0.3812
  189SOL     OW 1465   2.113   5.966   2.431  0.0918 -0.1195  0.0733
  189SOL    HW1 1466   2.038   6.020   2.471  0.6776  0.5888  0.2442
  189SOL    HW2 1467   2.091   5.945   2.335  0.4497  1.6507 -0.4434
  190SOL     OW 1468   4.250   1.775   0.640 -0.5388 -0.5068 -0.1728
  190SOL    HW1 1469   4.270   1.680   0.616  1.8543  0.4853 -2.6435
  190SOL    HW2 1470   4.285   1.794   0.732 -0.2561 -1.7597  0.0048
  191SOL     OW 1471   0.286   4.516   6.808 -0.6079  0.3660 -0.3844
  191SOL    HW1 1472   0.363   4.492   6.748  0.4820 -1.4425  1.5903
  191SOL    HW2 1473   0.204   4.469   6.776  0.1581 -1.2915 -0.0166
  192SOL     OW 1474   6.935   1.399   6.214  0.1335  0.1849  0.5801
  192SOL    HW1 1475   6.914   1.497   6.209  0.5628  0.2646  0.2920
  192SOL    HW2 1476   6.912   1.355   6.128 -2.0106 -0.3751  1.3770
  193SOL     OW 1477   6.440   3.015   5.380  0.0645  0.3395 -0.3652
  193SOL    HW1 1478   6.465   3.006   5.476 -0.3073  0.9514 -0.2100
  193SOL    HW2 1479   6.396   2.930   5.349  1.1122 -0.2488 -0.2834
  194SOL     OW 1480   4.838   6.413   6.276 -0.6927 -0.4225 -0.2663
  194SOL    HW1 1481   4.901   6.449   6.345 -0.4781  1.9861 -1.5962
  194SOL    HW2 1482   4.887   6.397   6.190 -1.4743 -0.6332 -0.6836
  195SOL     OW 1483   6.675   4.660   1.301 -0.6460 -0.0238 -0.2679
  195SOL    HW1 1484   6.752   4.666   1.238 -0.2795  0.1946  0.1944
  195SOL    HW2 1485   6.595   4.706   1.261 -0.8113 -1.0389 -1.1421
  196SOL     OW 1486   6.912   0.808   2.222 -0.0637  0.2830 -0.5713
  196SOL    HW1 1487   6.974   0.752   2.168 -0.8651 -3.3231  1.8887
  196SOL    HW2 1488   6.932   0.797   2.319 -0.7501  3.8890  0.1200
  197SOL     OW 1489   2.100   1.259   0.859  0.0969  0.8371 -0.5111
  197SOL    HW1 1490   2.049   1.304   0.932 -1.9849  0.1126 -1.4497
  197SOL    HW2 1491   2.075   1.300   0.771  1.7983  1.0126 -0.9521
  198SOL     OW 1492   4.115   2.326   6.075  0.3292  0.2998  0.2546
  198SOL    HW1 1493   4.147   2.234   6.052  0.1297  0.7625 -2.0249
  198SOL    HW2 1494   4.052   2.359   6.005 -2.3598  0.8806  2.7662
  199SOL     OW 1495   1.278   2.720   3.998  0.3406 -0.4566  0.1652
  199SOL    HW1 1496   1.295   2.740   4.095  1.7233 -1.0860  0.0678
  199SOL    HW2 1497   1.359   2.678   3.958 -0.6949 -1.4926 -0.9233
  200SOL     OW 1498   5.192   2.414   0.935 -0.7189 -0.4215 -0.1628
  200SOL    HW1 1499   5.166   2.510   0.949 -0.8871 -0.4357 -0.3665
  200SOL    HW2 1500   5.111   2.356   0.945 -0.6148 -0.5440 -0.0276
  201SOL     OW 1501   0.491   3.262   6.505  0.7273 -0.1999 -0.2417
  201SOL    HW1 1502   0.435   3.293   6.428  0.5741  2.6338  0.8899
  201SOL    HW2 1503   0.436   3.262   6.589  1.4822 -0.9640  0.2718
  202SOL     OW 1504   6.262   0.333   6.308  0.0637 -0.5399  0.2670
  202SOL    HW1 1505   6.173   0.338   6.265 -1.2627  0.9232  2.9352
  202SOL    HW2 1506   6.251   0.316   6.406  2.8378 -2.5853  0.3670
  203SOL     OW 1507   6.813   5.983   0.623  0.2777 -0.0239 -0.0614
  203SOL    HW1 1508   6.848   5.957   0.533  2.3927 -0.8403  0.9447
  203SOL    HW2 1509   6.794   6.082   0.624 -0.3609 -0.1046 -1.5523
  204SOL     OW 1510   6.824   0.290   5.871  0.3469  0.3540  0.0841
  204SOL    HW1 1511   6.829   0.390   5.871  2.0017  0.3161 -1.1017
  204SOL    HW2 1512   6.794   0.258   5.961  0.4158  1.8932  0.6854
  205SOL     OW 1513   2.398   4.084   1.736 -0.4795  0.0710  0.0271
  205SOL    HW1 1514   2.324   4.151   1.733 -0.0986  0.4724 -0.6271
  205SOL    HW2 1515   2.360   3.992   1.750 -1.0851  0.2904 -0.1633
  206SOL     OW 1516   2.404   3.062   1.173  0.4710 -0.5680 -0.3328
  206SOL    HW1 1517   2.371   3.132   1.236 -1.5097  0.0495 -1.9441
  206SOL    HW2 1518   2.391   2.971   1.213  0.0701 -0.1540  0.4891
  207SOL     OW 1519   1.049   1.966   4.335 -0.1564  0.1781 -0.0976
  207SOL    HW1 1520   0.971   1.979   4.273 -0.1606  2.4266  0.2751
  207SOL    HW2 1521   1.036   1.882   4.388 -1.7229 -0.1267 -0.9048
  208SOL     OW 1522   1.748   3.462   5.274 -0.1896  0.3987 -0.3172
  208SOL    HW1 1523   1.656   3.423   5.277 -0.0505  0.0409 -0.5681
  208SOL    HW2 1524   1.786   3.450   5.182 -0.1321  1.1041 -0.3901
  209SOL     OW 1525   6.771   4.739   1.050  0.4879 -0.2331 -0.7482
  209SOL    HW1 1526   6.672   4.726   1.050  0.6002 -2.3439  2.6890
  209SOL    HW2 1527   6.816   4.655   1.018  1.1947  0.3821 -1.4033
  210SOL     OW 1528   6.173   2.318   1.336  0.4749  0.5104 -0.4754
  210SOL    HW1 1529   6.207   2.228   1.307  0.0104  0.3711 -0.6050
  210SOL    HW2 1530   6.249   2.382   1.344  1.0568 -0.3263  1.2553
  211SOL     OW 1531   0.435   2.111   2.804  0.3979 -0.4668 -0.0021
  211SOL    HW1 1532   0.498   2.044   2.844 -0.2727 -0.2027  1.5736
  211SOL    HW2 1533   0.476   2.202   2.809 -0.5363 -0.1006  2.1875
  212SOL     OW 1534   2.121   5.011   3.171  0.4814  0.2057  0.7929
  212SOL    HW1 1535   2.211   5.050   3.188  0.1726  0.3485  2.2529
  212SOL    HW2 1536   2.074   4.996   3.258 -1.4288  1.3407  0.0228
  213SOL     OW 1537   0.418   4.973   0.837  0.3221 -0.1037 -0.2513
  213SOL    HW1 1538   0.486   5.038   0.872  0.7412 -0.3330 -0.6398
  213SOL    HW2 1539   0.409   4.985   0.738 -0.7923  0.4777 -0.1024
  214SOL     OW 1540   4.833   6.434   3.366  0.6690 -0.2210  0.3456
  214SOL    HW1 1541   4.920   6.422   3.318 -0.0797 -1.4518 -0.7606
  214SOL    HW2 1542   4.809   6.531   3.367  0.1448 -0.2360 -2.8616
  215SOL     OW 1543   1.234   3.930   1.687 -0.4567 -0.2979 -0.3150
  215SOL    HW1 1544   1.311   3.988   1.715 -0.1318 -0.4072 -0.9572
  215SOL    HW2 1545   1.269   3.844   1.649 -0.9128 -0.5687 -0.1205
  216SOL     OW 1546   1.241   4.948   1.826 -0.6193  0.3322 -0.0725
  216SOL    HW1 1547   1.276   5.038   1.802 -0.6472  0.2164 -0.5599
  216SOL    HW2 1548   1.141   4.949   1.822 -0.6243  0.3060  0.0286
  217SOL     OW 1549   6.462   3.572   4.927  0.5456 -0.6169  0.2346
  217SOL    HW1 1550   6.447   3.567   5.026 -0.8428 -0.4940  0.0538
  217SOL    HW2 1551   6.503   3.661   4.903 -0.5340 -0.0169  0.5536
  218SOL     OW 1552   3.574   1.438   0.078  0.5505 -0.1215  0.1309
  218SOL    HW1 1553   3.671   1.416   0.073  0.4507 -0.3024 -2.0308
  218SOL    HW2 1554   3.521   1.353   0.072  0.2486  0.1794 -2.2003
  219SOL     OW 1555   6.022   2.947   0.166 -0.3345  0.0675  0.2165
  219SOL    HW1 1556   6.088   3.005   0.119  0.1165 -1.3078 -0.9456
  219SOL    HW2 1557   5.934   2.952   0.120 -0.5516  0.5389  0.6805
  220SOL     OW 1558   1.590   1.193   0.717  0.0532 -0.0352 -0.2504
  220SOL    HW1 1559   1.623   1.287   0.726 -1.0175  0.3232 -0.0068
  220SOL    HW2 1560   1.493   1.193   0.695  0.4201 -1.0642 -2.0720
  221SOL     OW 1561   4.777   4.328   1.448  0.6266 -0.1734  0.4261
  221SOL    HW1 1562   4.848   4.398   1.440  0.4480  0.1134  1.3277
  221SOL    HW2 1563   4.778   4.288   1.539  0.1035 -0.6886  0.2175
  222SOL     OW 1564   0.590   5.181   6.630  0.0309  1.0224 -0.0923
  222SOL    HW1 1565   0.542   5.134   6.556  0.2500 -0.1629  0.5067
  222SOL    HW2 1566   0.637   5.114   6.688  0.3010  1.9764  0.8191
  223SOL     OW 1567   0.374   3.081   5.447 -0.1656  0.7551  0.3299
  223SOL    HW1 1568   0.278   3.093   5.424 -0.1811  1.1957  0.5929
  223SOL    HW2 1569   0.396   2.984   5.451 -0.7134  0.6413  0.7123
  224SOL     OW 1570   3.278   1.523   5.072  0.2902 -0.1513  0.0129
  224SOL    HW1 1571   3.357   1.465   5.052 -0.2946 -1.2798  0.8338
  224SOL    HW2 1572   3.235   1.492   5.157  0.8535  2.4475  1.3400
  225SOL     OW 1573   6.127   6.209   6.839 -0.2140  1.3643 -0.9874
  225SOL    HW1 1574   6.226   6.203   6.850 -0.1207 -0.1627 -2.3643
  225SOL    HW2 1575   6.105   6.278   6.770  0.1367 -0.7282 -3.2914
  226SOL     OW 1576   3.062   3.178   6.767 -0.2008 -0.9106  0.4120
  226SOL    HW1 1577   2.973   3.162   6.726 -1.4461  0.5349  2.3879
  226SOL    HW2 1578   3.085   3.275   6.760  0.6727 -1.0614  0.9915
  227SOL     OW 1579   1.621   3.259   1.816 -0.1772  0.8437 -0.0317
  227SOL    HW1 1580   1.585   3.311   1.738  0.8316  0.3489 -0.8459
  227SOL    HW2 1581   1.553   3.191   1.845  1.1248 -2.4342 -3.7118
  228SOL     OW 1582   0.335   0.508   2.205 -0.0277 -0.1099 -0.4922
  228SOL    HW1 1583   0.249   0.554   2.185  0.9265  1.6935 -0.6688
  228SOL    HW2 1584   0.323   0.446   2.282 -1.3751  0.4204 -0.2551
  229SOL     OW 1585   5.479   0.535   5.007 -0.5439 -0.3693 -0.3605
  229SOL    HW1 1586   5.569   0.575   4.990 -1.0902  0.2473 -1.9903
  229SOL    HW2 1587   5.490   0.442   5.041  0.7056 -0.1188 -0.0347
  230SOL     OW 1588   6.611   3.543   5.859 -0.4678 -1.3674 -0.5374
  230SOL    HW1 1589   6.519   3.550   5.898 -0.5256 -0.6253 -0.7876
  230SOL    HW2 1590   6.679   3.566   5.928 -0.5990  0.6287 -1.0073
  231SOL     OW 1591   5.098   2.552   6.398 -0.1015 -0.0373 -0.5773
  231SOL    HW1 1592   5.156   2.474   6.376  0.5468  0.6005 -1.1668
  231SOL    HW2 1593   5.022   2.522   6.455  0.8135 -0.8718  0.2206
  232SOL     OW 1594   1.883   3.552   4.123  0.4883  0.0658 -0.3711
  232SOL    HW1 1595   1.909   3.484   4.191 -0.8196 -1.6452 -1.4855
  232SOL    HW2 1596   1.788   3.537   4.096  0.4570  1.7884 -1.3113
  233SOL     OW 1597   3.650   1.089   5.060  0.1225  0.1050  0.3746
  233SOL    HW1 1598   3.586   1.035   5.116 -1.9028 -0.0580 -1.9006
  233SOL    HW2 1599   3.715   1.027   5.015  0.6833  0.0720  1.2045
  234SOL     OW 1600   4.391   0.460   0.700  0.4685 -0.0598 -0.0645
  234SOL    HW1 1601   4.348   0.420   0.619  0.1346  1.3923 -0.6447
  234SOL    HW2 1602   4.478   0.503   0.673  0.0846  0.9200  0.2261
  235SOL     OW 1603   6.109   2.966   2.661  0.1799 -0.4505 -0.7693
  235SOL    HW1 1604   6.010   2.958   2.657  0.2563 -1.0782 -3.5367
  235SOL    HW2 1605   6.141   3.028   2.589  1.9395 -2.9196 -2.2862
  236SOL     OW 1606   3.875   2.485   7.010  0.0240 -0.3383 -0.2924
  236SOL    HW1 1607   3.779   2.515   7.008  0.0343 -0.3152 -0.4814
  236SOL    HW2 1608   3.885   2.403   6.954 -0.1222 -1.0454  0.6959
  237SOL     OW 1609   5.111   1.701   3.820  0.0114  0.6340 -0.2032
  237SOL    HW1 1610   5.167   1.761   3.762  1.3568 -0.9576 -0.6139
  237SOL    HW2 1611   5.091   1.748   3.906  1.1807  1.6200 -0.4364
  238SOL     OW 1612   5.486   1.533   5.850  0.5711  0.1046 -0.6568
  238SOL    HW1 1613   5.400   1.573   5.820  0.5757 -0.1829 -1.0575
  238SOL    HW2 1614   5.481   1.433   5.841  0.8613  0.0718 -0.4612
  239SOL     OW 1615   3.365   2.824   1.330  0.6991 -0.6552  0.2370
  239SOL    HW1 1616   3.423   2.819   1.411  2.9222  0.2535 -1.2009
  239SOL    HW2 1617   3.350   2.731   1.294  0.9176 -0.9322  0.8491
  240SOL     OW 1618   5.806   3.007   5.420  0.3970 -0.7320 -0.0651
  240SOL    HW1 1619   5.903   2.987   5.429  0.3782 -0.8725 -0.1745
  240SOL    HW2 1620   5.782   3.084   5.480  1.1758  1.2010 -2.0716
  241SOL     OW 1621   1.668   4.021   5.130  0.2537  0.2052  0.0078
  241SOL    HW1 1622   1.637   4.041   5.037 -0.7334 -2.3642 -0.3126
  241SOL    HW2 1623   1.765   4.043   5.138  0.5077 -0.0651 -1.8323
  242SOL     OW 1624   3.995   3.564   2.571 -0.4759 -0.4515 -0.2228
  242SOL    HW1 1625   4.008   3.550   2.472  0.4302 -0.2424 -0.1426
  242SOL    HW2 1626   4.062   3.509   2.621 -1.2189 -0.8938  0.2977
  243SOL     OW 1627   3.518   3.422   6.466 -0.4764 -0.4618 -0.6574
  243SOL    HW1 1628   3.493   3.460   6.377 -0.3639 -0.1142 -0.5398
  243SOL    HW2 1629   3.515   3.322   6.461 -0.7391 -0.4400 -0.9741
  244SOL     OW 1630   4.911   3.984   5.187  0.6522 -0.1249  0.5516
  244SOL    HW1 1631   4.932   3.903   5.131 -1.0667 -0.3661  0.1834
  244SOL    HW2 1632   4.893   4.062   5.127 -0.4132 -0.1830  0.7686
  245SOL     OW 1633   3.612   1.744   5.127 -0.2475  0.2838 -0.2467
  245SOL    HW1 1634   3.593   1.647   5.141  0.7504 -0.3841 -2.8069
  245SOL    HW2 1635   3.704   1.755   5.088 -0.1400  2.3182  0.4517
  246SOL     OW 1636   5.362   0.970   3.250  0.2485 -0.4152 -0.3562
  246SOL    HW1 1637   5.311   0.932   3.173  0.9675 -1.3283 -0.3974
  246SOL    HW2 1638   5.337   1.066   3.262 -0.7276 -0.5751 -0.9965
  247SOL     OW 1639   0.287   6.499   1.405  0.3957 -0.2097 -0.4833
  247SOL    HW1 1640   0.378   6.527   1.436  0.1507 -0.5334  0.5939
  247SOL    HW2 1641   0.230   6.581   1.391  0.9470  0.0087 -1.5061
  248SOL     OW 1642   3.568   3.739   2.346 -0.5783 -0.3042 -0.2669
  248SOL    HW1 1643   3.511   3.737   2.428 -1.2290 -0.3317 -0.7035
  248SOL    HW2 1644   3.659   3.774   2.368 -0.2127 -1.8235  0.7715
  249SOL     OW 1645   0.194   5.361   5.987 -0.1763  0.2466  0.0964
  249SOL    HW1 1646   0.290   5.388   5.976 -0.1974  0.6275  0.7770
  249SOL    HW2 1647   0.149   5.359   5.898  0.8955 -1.6326 -0.4543
  250SOL     OW 1648   4.556   2.418   1.488  0.5741  0.3506  0.6870
  250SOL    HW1 1649   4.639   2.466   1.460  0.6134 -0.2176 -0.1684
  250SOL    HW2 1650   4.520   2.365   1.412 -1.3655  1.6937  0.6080
  251SOL     OW 1651   4.904   4.478   4.496  0.1720  0.3449  0.1352
  251SOL    HW1 1652   4.953   4.561   4.469 -1.2994  0.6643 -1.7935
  251SOL    HW2 1653   4.937   4.401   4.442 -0.3306  0.2334 -0.0143
  252SOL     OW 1654   5.908   4.644   5.033  0.1856  0.5175 -0.7469
  252SOL    HW1 1655   5.971   4.612   5.104  0.9717  1.1853 -1.1193
  252SOL    HW2 1656   5.824   4.678   5.075 -0.4002 -1.3536 -0.3001
  253SOL     OW 1657   4.949   7.003   4.795 -0.1852  0.0306  0.1075
  253SOL    HW1 1658   4.936   6.937   4.869 -0.0167 -0.1960 -0.0632
  253SOL    HW2 1659   5.045   7.031   4.792  0.2744 -1.5434 -1.3332
  254SOL     OW 1660   0.281   2.304   6.782 -0.4123 -0.6989  0.1736
  254SOL    HW1 1661   0.258   2.325   6.687  0.1207 -0.4041  0.1060
  254SOL    HW2 1662   0.279   2.388   6.836  0.0482 -0.7428  0.2605
  255SOL     OW 1663   3.069   4.663   5.950 -0.3456  1.2795  0.1632
  255SOL    HW1 1664   3.108   4.751   5.979 -0.6552  0.1529  4.7077
  255SOL    HW2 1665   3.120   4.588   5.992 -1.2885 -0.7229 -2.0202
  256SOL     OW 1666   6.245   3.601   6.040  0.1183 -0.0783  0.1482
  256SOL    HW1 1667   6.163   3.644   6.079  0.6166  1.6694 -0.6700
  256SOL    HW2 1668   6.323   3.616   6.101  0.5397  1.2210 -0.6771
  257SOL     OW 1669   4.625   6.803   5.687 -0.6702  0.2007 -0.1208
  257SOL    HW1 1670   4.717   6.837   5.668  0.2459 -3.1065 -2.5547
  257SOL    HW2 1671   4.623   6.759   5.777  0.3556 -0.2408 -0.2956
  258SOL     OW 1672   2.094   2.511   0.538  0.2636  0.1073  0.2201
  258SOL    HW1 1673   2.105   2.608   0.518 -0.6768 -0.0441 -1.1706
  258SOL    HW2 1674   2.184   2.469   0.552  0.8080  0.7976 -1.0602
  259SOL     OW 1675   2.722   0.465   4.516 -0.4276 -0.2483 -0.6656
  259SOL    HW1 1676   2.778   0.448   4.435 -0.9363  3.0668 -1.8660
  259SOL    HW2 1677   2.769   0.531   4.575 -1.4392 -0.2458  0.1555
  260SOL     OW 1678   3.928   4.860   4.708  0.0915 -0.2960  0.1996
  260SOL    HW1 1679   3.900   4.887   4.800  0.5078  2.5655 -0.4366
  260SOL    HW2 1680   4.023   4.887   4.693  0.1967 -1.2045 -0.9182
  261SOL     OW 1681   3.195   4.083   6.737  0.2231  0.3317  0.0728
  261SOL    HW1 1682   3.153   4.171   6.720  2.5927  1.5009 -0.1831
  261SOL    HW2 1683   3.251   4.056   6.659 -1.3219 -2.0145 -0.3507
  262SOL     OW 1684   6.667   3.578   4.506  0.3138 -0.8124  0.0021
  262SOL    HW1 1685   6.592   3.620   4.455 -1.0158 -1.5143  1.3040
  262SOL    HW2 1686   6.704   3.644   4.571  0.8773 -0.4531 -0.6684
  263SOL     OW 1687   1.410   0.712   3.495 -0.3277  0.2492  0.0005
  263SOL    HW1 1688   1.474   0.658   3.440 -0.5906 -1.7697  1.5914
  263SOL    HW2 1689   1.432   0.702   3.592 -1.1867  2.0180  0.4167
  264SOL     OW 1690   5.702   2.471   5.797  0.3177 -0.4200  0.1281
  264SOL    HW1 1691   5.745   2.382   5.812  0.3448 -0.4434 -0.0747
  264SOL    HW2 1692   5.738   2.511   5.712  0.5848 -0.0484  0.4091
  265SOL     OW 1693   5.581   1.851   5.170 -0.3762 -0.3968  0.1117
  265SOL    HW1 1694   5.653   1.852   5.101  0.0660 -0.0858  0.5822
  265SOL    HW2 1695   5.494   1.830   5.126 -0.1086 -0.1153 -0.5557
  266SOL     OW 1696   1.874   0.107   6.650  0.0060  0.2438  0.3623
  266SOL    HW1 1697   1.901   0.050   6.573 -0.2596 -0.8660  1.0643
  266SOL    HW2 1698   1.936   0.091   6.727 -0.7436  0.0129  0.9433
  267SOL     OW 1699   0.601   0.721   3.290  0.9126 -0.1373  0.2601
  267SOL    HW1 1700   0.628   0.812   3.259  0.5928  0.0960  0.6619
  267SOL    HW2 1701   0.573   0.725   3.386  0.1789 -0.5198  0.0670
  268SOL     OW 1702   3.959   1.830   0.929  0.5045  0.3153 -0.1011
  268SOL    HW1 1703   3.952   1.822   0.830 -0.2547  2.4320 -0.2746
  268SOL    HW2 1704   3.871   1.806   0.971  0.3981  0.7379 -0.0725
  269SOL     OW 1705   4.802   3.461   0.101 -0.6706 -0.1272 -0.0771
  269SOL    HW1 1706   4.841   3.406   0.175 -3.9524 -0.1868  1.8093
  269SOL    HW2 1707   4.823   3.418   0.013 -0.1343 -2.4406  1.1090
  270SOL     OW 1708   4.472   2.208   7.010 -0.0299  0.0416 -0.2350
  270SOL    HW1 1709   4.513   2.270   6.943  1.6403 -0.5994  0.1395
  270SOL    HW2 1710   4.544   2.159   7.059 -1.2722 -1.8651 -0.1868
  271SOL     OW 1711   6.934   5.844   5.122 -0.4271  0.3544  0.3411
  271SOL    HW1 1712   6.997   5.830   5.046 -0.1559  0.8329  0.4724
  271SOL    HW2 1713   6.970   5.914   5.183 -0.3867 -0.4071  1.2065
  272SOL     OW 1714   1.960   6.038   3.018 -0.4144 -0.1674 -0.2014
  272SOL    HW1 1715   1.961   5.995   3.108 -0.5974  0.9128  0.3312
  272SOL    HW2 1716   2.043   6.013   2.968 -0.9814 -1.9329 -0.3101
  273SOL     OW 1717   1.762   4.689   1.261  0.2035  0.2626 -0.0741
  273SOL    HW1 1718   1.830   4.739   1.207  0.4266  0.7006  0.6035
  273SOL    HW2 1719   1.768   4.717   1.357 -1.5792  1.0314 -0.1413
  274SOL     OW 1720   5.879   1.116   4.449  0.1609  0.5445 -0.1203
  274SOL    HW1 1721   5.952   1.056   4.415  0.9084  1.6449 -0.5248
  274SOL    HW2 1722   5.847   1.083   4.537  0.7859 -0.2722 -0.1894
  275SOL     OW 1723   6.148   0.613   0.192 -0.7285 -0.0831 -0.3771
  275SOL    HW1 1724   6.063   0.578   0.231 -0.0912 -1.9434 -0.5550
  275SOL    HW2 1725   6.220   0.611   0.262  0.0761 -2.1394 -1.1831
  276SOL     OW 1726   0.845   5.587   4.209 -0.0931  0.4008  0.1572
  276SOL    HW1 1727   0.823   5.651   4.135 -0.1262  1.8495  1.3645
  276SOL    HW2 1728   0.783   5.602   4.286  0.7565 -0.1605  0.9796
  277SOL     OW 1729   2.023   3.797   1.396  0.2451  0.1955 -0.1445
  277SOL    HW1 1730   1.953   3.831   1.334 -1.3683  1.3184  2.1436
  277SOL    HW2 1731   2.067   3.875   1.442 -0.2118 -0.6002  1.7409
  278SOL     OW 1732   6.034   1.478   2.287 -0.0202  0.2623 -0.1919
  278SOL    HW1 1733   6.073   1.569   2.292  0.2506  0.0998  0.8431
  278SOL    HW2 1734   6.081   1.417   2.351 -1.8691  0.0423  1.0463
  279SOL     OW 1735   1.906   0.783   3.449  0.1099  0.5340  0.5413
  279SOL    HW1 1736   1.986   0.774   3.509  0.5433  0.5744 -0.0195
  279SOL    HW2 1737   1.827   0.741   3.492  1.0079 -1.8268  0.0369
  280SOL     OW 1738   5.548   4.562   1.940  0.1656 -0.0594  0.8029
  280SOL    HW1 1739   5.502   4.521   2.018  0.2719 -1.0710  0.3540
  280SOL    HW2 1740   5.494   4.639   1.906 -0.5924 -0.4935  1.0066
  281SOL     OW 1741   2.688   4.431   1.662  0.5067  0.1830  0.1062
  281SOL    HW1 1742   2.662   4.334   1.658  1.0557 -0.0522  1.7221
  281SOL    HW2 1743   2.775   4.441   1.710  1.1410  1.3842 -1.2091
  282SOL     OW 1744   2.257   0.126   4.648  0.4019  0.8058 -0.5381
  282SOL    HW1 1745   2.254   0.030   4.621  0.7680  1.6550 -4.0458
  282SOL    HW2 1746   2.352   0.153   4.662  0.2053  0.1700  3.0242
  283SOL     OW 1747   2.627   1.948   6.522 -0.2172 -0.3356  0.4332
  283SOL    HW1 1748   2.694   1.972   6.452 -1.1616 -1.9880 -1.1296
  283SOL    HW2 1749   2.552   2.013   6.521 -0.2150 -0.3377 -0.0948
  284SOL     OW 1750   2.175   3.770   4.310 -0.6006  0.0820  0.0244
  284SOL    HW1 1751   2.165   3.746   4.213 -0.6033 -0.3422  0.1277
  284SOL    HW2 1752   2.189   3.687   4.363  0.2372  0.3819  0.2901
  285SOL     OW 1753   6.233   3.749   3.612 -0.7412  0.0238  0.5460
  285SOL    HW1 1754   6.254   3.708   3.700  0.6453  1.9538  1.1652
  285SOL    HW2 1755   6.135   3.770   3.607 -1.1368 -1.5384  0.9236
  286SOL     OW 1756   3.416   4.030   2.311  0.3118 -0.1929  0.2996
  286SOL    HW1 1757   3.337   3.984   2.272 -0.4070  1.5804 -0.4522
  286SOL    HW2 1758   3.395   4.062   2.403  0.2444  0.0355  0.2057
  287SOL     OW 1759   0.664   4.046   6.882  0.3678 -0.0280 -0.6498
  287SOL    HW1 1760   0.587   3.983   6.893  1.9771 -1.9628  0.3639
  287SOL    HW2 1761   0.671   4.105   6.962  0.4922 -0.5374 -0.2774
  288SOL     OW 1762   5.478   0.617   2.036 -0.0587  0.0340  0.7818
  288SOL    HW1 1763   5.498   0.708   1.998  0.3813 -0.7431 -0.9662
  288SOL    HW2 1764   5.557   0.557   2.021 -1.4053 -1.4533 -0.8542
  289SOL     OW 1765   3.014   0.268   5.191 -0.1730  0.4158  0.0323
  289SOL    HW1 1766   3.074   0.282   5.112 -0.4303 -0.6671 -0.3717
  289SOL    HW2 1767   3.004   0.170   5.208  0.7173  0.6136  2.0602
  290SOL     OW 1768   3.870   0.766   4.786 -0.2949  0.6932 -0.4459
  290SOL    HW1 1769   3.834   0.748   4.694 -1.9708  1.5633 -0.0052
  290SOL    HW2 1770   3.888   0.679   4.832  1.0914  0.2379 -1.7540
  291SOL     OW 1771   6.719   0.143   3.680 -0.0799  0.1585 -0.1844
  291SOL    HW1 1772   6.629   0.099   3.683 -0.7747  1.5559  0.3472
  291SOL    HW2 1773   6.778   0.104   3.751  0.0509 -1.3635 -1.0890
  292SOL     OW 1774   2.750   5.410   4.166 -0.5277  0.3929  0.4753
  292SOL    HW1 1775   2.652   5.387   4.162 -0.4205 -0.1654  0.9693
  292SOL    HW2 1776   2.793   5.357   4.239  0.1476  0.6392  0.2544
  293SOL     OW 1777   3.181   6.441   4.212 -0.0862  0.4150  0.1855
  293SOL    HW1 1778   3.273   6.470   4.184 -0.7354 -0.3192 -3.0404
  293SOL    HW2 1779   3.113   6.506   4.178 -0.9654 -0.6979 -0.2375
  294SOL     OW 1780   3.880   1.064   6.354  0.6127  0.1685  0.4063
  294SOL    HW1 1781   3.824   1.046   6.273 -0.5270 -1.5965  1.5255
  294SOL    HW2 1782   3.955   0.997   6.357  0.4000 -0.0381  1.0388
  295SOL     OW 1783   6.789   0.212   4.363 -0.1347 -0.8600  0.1514
  295SOL    HW1 1784   6.841   0.195   4.447 -0.5327 -1.8774  0.1970
  295SOL    HW2 1785   6.717   0.280   4.382  0.4981 -0.2263  0.3386
  296SOL     OW 1786   3.408   1.320   4.495  0.1913  0.2815  1.1108
  296SOL    HW1 1787   3.387   1.281   4.406  0.7305 -1.5300  1.7239
  296SOL    HW2 1788   3.351   1.277   4.565 -0.8588  2.3073  1.5804
  297SOL     OW 1789   1.391   5.608   1.116 -0.7133 -0.4514  0.4195
  297SOL    HW1 1790   1.438   5.521   1.099  0.1379  0.0877 -0.0000
  297SOL    HW2 1791   1.437   5.657   1.190 -0.8772 -0.1086  0.2966
  298SOL     OW 1792   6.253   3.341   2.281 -0.0094 -0.3730  0.1285
  298SOL    HW1 1793   6.267   3.418   2.344 -0.6578 -0.3799  0.2830
  298SOL    HW2 1794   6.295   3.363   2.192  0.0492  0.0429  0.2566
  299SOL     OW 1795   0.020   2.183   4.518  0.3337 -0.0219  0.0427
  299SOL    HW1 1796  -0.029   2.096   4.508 -0.0169  0.1956 -0.1649
  299SOL    HW2 1797  -0.046   2.257   4.524  0.6383  0.2595 -0.0725
  300SOL     OW 1798   6.082   6.684   6.919 -0.3033 -0.0029  0.2677
  300SOL    HW1 1799   6.177   6.680   6.950 -0.3524 -1.0724  0.3171
  300SOL    HW2 1800   6.028   6.616   6.968 -0.6690 -0.8060 -1.1682
  301SOL     OW 1801   0.118   2.159   0.370 -0.1776 -0.0813  0.2504
  301SOL    HW1 1802   0.149   2.235   0.312  0.8256 -1.2089 -0.7166
  301SOL    HW2 1803   0.075   2.089   0.313 -0.5205 -0.5382  1.0572
  302SOL     OW 1804   6.955   3.618   6.880 -0.0735 -0.4761  0.4495
  302SOL    HW1 1805   6.920   3.668   6.801  0.0498 -1.2847 -0.1243
  302SOL    HW2 1806   6.904   3.646   6.962  0.0582  0.6482  0.1632
  303SOL     OW 1807   5.580   5.931   2.608  0.8709  0.3643 -0.0477
  303SOL    HW1 1808   5.679   5.926   2.619  0.9468  3.1259  1.3143
  303SOL    HW2 1809   5.535   5.898   2.691  0.7800  1.6168  0.4268
  304SOL     OW 1810   3.960   5.455   4.777 -0.0817 -0.3853 -0.5114
  304SOL    HW1 1811   3.900   5.468   4.699 -0.8352  2.0817  0.3608
  304SOL    HW2 1812   4.015   5.538   4.791 -2.2637  0.6522  3.3708
  305SOL     OW 1813   3.041   2.920   1.811  0.4164 -0.5039  0.3920
  305SOL    HW1 1814   3.129   2.962   1.834 -0.0106 -0.6594  2.5541
  305SOL    HW2 1815   2.969   2.990   1.814  0.0463 -0.9094  1.6989
  306SOL     OW 1816   0.440   0.138   5.133 -0.2128 -0.3831  0.2437
  306SOL    HW1 1817   0.474   0.173   5.046 -1.3889  1.9744  0.6479
  306SOL    HW2 1818   0.399   0.048   5.120  0.1767 -0.3379 -1.4901
  307SOL     OW 1819   4.914   1.224   3.202  0.1863  0.1373  0.7520
  307SOL    HW1 1820   4.904   1.124   3.197 -1.2310  0.3133 -1.1022
  307SOL    HW2 1821   4.871   1.257   3.286  1.7334 -0.8743  2.0073
  308SOL     OW 1822   1.101   6.680   4.071  0.3373  0.7331  0.8359
  308SOL    HW1 1823   1.145   6.664   4.160 -0.4944  0.8725  1.2881
  308SOL    HW2 1824   1.099   6.595   4.019  1.1800  0.7386  0.7847
  309SOL     OW 1825   2.132   5.150   4.384  0.0323 -0.2716  0.2145
  309SOL    HW1 1826   2.103   5.156   4.479  2.3457  2.4432  0.8782
  309SOL    HW2 1827   2.193   5.071   4.373  1.8728  0.8601  1.7117
  310SOL     OW 1828   2.507   6.266   0.133 -0.1828 -0.2797 -0.0699
  310SOL    HW1 1829   2.448   6.325   0.077 -0.1580 -0.4389 -0.2657
  310SOL    HW2 1830   2.521   6.308   0.222 -2.3982 -1.2588  0.8152
  311SOL     OW 1831   4.467   1.002   0.941  0.5005  0.5964 -0.0976
  311SOL    HW1 1832   4.396   0.957   0.994  0.7102  0.3179 -0.0497
  311SOL    HW2 1833   4.426   1.050   0.863  0.3290 -0.1311 -0.4602
  312SOL     OW 1834   4.088   0.729   0.803 -0.1133  0.0573  0.2216
  312SOL    HW1 1835   4.067   0.698   0.710  1.2794 -0.9426  0.2165
  312SOL    HW2 1836   4.007   0.716   0.861 -1.1793  1.1935 -0.9317
  313SOL     OW 1837   6.110   4.561   6.721  0.2322 -0.0494 -0.1048
  313SOL    HW1 1838   6.179   4.582   6.652 -0.2213 -1.4800 -1.0365
  313SOL    HW2 1839   6.150   4.499   6.789  0.3675  0.5095  0.3276
  314SOL     OW 1840   5.047   5.570   3.150 -0.3978 -0.0989 -0.0714
  314SOL    HW1 1841   4.989   5.641   3.191  0.4239  1.4212 -1.4167
  314SOL    HW2 1842   5.143   5.588   3.172 -0.1362 -0.5239 -0.8161
  315SOL     OW 1843   0.227   4.365   3.236 -0.4465  0.9479  0.0463
  315SOL    HW1 1844   0.129   4.384   3.239 -0.3936  1.0561  1.5027
  315SOL    HW2 1845   0.278   4.444   3.271 -0.0293 -0.2760  2.3820
  316SOL     OW 1846   2.197   3.148   4.944 -0.0151  0.2268  0.1363
  316SOL    HW1 1847   2.289   3.124   4.975  0.0532  1.1539  0.6936
  316SOL    HW2 1848   2.142   3.176   5.023 -0.4745  0.6394 -0.3195
  317SOL     OW 1849   5.040   0.734   1.444 -0.7504 -0.4413 -0.2709
  317SOL    HW1 1850   4.951   0.779   1.450 -0.8480 -0.5833 -0.5904
  317SOL    HW2 1851   5.085   0.736   1.533 -1.8990 -2.0513  0.3821
  318SOL     OW 1852   2.596   5.008   0.895  0.4081  0.0716 -0.1894
  318SOL    HW1 1853   2.647   4.931   0.858  0.9533  0.4530 -0.2418
  318SOL    HW2 1854   2.653   5.090   0.892  1.2602 -0.2549  3.3454
  319SOL     OW 1855   6.798   0.819   5.543  0.1861 -0.0609 -0.2978
  319SOL    HW1 1856   6.755   0.730   5.524  0.3196 -0.8647  2.6183
  319SOL    HW2 1857   6.734   0.892   5.520 -0.4773 -0.9546 -1.4334
  320SOL     OW 1858   0.364   4.562   0.677  0.1947 -0.3702  0.0559
  320SOL    HW1 1859   0.344   4.609   0.763  1.4050 -2.2716  1.4451
  320SOL    HW2 1860   0.346   4.465   0.686 -0.9443 -0.4639 -2.3184
  321SOL     OW 1861   3.051   0.285   2.067 -0.5359 -0.6649 -0.3828
  321SOL    HW1 1862   3.084   0.301   1.974  0.6790 -2.5618 -0.3380
  321SOL    HW2 1863   2.952   0.273   2.065 -1.0899  2.9197 -0.8397
  322SOL     OW 1864   4.768   4.098   0.144 -0.4723 -0.2408  0.0772
  322SOL    HW1 1865   4.763   4.196   0.125 -4.1330  0.2262  2.4980
  322SOL    HW2 1866   4.816   4.084   0.231 -0.3433 -0.5612 -0.0461
  323SOL     OW 1867   1.270   5.762   0.114  0.9173  0.1403 -0.1913
  323SOL    HW1 1868   1.248   5.821   0.036 -1.1125  1.4180  1.2387
  323SOL    HW2 1869   1.193   5.762   0.178  2.1909 -1.5210  1.4355
  324SOL     OW 1870   0.704   2.864   4.041 -0.3604  0.0651  0.4208
  324SOL    HW1 1871   0.726   2.774   4.004  2.2922  0.4489  0.8647
  324SOL    HW2 1872   0.706   2.931   3.967 -3.7165 -0.3358 -0.1743
  325SOL     OW 1873   1.668   2.505   1.812 -0.0145  0.3222 -0.2489
  325SOL    HW1 1874   1.689   2.577   1.745 -1.0574  0.5570 -0.3419
  325SOL    HW2 1875   1.643   2.421   1.763 -3.3701  1.1992 -0.3147
  326SOL     OW 1876   1.722   3.954   5.562 -0.2556 -0.2727 -0.1775
  326SOL    HW1 1877   1.774   3.913   5.487  1.9510 -0.4843  1.3527
  326SOL    HW2 1878   1.666   3.884   5.606  1.4414 -1.1113  0.7465
  327SOL     OW 1879   4.846   3.831   4.520  0.2395  0.6561  0.3280
  327SOL    HW1 1880   4.846   3.767   4.444  1.8476  1.3549 -0.3022
  327SOL    HW2 1881   4.830   3.782   4.605  1.6799 -0.6503 -0.1061
  328SOL     OW 1882   2.437   6.967   2.881  0.3081  0.3851 -0.2235
  328SOL    HW1 1883   2.525   6.961   2.928  0.1110 -0.8405  0.0405
  328SOL    HW2 1884   2.363   6.952   2.947 -0.0672  0.5846 -0.5901
  329SOL     OW 1885   5.197   5.113   0.570 -0.4356  0.1933  0.5928
  329SOL    HW1 1886   5.257   5.074   0.640  0.6517  0.0701 -0.3714
  329SOL    HW2 1887   5.183   5.046   0.498 -0.0311  0.9483 -0.1994
  330SOL     OW 1888   1.922   3.348   1.222 -0.6188  0.0925  0.6181
  330SOL    HW1 1889   1.927   3.289   1.141  0.0215  0.9940 -0.0191
  330SOL    HW2 1890   1.990   3.319   1.289  0.0004  0.3698  0.1176
  331SOL     OW 1891   6.893   3.733   4.923 -0.0888  0.2254  0.2436
  331SOL    HW1 1892   6.836   3.739   4.841 -0.5611  0.1351  0.5612
  331SOL    HW2 1893   6.987   3.758   4.900 -0.2929  0.5611 -0.2477
  332SOL     OW 1894   5.184   2.432   2.608 -0.0434  0.3908  0.9642
  332SOL    HW1 1895   5.131   2.439   2.692 -2.9655  0.5680 -0.7527
  332SOL    HW2 1896   5.140   2.485   2.536  2.2591  0.1195 -0.7730
  333SOL     OW 1897   2.136   5.305   1.832 -0.5223  0.2343  0.1253
  333SOL    HW1 1898   2.102   5.212   1.817 -1.5928  0.4616  1.0177
  333SOL    HW2 1899   2.099   5.365   1.761 -0.5528  0.1521  0.0704
  334SOL     OW 1900   1.073   5.385   1.366 -0.5388 -0.5192  0.0059
  334SOL    HW1 1901   1.148   5.449   1.380 -0.1149 -1.4281  2.3688
  334SOL    HW2 1902   0.988   5.425   1.400 -0.7462 -0.2679 -0.8009
  335SOL     OW 1903   2.760   6.440   3.120  0.6405  0.0799 -0.1637
  335SOL    HW1 1904   2.801   6.489   3.197  0.2972  0.3647 -0.1608
  335SOL    HW2 1905   2.716   6.505   3.059  2.4704  0.0736 -1.5918
  336SOL     OW 1906   2.540   3.071   5.546  0.0018 -0.0663 -0.5153
  336SOL    HW1 1907   2.503   3.011   5.475  0.7326 -1.9425  0.6025
  336SOL    HW2 1908   2.638   3.050   5.559 -0.4377 -0.9452  2.0813
  337SOL     OW 1909   1.655   3.972   4.501  0.3519 -0.3070 -0.2712
  337SOL    HW1 1910   1.576   3.999   4.446  0.2884 -0.5141 -0.2824
  337SOL    HW2 1911   1.726   3.936   4.442 -0.4547 -2.3510 -0.0717
  338SOL     OW 1912   1.277   2.514   1.152 -0.1644 -0.0860  0.0340
  338SOL    HW1 1913   1.372   2.491   1.172 -0.3081 -0.1775  0.6176
  338SOL    HW2 1914   1.242   2.577   1.221 -0.3831  0.3272 -0.4436
  339SOL     OW 1915   4.346   1.081   3.062 -0.2924  0.1658 -0.4981
  339SOL    HW1 1916   4.325   1.131   2.978 -0.5418  1.5298  0.3553
  339SOL    HW2 1917   4.406   1.136   3.120 -2.7179  0.7454  1.6807
  340SOL     OW 1918   6.610   2.687   5.325 -0.4615 -0.2115 -0.0847
  340SOL    HW1 1919   6.643   2.779   5.300 -0.3748 -0.7678 -2.1905
  340SOL    HW2 1920   6.652   2.660   5.412  0.9737  0.9905 -0.3507
  341SOL     OW 1921   4.037   5.162   5.291 -0.2904  0.0173 -0.2536
  341SOL    HW1 1922   4.004   5.205   5.208  0.3454  0.5288 -0.2505
  341SOL    HW2 1923   4.127   5.121   5.275 -0.4590 -0.4677  0.0036
  342SOL     OW 1924   5.643   3.155   1.901 -0.1167  0.0837  0.3189
  342SOL    HW1 1925   5.550   3.187   1.917  0.1738  0.1264  2.1651
  342SOL    HW2 1926   5.673   3.100   1.979  1.2312 -0.3623 -0.4791
  343SOL     OW 1927   2.670   5.734   2.052  0.3547 -0.0923  0.2026
  343SOL    HW1 1928   2.696   5.752   1.957  1.0688  0.0017  0.4165
  343SOL    HW2 1929   2.601   5.662   2.054 -1.7253  1.7244 -0.6010
  344SOL     OW 1930   2.320   6.388   6.942 -0.6974  0.0635 -0.4103
  344SOL    HW1 1931   2.374   6.417   6.862 -0.7065  0.3974 -0.3004
  344SOL    HW2 1932   2.245   6.329   6.912  1.2375 -2.6324 -0.3123
  345SOL     OW 1933   1.716   0.222   5.492 -0.3188 -1.1293  0.0009
  345SOL    HW1 1934   1.761   0.233   5.403 -1.0318  2.6029 -0.0681
  345SOL    HW2 1935   1.783   0.232   5.565 -0.2384 -0.6134 -0.1374
  346SOL     OW 1936   0.800   1.327   2.722  0.6071  0.4948  0.2309
  346SOL    HW1 1937   0.882   1.366   2.679  0.5574 -0.5346 -0.8469
  346SOL    HW2 1938   0.727   1.396   2.723  1.5584  1.5302  1.4997
  347SOL     OW 1939   6.557   0.648   4.519 -0.4251 -0.0474 -0.2072
  347SOL    HW1 1940   6.486   0.685   4.579 -2.0555 -1.0083 -1.4961
  347SOL    HW2 1941   6.618   0.723   4.490 -0.7922  0.7613  1.0161
  348SOL     OW 1942   4.643   1.266   2.951  0.4067  0.1120 -0.5216
  348SOL    HW1 1943   4.582   1.225   3.019 -0.2145 -1.0923 -1.7541
  348SOL    HW2 1944   4.600   1.347   2.912 -0.7889 -1.1535 -1.9181
  349SOL     OW 1945   2.346   4.742   3.955 -0.2771 -0.6529  0.2237
  349SOL    HW1 1946   2.366   4.644   3.964 -3.0470 -1.4360 -1.2318
  349SOL    HW2 1947   2.249   4.758   3.971 -0.7877  1.1975 -3.6278
  350SOL     OW 1948   4.495   2.101   1.550 -0.2751  0.4095 -0.2218
  350SOL    HW1 1949   4.406   2.113   1.595 -0.9562  0.1857 -1.4643
  350SOL    HW2 1950   4.506   2.006   1.521  1.1817 -0.0099  1.5043
  351SOL     OW 1951   2.465   0.108   6.881 -0.3866  0.1371  0.0901
  351SOL    HW1 1952   2.374   0.066   6.876  0.2895 -1.3228 -0.3737
  351SOL    HW2 1953   2.488   0.146   6.792  0.0034 -0.7020 -0.1751
  352SOL     OW 1954   1.648   0.791   5.934  0.2449 -0.3438  0.1635
  352SOL    HW1 1955   1.683   0.766   5.844  1.3291  0.0516  0.4599
  352SOL    HW2 1956   1.720   0.779   6.002  0.0225  1.0996  0.6993
  353SOL     OW 1957   1.186   6.028   0.414 -0.6311 -0.1944  0.3179
  353SOL    HW1 1958   1.259   5.963   0.392 -0.7219 -0.5335  0.9919
  353SOL    HW2 1959   1.226   6.107   0.461 -0.5473  0.1486 -0.3260
  354SOL     OW 1960   5.545   1.581   2.456 -0.1492 -0.4799 -0.6597
  354SOL    HW1 1961   5.607   1.526   2.401 -0.5570 -0.8604 -0.7476
  354SOL    HW2 1962   5.493   1.642   2.396  0.5265  0.2422 -0.5327
  355SOL     OW 1963   0.685   6.925   2.238  0.3723 -0.2419  0.2744
  355SOL    HW1 1964   0.711   7.019   2.215  1.3480 -0.5623  0.0106
  355SOL    HW2 1965   0.652   6.921   2.332  0.2854  0.3727  0.2714
  356SOL     OW 1966   1.538   0.806   2.661 -0.2211  0.3485  0.2349
  356SOL    HW1 1967   1.485   0.808   2.746  1.0562  4.2159  1.1493
  356SOL    HW2 1968   1.630   0.770   2.680  0.1475  1.4417  0.6406
  357SOL     OW 1969   6.869   4.749   3.683  0.9071 -0.2911 -0.0296
  357SOL    HW1 1970   6.944   4.811   3.661 -0.2667  0.7621 -1.2360
  357SOL    HW2 1971   6.805   4.794   3.745  0.9597 -0.9915  0.5604
  358SOL     OW 1972   4.785   0.301   2.452 -0.2613  0.1414  0.8365
  358SOL    HW1 1973   4.861   0.365   2.464 -0.2291  0.1337  0.6809
  358SOL    HW2 1974   4.699   0.347   2.473 -0.2785  0.3707  0.2783
  359SOL     OW 1975   1.652   3.608   0.207  0.2619  0.5686  0.4413
  359SOL    HW1 1976   1.580   3.598   0.138 -0.3747  0.8963  1.0421
  359SOL    HW2 1977   1.640   3.694   0.256  0.7255  0.3587  0.9424
  360SOL     OW 1978   6.159   6.725   6.089 -0.8093  0.3059  0.0629
  360SOL    HW1 1979   6.095   6.687   6.023 -0.2227 -1.3188  0.3838
  360SOL    HW2 1980   6.153   6.674   6.175 -0.7844  1.6795  0.9104
  361SOL     OW 1981   2.850   6.687   4.809  0.2976 -0.3630  0.3090
  361SOL    HW1 1982   2.949   6.670   4.804  0.4245 -0.7932  2.8210
  361SOL    HW2 1983   2.802   6.600   4.821 -0.3685 -0.1136 -0.4637
  362SOL     OW 1984   2.752   2.082   0.274  0.6566 -0.1412  0.7054
  362SOL    HW1 1985   2.774   1.990   0.307  3.2236  0.0072 -0.3579
  362SOL    HW2 1986   2.835   2.126   0.239 -0.8232  1.9244 -0.4633
  363SOL     OW 1987   3.790   4.997   5.431 -0.2909  0.1855 -0.9044
  363SOL    HW1 1988   3.847   5.015   5.350  0.1837  0.1710 -0.5812
  363SOL    HW2 1989   3.720   4.930   5.408 -0.9658  1.1272 -1.6464
  364SOL     OW 1990   3.940   6.087   5.092  0.2326 -0.7344  0.4768
  364SOL    HW1 1991   3.911   6.164   5.036 -2.7621 -0.9154  1.6109
  364SOL    HW2 1992   3.962   6.120   5.184  1.4448 -0.9557  0.2913
  365SOL     OW 1993   5.530   5.375   3.989  0.0269 -0.4961 -0.2837
  365SOL    HW1 1994   5.452   5.396   4.049  1.8966 -0.3938  2.2666
  365SOL    HW2 1995   5.525   5.279   3.961  0.8229 -1.6628  3.0273
  366SOL     OW 1996   5.693   6.645   2.502 -0.4535 -0.0249 -0.0315
  366SOL    HW1 1997   5.668   6.716   2.568 -1.5379  0.0749 -0.5161
  366SOL    HW2 1998   5.741   6.687   2.425  0.6995 -0.1239  0.6054
  367SOL     OW 1999   0.431   0.735   3.940  0.6621  0.4174 -0.0049
  367SOL    HW1 2000   0.417   0.675   4.019 -1.6226 -0.2611 -0.8492
  367SOL    HW2 2001   0.529   0.746   3.925  1.1861 -2.0591  0.9765
  368SOL     OW 2002   5.425   4.388   4.585  0.3850 -0.1744  0.1702
  368SOL    HW1 2003   5.380   4.447   4.518  2.5439  0.1219 -1.1126
  368SOL    HW2 2004   5.489   4.443   4.640 -0.0470 -0.7549  1.2943
  369SOL     OW 2005   6.591   3.757   1.469 -0.1912  0.2523  0.4892
  369SOL    HW1 2006   6.625   3.680   1.415  1.7462  1.1483  0.3454
  369SOL    HW2 2007   6.515   3.800   1.422  1.4883  1.0464 -1.6693
  370SOL     OW 2008   4.569   2.513   6.180 -0.1691  0.2968  0.3626
  370SOL    HW1 2009   4.502   2.586   6.164 -0.0356  0.4343  0.4253
  370SOL    HW2 2010   4.606   2.522   6.272  2.3720  2.2569 -0.7194
  371SOL     OW 2011   3.371   2.301   6.272  0.6150 -0.2320  0.3041
  371SOL    HW1 2012   3.362   2.400   6.283  1.2838 -0.2292  0.9176
  371SOL    HW2 2013   3.458   2.271   6.312  2.0994 -0.6072 -2.8860
  372SOL     OW 2014   2.929   5.837   0.488 -0.4699 -0.6930 -0.3246
  372SOL    HW1 2015   2.936   5.739   0.472 -0.5017 -0.5174 -1.5298
  372SOL    HW2 2016   2.956   5.886   0.405 -0.2144  0.3237  0.3424
  373SOL     OW 2017   6.493   6.833   0.014  0.2571 -0.0943  0.2133
  373SOL    HW1 2018   6.549   6.884  -0.051  0.1135  0.2065  0.3236
  373SOL    HW2 2019   6.467   6.892   0.089 -0.6907 -0.0634 -0.1231
  374SOL     OW 2020   4.673   0.175   0.107  0.5528 -0.0247 -0.3097
  374SOL    HW1 2021   4.766   0.182   0.071 -0.0769  3.2631 -1.6926
  374SOL    HW2 2022   4.644   0.265   0.141 -2.2132 -0.8761 -0.1754
  375SOL     OW 2023   0.098   2.348   1.809  0.4818 -0.3424 -0.0611
  375SOL    HW1 2024   0.186   2.302   1.795  1.1161  0.4600  1.1111
  375SOL    HW2 2025   0.071   2.340   1.905  0.6691  1.7803  0.2097
  376SOL     OW 2026   2.918   5.255   5.044 -0.0995  0.2136 -0.2977
  376SOL    HW1 2027   2.985   5.329   5.047  0.5326 -0.3753  0.7261
  376SOL    HW2 2028   2.958   5.171   5.081 -0.5675 -0.8629 -2.0760
  377SOL     OW 2029   6.254   7.012   3.158  0.6577 -0.5359  0.0276
  377SOL    HW1 2030   6.281   6.993   3.063 -3.0512 -3.5168 -0.6953
  377SOL    HW2 2031   6.317   6.966   3.220  1.1554 -1.5671 -1.1787
  378SOL     OW 2032   0.550   2.411   6.769 -0.2928  0.2359 -0.3290
  378SOL    HW1 2033   0.459   2.377   6.746  0.1902 -0.5314 -1.1951
  378SOL    HW2 2034   0.612   2.395   6.692  0.6341  0.5290  0.3323
  379SOL     OW 2035   4.642   1.755   6.677 -0.0477 -0.0246  0.3448
  379SOL    HW1 2036   4.594   1.821   6.619 -1.4458 -1.7557 -0.6118
  379SOL    HW2 2037   4.679   1.682   6.620  0.2797 -0.7717  1.4764
  380SOL     OW 2038   5.783   1.756   6.983 -0.4408 -0.5622  0.0957
  380SOL    HW1 2039   5.805   1.744   7.080 -1.1776 -2.8142  0.0340
  380SOL    HW2 2040   5.684   1.746   6.970 -0.4741  0.6310 -0.8062
  381SOL     OW 2041   5.731   3.391   5.477 -0.5084 -0.1528 -0.0663
  381SOL    HW1 2042   5.773   3.404   5.566 -1.8726  2.2289  0.3151
  381SOL    HW2 2043   5.803   3.381   5.408  0.8767  3.5618  0.5768
  382SOL     OW 2044   2.151   5.340   1.284 -0.4483  0.2571  0.3088
  382SOL    HW1 2045   2.146   5.240   1.284  1.4679  0.1216 -0.6263
  382SOL    HW2 2046   2.156   5.373   1.379 -0.5984 -0.5539  0.6070
  383SOL     OW 2047   6.269   1.248   2.089  0.4707 -0.1696  0.9600
  383SOL    HW1 2048   6.310   1.156   2.089 -1.0144 -0.9027 -0.6034
  383SOL    HW2 2049   6.179   1.244   2.044  0.8609  2.2662 -0.1943
  384SOL     OW 2050   0.705   6.625   3.467 -0.1464  0.1634  0.7579
  384SOL    HW1 2051   0.630   6.580   3.417  1.5067 -0.4497 -1.3180
  384SOL    HW2 2052   0.777   6.558   3.485  0.5579  1.0760  1.3883
  385SOL     OW 2053   4.156   6.247   6.624  0.3769  0.8445  0.5081
  385SOL    HW1 2054   4.150   6.241   6.723  1.9640 -0.1595  0.5686
  385SOL    HW2 2055   4.243   6.208   6.593  0.2188  1.7861 -1.2206
  386SOL     OW 2056   1.052   5.839   3.392  0.0071 -0.3641  0.2663
  386SOL    HW1 2057   1.148   5.842   3.366  0.0066  0.0716  0.3021
  386SOL    HW2 2058   1.008   5.760   3.350  0.1524 -0.0222 -0.5360
  387SOL     OW 2059   0.206   0.183   0.378 -0.3087  0.1284 -0.0281
  387SOL    HW1 2060   0.114   0.168   0.340 -2.0088 -2.4999  4.2575
  387SOL    HW2 2061   0.200   0.249   0.453  1.0323 -0.6989  0.8594
  388SOL     OW 2062   1.658   3.449   4.010 -0.5904  0.0196  0.5858
  388SOL    HW1 2063   1.655   3.414   3.917 -2.9253 -0.2208  0.6953
  388SOL    HW2 2064   1.624   3.380   4.073 -1.8211  1.1685  1.2417
  389SOL     OW 2065   4.928   3.190   1.364  0.3911 -0.0836 -0.0535
  389SOL    HW1 2066   4.922   3.222   1.458  2.4924 -1.1794  0.5063
  389SOL    HW2 2067   4.970   3.261   1.307  0.1924  0.1356  0.0693
  390SOL     OW 2068   3.278   2.572   0.511 -0.2852  0.1456 -0.1556
  390SOL    HW1 2069   3.344   2.509   0.472  0.8277  1.6063 -0.7254
  390SOL    HW2 2070   3.216   2.605   0.440  0.2854  1.0424 -0.2609
  391SOL     OW 2071   3.075   4.026   3.075 -0.6428 -0.5580 -0.4282
  391SOL    HW1 2072   3.146   4.063   3.014 -1.4044  1.7569 -0.0066
  391SOL    HW2 2073   3.108   4.030   3.170 -0.6046 -1.3371 -0.4042
  392SOL     OW 2074   2.612   2.276   2.744  0.1953 -0.0054 -0.3365
  392SOL    HW1 2075   2.572   2.188   2.717  0.1472 -0.0804 -0.0261
  392SOL    HW2 2076   2.633   2.329   2.663 -0.0456 -0.1868 -0.5205
  393SOL     OW 2077   2.282   4.756   1.118  0.0922  0.7922 -0.5165
  393SOL    HW1 2078   2.359   4.802   1.162 -0.3818  0.8744  0.2535
  393SOL    HW2 2079   2.281   4.660   1.146 -0.0291  0.7704 -0.5982
  394SOL     OW 2080   5.007   1.297   6.099  0.0596 -0.3501 -0.7854
  394SOL    HW1 2081   4.994   1.392   6.071 -1.9988 -0.8532 -1.6834
  394SOL    HW2 2082   4.963   1.282   6.188  1.9980 -0.0553  0.2776
  395SOL     OW 2083   6.177   4.778   2.212 -0.3040 -1.1305  0.6682
  395SOL    HW1 2084   6.224   4.861   2.241  0.6461 -1.2471 -0.4652
  395SOL    HW2 2085   6.242   4.702   2.207 -0.7401 -1.4622 -0.2555
  396SOL     OW 2086   0.742   1.918   0.636  0.2798 -0.3369  0.0902
  396SOL    HW1 2087   0.808   1.992   0.642 -0.8879  0.7399  0.0380
  396SOL    HW2 2088   0.789   1.830   0.646  1.6021  0.4221  0.7574
  397SOL     OW 2089   4.473   1.169   5.018 -0.3683  0.4112 -0.3211
  397SOL    HW1 2090   4.478   1.192   4.920 -0.9051 -0.6712 -0.6140
  397SOL    HW2 2091   4.565   1.168   5.056 -0.1813  1.1940 -0.7221
  398SOL     OW 2092   6.307   2.011   2.381  0.7226 -0.5047  0.1603
  398SOL    HW1 2093   6.388   1.983   2.433  0.8125 -1.7719 -0.6130
  398SOL    HW2 2094   6.225   1.975   2.425  0.4921  1.2140  1.2346
  399SOL     OW 2095   3.762   5.778   6.384 -0.5208 -0.1909  0.1708
  399SOL    HW1 2096   3.670   5.758   6.417 -0.7065  0.9482  0.3769
  399SOL    HW2 2097   3.828   5.721   6.433 -1.0547 -0.5268  0.5010
  400SOL     OW 2098   6.234   0.314   3.955 -0.2083  0.1028  0.0177
  400SOL    HW1 2099   6.263   0.265   3.873 -1.0908  0.0913 -0.3008
  400SOL    HW2 2100   6.139   0.345   3.944 -0.6187 -0.5969  1.3456
  401SOL     OW 2101   1.050   6.280   4.547 -0.3337  0.8735  0.5343
  401SOL    HW1 2102   0.983   6.207   4.566 -1.0526  1.4923  0.4210
  401SOL    HW2 2103   1.096   6.305   4.632 -1.7762  1.9110  1.0501
  402SOL     OW 2104   6.036   6.027   4.042 -0.5054  0.3617 -0.1147
  402SOL    HW1 2105   6.039   6.115   3.994 -0.9289  0.3442 -0.1763
  402SOL    HW2 2106   6.111   6.023   4.108 -0.8222  1.0193  0.3073
  403SOL     OW 2107   3.261   2.438   5.395 -0.1293  0.5719 -0.6495
  403SOL    HW1 2108   3.211   2.410   5.314  0.5476  0.0600 -0.8974
  403SOL    HW2 2109   3.331   2.506   5.370 -0.5442  1.1171 -0.3439
  404SOL     OW 2110   4.810   0.951   2.421 -0.2454 -0.0299  0.6191
  404SOL    HW1 2111   4.857   1.031   2.384  0.9404 -0.9086  0.1702
  404SOL    HW2 2112   4.718   0.977   2.451 -0.6322  1.0912 -1.3622
  405SOL     OW 2113   2.777   5.678   1.771  0.0879 -0.5134  0.5893
  405SOL    HW1 2114   2.796   5.601   1.710  1.1194 -0.7283  1.1579
  405SOL    HW2 2115   2.744   5.755   1.717  1.8652 -0.3820 -0.3925
  406SOL     OW 2116   6.355   6.830   0.474  0.4307  0.7863  0.2785
  406SOL    HW1 2117   6.371   6.749   0.530 -1.2691 -0.4128 -0.8833
  406SOL    HW2 2118   6.425   6.836   0.403 -0.0582 -0.3262 -0.3217
  407SOL     OW 2119   0.578   3.986   3.174  0.4984 -0.1028  0.1925
  407SOL    HW1 2120   0.595   4.056   3.105 -0.4374 -0.2356 -0.1811
  407SOL    HW2 2121   0.554   3.900   3.129 -0.7561 -0.0226  0.6764
  408SOL     OW 2122   4.765   1.392   1.125  0.0068  0.1256 -0.1436
  408SOL    HW1 2123   4.681   1.345   1.097 -0.4082 -0.4875  1.9673
  408SOL    HW2 2124   4.839   1.368   1.062 -1.3807  0.8587 -2.1975
  409SOL     OW 2125   6.319   1.423   3.600 -0.0536  0.1951  0.0271
  409SOL    HW1 2126   6.356   1.495   3.541  0.4364  0.4168  0.5904
  409SOL    HW2 2127   6.314   1.338   3.548 -1.2945  0.7780 -0.8568
  410SOL     OW 2128   2.748   2.649   0.547 -0.2511  0.3539  0.2323
  410SOL    HW1 2129   2.746   2.742   0.511  0.0974 -0.6032 -2.4980
  410SOL    HW2 2130   2.823   2.641   0.612 -0.8773  2.1890  1.2419
  411SOL     OW 2131   5.774   2.532   3.129 -0.2340  0.1643  0.3120
  411SOL    HW1 2132   5.689   2.521   3.078 -0.1809  0.4446  0.1661
  411SOL    HW2 2133   5.799   2.629   3.135  1.6457 -0.0699 -2.2066
  412SOL     OW 2134   2.199   4.388   5.095  0.3334  0.4613 -0.2349
  412SOL    HW1 2135   2.193   4.353   5.002 -0.3656  3.2703 -1.3525
  412SOL    HW2 2136   2.253   4.325   5.151 -0.6647 -2.1916 -2.0373
  413SOL     OW 2137   5.232   5.956   4.622 -0.3533 -0.5008 -0.2073
  413SOL    HW1 2138   5.237   5.987   4.527  0.2648 -1.1825 -0.4000
  413SOL    HW2 2139   5.226   5.857   4.625 -0.5820 -0.4743  0.4665
  414SOL     OW 2140   0.900   6.624   2.809 -0.0809 -0.5686 -0.2380
  414SOL    HW1 2141   0.946   6.713   2.809 -2.0819  0.5471  1.4153
  414SOL    HW2 2142   0.963   6.554   2.844  0.4072  0.9318  2.1587
  415SOL     OW 2143   0.095   4.897   1.188 -0.4110 -0.4408 -0.6927
  415SOL    HW1 2144   0.144   4.984   1.196  0.3031 -0.8576 -0.4313
  415SOL    HW2 2145  -0.002   4.912   1.203 -0.1486  0.1308  0.5108
  416SOL     OW 2146   6.754   3.195   6.943  0.5792  0.6182  0.2299
  416SOL    HW1 2147   6.756   3.095   6.942  2.0798  0.6127  0.9369
  416SOL    HW2 2148   6.758   3.228   7.037  0.2565  1.3559 -0.0043
  417SOL     OW 2149   2.503   1.838   4.970  0.1532 -0.2727 -0.1886
  417SOL    HW1 2150   2.471   1.919   4.921 -0.2733 -0.1722  0.2537
  417SOL    HW2 2151   2.433   1.808   5.035 -0.9585 -2.7897 -2.4130
  418SOL     OW 2152   4.266   6.149   0.408  0.2553 -0.0202  0.1952
  418SOL    HW1 2153   4.272   6.238   0.362 -1.9256  0.7748  1.3477
  418SOL    HW2 2154   4.347   6.137   0.466  1.0006  0.8015 -0.6298
  419SOL     OW 2155   6.162   0.417   1.684 -0.6365  0.0372  0.0175
  419SOL    HW1 2156   6.204   0.327   1.690  0.5957  0.3739 -2.2449
  419SOL    HW2 2157   6.203   0.468   1.608 -0.8438  2.7558  1.6003
  420SOL     OW 2158   2.739   5.117   5.354 -0.4409 -0.3827  0.1134
  420SOL    HW1 2159   2.677   5.194   5.371  0.3138  0.4217 -0.7059
  420SOL    HW2 2160   2.795   5.102   5.435 -1.0651 -0.5263  0.5296
  421SOL     OW 2161   5.741   4.387   1.805 -0.1801  0.2359 -0.3052
  421SOL    HW1 2162   5.825   4.356   1.848  1.1046  2.0520 -1.3639
  421SOL    HW2 2163   5.701   4.461   1.859  0.0389  0.7768 -0.8754
  422SOL     OW 2164   2.834   2.398   0.807 -0.0557 -0.0505 -0.6474
  422SOL    HW1 2165   2.926   2.410   0.769  0.7067 -0.9879  0.7791
  422SOL    HW2 2166   2.772   2.365   0.736  1.2127 -1.3935 -1.1851
  423SOL     OW 2167   1.706   6.001   6.898  0.2180 -0.2070 -0.2333
  423SOL    HW1 2168   1.676   5.943   6.822 -0.0331 -2.7654  1.6934
  423SOL    HW2 2169   1.805   6.016   6.891  0.0018  0.7331 -1.7408
  424SOL     OW 2170   2.808   4.880   3.166  0.1123  0.3360  0.3543
  424SOL    HW1 2171   2.749   4.811   3.125  3.2402 -2.8760  0.7186
  424SOL    HW2 2172   2.813   4.864   3.265  2.2042 -0.1346  0.2196
  425SOL     OW 2173   3.750   6.685   5.860 -0.0928 -0.4884  0.4220
  425SOL    HW1 2174   3.779   6.631   5.781  0.3592 -0.1949  0.3863
  425SOL    HW2 2175   3.830   6.717   5.909 -0.3344 -1.9776  1.9026
  426SOL     OW 2176   1.824   2.648   3.733 -0.0792 -0.2848  0.1512
  426SOL    HW1 2177   1.846   2.697   3.817 -2.0112 -0.0251  0.5488
  426SOL    HW2 2178   1.787   2.713   3.666  0.2060 -0.7154 -0.4351
  427SOL     OW 2179   3.544   1.880   5.467  0.2361 -0.0331 -0.1996
  427SOL    HW1 2180   3.516   1.816   5.396  1.7238 -1.9016  0.8031
  427SOL    HW2 2181   3.636   1.914   5.448  0.3376  0.0646  0.4308
  428SOL     OW 2182   3.312   2.998   5.899  0.3667  0.1958 -0.1674
  428SOL    HW1 2183   3.222   2.954   5.907  0.1950  0.2601 -1.5373
  428SOL    HW2 2184   3.340   2.999   5.803  1.3006  1.2436  0.1012
  429SOL     OW 2185   0.233   6.326   4.481 -0.2303 -0.0115 -0.4139
  429SOL    HW1 2186   0.329   6.295   4.488  0.2835  1.7186  0.7082
  429SOL    HW2 2187   0.231   6.424   4.464 -1.8385 -0.1128 -0.9118
  430SOL     OW 2188   0.798   6.890   5.065  0.1215 -0.8292  0.1618
  430SOL    HW1 2189   0.761   6.805   5.026 -2.3552  0.6234 -0.9220
  430SOL    HW2 2190   0.757   6.906   5.155  0.2338 -0.5861  0.1694
  431SOL     OW 2191   2.413   0.283   1.333  0.3357 -0.1302  0.2896
  431SOL    HW1 2192   2.502   0.312   1.370 -0.1812  1.1185  0.5926
  431SOL    HW2 2193   2.349   0.268   1.409 -0.1706  0.5430  0.0042
  432SOL     OW 2194   5.891   2.035   0.891 -0.1130  0.4565 -0.4032
  432SOL    HW1 2195   5.984   2.033   0.929 -0.2431 -0.4419 -0.0996
  432SOL    HW2 2196   5.854   2.128   0.897  0.4259  0.6344  0.3107
  433SOL     OW 2197   2.555   2.159   6.777  0.1347  0.5865  0.0302
  433SOL    HW1 2198   2.491   2.148   6.700 -0.2276  0.8845  0.2835
  433SOL    HW2 2199   2.588   2.069   6.805 -0.5059  0.3838  0.1691
  434SOL     OW 2200   5.339   5.180   3.500  0.0757  0.3736  0.4089
  434SOL    HW1 2201   5.272   5.199   3.573 -0.2702 -1.3553  0.5925
  434SOL    HW2 2202   5.360   5.082   3.500  0.4902  0.4407 -1.4834
  435SOL     OW 2203   1.857   1.650   6.094  0.4712 -0.7758  0.3362
  435SOL    HW1 2204   1.757   1.648   6.089  0.5121 -1.6933 -0.5091
  435SOL    HW2 2205   1.895   1.614   6.009  1.5276 -0.4208  0.6457
  436SOL     OW 2206   5.970   5.559   2.910  0.1713  0.6446  0.1846
  436SOL    HW1 2207   5.923   5.611   2.981 -0.2837 -0.1377  0.4671
  436SOL    HW2 2208   6.015   5.480   2.950  1.3453  1.1218 -0.1573
  437SOL     OW 2209   5.724   1.369   6.053 -0.2516  0.1149  0.1807
  437SOL    HW1 2210   5.799   1.334   5.997  0.3237 -1.2996  1.7649
  437SOL    HW2 2211   5.732   1.468   6.061 -0.1183  0.3104 -1.8425
  438SOL     OW 2212   1.503   3.265   2.661  0.1058 -0.2174  0.6147
  438SOL    HW1 2213   1.558   3.271   2.578 -0.8673 -0.4613 -0.0653
  438SOL    HW2 2214   1.557   3.295   2.739  1.2786 -0.6829  0.0069
  439SOL     OW 2215   6.928   0.904   4.985 -0.1690 -0.5119  0.2940
  439SOL    HW1 2216   6.882   0.963   5.051  2.2380  2.0944 -0.1746
  439SOL    HW2 2217   6.911   0.937   4.893  1.2599 -0.4691  0.0190
  440SOL     OW 2218   4.220   1.881   1.960 -0.5385  0.1926 -0.6633
  440SOL    HW1 2219   4.250   1.859   2.054  0.2336  3.8194  0.0870
  440SOL    HW2 2220   4.121   1.873   1.954 -0.6507  0.3780  0.6274
  441SOL     OW 2221   2.350   2.839   4.604 -0.2102  0.1318  0.1777
  441SOL    HW1 2222   2.345   2.824   4.703  0.8510  0.5084  0.2957
  441SOL    HW2 2223   2.303   2.925   4.582  1.2482  1.0824  0.6320
  442SOL     OW 2224   3.280   3.221   6.361 -0.1522  0.2085 -0.1071
  442SOL    HW1 2225   3.267   3.137   6.413 -1.0111 -0.7942 -1.8480
  442SOL    HW2 2226   3.294   3.198   6.264 -1.4725  2.1061 -0.8076
  443SOL     OW 2227   0.118   2.336   3.324  0.7563  0.4071 -0.1857
  443SOL    HW1 2228   0.043   2.342   3.390  0.4787  2.3961 -0.6083
  443SOL    HW2 2229   0.118   2.418   3.266  1.3403 -1.0142 -2.2967
  444SOL     OW 2230   4.064   2.189   1.389 -0.2906  0.2433  0.0132
  444SOL    HW1 2231   4.111   2.188   1.477 -0.3376  1.3598  0.0652
  444SOL    HW2 2232   3.966   2.195   1.402 -0.4203 -1.2479 -0.1098
  445SOL     OW 2233   1.629   0.287   4.285  0.3136  0.1471 -0.0752
  445SOL    HW1 2234   1.558   0.301   4.216  0.2856  0.5219  0.0271
  445SOL    HW2 2235   1.658   0.376   4.321  1.3485  0.0438 -0.6323
  446SOL     OW 2236   6.745   1.365   1.224 -0.0471  0.3439  0.0613
  446SOL    HW1 2237   6.735   1.275   1.267  0.7323  1.3622  2.4884
  446SOL    HW2 2238   6.668   1.423   1.249  1.0654  1.3689  1.2478
  447SOL     OW 2239   6.869   4.977   0.511 -0.1939 -0.0119  0.2003
  447SOL    HW1 2240   6.825   4.905   0.457 -3.5391  0.0457  2.5902
  447SOL    HW2 2241   6.879   4.948   0.606  1.2533  1.5914  0.6064
  448SOL     OW 2242   3.331   5.681   3.939  0.6340 -0.0931 -0.0747
  448SOL    HW1 2243   3.310   5.750   3.870  0.7486  0.7435  0.7128
  448SOL    HW2 2244   3.414   5.632   3.913  0.4652 -0.0495 -0.7127
  449SOL     OW 2245   0.739   5.038   4.904 -0.2449  0.2963 -0.3775
  449SOL    HW1 2246   0.744   4.956   4.847 -0.0266  0.9156 -1.2708
  449SOL    HW2 2247   0.721   5.012   4.998 -1.2147 -0.7190 -0.8234
  450SOL     OW 2248   6.246   3.835   2.601  0.1201 -0.4626 -0.1595
  450SOL    HW1 2249   6.230   3.785   2.686 -0.3721 -2.4088 -1.3531
  450SOL    HW2 2250   6.211   3.783   2.524  1.3362  0.8561 -1.6754
  451SOL     OW 2251   3.216   2.258   5.900  0.1724 -0.0024  0.2065
  451SOL    HW1 2252   3.172   2.247   5.811 -1.2361  1.4715  0.6646
  451SOL    HW2 2253   3.218   2.355   5.924  1.5208 -0.2687  1.3210
  452SOL     OW 2254   3.794   5.736   1.483 -0.1347  0.6876 -0.1178
  452SOL    HW1 2255   3.785   5.782   1.572 -0.2898  1.7028 -0.6428
  452SOL    HW2 2256   3.826   5.801   1.415 -0.0828 -0.0669 -0.8338
  453SOL     OW 2257   5.745   1.563   5.762 -0.0377 -0.0383 -0.0104
  453SOL    HW1 2258   5.648   1.584   5.774 -0.0704  1.9379 -2.6580
  453SOL    HW2 2259   5.798   1.607   5.834 -0.7211  4.2962 -1.8451
  454SOL     OW 2260   0.534   4.230   5.289 -0.3485 -0.3491 -0.0839
  454SOL    HW1 2261   0.491   4.144   5.316  0.1393 -0.2238  1.1622
  454SOL    HW2 2262   0.491   4.264   5.205 -2.4426 -0.3950  0.9146
  455SOL     OW 2263   6.499   0.145   7.004  0.5879 -0.4430  0.0547
  455SOL    HW1 2264   6.588   0.161   7.047  1.3424 -2.1457 -0.7867
  455SOL    HW2 2265   6.448   0.231   7.000  2.3410  0.6516  0.2174
  456SOL     OW 2266   3.163   0.116   1.567 -0.3298 -0.0967 -0.2021
  456SOL    HW1 2267   3.158   0.030   1.619  1.1277  0.9061  1.7070
  456SOL    HW2 2268   3.115   0.104   1.480 -1.9972 -2.1906  0.8808
  457SOL     OW 2269   2.973   6.260   6.970 -0.3632  0.1756  0.1419
  457SOL    HW1 2270   3.003   6.212   6.888  0.1822 -1.2255  1.1161
  457SOL    HW2 2271   2.876   6.286   6.960 -0.0160  1.0201 -1.3537
  458SOL     OW 2272   3.695   1.440   4.189 -0.4106  0.0191 -0.0499
  458SOL    HW1 2273   3.624   1.462   4.256  1.0085 -0.5089  1.6934
  458SOL    HW2 2274   3.714   1.342   4.192  1.4219  0.3594  0.6081
  459SOL     OW 2275   4.833   2.160   4.454 -0.1175  0.2391  0.5198
  459SOL    HW1 2276   4.737   2.189   4.453 -0.6538 -1.4442  0.9357
  459SOL    HW2 2277   4.881   2.206   4.529 -1.0336 -0.1862  1.3848
  460SOL     OW 2278   6.532   0.816   5.837  0.3472  0.0074  0.0265
  460SOL    HW1 2279   6.623   0.842   5.870 -0.0990 -1.4258  2.6346
  460SOL    HW2 2280   6.539   0.786   5.742  2.9044 -1.5473  0.6171
  461SOL     OW 2281   6.033   6.412   5.537  1.1108 -0.8172 -0.2002
  461SOL    HW1 2282   6.007   6.366   5.451  0.8702  0.1834 -0.6794
  461SOL    HW2 2283   6.073   6.345   5.600  2.5888 -1.3182 -1.6108
  462SOL     OW 2284   3.165   3.411   4.527  0.6668 -0.3830 -0.0773
  462SOL    HW1 2285   3.071   3.417   4.560  1.3364  1.0471  1.7531
  462SOL    HW2 2286   3.170   3.347   4.450 -1.7262 -0.6896 -0.0348
  463SOL     OW 2287   3.768   4.922   2.837  0.9930  0.2335  0.3922
  463SOL    HW1 2288   3.689   4.983   2.845 -0.4258 -1.3592 -0.6455
  463SOL    HW2 2289   3.786   4.880   2.927  0.5780  0.5125  0.6093
  464SOL     OW 2290   5.865   6.638   5.067  0.3885 -0.4473  1.0262
  464SOL    HW1 2291   5.845   6.648   5.165 -2.1537 -0.1052  0.5369
  464SOL    HW2 2292   5.952   6.590   5.056  0.6972 -0.5863  3.4427
  465SOL     OW 2293   6.430   5.276   0.856 -0.2678 -0.2881 -0.2132
  465SOL    HW1 2294   6.495   5.289   0.782  0.9951 -2.1602  0.4902
  465SOL    HW2 2295   6.412   5.178   0.868 -2.1431  0.1024  0.5376
  466SOL     OW 2296   3.263   5.164   2.845  0.3309  0.6410 -0.2345
  466SOL    HW1 2297   3.187   5.108   2.811  2.2938 -0.8690 -2.4676
  466SOL    HW2 2298   3.235   5.260   2.844 -1.4599  0.1722 -1.3424
  467SOL     OW 2299   1.777   5.816   4.529 -0.0648 -0.1968 -0.1785
  467SOL    HW1 2300   1.689   5.851   4.497  0.0392 -0.5039 -0.8181
  467SOL    HW2 2301   1.823   5.885   4.585 -0.9101 -0.2004  0.5372
  468SOL     OW 2302   1.669   0.433   5.916 -0.1674  0.3295  0.2660
  468SOL    HW1 2303   1.735   0.362   5.941 -1.8956 -1.3241  0.4077
  468SOL    HW2 2304   1.654   0.493   5.994  4.2716  3.5271 -0.9868
  469SOL     OW 2305   3.387   4.074   4.180 -0.2512  0.0097  0.3358
  469SOL    HW1 2306   3.336   4.085   4.265 -0.2778 -1.0963  0.4785
  469SOL    HW2 2307   3.477   4.117   4.189  0.1948 -1.0830  1.3403
  470SOL     OW 2308   3.037   5.076   1.686  0.0552  0.1600 -0.3713
  470SOL    HW1 2309   3.016   5.027   1.771 -1.0693  2.3689  0.7212
  470SOL    HW2 2310   3.106   5.147   1.705  0.1588  0.3616 -1.4272
  471SOL     OW 2311   0.539   0.869   5.088 -0.0869  0.4965 -0.1736
  471SOL    HW1 2312   0.498   0.809   5.019 -1.2263  0.5009  0.4726
  471SOL    HW2 2313   0.565   0.814   5.167 -0.9379  0.8037  0.3336
  472SOL     OW 2314   3.157   3.035   6.542  0.4603 -0.3862  0.3457
  472SOL    HW1 2315   3.146   2.942   6.575 -0.9665 -0.6654 -0.8014
  472SOL    HW2 2316   3.165   3.098   6.620  2.0619 -1.4930  1.1246
  473SOL     OW 2317   6.100   3.485   1.406  0.1139 -0.2445  0.2608
  473SOL    HW1 2318   6.089   3.427   1.487  0.7322 -0.6289  0.0735
  473SOL    HW2 2319   6.040   3.452   1.333  0.9625 -1.0862 -0.0761
  474SOL     OW 2320   2.908   6.390   4.158  0.1034  0.0386  0.0064
  474SOL    HW1 2321   2.861   6.310   4.119  0.9714 -1.1631  1.3407
  474SOL    HW2 2322   2.851   6.471   4.144 -1.1889 -0.9337 -0.6534
  475SOL     OW 2323   6.354   0.506   0.722  0.1491  0.4558  0.1595
  475SOL    HW1 2324   6.427   0.448   0.685 -1.5229 -2.3736  0.9877
  475SOL    HW2 2325   6.341   0.485   0.819 -0.4249  2.4169  0.5343
  476SOL     OW 2326   2.549   3.262   1.687 -0.3519 -0.2589 -0.1518
  476SOL    HW1 2327   2.508   3.339   1.735 -1.0825 -0.9200  0.3118
  476SOL    HW2 2328   2.645   3.283   1.665  0.0123  0.0521  1.6135
  477SOL     OW 2329   6.394   6.109   4.425  0.0664  0.0566  0.1133
  477SOL    HW1 2330   6.464   6.170   4.388  0.0338 -0.1022 -0.2141
  477SOL    HW2 2331   6.373   6.136   4.519  0.5149  0.1491  0.1904
  478SOL     OW 2332   4.709   5.899   1.164  0.6662  0.2941 -0.0435
  478SOL    HW1 2333   4.710   5.996   1.139  0.2691  0.0198 -1.1948
  478SOL    HW2 2334   4.617   5.863   1.153  1.0980 -0.5503 -1.0554
  479SOL     OW 2335   4.092   3.266   5.268  0.0361 -0.2013  0.6058
  479SOL    HW1 2336   4.090   3.171   5.298 -0.2312 -0.7265 -1.0059
  479SOL    HW2 2337   4.185   3.301   5.275 -0.1292 -0.0567  2.6798
  480SOL     OW 2338   6.621   0.778   1.753 -0.5450  0.3608  0.3043
  480SOL    HW1 2339   6.527   0.747   1.766  0.2408 -1.2964  2.8272
  480SOL    HW2 2340   6.682   0.724   1.811  2.0483  1.1318 -1.5105
  481SOL     OW 2341   6.230   0.167   1.598  0.6006  0.2202  0.3455
  481SOL    HW1 2342   6.241   0.171   1.499 -0.5294 -0.0665  0.1940
  481SOL    HW2 2343   6.262   0.079   1.632  2.3497  0.8590  0.4438
  482SOL     OW 2344   4.003   5.779   4.630  0.0866 -0.5980 -0.0883
  482SOL    HW1 2345   3.985   5.871   4.666  0.7955 -0.6389  0.3795
  482SOL    HW2 2346   4.011   5.784   4.530 -0.2450 -0.2162 -0.1004
  483SOL     OW 2347   5.631   3.097   5.989  0.0755  0.4715  0.2516
  483SOL    HW1 2348   5.654   3.104   5.892 -0.1687 -0.4710  0.1085
  483SOL    HW2 2349   5.677   3.017   6.028 -0.3266  0.4822  0.7606
  484SOL     OW 2350   0.710   5.567   5.285 -0.1094  0.5453 -0.5732
  484SOL    HW1 2351   0.703   5.468   5.296 -1.6714  0.5069 -1.6093
  484SOL    HW2 2352   0.804   5.591   5.260 -0.0378 -0.8527 -1.7976
  485SOL     OW 2353   4.515   3.435   0.083  0.7632  0.0568 -0.7470
  485SOL    HW1 2354   4.614   3.450   0.093  0.5664  2.1469 -1.4308
  485SOL    HW2 2355   4.476   3.410   0.172  1.9338 -1.1941 -0.5468
  486SOL     OW 2356   5.245   5.390   4.931 -0.6366 -0.3294  0.2458
  486SOL    HW1 2357   5.170   5.354   4.877  0.2855 -3.0201  0.5959
  486SOL    HW2 2358   5.330   5.387   4.878 -0.0548 -1.2681  1.1917
  487SOL     OW 2359   0.204   1.457   0.781  0.4147 -0.5192 -0.5091
  487SOL    HW1 2360   0.216   1.528   0.711  0.6804 -0.0859 -0.0370
  487SOL    HW2 2361   0.278   1.390   0.773  0.4579 -0.4573 -0.6313
  488SOL     OW 2362   1.233   6.614   4.761 -0.1940 -0.3358  0.6645
  488SOL    HW1 2363   1.292   6.663   4.697 -0.9711 -0.4584 -0.1639
  488SOL    HW2 2364   1.216   6.670   4.842 -0.7776  0.6204 -0.1078
  489SOL     OW 2365   1.505   5.122   6.376  0.8030  0.1022 -0.3834
  489SOL    HW1 2366   1.594   5.157   6.347  1.4482  0.5584  1.8978
  489SOL    HW2 2367   1.481   5.162   6.464 -0.4174 -2.0230  0.3346
  490SOL     OW 2368   1.308   4.647   5.880 -0.0854  0.2097 -0.6791
  490SOL    HW1 2369   1.369   4.699   5.940 -1.1946  1.5752 -0.6531
  490SOL    HW2 2370   1.327   4.670   5.784 -0.2828  0.3330 -0.6900
  491SOL     OW 2371   6.079   2.625   0.991 -0.3708 -0.1032 -1.1430
  491SOL    HW1 2372   6.034   2.713   0.977 -0.9884 -0.4372 -1.2863
  491SOL    HW2 2373   6.047   2.584   1.076 -0.5832 -0.4844 -1.4002
  492SOL     OW 2374   2.124   0.832   4.888  0.1985 -0.5914 -0.6465
  492SOL    HW1 2375   2.182   0.790   4.818  0.5436  2.1153 -2.1336
  492SOL    HW2 2376   2.168   0.825   4.977  0.5669 -2.5921 -0.9366
  493SOL     OW 2377   0.970   6.914   6.040  0.6308  0.5851 -0.4888
  493SOL    HW1 2378   0.980   7.008   6.071  0.2746  1.4269 -2.7408
  493SOL    HW2 2379   0.978   6.911   5.940 -0.1158 -1.6777 -0.5297
  494SOL     OW 2380   2.241   6.550   2.272  0.1212 -0.0623 -0.6558
  494SOL    HW1 2381   2.166   6.572   2.210  1.1731  1.7455 -1.3421
  494SOL    HW2 2382   2.239   6.611   2.351 -0.0639 -1.0817  0.1577
  495SOL     OW 2383   5.039   4.641   5.994  0.1269 -0.3763 -0.5413
  495SOL    HW1 2384   4.998   4.591   6.070  0.8709 -1.5660 -0.9015
  495SOL    HW2 2385   4.996   4.614   5.909 -0.0658  0.2573 -0.6480
  496SOL     OW 2386   4.272   6.542   2.759  0.2725 -0.1609  0.7824
  496SOL    HW1 2387   4.216   6.582   2.687  1.6760  0.0199 -0.2481
  496SOL    HW2 2388   4.241   6.575   2.848  0.4431  2.1131  0.0687
  497SOL     OW 2389   4.367   1.953   0.418 -0.4243 -0.5479 -0.1174
  497SOL    HW1 2390   4.320   1.910   0.495  0.0155 -0.3291  0.2779
  497SOL    HW2 2391   4.302   1.965   0.342 -0.9004 -0.6272  0.2692
  498SOL     OW 2392   1.424   0.165   0.829  0.1163  0.0587 -0.6223
  498SOL    HW1 2393   1.336   0.145   0.873 -0.7882 -0.3588 -2.5010
  498SOL    HW2 2394   1.461   0.250   0.865 -0.3823 -0.4449  1.1678
  499SOL     OW 2395   2.285   6.810   1.230  0.4145  0.2051 -0.0184
  499SOL    HW1 2396   2.318   6.897   1.195  1.8865 -0.0075  0.7719
  499SOL    HW2 2397   2.239   6.823   1.317 -1.5245  0.4763 -1.0339
  500SOL     OW 2398   0.021   2.891   6.523  0.2342  0.8099  0.3105
  500SOL    HW1 2399   0.083   2.914   6.448  0.4224  0.0205  0.2056
  500SOL    HW2 2400  -0.049   2.962   6.533 -0.2790  0.5424 -1.1379
  501SOL     OW 2401   2.631   1.487   5.289  0.1510 -0.2138  0.1562
  501SOL    HW1 2402   2.723   1.493   5.249 -0.6302 -0.6894 -1.8246
  501SOL    HW2 2403   2.564   1.478   5.216 -1.5247  0.4457  1.5635
  502SOL     OW 2404   2.531   3.864   6.328 -0.0692  0.4654 -0.1954
  502SOL    HW1 2405   2.578   3.951   6.313 -0.4800  0.7575  0.2105
  502SOL    HW2 2406   2.450   3.879   6.385  1.2024 -0.5379  1.9946
  503SOL     OW 2407   3.616   0.064   1.372 -0.0772 -0.1220  1.1578
  503SOL    HW1 2408   3.567   0.093   1.454 -0.2590 -0.4885  1.1801
  503SOL    HW2 2409   3.583   0.117   1.294 -2.3277 -2.0148  0.6919
  504SOL     OW 2410   6.739   6.551   0.517  0.3695 -0.1248  0.8130
  504SOL    HW1 2411   6.819   6.540   0.575  0.2775 -0.8375  0.8043
  504SOL    HW2 2412   6.738   6.480   0.447 -0.0436  0.1389  0.5462
  505SOL     OW 2413   0.173   3.607   6.567  0.1170  0.0119 -0.2458
  505SOL    HW1 2414   0.231   3.534   6.531 -0.2223  0.4541 -1.7618
  505SOL    HW2 2415   0.093   3.617   6.509  0.8902  2.6001 -1.0016
  506SOL     OW 2416   2.374   6.307   1.119  0.7209 -0.1927 -0.1488
  506SOL    HW1 2417   2.449   6.296   1.185  1.0272 -2.4373 -0.7588
  506SOL    HW2 2418   2.350   6.403   1.110  0.6677  0.2165  3.2047
  507SOL     OW 2419   6.188   5.713   4.974  0.0551  0.1682 -0.5732
  507SOL    HW1 2420   6.224   5.681   5.062 -0.0912  0.9871 -0.2136
  507SOL    HW2 2421   6.117   5.781   4.989  0.0830  0.3776 -1.3327
  508SOL     OW 2422   1.047   4.178   3.449  1.0267  0.6727 -0.7377
  508SOL    HW1 2423   1.010   4.088   3.470  0.1019  0.8250 -1.6472
  508SOL    HW2 2424   1.007   4.246   3.511  0.2361  0.7389 -1.3040
  509SOL     OW 2425   3.793   1.908   6.012 -0.3017 -0.1754  0.2945
  509SOL    HW1 2426   3.803   1.858   5.926 -1.2411 -0.2872  0.2378
  509SOL    HW2 2427   3.775   2.004   5.993  1.8562  0.3013  0.4079
  510SOL     OW 2428   6.756   6.289   0.950  0.3522 -0.4087 -0.4475
  510SOL    HW1 2429   6.774   6.238   1.034 -1.5034  0.2059  0.3845
  510SOL    HW2 2430   6.836   6.345   0.927  0.6739 -0.0963  1.2755
  511SOL     OW 2431   6.289   4.883   0.105  0.6981 -0.2663 -0.0376
  511SOL    HW1 2432   6.289   4.783   0.097  0.1535 -0.3831  1.1927
  511SOL    HW2 2433   6.382   4.917   0.090  0.7668 -0.8800 -1.1389
  512SOL     OW 2434   2.872   2.303   5.169 -0.2077 -0.5389  0.4332
  512SOL    HW1 2435   2.972   2.306   5.164 -0.2123  0.4238  0.7809
  512SOL    HW2 2436   2.842   2.347   5.254 -1.0091  0.9075 -0.5650
  513SOL     OW 2437   4.459   5.162   2.440 -0.2242 -0.6927 -0.3967
  513SOL    HW1 2438   4.542   5.125   2.398 -1.5027 -2.7015 -1.3005
  513SOL    HW2 2439   4.482   5.203   2.528  2.1565  1.5275 -1.9037
  514SOL     OW 2440   4.172   1.105   5.046 -0.5139 -0.3848  0.9672
  514SOL    HW1 2441   4.204   1.018   5.008  0.3444 -0.3225  1.5170
  514SOL    HW2 2442   4.220   1.180   5.000  0.0440 -0.2832  1.6989
  515SOL     OW 2443   1.791   0.211   0.644 -0.1494 -0.2518  0.0859
  515SOL    HW1 2444   1.867   0.257   0.689  0.2537 -0.8100 -0.0142
  515SOL    HW2 2445   1.736   0.163   0.712  0.2657 -0.8159  0.0297
  516SOL     OW 2446   1.568   5.840   2.404  1.0855 -0.0286  0.7651
  516SOL    HW1 2447   1.637   5.858   2.334  0.7810 -2.4482 -0.2445
  516SOL    HW2 2448   1.478   5.864   2.368  1.1052  0.4027  1.0007
  517SOL     OW 2449   1.656   3.830   0.354  0.3669  0.5902  0.1607
  517SOL    HW1 2450   1.740   3.803   0.401  0.2882 -0.9791 -0.5228
  517SOL    HW2 2451   1.590   3.864   0.421  0.6838 -0.4736  1.0509
  518SOL     OW 2452   2.822   1.104   2.386 -0.5471 -0.4975  0.0207
  518SOL    HW1 2453   2.880   1.067   2.313  0.2671 -0.5926  0.6930
  518SOL    HW2 2454   2.769   1.030   2.428 -0.3954 -0.5852  0.0602
  519SOL     OW 2455   1.910   6.796   3.388 -0.4182 -0.3297  0.3622
  519SOL    HW1 2456   1.819   6.834   3.405 -0.3274  0.1774 -0.2487
  519SOL    HW2 2457   1.904   6.696   3.385 -0.9133 -0.3094  0.5408
  520SOL     OW 2458   4.061   4.712   6.394  0.0032  0.1545 -0.2335
  520SOL    HW1 2459   4.088   4.789   6.451 -1.8629 -0.6075  1.8208
  520SOL    HW2 2460   3.963   4.694   6.406 -0.2601 -0.7052 -2.9567
  521SOL     OW 2461   5.351   3.920   4.045 -0.1758  0.6796  0.6353
  521SOL    HW1 2462   5.271   3.964   4.085 -0.6489  1.5146 -1.1294
  521SOL    HW2 2463   5.380   3.971   3.964 -0.4159 -1.9332 -1.2198
  522SOL     OW 2464   1.403   6.446   5.694  0.0304 -0.4313 -0.4165
  522SOL    HW1 2465   1.359   6.362   5.662 -0.8916  0.7085 -2.3197
  522SOL    HW2 2466   1.354   6.526   5.657  1.5787  0.9353  0.3527
  523SOL     OW 2467   3.365   5.828   6.626  0.1460  0.9105  0.3120
  523SOL    HW1 2468   3.413   5.841   6.539 -1.4758  0.0749 -0.7599
  523SOL    HW2 2469   3.268   5.811   6.608  0.3712 -3.3588  1.9359
  524SOL     OW 2470   6.832   1.140   1.552 -0.3286 -0.1406  0.2644
  524SOL    HW1 2471   6.915   1.194   1.565  0.6307 -1.3179 -0.7826
  524SOL    HW2 2472   6.824   1.112   1.457 -3.1543  1.8309 -0.1876
  525SOL     OW 2473   5.300   2.345   4.590  0.3279 -0.0528  0.3078
  525SOL    HW1 2474   5.341   2.334   4.681 -0.4630  1.7332  0.9348
  525SOL    HW2 2475   5.355   2.409   4.536  2.0448 -2.7686 -1.3684
  526SOL     OW 2476   3.699   1.692   4.659 -0.0076 -0.1897  0.6796
  526SOL    HW1 2477   3.640   1.695   4.740  1.2531  1.3448  1.5855
  526SOL    HW2 2478   3.658   1.746   4.586 -1.0615 -1.4327  0.2997
  527SOL     OW 2479   0.690   2.190   6.580 -0.0970 -0.0629  0.3176
  527SOL    HW1 2480   0.615   2.246   6.546  1.0404  0.5646 -1.3162
  527SOL    HW2 2481   0.771   2.248   6.593  0.1936 -0.7488  1.8769
  528SOL     OW 2482   5.506   1.822   3.789  0.0754 -0.1839 -0.1694
  528SOL    HW1 2483   5.467   1.803   3.880  1.7550 -0.1338  0.5924
  528SOL    HW2 2484   5.432   1.833   3.723 -1.2341  0.6887  1.3661
  529SOL     OW 2485   1.391   2.865   5.268 -0.0397 -0.1045 -0.5724
  529SOL    HW1 2486   1.436   2.841   5.353 -0.4159  2.8763  0.5794
  529SOL    HW2 2487   1.458   2.869   5.194  0.6826 -0.5109  0.0508
  530SOL     OW 2488   3.761   5.721   2.308 -0.3687 -0.6058 -0.2368
  530SOL    HW1 2489   3.668   5.692   2.281  0.1083 -2.9224  0.3478
  530SOL    HW2 2490   3.769   5.820   2.299 -2.9614 -0.3131 -0.1227
  531SOL     OW 2491   6.591   2.150   4.907  0.1012 -0.2832 -0.5893
  531SOL    HW1 2492   6.494   2.164   4.924 -0.8101 -2.4918 -3.2116
  531SOL    HW2 2493   6.604   2.065   4.855  3.5405 -0.5611  0.4391
  532SOL     OW 2494   2.574   6.273   1.307 -0.2285  0.0520  0.3602
  532SOL    HW1 2495   2.638   6.321   1.247  0.1814 -1.1156 -0.1765
  532SOL    HW2 2496   2.625   6.227   1.380 -0.7032  1.2428  1.4647
  533SOL     OW 2497   2.344   1.498   4.199  0.0698 -0.0481  0.3260
  533SOL    HW1 2498   2.312   1.591   4.182  1.0306 -0.0212 -1.6295
  533SOL    HW2 2499   2.434   1.501   4.242 -1.3349 -0.1321  3.5273
  534SOL     OW 2500   2.764   4.622   1.354  0.3019 -0.2907  0.8018
  534SOL    HW1 2501   2.771   4.716   1.321 -0.2545 -0.8063 -0.8552
  534SOL    HW2 2502   2.847   4.598   1.405  0.0571  1.3740  2.0746
  535SOL     OW 2503   5.469   3.779   3.218 -0.5660  0.1921  0.0142
  535SOL    HW1 2504   5.569   3.781   3.219 -0.5769  0.8425 -0.1050
  535SOL    HW2 2505   5.438   3.684   3.226  0.0555  0.0079  0.3325
  536SOL     OW 2506   0.535   0.003   6.950 -0.0873 -0.2147  0.0312
  536SOL    HW1 2507   0.578  -0.085   6.934 -0.0801  0.1915 -2.6690
  536SOL    HW2 2508   0.605   0.074   6.959  0.0155  0.2721 -3.2651
  537SOL     OW 2509   3.723   2.022   2.873 -0.2586  0.4980  0.5666
  537SOL    HW1 2510   3.761   2.025   2.781 -2.3766 -1.8612 -0.5242
  537SOL    HW2 2511   3.650   2.090   2.882 -1.0843 -0.2930 -0.0509
  538SOL     OW 2512   4.072   6.231   6.896  0.3233 -0.2270 -0.4710
  538SOL    HW1 2513   3.977   6.216   6.868  0.3498 -0.4462 -0.4401
  538SOL    HW2 2514   4.074   6.300   6.969  0.2091 -0.0473 -0.6344
  539SOL     OW 2515   3.047   0.879   0.534  0.2399 -0.0595  0.0076
  539SOL    HW1 2516   3.110   0.901   0.609 -0.1533  0.6405  0.1517
  539SOL    HW2 2517   3.086   0.910   0.447 -1.0577  3.0703  0.3836
  540SOL     OW 2518   1.554   2.707   4.856  0.1036  0.4301  0.2738
  540SOL    HW1 2519   1.482   2.776   4.865  1.4141  2.2321 -1.9954
  540SOL    HW2 2520   1.643   2.749   4.871  0.8686 -1.0881  0.1590
  541SOL     OW 2521   4.410   4.908   1.903 -0.2093 -0.4507 -0.1747
  541SOL    HW1 2522   4.379   4.931   1.995  1.0795 -1.6170  0.6001
  541SOL    HW2 2523   4.335   4.867   1.851 -1.1873  1.0160  0.0335
  542SOL     OW 2524   4.768   5.467   5.339  0.3580 -0.3576 -0.1626
  542SOL    HW1 2525   4.850   5.495   5.289  1.3264 -1.9419  0.4735
  542SOL    HW2 2526   4.783   5.477   5.437  0.1066 -1.3775 -0.0038
  543SOL     OW 2527   1.680   2.357   4.388 -0.8214 -0.1134  0.0259
  543SOL    HW1 2528   1.597   2.384   4.436 -1.1463 -0.3906 -0.3743
  543SOL    HW2 2529   1.726   2.438   4.350 -0.0737  0.2187  1.5623
  544SOL     OW 2530   1.655   1.518   1.057 -0.0834  0.7732  1.1110
  544SOL    HW1 2531   1.659   1.508   1.157 -2.5273  0.8037  1.2834
  544SOL    HW2 2532   1.566   1.555   1.032 -1.8653 -4.3569 -1.4476
  545SOL     OW 2533   6.011   4.257   0.385 -0.0490 -0.0914  0.2050
  545SOL    HW1 2534   6.001   4.274   0.483 -1.3940 -1.6149  0.3606
  545SOL    HW2 2535   5.999   4.160   0.366  0.7671  0.0846 -1.4252
  546SOL     OW 2536   0.657   5.156   1.413  0.5734 -0.1753  0.2501
  546SOL    HW1 2537   0.639   5.174   1.510  0.8981  0.1598  0.2533
  546SOL    HW2 2538   0.612   5.226   1.357  0.9312  0.0133  0.1971
  547SOL     OW 2539   3.441   5.384   0.182  0.5375  0.3239 -0.2718
  547SOL    HW1 2540   3.366   5.374   0.248 -0.7332 -0.3271 -1.7536
  547SOL    HW2 2541   3.422   5.460   0.120  0.8433 -0.1679 -0.9891
  548SOL     OW 2542   4.290   3.786   6.461 -0.3243  0.0029 -0.2755
  548SOL    HW1 2543   4.278   3.885   6.452 -0.1620 -0.0618 -1.3561
  548SOL    HW2 2544   4.388   3.764   6.456 -0.4608 -0.3789 -2.3832
  549SOL     OW 2545   6.332   1.061   2.360  0.7362 -0.0401 -0.0027
  549SOL    HW1 2546   6.234   1.042   2.360  0.8130 -0.4502 -0.0392
  549SOL    HW2 2547   6.374   1.018   2.280  1.0545 -0.4515  0.3817
  550SOL     OW 2548   6.573   4.991   2.896 -0.0674 -0.2033 -0.3654
  550SOL    HW1 2549   6.616   4.997   2.986 -0.8117  1.9353 -0.0899
  550SOL    HW2 2550   6.594   5.074   2.844 -1.6407 -0.2977 -1.2122
  551SOL     OW 2551   6.369   0.970   6.822 -0.2232  0.7100  0.3767
  551SOL    HW1 2552   6.297   1.031   6.857 -1.2609  0.7058 -1.5960
  551SOL    HW2 2553   6.361   0.881   6.866 -1.8708  0.5110 -0.2493
  552SOL     OW 2554   1.056   1.896   3.872  0.0315 -0.1084  0.2542
  552SOL    HW1 2555   1.134   1.959   3.867  0.8388 -1.0492  0.7620
  552SOL    HW2 2556   1.089   1.803   3.885 -1.1370 -0.7017 -0.8333
  553SOL     OW 2557   6.171   3.504   6.337 -0.1726  0.4015 -0.7531
  553SOL    HW1 2558   6.242   3.572   6.323  0.2063 -0.2549 -2.1911
  553SOL    HW2 2559   6.195   3.420   6.288 -1.5745 -0.0889 -0.6475
  554SOL     OW 2560   0.694   5.801   6.294  0.3500  0.2598  0.0324
  554SOL    HW1 2561   0.636   5.757   6.363  0.4850  0.4720  0.2828
  554SOL    HW2 2562   0.672   5.898   6.289  1.6694  0.6457  1.1663
  555SOL     OW 2563   2.203   5.234   5.195  0.0124 -0.3556 -0.3298
  555SOL    HW1 2564   2.112   5.213   5.158 -0.7053  0.9256  0.6133
  555SOL    HW2 2565   2.204   5.215   5.293  0.4585  0.5030 -0.1561
  556SOL     OW 2566   6.266   6.237   2.930  0.2380  0.6899 -0.7354
  556SOL    HW1 2567   6.225   6.240   2.839 -2.5981  1.0796  0.4724
  556SOL    HW2 2568   6.280   6.330   2.963  1.2152  0.5475 -0.7163
  557SOL     OW 2569   1.586   3.080   1.435 -0.0908 -0.6359  0.2668
  557SOL    HW1 2570   1.498   3.106   1.396  0.2046 -0.1268 -0.0840
  557SOL    HW2 2571   1.644   3.161   1.443 -0.0829 -0.7595  1.6304
  558SOL     OW 2572   3.607   3.508   3.379  0.3889 -0.5842  0.2499
  558SOL    HW1 2573   3.631   3.604   3.361  1.2195  0.0021  3.7064
  558SOL    HW2 2574   3.517   3.504   3.422  0.2484 -1.3875 -0.1082
  559SOL     OW 2575   5.214   2.284   6.337  0.3237  0.2828 -0.7991
  559SOL    HW1 2576   5.118   2.280   6.311 -0.1758  2.0935  0.5955
  559SOL    HW2 2577   5.227   2.241   6.426  0.7413  0.3434 -0.8256
  560SOL     OW 2578   1.129   2.857   2.642  0.2504  0.6593  0.0016
  560SOL    HW1 2579   1.171   2.947   2.635 -0.7581  1.0784 -1.0812
  560SOL    HW2 2580   1.040   2.858   2.596 -1.1061 -0.1194  2.4402
  561SOL     OW 2581   5.585   1.922   2.018  0.3954 -0.8345  0.1177
  561SOL    HW1 2582   5.520   1.992   2.049  0.2043 -0.4778 -1.0116
  561SOL    HW2 2583   5.654   1.966   1.960 -0.6465 -1.7927 -1.9437
  562SOL     OW 2584   2.137   6.692   3.197 -0.1399 -0.2445 -0.1360
  562SOL    HW1 2585   2.070   6.727   3.263 -2.0141 -0.2469 -1.9126
  562SOL    HW2 2586   2.125   6.593   3.188  0.5843 -0.3495  0.0261
  563SOL     OW 2587   6.472   0.412   5.067  0.0893 -0.1237  0.3407
  563SOL    HW1 2588   6.567   0.397   5.094  0.2304  0.4915  0.2026
  563SOL    HW2 2589   6.457   0.372   4.976  0.3215  0.1178  0.1941
  564SOL     OW 2590   4.945   1.393   6.701  0.4673  0.5405  0.2006
  564SOL    HW1 2591   4.849   1.389   6.731  0.5614  0.9562  0.5585
  564SOL    HW2 2592   5.001   1.335   6.760  0.4677  0.4464  0.1084
  565SOL     OW 2593   2.949   3.503   4.078 -0.1332 -0.1408 -0.5022
  565SOL    HW1 2594   3.035   3.528   4.122  0.8595 -1.8201 -1.3487
  565SOL    HW2 2595   2.924   3.573   4.011  0.5704  0.3820 -0.2278
  566SOL     OW 2596   1.286   1.571   2.787  0.1347 -0.2420  0.0997
  566SOL    HW1 2597   1.196   1.574   2.742 -0.4915 -0.0326  1.3353
  566SOL    HW2 2598   1.336   1.655   2.768 -1.7265  1.6712  2.9379
  567SOL     OW 2599   0.820   4.128   6.279 -0.1310  0.2887  0.0607
  567SOL    HW1 2600   0.820   4.186   6.197 -1.9060  0.2695  0.0007
  567SOL    HW2 2601   0.854   4.037   6.254 -0.4922  0.3323 -0.6398
  568SOL     OW 2602   2.280   6.865   0.800  1.0107  0.0479  0.5970
  568SOL    HW1 2603   2.355   6.800   0.809 -0.2839 -1.4470  1.0402
  568SOL    HW2 2604   2.255   6.874   0.704  1.9075  0.7710  0.4154
  569SOL     OW 2605   6.263   5.613   5.229  0.5468 -0.9158 -0.5212
  569SOL    HW1 2606   6.201   5.626   5.306  0.3526 -0.7372 -0.7038
  569SOL    HW2 2607   6.314   5.528   5.241  1.8382 -0.0113  0.6938
  570SOL     OW 2608   2.881   1.208   5.861 -0.1301  0.0522  0.3704
  570SOL    HW1 2609   2.815   1.230   5.932 -0.0124  1.9726 -0.0438
  570SOL    HW2 2610   2.970   1.190   5.903 -0.0291  1.3077  0.7453
  571SOL     OW 2611   1.018   5.799   2.246 -0.1958  0.1742 -0.7393
  571SOL    HW1 2612   1.115   5.823   2.247 -0.3263  0.7667 -1.3417
  571SOL    HW2 2613   0.967   5.870   2.199 -0.8766 -0.3282 -0.7752
  572SOL     OW 2614   3.255   1.359   2.999 -0.1990 -0.7678  0.2437
  572SOL    HW1 2615   3.345   1.333   3.034 -0.1961 -1.4459 -0.2442
  572SOL    HW2 2616   3.214   1.427   3.059  0.9058  0.0226  0.1315
  573SOL     OW 2617   0.463   0.769   5.402 -0.0030 -0.5045  0.2758
  573SOL    HW1 2618   0.411   0.854   5.399 -0.7035 -0.9331 -0.3014
  573SOL    HW2 2619   0.418   0.704   5.463  0.1511 -0.6879  0.1972
  574SOL     OW 2620   1.787   1.280   5.677  0.1216 -0.3343 -0.3851
  574SOL    HW1 2621   1.867   1.240   5.631  0.5461 -1.3159  1.1155
  574SOL    HW2 2622   1.816   1.322   5.764 -1.0286 -1.0918  0.3927
  575SOL     OW 2623   3.891   6.167   0.241 -0.2081 -0.1846  0.3204
  575SOL    HW1 2624   3.792   6.163   0.255 -0.4383 -0.9443 -1.2888
  575SOL    HW2 2625   3.931   6.078   0.263  0.3149  0.4251  2.0237
  576SOL     OW 2626   6.154   0.648   4.430 -1.1677  0.8831 -0.0769
  576SOL    HW1 2627   6.208   0.570   4.398  1.0526  2.0389  0.6427
  576SOL    HW2 2628   6.069   0.616   4.470 -0.0859 -1.2216  0.6495
  577SOL     OW 2629   0.086   2.565   4.297 -0.4219  0.0591 -0.0498
  577SOL    HW1 2630   0.100   2.614   4.383  1.2717 -0.9962  0.3297
  577SOL    HW2 2631  -0.000   2.594   4.256  0.0690  2.6822  0.5662
  578SOL     OW 2632   3.601   4.065   0.681  0.0515 -0.4056  0.1039
  578SOL    HW1 2633   3.648   3.986   0.719 -0.6469 -0.3414  1.1368
  578SOL    HW2 2634   3.667   4.138   0.664  0.3977 -0.4577  1.1508
  579SOL     OW 2635   1.573   5.577   2.438  0.7673  1.1908  0.0847
  579SOL    HW1 2636   1.484   5.539   2.460  0.8550  1.3154  0.6755
  579SOL    HW2 2637   1.565   5.677   2.427  0.7752  1.1627 -0.1843
  580SOL     OW 2638   4.602   5.102   4.255 -0.5007  0.1507 -0.3360
  580SOL    HW1 2639   4.595   5.197   4.223 -0.1247  0.0030 -0.8819
  580SOL    HW2 2640   4.514   5.072   4.291 -1.1028  0.1690 -1.7286
  581SOL     OW 2641   2.630   2.412   4.122 -0.4917 -0.3289  0.1078
  581SOL    HW1 2642   2.567   2.335   4.115 -0.9057  0.0088  0.0834
  581SOL    HW2 2643   2.606   2.482   4.055 -0.7465  0.2604  0.7885
  582SOL     OW 2644   5.783   4.413   6.114 -0.5317  0.3063  0.3023
  582SOL    HW1 2645   5.826   4.498   6.081 -2.7031  1.5047  0.3372
  582SOL    HW2 2646   5.719   4.435   6.188 -0.7108 -1.4526  0.7003
  583SOL     OW 2647   1.329   5.350   4.404  0.0608 -0.2096  0.2649
  583SOL    HW1 2648   1.291   5.431   4.360  0.3143  0.5945  1.4568
  583SOL    HW2 2649   1.384   5.298   4.339  1.7255  1.7787  0.0124
  584SOL     OW 2650   3.841   0.088   4.431 -0.4229  0.3849  0.0510
  584SOL    HW1 2651   3.868   0.164   4.490  0.2478 -0.4582  0.8672
  584SOL    HW2 2652   3.907   0.080   4.356 -0.2362  0.3328  0.2189
  585SOL     OW 2653   4.838   6.464   2.386 -0.0733 -0.3854 -0.0316
  585SOL    HW1 2654   4.880   6.548   2.351  0.3799  0.2929  2.0361
  585SOL    HW2 2655   4.849   6.391   2.318  3.2341  0.1121 -0.1973
  586SOL     OW 2656   2.950   5.946   2.836  0.1810  0.4661  0.2412
  586SOL    HW1 2657   2.988   5.855   2.820  0.3296  0.8459 -1.8410
  586SOL    HW2 2658   2.925   5.988   2.748 -1.4732  1.7670  1.2758
  587SOL     OW 2659   5.790   6.729   2.232  0.0021 -0.2114 -0.3348
  587SOL    HW1 2660   5.844   6.773   2.160 -1.2353  1.2935 -0.3735
  587SOL    HW2 2661   5.737   6.654   2.192 -0.9782  0.8624 -1.1128
  588SOL     OW 2662   0.928   4.610   2.362  0.6191  0.2838  0.1463
  588SOL    HW1 2663   0.939   4.512   2.350  0.3274  0.2970 -0.2539
  588SOL    HW2 2664   0.830   4.632   2.365  0.5379  0.9802 -3.4696
  589SOL     OW 2665   3.710   5.298   4.799  0.2022 -0.5304  0.5358
  589SOL    HW1 2666   3.805   5.325   4.815 -0.0506  0.9211 -0.2773
  589SOL    HW2 2667   3.652   5.334   4.872  0.2985 -1.7433  1.2445
  590SOL     OW 2668   1.113   0.621   6.776  0.1299  0.3365  0.2279
  590SOL    HW1 2669   1.077   0.697   6.721  0.4068  2.2269  2.4852
  590SOL    HW2 2670   1.196   0.652   6.824  1.7324 -2.2395 -0.7055
  591SOL     OW 2671   4.293   1.508   2.966 -0.4032 -0.4567  0.1211
  591SOL    HW1 2672   4.245   1.461   3.040 -0.0219 -0.8906  0.1037
  591SOL    HW2 2673   4.343   1.440   2.912 -0.2057 -0.0743 -0.1761
  592SOL     OW 2674   4.938   3.304   4.059  0.3847  0.1530 -0.2461
  592SOL    HW1 2675   4.882   3.228   4.090  0.1399  0.4144 -0.0421
  592SOL    HW2 2676   4.991   3.341   4.135  0.5412  0.1558 -0.3547
  593SOL     OW 2677   1.325   6.083   6.684  0.2739  0.0096 -0.1610
  593SOL    HW1 2678   1.280   6.051   6.601  0.0741 -1.8070  0.6111
  593SOL    HW2 2679   1.291   6.033   6.763  1.4201  0.7594  0.8604
  594SOL     OW 2680   2.967   1.503   3.633 -0.1353 -0.1571 -0.4821
  594SOL    HW1 2681   3.064   1.507   3.607  0.4007 -1.4353  1.1563
  594SOL    HW2 2682   2.914   1.464   3.557  0.9034 -1.0501 -0.7700
  595SOL     OW 2683   1.027   3.485   2.442 -0.4708  0.4350  0.2354
  595SOL    HW1 2684   1.010   3.554   2.512 -0.3748  0.6996  0.0019
  595SOL    HW2 2685   1.005   3.523   2.352 -1.2792 -0.1291  0.1747
  596SOL     OW 2686   0.667   6.098   6.319  0.0761  0.2459 -0.1706
  596SOL    HW1 2687   0.665   6.186   6.366  1.2687 -0.1067  0.5866
  596SOL    HW2 2688   0.757   6.082   6.280  0.3046 -1.2090  0.8681
  597SOL     OW 2689   4.049   6.909   6.183  0.0442  0.2681  0.1284
  597SOL    HW1 2690   4.141   6.927   6.219  1.0585  0.4271 -2.3556
  597SOL    HW2 2691   4.014   6.824   6.223  1.8275 -0.5063  0.1334
  598SOL     OW 2692   3.284   3.739   2.430  0.0878 -0.0416  0.3137
  598SOL    HW1 2693   3.270   3.824   2.380  1.1955 -0.0679 -0.0724
  598SOL    HW2 2694   3.197   3.690   2.439 -0.4962  0.9634  0.2520
  599SOL     OW 2695   1.452   5.933   2.643  0.0585  0.6435  0.2406
  599SOL    HW1 2696   1.512   5.901   2.570 -0.7017  1.1607 -0.6209
  599SOL    HW2 2697   1.470   6.030   2.661 -1.4373  1.1797 -0.9760
  600SOL     OW 2698   0.641   4.570   4.413 -0.3633 -0.0295 -0.4888
  600SOL    HW1 2699   0.665   4.525   4.327 -0.3537  2.2677 -1.7668
  600SOL    HW2 2700   0.701   4.539   4.485  1.0227 -0.4798 -1.7910
  601SOL     OW 2701   5.709   0.896   4.012 -0.1767 -0.1393  0.3252
  601SOL    HW1 2702   5.784   0.838   4.043 -0.7069 -0.0919  1.7840
  601SOL    HW2 2703   5.686   0.874   3.917 -0.3321 -2.2970  0.8122
  602SOL     OW 2704   0.178   1.209   3.506 -0.0789  0.9307  0.3044
  602SOL    HW1 2705   0.080   1.192   3.515  0.1541 -0.0088  1.2723
  602SOL    HW2 2706   0.216   1.149   3.436 -0.0724  0.7940  0.4247
  603SOL     OW 2707   0.891   0.675   5.189 -0.4576 -0.2445 -0.4704
  603SOL    HW1 2708   0.939   0.736   5.127 -1.8820  0.0901 -1.3034
  603SOL    HW2 2709   0.898   0.710   5.282 -0.1209  0.4521 -0.7497
  604SOL     OW 2710   5.026   2.066   0.579 -0.2439 -0.0215  0.1831
  604SOL    HW1 2711   4.978   2.067   0.667  0.0747  0.0054  0.3585
  604SOL    HW2 2712   5.086   1.986   0.575  1.7268  1.3189  1.0879
  605SOL     OW 2713   2.788   5.881   2.243  0.0058  0.1168  0.1954
  605SOL    HW1 2714   2.803   5.805   2.305  0.7347  0.2284  0.1656
  605SOL    HW2 2715   2.748   5.848   2.158 -0.3902 -0.1246  0.4759
  606SOL     OW 2716   2.371   6.519   4.005  0.1685 -0.4896  0.1514
  606SOL    HW1 2717   2.354   6.617   4.010  0.1577 -0.5661  2.0485
  606SOL    HW2 2718   2.345   6.486   3.914 -1.9419  0.8542  0.1998
  607SOL     OW 2719   6.889   3.792   5.576 -0.4122  0.8123  0.1517
  607SOL    HW1 2720   6.854   3.783   5.669 -1.0350  1.5682  0.0007
  607SOL    HW2 2721   6.984   3.760   5.573 -1.0660 -1.3403  0.5483
  608SOL     OW 2722   1.941   1.361   1.073  0.4366 -0.3310  0.0685
  608SOL    HW1 2723   1.912   1.290   1.137  2.2779 -0.8286  0.3967
  608SOL    HW2 2724   1.939   1.450   1.119  0.8134 -0.5547  0.5272
  609SOL     OW 2725   3.027   3.877   3.558  0.1007 -0.0497  0.1930
  609SOL    HW1 2726   2.961   3.811   3.523  0.4988 -0.2380 -0.2110
  609SOL    HW2 2727   3.070   3.926   3.482  0.5204 -0.0209  0.4417
  610SOL     OW 2728   0.875   2.082   2.518  0.5507 -0.0390  0.2929
  610SOL    HW1 2729   0.868   2.107   2.615  0.6529  0.4367  0.1822
  610SOL    HW2 2730   0.882   2.165   2.463 -0.4439 -0.2664 -0.2027
  611SOL     OW 2731   3.900   6.488   5.688 -0.2439  0.0151  0.0735
  611SOL    HW1 2732   3.903   6.432   5.606 -2.3571  2.8847 -2.1547
  611SOL    HW2 2733   3.916   6.430   5.768 -1.1730 -3.5152 -2.0650
  612SOL     OW 2734   3.965   0.611   5.522 -0.3116 -0.7507 -0.6204
  612SOL    HW1 2735   3.996   0.543   5.456  1.1774 -0.3992 -0.3301
  612SOL    HW2 2736   4.044   0.654   5.565 -1.2376  0.0611  0.3418
  613SOL     OW 2737   4.505   6.170   4.808 -0.6162 -0.0708 -0.5606
  613SOL    HW1 2738   4.515   6.078   4.768  0.3275 -0.3547  0.2788
  613SOL    HW2 2739   4.543   6.238   4.744  1.6339 -0.5988  0.1090
  614SOL     OW 2740   3.799   5.619   6.772  0.2682 -0.2379 -0.0601
  614SOL    HW1 2741   3.762   5.556   6.841  0.6542 -0.4360 -0.0303
  614SOL    HW2 2742   3.767   5.711   6.791  1.5724 -0.0104  1.3049
  615SOL     OW 2743   1.223   3.855   5.071  0.3919 -0.5658 -0.6612
  615SOL    HW1 2744   1.175   3.768   5.062 -0.3285 -0.2386 -0.0952
  615SOL    HW2 2745   1.161   3.924   5.110  1.9350 -0.7790  2.5363
  616SOL     OW 2746   0.302   2.974   4.456  0.1295  0.5126 -0.3573
  616SOL    HW1 2747   0.400   2.967   4.475  0.1604  1.7337  0.0315
  616SOL    HW2 2748   0.251   2.961   4.541 -0.0539 -0.0191 -0.5413
  617SOL     OW 2749   1.572   7.015   5.854 -0.4443  0.6406  0.1244
  617SOL    HW1 2750   1.548   7.012   5.951 -2.0672  0.3552 -0.2538
  617SOL    HW2 2751   1.512   6.953   5.803 -0.8689  2.1558 -1.3027
  618SOL     OW 2752   1.943   6.964   2.308 -0.5846 -1.0188 -0.0518
  618SOL    HW1 2753   1.886   6.882   2.304 -2.0710 -0.1409  1.6418
  618SOL    HW2 2754   1.991   6.967   2.396 -0.7273  0.0406 -0.0024
  619SOL     OW 2755   3.497   2.533   1.233  0.4439 -0.2168  0.0600
  619SOL    HW1 2756   3.588   2.574   1.228  0.2279  0.2139 -0.4902
  619SOL    HW2 2757   3.454   2.537   1.143  0.5029 -1.8776 -0.0621
  620SOL     OW 2758   6.340   2.426   1.689 -0.3797  0.8964 -0.8269
  620SOL    HW1 2759   6.291   2.487   1.628 -0.8695  0.0003 -1.3501
  620SOL    HW2 2760   6.439   2.439   1.678 -0.4733  1.1190 -1.4127
  621SOL     OW 2761   4.338   6.550   0.645  0.2108  0.2676 -0.6172
  621SOL    HW1 2762   4.393   6.596   0.715  3.1540  1.2333 -3.3630
  621SOL    HW2 2763   4.321   6.612   0.569 -0.6919 -1.4829 -1.9231
  622SOL     OW 2764   1.426   0.890   5.776 -0.3142 -0.0250  0.9102
  622SOL    HW1 2765   1.495   0.961   5.762 -1.3399  0.9420  0.6460
  622SOL    HW2 2766   1.392   0.859   5.687 -1.0472  0.3418  1.0567
  623SOL     OW 2767   6.523   4.943   5.999  0.0172  0.3693  0.3598
  623SOL    HW1 2768   6.478   4.921   6.086  0.6603 -0.9757  0.3721
  623SOL    HW2 2769   6.610   4.989   6.018  0.2599 -0.1192  0.4384
  624SOL     OW 2770   0.066   2.799   2.983  0.0142 -0.0933  0.4232
  624SOL    HW1 2771  -0.030   2.777   2.964 -0.1544  0.6784  0.3452
  624SOL    HW2 2772   0.098   2.744   3.060 -0.6901  0.1279  0.8817
  625SOL     OW 2773   1.996   1.724   0.904 -0.4662  0.8070  0.4022
  625SOL    HW1 2774   2.002   1.714   1.003 -2.4072  0.5191  0.5220
  625SOL    HW2 2775   1.906   1.761   0.879  0.5209  2.3099 -1.1674
  626SOL     OW 2776   5.285   5.738   5.938 -0.2938  0.3679 -0.1827
  626SOL    HW1 2777   5.331   5.725   6.026 -0.2707 -0.9419 -0.3766
  626SOL    HW2 2778   5.291   5.835   5.912  0.7832  0.5466  0.6511
  627SOL     OW 2779   2.744   5.374   6.131 -0.7602  0.6348 -0.0484
  627SOL    HW1 2780   2.702   5.453   6.085 -2.7039 -1.3756 -1.9612
  627SOL    HW2 2781   2.814   5.335   6.072 -1.6294 -0.5589 -0.3384
  628SOL     OW 2782   4.364   2.391   4.789 -0.4028  0.1324  0.4372
  628SOL    HW1 2783   4.295   2.409   4.859 -0.8682 -0.9493  0.2744
  628SOL    HW2 2784   4.338   2.437   4.704 -0.6367  0.1678  0.5267
  629SOL     OW 2785   1.274   1.005   2.110  0.2510 -0.0128  0.0344
  629SOL    HW1 2786   1.204   1.019   2.180 -0.5754 -2.2904 -0.2549
  629SOL    HW2 2787   1.354   0.961   2.151  0.3730  0.0136 -0.1707
  630SOL     OW 2788   4.448   2.389   3.131 -0.1292 -0.1200  0.2675
  630SOL    HW1 2789   4.364   2.335   3.127  0.0717 -0.4214  0.0899
  630SOL    HW2 2790   4.461   2.437   3.045  0.0863 -0.3885  0.1480
  631SOL     OW 2791   4.214   1.509   5.810 -0.0537 -0.2565 -0.0598
  631SOL    HW1 2792   4.309   1.477   5.806 -0.6634 -2.1497 -0.0399
  631SOL    HW2 2793   4.199   1.555   5.897  0.5850 -0.8182  0.3603
  632SOL     OW 2794   2.005   0.479   0.666 -0.4317 -0.1456 -0.2859
  632SOL    HW1 2795   2.100   0.448   0.657 -0.4983 -0.3708 -0.2273
  632SOL    HW2 2796   1.969   0.502   0.575 -0.3985 -0.2944 -0.3374
  633SOL     OW 2797   0.256   2.259   3.664  0.8555 -0.0597 -0.4246
  633SOL    HW1 2798   0.250   2.207   3.579 -1.0346  0.2229 -0.5283
  633SOL    HW2 2799   0.186   2.227   3.728  2.2839 -0.3080  1.0813
  634SOL     OW 2800   2.000   5.437   1.600 -0.1557  0.1798 -0.2428
  634SOL    HW1 2801   1.964   5.423   1.508  0.3854  2.1399 -0.8065
  634SOL    HW2 2802   1.930   5.413   1.667 -0.5032 -1.4387 -1.1236
  635SOL     OW 2803   3.491   6.837   2.173  0.4020  0.2948 -0.3536
  635SOL    HW1 2804   3.461   6.898   2.099 -1.0242 -0.0738 -0.1270
  635SOL    HW2 2805   3.419   6.770   2.191  1.0419 -0.0954  0.8638
  636SOL     OW 2806   4.168   5.610   6.988  0.1721  0.5606  0.5911
  636SOL    HW1 2807   4.229   5.679   6.949 -1.5671  2.1195  0.4863
  636SOL    HW2 2808   4.104   5.654   7.050 -1.9401 -0.6964 -0.5861
  637SOL     OW 2809   6.023   5.615   0.692 -0.2965  0.1002 -0.5917
  637SOL    HW1 2810   5.957   5.542   0.710  1.5284 -1.9096 -1.6069
  637SOL    HW2 2811   6.082   5.627   0.772  1.2346 -1.6311 -1.3925
  638SOL     OW 2812   3.042   1.741   1.634  0.5190 -0.0550  0.4594
  638SOL    HW1 2813   3.057   1.806   1.560 -2.8967  0.8798  0.4109
  638SOL    HW2 2814   3.041   1.790   1.722  0.3026 -0.4408  0.6758
  639SOL     OW 2815   3.560   4.161   1.901  0.1621  0.3740 -0.2630
  639SOL    HW1 2816   3.541   4.243   1.847  1.1466  1.3806  0.8541
  639SOL    HW2 2817   3.478   4.135   1.952 -1.2454 -1.4490 -3.2244
  640SOL     OW 2818   3.606   2.442   6.107 -0.1413  0.2729  0.3591
  640SOL    HW1 2819   3.567   2.526   6.069  1.6199  0.7768 -0.4144
  640SOL    HW2 2820   3.576   2.364   6.052  0.6291  0.7579 -0.7823
  641SOL     OW 2821   2.499   0.226   4.673 -0.0986 -0.2059 -0.4945
  641SOL    HW1 2822   2.556   0.283   4.615  2.4961 -0.5079  1.5796
  641SOL    HW2 2823   2.461   0.281   4.747 -1.4703 -0.2930 -1.0982
  642SOL     OW 2824   1.016   5.341   5.729  0.4202 -0.0091 -0.6773
  642SOL    HW1 2825   0.961   5.361   5.648  0.9253 -1.3940 -1.3808
  642SOL    HW2 2826   1.038   5.244   5.732 -1.3265 -0.4394  2.2130
  643SOL     OW 2827   5.341   6.204   6.493 -0.0746 -0.1413  0.0907
  643SOL    HW1 2828   5.246   6.188   6.520 -0.1108  2.2118  1.6436
  643SOL    HW2 2829   5.401   6.182   6.570  0.8725 -2.8819 -1.2868
  644SOL     OW 2830   2.076   4.960   1.101  0.2451  0.0631 -0.3434
  644SOL    HW1 2831   1.985   4.919   1.109  1.1019 -1.8654 -0.1482
  644SOL    HW2 2832   2.138   4.897   1.056  1.3202  1.6878 -1.2583
  645SOL     OW 2833   6.335   3.594   1.333 -0.1274  0.0934  0.4978
  645SOL    HW1 2834   6.252   3.567   1.383 -1.9504  1.2146 -1.7532
  645SOL    HW2 2835   6.352   3.691   1.348 -1.0029  0.5729 -1.3597
  646SOL     OW 2836   1.086   3.453   2.992 -0.3062 -0.2162  0.3393
  646SOL    HW1 2837   1.175   3.431   3.031  0.0349  0.0725 -0.2667
  646SOL    HW2 2838   1.038   3.518   3.052 -0.2676 -0.6479  0.8483
  647SOL     OW 2839   5.158   5.215   3.709  0.5753 -0.1714 -0.0803
  647SOL    HW1 2840   5.147   5.309   3.743  2.1873  0.6083 -1.5723
  647SOL    HW2 2841   5.089   5.157   3.752 -0.5576  1.7003  0.8060
  648SOL     OW 2842   4.428   2.231   2.355 -0.1340 -0.3836 -0.2307
  648SOL    HW1 2843   4.382   2.255   2.270 -1.2797 -0.6675  0.2906
  648SOL    HW2 2844   4.449   2.133   2.355 -1.1844 -0.6321  0.2656
  649SOL     OW 2845   4.204   4.169   1.657  0.4663  0.3457 -0.0121
  649SOL    HW1 2846   4.133   4.110   1.697 -1.1727  1.3231 -1.3452
  649SOL    HW2 2847   4.279   4.181   1.723 -0.0350 -1.6555  1.0049
  650SOL     OW 2848   4.981   5.226   0.224 -0.1796 -0.1045 -0.2152
  650SOL    HW1 2849   5.044   5.223   0.146 -0.4263 -1.8910 -0.3884
  650SOL    HW2 2850   4.943   5.318   0.232 -1.2298 -0.1853 -3.1061
  651SOL     OW 2851   6.879   5.224   0.422 -0.0952 -0.5682 -0.4740
  651SOL    HW1 2852   6.856   5.289   0.494 -0.2757  0.3830 -1.3680
  651SOL    HW2 2853   6.864   5.131   0.455 -0.8943 -0.1226  0.4665
  652SOL     OW 2854   4.900   3.776   2.272  0.8187  1.0111  0.2258
  652SOL    HW1 2855   4.864   3.766   2.365  0.2469  0.3868 -0.0542
  652SOL    HW2 2856   4.988   3.822   2.275  2.2797 -1.6268  1.3966
  653SOL     OW 2857   3.965   5.305   4.051  0.5223  0.2389 -0.1092
  653SOL    HW1 2858   4.015   5.387   4.080  0.1259  0.8827 -1.1787
  653SOL    HW2 2859   4.026   5.226   4.055  1.5256  0.9341 -1.0040
  654SOL     OW 2860   5.534   5.383   6.778  0.3087 -0.2155 -0.4271
  654SOL    HW1 2861   5.545   5.482   6.782  1.0706 -0.2891 -0.5532
  654SOL    HW2 2862   5.500   5.349   6.866  1.5407 -0.0111  0.1493
  655SOL     OW 2863   1.883   2.693   6.369  0.0188  0.7606  0.0303
  655SOL    HW1 2864   1.942   2.743   6.433 -0.8326  2.7606 -0.6576
  655SOL    HW2 2865   1.900   2.726   6.276  0.1251 -0.9892 -0.5972
  656SOL     OW 2866   1.456   6.511   0.186  0.5656 -0.3408  0.7334
  656SOL    HW1 2867   1.460   6.573   0.107 -0.4428 -0.4165  0.6124
  656SOL    HW2 2868   1.473   6.418   0.156 -1.7499 -0.6682  0.2171
  657SOL     OW 2869   3.810   0.681   6.912  0.3890  0.0845  0.2739
  657SOL    HW1 2870   3.745   0.666   6.837  1.8012 -2.2074 -0.5921
  657SOL    HW2 2871   3.760   0.705   6.995 -1.4373  0.0379 -0.7649
  658SOL     OW 2872   4.805   4.777   1.531  0.0709 -0.0966 -0.0026
  658SOL    HW1 2873   4.714   4.767   1.572  0.0908  1.4020  0.4542
  658SOL    HW2 2874   4.822   4.873   1.511  2.3160 -0.0693  1.6833
  659SOL     OW 2875   4.269   2.440   6.974 -0.5033  0.7141 -0.2004
  659SOL    HW1 2876   4.226   2.350   6.965 -2.4399  1.4626  0.8905
  659SOL    HW2 2877   4.204   2.511   6.946  0.4908  1.8496  0.2791
  660SOL     OW 2878   2.096   6.951   2.608 -0.6571 -0.3119 -0.1205
  660SOL    HW1 2879   2.060   6.944   2.701  1.2757  1.0298  0.7848
  660SOL    HW2 2880   2.091   7.046   2.577 -0.7042 -0.6433 -1.1539
  661SOL     OW 2881   6.783   4.960   1.894 -0.2790  0.1798 -0.3543
  661SOL    HW1 2882   6.815   4.895   1.963 -1.4368  1.0902  1.1142
  661SOL    HW2 2883   6.802   4.925   1.803 -0.9567 -2.2651  0.3849
  662SOL     OW 2884   3.432   1.703   6.064 -0.0849 -0.3325  0.4983
  662SOL    HW1 2885   3.385   1.640   6.001  0.7058  1.2054 -1.7318
  662SOL    HW2 2886   3.516   1.660   6.098 -2.4434 -2.8027  3.9073
  663SOL     OW 2887   3.708   3.871   6.486  0.1752 -0.1548 -0.0001
  663SOL    HW1 2888   3.680   3.787   6.531  3.1703 -1.1363  0.3091
  663SOL    HW2 2889   3.712   3.856   6.387 -0.8579  0.1559 -0.0917
  664SOL     OW 2890   5.409   6.728   0.131 -0.2416 -0.1514 -0.0241
  664SOL    HW1 2891   5.432   6.793   0.058  1.1037  0.7167  1.1192
  664SOL    HW2 2892   5.310   6.721   0.139 -0.4126  1.0643 -0.7794
  665SOL     OW 2893   2.102   6.006   1.855  0.5014 -0.0850  0.2407
  665SOL    HW1 2894   2.144   6.085   1.901 -2.4706  2.4605 -1.0917
  665SOL    HW2 2895   2.163   5.975   1.781  1.1801  1.8987 -0.1038
  666SOL     OW 2896   3.946   1.852   3.093  0.2347  0.1281  0.3490
  666SOL    HW1 2897   3.867   1.876   3.036 -1.0702  0.2633  2.1225
  666SOL    HW2 2898   3.921   1.860   3.189  1.6033 -2.4147  1.0042
  667SOL     OW 2899   5.037   6.735   0.506 -0.4208  0.5291 -0.2037
  667SOL    HW1 2900   5.088   6.768   0.586  0.3960 -0.3247 -0.3558
  667SOL    HW2 2901   4.984   6.811   0.468  0.7370  1.4681 -0.0412
  668SOL     OW 2902   2.923   2.663   6.327 -0.2188 -0.5017 -0.2180
  668SOL    HW1 2903   2.884   2.610   6.402 -0.2693  0.4495  0.4468
  668SOL    HW2 2904   2.968   2.744   6.363  1.6193 -1.0956 -1.0531
  669SOL     OW 2905   6.554   0.283   3.249  0.5930  0.3609  0.5585
  669SOL    HW1 2906   6.575   0.191   3.216 -0.6396 -0.6971  2.5107
  669SOL    HW2 2907   6.584   0.292   3.344  1.0010  2.1297  0.3004
  670SOL     OW 2908   5.176   0.746   1.701 -0.3088  0.0827  0.1195
  670SOL    HW1 2909   5.139   0.704   1.784 -1.7965 -2.1860 -1.5788
  670SOL    HW2 2910   5.259   0.698   1.673 -1.6051 -1.3549 -1.4253
  671SOL     OW 2911   1.091   5.737   1.875  0.6918  0.3589 -0.6170
  671SOL    HW1 2912   1.023   5.694   1.934  1.0147  1.1090  0.3260
  671SOL    HW2 2913   1.074   5.835   1.871  0.7320  0.3284 -1.7123
  672SOL     OW 2914   0.569   0.665   0.197 -0.0656  0.4732  0.7873
  672SOL    HW1 2915   0.476   0.675   0.163  0.5570  0.8463 -0.8691
  672SOL    HW2 2916   0.620   0.749   0.181  0.9760 -0.2269  0.3117
  673SOL     OW 2917   5.469   7.000   6.252 -0.0067 -0.3051 -0.3083
  673SOL    HW1 2918   5.511   7.029   6.166  1.4826 -1.4087  0.0060
  673SOL    HW2 2919   5.502   6.909   6.276 -2.6092 -1.2503  0.0014
  674SOL     OW 2920   4.971   5.743   6.026 -0.1555 -0.1044 -0.2938
  674SOL    HW1 2921   5.044   5.697   5.975  0.4319 -0.2632  0.6747
  674SOL    HW2 2922   4.993   5.743   6.124 -0.3807  1.8083 -0.2079
  675SOL     OW 2923   1.202   6.346   2.215 -0.7869 -0.1315 -0.5030
  675SOL    HW1 2924   1.102   6.340   2.208 -0.8441  0.0347  0.0896
  675SOL    HW2 2925   1.231   6.438   2.190 -0.8554  0.0320 -0.0047
  676SOL     OW 2926   6.947   3.970   0.430 -0.4211 -0.3171 -0.3826
  676SOL    HW1 2927   6.939   4.069   0.420  0.3258 -0.2085 -0.0006
  676SOL    HW2 2928   7.008   3.935   0.359 -0.6288 -0.4929 -0.4732
  677SOL     OW 2929   4.017   6.488   1.010  0.2087  0.8189 -0.4551
  677SOL    HW1 2930   3.972   6.419   1.066 -1.9428  0.9071 -1.9600
  677SOL    HW2 2931   3.953   6.560   0.986  1.0364  0.8679 -2.8699
  678SOL     OW 2932   1.315   5.209   3.764 -0.1925 -0.4949  0.4344
  678SOL    HW1 2933   1.413   5.204   3.785 -0.1530 -1.8252 -0.0072
  678SOL    HW2 2934   1.299   5.177   3.671 -0.9150  0.9961  0.0118
  679SOL     OW 2935   5.979   0.795   6.687  0.0857  0.1490  0.3573
  679SOL    HW1 2936   5.906   0.750   6.739  0.0998  0.0210  0.2686
  679SOL    HW2 2937   5.989   0.889   6.717 -1.7239  0.9190 -1.2661
  680SOL     OW 2938   5.597   1.099   3.143 -0.1181  0.3134  0.7007
  680SOL    HW1 2939   5.546   1.018   3.171 -0.7105 -0.3176 -1.9139
  680SOL    HW2 2940   5.643   1.139   3.222 -0.4925 -2.0766  2.2191
  681SOL     OW 2941   4.396   4.562   4.022 -0.3972  0.0431 -0.5008
  681SOL    HW1 2942   4.399   4.514   4.110  2.3575 -1.5618 -1.3452
  681SOL    HW2 2943   4.438   4.505   3.951 -1.8218  1.6071 -2.7285
  682SOL     OW 2944   6.405   2.433   3.586  0.3103 -0.4721 -0.0777
  682SOL    HW1 2945   6.405   2.464   3.491 -0.1646  0.5306  0.2403
  682SOL    HW2 2946   6.311   2.415   3.616  0.1185  1.9153  1.0246
  683SOL     OW 2947   0.968   5.628   0.913  0.3348 -0.1575  0.3064
  683SOL    HW1 2948   1.017   5.681   0.983 -2.2764 -1.2321  3.1919
  683SOL    HW2 2949   0.949   5.536   0.948 -2.0170 -0.4064 -1.3830
  684SOL     OW 2950   0.500   4.293   6.733 -0.2095 -0.7962 -0.5345
  684SOL    HW1 2951   0.465   4.206   6.700  0.4625 -0.9109 -0.9712
  684SOL    HW2 2952   0.455   4.317   6.819 -1.2869 -0.9677 -1.0372
  685SOL     OW 2953   4.288   4.952   2.969  0.1011 -0.1462 -0.0893
  685SOL    HW1 2954   4.344   4.964   2.886  0.0552  0.3703 -0.0461
  685SOL    HW2 2955   4.207   4.898   2.947  0.1757 -0.1536 -0.3472
  686SOL     OW 2956   2.711   1.118   5.654  0.5269  0.2712 -0.0402
  686SOL    HW1 2957   2.775   1.164   5.716 -0.8678  1.9934  0.2044
  686SOL    HW2 2958   2.659   1.186   5.603 -1.4626 -1.0168  0.1248
  687SOL     OW 2959   0.503   6.357   5.798 -0.0218  1.1254  0.2138
  687SOL    HW1 2960   0.484   6.265   5.761  0.8730  1.9204 -2.4760
  687SOL    HW2 2961   0.416   6.406   5.809 -0.3489  0.8807 -1.0631
  688SOL     OW 2962   4.270   4.005   1.013  0.1958  0.0671  0.0018
  688SOL    HW1 2963   4.225   4.043   0.932  0.4740  1.1374  0.3423
  688SOL    HW2 2964   4.292   3.908   0.996 -0.7582 -0.0289 -0.7697
  689SOL     OW 2965   3.135   0.373   6.473 -0.4002  0.6189  0.9501
  689SOL    HW1 2966   3.191   0.455   6.458  0.7237  0.0365  1.7863
  689SOL    HW2 2967   3.133   0.351   6.571  1.4132 -1.7380  0.5436
  690SOL     OW 2968   4.757   4.033   2.644  0.4742 -0.4738 -0.0092
  690SOL    HW1 2969   4.772   3.954   2.585  1.8873  0.2334 -0.6380
  690SOL    HW2 2970   4.702   4.101   2.595 -0.0708 -0.7238  0.2448
  691SOL     OW 2971   0.118   0.487   4.088  0.1422 -0.2996 -0.0828
  691SOL    HW1 2972   0.096   0.525   3.998  0.4946  0.2716  0.0672
  691SOL    HW2 2973   0.213   0.507   4.110 -0.3830  0.9865  1.1212
  692SOL     OW 2974   1.830   6.552   2.650  0.3508 -0.7846  0.5925
  692SOL    HW1 2975   1.846   6.580   2.555  0.7385 -1.4257  0.4686
  692SOL    HW2 2976   1.757   6.484   2.653 -0.0967 -0.3073  0.8251
  693SOL     OW 2977   5.036   4.423   1.829 -0.5496 -0.0842  0.3329
  693SOL    HW1 2978   5.054   4.522   1.837  0.9234 -0.4296  1.9377
  693SOL    HW2 2979   5.009   4.402   1.735  2.0180  1.4328 -0.8720
  694SOL     OW 2980   2.944   5.969   4.075  0.4226  0.2020 -0.1197
  694SOL    HW1 2981   2.954   5.883   4.026 -0.0690 -0.3572  0.7381
  694SOL    HW2 2982   3.033   6.014   4.084  0.2965  1.3319 -3.2495
  695SOL     OW 2983   6.082   0.302   4.380  0.1564  0.1277  0.2580
  695SOL    HW1 2984   6.140   0.257   4.449  0.8339  0.4270 -0.0991
  695SOL    HW2 2985   6.141   0.346   4.312 -0.5102 -0.5946 -0.8027
  696SOL     OW 2986   6.997   5.746   6.876 -0.3988  0.2533 -0.0098
  696SOL    HW1 2987   6.946   5.675   6.925 -2.0607  1.2448 -0.2122
  696SOL    HW2 2988   6.978   5.737   6.778  0.9826 -0.2316 -0.2489
  697SOL     OW 2989   0.060   5.961   4.128 -0.8315 -0.1069  0.5363
  697SOL    HW1 2990   0.112   6.023   4.069 -3.1325  0.2939 -1.2366
  697SOL    HW2 2991   0.061   5.996   4.222  2.5233 -0.5043  0.7727
  698SOL     OW 2992   0.351   2.148   0.543 -0.2129  0.2668 -0.5073
  698SOL    HW1 2993   0.441   2.154   0.499  0.3892 -0.5453  0.5590
  698SOL    HW2 2994   0.280   2.136   0.473  0.6044 -0.0507 -1.3033
  699SOL     OW 2995   3.535   2.914   0.483  0.2845  0.0145  0.2121
  699SOL    HW1 2996   3.539   2.860   0.567 -0.4239 -1.4460 -0.6499
  699SOL    HW2 2997   3.622   2.906   0.435 -0.3556 -1.8416 -0.7460
  700SOL     OW 2998   4.322   1.002   5.797  0.8162  0.0793 -0.2027
  700SOL    HW1 2999   4.239   1.005   5.742 -0.2019 -1.0643  1.1901
  700SOL    HW2 3000   4.317   1.069   5.871  3.4351  3.7489 -2.9778
  701SOL     OW 3001   5.012   5.319   1.114 -0.4652 -0.3103 -0.1200
  701SOL    HW1 3002   5.015   5.398   1.174 -2.4300  0.0118 -0.3884
  701SOL    HW2 3003   5.063   5.243   1.155  0.4907  0.7264  0.6500
  702SOL     OW 3004   3.291   0.795   5.687 -0.4204 -0.1843 -0.2539
  702SOL    HW1 3005   3.279   0.729   5.613  0.0936 -0.4184 -0.1347
  702SOL    HW2 3006   3.202   0.833   5.712 -0.9216 -1.7541  0.5239
  703SOL     OW 3007   3.246   1.121   1.185  0.0815 -0.5255  0.0077
  703SOL    HW1 3008   3.299   1.162   1.259 -0.3798 -0.4402  0.3000
  703SOL    HW2 3009   3.307   1.081   1.118  0.5100 -0.5619  0.4132
  704SOL     OW 3010   4.496   6.762   0.779 -1.2647 -0.3083 -0.4715
  704SOL    HW1 3011   4.594   6.750   0.763 -0.8558  0.9393  0.8345
  704SOL    HW2 3012   4.464   6.842   0.730 -0.5191  2.1174  2.6848
  705SOL     OW 3013   5.900   6.146   5.913 -0.0531  0.0613 -0.2093
  705SOL    HW1 3014   5.996   6.122   5.895 -0.1750  0.3763 -1.3907
  705SOL    HW2 3015   5.847   6.063   5.930  0.1920 -0.2323 -0.8360
  706SOL     OW 3016   2.491   1.477   4.837 -0.5664  0.2868  0.5361
  706SOL    HW1 3017   2.553   1.554   4.850 -0.2224  0.3164 -1.0976
  706SOL    HW2 3018   2.411   1.506   4.785 -0.0703 -0.5907 -0.7656
  707SOL     OW 3019   2.002   6.075   4.122  0.1028  0.3031  0.1264
  707SOL    HW1 3020   2.027   6.172   4.126  3.0499 -0.3670  0.5371
  707SOL    HW2 3021   1.956   6.050   4.207 -1.3894  1.4541 -0.2915
  708SOL     OW 3022   2.820   6.817   4.562  0.0973  0.5252 -0.1568
  708SOL    HW1 3023   2.732   6.865   4.566 -0.0330  0.2171  0.8092
  708SOL    HW2 3024   2.831   6.759   4.643  0.0371 -1.4608 -1.4731
  709SOL     OW 3025   6.818   6.592   1.011  0.2174 -0.2332 -0.1160
  709SOL    HW1 3026   6.735   6.549   1.046  0.8049 -1.8426 -0.6154
  709SOL    HW2 3027   6.852   6.541   0.933  2.3540 -0.3706  0.8192
  710SOL     OW 3028   4.907   3.941   3.365 -0.1091 -0.4654  0.1263
  710SOL    HW1 3029   4.831   4.001   3.390 -0.2710  1.2788 -3.8675
  710SOL    HW2 3030   4.993   3.988   3.382 -0.0379 -0.8216  0.8169
  711SOL     OW 3031   0.095   7.010   2.033 -0.5019 -0.5847  0.1594
  711SOL    HW1 3032   0.192   6.987   2.036 -0.2208  0.5447  0.0691
  711SOL    HW2 3033   0.047   6.946   1.972 -0.0789 -2.0067  1.2691
  712SOL     OW 3034   3.676   4.938   5.681 -0.4127 -0.2606  0.7141
  712SOL    HW1 3035   3.749   4.935   5.750  0.2613  2.5584  0.2469
  712SOL    HW2 3036   3.714   4.972   5.595 -2.0109 -0.1435  0.0375
  713SOL     OW 3037   3.124   2.792   5.911  0.1717 -0.5004 -0.3764
  713SOL    HW1 3038   3.068   2.718   5.948 -0.1503  0.8279  2.0163
  713SOL    HW2 3039   3.144   2.774   5.815  1.0248 -4.2142  0.3521
  714SOL     OW 3040   5.213   6.485   2.380  0.3062 -0.5709 -0.0393
  714SOL    HW1 3041   5.284   6.490   2.451  0.9663 -2.0646 -0.5611
  714SOL    HW2 3042   5.251   6.514   2.292  0.5619 -2.2413 -0.5035
  715SOL     OW 3043   0.042   2.878   0.329 -0.1386  0.2977 -0.4154
  715SOL    HW1 3044   0.110   2.941   0.291  0.2764  1.2040  1.6654
  715SOL    HW2 3045  -0.024   2.930   0.383 -1.1545 -0.8373 -0.5307
  716SOL     OW 3046   4.781   0.664   2.859  0.5005 -0.2440  0.3469
  716SOL    HW1 3047   4.812   0.691   2.768 -1.1644 -2.1834 -0.8910
  716SOL    HW2 3048   4.696   0.712   2.881  0.7218 -0.0304  0.7466
  717SOL     OW 3049   5.803   5.594   1.939  0.2930 -0.1402 -0.4922
  717SOL    HW1 3050   5.895   5.573   1.908 -0.0872 -0.5179 -1.3970
  717SOL    HW2 3051   5.741   5.520   1.912 -0.3547  0.3178 -0.2838
  718SOL     OW 3052   0.165   2.839   3.915  0.6865  0.4068  0.2861
  718SOL    HW1 3053   0.252   2.809   3.875 -0.0054 -1.2717 -0.0805
  718SOL    HW2 3054   0.182   2.882   4.004  1.9072  0.3512  0.0992
  719SOL     OW 3055   3.130   6.898   2.341  0.3375  0.2095 -0.1516
  719SOL    HW1 3056   3.039   6.890   2.301  0.0678 -0.8143  0.6274
  719SOL    HW2 3057   3.187   6.821   2.312  0.8219  0.6082 -0.2779
  720SOL     OW 3058   2.214   1.441   1.811  0.4989 -0.1474 -0.6928
  720SOL    HW1 3059   2.170   1.367   1.863  0.5379 -0.5869 -1.2704
  720SOL    HW2 3060   2.291   1.404   1.758  1.3199  0.5420 -0.0057
  721SOL     OW 3061   1.446   2.171   1.253 -0.3764 -0.0666  0.2627
  721SOL    HW1 3062   1.396   2.200   1.172  0.4734 -0.2084 -0.3192
  721SOL    HW2 3063   1.390   2.188   1.335  0.0834  3.2288 -0.0047
  722SOL     OW 3064   6.575   4.986   1.604 -0.0738 -0.2434 -0.2099
  722SOL    HW1 3065   6.596   5.081   1.626 -0.6310  0.3473 -2.0196
  722SOL    HW2 3066   6.654   4.943   1.561  0.0277 -0.4699  0.1958
  723SOL     OW 3067   1.114   1.786   3.545  0.3761  0.4320  0.4885
  723SOL    HW1 3068   1.057   1.858   3.584  0.2518  0.2225  0.7016
  723SOL    HW2 3069   1.116   1.708   3.608 -0.4058 -0.1939 -0.2347
  724SOL     OW 3070   1.687   1.316   2.667 -0.4413 -0.0899  0.0492
  724SOL    HW1 3071   1.673   1.218   2.650  1.2216 -0.8176  2.4056
  724SOL    HW2 3072   1.782   1.340   2.647 -0.7870  1.0342 -0.3358
  725SOL     OW 3073   2.265   2.374   3.437  0.7805 -0.1735 -0.4202
  725SOL    HW1 3074   2.255   2.280   3.407  1.0571 -0.8681  1.5423
  725SOL    HW2 3075   2.340   2.382   3.501 -1.6916  0.5003  2.6540
  726SOL     OW 3076   2.913   2.618   6.045  0.1346 -1.1776 -0.7239
  726SOL    HW1 3077   2.933   2.643   6.140  0.8455 -0.9813 -0.9196
  726SOL    HW2 3078   2.889   2.521   6.041  0.4130 -1.2635 -0.3847
  727SOL     OW 3079   5.319   3.821   6.741 -0.0887  0.3446 -0.0465
  727SOL    HW1 3080   5.338   3.906   6.790 -1.1674 -0.5304  2.0443
  727SOL    HW2 3081   5.357   3.826   6.649  0.5165  2.7777  0.2647
  728SOL     OW 3082   5.826   3.528   3.700  0.5119 -1.1171  0.0321
  728SOL    HW1 3083   5.836   3.601   3.768 -3.2264 -1.5257  1.2390
  728SOL    HW2 3084   5.829   3.568   3.608  0.7963  0.2155  0.5976
  729SOL     OW 3085   1.686   4.997   5.985 -0.3823 -0.1550 -0.0880
  729SOL    HW1 3086   1.748   5.029   5.912 -0.6886  0.8445  0.0695
  729SOL    HW2 3087   1.735   4.997   6.072 -0.6579  0.9266  0.0885
  730SOL     OW 3088   2.007   1.039   4.646  0.6262 -0.2543  0.1103
  730SOL    HW1 3089   2.050   1.128   4.664 -0.5781  0.1736  1.0106
  730SOL    HW2 3090   1.920   1.034   4.694  0.3151 -1.6428 -0.5514
  731SOL     OW 3091   4.054   4.775   3.280  0.5791 -0.1736  0.2117
  731SOL    HW1 3092   4.086   4.680   3.272  1.0701 -0.0396  0.5149
  731SOL    HW2 3093   4.036   4.796   3.376  2.4388  0.6478  0.4221
  732SOL     OW 3094   5.471   0.564   4.203 -0.0031 -0.0193 -0.4152
  732SOL    HW1 3095   5.391   0.594   4.151  1.1383  1.1985 -1.5345
  732SOL    HW2 3096   5.516   0.490   4.154  0.8807  0.9002 -1.0245
  733SOL     OW 3097   1.822   5.059   4.021  0.7560  0.4285 -0.0301
  733SOL    HW1 3098   1.827   5.014   3.932 -0.7863  1.7895 -0.8557
  733SOL    HW2 3099   1.791   4.994   4.090  0.0317 -0.1534 -0.8861
  734SOL     OW 3100   0.348   4.764   3.762 -0.1841 -0.0555 -0.3036
  734SOL    HW1 3101   0.310   4.675   3.735  0.4492 -0.2322 -0.6240
  734SOL    HW2 3102   0.305   4.793   3.848  1.0020 -1.6083  0.8632
  735SOL     OW 3103   3.063   1.473   1.627  0.0600 -0.1270  0.5499
  735SOL    HW1 3104   3.057   1.421   1.542  0.6251  0.7575 -0.0484
  735SOL    HW2 3105   3.071   1.571   1.606  1.6336  0.0019  1.5623
  736SOL     OW 3106   2.156   1.055   1.304 -0.4162 -0.5390 -0.0035
  736SOL    HW1 3107   2.244   1.047   1.351 -0.4901  1.4818  0.5624
  736SOL    HW2 3108   2.156   0.994   1.224  2.7383  1.5971 -1.8652
  737SOL     OW 3109   2.490   1.786   0.698 -0.0282 -0.7860 -0.0284
  737SOL    HW1 3110   2.390   1.792   0.706  0.0169 -1.2206  0.9727
  737SOL    HW2 3111   2.519   1.694   0.723  0.5868 -0.8178 -0.8266
  738SOL     OW 3112   2.444   5.454   0.425  0.1730 -0.4873 -0.1081
  738SOL    HW1 3113   2.460   5.445   0.523  1.3199  0.2934 -0.1935
  738SOL    HW2 3114   2.376   5.525   0.409  0.2640 -0.3462  0.1181
  739SOL     OW 3115   2.570   6.469   3.562  0.8965  0.0804  0.1273
  739SOL    HW1 3116   2.529   6.488   3.472 -0.2407  1.5928  0.9193
  739SOL    HW2 3117   2.580   6.370   3.574 -1.8108 -0.3385 -0.4504
  740SOL     OW 3118   5.019   1.854   2.560  0.2041  0.1683 -0.3361
  740SOL    HW1 3119   5.095   1.835   2.622 -0.0177  0.4914  0.0385
  740SOL    HW2 3120   5.023   1.950   2.531 -0.2734  0.2881 -0.0147
  741SOL     OW 3121   2.801   2.191   2.188 -0.4813  0.1333 -0.1809
  741SOL    HW1 3122   2.866   2.230   2.122 -0.4743 -2.1411 -1.6136
  741SOL    HW2 3123   2.711   2.231   2.173 -0.1826  0.6568 -0.6273
  742SOL     OW 3124   3.314   0.657   1.608 -0.0012 -0.2050 -0.0139
  742SOL    HW1 3125   3.409   0.687   1.615  0.6275 -2.0913  0.2421
  742SOL    HW2 3126   3.269   0.703   1.532  0.5956  1.9390  0.8451
  743SOL     OW 3127   0.131   4.959   1.970  0.1025 -0.3225  0.1078
  743SOL    HW1 3128   0.055   4.900   1.944  0.0998  0.1730 -1.1204
  743SOL    HW2 3129   0.210   4.939   1.910  1.0816 -1.0910  1.5954
  744SOL     OW 3130   5.980   2.307   2.260 -0.7671 -0.0049 -0.4769
  744SOL    HW1 3131   6.010   2.393   2.219  0.6514 -1.0262 -1.6644
  744SOL    HW2 3132   5.894   2.279   2.217 -0.0204 -0.3517 -1.7771
  745SOL     OW 3133   1.843   6.522   6.444  0.0348  0.4048 -0.7750
  745SOL    HW1 3134   1.860   6.585   6.519 -1.2939 -1.2522  0.9937
  745SOL    HW2 3135   1.930   6.487   6.410  0.6462  1.1212  0.0072
  746SOL     OW 3136   0.922   6.473   5.839  0.1319  0.3813  0.1744
  746SOL    HW1 3137   0.828   6.491   5.867 -0.2834  0.4016 -1.1728
  746SOL    HW2 3138   0.944   6.377   5.855 -0.9468 -0.2385 -1.6748
  747SOL     OW 3139   2.044   4.635   2.464 -0.0345  0.1746 -0.0963
  747SOL    HW1 3140   2.111   4.579   2.413 -0.7224 -2.3440  1.5891
  747SOL    HW2 3141   1.999   4.578   2.532 -1.7995  2.5576  0.8333
  748SOL     OW 3142   5.064   4.464   3.404  0.8841 -0.1317  0.1622
  748SOL    HW1 3143   4.986   4.457   3.342  0.2900 -1.0265  0.9867
  748SOL    HW2 3144   5.046   4.536   3.471 -1.0645 -2.8352  2.7852
  749SOL     OW 3145   3.196   5.375   4.398  0.0425 -0.6457 -0.1114
  749SOL    HW1 3146   3.184   5.468   4.431  1.1730 -0.3356 -0.5436
  749SOL    HW2 3147   3.212   5.376   4.299  0.3776 -1.2667 -0.0701
  750SOL     OW 3148   4.450   2.474   3.950  0.8533 -0.1146 -0.0884
  750SOL    HW1 3149   4.434   2.454   4.046 -1.6069 -2.5797 -0.8798
  750SOL    HW2 3150   4.378   2.432   3.894  3.0460 -0.1612 -3.1536
  751SOL     OW 3151   4.952   2.280   0.996 -0.4224 -0.6683 -0.0506
  751SOL    HW1 3152   4.916   2.205   0.940 -0.5306 -1.5963  1.2204
  751SOL    HW2 3153   4.902   2.283   1.083 -0.3989  0.8751 -0.0759
  752SOL     OW 3154   3.908   3.126   3.184 -0.0710  0.2185  0.3606
  752SOL    HW1 3155   3.934   3.093   3.094  1.9213  0.2599  0.8825
  752SOL    HW2 3156   3.844   3.202   3.174  1.6289  1.5406 -1.1210
  753SOL     OW 3157   3.789   3.805   3.608  0.0905  0.3715 -0.4083
  753SOL    HW1 3158   3.761   3.898   3.634  1.3488  0.7238 -0.2523
  753SOL    HW2 3159   3.731   3.773   3.533 -1.6489  0.4991  0.8137
  754SOL     OW 3160   3.687   6.620   5.467 -0.5007 -0.0123  0.3675
  754SOL    HW1 3161   3.709   6.523   5.479 -0.9147  0.1217  2.6475
  754SOL    HW2 3162   3.588   6.632   5.467 -0.4430  0.5172  1.2383
  755SOL     OW 3163   4.634   3.513   6.413 -0.3059  0.0431  0.0113
  755SOL    HW1 3164   4.714   3.536   6.357 -0.4615  1.5863  0.3648
  755SOL    HW2 3165   4.574   3.450   6.363  0.9975 -0.9640 -0.3492
  756SOL     OW 3166   2.878   6.583   5.237 -0.1321 -0.0562  0.2109
  756SOL    HW1 3167   2.789   6.630   5.230 -1.2274 -2.2461 -1.9136
  756SOL    HW2 3168   2.887   6.544   5.329 -2.2219 -1.2834 -0.0413
  757SOL     OW 3169   6.933   1.262   3.607  0.5637 -0.2621  0.1680
  757SOL    HW1 3170   6.934   1.353   3.647  1.0147 -0.0940 -0.2063
  757SOL    HW2 3171   6.887   1.264   3.518  0.6017 -0.3893  0.1438
  758SOL     OW 3172   4.255   1.085   4.424  0.1405  0.4932  0.1956
  758SOL    HW1 3173   4.157   1.104   4.428 -0.1480 -0.9197  0.6753
  758SOL    HW2 3174   4.269   0.993   4.388  1.3689  1.1453 -1.0610
  759SOL     OW 3175   6.149   2.354   3.587  0.2584  0.3793 -0.4494
  759SOL    HW1 3176   6.145   2.254   3.586 -2.7971  0.4097 -1.3073
  759SOL    HW2 3177   6.110   2.389   3.502 -0.8731  2.3193  0.8021
  760SOL     OW 3178   5.465   4.816   2.938  0.1466  0.4820 -0.2646
  760SOL    HW1 3179   5.483   4.903   2.892 -0.1804  0.6967  0.0056
  760SOL    HW2 3180   5.463   4.742   2.871 -0.2451  0.7804 -0.5881
  761SOL     OW 3181   5.553   4.137   4.690  1.0224 -0.0389 -0.3687
  761SOL    HW1 3182   5.533   4.223   4.643  2.0028  0.6955  0.5155
  761SOL    HW2 3183   5.486   4.123   4.763 -0.7897 -1.4145 -2.1921
  762SOL     OW 3184   2.359   0.182   1.956 -0.2660  0.4848 -0.1127
  762SOL    HW1 3185   2.418   0.237   1.897  0.1151 -1.4330 -1.6014
  762SOL    HW2 3186   2.316   0.109   1.903 -1.0740 -0.4193  1.6886
  763SOL     OW 3187   5.949   6.594   5.964  0.2110  0.1336  0.4536
  763SOL    HW1 3188   5.885   6.670   5.980  0.8101  0.5562  0.8900
  763SOL    HW2 3189   5.943   6.565   5.868  0.4618  1.1959  0.0994
  764SOL     OW 3190   5.982   6.001   3.325 -0.2166 -0.1741  0.3061
  764SOL    HW1 3191   5.977   6.073   3.255  0.3038  0.5017  0.9496
  764SOL    HW2 3192   6.045   5.930   3.293  0.7393  0.5773  0.4608
  765SOL     OW 3193   6.428   6.805   0.799  0.0086 -0.3298  0.2950
  765SOL    HW1 3194   6.461   6.743   0.729  1.9330 -0.0299  0.8898
  765SOL    HW2 3195   6.497   6.816   0.870 -1.1378  0.8376  1.2933
  766SOL     OW 3196   2.137   2.388   3.962  0.2114  0.2685  0.3906
  766SOL    HW1 3197   2.074   2.379   3.885 -1.1822  1.0953  1.3946
  766SOL    HW2 3198   2.209   2.454   3.939  0.2336 -0.0317 -0.4454
  767SOL     OW 3199   0.121   6.575   3.630 -0.5374  0.0077 -0.4283
  767SOL    HW1 3200   0.029   6.551   3.662  0.4444 -1.3256  1.6362
  767SOL    HW2 3201   0.175   6.608   3.708  1.0425 -0.2402 -1.3867
  768SOL     OW 3202   2.226   0.445   2.826 -0.0695 -0.1190  0.4271
  768SOL    HW1 3203   2.173   0.373   2.780 -0.9792  0.3675  0.7093
  768SOL    HW2 3204   2.245   0.518   2.761 -1.8931  0.8630  0.9374
  769SOL     OW 3205   3.216   2.508   6.015  0.5606  0.3077  0.2177
  769SOL    HW1 3206   3.162   2.551   6.087  0.9008 -1.5553  1.6682
  769SOL    HW2 3207   3.308   2.546   6.016  0.5509  0.3260  0.7455
  770SOL     OW 3208   0.523   4.082   6.385 -0.2321 -0.1441  0.2263
  770SOL    HW1 3209   0.473   4.099   6.300 -1.0895 -1.0098  0.5368
  770SOL    HW2 3210   0.615   4.120   6.378 -0.7930  1.1471 -0.5110
  771SOL     OW 3211   1.865   6.353   2.322  0.2367 -0.1277 -0.2717
  771SOL    HW1 3212   1.963   6.334   2.314  0.5831  1.1188  0.6448
  771SOL    HW2 3213   1.852   6.441   2.367 -1.3435 -1.1284  1.3456
  772SOL     OW 3214   5.945   5.982   1.396 -0.4681 -0.2298  0.5329
  772SOL    HW1 3215   5.915   6.072   1.428  0.4749  0.5467 -0.6868
  772SOL    HW2 3216   5.905   5.911   1.454  0.3204  1.0458  2.7315
  773SOL     OW 3217   1.057   5.115   3.669 -0.1665 -0.1343  0.3103
  773SOL    HW1 3218   1.136   5.071   3.627  0.9784 -2.1064  4.0987
  773SOL    HW2 3219   1.088   5.193   3.724 -1.0653  0.0223  0.6077
  774SOL     OW 3220   2.128   2.558   4.269 -0.0728 -0.2109  0.5145
  774SOL    HW1 3221   2.106   2.476   4.323 -2.6909  0.4325  0.5686
  774SOL    HW2 3222   2.152   2.633   4.330  0.2696 -0.3790  0.5878
  775SOL     OW 3223   5.927   4.292   2.000 -0.5061 -0.8959  0.4604
  775SOL    HW1 3224   5.977   4.249   1.924 -1.9533  0.3699 -1.2936
  775SOL    HW2 3225   5.992   4.339   2.060  0.5203  3.9080 -3.7665
  776SOL     OW 3226   1.706   3.495   0.475  0.1708 -0.4058 -0.0227
  776SOL    HW1 3227   1.610   3.468   0.466  0.2596 -1.1593  0.9847
  776SOL    HW2 3228   1.735   3.543   0.393 -0.9728 -0.4627 -0.4871
  777SOL     OW 3229   1.860   4.627   6.799  0.5515  0.0747  0.4134
  777SOL    HW1 3230   1.933   4.608   6.865 -0.2865  1.1110  1.6997
  777SOL    HW2 3231   1.803   4.702   6.833 -1.2308 -0.8185 -0.4480
  778SOL     OW 3232   4.952   5.803   6.873  0.0115 -0.1339  0.1899
  778SOL    HW1 3233   4.901   5.851   6.944  0.4015  0.2206  0.2355
  778SOL    HW2 3234   4.961   5.706   6.898  2.2580  0.4207  1.9020
  779SOL     OW 3235   6.557   2.801   5.778 -0.1925 -0.2754  0.1156
  779SOL    HW1 3236   6.579   2.827   5.873  0.0644 -3.5395  1.0615
  779SOL    HW2 3237   6.460   2.777   5.772 -0.8864  2.4583 -1.1917
  780SOL     OW 3238   4.908   1.030   4.530  0.5491 -0.0747 -0.0763
  780SOL    HW1 3239   4.921   1.103   4.598  0.9527 -0.7318  0.5617
  780SOL    HW2 3240   4.810   1.011   4.521  0.3791  1.0189 -0.7685
  781SOL     OW 3241   0.612   3.704   6.715 -0.3811  0.1063 -0.1057
  781SOL    HW1 3242   0.532   3.656   6.753 -0.2012  0.5601  0.8941
  781SOL    HW2 3243   0.639   3.661   6.629 -2.2833  0.5230 -0.9831
  782SOL     OW 3244   2.422   4.954   4.933 -0.6641 -0.3775 -0.2198
  782SOL    HW1 3245   2.504   4.954   4.991 -1.0403 -1.0984  0.3339
  782SOL    HW2 3246   2.379   4.863   4.936 -3.1456  0.7144  1.9310
  783SOL     OW 3247   7.017   6.056   5.784  1.0199 -0.8285 -0.1202
  783SOL    HW1 3248   7.033   5.969   5.830  2.6198  0.0766  1.1554
  783SOL    HW2 3249   6.991   6.125   5.851  3.0549  0.4520 -0.5515
  784SOL     OW 3250   0.126   6.066   4.380 -0.1368 -0.2619  0.1132
  784SOL    HW1 3251   0.205   6.123   4.356 -1.2980  0.9351 -1.0666
  784SOL    HW2 3252   0.077   6.108   4.457  0.0557 -0.6763  0.4588
  785SOL     OW 3253   0.430   6.856   3.879  0.7956  0.1453 -0.5551
  785SOL    HW1 3254   0.449   6.787   3.809  0.7532 -0.0323 -0.3920
  785SOL    HW2 3255   0.337   6.843   3.913  1.5535 -1.2245  1.1649
  786SOL     OW 3256   6.914   0.742   4.499  0.7445 -0.0383 -0.0543
  786SOL    HW1 3257   6.933   0.670   4.433  1.3201  0.6347 -0.6379
  786SOL    HW2 3258   6.824   0.782   4.480  1.2040  0.6364 -0.9101
  787SOL     OW 3259   0.973   6.473   1.548 -0.1147  0.3427 -0.6200
  787SOL    HW1 3260   0.967   6.567   1.515  0.9054  2.0263  3.4668
  787SOL    HW2 3261   1.068   6.443   1.546  0.2977  1.2037  2.2306
  788SOL     OW 3262   2.278   2.964   4.255 -0.2158 -0.0961  0.3871
  788SOL    HW1 3263   2.328   2.922   4.330 -0.7327  0.3343  0.9876
  788SOL    HW2 3264   2.199   2.907   4.231 -0.7100  0.3348  0.9584
  789SOL     OW 3265   2.442   5.212   2.634  0.1171  0.3330 -0.1015
  789SOL    HW1 3266   2.359   5.247   2.678  0.3592  1.8047 -0.7414
  789SOL    HW2 3267   2.505   5.288   2.617  0.6678 -0.4063 -1.6004
  790SOL     OW 3268   6.134   3.139   2.440 -0.1041  0.5277  0.6181
  790SOL    HW1 3269   6.183   3.205   2.384  0.5989  0.0120  0.6093
  790SOL    HW2 3270   6.037   3.142   2.418  0.1976  0.0930 -0.9022
  791SOL     OW 3271   3.168   0.612   5.193 -0.2780  0.1672 -0.6034
  791SOL    HW1 3272   3.197   0.707   5.194  0.6214 -0.0815  1.5252
  791SOL    HW2 3273   3.080   0.604   5.146 -1.9347  2.5242  1.8329
  792SOL     OW 3274   3.925   1.611   2.599  0.1475  0.3039 -0.1867
  792SOL    HW1 3275   3.978   1.632   2.682  0.2970 -4.8271  1.3391
  792SOL    HW2 3276   3.988   1.601   2.522  0.5955  0.3445  0.1667
  793SOL     OW 3277   1.057   0.120   2.736  0.0172  0.1383 -0.1216
  793SOL    HW1 3278   0.960   0.136   2.755  0.1947  0.2277  0.7343
  793SOL    HW2 3279   1.083   0.168   2.652 -0.8959 -0.6471 -0.8631
  794SOL     OW 3280   3.697   3.507   2.556 -0.3621  0.0875 -0.3165
  794SOL    HW1 3281   3.773   3.572   2.565 -0.2995 -0.0884  0.5311
  794SOL    HW2 3282   3.610   3.556   2.561 -0.3527 -0.0084  1.8824
  795SOL     OW 3283   2.871   0.150   4.080 -0.5751  0.3231 -0.0441
  795SOL    HW1 3284   2.925   0.219   4.128 -0.1496 -0.2954  0.3832
  795SOL    HW2 3285   2.825   0.192   4.002  1.3053  0.6802 -1.0219
  796SOL     OW 3286   1.578   3.543   6.438  0.3629 -0.0214 -0.0700
  796SOL    HW1 3287   1.615   3.475   6.374 -1.0717 -0.0478 -0.9195
  796SOL    HW2 3288   1.539   3.496   6.517 -2.5053 -0.4557 -1.6021
  797SOL     OW 3289   1.092   0.339   2.549  0.0795 -0.4428 -0.3649
  797SOL    HW1 3290   1.135   0.331   2.459 -1.0783  1.3761 -1.1365
  797SOL    HW2 3291   1.143   0.403   2.605 -1.7415  2.1543 -1.4757
  798SOL     OW 3292   5.202   6.175   3.050 -0.1485  0.4201  0.1313
  798SOL    HW1 3293   5.202   6.168   3.149  1.2652 -0.5225  0.1039
  798SOL    HW2 3294   5.287   6.218   3.020  0.4286 -1.2291 -0.7369
  799SOL     OW 3295   4.108   4.347   5.350 -0.0369  0.0646  0.5304
  799SOL    HW1 3296   4.188   4.367   5.293  0.4980 -1.3782  0.7526
  799SOL    HW2 3297   4.030   4.324   5.292 -0.2622  1.2640  0.3209
  800SOL     OW 3298   5.298   3.822   4.338  0.2745  0.0004  0.2216
  800SOL    HW1 3299   5.353   3.742   4.362  2.1585  0.6891 -1.4379
  800SOL    HW2 3300   5.239   3.847   4.415  0.8843 -1.9500  1.3849
  801SOL     OW 3301   1.866   3.795   2.818  0.2201  0.2886  0.0344
  801SOL    HW1 3302   1.780   3.812   2.868 -0.9834  1.5023 -2.2791
  801SOL    HW2 3303   1.934   3.759   2.881 -1.6212  0.3807  2.2217
  802SOL     OW 3304   5.432   3.549   6.808  0.1708  0.2049  0.1015
  802SOL    HW1 3305   5.400   3.629   6.758  0.5541 -0.0670 -0.5848
  802SOL    HW2 3306   5.421   3.467   6.751  0.6013 -0.1105  0.4624
  803SOL     OW 3307   3.823   2.160   3.251 -0.0388 -0.2571 -0.5134
  803SOL    HW1 3308   3.723   2.155   3.258 -0.0503  1.2695  1.1255
  803SOL    HW2 3309   3.850   2.154   3.155 -1.8931  1.4238 -1.2178
  804SOL     OW 3310   4.555   0.822   2.938  0.0214 -0.2710 -0.2415
  804SOL    HW1 3311   4.457   0.802   2.948  0.3261 -2.0364 -0.3487
  804SOL    HW2 3312   4.596   0.830   3.029 -0.3190  1.1129 -0.1941
  805SOL     OW 3313   5.750   2.081   3.577  0.7645 -0.0379 -0.5089
  805SOL    HW1 3314   5.781   2.112   3.667 -1.1155  0.4320  0.0350
  805SOL    HW2 3315   5.712   1.989   3.585  1.2766 -0.2930 -0.9860
  806SOL     OW 3316   3.940   1.024   1.042 -0.0140  0.5705  0.0115
  806SOL    HW1 3317   3.946   1.003   0.944  1.3518  1.0683 -0.0339
  806SOL    HW2 3318   4.011   0.974   1.091 -0.1616  0.9628  0.6322
  807SOL     OW 3319   1.395   0.036   6.816 -0.8847  0.3226 -0.3694
  807SOL    HW1 3320   1.309   0.003   6.857 -0.3792 -2.1217 -1.0889
  807SOL    HW2 3321   1.472  -0.012   6.859  0.3795  3.6259  1.4215
  808SOL     OW 3322   1.292   1.746   6.596  0.3016 -0.1500 -0.3027
  808SOL    HW1 3323   1.294   1.839   6.560 -2.4330  0.1972  0.2174
  808SOL    HW2 3324   1.260   1.684   6.524  0.7345 -0.4640 -0.2267
  809SOL     OW 3325   2.564   6.516   4.526  0.2525 -0.1786  0.0494
  809SOL    HW1 3326   2.656   6.517   4.487  0.5385 -1.5631  0.6071
  809SOL    HW2 3327   2.564   6.563   4.614 -0.1211  1.8542 -0.9712
  810SOL     OW 3328   2.788   2.239   6.622 -0.3178  0.3784  0.1257
  810SOL    HW1 3329   2.819   2.145   6.634  1.3910  1.0480  1.4417
  810SOL    HW2 3330   2.704   2.254   6.674 -0.4557 -0.3430  0.1174
  811SOL     OW 3331   6.143   5.142   4.526 -0.3237 -0.7140 -0.0134
  811SOL    HW1 3332   6.051   5.170   4.550 -0.5516 -0.2522 -1.3120
  811SOL    HW2 3333   6.143   5.047   4.496 -0.3761 -0.7159 -0.0065
  812SOL     OW 3334   3.921   2.380   0.244  0.7674 -0.0880 -0.0286
  812SOL    HW1 3335   3.873   2.395   0.158 -0.2291 -0.2455  0.4882
  812SOL    HW2 3336   4.000   2.320   0.229  0.2706 -0.5698 -0.7273
  813SOL     OW 3337   3.669   2.109   3.985  0.6975 -0.5480 -0.5542
  813SOL    HW1 3338   3.723   2.158   4.054  0.0098 -0.8190  0.2000
  813SOL    HW2 3339   3.630   2.027   4.026 -0.8512  0.0050 -0.8578
  814SOL     OW 3340   6.984   5.999   6.978  0.1149 -0.1589  0.3473
  814SOL    HW1 3341   7.029   6.060   6.913  0.0177 -1.3148 -0.8576
  814SOL    HW2 3342   6.991   5.905   6.945 -1.4719 -0.5872  1.1483
  815SOL     OW 3343   3.638   0.755   5.041  0.3960 -0.2805 -0.2217
  815SOL    HW1 3344   3.559   0.795   5.088  0.6883  0.5952 -0.4600
  815SOL    HW2 3345   3.707   0.729   5.109 -0.1928 -1.2810  0.0066
  816SOL     OW 3346   5.148   4.913   0.377  0.1454 -0.7302 -0.0847
  816SOL    HW1 3347   5.058   4.956   0.376  0.7112  0.5461  0.8794
  816SOL    HW2 3348   5.210   4.963   0.316  0.9332  0.2086  1.3921
  817SOL     OW 3349   5.266   6.452   0.320  0.3030 -0.3473  0.2342
  817SOL    HW1 3350   5.173   6.489   0.311 -0.1051 -1.3301  0.3599
  817SOL    HW2 3351   5.295   6.413   0.233 -0.4245 -2.3778  0.8570
  818SOL     OW 3352   5.826   0.981   4.691  0.4698 -0.0276  0.2114
  818SOL    HW1 3353   5.825   0.999   4.789  0.1512  0.0830  0.1880
  818SOL    HW2 3354   5.866   0.891   4.675 -0.5985 -0.5762  0.5361
  819SOL     OW 3355   5.458   2.309   0.855  0.0261  0.0081 -0.4435
  819SOL    HW1 3356   5.369   2.351   0.874  0.1390 -0.5627  1.4430
  819SOL    HW2 3357   5.519   2.379   0.818 -1.6948  0.0328 -3.6664
  820SOL     OW 3358   1.670   2.788   5.984  0.2804  0.3530  0.0790
  820SOL    HW1 3359   1.605   2.744   5.923  0.5257  1.2789 -0.8822
  820SOL    HW2 3360   1.731   2.847   5.931  1.0269  0.5515  1.1246
  821SOL     OW 3361   6.648   4.856   6.962  0.1590  0.2540  0.1161
  821SOL    HW1 3362   6.711   4.910   6.907  4.4938 -1.3229  2.9956
  821SOL    HW2 3363   6.605   4.914   7.030  0.7636  0.9107 -0.0522
  822SOL     OW 3364   0.551   5.123   4.682 -1.1417  0.2676 -0.3283
  822SOL    HW1 3365   0.584   5.099   4.773  0.8511 -1.1397 -1.3574
  822SOL    HW2 3366   0.629   5.144   4.622 -2.3405  0.2930 -1.9543
  823SOL     OW 3367   0.146   4.056   5.807  0.0167  0.1148 -0.5969
  823SOL    HW1 3368   0.159   4.084   5.902 -1.0132 -0.1947 -0.3544
  823SOL    HW2 3369   0.194   3.970   5.790 -1.0215 -0.6188  0.0702
  824SOL     OW 3370   4.638   1.842   0.833 -0.2254  0.0225 -0.1046
  824SOL    HW1 3371   4.676   1.804   0.917 -0.6670 -0.7141 -0.2283
  824SOL    HW2 3372   4.700   1.823   0.757 -0.1190  0.1534 -0.0513
  825SOL     OW 3373   5.303   6.384   1.638 -0.3225  0.2468 -0.3125
  825SOL    HW1 3374   5.278   6.392   1.735  0.5618  0.0134 -0.0595
  825SOL    HW2 3375   5.224   6.349   1.587 -1.3433  1.9170  0.0337
  826SOL     OW 3376   2.812   2.935   5.941  0.3475 -0.5067  0.3414
  826SOL    HW1 3377   2.813   2.839   5.910  1.2186 -0.5150  0.3783
  826SOL    HW2 3378   2.727   2.953   5.990  0.0002 -1.1531 -0.0025
  827SOL     OW 3379   3.898   2.993   4.152 -0.2396 -0.5303  0.2385
  827SOL    HW1 3380   3.909   2.908   4.204 -2.9302 -1.5145 -0.6019
  827SOL    HW2 3381   3.847   3.059   4.207 -1.3140 -0.8308 -0.3597
  828SOL     OW 3382   1.724   5.692   6.880 -0.0313  0.4620 -0.2648
  828SOL    HW1 3383   1.675   5.648   6.955 -2.4051  1.1428 -1.3039
  828SOL    HW2 3384   1.764   5.778   6.911 -1.3947  0.9682  0.1488
  829SOL     OW 3385   2.552   2.020   2.042 -0.2185  0.1397  0.8328
  829SOL    HW1 3386   2.600   1.952   2.098 -2.2101 -3.3690 -1.3423
  829SOL    HW2 3387   2.611   2.048   1.966  0.1255 -0.2020  0.9681
  830SOL     OW 3388   6.961   3.537   0.304  0.0661  0.1512  0.3683
  830SOL    HW1 3389   6.895   3.589   0.358 -0.0741  0.2253  0.1289
  830SOL    HW2 3390   7.051   3.544   0.346  0.0838  0.7468  0.2400
  831SOL     OW 3391   4.582   1.676   1.899  0.2408  0.0875  0.2707
  831SOL    HW1 3392   4.667   1.650   1.946  1.7332  2.1314 -1.1246
  831SOL    HW2 3393   4.588   1.771   1.868 -2.9510  0.5964  0.8634
  832SOL     OW 3394   1.562   1.725   4.214  0.4337  0.1118  0.4468
  832SOL    HW1 3395   1.542   1.697   4.308  1.1639  2.3070  1.3102
  832SOL    HW2 3396   1.659   1.750   4.206  0.3907 -0.0625 -0.9157
  833SOL     OW 3397   4.462   3.806   6.773  0.1499  0.1398 -0.1975
  833SOL    HW1 3398   4.492   3.899   6.793  1.9208 -0.7542  1.6462
  833SOL    HW2 3399   4.484   3.784   6.677  3.1796  0.4396  0.3181
  834SOL     OW 3400   4.942   1.369   0.546  0.4917  0.9888 -0.1177
  834SOL    HW1 3401   4.868   1.412   0.495 -0.6416  0.6469  1.1791
  834SOL    HW2 3402   4.980   1.434   0.611 -1.4453  0.0635  2.0804
  835SOL     OW 3403   5.062   5.065   4.111 -0.4934  0.2265  0.1687
  835SOL    HW1 3404   5.041   5.091   4.017 -0.7270 -0.0880  0.1337
  835SOL    HW2 3405   5.121   5.135   4.152 -3.3875  2.3310  1.0256
  836SOL     OW 3406   6.571   1.748   3.716  0.4686  0.1033  0.0908
  836SOL    HW1 3407   6.639   1.762   3.788  1.9800 -0.8501 -1.0932
  836SOL    HW2 3408   6.532   1.656   3.724 -0.7807  0.6621  0.7970
  837SOL     OW 3409   6.681   0.348   0.838 -0.1012  0.0265  0.0102
  837SOL    HW1 3410   6.658   0.445   0.844 -2.6459 -0.5704  0.7502
  837SOL    HW2 3411   6.643   0.310   0.754  0.6040 -0.4382 -0.1137
  838SOL     OW 3412   6.342   4.954   1.460 -0.8875  0.2043  0.2864
  838SOL    HW1 3413   6.317   4.857   1.459 -0.5918  0.1120  0.8969
  838SOL    HW2 3414   6.420   4.966   1.522 -1.4145  0.9454  0.8172
  839SOL     OW 3415   2.304   1.441   0.687 -0.1667 -0.2328 -0.1046
  839SOL    HW1 3416   2.216   1.485   0.674  0.3030  0.7175 -0.1571
  839SOL    HW2 3417   2.306   1.354   0.638 -1.1357 -0.3597  0.0637
  840SOL     OW 3418   4.978   4.722   1.752 -0.4207 -0.0017 -0.0333
  840SOL    HW1 3419   4.942   4.726   1.658 -0.3733  3.2487 -0.0299
  840SOL    HW2 3420   4.905   4.691   1.813 -1.3559  0.6103 -0.7949
  841SOL     OW 3421   3.686   5.102   6.762  0.4316  0.0824  0.1023
  841SOL    HW1 3422   3.645   5.168   6.699  1.7269  0.4210 -0.4310
  841SOL    HW2 3423   3.662   5.126   6.856 -1.7067 -0.5497 -0.2253
  842SOL     OW 3424   5.035   4.979   0.814 -0.3991  0.0412  0.0844
  842SOL    HW1 3425   4.981   5.053   0.776 -1.3506 -0.9631 -0.5835
  842SOL    HW2 3426   5.132   5.002   0.808 -0.4673 -0.0779 -3.0687
  843SOL     OW 3427   3.035   0.104   1.313 -0.1813 -0.1887 -0.2226
  843SOL    HW1 3428   2.947   0.113   1.266 -0.4522  0.2892  0.3616
  843SOL    HW2 3429   3.091   0.185   1.294  0.1362 -0.4877 -0.5855
  844SOL     OW 3430   4.705   6.701   3.043 -0.1831 -0.0311 -0.6251
  844SOL    HW1 3431   4.768   6.679   2.968  0.7329  0.5500 -0.0414
  844SOL    HW2 3432   4.611   6.692   3.010  0.1926  0.6629 -1.9860
  845SOL     OW 3433   4.765   1.630   0.164  1.0334  0.5318 -0.0142
  845SOL    HW1 3434   4.735   1.702   0.102  0.7022 -1.4407 -2.2750
  845SOL    HW2 3435   4.860   1.647   0.190  1.1904  1.4193 -1.0744
  846SOL     OW 3436   1.721   1.243   6.718 -0.0831 -0.1323  0.7286
  846SOL    HW1 3437   1.718   1.321   6.655 -0.1939 -0.6632  0.0662
  846SOL    HW2 3438   1.769   1.167   6.674  0.5392 -0.2533  1.5862
  847SOL     OW 3439   1.945   1.884   6.557  0.1403 -0.5355  0.4486
  847SOL    HW1 3440   2.022   1.861   6.497 -0.2000 -1.4430  0.3432
  847SOL    HW2 3441   1.966   1.968   6.607  1.1209 -0.6721  0.2909
  848SOL     OW 3442   0.377   6.117   1.417 -0.6402 -0.0907  0.6535
  848SOL    HW1 3443   0.417   6.059   1.488  0.4474 -0.5483 -0.2891
  848SOL    HW2 3444   0.451   6.155   1.360 -1.5035 -0.3336 -0.6775
  849SOL     OW 3445   6.603   3.878   6.593 -0.0705  0.3542 -0.0500
  849SOL    HW1 3446   6.509   3.894   6.622  0.0665  0.4927  0.3223
  849SOL    HW2 3447   6.653   3.830   6.666  0.6364  1.8610  0.4975
  850SOL     OW 3448   2.765   1.444   1.308  0.4692 -0.2627 -0.2768
  850SOL    HW1 3449   2.742   1.525   1.255  0.1781 -0.9730 -1.2696
  850SOL    HW2 3450   2.786   1.470   1.402 -0.9478  0.8081 -0.2290
  851SOL     OW 3451   5.421   3.461   5.670  0.2121 -0.0976 -0.1382
  851SOL    HW1 3452   5.479   3.456   5.589  1.2136 -0.5346  0.5932
  851SOL    HW2 3453   5.460   3.527   5.735 -0.5139  0.1596  0.0446
  852SOL     OW 3454   0.603   3.521   2.434 -0.0245 -0.0639 -0.4262
  852SOL    HW1 3455   0.670   3.575   2.383  1.0538 -0.9995 -0.0254
  852SOL    HW2 3456   0.561   3.578   2.505  1.9987 -0.0506  0.8219
  853SOL     OW 3457   3.006   1.633   5.876 -0.0579  0.4779 -0.2008
  853SOL    HW1 3458   2.986   1.687   5.957 -1.6934  1.0735 -0.9595
  853SOL    HW2 3459   3.094   1.587   5.888 -0.4421  0.2139  2.0624
  854SOL     OW 3460   4.992   1.098   6.878  0.6874 -0.3788 -0.1792
  854SOL    HW1 3461   5.048   1.075   6.799  0.9538 -0.4661  0.0353
  854SOL    HW2 3462   5.035   1.172   6.929  0.3600 -0.1105 -0.2838
  855SOL     OW 3463   4.389   1.635   0.344 -0.7168 -0.0197  0.3602
  855SOL    HW1 3464   4.407   1.538   0.358  2.4491  0.4609  0.3804
  855SOL    HW2 3465   4.405   1.684   0.430 -0.7410  0.6809 -0.0272
  856SOL     OW 3466   1.217   4.889   1.500 -0.2028  0.0583  0.6157
  856SOL    HW1 3467   1.139   4.877   1.561  0.1492 -0.0212  1.0518
  856SOL    HW2 3468   1.302   4.886   1.553  0.2161 -1.8905 -0.0671
  857SOL     OW 3469   0.640   5.617   4.403  0.2260  0.0528  0.3104
  857SOL    HW1 3470   0.599   5.700   4.364 -2.0337 -0.9178  0.4820
  857SOL    HW2 3471   0.651   5.628   4.501 -1.1023 -0.2234  0.5037
  858SOL     OW 3472   2.237   3.625   0.868  0.0062  0.0966 -0.5832
  858SOL    HW1 3473   2.195   3.537   0.891  1.1605 -0.9029 -2.0909
  858SOL    HW2 3474   2.233   3.685   0.947  2.4919 -2.6087  1.8275
  859SOL     OW 3475   5.460   5.357   4.743  0.5353 -0.1496  0.1129
  859SOL    HW1 3476   5.486   5.365   4.839  0.3749  0.3901  0.1181
  859SOL    HW2 3477   5.532   5.395   4.686  0.6432 -0.4971  0.0165
  860SOL     OW 3478   3.908   2.252   6.849 -0.4866  0.3314  0.5534
  860SOL    HW1 3479   3.923   2.235   6.751 -1.0437  1.4883  0.2506
  860SOL    HW2 3480   3.866   2.171   6.890  2.1632 -1.2022  0.4425
  861SOL     OW 3481   0.849   6.078   0.331  0.4071  0.0370  0.3735
  861SOL    HW1 3482   0.810   6.034   0.412  1.8270 -1.8718  0.0860
  861SOL    HW2 3483   0.912   6.150   0.360  0.1048  0.0906  0.9276
  862SOL     OW 3484   1.314   4.936   0.002 -0.0127  0.0645  0.2559
  862SOL    HW1 3485   1.389   4.940   0.068 -0.2734 -1.0372  0.6422
  862SOL    HW2 3486   1.326   5.007  -0.068  0.1745  1.3786  1.5773
  863SOL     OW 3487   6.041   1.412   2.669 -0.1164  0.7525 -0.5904
  863SOL    HW1 3488   6.012   1.505   2.649  0.9949  1.8116  2.2585
  863SOL    HW2 3489   6.132   1.396   2.631  0.7063  1.7073  0.8834
  864SOL     OW 3490   5.514   2.979   4.969  0.6687  0.2682 -0.6864
  864SOL    HW1 3491   5.549   2.974   5.063  0.4506 -1.6523 -0.6798
  864SOL    HW2 3492   5.504   2.887   4.932  0.7703  0.9905 -2.6232
  865SOL     OW 3493   2.289   5.544   4.630  0.0995 -0.3809 -0.1027
  865SOL    HW1 3494   2.370   5.603   4.624 -0.1396 -0.1166 -0.7477
  865SOL    HW2 3495   2.308   5.470   4.695  0.1618  0.7571  1.2229
  866SOL     OW 3496   1.861   0.458   1.657 -0.3011 -0.2583  0.2750
  866SOL    HW1 3497   1.881   0.535   1.596  1.5788  0.2175  1.4085
  866SOL    HW2 3498   1.840   0.493   1.749 -2.6617 -0.9807  0.0668
  867SOL     OW 3499   4.353   0.795   4.518 -0.3187  0.2380 -0.1022
  867SOL    HW1 3500   4.385   0.852   4.593 -0.3254 -0.0323  0.1094
  867SOL    HW2 3501   4.426   0.733   4.489  0.2928  1.5884 -1.5504
  868SOL     OW 3502   0.487   3.760   3.055  0.1433  0.5163  0.1730
  868SOL    HW1 3503   0.549   3.682   3.064 -0.8181 -0.6699 -2.4182
  868SOL    HW2 3504   0.394   3.731   3.076 -0.3505  0.6924 -1.6236
  869SOL     OW 3505   1.063   1.758   2.259 -0.2888 -0.1829 -0.2284
  869SOL    HW1 3506   1.142   1.784   2.316 -0.4187 -1.3271  0.5072
  869SOL    HW2 3507   1.007   1.839   2.242  1.6609  0.9476 -1.8204
  870SOL     OW 3508   4.153   5.040   1.715 -0.3950  0.4274 -0.3474
  870SOL    HW1 3509   4.212   5.052   1.635 -0.7858  0.4782 -0.6298
  870SOL    HW2 3510   4.166   5.116   1.778  1.7957 -0.8500  0.8580
  871SOL     OW 3511   5.628   2.254   3.882  0.3051  0.7120 -1.0241
  871SOL    HW1 3512   5.615   2.252   3.981  0.6378 -1.1235 -0.9813
  871SOL    HW2 3513   5.539   2.268   3.837 -0.4924 -1.9494 -0.5001
  872SOL     OW 3514   2.694   2.371   6.396 -0.3711 -0.1356  0.2398
  872SOL    HW1 3515   2.734   2.317   6.469 -1.2719 -0.6595  0.3620
  872SOL    HW2 3516   2.659   2.457   6.433  0.7790  0.4105  0.0994
  873SOL     OW 3517   3.969   0.975   5.932  0.7757 -0.1358  0.4619
  873SOL    HW1 3518   3.874   0.976   5.963  0.7938 -1.0976  0.5825
  873SOL    HW2 3519   4.015   0.894   5.969  2.3698  1.6099  2.5428
  874SOL     OW 3520   5.436   3.355   2.573 -0.7179  0.1222 -0.4937
  874SOL    HW1 3521   5.350   3.406   2.578  0.1481  1.5069  1.3514
  874SOL    HW2 3522   5.446   3.299   2.655  0.3947  0.4013 -0.4305
  875SOL     OW 3523   2.949   5.429   2.493  0.3999 -0.4434  0.2024
  875SOL    HW1 3524   2.965   5.427   2.592  1.5419  0.1998  0.0424
  875SOL    HW2 3525   2.939   5.336   2.459  2.4803 -0.8301  0.5490
  876SOL     OW 3526   6.170   2.544   3.813  0.4047  0.1162  0.1961
  876SOL    HW1 3527   6.138   2.504   3.727  1.5773 -2.4730  0.8714
  876SOL    HW2 3528   6.270   2.537   3.818  0.2964 -0.7660  2.1807
  877SOL     OW 3529   1.348   4.153   6.558  0.1151  0.1442 -0.2451
  877SOL    HW1 3530   1.373   4.183   6.466 -2.3870 -0.0854 -1.0630
  877SOL    HW2 3531   1.297   4.067   6.553  0.9307 -0.5047  1.4783
  878SOL     OW 3532   6.021   0.298   6.158  0.2059  0.3265  0.0188
  878SOL    HW1 3533   6.073   0.214   6.145  0.6470  0.5386  0.4089
  878SOL    HW2 3534   5.940   0.278   6.214 -0.9791 -0.3141 -1.8311
  879SOL     OW 3535   0.380   5.204   0.091 -0.8028 -0.0922  0.4893
  879SOL    HW1 3536   0.305   5.211   0.157 -0.1926 -0.2565  1.1997
  879SOL    HW2 3537   0.451   5.143   0.126  0.7955  1.9106  0.9203
  880SOL     OW 3538   3.006   4.038   1.976  0.0051 -0.2319  0.1867
  880SOL    HW1 3539   2.987   4.109   2.044  1.4089  0.0953  0.2680
  880SOL    HW2 3540   2.957   3.954   2.001  0.4478 -0.0983  1.5718
  881SOL     OW 3541   4.567   3.699   6.132  0.3035  0.7460  0.3878
  881SOL    HW1 3542   4.476   3.679   6.096  0.4322  1.1070 -0.1496
  881SOL    HW2 3543   4.559   3.751   6.217  0.0121  1.6361 -0.1679
  882SOL     OW 3544   1.636   3.067   3.143  0.8001 -0.6536 -0.1956
  882SOL    HW1 3545   1.631   2.977   3.187 -1.3976 -0.1796  0.6551
  882SOL    HW2 3546   1.548   3.090   3.102  0.4614  2.0935  1.7420
  883SOL     OW 3547   1.681   1.215   4.024 -0.0677 -0.3363 -0.3384
  883SOL    HW1 3548   1.777   1.190   4.031 -0.0660 -0.0502  0.9278
  883SOL    HW2 3549   1.665   1.300   4.073 -1.3325 -1.4507  1.3254
  884SOL     OW 3550   4.917   4.538   6.919 -0.2794 -0.0460 -0.1977
  884SOL    HW1 3551   4.939   4.441   6.908  1.2636  0.2201  0.2379
  884SOL    HW2 3552   4.893   4.556   7.015  0.7515  0.2055  0.0341
  885SOL     OW 3553   5.163   1.815   0.516  0.4163 -0.1629 -0.4585
  885SOL    HW1 3554   5.116   1.779   0.435  0.6253 -0.3559 -0.4943
  885SOL    HW2 3555   5.261   1.813   0.501  0.4314  0.3497 -0.4266
  886SOL     OW 3556   3.786   1.386   6.325  0.1215 -0.0032  0.0825
  886SOL    HW1 3557   3.786   1.333   6.409 -1.4594  0.6838  0.5477
  886SOL    HW2 3558   3.802   1.325   6.247  1.3034 -0.6815  0.8204
  887SOL     OW 3559   4.175   0.600   5.112 -0.2124 -0.6866 -0.2416
  887SOL    HW1 3560   4.245   0.669   5.132 -0.9683  0.6127 -1.8949
  887SOL    HW2 3561   4.169   0.586   5.014 -3.7319  0.8813 -0.4046
  888SOL     OW 3562   6.484   5.040   1.882  0.4312 -0.1733 -0.1827
  888SOL    HW1 3563   6.513   5.003   1.794  2.5061 -1.9736  1.1600
  888SOL    HW2 3564   6.480   4.966   1.949 -4.7798  0.3830  0.5303
  889SOL     OW 3565   0.565   4.217   0.959 -0.2023  0.4474  0.5130
  889SOL    HW1 3566   0.602   4.302   0.995 -0.5531  0.7379  0.1999
  889SOL    HW2 3567   0.628   4.178   0.892 -1.4008  2.1149 -1.7363
  890SOL     OW 3568   2.688   4.725   4.931  0.2081 -0.3400 -0.0814
  890SOL    HW1 3569   2.612   4.660   4.942 -1.0002  0.7892 -1.3589
  890SOL    HW2 3570   2.766   4.694   4.985 -1.2092 -1.4422  1.4443
  891SOL     OW 3571   3.800   5.493   3.149 -0.5817  0.3570  0.2548
  891SOL    HW1 3572   3.898   5.500   3.127 -0.6320  0.2774  0.0007
  891SOL    HW2 3573   3.765   5.583   3.174 -0.4678  0.4055  0.2443
  892SOL     OW 3574   3.679   4.601   1.594 -0.9465 -0.5329  0.2589
  892SOL    HW1 3575   3.632   4.613   1.682 -0.6450 -1.0130  0.4954
  892SOL    HW2 3576   3.615   4.618   1.519 -1.2662 -0.3348  0.5730
  893SOL     OW 3577   6.755   4.528   2.761 -0.2136  0.2187 -0.4103
  893SOL    HW1 3578   6.668   4.479   2.770  0.0717 -0.2975 -0.4642
  893SOL    HW2 3579   6.736   4.625   2.742 -0.7686 -0.0419 -1.2117
  894SOL     OW 3580   2.039   4.449   0.827 -0.1355  0.6272  0.2754
  894SOL    HW1 3581   2.038   4.416   0.732 -1.4761 -0.0214  0.5041
  894SOL    HW2 3582   2.134   4.463   0.856  0.3894 -1.2112 -0.4537
  895SOL     OW 3583   6.335   4.508   5.510  0.2960  0.5349 -0.4406
  895SOL    HW1 3584   6.372   4.585   5.459 -1.1064  0.2855 -1.9050
  895SOL    HW2 3585   6.246   4.534   5.549  0.6428  0.2196  0.6080
  896SOL     OW 3586   1.947   0.694   6.838 -0.1035 -0.1217  0.2481
  896SOL    HW1 3587   1.872   0.705   6.773 -0.6065  2.2046  1.1185
  896SOL    HW2 3588   1.994   0.608   6.821  0.0351  0.5487 -3.4289
  897SOL     OW 3589   5.495   0.829   1.843  0.4870  0.6119 -0.1824
  897SOL    HW1 3590   5.463   0.872   1.928  0.8939 -1.8102  1.3146
  897SOL    HW2 3591   5.421   0.776   1.803  1.3046 -1.5273  0.9527
  898SOL     OW 3592   4.150   1.299   3.102 -0.2442  0.1623  0.5309
  898SOL    HW1 3593   4.165   1.227   3.170 -0.5128 -0.7901 -0.3995
  898SOL    HW2 3594   4.111   1.259   3.019  2.1429  0.9271 -1.0329
  899SOL     OW 3595   0.321   0.885   6.794 -0.4202 -0.0487 -0.1658
  899SOL    HW1 3596   0.264   0.804   6.804 -0.1561  0.0770  4.1898
  899SOL    HW2 3597   0.390   0.869   6.723 -1.2421 -3.0442 -0.4247
  900SOL     OW 3598   3.587   5.273   6.565  0.1770 -1.0493  0.3203
  900SOL    HW1 3599   3.504   5.325   6.587  1.1002  1.1981 -1.1547
  900SOL    HW2 3600   3.579   5.237   6.473 -0.2819 -3.3117  1.1915
  901SOL     OW 3601   2.260   0.712   3.265 -0.2217  0.5373  0.2391
  901SOL    HW1 3602   2.239   0.671   3.353  0.6444 -2.7670 -0.9324
  901SOL    HW2 3603   2.181   0.702   3.204  0.5654 -1.1290 -0.5808
  902SOL     OW 3604   1.239   3.542   3.800  0.1491  0.7705  0.5974
  902SOL    HW1 3605   1.176   3.543   3.722 -0.1692  0.4720  0.8489
  902SOL    HW2 3606   1.188   3.527   3.884  0.7986 -2.0894  0.5827
  903SOL     OW 3607   5.867   0.045   6.696 -0.2815 -0.5240  0.0396
  903SOL    HW1 3608   5.964   0.021   6.695 -0.5016 -1.5086  0.5895
  903SOL    HW2 3609   5.851   0.124   6.637  0.5533 -1.5403 -1.6283
  904SOL     OW 3610   2.596   1.082   4.981  0.7124 -0.1645  0.4824
  904SOL    HW1 3611   2.680   1.130   5.005 -0.0730  1.6698 -0.2522
  904SOL    HW2 3612   2.568   1.023   5.057  1.9123  0.2522  1.2686
  905SOL     OW 3613   4.568   0.081   5.526  0.5247  0.5050 -0.2288
  905SOL    HW1 3614   4.487   0.029   5.552  1.2376  0.2157  1.5848
  905SOL    HW2 3615   4.649   0.040   5.569  1.4587  1.5600 -0.9253
  906SOL     OW 3616   0.997   3.226   2.321  0.0013 -0.3886  0.4978
  906SOL    HW1 3617   1.085   3.180   2.310 -0.4345 -1.2852  0.7260
  906SOL    HW2 3618   1.013   3.325   2.331  0.8069 -0.1144 -2.4452
  907SOL     OW 3619   5.056   0.198   6.431 -1.6386 -0.1912 -0.6095
  907SOL    HW1 3620   5.145   0.221   6.392 -1.1776 -2.4492 -0.9901
  907SOL    HW2 3621   5.027   0.272   6.492  0.7242  0.3721 -0.0695
  908SOL     OW 3622   2.229   3.027   2.444  0.4077  0.1583  0.2859
  908SOL    HW1 3623   2.322   3.004   2.476  0.2409 -1.8996 -0.5663
  908SOL    HW2 3624   2.162   2.978   2.499 -0.1456  0.7946  0.1924
  909SOL     OW 3625   6.038   4.296   6.075 -0.3590 -0.2123 -0.2527
  909SOL    HW1 3626   6.083   4.370   6.125  1.5614  0.2851 -2.5359
  909SOL    HW2 3627   5.939   4.306   6.082 -0.1322  1.6848  0.7444
  910SOL     OW 3628   1.529   6.001   1.423  0.1300  0.1451 -0.0318
  910SOL    HW1 3629   1.454   6.067   1.420 -0.3192 -0.3854 -1.3521
  910SOL    HW2 3630   1.577   6.009   1.510 -0.3112  1.7573  0.0962
  911SOL     OW 3631   6.575   6.828   5.265 -0.2573  0.5864  0.3546
  911SOL    HW1 3632   6.520   6.819   5.348  0.3891 -0.3661  0.6898
  911SOL    HW2 3633   6.671   6.811   5.286 -0.0013  0.9236 -0.4823
  912SOL     OW 3634   0.271   0.812   4.375 -0.1363 -0.1473 -0.1148
  912SOL    HW1 3635   0.211   0.860   4.439 -0.7090 -0.0117 -0.7460
  912SOL    HW2 3636   0.301   0.726   4.416  1.4852  1.0427  1.3210
  913SOL     OW 3637   6.578   5.594   3.302 -0.2432 -0.6017  0.2363
  913SOL    HW1 3638   6.652   5.627   3.362 -0.8780 -0.2233  0.8369
  913SOL    HW2 3639   6.605   5.605   3.207 -0.2581  1.3713  0.4083
  914SOL     OW 3640   3.919   6.602   4.406  0.2954 -0.4691  0.4528
  914SOL    HW1 3641   4.007   6.588   4.450 -0.2831 -1.4157  1.3790
  914SOL    HW2 3642   3.875   6.684   4.444  0.1131 -0.8761  1.1517
  915SOL     OW 3643   0.025   0.175   1.794 -0.1360  0.0996 -0.0719
  915SOL    HW1 3644   0.077   0.129   1.867 -0.1187 -0.1069 -0.2124
  915SOL    HW2 3645   0.000   0.108   1.724 -1.4617 -0.0016  0.4739
  916SOL     OW 3646   1.458   4.175   2.114  0.0158  0.5048 -0.0960
  916SOL    HW1 3647   1.461   4.167   2.214 -1.6204 -0.1077 -0.0726
  916SOL    HW2 3648   1.541   4.135   2.075  1.1451  1.6447  1.0385
  917SOL     OW 3649   1.430   0.122   0.266 -0.4437 -0.2372  0.4373
  917SOL    HW1 3650   1.494   0.190   0.232 -0.3220  0.0294  1.1776
  917SOL    HW2 3651   1.421   0.132   0.365 -0.4267 -1.2992  0.5518
  918SOL     OW 3652   3.720   0.115   5.278  0.0121 -0.2089  0.7061
  918SOL    HW1 3653   3.807   0.069   5.297 -0.1040 -0.8603 -0.2897
  918SOL    HW2 3654   3.733   0.214   5.283  1.3311 -0.2130 -1.4716
  919SOL     OW 3655   3.998   1.205   4.356 -0.3341  0.1172  0.3909
  919SOL    HW1 3656   3.945   1.171   4.279 -0.7039 -0.6472  0.9593
  919SOL    HW2 3657   3.938   1.218   4.435  0.3426 -1.0770  1.1402
  920SOL     OW 3658   3.100   3.429   0.123 -0.3413 -0.3250 -0.8023
  920SOL    HW1 3659   3.004   3.415   0.146 -0.0099 -1.3352  0.0730
  920SOL    HW2 3660   3.149   3.460   0.205  0.6313 -2.7918 -0.3361
  921SOL     OW 3661   5.403   4.321   4.105 -0.3170 -0.0609  0.2279
  921SOL    HW1 3662   5.356   4.409   4.095 -0.9471 -0.2310  1.4793
  921SOL    HW2 3663   5.361   4.254   4.043 -0.5101  0.2590  0.0082
  922SOL     OW 3664   3.739   3.328   3.207  0.4462 -0.1248  0.1919
  922SOL    HW1 3665   3.709   3.408   3.260  2.4190  0.3014  0.7277
  922SOL    HW2 3666   3.664   3.261   3.204 -1.1800  1.6022 -0.0810
  923SOL     OW 3667   2.499   4.816   1.271 -0.3149 -0.3135 -0.2936
  923SOL    HW1 3668   2.467   4.815   1.366 -0.1928  1.4494 -0.1921
  923SOL    HW2 3669   2.578   4.756   1.262 -2.1026 -2.8715 -0.0071
  924SOL     OW 3670   1.412   3.285   0.185  0.3984  0.1283  0.0106
  924SOL    HW1 3671   1.512   3.279   0.196  0.3685 -1.1208 -0.3311
  924SOL    HW2 3672   1.375   3.341   0.259  1.4135  1.1506 -0.2130
  925SOL     OW 3673   0.369   0.030   1.711  0.2277  0.7111  0.1854
  925SOL    HW1 3674   0.351  -0.066   1.689  0.6387  0.7099 -0.1626
  925SOL    HW2 3675   0.359   0.085   1.627  1.7817  0.7170 -0.0231
  926SOL     OW 3676   1.597   1.852   0.303 -0.3145  0.0167 -0.5797
  926SOL    HW1 3677   1.661   1.776   0.307 -0.6821 -0.2571  0.8362
  926SOL    HW2 3678   1.570   1.877   0.396 -0.7557  1.4087 -1.0586
  927SOL     OW 3679   0.928   2.858   4.222 -0.0552 -0.5216  0.4356
  927SOL    HW1 3680   0.833   2.856   4.190  0.5209  1.5282 -1.6463
  927SOL    HW2 3681   0.958   2.952   4.235  1.6879 -1.1249  1.1572
  928SOL     OW 3682   2.826   5.544   4.853 -0.2137 -0.3702  0.4416
  928SOL    HW1 3683   2.836   5.642   4.865 -2.2450 -0.0900  0.1545
  928SOL    HW2 3684   2.797   5.502   4.939 -1.8508 -0.3089 -0.0511
  929SOL     OW 3685   2.755   2.070   5.117 -0.6090 -0.2660 -0.1219
  929SOL    HW1 3686   2.765   2.029   5.026 -1.9157  0.1493 -0.4789
  929SOL    HW2 3687   2.818   2.147   5.125 -1.4612  0.5866 -1.2363
  930SOL     OW 3688   5.076   4.576   6.583 -0.6386  0.5630 -0.2289
  930SOL    HW1 3689   5.003   4.639   6.553  0.6375  2.7405  0.9620
  930SOL    HW2 3690   5.102   4.599   6.677  0.7873 -0.9556 -0.2185
  931SOL     OW 3691   4.489   6.563   0.079  0.4997  0.5500  0.1719
  931SOL    HW1 3692   4.563   6.504   0.047 -1.2280 -1.1030 -1.0813
  931SOL    HW2 3693   4.449   6.523   0.162  0.8597  1.3022  0.7103
  932SOL     OW 3694   3.921   1.728   5.552  0.4097  0.0084 -0.1410
  932SOL    HW1 3695   3.888   1.814   5.511 -0.4367 -0.3097 -0.1559
  932SOL    HW2 3696   3.920   1.736   5.652  2.9761  0.9707 -0.1243
  933SOL     OW 3697   6.979   6.858   1.868  0.5077  0.6164 -0.0326
  933SOL    HW1 3698   7.033   6.823   1.791  3.1753  1.0174  1.5423
  933SOL    HW2 3699   6.931   6.782   1.911 -0.5400  0.2904 -1.6719
  934SOL     OW 3700   2.571   1.889   6.839  0.5821  0.2744 -0.2531
  934SOL    HW1 3701   2.625   1.881   6.922  0.1907  0.7606  0.0545
  934SOL    HW2 3702   2.528   1.801   6.818 -0.1048  0.3939  0.6106
  935SOL     OW 3703   5.803   3.652   6.327  0.2416  0.0227  0.8269
  935SOL    HW1 3704   5.783   3.562   6.287  0.3191 -0.6122  2.1692
  935SOL    HW2 3705   5.718   3.702   6.340 -0.0098 -0.6667  1.9144
  936SOL     OW 3706   1.887   1.191   5.324 -0.6672  0.0246 -0.3450
  936SOL    HW1 3707   1.898   1.289   5.337 -1.0100 -0.0640  0.7261
  936SOL    HW2 3708   1.794   1.164   5.350 -0.9243 -0.4266 -1.6652
  937SOL     OW 3709   4.481   2.869   5.773  0.2531 -0.1305 -0.0465
  937SOL    HW1 3710   4.474   2.915   5.861 -1.3543  0.6999 -0.5838
  937SOL    HW2 3711   4.394   2.824   5.751  0.4163  0.2152 -1.4959
  938SOL     OW 3712   4.491   0.453   3.925 -0.2905 -0.2799  0.1484
  938SOL    HW1 3713   4.530   0.460   4.016 -1.3357 -0.0030  0.5865
  938SOL    HW2 3714   4.558   0.410   3.863  1.2599  1.4916  0.5067
  939SOL     OW 3715   1.363   0.794   5.507 -0.5419 -0.1348  0.3580
  939SOL    HW1 3716   1.427   0.830   5.440 -2.3575  0.4401 -1.1530
  939SOL    HW2 3717   1.374   0.695   5.514  0.1780 -0.1026 -0.2228
  940SOL     OW 3718   2.482   3.065   0.675 -0.5984  0.3666 -0.0547
  940SOL    HW1 3719   2.570   3.066   0.626 -0.6780  2.7180 -0.2786
  940SOL    HW2 3720   2.409   3.044   0.611 -0.1218 -4.2162  0.5745
  941SOL     OW 3721   4.410   0.186   1.597  0.1732  0.2364 -0.3919
  941SOL    HW1 3722   4.364   0.122   1.659 -1.7819  2.3043  0.4109
  941SOL    HW2 3723   4.342   0.243   1.551  1.5440 -0.8250 -4.1863
  942SOL     OW 3724   1.146   6.034   6.476  0.4762  0.0072  0.2697
  942SOL    HW1 3725   1.088   5.955   6.459 -0.4567  1.0516 -1.7197
  942SOL    HW2 3726   1.090   6.110   6.510  0.9243  0.6000 -0.3023
  943SOL     OW 3727   2.042   0.309   3.463  1.0439  0.3936 -0.5986
  943SOL    HW1 3728   2.033   0.365   3.381  0.2693  0.5013 -0.4509
  943SOL    HW2 3729   2.087   0.362   3.535  1.1106  0.5288 -0.7395
  944SOL     OW 3730   6.430   5.983   1.726  0.3384 -0.5600  0.1398
  944SOL    HW1 3731   6.375   6.059   1.691 -0.7062 -0.6695  1.4659
  944SOL    HW2 3732   6.504   5.963   1.662 -0.4242  0.4132 -1.0896
  945SOL     OW 3733   5.199   3.704   6.004 -0.2124  0.2388  0.0281
  945SOL    HW1 3734   5.236   3.611   6.003  1.1192  0.6741  2.4194
  945SOL    HW2 3735   5.179   3.732   5.910  2.4501 -1.2850 -1.1165
  946SOL     OW 3736   0.267   0.360   3.163 -0.7128  0.1962  0.3209
  946SOL    HW1 3737   0.354   0.407   3.147 -0.4758  0.0041  1.0525
  946SOL    HW2 3738   0.221   0.345   3.075  0.8600 -1.4042 -0.2715
  947SOL     OW 3739   3.773   3.784   1.997  0.3082 -0.2800 -0.1437
  947SOL    HW1 3740   3.714   3.863   2.016 -1.8245 -1.6091 -0.8890
  947SOL    HW2 3741   3.867   3.806   2.022 -0.2217  2.4502 -0.2384
  948SOL     OW 3742   5.754   2.280   2.076  0.0734  0.1034 -0.3182
  948SOL    HW1 3743   5.699   2.213   2.128 -0.3594 -0.8144 -1.8837
  948SOL    HW2 3744   5.720   2.372   2.095 -0.4641 -0.2590  0.5587
  949SOL     OW 3745   0.880   0.950   4.782  0.2502 -0.3747  0.1115
  949SOL    HW1 3746   0.870   0.962   4.683  2.0912  0.2930 -0.0433
  949SOL    HW2 3747   0.869   0.853   4.805 -4.9610 -0.0528  0.0001
  950SOL     OW 3748   1.030   0.518   2.234 -0.8191  0.7096  0.0589
  950SOL    HW1 3749   1.090   0.482   2.306 -0.5358  0.0958 -0.4697
  950SOL    HW2 3750   1.027   0.618   2.240 -1.8407  0.6138  1.7376
  951SOL     OW 3751   0.896   0.997   4.023  0.0410 -0.1913  0.2914
  951SOL    HW1 3752   0.909   0.904   4.059 -1.0211 -0.7612 -0.7226
  951SOL    HW2 3753   0.968   1.018   3.957  2.9032  1.4264  3.6398
  952SOL     OW 3754   2.652   1.461   4.576 -0.0041  0.3775  0.1861
  952SOL    HW1 3755   2.627   1.528   4.507  0.1209 -0.4349 -0.6695
  952SOL    HW2 3756   2.633   1.498   4.667 -1.7288  0.8383 -0.3293
  953SOL     OW 3757   0.019   5.412   4.549 -0.1376 -0.4408  0.3456
  953SOL    HW1 3758   0.094   5.414   4.483  0.2256  0.2591  0.7704
  953SOL    HW2 3759  -0.066   5.390   4.501  0.3775 -1.5207 -0.0875
  954SOL     OW 3760   3.771   5.956   3.706  0.0934 -0.2093  0.7306
  954SOL    HW1 3761   3.805   6.041   3.747 -1.7714  0.2649  1.3948
  954SOL    HW2 3762   3.839   5.920   3.642  0.8905  1.8270  0.3714
  955SOL     OW 3763   4.921   3.523   2.207  0.8333 -0.5141  0.7243
  955SOL    HW1 3764   4.932   3.515   2.108  1.2012 -2.0441  0.8595
  955SOL    HW2 3765   4.912   3.619   2.232 -0.4940 -0.1503 -0.9107
  956SOL     OW 3766   3.465   0.688   0.085 -0.2942 -0.0167 -0.5122
  956SOL    HW1 3767   3.474   0.590   0.067 -1.1266 -0.8429  2.8297
  956SOL    HW2 3768   3.368   0.712   0.091 -0.0909  0.9570 -0.8892
  957SOL     OW 3769   5.928   0.392   3.288  0.2465 -0.1523  0.1389
  957SOL    HW1 3770   5.974   0.339   3.216  0.8473  1.1498 -0.4681
  957SOL    HW2 3771   5.836   0.357   3.301  0.2834 -0.6993 -0.9504
  958SOL     OW 3772   2.913   6.134   5.023 -0.4057 -0.1170 -0.3884
  958SOL    HW1 3773   2.979   6.070   4.984 -1.5714 -0.4414 -1.8813
  958SOL    HW2 3774   2.937   6.227   4.995 -0.0305 -0.1298 -0.1163
  959SOL     OW 3775   5.082   5.099   2.994 -0.1772  0.2294 -0.4702
  959SOL    HW1 3776   5.054   5.006   3.017  0.3502  0.1541 -0.1044
  959SOL    HW2 3777   5.146   5.132   3.063 -0.4280  0.8992 -0.5451
  960SOL     OW 3778   0.759   5.411   6.012  0.2583  0.4213 -0.6430
  960SOL    HW1 3779   0.822   5.340   6.043 -1.6700 -0.7136  0.9490
  960SOL    HW2 3780   0.695   5.433   6.085 -2.6712 -0.1805 -2.8565
  961SOL     OW 3781   5.007   1.460   5.201 -0.0638 -0.0711  0.2732
  961SOL    HW1 3782   4.957   1.489   5.120 -0.7637  1.3976  1.1804
  961SOL    HW2 3783   5.049   1.371   5.185 -0.1112  0.2282 -1.7076
  962SOL     OW 3784   0.570   2.220   4.806 -0.1282 -0.1774  0.0840
  962SOL    HW1 3785   0.669   2.205   4.809 -0.1259 -0.0917  0.4824
  962SOL    HW2 3786   0.524   2.136   4.779  0.0821 -0.1057 -0.5017
  963SOL     OW 3787   4.864   1.669   1.978  0.4984  0.3640 -0.1678
  963SOL    HW1 3788   4.961   1.653   1.997  0.8945  0.8433 -1.6514
  963SOL    HW2 3789   4.854   1.752   1.924 -0.8000  0.5998  0.3922
  964SOL     OW 3790   3.153   0.113   3.417 -0.4544  0.2700  0.0663
  964SOL    HW1 3791   3.200   0.081   3.335 -0.3187  0.3059  0.1298
  964SOL    HW2 3792   3.206   0.186   3.460 -0.9104  0.7904 -0.2408
  965SOL     OW 3793   4.370   2.353   2.111 -0.0194  0.6199  0.4390
  965SOL    HW1 3794   4.276   2.341   2.081 -0.3757  3.2993  0.3059
  965SOL    HW2 3795   4.421   2.404   2.042  1.7202 -1.1887  0.2826
  966SOL     OW 3796   6.454   5.925   2.205  0.4472  0.1936 -0.1979
  966SOL    HW1 3797   6.444   6.024   2.215 -0.3530  0.1308 -0.3462
  966SOL    HW2 3798   6.472   5.903   2.109  2.5239  0.3375  0.1225
  967SOL     OW 3799   6.789   3.601   5.271 -0.2027 -0.5079 -0.3834
  967SOL    HW1 3800   6.782   3.689   5.224 -0.7922  0.1459  0.8705
  967SOL    HW2 3801   6.875   3.598   5.322  0.8888 -1.5954 -2.1761
  968SOL     OW 3802   4.821   6.551   0.469  0.3933 -0.0379  0.5988
  968SOL    HW1 3803   4.833   6.478   0.402  0.4415 -0.3985  0.9977
  968SOL    HW2 3804   4.907   6.600   0.481  0.8640 -1.0480  1.6303
  969SOL     OW 3805   3.501   3.910   5.312 -0.1293  0.2515  0.0802
  969SOL    HW1 3806   3.548   3.947   5.392 -0.5259 -1.7566  1.3016
  969SOL    HW2 3807   3.424   3.853   5.341 -2.2136  1.8848 -1.8244
  970SOL     OW 3808   3.888   4.881   5.911 -0.5356  0.5394 -0.0005
  970SOL    HW1 3809   3.957   4.848   5.847 -0.7172  2.0542 -1.0499
  970SOL    HW2 3810   3.905   4.844   6.001  1.1430  0.1960 -0.4317
  971SOL     OW 3811   5.158   3.720   3.282 -0.1437 -0.2331 -0.0402
  971SOL    HW1 3812   5.155   3.653   3.208 -0.7533 -1.3911  1.0031
  971SOL    HW2 3813   5.065   3.738   3.314  0.0113  1.1300 -0.3052
  972SOL     OW 3814   2.578   0.278   6.692 -0.0262 -0.2990  0.5487
  972SOL    HW1 3815   2.508   0.335   6.650 -1.8326 -1.5036  1.7396
  972SOL    HW2 3816   2.619   0.218   6.624 -1.9446 -1.2942  0.2151
  973SOL     OW 3817   5.951   1.824   4.131 -0.1437 -0.2012  0.5651
  973SOL    HW1 3818   5.863   1.867   4.149 -0.3117 -0.3643  0.1567
  973SOL    HW2 3819   5.937   1.743   4.073  0.1569 -0.8477  1.3692
  974SOL     OW 3820   6.916   4.068   1.217  0.2148 -0.3449 -0.2046
  974SOL    HW1 3821   6.841   4.129   1.190  1.0899  0.8681  0.0030
  974SOL    HW2 3822   6.904   4.041   1.313 -0.5098 -1.0315 -0.4771
  975SOL     OW 3823   2.017   0.668   3.977  0.0432 -0.3852 -0.2407
  975SOL    HW1 3824   1.977   0.631   4.061  1.9323  1.8908  1.8066
  975SOL    HW2 3825   1.959   0.742   3.943 -0.5786 -1.1272 -0.8463
  976SOL     OW 3826   1.062   2.453   4.066  0.5931 -0.7366 -0.0782
  976SOL    HW1 3827   1.017   2.541   4.049  0.6975  0.0484  3.0966
  976SOL    HW2 3828   1.161   2.466   4.065  0.7956 -1.6241 -2.8984
  977SOL     OW 3829   6.309   2.295   3.171 -0.5078  0.0690 -0.5115
  977SOL    HW1 3830   6.305   2.360   3.095 -0.5577  0.6962  0.0182
  977SOL    HW2 3831   6.328   2.203   3.136 -0.2432  0.4024 -1.2527
  978SOL     OW 3832   6.843   1.432   0.688  0.5074 -0.0925  0.4775
  978SOL    HW1 3833   6.771   1.498   0.664  0.4997  0.4445  1.9088
  978SOL    HW2 3834   6.811   1.340   0.666 -0.2665  0.2071  0.2903
  979SOL     OW 3835   6.227   3.745   4.959 -0.3096 -0.3891  0.1142
  979SOL    HW1 3836   6.220   3.673   5.029 -0.9678  1.0658  1.5993
  979SOL    HW2 3837   6.248   3.832   5.003  2.1833  0.0910 -1.8113
  980SOL     OW 3838   4.684   1.832   4.775  0.4609  0.5335 -0.9783
  980SOL    HW1 3839   4.710   1.813   4.869  1.6958  0.5374 -1.2941
  980SOL    HW2 3840   4.753   1.892   4.733  0.8624 -0.8355 -2.3682
  981SOL     OW 3841   1.028   0.020   4.587  0.2515 -0.2062 -0.1990
  981SOL    HW1 3842   1.006  -0.042   4.662 -2.5424  1.3821  0.4478
  981SOL    HW2 3843   0.975  -0.006   4.506  0.5656  0.1833 -0.5331
  982SOL     OW 3844   6.513   0.284   0.620  0.0663  0.6580 -0.5128
  982SOL    HW1 3845   6.463   0.210   0.663  1.9232 -0.5454 -0.3245
  982SOL    HW2 3846   6.530   0.262   0.524  0.6809  0.7747 -0.4413
  983SOL     OW 3847   6.170   4.183   1.741  0.1436 -0.3051 -0.6232
  983SOL    HW1 3848   6.215   4.202   1.654  1.2405 -0.9000 -0.2106
  983SOL    HW2 3849   6.158   4.268   1.792  2.0804 -0.2523 -0.1639
  984SOL     OW 3850   0.590   5.068   4.328 -0.2934  0.5636  0.0094
  984SOL    HW1 3851   0.660   5.049   4.258 -0.8605 -1.6268 -0.0503
  984SOL    HW2 3852   0.577   4.986   4.384 -1.9618  1.3337  0.7875
  985SOL     OW 3853   6.029   4.990   6.362 -0.5741 -0.6351  0.3601
  985SOL    HW1 3854   6.000   5.082   6.337  0.1204 -0.3062  0.7432
  985SOL    HW2 3855   6.042   4.984   6.461  1.4848 -0.5121  0.1239
  986SOL     OW 3856   3.419   6.351   3.116 -0.3698  0.4794  0.3276
  986SOL    HW1 3857   3.465   6.263   3.122  1.5642  1.2892 -1.4028
  986SOL    HW2 3858   3.424   6.397   3.205 -1.8896 -1.3169  1.4022
  987SOL     OW 3859   2.375   5.899   6.134  0.1765  0.1242  0.4757
  987SOL    HW1 3860   2.372   5.819   6.193  1.0279 -1.6033 -1.6999
  987SOL    HW2 3861   2.302   5.892   6.065  3.4310 -1.7152 -3.1370
  988SOL     OW 3862   3.940   4.590   1.653 -0.6795 -0.7144 -0.5428
  988SOL    HW1 3863   3.947   4.508   1.710 -1.3819 -0.6974 -0.4308
  988SOL    HW2 3864   3.845   4.605   1.628 -1.0785  1.8214  2.0374
  989SOL     OW 3865   2.513   3.322   0.378  0.1960 -0.1105 -0.3063
  989SOL    HW1 3866   2.579   3.283   0.314  0.6691 -1.3595  0.8756
  989SOL    HW2 3867   2.423   3.282   0.362  0.2608 -0.2366 -0.3538
  990SOL     OW 3868   2.524   0.240   6.268 -0.0388  0.5262  0.0420
  990SOL    HW1 3869   2.477   0.179   6.204  0.5725  0.4330 -0.3265
  990SOL    HW2 3870   2.607   0.277   6.224  0.3998  0.4476  0.7900
  991SOL     OW 3871   1.170   6.669   3.598 -0.1173  0.0302  0.0445
  991SOL    HW1 3872   1.128   6.715   3.520 -2.6076 -0.3147  1.0984
  991SOL    HW2 3873   1.126   6.699   3.682  1.1503 -1.0767  1.1488
  992SOL     OW 3874   6.477   4.711   1.067  0.5063 -0.1029 -0.2357
  992SOL    HW1 3875   6.461   4.612   1.061  0.8348 -0.1010 -1.4057
  992SOL    HW2 3876   6.393   4.760   1.042  0.3310 -0.0852  0.3860
  993SOL     OW 3877   3.469   2.170   0.310 -0.5926  0.2373 -0.0199
  993SOL    HW1 3878   3.532   2.173   0.387 -0.1032  0.4092 -0.4201
  993SOL    HW2 3879   3.519   2.144   0.227 -1.7373 -3.7331  0.3364
  994SOL     OW 3880   1.186   6.806   2.572 -0.2337  0.1838  0.2311
  994SOL    HW1 3881   1.179   6.847   2.481  0.2211 -1.1412 -0.4258
  994SOL    HW2 3882   1.203   6.708   2.563  0.8671  0.2044  1.7399
  995SOL     OW 3883   5.124   3.972   4.831  0.1944  0.3116 -0.5265
  995SOL    HW1 3884   5.194   3.902   4.826  1.1405  1.2564 -0.7415
  995SOL    HW2 3885   5.164   4.062   4.814 -1.2552  0.7658 -1.8604
  996SOL     OW 3886   1.778   6.127   3.891  0.0763  0.2476 -0.0329
  996SOL    HW1 3887   1.825   6.130   3.979  0.1467  0.6296 -0.0813
  996SOL    HW2 3888   1.828   6.067   3.828 -0.7162 -1.1459  0.6067
  997SOL     OW 3889   1.384   0.169   3.358 -0.4820  0.0930  0.0162
  997SOL    HW1 3890   1.292   0.140   3.331 -0.2861  0.5866 -1.2441
  997SOL    HW2 3891   1.380   0.262   3.396 -0.3161  0.7908 -1.5815
  998SOL     OW 3892   4.663   5.583   6.894  0.0942  0.0525 -0.0787
  998SOL    HW1 3893   4.747   5.546   6.934 -1.8415 -1.2441  3.1511
  998SOL    HW2 3894   4.621   5.515   6.835  0.2305 -0.0781 -0.0251
  999SOL     OW 3895   0.170   2.684   3.326  0.1273 -0.5660 -0.0950
  999SOL    HW1 3896   0.163   2.733   3.413 -0.3415  0.2529 -0.5812
  999SOL    HW2 3897   0.266   2.663   3.307  0.1219 -2.0622  1.3095
 1000SOL     OW 3898   6.651   1.881   2.093  0.3571  0.7534 -0.0121
 1000SOL    HW1 3899   6.687   1.969   2.123 -0.9009  0.9598  0.9482
 1000SOL    HW2 3900   6.645   1.819   2.171  2.0303 -0.5050 -0.8144
 1001SOL     OW 3901   3.302   6.543   5.734  0.5028  0.1839 -0.4645
 1001SOL    HW1 3902   3.316   6.637   5.702 -0.7669  0.4643 -0.2643
 1001SOL    HW2 3903   3.264   6.545   5.827 -2.7791 -0.3673 -1.6826
 1002SOL     OW 3904   3.989   1.903   1.218 -0.3179 -0.2796 -0.2794
 1002SOL    HW1 3905   4.057   1.968   1.252 -0.3525 -0.9349  1.0673
 1002SOL    HW2 3906   4.030   1.848   1.145  0.3658 -0.1798  0.0208
 1003SOL     OW 3907   0.740   0.851   6.170  0.5610 -0.0993  0.5075
 1003SOL    HW1 3908   0.650   0.807   6.169 -0.3278  1.5621 -1.9268
 1003SOL    HW2 3909   0.800   0.807   6.104  1.3242 -0.7251  1.5929
 1004SOL     OW 3910   5.214   0.623   4.998 -0.0428 -0.3898  0.3134
 1004SOL    HW1 3911   5.190   0.527   5.011  2.7402 -1.1502  0.5771
 1004SOL    HW2 3912   5.312   0.630   4.978 -0.1507  2.4112  0.3701
 1005SOL     OW 3913   0.545   6.381   1.240  0.2289  0.1183  0.3225
 1005SOL    HW1 3914   0.623   6.414   1.187  0.6659 -0.2014  0.7630
 1005SOL    HW2 3915   0.543   6.428   1.328 -0.6954  0.9004 -0.1002
 1006SOL     OW 3916   1.828   2.950   2.116  0.2011 -0.1140 -0.4600
 1006SOL    HW1 3917   1.912   2.941   2.169 -0.8656  0.0749  1.3417
 1006SOL    HW2 3918   1.786   3.039   2.135 -0.8617 -0.5606 -0.6160
 1007SOL     OW 3919   3.710   5.535   0.543 -0.4127 -0.0758 -0.0424
 1007SOL    HW1 3920   3.710   5.635   0.552 -2.3726  0.0113 -0.5426
 1007SOL    HW2 3921   3.712   5.510   0.447 -0.8783 -0.4833  0.0464
 1008SOL     OW 3922   1.196   5.950   4.751 -0.0937 -0.5972  0.0317
 1008SOL    HW1 3923   1.220   5.853   4.762 -0.5122 -0.8913 -1.4553
 1008SOL    HW2 3924   1.103   5.965   4.784 -0.5494 -1.0160 -1.0152
 1009SOL     OW 3925   6.414   6.775   1.138 -0.4460 -0.0087  0.4213
 1009SOL    HW1 3926   6.373   6.732   1.057  0.6547 -1.8027  0.7659
 1009SOL    HW2 3927   6.506   6.808   1.115  0.2817 -1.4523  1.1710
 1010SOL     OW 3928   4.386   3.328   6.878  0.3964  0.2059  0.2963
 1010SOL    HW1 3929   4.427   3.244   6.842 -0.2084  0.1422 -0.2675
 1010SOL    HW2 3930   4.417   3.343   6.972  1.6366  0.1189 -0.0884
 1011SOL     OW 3931   1.486   3.637   2.804 -0.0985  0.0417 -0.1499
 1011SOL    HW1 3932   1.392   3.629   2.839  0.3618 -1.3577  0.8804
 1011SOL    HW2 3933   1.484   3.664   2.708 -1.6103 -1.1097 -0.4752
 1012SOL     OW 3934   0.184   0.664   3.169  0.3441  0.1224  0.1370
 1012SOL    HW1 3935   0.218   0.724   3.097  0.7487 -0.4964 -0.1969
 1012SOL    HW2 3936   0.232   0.576   3.165  0.7134  0.2338  1.4502
 1013SOL     OW 3937   0.163   1.572   6.008 -0.4785  0.5112 -0.6458
 1013SOL    HW1 3938   0.196   1.486   5.968 -0.1753  0.1280  0.3974
 1013SOL    HW2 3939   0.177   1.570   6.107  1.2523  2.4886 -0.7763
 1014SOL     OW 3940   2.304   4.610   5.392  0.3129  0.4936 -0.4182
 1014SOL    HW1 3941   2.257   4.529   5.426  1.3119 -0.1125 -0.4287
 1014SOL    HW2 3942   2.251   4.651   5.318 -1.4898  1.3645  1.2748
 1015SOL     OW 3943   5.068   0.030   5.102  0.0335  0.4771  0.5151
 1015SOL    HW1 3944   5.103  -0.028   5.028 -1.5176  1.3635 -0.9938
 1015SOL    HW2 3945   5.052  -0.026   5.184  1.4144 -0.6061  0.0688
 1016SOL     OW 3946   6.614   3.100   0.558  0.3200 -0.1769 -0.0955
 1016SOL    HW1 3947   6.581   3.043   0.633 -2.5562  1.5690  0.1332
 1016SOL    HW2 3948   6.675   3.171   0.594  0.2513 -0.3362  0.3381
 1017SOL     OW 3949   1.868   1.082   3.620  0.0920  0.2065 -0.6331
 1017SOL    HW1 3950   1.828   1.153   3.561 -1.2344  1.9038  2.0828
 1017SOL    HW2 3951   1.795   1.031   3.665  0.9183  0.8316  1.5795
 1018SOL     OW 3952   6.891   5.020   6.516 -0.2718 -0.4634 -0.0409
 1018SOL    HW1 3953   6.913   4.995   6.422 -1.6333  0.3740 -0.6215
 1018SOL    HW2 3954   6.889   5.120   6.524 -1.4331 -0.5092  0.5270
 1019SOL     OW 3955   1.278   3.918   2.014  0.5821 -0.1567  0.2062
 1019SOL    HW1 3956   1.308   4.002   1.970  1.5830 -0.4899  0.2181
 1019SOL    HW2 3957   1.187   3.893   1.980  0.9414  0.0815 -0.9873
 1020SOL     OW 3958   6.580   2.776   1.519  0.5112  0.8322  0.2408
 1020SOL    HW1 3959   6.544   2.754   1.610 -1.8815 -2.0253 -1.1929
 1020SOL    HW2 3960   6.599   2.873   1.513 -1.5701  1.5587  3.0612
 1021SOL     OW 3961   1.243   0.582   2.584  0.5624  0.1908  0.5823
 1021SOL    HW1 3962   1.213   0.649   2.652  0.6540  0.2371  0.5763
 1021SOL    HW2 3963   1.300   0.627   2.516 -3.3761  1.3073 -2.3428
 1022SOL     OW 3964   2.528   6.697   0.885  0.4545 -0.1466 -0.1267
 1022SOL    HW1 3965   2.575   6.661   0.965 -0.0309 -0.6721 -0.0740
 1022SOL    HW2 3966   2.593   6.704   0.809  0.7789 -0.1893  0.1430
 1023SOL     OW 3967   1.821   4.174   3.157  0.0126 -0.1703 -0.2581
 1023SOL    HW1 3968   1.871   4.160   3.072  2.1441  0.1817  0.8631
 1023SOL    HW2 3969   1.816   4.087   3.207  0.4433  0.0226  0.1201
 1024SOL     OW 3970   1.422   3.949   5.241 -0.2017  0.6897 -0.6051
 1024SOL    HW1 3971   1.516   3.978   5.219  0.8278 -0.9263  1.3911
 1024SOL    HW2 3972   1.383   3.901   5.162  0.5280  1.5832 -1.5468
 1025SOL     OW 3973   3.408   0.694   0.511 -0.0078 -0.0583  0.5716
 1025SOL    HW1 3974   3.375   0.781   0.549  0.7938 -0.5933  2.6602
 1025SOL    HW2 3975   3.506   0.700   0.494 -0.5103  0.5592 -2.7865
 1026SOL     OW 3976   2.791   1.702   0.706 -0.8966 -0.3506 -0.6634
 1026SOL    HW1 3977   2.745   1.614   0.696 -1.4589 -0.3536  1.4658
 1026SOL    HW2 3978   2.723   1.772   0.731 -0.0809  0.1064  0.3466
 1027SOL     OW 3979   5.808   0.682   6.846 -0.2307 -0.0082 -0.3365
 1027SOL    HW1 3980   5.729   0.737   6.820  0.6107  1.0314 -0.7824
 1027SOL    HW2 3981   5.785   0.626   6.925 -0.7674  1.8937  0.9209
 1028SOL     OW 3982   1.704   4.060   3.791 -0.4362 -0.4556  0.4880
 1028SOL    HW1 3983   1.608   4.083   3.806 -0.7620 -0.9214 -0.7045
 1028SOL    HW2 3984   1.710   3.983   3.728  0.7278 -0.3997  0.5029
 1029SOL     OW 3985   2.914   0.645   5.477 -0.0576  0.1479 -0.2125
 1029SOL    HW1 3986   2.848   0.719   5.486  1.4622  1.3735  1.6237
 1029SOL    HW2 3987   2.906   0.583   5.555  1.4227  0.7460  0.4489
 1030SOL     OW 3988   3.177   0.963   0.282  0.1768  0.1530  0.4196
 1030SOL    HW1 3989   3.119   1.014   0.218  0.1019 -0.5859 -0.1126
 1030SOL    HW2 3990   3.251   1.022   0.314  0.3899  0.4486 -0.5805
 1031SOL     OW 3991   2.866   3.361   0.419 -0.0877  0.2698 -0.2808
 1031SOL    HW1 3992   2.882   3.418   0.338  0.0661  0.6944  0.0518
 1031SOL    HW2 3993   2.926   3.390   0.493  0.1842 -0.4995 -0.1936
 1032SOL     OW 3994   1.319   2.654   0.910  0.2731  0.1864 -0.0536
 1032SOL    HW1 3995   1.342   2.750   0.928  0.2836 -0.0461  1.2688
 1032SOL    HW2 3996   1.291   2.610   0.995 -1.8381 -0.4416 -0.9940
 1033SOL     OW 3997   0.503   1.819   1.492 -0.4017  0.0952  0.0114
 1033SOL    HW1 3998   0.428   1.794   1.554  0.8185 -0.8000  1.1917
 1033SOL    HW2 3999   0.559   1.738   1.474  0.4442  0.8048 -0.6198
 1034SOL     OW 4000   1.616   1.614   4.751  0.6380  0.4261 -0.1416
 1034SOL    HW1 4001   1.698   1.670   4.737  1.0543 -0.0454  0.3859
 1034SOL    HW2 4002   1.632   1.522   4.716  0.6377  0.0938  0.6983
 1035SOL     OW 4003   3.282   6.019   6.232  0.6942  0.1130 -0.3345
 1035SOL    HW1 4004   3.238   5.997   6.145 -0.1011 -1.1753  0.3560
 1035SOL    HW2 4005   3.328   6.107   6.225 -0.0824  0.4360 -1.7895
 1036SOL     OW 4006   6.205   1.659   2.576 -0.5593 -0.6358  0.8824
 1036SOL    HW1 4007   6.206   1.663   2.476  0.8140  0.7674  0.9200
 1036SOL    HW2 4008   6.299   1.660   2.611 -0.9539  2.5568  2.2300
 1037SOL     OW 4009   0.564   5.387   2.741  0.3040 -0.2248 -0.3276
 1037SOL    HW1 4010   0.475   5.382   2.696  1.3608 -1.8393 -2.3742
 1037SOL    HW2 4011   0.561   5.457   2.813 -1.7365  1.8464 -2.2758
 1038SOL     OW 4012   2.051   0.130   0.384 -0.2896  0.1827  0.1412
 1038SOL    HW1 4013   1.956   0.129   0.352  0.2199 -1.6788 -1.5508
 1038SOL    HW2 4014   2.053   0.116   0.483 -1.7590 -1.3096  0.0133
 1039SOL     OW 4015   3.712   3.747   3.327 -0.1151 -0.1188  0.2178
 1039SOL    HW1 4016   3.724   3.846   3.328 -0.9060  0.0034 -0.9656
 1039SOL    HW2 4017   3.767   3.707   3.254  0.4749 -0.6043  0.9141
 1040SOL     OW 4018   4.873   2.018   5.475 -0.5205  0.5653 -0.2630
 1040SOL    HW1 4019   4.959   2.007   5.424 -1.8198  2.2642 -3.0650
 1040SOL    HW2 4020   4.891   2.063   5.562  1.6664 -1.2621  0.3118
 1041SOL     OW 4021   0.913   0.539   0.232 -0.8801  0.4805  0.2116
 1041SOL    HW1 4022   0.932   0.626   0.277 -0.4467  0.4153  0.1644
 1041SOL    HW2 4023   0.950   0.540   0.139  3.3862 -1.3294  1.6169
 1042SOL     OW 4024   4.984   3.612   4.027 -0.2171 -0.1003  0.5998
 1042SOL    HW1 4025   4.981   3.512   4.029 -0.1242 -0.1025  0.6185
 1042SOL    HW2 4026   5.076   3.644   4.051 -0.8438  0.0492  3.1004
 1043SOL     OW 4027   1.638   0.775   4.340 -0.3141  0.2203 -0.7644
 1043SOL    HW1 4028   1.632   0.796   4.242  2.0125  1.9895 -0.6109
 1043SOL    HW2 4029   1.687   0.848   4.387 -0.9724 -0.8095  1.6844
 1044SOL     OW 4030   6.272   4.207   0.763  0.9467  0.2890  0.3531
 1044SOL    HW1 4031   6.321   4.278   0.813  3.2804  0.3522 -1.8336
 1044SOL    HW2 4032   6.257   4.128   0.823  3.5325  0.3963  1.2566
 1045SOL     OW 4033   2.179   6.862   3.499 -0.3380  0.0974 -0.1163
 1045SOL    HW1 4034   2.246   6.789   3.485  0.3254  0.4416  1.1410
 1045SOL    HW2 4035   2.155   6.902   3.410 -0.2842 -1.2476 -0.7762
 1046SOL     OW 4036   3.123   4.327   6.592 -0.5401 -0.1032  0.0024
 1046SOL    HW1 4037   3.143   4.417   6.630 -0.7368 -0.1791  0.2904
 1046SOL    HW2 4038   3.168   4.317   6.503  2.1682 -0.9100  1.3679
 1047SOL     OW 4039   5.690   1.535   3.893 -0.6436 -0.0235 -0.2121
 1047SOL    HW1 4040   5.613   1.585   3.933 -0.5676 -0.9397  1.1437
 1047SOL    HW2 4041   5.776   1.579   3.918 -0.6252 -0.2574  0.1412
 1048SOL     OW 4042   5.144   1.359   1.322 -0.1401  0.0034 -0.2212
 1048SOL    HW1 4043   5.183   1.331   1.410 -1.3275 -0.8870  0.0466
 1048SOL    HW2 4044   5.053   1.398   1.337  0.3566  1.4658 -0.8969
 1049SOL     OW 4045   2.440   0.570   0.019  0.0346  0.2191  0.2864
 1049SOL    HW1 4046   2.381   0.608  -0.052 -0.9216  0.9389  1.4260
 1049SOL    HW2 4047   2.507   0.639   0.048  0.7300 -0.2292 -0.2350
 1050SOL     OW 4048   5.089   3.214   3.856  0.2498 -0.0469  0.2709
 1050SOL    HW1 4049   5.093   3.304   3.813  2.9027  0.6304  1.6987
 1050SOL    HW2 4050   5.041   3.222   3.944  1.3248  0.2318  0.8506
 1051SOL     OW 4051   2.166   1.730   4.935  0.1259 -0.2126 -0.4120
 1051SOL    HW1 4052   2.218   1.686   5.008  1.9669 -0.6570 -1.9001
 1051SOL    HW2 4053   2.071   1.741   4.963  0.5695 -1.1949  1.6625
 1052SOL     OW 4054   5.919   3.521   6.933 -1.0674 -0.1026  0.8091
 1052SOL    HW1 4055   5.927   3.616   6.903 -0.2876 -0.4379 -0.0974
 1052SOL    HW2 4056   5.847   3.475   6.880  0.1336 -0.6239 -0.4420
 1053SOL     OW 4057   6.095   3.648   4.748 -0.1179 -0.0551 -0.5911
 1053SOL    HW1 4058   5.997   3.640   4.766  0.3061 -0.8320  1.6841
 1053SOL    HW2 4059   6.142   3.682   4.829  1.6455 -0.8254 -1.2252
 1054SOL     OW 4060   5.197   5.999   5.878 -0.4158  0.4372  0.5382
 1054SOL    HW1 4061   5.154   5.995   5.788 -0.4938  0.0733  0.5862
 1054SOL    HW2 4062   5.127   6.016   5.947 -0.8528 -2.1000  0.8372
 1055SOL     OW 4063   5.270   5.652   5.665 -0.3250 -0.3782  0.1463
 1055SOL    HW1 4064   5.296   5.660   5.762 -0.4438 -2.1894  0.3582
 1055SOL    HW2 4065   5.198   5.719   5.645  0.7506  1.0586  0.9064
 1056SOL     OW 4066   3.289   2.960   0.305 -0.0027  0.1013 -0.5449
 1056SOL    HW1 4067   3.349   2.943   0.383 -2.2967 -1.9384  0.8904
 1056SOL    HW2 4068   3.241   2.876   0.280 -0.3235  1.0002 -3.3727
 1057SOL     OW 4069   3.670   5.423   5.432 -0.3721 -0.2007 -0.2057
 1057SOL    HW1 4070   3.754   5.375   5.453 -1.6927 -1.5790  2.4031
 1057SOL    HW2 4071   3.614   5.367   5.371 -0.3564 -0.3324 -0.1003
 1058SOL     OW 4072   3.013   1.847   2.220 -0.0618  0.4185  0.0209
 1058SOL    HW1 4073   2.918   1.842   2.252 -0.4016  0.4034 -0.9652
 1058SOL    HW2 4074   3.074   1.818   2.294 -0.8161  0.4257  0.6685
 1059SOL     OW 4075   2.330   6.384   3.761 -0.1000 -0.3746 -0.2365
 1059SOL    HW1 4076   2.396   6.311   3.741 -0.8190 -0.7633 -1.3071
 1059SOL    HW2 4077   2.340   6.456   3.692 -0.2076 -0.0312  0.1102
 1060SOL     OW 4078   4.938   0.123   6.196  0.0047 -0.0744  0.4679
 1060SOL    HW1 4079   4.918   0.027   6.176 -0.5855 -0.0402  0.8862
 1060SOL    HW2 4080   4.981   0.130   6.286 -0.6584  0.1201  0.7768
 1061SOL     OW 4081   2.129   4.707   6.187  0.3505 -0.4167  0.5370
 1061SOL    HW1 4082   2.193   4.722   6.262  0.4658 -1.4856  0.6664
 1061SOL    HW2 4083   2.064   4.635   6.213 -0.9716  0.6806  0.4415
 1062SOL     OW 4084   5.115   4.191   6.722  0.4815 -0.5330  0.1110
 1062SOL    HW1 4085   5.063   4.238   6.651  0.3375  0.3467  0.7837
 1062SOL    HW2 4086   5.213   4.208   6.709  0.4826 -0.6955 -0.1005
 1063SOL     OW 4087   1.031   5.523   3.934  0.1116 -0.1275 -0.2741
 1063SOL    HW1 4088   0.933   5.506   3.934 -0.0848  0.9593  0.1755
 1063SOL    HW2 4089   1.077   5.458   3.995 -0.2597 -0.9038 -0.7980
 1064SOL     OW 4090   0.189   3.101   6.695  1.0676 -0.0684  0.1216
 1064SOL    HW1 4091   0.118   3.146   6.641 -0.5660  0.3742  2.4765
 1064SOL    HW2 4092   0.148   3.028   6.750  2.7481 -0.8600  0.3795
 1065SOL     OW 4093   0.131   1.858   5.904  0.3399  0.1727 -0.0604
 1065SOL    HW1 4094   0.135   1.936   5.967 -0.9134 -0.8575  1.3348
 1065SOL    HW2 4095   0.182   1.781   5.942 -1.4246 -0.8610  0.3233
 1066SOL     OW 4096   4.756   6.175   1.108 -0.4058 -0.3546 -0.4556
 1066SOL    HW1 4097   4.657   6.181   1.092 -0.4271  0.0363 -0.2021
 1066SOL    HW2 4098   4.800   6.257   1.071 -0.2296 -0.3250 -0.1801
 1067SOL     OW 4099   4.315   6.930   0.635 -0.1389  0.4718 -0.2132
 1067SOL    HW1 4100   4.221   6.946   0.605 -0.2952  2.0936  0.9889
 1067SOL    HW2 4101   4.375   7.001   0.597  0.1592  0.8175  0.8403
 1068SOL     OW 4102   5.517   2.769   4.765 -0.2139 -0.0434  0.3362
 1068SOL    HW1 4103   5.460   2.787   4.685  0.3131 -0.9071 -0.2615
 1068SOL    HW2 4104   5.612   2.753   4.735  0.1327  0.3334  1.2051
 1069SOL     OW 4105   1.891   6.980   1.604  0.0327  0.2207 -0.7288
 1069SOL    HW1 4106   1.896   6.881   1.593 -1.3408  0.2936 -2.5090
 1069SOL    HW2 4107   1.927   7.024   1.521 -1.0559  1.1461 -0.7218
 1070SOL     OW 4108   3.565   0.003   4.092  0.4485 -0.1159  0.5712
 1070SOL    HW1 4109   3.570   0.075   4.161 -0.1925 -0.0672  0.5687
 1070SOL    HW2 4110   3.472  -0.033   4.087  0.8567 -1.3026  0.9409
 1071SOL     OW 4111   1.251   4.711   5.590  0.3009 -0.1207 -0.4063
 1071SOL    HW1 4112   1.199   4.795   5.607 -2.1141 -1.9136  1.9412
 1071SOL    HW2 4113   1.268   4.701   5.492 -0.9102  2.1829 -0.9232
 1072SOL     OW 4114   2.348   2.859   6.544 -0.2910  0.5392 -0.6444
 1072SOL    HW1 4115   2.413   2.926   6.580  1.1189 -0.6567 -0.8743
 1072SOL    HW2 4116   2.330   2.789   6.614  0.0968 -0.1247 -1.1938
 1073SOL     OW 4117   4.506   1.659   2.585  0.0851 -0.1110 -0.1545
 1073SOL    HW1 4118   4.561   1.656   2.502 -0.0591 -2.5757 -0.2135
 1073SOL    HW2 4119   4.421   1.709   2.567  1.0204  1.3280 -0.8099
 1074SOL     OW 4120   2.707   6.051   1.832  0.7896  0.7912  0.0389
 1074SOL    HW1 4121   2.777   6.002   1.884 -1.2527 -0.8379  1.3997
 1074SOL    HW2 4122   2.697   6.007   1.742  2.1085  1.6252 -0.5474
 1075SOL     OW 4123   5.876   2.863   5.748 -0.2744  0.7744 -0.2706
 1075SOL    HW1 4124   5.974   2.876   5.761 -0.6300  1.6634  2.0057
 1075SOL    HW2 4125   5.828   2.948   5.766 -1.4741  0.4669 -1.7747
 1076SOL     OW 4126   3.498   6.257   4.859 -0.2335 -0.6172 -0.2971
 1076SOL    HW1 4127   3.549   6.320   4.918 -2.2729  0.2346  0.6305
 1076SOL    HW2 4128   3.418   6.303   4.821 -1.6101 -2.5173  0.1244
 1077SOL     OW 4129   5.869   0.731   1.954 -0.3474 -0.2328  0.4610
 1077SOL    HW1 4130   5.864   0.733   2.054  0.2738 -0.6746  0.5090
 1077SOL    HW2 4131   5.919   0.650   1.925  2.2309  1.4516 -0.1002
 1078SOL     OW 4132   4.806   0.163   4.184  0.2729  0.2366  0.7543
 1078SOL    HW1 4133   4.777   0.119   4.099  0.5275 -0.5877  1.0845
 1078SOL    HW2 4134   4.898   0.201   4.172  1.2536 -1.8159  1.2907
 1079SOL     OW 4135   6.847   6.116   0.188  0.0430 -1.0647  0.2959
 1079SOL    HW1 4136   6.888   6.048   0.126 -0.2656 -1.3152  0.3603
 1079SOL    HW2 4137   6.747   6.113   0.178  0.0674  0.2395 -0.6035
 1080SOL     OW 4138   5.053   5.611   0.471  0.0957 -0.2210  0.0515
 1080SOL    HW1 4139   4.975   5.608   0.534  0.9246  0.8668  1.1938
 1080SOL    HW2 4140   5.119   5.540   0.496 -0.1781 -0.6484 -0.4339
 1081SOL     OW 4141   6.851   6.209   1.178  0.1854 -0.2149  0.2133
 1081SOL    HW1 4142   6.931   6.196   1.120  0.5931 -1.8679  1.0905
 1081SOL    HW2 4143   6.871   6.177   1.271 -0.3418  2.6668  1.4092
 1082SOL     OW 4144   4.494   0.528   6.663 -0.0094  0.6898 -0.3890
 1082SOL    HW1 4145   4.415   0.519   6.723  1.1461  0.4425  1.1666
 1082SOL    HW2 4146   4.577   0.542   6.718  0.9850  1.4388 -1.9708
 1083SOL     OW 4147   6.954   2.956   2.554  0.0126  0.1040 -0.0950
 1083SOL    HW1 4148   7.049   2.981   2.541  0.3556 -1.9880 -2.7281
 1083SOL    HW2 4149   6.945   2.894   2.632  0.4183  1.8675  1.4002
 1084SOL     OW 4150   5.275   0.200   4.576 -0.1940 -0.8660  1.1245
 1084SOL    HW1 4151   5.372   0.224   4.589 -0.4712 -0.5391  2.9217
 1084SOL    HW2 4152   5.218   0.271   4.617 -1.1875 -1.3571  0.6141
 1085SOL     OW 4153   2.937   3.888   4.992 -0.0923 -0.0831 -0.2523
 1085SOL    HW1 4154   2.865   3.894   4.922 -0.4494  0.2237  0.1373
 1085SOL    HW2 4155   2.975   3.795   4.993  0.7931  0.2275 -1.7118
 1086SOL     OW 4156   5.562   3.353   1.666 -0.3588  0.1016  0.3211
 1086SOL    HW1 4157   5.605   3.443   1.672 -2.2050  1.0232  0.2274
 1086SOL    HW2 4158   5.585   3.299   1.747  0.0045  0.9769  0.8075
 1087SOL     OW 4159   3.087   1.771   0.333  0.0327  0.1662 -0.0990
 1087SOL    HW1 4160   3.002   1.816   0.307  0.9444  1.9716 -0.0642
 1087SOL    HW2 4161   3.151   1.838   0.369  1.1576 -1.3042  0.7397
 1088SOL     OW 4162   5.979   4.762   4.768  0.2324 -0.3429  0.0002
 1088SOL    HW1 4163   5.954   4.786   4.863  1.2945 -0.1534  0.2450
 1088SOL    HW2 4164   6.053   4.695   4.769  1.3118  0.8071 -0.6819
 1089SOL     OW 4165   5.693   4.238   3.786  0.1245  0.1998 -0.6198
 1089SOL    HW1 4166   5.759   4.227   3.712 -0.3034 -0.5662 -0.8944
 1089SOL    HW2 4167   5.613   4.288   3.753  0.1690  0.3393 -0.5205
 1090SOL     OW 4168   5.767   2.691   5.562  0.3971  0.2301  0.6172
 1090SOL    HW1 4169   5.670   2.668   5.574  0.7029 -1.5080 -0.0107
 1090SOL    HW2 4170   5.796   2.751   5.637 -1.3681  1.5527  0.3116
 1091SOL     OW 4171   1.932   2.814   4.481 -0.6682  0.4611  0.3052
 1091SOL    HW1 4172   1.982   2.856   4.406  1.4357 -0.2366  1.2020
 1091SOL    HW2 4173   1.919   2.881   4.554  0.1060  0.3472  0.5628
 1092SOL     OW 4174   1.841   5.774   6.318  0.3257  0.2648  0.4204
 1092SOL    HW1 4175   1.757   5.742   6.274  1.3248 -1.3625 -0.3770
 1092SOL    HW2 4176   1.915   5.774   6.252  1.0485  1.4315  1.1881
 1093SOL     OW 4177   2.303   6.602   0.353 -0.0746 -0.4692  0.5497
 1093SOL    HW1 4178   2.203   6.595   0.360  0.1255 -2.5111  2.2551
 1093SOL    HW2 4179   2.330   6.599   0.257 -1.6101 -0.7241  0.0954
 1094SOL     OW 4180   0.345   0.540   5.522  0.1126 -0.0683  0.3977
 1094SOL    HW1 4181   0.427   0.491   5.551 -0.5486  0.1570  2.9438
 1094SOL    HW2 4182   0.276   0.475   5.489  0.1510 -0.6067  1.3515
 1095SOL     OW 4183   0.495   6.243   1.901  0.4368  0.0609 -0.9496
 1095SOL    HW1 4184   0.423   6.255   1.832 -0.7239 -0.2779  0.1678
 1095SOL    HW2 4185   0.465   6.176   1.969  1.7259  0.0864 -0.3334
 1096SOL     OW 4186   2.269   4.839   2.465 -0.0455  0.0025 -0.7007
 1096SOL    HW1 4187   2.231   4.766   2.522 -0.0974  0.9675  0.5617
 1096SOL    HW2 4188   2.354   4.807   2.423  0.1620 -0.6577  0.1722
 1097SOL     OW 4189   2.656   4.986   5.066  0.8679 -0.2578  0.6837
 1097SOL    HW1 4190   2.696   4.907   5.021  1.2857  0.2934  0.0751
 1097SOL    HW2 4191   2.727   5.038   5.113  0.9149  0.7808 -0.4852
 1098SOL     OW 4192   5.842   2.885   0.590  0.2458  0.0605  0.4666
 1098SOL    HW1 4193   5.894   2.801   0.575  0.6688  0.3694  0.1887
 1098SOL    HW2 4194   5.755   2.863   0.634  0.4171 -0.5071  0.5269
 1099SOL     OW 4195   6.673   0.183   1.783  0.0812 -0.5950  0.3282
 1099SOL    HW1 4196   6.701   0.189   1.687 -0.9408 -1.6619 -0.0721
 1099SOL    HW2 4197   6.663   0.275   1.821  0.2219 -0.1503 -0.6722
 1100SOL     OW 4198   5.231   0.694   3.577 -0.1286 -0.2865 -0.1161
 1100SOL    HW1 4199   5.148   0.660   3.620 -0.1351 -2.3027 -1.5767
 1100SOL    HW2 4200   5.229   0.794   3.574 -3.2929 -0.2699 -1.4911
 1101SOL     OW 4201   3.917   1.006   0.768 -0.0661  0.2678  0.1811
 1101SOL    HW1 4202   3.870   1.094   0.762  1.2556  0.9165 -1.8367
 1101SOL    HW2 4203   3.927   0.967   0.677  1.2140 -0.9590  0.8032
 1102SOL     OW 4204   5.833   0.335   5.597 -0.0878  0.2669 -0.4777
 1102SOL    HW1 4205   5.832   0.364   5.501  0.4561  1.4691 -0.1383
 1102SOL    HW2 4206   5.795   0.408   5.654 -0.9440 -0.6607  0.1828
 1103SOL     OW 4207   1.538   5.526   0.345  0.2870  0.5627 -0.2265
 1103SOL    HW1 4208   1.609   5.456   0.358  1.1505  0.8595 -2.8671
 1103SOL    HW2 4209   1.448   5.483   0.352  0.6267  0.1538  3.0227
 1104SOL     OW 4210   6.299   6.203   5.469 -0.4353  0.1342  0.0830
 1104SOL    HW1 4211   6.274   6.210   5.566 -2.3627  0.1417 -0.3756
 1104SOL    HW2 4212   6.373   6.267   5.449  0.7497 -0.6180  1.7596
 1105SOL     OW 4213   3.376   0.588   6.707  0.7612  0.2061 -0.2594
 1105SOL    HW1 4214   3.302   0.632   6.757  1.1688  1.0959 -0.4257
 1105SOL    HW2 4215   3.372   0.489   6.722  1.4915  0.5131  2.4150
 1106SOL     OW 4216   5.823   6.326   4.591 -0.1147 -0.4662 -0.0655
 1106SOL    HW1 4217   5.800   6.421   4.614 -2.4223 -1.1601  0.7795
 1106SOL    HW2 4218   5.804   6.268   4.670  1.0096 -1.6951 -0.6691
 1107SOL     OW 4219   3.504   1.308   5.299  0.0256  0.0841 -0.1433
 1107SOL    HW1 4220   3.527   1.238   5.367 -1.8689  0.7185  1.2348
 1107SOL    HW2 4221   3.446   1.268   5.228  1.8982 -0.5474 -1.3959
 1108SOL     OW 4222   1.462   1.212   0.372  0.2890 -0.3787 -0.3136
 1108SOL    HW1 4223   1.417   1.146   0.432 -1.4063 -0.0417 -1.1651
 1108SOL    HW2 4224   1.505   1.164   0.296 -2.4143 -0.4886 -1.8877
 1109SOL     OW 4225   6.618   2.863   3.340  0.5005  0.6675  0.1288
 1109SOL    HW1 4226   6.604   2.920   3.420  1.1305  2.5718 -1.0645
 1109SOL    HW2 4227   6.615   2.766   3.367  3.9891  1.1479  3.0835
 1110SOL     OW 4228   2.213   6.722   2.504  0.1847  0.0423 -0.9692
 1110SOL    HW1 4229   2.180   6.808   2.541 -0.3929 -0.0794 -1.1977
 1110SOL    HW2 4230   2.263   6.672   2.575  0.3277  0.4578 -0.7740
 1111SOL     OW 4231   5.448   2.287   6.166  0.0579 -0.0736  0.6190
 1111SOL    HW1 4232   5.360   2.276   6.212 -0.5169  1.8039  0.0156
 1111SOL    HW2 4233   5.472   2.384   6.161  2.5119 -0.5610  1.3820
 1112SOL     OW 4234   6.118   2.144   1.004  0.0114  0.6337 -0.1022
 1112SOL    HW1 4235   6.208   2.158   0.962  1.0600 -2.0203  1.0326
 1112SOL    HW2 4236   6.131   2.107   1.096 -2.2534 -1.0528 -0.3937
 1113SOL     OW 4237   6.546   6.550   3.148 -0.1976 -0.3604  0.4187
 1113SOL    HW1 4238   6.595   6.503   3.075  2.0062 -0.5621  1.9348
 1113SOL    HW2 4239   6.601   6.549   3.231 -0.4678  3.9564  0.8743
 1114SOL     OW 4240   2.978   3.168   4.713 -0.2987  0.1835  0.6933
 1114SOL    HW1 4241   3.069   3.176   4.755 -0.7085  1.1244  1.4598
 1114SOL    HW2 4242   2.909   3.167   4.785 -1.0359  1.8776  0.0652
 1115SOL     OW 4243   1.741   6.308   6.953  0.0345 -0.1090 -0.8769
 1115SOL    HW1 4244   1.735   6.332   6.856 -3.2755  0.0916 -0.7334
 1115SOL    HW2 4245   1.700   6.218   6.967  0.3035 -0.0457  0.3669
 1116SOL     OW 4246   5.290   6.944   0.945 -0.3665  0.4944  0.3081
 1116SOL    HW1 4247   5.253   6.937   1.038 -0.8017  0.8105  0.1665
 1116SOL    HW2 4248   5.390   6.946   0.949 -0.3593 -0.3452  0.7035
 1117SOL     OW 4249   2.212   2.676   1.240  0.3799 -0.3996  0.0233
 1117SOL    HW1 4250   2.159   2.606   1.193  0.3034  1.2650 -2.5719
 1117SOL    HW2 4251   2.150   2.744   1.280  0.4993 -0.7389  0.8042
 1118SOL     OW 4252   4.569   0.019   6.324  1.1112  0.1815  0.7116
 1118SOL    HW1 4253   4.503  -0.038   6.373  1.7388  1.2159  2.8566
 1118SOL    HW2 4254   4.539   0.030   6.229 -0.3154 -1.6309  0.8901
 1119SOL     OW 4255   2.142   0.486   3.654  0.0317 -0.0914  0.3470
 1119SOL    HW1 4256   2.178   0.568   3.611 -0.2378 -0.8682 -1.4316
 1119SOL    HW2 4257   2.184   0.474   3.744  1.9105  0.6599 -0.3887
 1120SOL     OW 4258   0.801   2.824   2.641 -0.1432 -0.1209  0.3834
 1120SOL    HW1 4259   0.703   2.833   2.660 -0.1131  0.9504  0.1027
 1120SOL    HW2 4260   0.851   2.811   2.727 -0.5690 -1.1801  0.4851
 1121SOL     OW 4261   5.011   4.252   6.951  0.1980 -0.0057 -0.5613
 1121SOL    HW1 4262   5.063   4.229   7.033 -0.4530 -1.4631 -0.5285
 1121SOL    HW2 4263   5.061   4.220   6.870 -0.5152 -1.1986 -0.5439
 1122SOL     OW 4264   4.715   6.737   2.223  0.2478  0.2422 -0.5801
 1122SOL    HW1 4265   4.742   6.709   2.131  2.3403  2.0253 -0.6057
 1122SOL    HW2 4266   4.791   6.718   2.286 -0.6236  0.3285  0.5226
 1123SOL     OW 4267   2.041   1.226   6.505 -0.7760 -0.5690 -0.0098
 1123SOL    HW1 4268   2.058   1.297   6.573 -0.2254 -0.3200 -0.4056
 1123SOL    HW2 4269   2.049   1.264   6.413 -0.2513 -1.1901 -0.2306
 1124SOL     OW 4270   2.731   1.877   4.362 -0.0478 -0.2230 -0.4678
 1124SOL    HW1 4271   2.762   1.862   4.456 -1.2304  0.1142 -0.0079
 1124SOL    HW2 4272   2.797   1.936   4.315 -0.0464  0.6308  0.5399
 1125SOL     OW 4273   2.058   2.907   4.886 -0.1572 -0.1542  0.1904
 1125SOL    HW1 4274   2.148   2.868   4.872 -0.2848 -0.2761 -0.3137
 1125SOL    HW2 4275   2.067   3.001   4.919  0.1479 -0.4857  1.0710
 1126SOL     OW 4276   6.461   3.917   1.958  0.4642 -0.3332 -0.6361
 1126SOL    HW1 4277   6.472   3.845   2.026 -0.0033 -0.6293 -0.8637
 1126SOL    HW2 4278   6.548   3.934   1.912  1.2661  1.2310  1.3646
 1127SOL     OW 4279   4.301   6.566   1.701 -0.1833  0.3415  0.5598
 1127SOL    HW1 4280   4.395   6.533   1.710  0.1320  0.9535 -0.3738
 1127SOL    HW2 4281   4.262   6.533   1.615 -0.9753 -0.2453  1.1320
 1128SOL     OW 4282   3.443   1.489   6.629 -0.6571  0.2609  0.4314
 1128SOL    HW1 4283   3.386   1.567   6.651  0.5147  1.3152 -0.1141
 1128SOL    HW2 4284   3.470   1.493   6.532  0.2750 -0.2153  0.6530
 1129SOL     OW 4285   0.797   0.264   6.735  0.5710 -0.8163  0.0082
 1129SOL    HW1 4286   0.882   0.266   6.682  1.3266  1.6649  1.2074
 1129SOL    HW2 4287   0.815   0.223   6.824  0.1895 -1.4508 -0.2011
 1130SOL     OW 4288   1.033   6.983   0.259 -0.1523 -0.3817 -0.2916
 1130SOL    HW1 4289   1.014   7.070   0.304  0.3373  0.0949 -0.9816
 1130SOL    HW2 4290   0.956   6.957   0.201 -1.2990 -1.5754  1.6250
 1131SOL     OW 4291   1.091   6.436   2.881 -0.4080 -0.7281  0.4820
 1131SOL    HW1 4292   1.137   6.383   2.810 -0.5705  0.3535 -0.4739
 1131SOL    HW2 4293   1.153   6.452   2.957  0.5275 -0.0523 -0.3937
 1132SOL     OW 4294   3.205   1.350   2.524  0.2994  1.0333  0.1139
 1132SOL    HW1 4295   3.206   1.447   2.545 -3.8153  1.4489 -0.6637
 1132SOL    HW2 4296   3.129   1.307   2.573  0.6293 -1.3275 -1.2936
 1133SOL     OW 4297   0.794   5.332   0.795  0.1124 -0.0226  0.3839
 1133SOL    HW1 4298   0.858   5.273   0.844  0.1964 -0.9190 -0.7604
 1133SOL    HW2 4299   0.808   5.322   0.696 -0.2262  1.5402  0.1497
 1134SOL     OW 4300   1.504   4.195   1.067  0.9977  0.9936 -0.0541
 1134SOL    HW1 4301   1.410   4.227   1.080  1.3084  1.3512  1.4729
 1134SOL    HW2 4302   1.562   4.232   1.139  1.7754 -1.4228  0.6408
 1135SOL     OW 4303   2.329   4.182   2.589  0.1893  0.0011 -0.2107
 1135SOL    HW1 4304   2.327   4.129   2.504  1.2246  0.2267 -0.3835
 1135SOL    HW2 4305   2.410   4.240   2.590  0.1069  0.1080  0.8753
 1136SOL     OW 4306   1.317   3.879   4.167  0.4556  0.0331 -0.5225
 1136SOL    HW1 4307   1.382   3.803   4.164 -1.1525 -1.3720 -1.3400
 1136SOL    HW2 4308   1.234   3.850   4.215 -0.2904  1.2110 -1.0570
 1137SOL     OW 4309   0.727   4.198   5.499  0.7378  0.5835  0.5798
 1137SOL    HW1 4310   0.667   4.199   5.419  0.4717  2.4860  0.7498
 1137SOL    HW2 4311   0.672   4.196   5.582  0.7538  3.4234  0.7631
 1138SOL     OW 4312   3.050   5.670   4.659 -0.0279  0.4507  0.5442
 1138SOL    HW1 4313   3.061   5.654   4.561  0.4844  0.2633  0.6300
 1138SOL    HW2 4314   3.124   5.729   4.692  1.0880 -1.2386  1.2308
 1139SOL     OW 4315   4.431   0.038   4.273  0.8422  0.0033  0.2072
 1139SOL    HW1 4316   4.435   0.137   4.291  1.2092  0.0692 -0.2118
 1139SOL    HW2 4317   4.515  -0.005   4.306  0.5969 -0.2082  0.5736
 1140SOL     OW 4318   2.225   2.728   6.818  0.1794  0.2101 -0.5166
 1140SOL    HW1 4319   2.263   2.817   6.843  0.5336 -0.2983  0.8313
 1140SOL    HW2 4320   2.138   2.714   6.866 -0.6804  0.4666 -1.9380
 1141SOL     OW 4321   5.355   4.746   6.601  0.0353  0.1400  0.0998
 1141SOL    HW1 4322   5.320   4.688   6.674 -0.8885  0.6013  0.0477
 1141SOL    HW2 4323   5.327   4.841   6.617 -0.7826  0.1520 -1.1849
 1142SOL     OW 4324   0.659   6.710   2.764  0.0541 -0.6329  0.4291
 1142SOL    HW1 4325   0.661   6.771   2.685 -0.2315  1.2285  1.7991
 1142SOL    HW2 4326   0.753   6.687   2.791  0.2178  0.3304  0.7169
 1143SOL     OW 4327   6.084   3.779   1.946 -0.2821 -0.1371 -0.3093
 1143SOL    HW1 4328   6.123   3.836   1.874  0.0975 -0.7850 -0.6314
 1143SOL    HW2 4329   6.088   3.683   1.918  1.1601 -0.5462  1.1306
 1144SOL     OW 4330   6.168   4.852   4.418 -0.2801  0.2886  0.2657
 1144SOL    HW1 4331   6.190   4.795   4.497  0.5363 -0.3141 -0.3804
 1144SOL    HW2 4332   6.070   4.850   4.401 -0.3839 -0.0745  0.8861
 1145SOL     OW 4333   6.203   1.523   0.814 -0.5605  0.0401  0.0977
 1145SOL    HW1 4334   6.252   1.508   0.900  0.7868  1.3468 -0.4074
 1145SOL    HW2 4335   6.251   1.475   0.740 -0.9685  0.0092 -0.1482
 1146SOL     OW 4336   1.787   6.852   1.275  0.0342  0.0098  0.0994
 1146SOL    HW1 4337   1.724   6.851   1.352 -0.5495 -0.2789 -0.3700
 1146SOL    HW2 4338   1.844   6.769   1.278  0.0185  0.0041  0.2289
 1147SOL     OW 4339   1.934   4.245   6.235  0.3389 -0.2039  0.4025
 1147SOL    HW1 4340   1.920   4.153   6.273  0.9271 -1.6004 -2.4304
 1147SOL    HW2 4341   2.024   4.279   6.262  0.0192 -0.3213  1.6805
 1148SOL     OW 4342   2.619   6.417   2.108 -0.2477 -0.3660 -0.4362
 1148SOL    HW1 4343   2.679   6.457   2.177 -1.9090 -0.7962  1.3705
 1148SOL    HW2 4344   2.584   6.488   2.048  1.0816  0.0509 -0.7476
 1149SOL     OW 4345   4.751   1.285   1.662  0.1798 -0.0790 -0.2035
 1149SOL    HW1 4346   4.672   1.311   1.716 -0.0089  0.8622 -0.9066
 1149SOL    HW2 4347   4.824   1.352   1.674  1.2017 -1.3325  1.0466
 1150SOL     OW 4348   2.363   2.438   0.120  0.2472  0.2502 -0.7698
 1150SOL    HW1 4349   2.412   2.361   0.161 -0.1356  0.6293  0.4463
 1150SOL    HW2 4350   2.348   2.509   0.189 -0.4960  0.8871 -1.5552
 1151SOL     OW 4351   5.916   5.944   3.006  0.0354 -0.4860  0.2227
 1151SOL    HW1 4352   6.013   5.946   2.981  0.4675 -0.5135  1.8079
 1151SOL    HW2 4353   5.901   5.874   3.076 -0.5936  1.3359  1.9974
 1152SOL     OW 4354   2.394   6.702   3.471  0.0642 -0.1825 -0.1702
 1152SOL    HW1 4355   2.442   6.734   3.390  2.9507 -1.9696  0.7143
 1152SOL    HW2 4356   2.454   6.707   3.551 -1.3299 -2.1672  1.1079
 1153SOL     OW 4357   3.852   6.189   0.973  0.9355 -0.1814  0.3746
 1153SOL    HW1 4358   3.904   6.220   1.052  0.3569  0.2944  0.5767
 1153SOL    HW2 4359   3.754   6.191   0.994  0.8516 -1.6057  0.1916
 1154SOL     OW 4360   0.464   2.742   1.304  0.4542  0.2631  0.2423
 1154SOL    HW1 4361   0.510   2.784   1.382  2.0681  0.2695 -0.6680
 1154SOL    HW2 4362   0.420   2.813   1.249  0.7367  0.4399  0.2465
 1155SOL     OW 4363   4.787   6.857   3.393  0.0147  0.3814 -0.7521
 1155SOL    HW1 4364   4.763   6.940   3.342 -0.9588  0.0658 -0.8422
 1155SOL    HW2 4365   4.880   6.829   3.371  0.8054  2.1218  0.1972
 1156SOL     OW 4366   2.800   6.326   2.890 -0.0189  0.4828 -0.3072
 1156SOL    HW1 4367   2.856   6.396   2.846  0.1083  0.9741  0.5981
 1156SOL    HW2 4368   2.784   6.352   2.986  0.4859 -0.9918  0.2034
 1157SOL     OW 4369   2.550   2.288   0.964 -0.5608 -0.0589  0.0209
 1157SOL    HW1 4370   2.560   2.226   0.886  0.3399  0.4499 -0.2888
 1157SOL    HW2 4371   2.613   2.365   0.953  0.7601 -0.7740  2.0379
 1158SOL     OW 4372   5.739   3.362   3.318  0.1891 -0.0108 -0.1558
 1158SOL    HW1 4373   5.759   3.270   3.283  0.0224 -0.0111 -0.2527
 1158SOL    HW2 4374   5.643   3.366   3.347  0.0571  0.2825 -0.6249
 1159SOL     OW 4375   4.967   5.812   1.224  0.1137 -0.2877 -0.6461
 1159SOL    HW1 4376   4.871   5.838   1.213  0.4119  2.1746  1.4807
 1159SOL    HW2 4377   4.973   5.719   1.261 -1.4566 -0.4880 -0.8381
 1160SOL     OW 4378   1.535   2.859   0.258  0.5947  0.3152 -0.1321
 1160SOL    HW1 4379   1.613   2.844   0.319 -0.3040  1.1302  1.2846
 1160SOL    HW2 4380   1.549   2.944   0.207  1.4109 -0.4365 -1.2190
 1161SOL     OW 4381   1.434   6.244   0.088  0.4210  0.5574  0.5094
 1161SOL    HW1 4382   1.365   6.190   0.135  0.2522  0.1653 -0.1836
 1161SOL    HW2 4383   1.402   6.268  -0.004  1.1050  0.5729  0.2686
 1162SOL     OW 4384   0.813   2.974   5.040 -0.4409  0.3663  0.0484
 1162SOL    HW1 4385   0.861   3.013   5.119 -0.5491  0.3757  0.1096
 1162SOL    HW2 4386   0.812   2.874   5.047 -3.2596  0.4067  1.7565
 1163SOL     OW 4387   5.370   1.502   1.845 -0.4711  0.0444 -0.3225
 1163SOL    HW1 4388   5.310   1.557   1.788  0.1001 -1.1293 -2.1267
 1163SOL    HW2 4389   5.464   1.534   1.837 -0.3589 -0.2360 -0.1636
 1164SOL     OW 4390   4.654   2.550   6.440  0.3727  0.4500  0.7159
 1164SOL    HW1 4391   4.735   2.504   6.478  0.0132  0.7436  1.8631
 1164SOL    HW2 4392   4.624   2.622   6.502 -2.1934 -1.1812  1.5661
 1165SOL     OW 4393   4.549   1.121   4.332 -0.4598 -0.1927  0.2447
 1165SOL    HW1 4394   4.585   1.212   4.310 -1.7998  0.1015 -0.8751
 1165SOL    HW2 4395   4.450   1.127   4.349 -0.2869 -1.1985  1.7732
 1166SOL     OW 4396   5.249   2.746   0.011 -0.2797  0.0168  0.7130
 1166SOL    HW1 4397   5.207   2.797  -0.064  3.2779  1.7786 -0.3187
 1166SOL    HW2 4398   5.203   2.768   0.097 -3.2224 -0.5488 -0.5939
 1167SOL     OW 4399   4.920   3.857   3.770  0.2179  0.8786  0.6215
 1167SOL    HW1 4400   4.867   3.914   3.832  0.4482 -0.0851  1.7385
 1167SOL    HW2 4401   4.956   3.778   3.820  1.1951  0.5688 -0.5257
 1168SOL     OW 4402   1.301   0.836   1.065 -0.4396  0.4043 -0.0996
 1168SOL    HW1 4403   1.244   0.769   1.019  0.7450 -1.6075  1.2164
 1168SOL    HW2 4404   1.244   0.903   1.112 -1.6566  0.3093 -1.4113
 1169SOL     OW 4405   6.080   2.912   4.740  0.1346  0.4950  0.2810
 1169SOL    HW1 4406   6.012   2.917   4.668  0.1382 -0.5294  0.1845
 1169SOL    HW2 4407   6.037   2.883   4.826  0.7685 -2.9007 -0.3903
 1170SOL     OW 4408   6.546   3.299   2.477 -0.2244 -0.4323  0.8664
 1170SOL    HW1 4409   6.461   3.247   2.485  0.2313 -1.5753 -1.0526
 1170SOL    HW2 4410   6.623   3.237   2.471  0.4505  0.4794 -0.3209
 1171SOL     OW 4411   1.633   6.664   6.374 -0.3171 -0.2337  0.5060
 1171SOL    HW1 4412   1.712   6.605   6.393 -1.1407 -1.9186 -0.9437
 1171SOL    HW2 4413   1.581   6.680   6.458  0.5572 -0.6406  1.1311
 1172SOL     OW 4414   6.446   2.935   3.742 -0.6881  0.5916  0.7308
 1172SOL    HW1 4415   6.393   3.011   3.780 -0.2624  1.3046 -0.0673
 1172SOL    HW2 4416   6.527   2.971   3.696  0.0755 -0.4308  1.2402
 1173SOL     OW 4417   3.960   4.318   0.475  0.5830 -0.0904  0.4903
 1173SOL    HW1 4418   4.017   4.396   0.447  0.0711  0.7731  1.7529
 1173SOL    HW2 4419   4.019   4.238   0.491  1.2417  0.3196  0.1710
 1174SOL     OW 4420   2.852   4.887   1.337 -0.6537 -0.5943  0.5688
 1174SOL    HW1 4421   2.945   4.921   1.320 -0.0262 -1.5763  1.8740
 1174SOL    HW2 4422   2.794   4.964   1.365 -0.4239  0.1375 -0.8478
 1175SOL     OW 4423   3.942   3.787   2.718 -0.3738 -0.4306 -0.0888
 1175SOL    HW1 4424   3.978   3.704   2.677 -0.1533 -1.0089  1.2519
 1175SOL    HW2 4425   3.957   3.786   2.817  0.9743  1.8571 -0.1769
 1176SOL     OW 4426   5.503   2.905   6.636  0.0921 -0.0648 -0.4773
 1176SOL    HW1 4427   5.519   2.830   6.572  1.8201  1.3571 -1.8165
 1176SOL    HW2 4428   5.521   2.873   6.729 -0.5795 -1.6617 -0.8642
 1177SOL     OW 4429   0.896   6.817   4.424  0.1863  0.2324  0.2820
 1177SOL    HW1 4430   0.922   6.736   4.477  2.0240 -0.1431 -1.1108
 1177SOL    HW2 4431   0.830   6.792   4.354 -0.0465  0.1568  0.5276
 1178SOL     OW 4432   3.339   6.162   0.778 -0.5162 -0.1734 -0.0498
 1178SOL    HW1 4433   3.313   6.258   0.779  2.5656  0.7867  0.9618
 1178SOL    HW2 4434   3.333   6.127   0.684 -0.9599  1.2193 -0.5730
 1179SOL     OW 4435   6.895   5.900   0.357  0.3294  0.4310 -0.3440
 1179SOL    HW1 4436   6.860   5.986   0.319 -0.3608  0.3367  0.0672
 1179SOL    HW2 4437   6.973   5.869   0.302 -0.5315  0.3951 -1.5737
 1180SOL     OW 4438   3.622   5.227   0.494  0.3273 -0.0123 -0.1214
 1180SOL    HW1 4439   3.553   5.289   0.531 -0.2070  0.1375 -1.3348
 1180SOL    HW2 4440   3.581   5.139   0.473  0.5575 -0.0067 -0.6137
 1181SOL     OW 4441   0.110   5.586   5.621 -0.1738  0.4195  0.4116
 1181SOL    HW1 4442   0.197   5.549   5.590 -0.4844 -0.3888  0.4733
 1181SOL    HW2 4443   0.109   5.686   5.608  0.3541  0.3131 -0.5575
 1182SOL     OW 4444   5.644   3.289   4.006 -0.3304  0.1568 -0.5152
 1182SOL    HW1 4445   5.744   3.289   4.002 -0.1653 -2.3562  1.0333
 1182SOL    HW2 4446   5.614   3.333   4.091 -0.5281  0.5544 -0.7892
 1183SOL     OW 4447   0.229   2.649   1.448 -0.0686  0.0686 -0.3125
 1183SOL    HW1 4448   0.319   2.678   1.416 -0.0379 -0.8445 -1.0850
 1183SOL    HW2 4449   0.235   2.618   1.543  0.2556  0.8061 -0.0868
 1184SOL     OW 4450   0.053   0.396   4.545  0.4716 -0.2105 -0.1157
 1184SOL    HW1 4451   0.020   0.444   4.626  0.1941  0.3208 -0.5360
 1184SOL    HW2 4452  -0.002   0.422   4.466  1.5090  0.2258 -0.7113
 1185SOL     OW 4453   0.579   1.620   0.486 -0.3948 -0.0899 -0.0153
 1185SOL    HW1 4454   0.519   1.546   0.456  0.8455 -0.7975 -0.8424
 1185SOL    HW2 4455   0.585   1.621   0.586 -0.3552 -1.1546 -0.0040
 1186SOL     OW 4456   4.807   0.522   3.098  0.1831 -0.2411  0.1807
 1186SOL    HW1 4457   4.812   0.588   3.023 -0.5962 -1.7095 -1.2326
 1186SOL    HW2 4458   4.856   0.438   3.072  1.6562 -0.0778  2.1560
 1187SOL     OW 4459   5.240   2.209   6.606 -0.2989  0.4209  0.5269
 1187SOL    HW1 4460   5.294   2.244   6.683  0.1946  1.5957 -0.3185
 1187SOL    HW2 4461   5.257   2.110   6.596 -1.4621 -0.0556  2.7563
 1188SOL     OW 4462   4.645   2.176   5.902  0.3028  0.1439  0.0565
 1188SOL    HW1 4463   4.692   2.179   5.990  1.9916 -1.2632 -0.7163
 1188SOL    HW2 4464   4.570   2.111   5.906  1.2459 -0.9711  0.1087
 1189SOL     OW 4465   5.658   3.293   3.635 -0.1458  0.1380 -0.4375
 1189SOL    HW1 4466   5.691   3.373   3.687  0.0367 -0.6079  0.6358
 1189SOL    HW2 4467   5.710   3.212   3.663  0.2624 -0.2181 -2.1429
 1190SOL     OW 4468   1.760   1.799   3.192 -0.0887 -0.3382  0.0238
 1190SOL    HW1 4469   1.700   1.766   3.119 -4.9222  3.2822  1.8096
 1190SOL    HW2 4470   1.818   1.873   3.158 -2.1232  1.1455 -0.4311
 1191SOL     OW 4471   4.881   0.697   3.357  0.0844  0.1995 -0.4686
 1191SOL    HW1 4472   4.843   0.667   3.270 -1.4307  0.2036  0.1623
 1191SOL    HW2 4473   4.829   0.656   3.432 -0.4888  2.4230  0.4328
 1192SOL     OW 4474   6.379   5.852   3.791  0.1306  0.2218 -0.3288
 1192SOL    HW1 4475   6.351   5.935   3.742 -0.5499 -0.4563 -1.1304
 1192SOL    HW2 4476   6.453   5.873   3.854  2.9323  0.6762 -3.5147
 1193SOL     OW 4477   6.963   5.630   4.292  0.3433  0.4651 -0.6370
 1193SOL    HW1 4478   7.013   5.543   4.298  1.7606  1.3003 -0.0392
 1193SOL    HW2 4479   6.876   5.614   4.244 -0.0108 -1.5239  0.5152
 1194SOL     OW 4480   3.456   5.642   6.799 -0.2410 -0.1088 -0.1648
 1194SOL    HW1 4481   3.383   5.647   6.867  0.7593 -1.2106  1.0397
 1194SOL    HW2 4482   3.450   5.721   6.738 -2.9280 -0.5728 -0.6530
 1195SOL     OW 4483   4.896   5.008   1.389  0.2472  0.1534 -0.1087
 1195SOL    HW1 4484   4.851   5.036   1.303 -1.9032 -1.1546  0.5068
 1195SOL    HW2 4485   4.971   4.946   1.369 -1.1319 -1.2767 -1.0237
 1196SOL     OW 4486   0.273   1.447   1.548 -0.6601 -0.1719 -0.5629
 1196SOL    HW1 4487   0.232   1.484   1.465 -3.7367 -0.7692  0.5643
 1196SOL    HW2 4488   0.254   1.349   1.554 -1.8457  0.1416  1.5352
 1197SOL     OW 4489   3.478   5.880   0.253 -0.3403  0.2731  0.6702
 1197SOL    HW1 4490   3.482   5.930   0.339 -0.3966  0.5542  0.5113
 1197SOL    HW2 4491   3.383   5.851   0.235 -0.1125 -0.9927  1.3805
 1198SOL     OW 4492   6.668   2.107   0.106 -0.5028  0.0902  0.1635
 1198SOL    HW1 4493   6.758   2.145   0.084 -0.9159  0.2573 -1.3037
 1198SOL    HW2 4494   6.671   2.066   0.198  1.0362  0.1682  0.1734
 1199SOL     OW 4495   0.108   5.416   2.366  0.1762  0.0162  0.0802
 1199SOL    HW1 4496   0.093   5.428   2.267 -0.5013  0.4362  0.2229
 1199SOL    HW2 4497   0.030   5.366   2.405  0.7103 -0.6532  0.3152
 1200SOL     OW 4498   2.996   3.079   2.638 -0.1950 -0.0708 -0.6545
 1200SOL    HW1 4499   3.041   3.058   2.725 -0.5387  1.4513 -0.0656
 1200SOL    HW2 4500   2.902   3.047   2.640 -0.5049  0.8381 -0.0500
 1201SOL     OW 4501   0.859   3.971   5.852  0.5249  0.2838  0.8787
 1201SOL    HW1 4502   0.918   3.945   5.775  1.5355  2.2280  0.9384
 1201SOL    HW2 4503   0.902   3.941   5.937 -0.4479 -1.6016  0.7552
 1202SOL     OW 4504   0.067   0.653   5.453 -0.2790  0.2248 -0.4526
 1202SOL    HW1 4505   0.136   0.641   5.381 -0.0875 -0.0813 -0.2216
 1202SOL    HW2 4506   0.093   0.600   5.534 -0.5693  0.4475 -0.2090
 1203SOL     OW 4507   4.290   6.998   4.534  0.4844  0.5469 -0.0124
 1203SOL    HW1 4508   4.221   7.064   4.563  1.5078  2.1871 -1.0952
 1203SOL    HW2 4509   4.320   7.019   4.441  2.2095 -0.2803  0.2963
 1204SOL     OW 4510   3.479   0.561   3.581 -0.9037 -0.6488  0.0563
 1204SOL    HW1 4511   3.489   0.467   3.612  0.5754 -0.3113  0.6549
 1204SOL    HW2 4512   3.500   0.567   3.483  1.3920 -0.5949  0.4939
 1205SOL     OW 4513   5.783   4.950   2.653  0.3845 -0.5158 -0.4288
 1205SOL    HW1 4514   5.733   4.962   2.568  0.0845  1.4844 -0.0298
 1205SOL    HW2 4515   5.878   4.982   2.642 -0.3706  2.4674  0.6160
 1206SOL     OW 4516   3.670   2.879   2.939  0.0923  0.1497  0.2009
 1206SOL    HW1 4517   3.706   2.966   2.972 -2.5992  2.0441 -1.4854
 1206SOL    HW2 4518   3.709   2.858   2.850  0.0492  0.1333  0.1855
 1207SOL     OW 4519   3.160   5.409   2.932  0.1476 -0.3688 -0.2653
 1207SOL    HW1 4520   3.237   5.447   2.985  0.5948  0.6692 -1.6029
 1207SOL    HW2 4521   3.119   5.481   2.877  0.9538 -1.7399 -2.8341
 1208SOL     OW 4522   3.672   1.481   5.154 -0.8619 -0.1765  0.7077
 1208SOL    HW1 4523   3.733   1.427   5.096  0.0985  2.5891 -1.0633
 1208SOL    HW2 4524   3.595   1.424   5.183  0.7514 -2.8214  0.1635
 1209SOL     OW 4525   3.401   5.023   5.462  0.4597  0.1953 -0.3538
 1209SOL    HW1 4526   3.313   5.018   5.416  0.5950 -2.5033 -0.4305
 1209SOL    HW2 4527   3.388   5.056   5.556 -0.2790  2.0421 -1.0506
 1210SOL     OW 4528   2.921   1.759   3.668  0.0737  0.1292  0.0858
 1210SOL    HW1 4529   2.935   1.660   3.669  2.5478  0.4144 -0.1867
 1210SOL    HW2 4530   2.960   1.798   3.585 -0.2211  1.4178  0.5223
 1211SOL     OW 4531   2.740   3.774   1.732  0.1159 -0.5635  0.4882
 1211SOL    HW1 4532   2.770   3.686   1.770 -1.6582 -0.5969  1.9416
 1211SOL    HW2 4533   2.643   3.769   1.710 -0.1010  1.1566  0.9458
 1212SOL     OW 4534   1.261   0.526   5.892 -0.0576 -0.3908  0.0656
 1212SOL    HW1 4535   1.346   0.550   5.938  1.2719 -0.8369 -2.0052
 1212SOL    HW2 4536   1.196   0.601   5.898  0.0874 -0.3937  2.4731
 1213SOL     OW 4537   5.340   0.781   6.768  0.1138  0.4867 -0.3894
 1213SOL    HW1 4538   5.259   0.816   6.816  0.3467  0.8103 -0.2285
 1213SOL    HW2 4539   5.334   0.806   6.672 -0.7153 -0.8023 -0.6950
 1214SOL     OW 4540   1.601   2.715   2.990  0.7491 -0.2804 -0.5086
 1214SOL    HW1 4541   1.580   2.624   2.954  0.0926 -0.0622 -0.6885
 1214SOL    HW2 4542   1.537   2.782   2.952  0.9552  0.1902 -0.0463
 1215SOL     OW 4543   2.303   6.916   3.110 -0.2090  0.4188  0.1699
 1215SOL    HW1 4544   2.226   6.861   3.144 -0.5881  0.5044 -0.5448
 1215SOL    HW2 4545   2.319   6.992   3.172 -0.6330  0.3415  0.3786
 1216SOL     OW 4546   4.306   1.722   3.285  0.4892  0.0364  0.4404
 1216SOL    HW1 4547   4.241   1.773   3.229  1.6550  0.2725 -0.7690
 1216SOL    HW2 4548   4.257   1.655   3.341 -0.7087 -0.7785 -1.4588
 1217SOL     OW 4549   1.892   5.382   1.166 -0.0355 -0.6660  0.2551
 1217SOL    HW1 4550   1.977   5.331   1.183  1.4959  2.0515  1.3912
 1217SOL    HW2 4551   1.839   5.386   1.251 -0.3593 -0.6986  0.0545
 1218SOL     OW 4552   3.494   6.204   4.189  0.2813 -0.4376 -0.5929
 1218SOL    HW1 4553   3.576   6.157   4.222 -0.6036 -0.4026  1.8670
 1218SOL    HW2 4554   3.467   6.274   4.256 -1.9302 -0.6746 -1.1765
 1219SOL     OW 4555   4.660   5.404   6.363 -0.3025 -0.1925  0.1267
 1219SOL    HW1 4556   4.578   5.350   6.346 -2.1344  2.6450 -0.7704
 1219SOL    HW2 4557   4.688   5.452   6.280  0.9005  0.6804  0.9758
 1220SOL     OW 4558   0.564   4.958   2.798  0.3309  0.2741  0.0890
 1220SOL    HW1 4559   0.611   5.003   2.874  1.4574 -1.6458  0.5764
 1220SOL    HW2 4560   0.478   5.006   2.780  0.0282  0.7970  2.5521
 1221SOL     OW 4561   4.839   5.277   6.761 -0.4782 -0.0368  0.4561
 1221SOL    HW1 4562   4.910   5.231   6.707 -2.1159 -0.1641 -1.7764
 1221SOL    HW2 4563   4.768   5.211   6.785 -1.4243  0.6782 -0.2459
 1222SOL     OW 4564   6.878   1.674   6.214 -0.3116 -0.3765 -0.2087
 1222SOL    HW1 4565   6.931   1.679   6.130 -0.2915 -0.1879 -0.1860
 1222SOL    HW2 4566   6.813   1.751   6.217 -0.7707 -0.7540 -0.3602
 1223SOL     OW 4567   3.205   5.269   1.721 -0.0487  0.5416 -0.2533
 1223SOL    HW1 4568   3.288   5.227   1.758 -0.8589 -0.2477  0.7386
 1223SOL    HW2 4569   3.227   5.360   1.687  1.3780  0.0456 -0.7473
 1224SOL     OW 4570   4.171   6.946   4.191  0.1598 -0.5747  0.0554
 1224SOL    HW1 4571   4.104   7.019   4.198  0.2420 -0.5418  0.4846
 1224SOL    HW2 4572   4.263   6.985   4.193  0.2104 -0.4377 -2.2972
 1225SOL     OW 4573   4.265   4.350   0.112  0.3924 -0.1771 -0.1770
 1225SOL    HW1 4574   4.317   4.382   0.032  1.8974  1.1407  1.2563
 1225SOL    HW2 4575   4.318   4.367   0.195 -0.8283 -2.1501  1.0837
 1226SOL     OW 4576   2.013   6.868   6.055 -0.3096 -0.3915 -0.5091
 1226SOL    HW1 4577   1.916   6.868   6.032 -0.1440 -1.0532 -1.2537
 1226SOL    HW2 4578   2.027   6.913   6.143 -1.4815 -1.7697  0.4155
 1227SOL     OW 4579   1.506   4.512   5.356  0.2049  0.0977  0.8985
 1227SOL    HW1 4580   1.481   4.416   5.346  1.0704 -0.1414  0.9396
 1227SOL    HW2 4581   1.506   4.556   5.266 -2.1500  0.5902  1.0825
 1228SOL     OW 4582   3.555   2.605   1.730  0.2159  0.2822 -0.4480
 1228SOL    HW1 4583   3.605   2.545   1.792 -0.1622 -1.4512 -1.7540
 1228SOL    HW2 4584   3.462   2.571   1.717  0.3628  0.4373 -2.1328
 1229SOL     OW 4585   2.593   5.182   0.173  0.5197 -0.1979  0.0415
 1229SOL    HW1 4586   2.504   5.226   0.163  0.6331 -0.1647 -0.9517
 1229SOL    HW2 4587   2.605   5.150   0.267 -0.2592  0.3905  0.3426
 1230SOL     OW 4588   5.372   6.964   3.221  0.5283 -0.4823  0.1762
 1230SOL    HW1 4589   5.437   6.987   3.293 -0.8812  1.7174  0.8413
 1230SOL    HW2 4590   5.399   7.009   3.136  0.2177 -0.0651  0.2961
 1231SOL     OW 4591   1.132   1.851   2.789 -0.3512  0.8202  0.1385
 1231SOL    HW1 4592   1.085   1.814   2.868  0.4340 -0.5402  0.0044
 1231SOL    HW2 4593   1.078   1.834   2.706 -0.5224  0.9986  0.2137
 1232SOL     OW 4594   2.624   1.642   3.893 -0.4542 -0.1772  0.2805
 1232SOL    HW1 4595   2.627   1.691   3.980  2.5744 -0.8835  0.6809
 1232SOL    HW2 4596   2.658   1.702   3.820  0.7822 -0.8016  0.3186
 1233SOL     OW 4597   2.016   3.631   5.242  0.0612  0.1310  0.1560
 1233SOL    HW1 4598   2.106   3.590   5.233  0.2673  0.3298  1.2257
 1233SOL    HW2 4599   1.956   3.569   5.292  0.0918  0.7106  0.9180
 1234SOL     OW 4600   0.393   2.403   3.126 -0.9508 -0.2742  0.0165
 1234SOL    HW1 4601   0.360   2.311   3.145 -0.7807 -0.4982 -0.7311
 1234SOL    HW2 4602   0.417   2.449   3.212 -2.1055 -0.5125  0.4881
 1235SOL     OW 4603   0.275   5.147   3.148 -0.0677  0.7376  0.0266
 1235SOL    HW1 4604   0.314   5.233   3.113 -0.0239 -0.3971 -3.0002
 1235SOL    HW2 4605   0.336   5.071   3.127 -0.6241 -0.2365  1.6924
 1236SOL     OW 4606   6.755   0.489   5.593 -0.0710  0.6983  0.2543
 1236SOL    HW1 4607   6.794   0.533   5.512  1.7917  1.1872  1.3568
 1236SOL    HW2 4608   6.828   0.472   5.660 -1.5151  0.0849  1.7352
 1237SOL     OW 4609   3.884   1.628   6.943 -0.8108 -0.0347  0.2872
 1237SOL    HW1 4610   3.833   1.611   6.860 -0.3068 -1.6576  0.2665
 1237SOL    HW2 4611   3.943   1.708   6.931 -2.0546  0.8220 -0.2623
 1238SOL     OW 4612   3.635   0.610   1.809 -0.0245 -0.0095  0.2113
 1238SOL    HW1 4613   3.681   0.650   1.888 -1.1934  0.4295  0.6826
 1238SOL    HW2 4614   3.594   0.683   1.754  1.0311 -0.2787 -0.9917
 1239SOL     OW 4615   2.227   0.826   5.156 -0.8819  0.0677  0.3363
 1239SOL    HW1 4616   2.135   0.792   5.175 -1.8952  3.1915  1.6998
 1239SOL    HW2 4617   2.294   0.761   5.191 -2.6096 -1.4034  1.0799
 1240SOL     OW 4618   5.392   6.566   0.676 -0.6003 -0.4095 -0.1599
 1240SOL    HW1 4619   5.385   6.532   0.582 -1.9713 -0.5656 -0.0308
 1240SOL    HW2 4620   5.349   6.500   0.738 -0.3626  0.0351  0.4850
 1241SOL     OW 4621   1.926   2.772   3.363  0.1437  0.2610  0.9504
 1241SOL    HW1 4622   1.965   2.826   3.437  1.1773  0.0442  0.5828
 1241SOL    HW2 4623   1.944   2.817   3.275  0.5866 -0.4135  0.6828
 1242SOL     OW 4624   3.912   1.292   5.393 -0.2746  0.1965  0.3015
 1242SOL    HW1 4625   3.892   1.283   5.295  0.3345 -1.1258  0.2832
 1242SOL    HW2 4626   3.876   1.379   5.426  1.0973  1.5333 -1.5082
 1243SOL     OW 4627   1.957   6.325   0.084 -0.0665 -0.1795 -0.1932
 1243SOL    HW1 4628   1.991   6.247   0.137 -0.0074 -0.3999 -0.5485
 1243SOL    HW2 4629   1.889   6.292   0.018 -0.9755  0.2540  0.5067
 1244SOL     OW 4630   1.813   0.329   1.000 -0.8313  0.3660 -0.0057
 1244SOL    HW1 4631   1.719   0.355   0.977 -2.0799 -1.3571  2.7264
 1244SOL    HW2 4632   1.812   0.242   1.048  2.0994  0.8566  1.0849
 1245SOL     OW 4633   3.824   3.206   4.321 -0.2082 -0.1690 -0.4975
 1245SOL    HW1 4634   3.844   3.263   4.242 -0.6348 -0.1076 -0.5613
 1245SOL    HW2 4635   3.761   3.254   4.382 -1.1932 -0.8826 -0.9371
 1246SOL     OW 4636   1.000   5.655   6.106 -0.4878 -0.1508  1.0232
 1246SOL    HW1 4637   0.904   5.685   6.100 -0.9046 -1.2903  1.5546
 1246SOL    HW2 4638   1.002   5.562   6.142  0.7348 -0.8604 -0.7817
 1247SOL     OW 4639   5.709   6.830   6.660 -0.2643  0.2054 -0.0785
 1247SOL    HW1 4640   5.765   6.912   6.673 -0.6812  0.2935  1.4274
 1247SOL    HW2 4641   5.613   6.856   6.651 -0.2695 -0.0502 -0.7590
 1248SOL     OW 4642   1.153   6.278   3.417 -0.6305 -0.1884  0.0885
 1248SOL    HW1 4643   1.224   6.243   3.355 -0.4792  1.5200 -0.7687
 1248SOL    HW2 4644   1.067   6.229   3.400 -0.2497 -0.6677 -0.5143
 1249SOL     OW 4645   6.401   3.341   2.908 -0.0189 -0.7772  0.7930
 1249SOL    HW1 4646   6.359   3.346   2.817  1.7699  0.7639 -0.0218
 1249SOL    HW2 4647   6.491   3.298   2.900  1.3976  1.8962  1.2633
 1250SOL     OW 4648   0.900   5.242   3.312  0.5748 -0.6520 -0.0138
 1250SOL    HW1 4649   0.997   5.248   3.335  0.6989 -2.7516  0.1372
 1250SOL    HW2 4650   0.850   5.313   3.361  1.5689 -1.6768  2.6417
 1251SOL     OW 4651   2.492   0.992   0.121  0.1271 -0.2056  0.9094
 1251SOL    HW1 4652   2.394   1.010   0.120  0.2629  0.6046  1.6494
 1251SOL    HW2 4653   2.542   1.077   0.103  0.6871 -0.9523 -1.5118
 1252SOL     OW 4654   3.292   3.681   6.874  0.4035 -0.2250 -0.3579
 1252SOL    HW1 4655   3.245   3.665   6.787 -0.1194 -0.2586 -0.0735
 1252SOL    HW2 4656   3.367   3.746   6.860  1.0108 -1.0447 -1.0418
 1253SOL     OW 4657   5.205   3.458   3.349  0.1960 -0.1250  0.1053
 1253SOL    HW1 4658   5.149   3.412   3.280  0.6604 -1.2511  0.4612
 1253SOL    HW2 4659   5.198   3.557   3.337 -0.4287 -0.2893 -0.9945
 1254SOL     OW 4660   5.817   2.245   3.104  0.6629  0.3764 -0.2945
 1254SOL    HW1 4661   5.809   2.332   3.057  1.0572  0.5456 -0.0517
 1254SOL    HW2 4662   5.833   2.172   3.038  0.3932  0.4939 -0.4919
 1255SOL     OW 4663   5.744   0.854   3.733 -0.2772  0.0329 -0.1343
 1255SOL    HW1 4664   5.704   0.849   3.641 -0.5080  1.8915 -0.1639
 1255SOL    HW2 4665   5.844   0.864   3.725 -0.1425 -1.1752 -0.1316
 1256SOL     OW 4666   4.644   2.453   4.411  0.6292  0.2110  0.4512
 1256SOL    HW1 4667   4.631   2.375   4.471  0.4427  0.2343  0.4410
 1256SOL    HW2 4668   4.635   2.538   4.464 -1.2604  0.2854  0.0921
 1257SOL     OW 4669   6.597   0.010   4.662  0.6236 -0.1290 -0.1703
 1257SOL    HW1 4670   6.584  -0.054   4.738  0.3990 -0.2113 -0.2783
 1257SOL    HW2 4671   6.684   0.058   4.674  0.6118 -0.1747  0.1144
 1258SOL     OW 4672   0.376   5.373   4.781 -0.3102 -0.4979  0.7870
 1258SOL    HW1 4673   0.423   5.300   4.733 -0.4235 -0.8400  1.1899
 1258SOL    HW2 4674   0.279   5.351   4.791 -0.3887 -0.1951  0.7196
 1259SOL     OW 4675   5.113   2.710   3.043  0.4200  0.0141 -0.4982
 1259SOL    HW1 4676   5.053   2.698   2.964  0.9328  3.2419 -1.5676
 1259SOL    HW2 4677   5.060   2.743   3.121  0.6093  2.5871 -1.3588
 1260SOL     OW 4678   1.335   2.030   2.732 -0.2129  0.1945 -0.3497
 1260SOL    HW1 4679   1.273   1.956   2.758  0.6625 -0.5101 -0.1994
 1260SOL    HW2 4680   1.387   2.002   2.652 -1.3219  1.4825 -1.5622
 1261SOL     OW 4681   0.180   2.223   1.208 -0.5788 -0.0001  0.2203
 1261SOL    HW1 4682   0.204   2.251   1.115 -2.0900  1.4471  0.2177
 1261SOL    HW2 4683   0.254   2.250   1.271 -0.4336  0.8390 -0.2902
 1262SOL     OW 4684   3.921   6.056   2.864  0.1897  0.3036  0.1370
 1262SOL    HW1 4685   3.962   5.984   2.921  0.8122  1.0335  0.6296
 1262SOL    HW2 4686   3.849   6.101   2.916 -1.0501 -0.7510 -0.6080
 1263SOL     OW 4687   1.491   2.020   1.523 -0.2170  0.1220  0.2250
 1263SOL    HW1 4688   1.393   2.005   1.510 -0.0707 -2.4781  1.4131
 1263SOL    HW2 4689   1.538   2.014   1.435 -0.9432 -0.4695 -0.1375
 1264SOL     OW 4690   1.209   2.539   4.432  0.3611 -0.6569 -0.0167
 1264SOL    HW1 4691   1.112   2.518   4.442  0.5875 -1.3422  0.8772
 1264SOL    HW2 4692   1.247   2.566   4.520  1.3241 -1.9707  0.0127
 1265SOL     OW 4693   4.647   1.852   5.554  0.0733 -0.8717  1.2860
 1265SOL    HW1 4694   4.728   1.901   5.521 -0.4291 -0.6578  0.3104
 1265SOL    HW2 4695   4.574   1.918   5.574 -0.2478 -1.1322  1.0034
 1266SOL     OW 4696   3.524   1.524   6.358  0.6883  0.5718  0.7276
 1266SOL    HW1 4697   3.523   1.609   6.305  0.3773 -0.1717 -0.5014
 1266SOL    HW2 4698   3.609   1.474   6.341 -0.0026 -0.3311 -0.1807
 1267SOL     OW 4699   0.010   1.763   1.579  0.6048 -0.2240  0.2184
 1267SOL    HW1 4700  -0.029   1.826   1.512  0.2061  0.7581  1.3371
 1267SOL    HW2 4701  -0.009   1.668   1.551 -2.9895  0.1699  0.8701
 1268SOL     OW 4702   4.895   3.274   5.463  0.1896 -0.0911  0.2015
 1268SOL    HW1 4703   4.946   3.352   5.426 -0.3096  0.3038  0.3293
 1268SOL    HW2 4704   4.823   3.247   5.399 -0.7632  0.6803  0.8953
 1269SOL     OW 4705   0.033   2.216   4.065  0.0203 -0.0717  0.3217
 1269SOL    HW1 4706   0.123   2.250   4.095 -0.3905  0.6126  0.8055
 1269SOL    HW2 4707  -0.039   2.270   4.109 -0.6153  0.9170 -1.8219
 1270SOL     OW 4708   6.350   0.015   4.895  0.2069  0.0961  0.4334
 1270SOL    HW1 4709   6.427  -0.046   4.913  0.2962 -0.0556 -0.4150
 1270SOL    HW2 4710   6.276  -0.035   4.850  0.1047  0.5081  0.1295
 1271SOL     OW 4711   6.540   6.954   0.299 -0.1953 -0.1951 -0.3366
 1271SOL    HW1 4712   6.637   6.951   0.275  0.4326  0.6425  1.8449
 1271SOL    HW2 4713   6.507   7.048   0.291 -0.2041 -0.0632  1.0179
 1272SOL     OW 4714   5.777   2.384   1.414 -0.5518 -0.1063  0.2050
 1272SOL    HW1 4715   5.720   2.405   1.493 -1.7337  0.8573 -0.8783
 1272SOL    HW2 4716   5.719   2.358   1.336  0.4127  1.4129 -1.0815
 1273SOL     OW 4717   1.010   5.044   5.771  0.2089 -0.3281  0.1684
 1273SOL    HW1 4718   1.037   4.960   5.818 -0.2597 -0.3129  0.4674
 1273SOL    HW2 4719   0.913   5.040   5.749  0.6438 -0.8570 -1.8750
 1274SOL     OW 4720   0.962   3.505   5.299 -0.8398 -0.2527  0.0591
 1274SOL    HW1 4721   1.057   3.509   5.331 -0.6121 -0.0995 -0.6196
 1274SOL    HW2 4722   0.908   3.574   5.347 -0.6340 -0.4199  0.5340
 1275SOL     OW 4723   3.419   1.042   2.438 -0.0008 -0.5522  0.0669
 1275SOL    HW1 4724   3.440   0.967   2.375 -2.2042  0.1016 -1.5609
 1275SOL    HW2 4725   3.412   1.127   2.387 -1.8938 -0.0080  1.1464
 1276SOL     OW 4726   3.957   5.078   4.512  0.1197  0.1022  0.2852
 1276SOL    HW1 4727   3.956   5.165   4.563  0.5400  0.2733  0.0120
 1276SOL    HW2 4728   3.913   5.007   4.566 -0.7949  0.6296  0.2546
 1277SOL     OW 4729   3.190   0.638   5.481  0.4168  0.2366  0.0328
 1277SOL    HW1 4730   3.090   0.634   5.478  0.4442 -0.3844 -0.1280
 1277SOL    HW2 4731   3.228   0.594   5.400  0.8402 -0.6747  0.7065
 1278SOL     OW 4732   6.750   4.556   1.851 -0.2872  0.1683  0.0327
 1278SOL    HW1 4733   6.835   4.608   1.844  0.5126 -1.2648 -2.4086
 1278SOL    HW2 4734   6.685   4.591   1.784 -0.6591 -0.3724  0.1106
 1279SOL     OW 4735   4.717   2.317   6.819 -0.1572  0.5577 -0.1565
 1279SOL    HW1 4736   4.806   2.358   6.800 -1.0179  2.4054 -0.4588
 1279SOL    HW2 4737   4.647   2.389   6.820 -1.8356 -0.9846 -1.0849
 1280SOL     OW 4738   3.106   1.423   1.899  0.3340 -0.0614  0.0876
 1280SOL    HW1 4739   3.072   1.505   1.945 -0.7012 -1.5046  2.0987
 1280SOL    HW2 4740   3.072   1.421   1.805 -1.1998  0.9153  0.5753
 1281SOL     OW 4741   5.584   4.017   6.457 -0.0330  0.2134  0.0716
 1281SOL    HW1 4742   5.645   4.096   6.444  0.2368 -0.3538 -3.0687
 1281SOL    HW2 4743   5.490   4.044   6.436  0.0474 -0.2178 -0.9274
 1282SOL     OW 4744   1.499   0.213   1.191 -0.5287  1.0509  0.3018
 1282SOL    HW1 4745   1.433   0.184   1.260  0.2502 -0.7722  0.3270
 1282SOL    HW2 4746   1.590   0.219   1.231 -0.3075  1.4081 -0.2324
 1283SOL     OW 4747   1.148   6.253   4.945  0.3547 -0.0194 -0.1187
 1283SOL    HW1 4748   1.169   6.257   4.847 -0.6440  3.2109 -0.3202
 1283SOL    HW2 4749   1.223   6.208   4.993  1.6714 -0.1699 -2.1785
 1284SOL     OW 4750   3.937   1.270   2.198  0.2453  0.1907  0.7086
 1284SOL    HW1 4751   3.880   1.291   2.278  0.4374  1.8696  0.4414
 1284SOL    HW2 4752   3.879   1.266   2.117  0.1682 -0.6752  0.7991
 1285SOL     OW 4753   4.192   1.942   3.158 -0.1068  0.3638  0.2793
 1285SOL    HW1 4754   4.102   1.911   3.128  0.3538 -1.3504  0.5401
 1285SOL    HW2 4755   4.262   1.906   3.096  0.6981 -1.6899  2.2549
 1286SOL     OW 4756   6.431   6.397   2.102  0.8772 -0.3983  0.0226
 1286SOL    HW1 4757   6.460   6.433   2.013 -0.5533  0.2424 -0.2183
 1286SOL    HW2 4758   6.430   6.472   2.169  1.4561 -0.7713  0.4512
 1287SOL     OW 4759   6.351   4.283   5.801  0.4727 -0.2591  0.1987
 1287SOL    HW1 4760   6.267   4.233   5.821  0.1611 -0.0186 -0.4714
 1287SOL    HW2 4761   6.398   4.240   5.724  1.1311 -0.5753  0.7654
 1288SOL     OW 4762   6.150   3.491   5.786 -0.2086 -0.2525 -0.1786
 1288SOL    HW1 4763   6.209   3.430   5.733 -0.7201  0.0641 -1.1425
 1288SOL    HW2 4764   6.201   3.527   5.864  1.1664  0.6629 -1.4425
 1289SOL     OW 4765   2.845   1.008   6.902  0.3591 -0.4562  0.0545
 1289SOL    HW1 4766   2.927   0.960   6.869  0.1361 -1.6061  1.0974
 1289SOL    HW2 4767   2.763   0.962   6.867  0.1436 -0.6804  0.8460
 1290SOL     OW 4768   0.796   6.756   3.756 -0.8537  0.1518  0.0017
 1290SOL    HW1 4769   0.839   6.758   3.666 -0.3574  0.6121  0.2429
 1290SOL    HW2 4770   0.708   6.804   3.752 -0.2188  1.3656  0.0599
 1291SOL     OW 4771   3.198   0.366   5.009 -0.9075  0.5804  0.2812
 1291SOL    HW1 4772   3.235   0.427   5.078 -1.0474  0.3908  0.5258
 1291SOL    HW2 4773   3.266   0.296   4.986 -0.3729  1.3996 -0.7195
 1292SOL     OW 4774   0.443   6.639   3.708 -0.0433 -0.1664 -0.3288
 1292SOL    HW1 4775   0.541   6.647   3.688 -0.1944  2.4339 -0.3427
 1292SOL    HW2 4776   0.428   6.560   3.768  2.4295  0.8551  1.8488
 1293SOL     OW 4777   3.353   0.260   6.700  0.1241  0.0066  0.1176
 1293SOL    HW1 4778   3.258   0.251   6.727 -0.7796  1.3821 -2.2465
 1293SOL    HW2 4779   3.377   0.185   6.637  0.8770 -0.7768  1.3044
 1294SOL     OW 4780   1.835   5.584   4.371 -0.0320  0.0720  0.0210
 1294SOL    HW1 4781   1.792   5.654   4.427  1.4523  0.9385  0.1485
 1294SOL    HW2 4782   1.876   5.514   4.429  0.0204  0.0543 -0.0367
 1295SOL     OW 4783   0.787   4.960   6.979  0.1607  0.0280  0.3910
 1295SOL    HW1 4784   0.697   4.918   6.982  0.1436 -0.1929 -1.5495
 1295SOL    HW2 4785   0.854   4.893   6.944  0.5041  1.0036 -0.8942
 1296SOL     OW 4786   2.420   6.116   6.851 -0.2214  0.2461 -0.1540
 1296SOL    HW1 4787   2.357   6.174   6.902  0.4070  1.0107 -0.2238
 1296SOL    HW2 4788   2.440   6.034   6.904 -2.5970 -0.8666 -0.8532
 1297SOL     OW 4789   6.190   0.857   2.146 -0.4745  0.0672  0.5580
 1297SOL    HW1 4790   6.240   0.905   2.075 -0.1093  0.9066  1.3563
 1297SOL    HW2 4791   6.104   0.904   2.165 -0.7290 -0.3452  0.4363
 1298SOL     OW 4792   5.709   5.006   1.998  0.6627  0.4189  0.1854
 1298SOL    HW1 4793   5.670   5.066   1.929 -0.2506  0.3112  0.5968
 1298SOL    HW2 4794   5.792   5.047   2.036  0.6827  0.8789 -0.3561
 1299SOL     OW 4795   6.728   3.768   6.807  0.2195 -0.2833 -0.3556
 1299SOL    HW1 4796   6.644   3.747   6.856  0.0877 -1.1845 -0.9396
 1299SOL    HW2 4797   6.764   3.856   6.838  0.5808 -1.1818  1.9138
 1300SOL     OW 4798   2.684   5.059   1.861  0.0033  0.0813 -0.5002
 1300SOL    HW1 4799   2.681   4.995   1.785  0.8018  0.9408 -1.2868
 1300SOL    HW2 4800   2.592   5.095   1.879 -0.8489 -2.6554  1.2222
 1301SOL     OW 4801   5.591   1.256   0.279 -0.3233  0.1755 -0.1846
 1301SOL    HW1 4802   5.554   1.214   0.362  1.2755 -0.8723  0.0511
 1301SOL    HW2 4803   5.691   1.257   0.285 -0.1280 -0.7533 -2.4788
 1302SOL     OW 4804   6.410   6.178   6.835 -0.1332  0.1179 -0.4454
 1302SOL    HW1 4805   6.434   6.213   6.744 -0.6518 -0.3616 -0.7776
 1302SOL    HW2 4806   6.486   6.193   6.898 -0.4305  2.1260 -0.4858
 1303SOL     OW 4807   1.043   4.772   1.713 -0.2909 -0.1980 -0.5637
 1303SOL    HW1 4808   0.951   4.810   1.707 -0.6200 -0.7436  0.6575
 1303SOL    HW2 4809   1.042   4.678   1.679  0.1155  0.2342 -1.8060
 1304SOL     OW 4810   0.962   2.601   5.856 -0.4182 -0.1932 -0.6687
 1304SOL    HW1 4811   0.888   2.587   5.790 -1.1876 -0.0925  0.1528
 1304SOL    HW2 4812   0.996   2.695   5.849 -2.4607  0.7598  0.9848
 1305SOL     OW 4813   3.027   5.274   5.518  0.0501  0.0836 -0.0713
 1305SOL    HW1 4814   3.079   5.275   5.433 -0.2197 -1.3859 -0.2936
 1305SOL    HW2 4815   3.083   5.308   5.593  0.6167  0.4810 -0.6668
 1306SOL     OW 4816   1.890   6.527   3.349  0.0087 -1.2123  0.3719
 1306SOL    HW1 4817   1.896   6.468   3.430  0.8431 -1.8808 -0.1646
 1306SOL    HW2 4818   1.797   6.521   3.311 -0.3445 -1.0153  1.1772
 1307SOL     OW 4819   2.114   4.716   3.596  0.0371 -0.4816  0.5154
 1307SOL    HW1 4820   2.204   4.743   3.630 -0.7059  0.2578  1.9588
 1307SOL    HW2 4821   2.094   4.622   3.624  0.1498 -0.4765  0.6095
 1308SOL     OW 4822   1.029   2.861   4.491  0.2004  0.2670 -0.4717
 1308SOL    HW1 4823   1.013   2.855   4.392 -1.7576 -0.1115 -0.1727
 1308SOL    HW2 4824   0.942   2.853   4.539  1.3028 -1.3476  1.3775
 1309SOL     OW 4825   6.050   4.707   0.243  0.4007  0.6879 -0.4818
 1309SOL    HW1 4826   6.137   4.675   0.206  1.1439  1.3514  0.6439
 1309SOL    HW2 4827   6.050   4.697   0.343 -1.5434 -1.0414 -0.5855
 1310SOL     OW 4828   2.692   2.381   4.435  0.0053  0.3216  0.0074
 1310SOL    HW1 4829   2.763   2.326   4.479 -0.0605  0.6049  0.4805
 1310SOL    HW2 4830   2.704   2.378   4.336  0.2764 -0.1709  0.0517
 1311SOL     OW 4831   1.573   4.527   0.274 -0.0714 -0.2651  0.3324
 1311SOL    HW1 4832   1.536   4.606   0.322 -1.3003 -2.1806  2.7520
 1311SOL    HW2 4833   1.521   4.511   0.191 -1.4602  0.0215  1.1229
 1312SOL     OW 4834   2.435   0.725   0.837 -0.4261 -0.1063 -0.2419
 1312SOL    HW1 4835   2.336   0.723   0.845 -0.2789 -0.1918  2.6170
 1312SOL    HW2 4836   2.468   0.635   0.809 -1.1999  0.5277 -3.5397
 1313SOL     OW 4837   4.548   4.711   2.097  0.0004 -0.0480  0.0773
 1313SOL    HW1 4838   4.486   4.636   2.075  0.9599 -0.2967 -2.0653
 1313SOL    HW2 4839   4.535   4.786   2.032  1.6639  0.0231 -0.2283
 1314SOL     OW 4840   2.205   1.213   2.719  0.3157  0.1738 -0.6052
 1314SOL    HW1 4841   2.304   1.225   2.715  0.4939 -0.0110  1.8227
 1314SOL    HW2 4842   2.183   1.116   2.730  0.0120  0.3838  0.8961
 1315SOL     OW 4843   5.782   6.838   4.564  0.2788  0.1957 -0.0941
 1315SOL    HW1 4844   5.859   6.823   4.502  0.5404 -1.0901  0.5203
 1315SOL    HW2 4845   5.719   6.904   4.523  0.9424  0.1242 -1.2762
 1316SOL     OW 4846   5.112   6.446   5.816  0.4354 -0.2062  0.1418
 1316SOL    HW1 4847   5.179   6.388   5.769  0.4976 -0.4469  0.5269
 1316SOL    HW2 4848   5.153   6.535   5.836  1.0156 -0.7330  1.3681
 1317SOL     OW 4849   3.329   3.700   4.831  0.1339 -0.3920  0.1850
 1317SOL    HW1 4850   3.274   3.621   4.859 -0.8292 -0.0486 -0.6765
 1317SOL    HW2 4851   3.424   3.686   4.858  0.1136 -2.1730 -0.5679
 1318SOL     OW 4852   2.199   0.371   6.940 -0.3935  0.3922  0.2270
 1318SOL    HW1 4853   2.133   0.364   7.014  0.5408  2.3551  1.3416
 1318SOL    HW2 4854   2.280   0.316   6.962 -1.2351 -1.2718 -0.7036
 1319SOL     OW 4855   0.184   1.586   6.282 -0.1587  0.1787 -0.2189
 1319SOL    HW1 4856   0.149   1.647   6.354  1.0418  0.1334  0.4278
 1319SOL    HW2 4857   0.282   1.573   6.295 -0.1664 -0.8549 -1.1327
 1320SOL     OW 4858   4.232   3.893   5.857  0.5227 -0.1316  0.4703
 1320SOL    HW1 4859   4.143   3.849   5.843  0.4137  0.5443 -1.1698
 1320SOL    HW2 4860   4.238   3.926   5.951 -0.8722 -0.3623  0.6692
 1321SOL     OW 4861   6.307   1.982   0.229 -0.0993 -0.6802 -0.2916
 1321SOL    HW1 4862   6.317   1.943   0.137 -1.9297 -1.3594 -0.2529
 1321SOL    HW2 4863   6.331   1.913   0.297 -0.9867 -0.9754 -0.2578
 1322SOL     OW 4864   3.108   1.494   1.361  0.1538  0.1384 -0.5270
 1322SOL    HW1 4865   3.106   1.409   1.308  0.8855  0.7280 -1.5402
 1322SOL    HW2 4866   3.202   1.523   1.375 -0.1098  1.7181 -1.7801
 1323SOL     OW 4867   5.519   1.127   2.170  0.6096  0.7519 -0.0039
 1323SOL    HW1 4868   5.555   1.143   2.262  0.8075 -0.4262  0.1451
 1323SOL    HW2 4869   5.522   1.212   2.117  1.3907  1.2235  0.7725
 1324SOL     OW 4870   2.660   3.644   5.658  0.2122 -0.0413  0.1865
 1324SOL    HW1 4871   2.643   3.652   5.757  1.2640 -0.2387  0.4014
 1324SOL    HW2 4872   2.575   3.625   5.611 -0.4214  0.7220  0.9853
 1325SOL     OW 4873   4.598   6.787   0.238  0.0168  0.2083 -0.0203
 1325SOL    HW1 4874   4.588   6.780   0.139 -0.3621 -0.9502  0.0873
 1325SOL    HW2 4875   4.586   6.697   0.280 -0.1629  0.7346  1.1161
 1326SOL     OW 4876   4.009   1.345   5.714 -0.2488  0.0963  0.2686
 1326SOL    HW1 4877   4.087   1.401   5.742  0.9653 -0.9305 -0.9325
 1326SOL    HW2 4878   3.990   1.361   5.617 -2.3255  1.2046  0.8063
 1327SOL     OW 4879   4.357   5.603   1.768  0.0957 -0.1926  0.5272
 1327SOL    HW1 4880   4.370   5.658   1.686 -1.2560 -0.3119  0.2054
 1327SOL    HW2 4881   4.446   5.580   1.808  0.7505  0.2440 -0.6396
 1328SOL     OW 4882   3.213   0.348   4.503  0.1045 -0.3151  0.5764
 1328SOL    HW1 4883   3.255   0.313   4.587  0.2241  1.6830  1.4233
 1328SOL    HW2 4884   3.201   0.447   4.512 -1.7508 -0.3597 -0.9827
 1329SOL     OW 4885   1.004   2.242   3.380  0.3473 -0.2799 -0.2727
 1329SOL    HW1 4886   0.910   2.220   3.354  0.1764  0.5273 -0.3696
 1329SOL    HW2 4887   1.005   2.279   3.473  0.2274  1.9763 -1.1097
 1330SOL     OW 4888   5.265   3.635   2.067  0.0595 -0.3360  0.7004
 1330SOL    HW1 4889   5.360   3.643   2.037  0.8595 -0.7022  2.9249
 1330SOL    HW2 4890   5.248   3.543   2.101 -0.8612 -0.0432  1.0892
 1331SOL     OW 4891   4.665   2.030   2.260 -0.6494 -0.0419 -0.2413
 1331SOL    HW1 4892   4.734   1.959   2.246 -0.8647  0.0819 -2.2413
 1331SOL    HW2 4893   4.584   2.010   2.206 -1.6303  0.5826  0.9363
 1332SOL     OW 4894   1.117   5.717   1.143 -0.3391  0.5352  0.5638
 1332SOL    HW1 4895   1.210   5.684   1.128 -0.7169 -0.1834 -0.2736
 1332SOL    HW2 4896   1.078   5.670   1.223  0.3481  1.5814  1.5517
 1333SOL     OW 4897   2.949   3.271   3.625  0.1440 -0.4576 -0.2984
 1333SOL    HW1 4898   3.032   3.236   3.668  0.0712 -0.7386 -0.3817
 1333SOL    HW2 4899   2.918   3.352   3.673 -0.6824 -1.5149  1.0190
 1334SOL     OW 4900   0.161   4.027   0.556 -0.2293  0.8866 -0.3908
 1334SOL    HW1 4901   0.245   4.009   0.505 -0.1445  1.4704 -0.4633
 1334SOL    HW2 4902   0.083   3.989   0.507  0.1347 -1.0273  0.4208
 1335SOL     OW 4903   0.183   3.308   1.905 -0.5470 -0.3486 -0.2854
 1335SOL    HW1 4904   0.210   3.395   1.948 -0.8560 -1.2100  1.7884
 1335SOL    HW2 4905   0.263   3.267   1.861 -0.3038  0.7710 -0.9314
 1336SOL     OW 4906   2.192   6.069   3.925 -1.0656  0.8228  0.4007
 1336SOL    HW1 4907   2.269   6.007   3.937 -0.7658  1.1293  0.0845
 1336SOL    HW2 4908   2.132   6.064   4.005  0.0177  1.6099  1.2955
 1337SOL     OW 4909   5.291   6.158   2.246  0.4310 -0.3941  0.2267
 1337SOL    HW1 4910   5.274   6.247   2.204 -3.1597 -0.8862  0.3102
 1337SOL    HW2 4911   5.365   6.111   2.197  0.3729  1.4150 -1.7235
 1338SOL     OW 4912   1.089   5.330   4.971 -0.4856  0.3934  0.0418
 1338SOL    HW1 4913   1.140   5.416   4.973 -1.7235  1.1473 -0.1232
 1338SOL    HW2 4914   0.991   5.348   4.974 -0.7664 -1.0488  0.7655
 1339SOL     OW 4915   4.148   1.244   6.982 -0.4164  0.0269  0.1754
 1339SOL    HW1 4916   4.138   1.302   7.063  0.3994 -1.7234  1.6032
 1339SOL    HW2 4917   4.072   1.178   6.979  1.0199 -1.7859  1.2011
 1340SOL     OW 4918   2.185   2.473   1.603 -0.0793 -0.5351  0.3790
 1340SOL    HW1 4919   2.193   2.570   1.623  1.9330 -0.1929 -1.6261
 1340SOL    HW2 4920   2.088   2.450   1.588 -0.3740  2.1558 -3.2085
 1341SOL     OW 4921   5.011   6.650   1.269 -0.3683  0.0023 -0.1078
 1341SOL    HW1 4922   5.093   6.699   1.298 -0.7636 -0.0414  1.1481
 1341SOL    HW2 4923   5.027   6.607   1.180  0.9215  0.0927  0.0635
 1342SOL     OW 4924   0.889   1.061   0.736  0.1725  0.0787  0.0895
 1342SOL    HW1 4925   0.982   1.090   0.712  0.9296 -0.4937  2.1599
 1342SOL    HW2 4926   0.890   1.014   0.824 -1.5961 -2.7894 -1.2680
 1343SOL     OW 4927   3.711   5.217   4.213  0.5339 -0.8362  0.0779
 1343SOL    HW1 4928   3.772   5.285   4.171  0.7373 -0.4606  0.9526
 1343SOL    HW2 4929   3.626   5.262   4.241  0.0201 -1.2730 -0.7567
 1344SOL     OW 4930   1.644   0.956   3.744  1.0369 -0.2560 -0.2008
 1344SOL    HW1 4931   1.660   0.894   3.821  1.1404 -0.0179 -0.0316
 1344SOL    HW2 4932   1.550   0.990   3.747  1.2286  0.2497  0.1811
 1345SOL     OW 4933   1.742   0.493   7.001  0.0342 -0.0774  0.5147
 1345SOL    HW1 4934   1.745   0.459   6.907  1.0886 -1.3249  0.9658
 1345SOL    HW2 4935   1.723   0.591   7.000  1.1250  0.1696 -1.0622
 1346SOL     OW 4936   1.867   5.423   2.713  0.2822 -0.0336 -0.2345
 1346SOL    HW1 4937   1.955   5.408   2.669  1.9853  1.4916  2.3476
 1346SOL    HW2 4938   1.833   5.514   2.689 -0.2595 -0.3561 -0.7004
 1347SOL     OW 4939   5.511   1.547   4.934 -0.4999 -0.1256 -0.1770
 1347SOL    HW1 4940   5.484   1.503   4.849  1.1498 -1.0361 -0.2627
 1347SOL    HW2 4941   5.607   1.576   4.929 -0.9389  1.6684  0.6354
 1348SOL     OW 4942   3.457   5.074   5.750  0.5866  0.5425 -0.1567
 1348SOL    HW1 4943   3.533   5.014   5.724  2.3420  2.7131 -0.3003
 1348SOL    HW2 4944   3.463   5.096   5.847 -0.4701 -0.0124  0.0590
 1349SOL     OW 4945   4.901   4.657   5.480 -0.1936 -0.6180  0.4411
 1349SOL    HW1 4946   4.832   4.646   5.409  0.4957 -1.6747 -0.0902
 1349SOL    HW2 4947   4.990   4.671   5.437 -0.0580  0.7816  1.1145
 1350SOL     OW 4948   4.999   2.095   6.371 -0.0156 -0.3011  0.1946
 1350SOL    HW1 4949   4.899   2.095   6.365 -0.0005 -2.4665 -0.8429
 1350SOL    HW2 4950   5.028   2.040   6.449  0.3666 -1.8395 -0.9890
 1351SOL     OW 4951   6.298   2.263   0.290 -0.4093  0.3371  0.8436
 1351SOL    HW1 4952   6.305   2.176   0.241 -1.2921  0.5063  0.4109
 1351SOL    HW2 4953   6.386   2.284   0.333  0.2621 -0.0083 -0.3383
 1352SOL     OW 4954   6.111   0.573   3.724 -0.6756  0.7082 -0.4130
 1352SOL    HW1 4955   6.157   0.660   3.744 -1.5946  1.5361 -1.6809
 1352SOL    HW2 4956   6.153   0.531   3.643  0.0709 -0.2969  0.4693
 1353SOL     OW 4957   6.243   4.930   6.797  0.3218  0.2950  0.5527
 1353SOL    HW1 4958   6.241   4.831   6.789 -1.4946  0.3714 -0.3784
 1353SOL    HW2 4959   6.263   4.955   6.892 -1.1457 -0.9976  1.2404
 1354SOL     OW 4960   2.825   6.172   3.799  0.4284  0.2133 -0.4202
 1354SOL    HW1 4961   2.822   6.241   3.871 -0.7433  0.3129 -0.5456
 1354SOL    HW2 4962   2.851   6.215   3.713  1.4676  0.1610 -0.1416
 1355SOL     OW 4963   2.898   3.704   3.388 -0.2016  0.1680  0.1417
 1355SOL    HW1 4964   2.925   3.608   3.401  0.7561  0.2694 -0.9413
 1355SOL    HW2 4965   2.905   3.727   3.291  2.0669  2.0270  0.6657
 1356SOL     OW 4966   3.183   4.334   0.408  0.7724  0.9833 -0.3891
 1356SOL    HW1 4967   3.157   4.269   0.479  1.8229  0.0826 -0.7891
 1356SOL    HW2 4968   3.258   4.391   0.440  0.9341  0.8936 -0.6009
 1357SOL     OW 4969   1.681   3.303   0.228 -0.1364  0.0877  0.0734
 1357SOL    HW1 4970   1.734   3.253   0.159 -1.8376  1.2097 -2.1797
 1357SOL    HW2 4971   1.697   3.401   0.219 -1.2697  0.3297  0.4787
 1358SOL     OW 4972   2.150   5.774   4.530 -0.0578 -0.0429  0.1666
 1358SOL    HW1 4973   2.212   5.817   4.596  0.3783  0.2435 -0.4221
 1358SOL    HW2 4974   2.157   5.675   4.537  0.1227 -0.0141  0.4215
 1359SOL     OW 4975   6.319   6.440   1.054  0.2402 -0.3508  0.2618
 1359SOL    HW1 4976   6.271   6.431   1.141 -0.5414 -1.5540 -0.2786
 1359SOL    HW2 4977   6.284   6.520   1.005  0.8458  0.4710  1.1219
 1360SOL     OW 4978   0.704   1.963   6.418 -0.3527 -0.3408  0.0829
 1360SOL    HW1 4979   0.703   2.053   6.461  3.2016  0.0905 -0.4612
 1360SOL    HW2 4980   0.766   1.902   6.468 -0.5581 -1.6261 -1.1426
 1361SOL     OW 4981   6.648   4.804   4.487  0.0691  0.3145  0.0306
 1361SOL    HW1 4982   6.641   4.897   4.452  0.0734  0.1876 -0.3120
 1361SOL    HW2 4983   6.743   4.786   4.513  0.2423  0.1316 -0.6916
 1362SOL     OW 4984   3.769   3.306   4.070 -0.0890  0.0631 -0.0686
 1362SOL    HW1 4985   3.800   3.400   4.053 -0.6301  0.4103  0.7781
 1362SOL    HW2 4986   3.773   3.254   3.985  2.3900  0.1918 -0.0897
 1363SOL     OW 4987   6.744   4.937   5.316 -0.3769  0.3811  0.2462
 1363SOL    HW1 4988   6.691   4.985   5.386  0.9521 -0.7312  2.1073
 1363SOL    HW2 4989   6.841   4.938   5.341  0.2525  0.5550 -1.9827
 1364SOL     OW 4990   5.256   5.051   0.175 -0.8899 -0.7483  0.1108
 1364SOL    HW1 4991   5.221   5.118   0.109 -0.2832  0.5822  1.0938
 1364SOL    HW2 4992   5.353   5.037   0.159 -1.1679 -2.0757 -0.6176
 1365SOL     OW 4993   0.183   2.358   0.203 -0.0010 -0.5963  0.0246
 1365SOL    HW1 4994   0.139   2.366   0.113  3.0909 -1.1420 -1.7127
 1365SOL    HW2 4995   0.203   2.449   0.239  1.2248 -0.3078 -1.2705
 1366SOL     OW 4996   1.418   1.537   4.359  0.5142  0.0821 -0.0045
 1366SOL    HW1 4997   1.322   1.566   4.355  0.7852  1.4449  1.9832
 1366SOL    HW2 4998   1.467   1.593   4.426  3.0682  0.4161 -1.9684
 1367SOL     OW 4999   3.031   4.470   1.351 -0.9400 -0.3775 -0.5358
 1367SOL    HW1 5000   3.079   4.530   1.287 -1.7329 -1.3841 -2.1262
 1367SOL    HW2 5001   3.039   4.508   1.443 -1.0124  1.9216 -1.3956
 1368SOL     OW 5002   0.212   5.970   3.752  0.3308  0.2782 -0.1848
 1368SOL    HW1 5003   0.147   6.018   3.811 -0.3444 -1.7247  0.8237
 1368SOL    HW2 5004   0.285   5.930   3.808 -0.0629 -1.2650 -0.7022
 1369SOL     OW 5005   6.915   6.984   5.435 -0.1792  0.1867  0.2246
 1369SOL    HW1 5006   6.835   7.034   5.468 -2.0422 -1.4577 -1.5471
 1369SOL    HW2 5007   6.997   7.036   5.456 -1.8160  2.8566  0.5169
 1370SOL     OW 5008   0.179   1.760   3.364  0.1561 -0.1112  0.3898
 1370SOL    HW1 5009   0.251   1.777   3.296 -1.4736 -0.8437 -1.6103
 1370SOL    HW2 5010   0.109   1.831   3.357 -1.2460 -1.5131 -0.4658
 1371SOL     OW 5011   0.644   6.237   4.585 -0.3892 -0.0924  0.0194
 1371SOL    HW1 5012   0.555   6.195   4.599 -0.1900 -0.6605 -0.4269
 1371SOL    HW2 5013   0.631   6.332   4.555 -0.8324  0.1334  0.8849
 1372SOL     OW 5014   3.718   1.311   1.020 -0.4102  0.3164  0.0803
 1372SOL    HW1 5015   3.632   1.363   1.016 -0.6904 -0.2264 -1.4578
 1372SOL    HW2 5016   3.715   1.247   1.096 -1.0805  0.7839  0.4570
 1373SOL     OW 5017   6.417   4.738   4.634  0.3179 -0.4543 -0.1507
 1373SOL    HW1 5018   6.496   4.683   4.658 -0.0448 -0.2397  1.6579
 1373SOL    HW2 5019   6.436   4.789   4.549  2.0705 -0.4594  0.2051
 1374SOL     OW 5020   4.851   3.067   4.200  0.0536  0.0099 -0.2073
 1374SOL    HW1 5021   4.782   2.999   4.225  0.2149  0.3084  1.1349
 1374SOL    HW2 5022   4.942   3.026   4.202  0.2050  0.3659  1.1356
 1375SOL     OW 5023   0.827   3.879   3.241  0.1709  0.6928  0.4195
 1375SOL    HW1 5024   0.736   3.921   3.238 -0.1360  0.0222  0.2085
 1375SOL    HW2 5025   0.896   3.951   3.235 -0.3422  1.2141  0.6107
 1376SOL     OW 5026   4.774   0.029   1.690  0.2173 -0.6091 -0.0826
 1376SOL    HW1 5027   4.778   0.040   1.789 -0.2738  0.5989 -0.1759
 1376SOL    HW2 5028   4.741   0.114   1.648 -1.0179 -1.5763 -1.1758
 1377SOL     OW 5029   6.220   3.537   4.344  0.0832 -0.1026  0.9282
 1377SOL    HW1 5030   6.236   3.595   4.423 -1.7344  0.3477  1.0056
 1377SOL    HW2 5031   6.238   3.589   4.260 -1.4456  0.5954  0.9980
 1378SOL     OW 5032   1.802   3.161   0.043 -0.0989  0.0834 -0.2119
 1378SOL    HW1 5033   1.884   3.104   0.049  0.4746  0.8295 -0.7962
 1378SOL    HW2 5034   1.798   3.204  -0.047  0.6505  2.6734  0.9131
 1379SOL     OW 5035   3.296   5.628   1.968 -0.2662  0.4866  0.0921
 1379SOL    HW1 5036   3.250   5.707   1.928  1.5213  2.2122  1.2968
 1379SOL    HW2 5037   3.234   5.584   2.033 -1.5402  0.3979 -1.1189
 1380SOL     OW 5038   6.261   5.173   2.951 -0.0097  0.1595 -0.1851
 1380SOL    HW1 5039   6.274   5.074   2.959  1.4955  0.3781  0.5473
 1380SOL    HW2 5040   6.318   5.208   2.877  0.9111  0.6922  0.7427
 1381SOL     OW 5041   4.263   0.840   2.998  0.1016  0.1493 -0.6688
 1381SOL    HW1 5042   4.212   0.860   2.915 -1.2621  1.2690  0.3683
 1381SOL    HW2 5043   4.304   0.925   3.032  2.0207 -0.5834 -1.0325
 1382SOL     OW 5044   6.070   3.255   0.755 -0.1757 -0.0045 -0.1820
 1382SOL    HW1 5045   6.128   3.269   0.835 -1.8660  1.7971  0.8051
 1382SOL    HW2 5046   6.088   3.164   0.716  2.4746  0.0747  0.6823
 1383SOL     OW 5047   3.667   0.596   6.692 -0.1221  0.2869  0.4748
 1383SOL    HW1 5048   3.569   0.580   6.707 -0.4618  0.5556 -1.2957
 1383SOL    HW2 5049   3.680   0.647   6.607  1.6135 -0.5347  0.2110
 1384SOL     OW 5050   5.904   1.512   3.457  0.0548  0.3682  0.2702
 1384SOL    HW1 5051   5.963   1.442   3.415  1.8813  2.0005 -0.0371
 1384SOL    HW2 5052   5.855   1.472   3.534  0.4076 -1.4513 -0.3929
 1385SOL     OW 5053   5.102   3.438   4.242  0.6775  0.4502 -0.1504
 1385SOL    HW1 5054   5.110   3.426   4.341  0.7391 -1.2841 -0.3227
 1385SOL    HW2 5055   5.158   3.515   4.213  1.8110  0.1060  1.0118
 1386SOL     OW 5056   2.399   1.754   2.957 -0.0186 -0.4566 -0.3365
 1386SOL    HW1 5057   2.473   1.819   2.937 -0.5859  0.6104  0.8619
 1386SOL    HW2 5058   2.315   1.805   2.977 -0.7232 -1.6042 -0.3210
 1387SOL     OW 5059   4.746   6.290   5.533  0.1469  0.0945  0.1982
 1387SOL    HW1 5060   4.805   6.318   5.457 -0.5979 -0.7461 -0.7358
 1387SOL    HW2 5061   4.771   6.339   5.616  2.1312 -0.2366 -0.1684
 1388SOL     OW 5062   5.425   2.131   2.646  0.1563 -0.3582 -0.5367
 1388SOL    HW1 5063   5.337   2.138   2.693  0.1809  0.6052 -0.6026
 1388SOL    HW2 5064   5.496   2.107   2.712  0.2398  1.2811  0.0313
 1389SOL     OW 5065   1.387   6.643   4.055  0.1201  0.1466 -0.2188
 1389SOL    HW1 5066   1.324   6.704   4.104 -0.2111 -0.1681 -0.2514
 1389SOL    HW2 5067   1.394   6.556   4.104 -0.9008 -0.5067 -1.2000
 1390SOL     OW 5068   5.776   1.683   1.952  0.1654  0.5861  0.2955
 1390SOL    HW1 5069   5.858   1.691   2.009  0.6979 -0.2751 -0.3342
 1390SOL    HW2 5070   5.716   1.761   1.969  1.3716  1.5244  0.3477
 1391SOL     OW 5071   5.973   0.494   5.044  0.1231  0.5691 -0.5669
 1391SOL    HW1 5072   5.947   0.458   4.954  1.2068  1.4633 -1.2683
 1391SOL    HW2 5073   6.073   0.498   5.050  0.1799 -2.0293  1.7339
 1392SOL     OW 5074   2.337   0.132   5.328  0.2730 -0.4643 -0.6457
 1392SOL    HW1 5075   2.403   0.100   5.260  1.7759  0.5030  0.2981
 1392SOL    HW2 5076   2.276   0.057   5.353  1.9442 -1.8241 -0.4843
 1393SOL     OW 5077   2.481   5.867   5.810  0.8168 -0.5569 -0.2004
 1393SOL    HW1 5078   2.384   5.846   5.823 -0.0418  2.0157 -1.5742
 1393SOL    HW2 5079   2.524   5.883   5.898 -0.6687  0.6612  0.3522
 1394SOL     OW 5080   5.361   0.036   3.846 -0.1141  0.1349  0.4491
 1394SOL    HW1 5081   5.280  -0.009   3.884  1.0495 -1.5015  1.1439
 1394SOL    HW2 5082   5.441   0.009   3.899  0.8342  2.2006  0.1661
 1395SOL     OW 5083   1.346   3.958   0.840  0.4925 -0.3112  0.8673
 1395SOL    HW1 5084   1.325   3.969   0.937  1.3525 -0.5616  1.0912
 1395SOL    HW2 5085   1.431   3.906   0.830  0.7352  0.2311 -0.0024
 1396SOL     OW 5086   6.687   2.539   1.367 -0.3717  0.9294 -0.1122
 1396SOL    HW1 5087   6.653   2.618   1.419 -1.6882 -0.9990  2.1980
 1396SOL    HW2 5088   6.786   2.533   1.378 -0.3898  1.6374  0.6283
 1397SOL     OW 5089   2.849   3.723   5.491 -0.0814  0.7631 -0.2422
 1397SOL    HW1 5090   2.826   3.735   5.394 -0.1553  0.5712 -0.2487
 1397SOL    HW2 5091   2.764   3.712   5.543  0.0210 -1.5065 -0.4665
 1398SOL     OW 5092   4.834   6.894   4.581  0.4766  0.2673  0.1693
 1398SOL    HW1 5093   4.768   6.843   4.636  0.5333 -0.4403 -0.3948
 1398SOL    HW2 5094   4.890   6.951   4.640 -1.5504  2.0085  0.5610
 1399SOL     OW 5095   3.259   0.220   5.654  0.1670  0.1644 -0.2303
 1399SOL    HW1 5096   3.240   0.264   5.566  1.0678  0.6848 -0.1792
 1399SOL    HW2 5097   3.343   0.258   5.692 -0.5668  0.4366  1.1870
 1400SOL     OW 5098   1.361   3.347   5.885 -0.3650 -0.1913  0.1421
 1400SOL    HW1 5099   1.460   3.354   5.889 -0.2409 -1.6988  0.4861
 1400SOL    HW2 5100   1.323   3.342   5.977 -0.8155  0.7767  0.0244
 1401SOL     OW 5101   3.819   0.100   2.446 -0.3384  0.0373 -0.4707
 1401SOL    HW1 5102   3.813   0.129   2.541 -0.0795 -0.6403 -0.2424
 1401SOL    HW2 5103   3.757   0.024   2.430 -0.6534  0.3885 -0.9392
 1402SOL     OW 5104   4.855   3.862   1.995 -0.2019  0.0022 -0.2343
 1402SOL    HW1 5105   4.862   3.787   1.930 -2.0013 -1.6487  1.3727
 1402SOL    HW2 5106   4.890   3.834   2.084 -0.2658  1.3166  0.2391
 1403SOL     OW 5107   3.563   2.623   0.112 -0.1934  0.5157  0.1673
 1403SOL    HW1 5108   3.640   2.673   0.151  0.2295 -0.4598  0.6294
 1403SOL    HW2 5109   3.554   2.645   0.015  1.3353 -0.1285 -0.1468
 1404SOL     OW 5110   4.068   4.007   6.795  0.0663  0.0978 -0.0423
 1404SOL    HW1 5111   4.067   4.061   6.878  0.0322 -1.1171  0.7821
 1404SOL    HW2 5112   3.983   4.021   6.745  0.3298  1.2760 -0.1842
 1405SOL     OW 5113   0.842   6.691   0.143 -0.1487 -0.1002 -0.3042
 1405SOL    HW1 5114   0.892   6.664   0.225 -0.3551 -0.6995 -0.3731
 1405SOL    HW2 5115   0.867   6.631   0.067 -1.7506 -1.1199 -0.0810
 1406SOL     OW 5116   1.305   3.945   6.255  0.0271  0.7640 -0.5225
 1406SOL    HW1 5117   1.220   3.971   6.208 -0.1172  1.6588  0.1929
 1406SOL    HW2 5118   1.283   3.915   6.348  0.5154  1.2710 -0.2392
 1407SOL     OW 5119   0.633   0.853   2.562 -0.7547  0.0260  0.4711
 1407SOL    HW1 5120   0.721   0.818   2.596 -0.4837  1.1446  0.9725
 1407SOL    HW2 5121   0.623   0.828   2.466  0.7001  0.9072  0.0544
 1408SOL     OW 5122   5.949   6.665   1.397  0.0489 -0.0373 -0.5654
 1408SOL    HW1 5123   5.990   6.614   1.472 -0.7348 -0.2401 -0.2591
 1408SOL    HW2 5124   5.990   6.755   1.390 -1.0567  0.6515  1.2428
 1409SOL     OW 5125   5.019   2.296   6.757 -0.2150 -0.0570  0.5442
 1409SOL    HW1 5126   5.089   2.248   6.705  0.2120  0.8723  0.2329
 1409SOL    HW2 5127   5.057   2.382   6.792 -0.7666 -0.2392  1.6268
 1410SOL     OW 5128   2.945   6.482   1.605  0.2580  0.3459  0.0945
 1410SOL    HW1 5129   2.892   6.472   1.521 -1.3910  1.9747  0.8606
 1410SOL    HW2 5130   2.905   6.424   1.676  1.2077 -0.4755 -0.0173
 1411SOL     OW 5131   2.257   6.797   6.033 -0.1892  0.1855 -1.0743
 1411SOL    HW1 5132   2.159   6.812   6.019 -0.4089 -1.0602 -0.9991
 1411SOL    HW2 5133   2.284   6.713   5.986  0.4689 -0.4279  0.3591
 1412SOL     OW 5134   2.096   1.805   4.621  0.5978 -0.1417  0.1098
 1412SOL    HW1 5135   2.067   1.775   4.530 -0.3907  0.9383  0.0335
 1412SOL    HW2 5136   2.020   1.793   4.686  0.8382  0.3288  0.4885
 1413SOL     OW 5137   2.960   0.420   5.628  0.0331 -0.2173  0.5789
 1413SOL    HW1 5138   3.049   0.443   5.589  0.5489 -2.1648  0.4773
 1413SOL    HW2 5139   2.911   0.360   5.564 -1.3662  0.8268  0.6376
 1414SOL     OW 5140   6.656   5.609   1.743  0.1325 -0.7285 -0.5859
 1414SOL    HW1 5141   6.560   5.627   1.767  0.1211 -0.1485 -1.0497
 1414SOL    HW2 5142   6.687   5.526   1.790 -0.8724 -1.4369 -1.1280
 1415SOL     OW 5143   1.579   2.469   5.383 -0.6419  0.3708  0.1097
 1415SOL    HW1 5144   1.591   2.497   5.478 -0.9553  2.1321 -0.3387
 1415SOL    HW2 5145   1.641   2.394   5.362  1.6402  1.9324  0.8828
 1416SOL     OW 5146   2.410   6.679   5.496  0.3261  0.5550 -0.0992
 1416SOL    HW1 5147   2.423   6.741   5.573  1.7763 -1.9307  1.7951
 1416SOL    HW2 5148   2.312   6.674   5.474 -0.0526  1.8003  1.1618
 1417SOL     OW 5149   3.208   3.832   5.047 -0.6585  0.0961  0.3726
 1417SOL    HW1 5150   3.142   3.906   5.036  0.8476  1.3780 -0.6504
 1417SOL    HW2 5151   3.237   3.799   4.957 -0.0873 -0.6079  0.7961
 1418SOL     OW 5152   2.193   4.854   0.033  0.1342  0.6259 -0.4320
 1418SOL    HW1 5153   2.147   4.869  -0.054 -0.1291  0.7310 -0.2766
 1418SOL    HW2 5154   2.280   4.807   0.017 -0.0034  0.4685 -0.7316
 1419SOL     OW 5155   1.065   4.968   0.697  0.1585  0.1166  0.1690
 1419SOL    HW1 5156   1.036   5.003   0.608 -0.2325 -1.5070 -0.3706
 1419SOL    HW2 5157   1.013   4.886   0.720 -0.4238  1.0160  2.3615
 1420SOL     OW 5158   2.672   1.475   1.587  0.1288  0.2421 -0.1750
 1420SOL    HW1 5159   2.640   1.537   1.515 -0.8665  0.7574  0.6863
 1420SOL    HW2 5160   2.715   1.528   1.660  0.7655 -0.2417 -0.1903
 1421SOL     OW 5161   2.215   5.926   1.577  0.1938  0.1391 -0.0593
 1421SOL    HW1 5162   2.249   5.974   1.496 -0.5837  2.0746  0.7246
 1421SOL    HW2 5163   2.210   5.828   1.557  0.5282  0.5059 -2.1617
 1422SOL     OW 5164   1.793   3.890   6.739 -0.6338  0.1880  0.0251
 1422SOL    HW1 5165   1.713   3.911   6.795 -0.3504 -1.9655  1.3804
 1422SOL    HW2 5166   1.764   3.840   6.657 -0.6698 -1.6940  1.1200
 1423SOL     OW 5167   6.576   6.389   4.058 -0.0859  0.0602 -0.2020
 1423SOL    HW1 5168   6.629   6.306   4.075 -1.3348 -1.0511 -1.4629
 1423SOL    HW2 5169   6.485   6.378   4.100  0.1844  1.3692  0.7740
 1424SOL     OW 5170   6.405   4.614   1.863 -1.1728  0.0627  0.2349
 1424SOL    HW1 5171   6.318   4.565   1.855 -0.9062 -0.7345  1.6712
 1424SOL    HW2 5172   6.464   4.590   1.786 -1.9666  0.0701 -0.3843
 1425SOL     OW 5173   6.314   6.938   1.675 -0.5011  0.1752  0.3736
 1425SOL    HW1 5174   6.232   6.887   1.704 -0.0958  0.1764  1.5580
 1425SOL    HW2 5175   6.351   6.896   1.592 -0.8230 -0.7734  0.6987
 1426SOL     OW 5176   4.113   0.543   1.654  0.0382  0.9879 -0.4006
 1426SOL    HW1 5177   4.176   0.619   1.670 -0.5155  1.5133 -0.6617
 1426SOL    HW2 5178   4.062   0.524   1.738  0.6846  0.4223 -0.1278
 1427SOL     OW 5179   6.601   1.008   4.998 -0.6455 -0.3355  0.2339
 1427SOL    HW1 5180   6.562   0.941   4.935 -2.6257  1.6437 -0.7578
 1427SOL    HW2 5181   6.658   1.072   4.948  0.9418 -0.9925  1.1196
 1428SOL     OW 5182   3.178   5.212   3.702  0.2877 -0.0748 -0.0513
 1428SOL    HW1 5183   3.151   5.276   3.774 -1.5344  0.6136 -1.2896
 1428SOL    HW2 5184   3.129   5.126   3.713  0.5281 -0.2186 -0.0855
 1429SOL     OW 5185   6.508   6.497   1.847 -0.2924  0.1039  0.0195
 1429SOL    HW1 5186   6.421   6.541   1.824 -0.2702 -0.4058 -1.1106
 1429SOL    HW2 5187   6.539   6.441   1.770  0.9420  0.1083  0.4843
 1430SOL     OW 5188   2.230   4.723   4.960  0.0962 -0.4953  0.2838
 1430SOL    HW1 5189   2.164   4.674   5.018  1.5463 -1.9343  0.7739
 1430SOL    HW2 5190   2.287   4.658   4.911 -0.5848  0.7050 -2.2665
 1431SOL     OW 5191   4.356   0.505   0.957 -0.3584 -0.0700 -0.1439
 1431SOL    HW1 5192   4.366   0.499   0.857  0.4604 -0.3815 -0.0474
 1431SOL    HW2 5193   4.340   0.601   0.982 -0.6911 -0.0045 -0.5782
 1432SOL     OW 5194   1.457   0.253   2.705 -0.2682 -0.6374 -0.3221
 1432SOL    HW1 5195   1.470   0.352   2.713 -2.0772 -0.2173 -1.9795
 1432SOL    HW2 5196   1.499   0.208   2.783  1.1122  1.3786  0.1794
 1433SOL     OW 5197   4.295   0.163   3.789  0.5779  0.1417  0.1737
 1433SOL    HW1 5198   4.342   0.099   3.850 -0.2969 -0.1578  0.5522
 1433SOL    HW2 5199   4.270   0.245   3.841 -1.6734 -0.8153  0.7091
 1434SOL     OW 5200   6.848   2.628   1.931  0.2287 -0.1529  0.0256
 1434SOL    HW1 5201   6.871   2.723   1.952  0.5988 -0.3155  0.3874
 1434SOL    HW2 5202   6.860   2.612   1.833  1.7259 -0.2288  0.1979
 1435SOL     OW 5203   0.365   4.934   4.541  0.0827  0.0362 -0.2242
 1435SOL    HW1 5204   0.268   4.952   4.525 -0.2484 -1.7199 -0.4107
 1435SOL    HW2 5205   0.414   5.021   4.552 -1.2446  1.0080 -1.5717
 1436SOL     OW 5206   1.084   6.692   6.485 -0.5717  0.1354 -0.1584
 1436SOL    HW1 5207   1.071   6.688   6.386  0.2953  1.0782 -0.3375
 1436SOL    HW2 5208   1.180   6.678   6.506 -0.9501 -1.3567  0.6698
 1437SOL     OW 5209   3.112   1.386   6.983  0.1094  0.1466  0.0715
 1437SOL    HW1 5210   3.163   1.463   7.022  1.4187 -0.2470 -0.8187
 1437SOL    HW2 5211   3.036   1.421   6.928  0.7135  0.8197 -0.3568
 1438SOL     OW 5212   3.396   6.653   4.281 -0.0975 -0.2748 -0.0708
 1438SOL    HW1 5213   3.383   6.728   4.215 -0.8015 -0.1657  0.1857
 1438SOL    HW2 5214   3.370   6.684   4.372 -1.2453 -1.0850 -0.0999
 1439SOL     OW 5215   6.074   6.245   4.446 -0.0263  0.7359  0.6607
 1439SOL    HW1 5216   6.078   6.165   4.505  1.3807  1.1957  1.2459
 1439SOL    HW2 5217   5.980   6.279   4.442 -1.4031 -2.8127 -2.2855
 1440SOL     OW 5218   4.279   2.912   1.166  0.2358 -0.4991 -0.1224
 1440SOL    HW1 5219   4.181   2.919   1.183 -0.0155 -0.8662 -1.3837
 1440SOL    HW2 5220   4.321   2.855   1.237 -0.5131 -0.6319  0.2172
 1441SOL     OW 5221   2.401   2.520   6.869 -0.2683  0.1117 -0.1198
 1441SOL    HW1 5222   2.337   2.596   6.878 -1.9265 -1.2566  0.0981
 1441SOL    HW2 5223   2.412   2.474   6.957  2.6859  1.5232  0.3827
 1442SOL     OW 5224   6.054   6.754   6.660  0.7713 -0.1612 -0.2872
 1442SOL    HW1 5225   6.126   6.719   6.599  0.7991 -0.4141 -0.1139
 1442SOL    HW2 5226   6.077   6.730   6.755 -0.3476 -1.6913 -0.3619
 1443SOL     OW 5227   2.310   3.298   6.218  0.1529 -0.5351 -0.5783
 1443SOL    HW1 5228   2.250   3.372   6.248  2.1096  0.0636  2.2766
 1443SOL    HW2 5229   2.347   3.320   6.128 -0.2332  1.4122 -0.3214
 1444SOL     OW 5230   4.506   6.156   5.467 -0.1392 -0.5675  0.3427
 1444SOL    HW1 5231   4.452   6.153   5.551  1.6743 -0.4843  1.5648
 1444SOL    HW2 5232   4.590   6.209   5.483  0.6717 -1.3148 -1.2455
 1445SOL     OW 5233   0.785   3.792   5.557 -0.0717 -0.0463  0.0413
 1445SOL    HW1 5234   0.869   3.761   5.602 -0.4868  0.7532  1.4408
 1445SOL    HW2 5235   0.806   3.823   5.464  0.9005 -1.3187 -0.1832
 1446SOL     OW 5236   1.233   3.890   2.329  0.1840  0.0775  0.3240
 1446SOL    HW1 5237   1.250   3.863   2.234  0.8979  0.2992  0.3876
 1446SOL    HW2 5238   1.318   3.891   2.380 -0.1214  0.4501  0.8461
 1447SOL     OW 5239   0.471   1.274   4.738  0.6547 -0.0980 -0.2703
 1447SOL    HW1 5240   0.427   1.268   4.828  1.0114  0.2197 -0.0713
 1447SOL    HW2 5241   0.406   1.312   4.672  0.9702  1.5436  0.2933
 1448SOL     OW 5242   4.985   0.317   3.012 -0.2095  0.0883 -0.0268
 1448SOL    HW1 5243   5.022   0.271   3.092  3.4242  0.8780 -1.0900
 1448SOL    HW2 5244   5.016   0.271   2.929  0.0882  1.9896 -1.0384
 1449SOL     OW 5245   6.489   5.318   0.165  0.0036  0.1884  0.3477
 1449SOL    HW1 5246   6.583   5.298   0.137  0.2368  1.0438  0.5059
 1449SOL    HW2 5247   6.473   5.280   0.257  0.1875  0.0221  0.3107
 1450SOL     OW 5248   4.932   0.850   3.823 -0.4962 -0.4168  0.3164
 1450SOL    HW1 5249   4.925   0.765   3.771 -0.9067 -0.0669 -0.2088
 1450SOL    HW2 5250   5.028   0.875   3.834 -0.3509 -1.1614  0.8348
 1451SOL     OW 5251   6.801   6.495   2.407  0.1531  0.7474  0.0460
 1451SOL    HW1 5252   6.777   6.592   2.409  0.3003  0.9731 -3.1394
 1451SOL    HW2 5253   6.855   6.476   2.325 -0.7056 -2.2003  0.0369
 1452SOL     OW 5254   2.486   0.831   0.360 -0.1020 -0.0269 -0.2888
 1452SOL    HW1 5255   2.579   0.839   0.396 -0.7649  1.3212  1.2466
 1452SOL    HW2 5256   2.472   0.900   0.290 -0.8772  2.0321  1.7593
 1453SOL     OW 5257   5.212   3.127   5.222 -0.2950 -0.0879 -0.1412
 1453SOL    HW1 5258   5.214   3.155   5.318  1.1809 -0.8516  0.0925
 1453SOL    HW2 5259   5.283   3.176   5.172 -1.6104  0.9239 -1.0490
 1454SOL     OW 5260   0.193   4.260   1.657 -0.3260  0.0757  0.7814
 1454SOL    HW1 5261   0.181   4.229   1.563 -1.9062 -2.2130  1.6262
 1454SOL    HW2 5262   0.270   4.323   1.663  0.0111  0.0092 -1.9598
 1455SOL     OW 5263   2.726   2.239   0.560 -0.7282 -0.2899 -0.0137
 1455SOL    HW1 5264   2.803   2.238   0.497  0.1514  0.0725  1.0193
 1455SOL    HW2 5265   2.643   2.211   0.512  0.4259 -2.9452 -0.6351
 1456SOL     OW 5266   5.051   4.493   4.795  0.0714  0.0845  0.3211
 1456SOL    HW1 5267   5.010   4.436   4.725  0.1375  1.2234 -0.6809
 1456SOL    HW2 5268   4.980   4.548   4.840 -0.1483 -1.5018  2.0230
 1457SOL     OW 5269   2.890   1.650   3.346 -0.1264 -0.5457  0.5295
 1457SOL    HW1 5270   2.924   1.734   3.389 -0.2675 -0.9701  1.4827
 1457SOL    HW2 5271   2.809   1.618   3.395 -1.4767  0.0320 -1.2423
 1458SOL     OW 5272   6.750   5.064   6.036  0.6898 -0.1491  0.5940
 1458SOL    HW1 5273   6.809   5.041   5.959 -0.5845 -0.5482 -0.2892
 1458SOL    HW2 5274   6.714   5.157   6.024 -2.2495 -1.4027 -1.1482
 1459SOL     OW 5275   4.657   6.186   3.240 -0.9971 -0.5324 -0.0894
 1459SOL    HW1 5276   4.578   6.127   3.252  0.0898 -2.2752 -1.1149
 1459SOL    HW2 5277   4.685   6.186   3.144 -0.3570  0.8865  0.0627
 1460SOL     OW 5278   0.799   0.896   5.826 -0.5029 -0.4318 -0.4908
 1460SOL    HW1 5279   0.732   0.876   5.754 -0.3837 -2.4011 -0.1083
 1460SOL    HW2 5280   0.828   0.991   5.818 -2.1627  0.0314 -1.6394
 1461SOL     OW 5281   4.798   4.097   1.818 -0.1306 -0.4320 -0.1965
 1461SOL    HW1 5282   4.789   4.010   1.867 -0.3284 -1.4157 -1.9264
 1461SOL    HW2 5283   4.767   4.171   1.878  0.8716 -1.4186  1.6273
 1462SOL     OW 5284   6.422   0.269   5.849  0.4330  0.5633  0.3238
 1462SOL    HW1 5285   6.479   0.281   5.768 -1.2865  0.5382 -0.9309
 1462SOL    HW2 5286   6.440   0.179   5.890  0.5797  0.1507 -0.6270
 1463SOL     OW 5287   6.903   2.629   4.109  0.2034 -0.0632 -0.2295
 1463SOL    HW1 5288   6.830   2.694   4.088 -1.2368 -1.6530 -0.3584
 1463SOL    HW2 5289   6.948   2.601   4.023 -0.4093 -0.6092 -0.3790
 1464SOL     OW 5290   6.234   6.581   1.764 -0.6089  0.0205 -0.2220
 1464SOL    HW1 5291   6.229   6.481   1.770 -0.0724 -0.1467 -1.9950
 1464SOL    HW2 5292   6.260   6.608   1.671  0.5418  1.7816  0.5585
 1465SOL     OW 5293   2.037   3.790   4.758 -0.0640 -0.3245 -0.0950
 1465SOL    HW1 5294   2.106   3.856   4.727  0.2402 -0.3752  0.4638
 1465SOL    HW2 5295   2.026   3.797   4.857 -1.4933  0.2822 -0.2678
 1466SOL     OW 5296   5.942   5.355   5.239 -0.6327  0.0283  0.3752
 1466SOL    HW1 5297   5.931   5.441   5.190 -0.4616 -0.3141 -0.2675
 1466SOL    HW2 5298   5.969   5.374   5.334  0.7802  0.6442 -0.1286
 1467SOL     OW 5299   1.258   6.130   4.054 -0.0830  0.6565  0.0631
 1467SOL    HW1 5300   1.240   6.095   4.146 -1.3424 -0.3070 -0.5217
 1467SOL    HW2 5301   1.184   6.102   3.993  2.0441 -1.1823 -1.8814
 1468SOL     OW 5302   4.346   6.290   2.565  0.6112  0.3918  0.2280
 1468SOL    HW1 5303   4.407   6.369   2.572 -0.8367  1.4856  0.8985
 1468SOL    HW2 5304   4.279   6.306   2.493  0.3853 -0.3038  0.2754
 1469SOL     OW 5305   0.552   0.154   0.976 -0.0593  0.2816 -0.3334
 1469SOL    HW1 5306   0.495   0.134   1.056  0.4082  1.5030  0.3275
 1469SOL    HW2 5307   0.498   0.139   0.893 -0.6269 -0.7727  0.1915
 1470SOL     OW 5308   6.676   0.496   3.105 -0.0574  0.1592  0.0708
 1470SOL    HW1 5309   6.749   0.534   3.161  0.2155 -2.8025  1.9595
 1470SOL    HW2 5310   6.632   0.421   3.154 -0.5725 -1.9048 -3.2121
 1471SOL     OW 5311   0.908   1.988   0.980  0.4767 -0.7724 -0.1438
 1471SOL    HW1 5312   0.946   2.011   0.891  0.4593  1.7294  0.4135
 1471SOL    HW2 5313   0.811   1.965   0.970  0.3583 -0.0576 -0.7401
 1472SOL     OW 5314   2.042   6.285   4.477 -0.1577 -0.5642  0.2824
 1472SOL    HW1 5315   1.979   6.326   4.543  0.9377 -0.1436  1.1036
 1472SOL    HW2 5316   2.067   6.193   4.509 -0.7168 -0.9201 -0.2900
 1473SOL     OW 5317   2.380   2.235   2.065  0.5346 -0.3342 -0.1166
 1473SOL    HW1 5318   2.362   2.289   1.983 -0.3858 -0.7912 -0.2282
 1473SOL    HW2 5319   2.429   2.152   2.041  1.9821  0.4335  0.0593
 1474SOL     OW 5320   5.675   5.739   2.883  0.0978  0.1140  0.2200
 1474SOL    HW1 5321   5.597   5.801   2.890 -0.1276 -0.0263 -0.8251
 1474SOL    HW2 5322   5.759   5.791   2.872  0.0268  0.2493  0.3225
 1475SOL     OW 5323   5.665   6.588   4.198  0.0779  0.2896 -0.1102
 1475SOL    HW1 5324   5.614   6.581   4.284  0.1886 -0.5924 -0.1030
 1475SOL    HW2 5325   5.682   6.496   4.162 -0.5015  0.6698 -1.4001
 1476SOL     OW 5326   0.296   2.773   0.183  0.1898  0.0527  0.1085
 1476SOL    HW1 5327   0.369   2.757   0.250 -0.6893  1.5256  1.5200
 1476SOL    HW2 5328   0.319   2.853   0.128 -0.4838  0.7765  0.8376
 1477SOL     OW 5329   3.138   0.028   4.011 -0.8643 -0.0202 -0.5086
 1477SOL    HW1 5330   3.151   0.031   3.912 -0.3074 -0.1107 -0.4415
 1477SOL    HW2 5331   3.077   0.102   4.039  0.7928  1.4608 -0.6471
 1478SOL     OW 5332   6.268   3.984   0.918  0.2985 -0.1879  0.0566
 1478SOL    HW1 5333   6.353   3.933   0.910  0.8447  0.5421  1.0526
 1478SOL    HW2 5334   6.198   3.941   0.861  0.7729 -1.9653  0.7568
 1479SOL     OW 5335   1.701   4.469   1.111 -0.5625 -0.0085 -0.0223
 1479SOL    HW1 5336   1.734   4.458   1.017  1.5928 -1.4376  0.8327
 1479SOL    HW2 5337   1.733   4.557   1.147 -2.5630  1.1924 -1.0076
 1480SOL     OW 5338   3.133   6.863   0.228 -0.4258  0.1975 -0.1238
 1480SOL    HW1 5339   3.045   6.881   0.273 -0.3915 -1.4734  0.6959
 1480SOL    HW2 5340   3.204   6.919   0.270 -0.3125 -1.6007  2.3537
 1481SOL     OW 5341   6.268   3.517   2.499 -0.0658  0.1661 -0.7550
 1481SOL    HW1 5342   6.238   3.440   2.555 -0.6504  0.2577 -0.9323
 1481SOL    HW2 5343   6.354   3.553   2.534  0.2068 -0.5691 -0.6688
 1482SOL     OW 5344   5.835   6.188   0.462 -0.4986  0.3783 -0.0306
 1482SOL    HW1 5345   5.865   6.176   0.557  0.1717 -1.6830 -0.4443
 1482SOL    HW2 5346   5.747   6.235   0.460  0.0856  1.6315  1.5180
 1483SOL     OW 5347   6.149   1.720   0.134  0.6454 -0.4193 -0.1682
 1483SOL    HW1 5348   6.109   1.631   0.114  1.6792 -1.1722  1.0182
 1483SOL    HW2 5349   6.155   1.733   0.233  1.3884  0.5607 -0.3239
 1484SOL     OW 5350   6.030   5.094   2.608 -0.1675  0.2927 -0.1597
 1484SOL    HW1 5351   6.034   5.058   2.701  0.1230 -0.8134 -0.5948
 1484SOL    HW2 5352   6.101   5.164   2.597  0.0880  0.1174  0.3136
 1485SOL     OW 5353   4.650   4.302   3.270 -0.1390  0.1529  0.1621
 1485SOL    HW1 5354   4.589   4.354   3.211 -0.3197 -1.4211 -1.1269
 1485SOL    HW2 5355   4.728   4.270   3.216  0.0099 -0.8110  0.9280
 1486SOL     OW 5356   4.120   2.247   2.109  0.2738 -0.0106  0.1703
 1486SOL    HW1 5357   4.058   2.172   2.087 -0.6285 -0.0204  2.4733
 1486SOL    HW2 5358   4.074   2.334   2.094 -0.8462 -0.0198  2.9841
 1487SOL     OW 5359   0.454   6.467   6.902 -0.2319  0.1241  0.5689
 1487SOL    HW1 5360   0.458   6.566   6.917  1.1158 -0.2037  2.9149
 1487SOL    HW2 5361   0.542   6.435   6.867 -0.5560 -0.2976  0.1316
 1488SOL     OW 5362   4.480   1.433   4.337 -0.1977  0.3212 -0.2204
 1488SOL    HW1 5363   4.385   1.405   4.326  0.1422 -0.8831 -0.1488
 1488SOL    HW2 5364   4.518   1.462   4.249 -0.5600  0.6092 -0.2829
 1489SOL     OW 5365   2.911   5.758   3.406 -0.2847  0.2148 -0.2462
 1489SOL    HW1 5366   2.915   5.843   3.353  4.8332  1.9024  2.1589
 1489SOL    HW2 5367   2.934   5.681   3.346 -0.9423  1.1082 -1.6987
 1490SOL     OW 5368   1.834   3.316   6.840 -0.3767 -0.5560  0.2063
 1490SOL    HW1 5369   1.831   3.414   6.820 -1.1700 -0.5107  0.4858
 1490SOL    HW2 5370   1.918   3.277   6.804 -0.9651 -0.1641 -1.7062
 1491SOL     OW 5371   3.152   1.218   2.801 -0.3542 -0.2821  0.2651
 1491SOL    HW1 5372   3.195   1.280   2.866 -0.2184 -0.8278  0.7054
 1491SOL    HW2 5373   3.060   1.196   2.832 -0.2936 -0.5337  0.2721
 1492SOL     OW 5374   0.898   1.978   2.221 -0.1072 -0.4965 -0.7488
 1492SOL    HW1 5375   0.862   2.005   2.311 -0.5734  0.7586 -1.2893
 1492SOL    HW2 5376   0.926   2.060   2.171  2.6732 -1.3269 -0.7383
 1493SOL     OW 5377   0.345   3.306   6.806  0.1559  0.0680  0.4731
 1493SOL    HW1 5378   0.285   3.228   6.788 -0.9046  0.9631 -0.0458
 1493SOL    HW2 5379   0.314   3.354   6.888 -1.3164  1.8536 -1.0399
 1494SOL     OW 5380   5.780   3.895   6.629  0.5356  0.5242 -0.0870
 1494SOL    HW1 5381   5.710   3.939   6.573 -1.3396 -0.7768  1.1362
 1494SOL    HW2 5382   5.802   3.805   6.591  2.1903  1.2157 -0.9025
 1495SOL     OW 5383   0.339   3.519   1.586  0.3800 -0.2981  0.4887
 1495SOL    HW1 5384   0.303   3.437   1.542  2.3354 -0.5463 -0.7594
 1495SOL    HW2 5385   0.296   3.600   1.547 -0.3472 -0.6468  0.5456
 1496SOL     OW 5386   6.599   1.168   3.577  0.0114  0.1673  0.2143
 1496SOL    HW1 5387   6.684   1.149   3.528  0.6791  3.0585  0.0877
 1496SOL    HW2 5388   6.607   1.135   3.671  1.2279  0.2639  0.1617
 1497SOL     OW 5389   5.798   3.850   6.909 -0.4819  1.1521 -0.2814
 1497SOL    HW1 5390   5.757   3.856   6.818 -0.7245 -0.7675 -0.3513
 1497SOL    HW2 5391   5.897   3.865   6.903 -0.1532 -1.0621 -1.2517
 1498SOL     OW 5392   3.085   5.480   6.649  0.0788  0.5199 -0.1529
 1498SOL    HW1 5393   3.082   5.559   6.588  1.3306 -0.0312 -0.9683
 1498SOL    HW2 5394   3.004   5.423   6.633  0.4477  0.3115 -1.4405
 1499SOL     OW 5395   1.280   2.176   3.967 -0.0443  0.6963  0.0944
 1499SOL    HW1 5396   1.188   2.205   3.939 -0.0780  1.8502  1.3320
 1499SOL    HW2 5397   1.272   2.094   4.024 -0.3438  1.0481  0.5631
 1500SOL     OW 5398   4.467   0.616   5.946  0.2274 -0.1336  0.1917
 1500SOL    HW1 5399   4.389   0.596   5.887  1.2485 -0.3412 -1.1644
 1500SOL    HW2 5400   4.495   0.711   5.932  1.7422 -0.7317 -1.3195
 1501SOL     OW 5401   3.691   1.268   2.674 -0.4569 -0.1410 -0.8652
 1501SOL    HW1 5402   3.625   1.316   2.616 -1.4374 -1.7020 -1.0983
 1501SOL    HW2 5403   3.721   1.329   2.747  1.2453  2.1007 -3.2290
 1502SOL     OW 5404   5.904   6.772   6.405 -0.6698  0.2061  0.1202
 1502SOL    HW1 5405   5.924   6.765   6.503  0.9480 -0.9461 -0.2498
 1502SOL    HW2 5406   5.825   6.716   6.383 -0.2676 -0.5717  0.5918
 1503SOL     OW 5407   5.111   4.131   6.314 -0.4470 -0.1004  0.1905
 1503SOL    HW1 5408   5.050   4.159   6.388  1.3292 -0.1815  1.7725
 1503SOL    HW2 5409   5.085   4.177   6.229 -1.5193  1.3229  1.2573
 1504SOL     OW 5410   2.500   0.337   1.758 -0.1604  0.2840 -0.3464
 1504SOL    HW1 5411   2.585   0.291   1.735 -0.4337 -2.2527  2.8739
 1504SOL    HW2 5412   2.520   0.424   1.803  0.6026  0.7454 -1.5387
 1505SOL     OW 5413   5.945   4.718   2.385  0.3952 -0.6950 -0.2438
 1505SOL    HW1 5414   6.001   4.711   2.467  1.0967 -0.7369 -0.7094
 1505SOL    HW2 5415   5.994   4.772   2.316 -0.9691  0.9743  0.0211
 1506SOL     OW 5416   6.639   2.785   4.212 -0.1894  0.9103 -0.3186
 1506SOL    HW1 5417   6.552   2.828   4.237  0.2463  0.8788  1.4153
 1506SOL    HW2 5418   6.704   2.796   4.288  0.9823  0.0076 -1.1547
 1507SOL     OW 5419   3.936   1.945   4.124 -0.3622 -0.6371 -0.2481
 1507SOL    HW1 5420   3.897   1.854   4.136  0.0722 -0.6288  1.6179
 1507SOL    HW2 5421   3.880   2.011   4.175 -0.0974 -0.0272 -0.7445
 1508SOL     OW 5422   3.991   6.984   6.851 -0.2788  0.3564  0.1063
 1508SOL    HW1 5423   3.892   6.998   6.857 -0.3098 -0.3663  1.9484
 1508SOL    HW2 5424   4.038   7.061   6.895  0.0672  1.3326 -1.8662
 1509SOL     OW 5425   5.775   2.988   4.843  0.1575 -0.0081 -0.5810
 1509SOL    HW1 5426   5.679   3.007   4.863  0.2526  1.5649 -1.4609
 1509SOL    HW2 5427   5.783   2.942   4.755  0.2057 -0.2401 -0.4561
 1510SOL     OW 5428   5.708   0.594   1.738 -0.0591  0.4855  0.6830
 1510SOL    HW1 5429   5.748   0.609   1.648 -0.3539  1.0822  0.6414
 1510SOL    HW2 5430   5.764   0.639   1.807  0.0921  0.1462  0.7782
 1511SOL     OW 5431   0.663   0.923   6.408 -0.2181 -0.0136  0.4401
 1511SOL    HW1 5432   0.640   1.017   6.432 -1.3386  0.4115 -2.0331
 1511SOL    HW2 5433   0.710   0.922   6.320 -0.5142 -1.7957  0.2693
 1512SOL     OW 5434   6.663   1.247   3.157  0.2671 -0.3384  0.1523
 1512SOL    HW1 5435   6.576   1.272   3.198  0.0328  0.2405 -0.6592
 1512SOL    HW2 5436   6.649   1.173   3.091  0.8376 -2.1638  1.9747
 1513SOL     OW 5437   0.664   2.015   1.635  0.0563 -0.0837 -0.3052
 1513SOL    HW1 5438   0.579   1.966   1.615  0.3046 -0.2613 -0.9189
 1513SOL    HW2 5439   0.641   2.104   1.675 -0.3968 -0.6960  0.8631
 1514SOL     OW 5440   4.724   1.359   5.911 -0.0398  0.3195 -0.1506
 1514SOL    HW1 5441   4.741   1.451   5.946  1.1877 -0.2242  0.7510
 1514SOL    HW2 5442   4.802   1.329   5.856  0.6215 -1.0126  1.4372
 1515SOL     OW 5443   5.021   5.760   5.593  0.9460  0.3674  0.3587
 1515SOL    HW1 5444   4.948   5.797   5.649  0.3395  0.4334 -0.4537
 1515SOL    HW2 5445   5.002   5.664   5.571  0.5869  0.6562 -0.6638
 1516SOL     OW 5446   6.024   1.416   0.986 -0.1314  0.4679 -0.0772
 1516SOL    HW1 5447   5.927   1.397   0.973 -0.0066 -0.1554 -0.1213
 1516SOL    HW2 5448   6.056   1.477   0.913 -0.7640  1.6741  0.6372
 1517SOL     OW 5449   2.593   6.256   2.720  0.5014  0.0601  0.4713
 1517SOL    HW1 5450   2.667   6.272   2.784  0.8142  0.0977  0.1064
 1517SOL    HW2 5451   2.630   6.243   2.628  0.0748 -0.1805  0.3262
 1518SOL     OW 5452   1.474   6.283   6.789  0.2779 -0.2220  0.0743
 1518SOL    HW1 5453   1.537   6.317   6.718 -0.6314 -1.1326 -1.2130
 1518SOL    HW2 5454   1.411   6.217   6.748 -1.7763  0.9451  1.2591
 1519SOL     OW 5455   0.757   4.185   1.285 -0.1616  0.5833  0.1842
 1519SOL    HW1 5456   0.662   4.176   1.315 -0.8046  2.9825 -0.8626
 1519SOL    HW2 5457   0.765   4.160   1.189  0.4170 -0.2038  0.4251
 1520SOL     OW 5458   2.218   3.221   1.780 -0.3907  0.2697  0.0075
 1520SOL    HW1 5459   2.252   3.305   1.824  0.3723 -0.9193  1.7946
 1520SOL    HW2 5460   2.267   3.206   1.694 -0.2139  1.3917 -0.1059
 1521SOL     OW 5461   1.864   0.494   4.886  0.2974 -0.2673 -0.1933
 1521SOL    HW1 5462   1.925   0.466   4.960 -0.2984 -0.6844  0.1437
 1521SOL    HW2 5463   1.801   0.564   4.919 -1.2803 -1.8515  0.2721
 1522SOL     OW 5464   2.193   2.019   5.461  0.0288 -0.0808  0.0258
 1522SOL    HW1 5465   2.146   2.079   5.526  0.6996  0.8412 -0.3189
 1522SOL    HW2 5466   2.291   2.027   5.473  0.2044  0.6771 -1.5677
 1523SOL     OW 5467   4.360   1.549   1.986 -0.3209  0.2091  0.1693
 1523SOL    HW1 5468   4.438   1.599   1.950 -1.3157  0.8100 -1.2352
 1523SOL    HW2 5469   4.335   1.587   2.076  1.5717 -0.6649  1.1291
 1524SOL     OW 5470   0.946   2.208   2.072  0.0414 -0.0369  0.2406
 1524SOL    HW1 5471   0.907   2.261   1.997  1.5710 -1.9605 -2.0378
 1524SOL    HW2 5472   0.951   2.266   2.154 -1.5101  2.2068 -1.1287
 1525SOL     OW 5473   5.986   2.861   6.881  0.6864 -0.3378  0.1252
 1525SOL    HW1 5474   6.044   2.784   6.907  1.1022  0.4807  1.6974
 1525SOL    HW2 5475   6.043   2.941   6.863  0.1126  0.2739  0.9567
 1526SOL     OW 5476   4.583   2.009   0.182  0.3679 -0.4329 -0.4409
 1526SOL    HW1 5477   4.524   1.940   0.140 -0.4616 -0.4254  0.6433
 1526SOL    HW2 5478   4.613   1.976   0.272  0.9362  0.1210 -0.4214
 1527SOL     OW 5479   2.009   6.704   5.098  0.1665 -0.0368  0.0795
 1527SOL    HW1 5480   2.021   6.803   5.102 -0.0665 -0.0153  0.3144
 1527SOL    HW2 5481   1.938   6.677   5.163  1.3108 -0.5471  1.1462
 1528SOL     OW 5482   4.868   4.643   2.883  0.7146 -0.0720 -0.3060
 1528SOL    HW1 5483   4.808   4.562   2.889 -1.1658  1.2459 -0.4983
 1528SOL    HW2 5484   4.927   4.634   2.803 -0.0962 -0.8688 -0.8439
 1529SOL     OW 5485   1.747   6.350   6.038  0.1687 -0.1512  0.3665
 1529SOL    HW1 5486   1.760   6.289   5.961  1.5458 -0.1423  0.5688
 1529SOL    HW2 5487   1.649   6.364   6.054 -0.1545  0.1215 -1.5830
 1530SOL     OW 5488   2.180   0.519   6.721  0.1774  0.3007  0.4976
 1530SOL    HW1 5489   2.196   0.459   6.800  0.5121  1.0734  1.0231
 1530SOL    HW2 5490   2.241   0.598   6.726 -0.4293  0.8158 -0.0636
 1531SOL     OW 5491   5.873   1.283   0.340 -0.2761  0.2723  0.1135
 1531SOL    HW1 5492   5.924   1.198   0.352 -1.5184 -0.3681  1.0069
 1531SOL    HW2 5493   5.899   1.348   0.412  2.1273  1.4631 -1.6664
 1532SOL     OW 5494   1.838   0.846   4.909 -0.0678  0.0175 -0.7404
 1532SOL    HW1 5495   1.937   0.848   4.919 -0.2181  0.5705  0.8538
 1532SOL    HW2 5496   1.804   0.940   4.898 -0.5086 -0.0677 -0.1321
 1533SOL     OW 5497   3.713   1.721   1.011  0.6678  0.0952  0.3341
 1533SOL    HW1 5498   3.662   1.652   1.062  1.7620 -2.4386 -1.7365
 1533SOL    HW2 5499   3.652   1.795   0.985 -1.0115 -0.9216  1.2032
 1534SOL     OW 5500   0.371   0.183   1.926  0.1520  0.4435  0.3549
 1534SOL    HW1 5501   0.356   0.120   1.849 -1.5246  0.3583  0.6971
 1534SOL    HW2 5502   0.326   0.270   1.906  0.3759  0.6867  0.9044
 1535SOL     OW 5503   5.012   4.711   4.436 -0.8378  0.0972 -0.0700
 1535SOL    HW1 5504   5.080   4.711   4.509 -1.2950  0.0731  0.3650
 1535SOL    HW2 5505   5.051   4.753   4.354 -0.7438  1.3879  0.6012
 1536SOL     OW 5506   2.374   1.046   4.548 -0.0278 -0.0436 -0.1329
 1536SOL    HW1 5507   2.320   1.027   4.465  1.8310 -2.7793 -0.8587
 1536SOL    HW2 5508   2.454   1.100   4.524 -1.0580  1.8850  0.5236
 1537SOL     OW 5509   1.362   5.971   4.546  0.3668  0.0757 -0.3614
 1537SOL    HW1 5510   1.406   6.055   4.516  0.0141  0.3164 -0.2064
 1537SOL    HW2 5511   1.281   5.992   4.600 -0.7922 -0.3352 -1.8538
 1538SOL     OW 5512   4.305   5.908   0.262  0.1931 -0.0059 -0.2547
 1538SOL    HW1 5513   4.299   5.990   0.318  1.5667  0.0171 -0.0968
 1538SOL    HW2 5514   4.214   5.881   0.231 -0.2845  1.5797 -0.3162
 1539SOL     OW 5515   2.209   0.321   2.122 -0.6137 -0.2263  0.0720
 1539SOL    HW1 5516   2.271   0.255   2.080 -0.2437 -0.4396  0.9221
 1539SOL    HW2 5517   2.139   0.347   2.057 -1.1144 -1.9109 -0.1038
 1540SOL     OW 5518   0.633   0.525   5.837 -0.1267  0.1411  0.5253
 1540SOL    HW1 5519   0.589   0.484   5.756  4.2532 -0.3469 -1.9325
 1540SOL    HW2 5520   0.677   0.454   5.891  1.2347  0.8905  0.4501
 1541SOL     OW 5521   4.407   2.720   1.694 -0.9491 -0.0155  0.5783
 1541SOL    HW1 5522   4.310   2.710   1.713 -1.1599 -2.2399 -1.2559
 1541SOL    HW2 5523   4.420   2.780   1.615 -0.8142  0.3454  0.8716
 1542SOL     OW 5524   6.469   5.737   0.309 -0.0802 -0.5187  0.1760
 1542SOL    HW1 5525   6.391   5.781   0.353  1.2574 -0.2313  2.3981
 1542SOL    HW2 5526   6.544   5.730   0.374  1.1607 -2.3983 -1.3606
 1543SOL     OW 5527   4.202   3.351   2.046 -0.0766  0.5833  0.0869
 1543SOL    HW1 5528   4.179   3.275   1.986 -2.8783  1.1824  0.2805
 1543SOL    HW2 5529   4.222   3.316   2.138 -1.5305  0.0289  0.2204
 1544SOL     OW 5530   3.950   2.902   1.825 -0.3528 -0.2838  0.3017
 1544SOL    HW1 5531   3.851   2.913   1.825 -0.4608 -1.0849 -0.7020
 1544SOL    HW2 5532   3.986   2.916   1.918 -1.3438  0.4474  0.5819
 1545SOL     OW 5533   0.221   5.679   5.345 -0.1127 -0.2717 -0.3931
 1545SOL    HW1 5534   0.313   5.720   5.342 -0.5386  0.7410 -0.1054
 1545SOL    HW2 5535   0.162   5.735   5.403 -0.7578 -1.2526 -0.0844
 1546SOL     OW 5536   6.152   6.334   1.804 -0.1186 -0.2065 -0.1356
 1546SOL    HW1 5537   6.158   6.297   1.897 -0.4040  0.6198  0.2261
 1546SOL    HW2 5538   6.224   6.296   1.747  1.0942  0.5240  0.8745
 1547SOL     OW 5539   3.816   5.358   0.732  0.1502  0.2244  0.8535
 1547SOL    HW1 5540   3.823   5.423   0.808 -2.6888  1.6609  0.0169
 1547SOL    HW2 5541   3.782   5.406   0.651  0.1592 -1.8857 -0.4501
 1548SOL     OW 5542   6.610   5.156   3.403 -0.0524  0.3521  0.5090
 1548SOL    HW1 5543   6.709   5.167   3.412 -0.1622  1.0943  0.9052
 1548SOL    HW2 5544   6.565   5.245   3.416 -0.7693  0.0203  0.3497
 1549SOL     OW 5545   5.262   1.246   3.282  0.0655  0.0850 -0.1230
 1549SOL    HW1 5546   5.176   1.253   3.333  0.9165 -0.3721  1.4285
 1549SOL    HW2 5547   5.294   1.338   3.258 -1.0983  0.2373 -1.1720
 1550SOL     OW 5548   1.385   4.757   1.724 -0.2966  0.4070 -0.2862
 1550SOL    HW1 5549   1.357   4.662   1.735  0.1224  0.2246 -0.7676
 1550SOL    HW2 5550   1.317   4.817   1.767 -0.1673 -0.1402  0.7127
 1551SOL     OW 5551   1.187   1.646   1.917  0.3425  0.5397 -1.0175
 1551SOL    HW1 5552   1.194   1.746   1.926  1.4595  0.3774  0.2061
 1551SOL    HW2 5553   1.108   1.624   1.860 -2.2211  2.0426  1.6362
 1552SOL     OW 5554   0.899   5.066   1.449 -0.5800  0.3752 -0.4459
 1552SOL    HW1 5555   0.910   5.071   1.549 -0.5773  0.7573 -0.4649
 1552SOL    HW2 5556   0.811   5.107   1.424 -0.4495  0.5429 -0.6286
 1553SOL     OW 5557   0.975   1.528   5.163 -0.2280 -0.0726  0.1224
 1553SOL    HW1 5558   0.925   1.614   5.173  1.1196  0.7732 -0.2297
 1553SOL    HW2 5559   0.987   1.508   5.066  1.1755  0.3835  0.1892
 1554SOL     OW 5560   2.295   2.807   6.274  0.7312 -0.1208 -0.0723
 1554SOL    HW1 5561   2.227   2.875   6.246 -1.2949 -1.3654  1.5671
 1554SOL    HW2 5562   2.345   2.840   6.354  1.3251  0.3387 -0.6226
 1555SOL     OW 5563   5.010   6.627   0.880 -0.0242 -0.2740  0.1212
 1555SOL    HW1 5564   5.055   6.680   0.810  0.0404  0.5040  0.7373
 1555SOL    HW2 5565   5.075   6.605   0.953  0.3635 -2.5456 -0.8306
 1556SOL     OW 5566   1.811   0.730   6.147 -0.1908 -0.4667 -0.0503
 1556SOL    HW1 5567   1.889   0.789   6.169 -0.4621  0.2177 -0.8587
 1556SOL    HW2 5568   1.789   0.673   6.226  0.5762 -0.0398  0.4828
 1557SOL     OW 5569   4.088   0.814   2.130 -0.5371 -0.1642  0.4825
 1557SOL    HW1 5570   4.170   0.850   2.175 -0.6077 -0.8769  1.1999
 1557SOL    HW2 5571   4.007   0.837   2.185 -1.0374  1.8580 -0.9638
 1558SOL     OW 5572   5.727   1.178   1.904 -0.8781  0.3737  0.2592
 1558SOL    HW1 5573   5.765   1.086   1.892  0.4292  0.9745 -0.4437
 1558SOL    HW2 5574   5.633   1.180   1.869 -0.7884 -0.5894 -0.0750
 1559SOL     OW 5575   2.403   5.869   2.711  0.1124 -0.2614  0.1753
 1559SOL    HW1 5576   2.476   5.902   2.770  0.0264  0.8084 -0.2994
 1559SOL    HW2 5577   2.432   5.873   2.615 -1.1756  1.9651 -0.1925
 1560SOL     OW 5578   5.592   1.224   1.165 -0.0380 -0.2956 -0.0851
 1560SOL    HW1 5579   5.573   1.128   1.146  2.4688 -0.5132 -2.2391
 1560SOL    HW2 5580   5.661   1.231   1.237  0.0117 -0.1262 -0.1483
 1561SOL     OW 5581   4.290   6.597   1.040 -0.6467 -0.2742  0.1004
 1561SOL    HW1 5582   4.197   6.561   1.046  0.0821 -2.0480  2.3720
 1561SOL    HW2 5583   4.293   6.690   1.075 -1.7846  0.3827 -1.4565
 1562SOL     OW 5584   1.792   1.281   1.766 -0.0374 -0.0537 -0.0580
 1562SOL    HW1 5585   1.705   1.266   1.718 -0.9710 -0.3581  1.6418
 1562SOL    HW2 5586   1.783   1.360   1.827  0.4594 -0.7844  0.9982
 1563SOL     OW 5587   1.985   4.144   1.893  0.2040  0.1629  0.3071
 1563SOL    HW1 5588   1.933   4.215   1.941  2.0257  1.9552 -0.2276
 1563SOL    HW2 5589   1.928   4.105   1.821 -0.9249  0.9300  0.7494
 1564SOL     OW 5590   2.079   0.441   3.207 -0.5467 -0.2141 -0.0594
 1564SOL    HW1 5591   2.045   0.531   3.181  1.2480  1.1010  1.8536
 1564SOL    HW2 5592   2.169   0.425   3.167 -1.3310 -1.7471 -1.3734
 1565SOL     OW 5593   6.826   0.091   3.973 -0.5413 -0.2702 -0.2488
 1565SOL    HW1 5594   6.920   0.083   3.939 -0.1043  3.7756 -0.4944
 1565SOL    HW2 5595   6.821   0.054   4.065  2.2414  2.2084  1.0700
 1566SOL     OW 5596   2.117   3.051   3.761  0.7892 -0.3938 -0.1338
 1566SOL    HW1 5597   2.131   3.149   3.770 -2.6652  0.2696 -0.6002
 1566SOL    HW2 5598   2.165   3.003   3.835 -0.0809  1.9402  2.0662
 1567SOL     OW 5599   6.267   6.283   2.461  0.2514 -0.2909  0.0545
 1567SOL    HW1 5600   6.193   6.333   2.417  0.0548 -1.0229 -0.4568
 1567SOL    HW2 5601   6.324   6.239   2.392  0.2728 -0.9861  0.5041
 1568SOL     OW 5602   4.551   5.043   0.453  0.3022 -0.2526 -0.3935
 1568SOL    HW1 5603   4.626   5.018   0.515  0.2340 -0.4234 -0.3775
 1568SOL    HW2 5604   4.477   5.085   0.506 -0.0859 -1.1087 -0.2325
 1569SOL     OW 5605   1.782   2.828   0.392 -1.0210 -0.6340  0.2660
 1569SOL    HW1 5606   1.873   2.865   0.371 -1.8128  0.3769 -1.6904
 1569SOL    HW2 5607   1.786   2.728   0.393  0.1951 -0.5921  0.6462
 1570SOL     OW 5608   2.021   5.639   5.995 -0.9925 -0.5775 -0.9218
 1570SOL    HW1 5609   2.040   5.701   6.071 -0.4721  0.1678 -1.6355
 1570SOL    HW2 5610   2.010   5.546   6.029 -0.3872 -0.3138  0.0221
 1571SOL     OW 5611   1.304   2.339   4.821  0.1729  0.0081  0.2174
 1571SOL    HW1 5612   1.341   2.248   4.838  1.1375  0.3053 -0.1943
 1571SOL    HW2 5613   1.208   2.342   4.848 -1.2622 -2.4460 -3.7289
 1572SOL     OW 5614   5.013   0.647   4.120 -0.7034  1.0312  0.0691
 1572SOL    HW1 5615   5.036   0.744   4.128 -2.6804  1.6868 -1.4388
 1572SOL    HW2 5616   5.078   0.601   4.060 -0.5299  1.7245 -0.2767
 1573SOL     OW 5617   4.636   5.542   0.809  0.1915 -0.1628 -0.3382
 1573SOL    HW1 5618   4.629   5.562   0.907  0.3026 -1.8590  0.0583
 1573SOL    HW2 5619   4.590   5.614   0.757  0.4680  0.9725  0.9266
 1574SOL     OW 5620   0.677   3.729   3.420  0.0979 -0.3501  0.4856
 1574SOL    HW1 5621   0.724   3.766   3.339  0.6966 -0.9519  0.5393
 1574SOL    HW2 5622   0.593   3.682   3.391  0.1165 -0.2409  0.2507
 1575SOL     OW 5623   6.963   4.262   0.387 -0.2935  0.1563  0.7714
 1575SOL    HW1 5624   6.954   4.338   0.452  1.6500  1.2154 -0.0833
 1575SOL    HW2 5625   7.025   4.290   0.313  1.1466 -2.5602  0.8434
 1576SOL     OW 5626   6.426   6.932   2.204  0.3374  0.2357 -0.6676
 1576SOL    HW1 5627   6.346   6.876   2.225  1.9155 -2.2600 -0.9282
 1576SOL    HW2 5628   6.424   6.958   2.107  0.5689 -1.0885 -1.0387
 1577SOL     OW 5629   4.293   5.449   3.823 -0.0154  0.0077 -0.3054
 1577SOL    HW1 5630   4.287   5.353   3.848 -3.8175  0.4616  1.1939
 1577SOL    HW2 5631   4.237   5.467   3.743  0.4229  1.0536 -0.3996
 1578SOL     OW 5632   0.043   3.123   1.393 -0.2365  0.1746  0.3765
 1578SOL    HW1 5633   0.019   3.036   1.351 -2.7008  1.2730 -0.6610
 1578SOL    HW2 5634   0.043   3.113   1.493 -0.4811 -0.9964  0.2729
 1579SOL     OW 5635   1.842   3.893   3.157  0.7120 -0.2604 -0.5494
 1579SOL    HW1 5636   1.785   3.857   3.083  0.2789  1.3371 -1.0191
 1579SOL    HW2 5637   1.935   3.910   3.123  0.9054 -0.8506 -0.3372
 1580SOL     OW 5638   3.138   3.205   4.308  0.2609 -0.2596  0.7879
 1580SOL    HW1 5639   3.235   3.213   4.284 -0.1120 -1.4683 -1.3890
 1580SOL    HW2 5640   3.122   3.117   4.351 -0.0436 -0.5955  0.0119
 1581SOL     OW 5641   5.491   4.975   4.748  0.3594 -0.6410  0.9252
 1581SOL    HW1 5642   5.419   5.028   4.704  0.7972 -0.6462  0.1908
 1581SOL    HW2 5643   5.450   4.915   4.817 -0.6867 -2.4360 -1.1199
 1582SOL     OW 5644   3.866   6.622   4.144  0.4231  0.3961 -0.1074
 1582SOL    HW1 5645   3.879   6.595   4.239 -1.9681  0.1457  0.2036
 1582SOL    HW2 5646   3.851   6.721   4.140  3.0898  0.8559 -0.5734
 1583SOL     OW 5647   0.211   4.957   4.160 -0.0325  0.6790 -0.0625
 1583SOL    HW1 5648   0.190   4.920   4.250  1.3588  0.5997  0.2616
 1583SOL    HW2 5649   0.282   5.027   4.169 -0.1271  0.9134 -1.0526
 1584SOL     OW 5650   6.897   4.176   6.330 -1.1464 -0.6313 -0.0344
 1584SOL    HW1 5651   6.890   4.244   6.257 -1.4882 -1.1234 -0.4622
 1584SOL    HW2 5652   6.899   4.084   6.291  1.3040 -0.8295  0.4098
 1585SOL     OW 5653   2.373   1.030   5.815 -0.4984 -0.0428  0.3336
 1585SOL    HW1 5654   2.350   1.024   5.718  1.0001  0.8956 -0.1140
 1585SOL    HW2 5655   2.451   0.970   5.834 -1.4988 -1.1043  1.2281
 1586SOL     OW 5656   1.609   5.166   1.855 -0.6825  0.3426 -0.1565
 1586SOL    HW1 5657   1.608   5.225   1.936 -0.1549 -1.6953  1.4185
 1586SOL    HW2 5658   1.524   5.178   1.803 -0.6791  2.2713  0.2212
 1587SOL     OW 5659   5.100   0.857   6.939  0.1468  0.0340 -0.4348
 1587SOL    HW1 5660   5.062   0.938   6.895 -1.5786 -1.2216 -1.4003
 1587SOL    HW2 5661   5.168   0.884   7.007 -0.9420  2.3105 -0.1670
 1588SOL     OW 5662   0.604   0.875   5.641  0.1056 -0.2011  0.0108
 1588SOL    HW1 5663   0.577   0.814   5.567  0.3618  0.5648 -0.7275
 1588SOL    HW2 5664   0.557   0.963   5.631  1.6158  0.5995 -0.4017
 1589SOL     OW 5665   0.580   6.903   4.865  0.6445 -0.4177 -0.9919
 1589SOL    HW1 5666   0.660   6.963   4.868 -0.2480  0.8248 -0.7926
 1589SOL    HW2 5667   0.544   6.891   4.958 -0.1881  0.1778 -1.2222
 1590SOL     OW 5668   5.733   6.177   4.804 -0.4867 -0.1020  0.4789
 1590SOL    HW1 5669   5.676   6.224   4.871 -0.7096 -0.7946  0.7802
 1590SOL    HW2 5670   5.746   6.082   4.831  0.8875  0.0608  0.4632
 1591SOL     OW 5671   5.076   4.809   0.023  0.1572  0.3525  0.5017
 1591SOL    HW1 5672   5.018   4.889   0.036  0.3295  0.9918 -2.0661
 1591SOL    HW2 5673   5.058   4.742   0.096 -1.0009  2.1137  1.9084
 1592SOL     OW 5674   1.334   4.736   3.727  0.0809 -0.3789  0.2901
 1592SOL    HW1 5675   1.319   4.638   3.712 -2.4688 -0.0802  0.5040
 1592SOL    HW2 5676   1.261   4.773   3.784  0.1147  1.9700 -1.0680
 1593SOL     OW 5677   4.466   4.897   3.179 -0.2104  0.3022  0.1779
 1593SOL    HW1 5678   4.384   4.921   3.128 -0.3874 -1.3489 -0.3421
 1593SOL    HW2 5679   4.546   4.937   3.134 -0.6072  1.0067  0.0812
 1594SOL     OW 5680   6.667   6.854   2.152 -0.0039  0.5760 -0.1602
 1594SOL    HW1 5681   6.574   6.883   2.177  0.2088  2.0454 -0.9792
 1594SOL    HW2 5682   6.693   6.897   2.066  0.2573 -2.3118 -1.6566
 1595SOL     OW 5683   6.245   1.790   1.556  0.1195 -0.0002 -0.9257
 1595SOL    HW1 5684   6.265   1.786   1.654 -1.4636 -3.4733 -0.6046
 1595SOL    HW2 5685   6.295   1.866   1.515  2.3495  0.4111  2.2118
 1596SOL     OW 5686   6.530   4.648   5.336  0.1740 -0.1574  0.3576
 1596SOL    HW1 5687   6.583   4.732   5.331  0.5727 -0.4122  0.2455
 1596SOL    HW2 5688   6.472   4.641   5.254  0.8121 -0.4281 -0.0846
 1597SOL     OW 5689   3.412   6.501   3.367 -0.3263  0.0492 -0.4225
 1597SOL    HW1 5690   3.502   6.462   3.387 -1.2584 -1.9051  0.2386
 1597SOL    HW2 5691   3.385   6.562   3.441  0.0070 -0.1560 -0.1289
 1598SOL     OW 5692   0.134   0.310   6.042 -0.5264  0.4426  0.1072
 1598SOL    HW1 5693   0.229   0.293   6.016 -1.1225 -1.0668 -1.2355
 1598SOL    HW2 5694   0.109   0.405   6.019  0.1355  0.3157 -1.1962
 1599SOL     OW 5695   5.351   4.639   2.703 -0.7588 -0.2047 -0.1072
 1599SOL    HW1 5696   5.429   4.692   2.668 -0.5483 -1.0274 -0.9148
 1599SOL    HW2 5697   5.379   4.591   2.786 -0.1341 -1.1475 -0.8421
 1600SOL     OW 5698   4.688   6.108   1.404  0.4930  0.1495 -0.2480
 1600SOL    HW1 5699   4.723   6.121   1.311 -0.0515 -2.0809 -0.8272
 1600SOL    HW2 5700   4.605   6.053   1.401  1.7000 -2.0026  1.6592
 1601SOL     OW 5701   6.144   7.004   6.706 -0.0832  0.1153  0.6700
 1601SOL    HW1 5702   6.111   6.911   6.692  1.8168 -0.4282 -0.5924
 1601SOL    HW2 5703   6.242   7.002   6.724 -0.1720  1.8301  1.5301
 1602SOL     OW 5704   3.678   5.146   3.543  0.4814  0.2389  0.5573
 1602SOL    HW1 5705   3.673   5.059   3.493 -1.2070  0.1834  0.7736
 1602SOL    HW2 5706   3.686   5.128   3.641  0.9293  0.3432  0.5437
 1603SOL     OW 5707   2.988   5.019   0.402  0.2360  0.3563  0.0972
 1603SOL    HW1 5708   2.964   5.070   0.320 -2.3462 -1.3732 -0.3478
 1603SOL    HW2 5709   3.073   4.969   0.387  0.2497  0.7452 -1.2029
 1604SOL     OW 5710   2.101   6.751   1.838 -0.3890 -0.0076  0.5773
 1604SOL    HW1 5711   2.159   6.671   1.830 -1.4088 -0.6535 -0.8605
 1604SOL    HW2 5712   2.150   6.832   1.807 -0.5574 -0.7243 -1.7800
 1605SOL     OW 5713   3.688   5.399   0.298  0.6038 -0.2921 -0.4823
 1605SOL    HW1 5714   3.595   5.407   0.263 -0.1426  1.2839  1.6420
 1605SOL    HW2 5715   3.693   5.324   0.365  1.2480 -1.2612 -1.5685
 1606SOL     OW 5716   3.923   5.716   5.240  0.0477  0.4569 -0.5201
 1606SOL    HW1 5717   3.966   5.678   5.322  0.3656 -1.9312 -1.7071
 1606SOL    HW2 5718   3.993   5.758   5.182 -0.1608  2.0392  0.3266
 1607SOL     OW 5719   5.204   4.631   6.316  0.0030 -0.1061  0.0773
 1607SOL    HW1 5720   5.214   4.623   6.416  1.2494  0.1308 -0.0062
 1607SOL    HW2 5721   5.201   4.728   6.291 -0.7742 -0.1653 -0.0917
 1608SOL     OW 5722   6.596   2.301   2.422 -0.0781  0.0682 -0.6058
 1608SOL    HW1 5723   6.581   2.384   2.475 -2.3400  0.2283 -1.3522
 1608SOL    HW2 5724   6.537   2.303   2.341 -0.7812 -2.5499 -0.2602
 1609SOL     OW 5725   2.065   5.559   0.112  0.5451 -0.2884  0.1801
 1609SOL    HW1 5726   2.040   5.655   0.097  0.9957 -0.3088 -0.8533
 1609SOL    HW2 5727   2.063   5.511   0.024 -1.9645 -1.8238  0.9711
 1610SOL     OW 5728   3.871   6.681   0.903 -0.0555  0.0140 -0.7050
 1610SOL    HW1 5729   3.948   6.735   0.871 -0.0545 -0.4189 -1.4648
 1610SOL    HW2 5730   3.786   6.719   0.867 -0.0251 -0.6923 -1.5729
 1611SOL     OW 5731   0.896   5.208   6.943 -0.3280  0.2017  0.0346
 1611SOL    HW1 5732   0.843   5.261   6.878  0.6339  0.4171 -0.6050
 1611SOL    HW2 5733   0.855   5.118   6.954  0.2780 -0.3778 -2.0131
 1612SOL     OW 5734   5.072   6.440   3.265 -0.1394  0.4203  0.7274
 1612SOL    HW1 5735   5.090   6.342   3.256 -0.2736  0.4476  0.0934
 1612SOL    HW2 5736   5.149   6.492   3.229 -0.3532  0.5427  0.4392
 1613SOL     OW 5737   5.164   5.480   2.600  0.1769 -0.1663 -0.0468
 1613SOL    HW1 5738   5.084   5.539   2.591 -0.3021 -0.6595  0.7906
 1613SOL    HW2 5739   5.136   5.393   2.642  1.3750  0.1911  1.5983
 1614SOL     OW 5740   1.238   0.208   0.095  0.4310  0.8635  0.4493
 1614SOL    HW1 5741   1.199   0.274   0.159  0.3914  0.1459  1.1847
 1614SOL    HW2 5742   1.292   0.141   0.145  1.4489  1.0192 -0.4151
 1615SOL     OW 5743   6.007   3.402   1.152  0.2105  0.0726 -0.3755
 1615SOL    HW1 5744   5.948   3.404   1.071 -2.1152 -1.4252  1.1515
 1615SOL    HW2 5745   6.089   3.349   1.132 -0.0068  0.2822 -1.9463
 1616SOL     OW 5746   0.592   2.663   2.964  0.9025 -0.2802  0.3628
 1616SOL    HW1 5747   0.567   2.566   2.963  0.2494 -0.1193  0.5014
 1616SOL    HW2 5748   0.686   2.673   2.998  0.3649 -0.7420  2.0674
 1617SOL     OW 5749   1.713   6.641   4.612  0.3028  0.2402 -0.1330
 1617SOL    HW1 5750   1.725   6.709   4.684 -2.5937 -0.2316  0.9421
 1617SOL    HW2 5751   1.704   6.686   4.523  0.4386  1.1156  0.2916
 1618SOL     OW 5752   2.134   3.708   3.280  0.3937  0.4722  0.0398
 1618SOL    HW1 5753   2.124   3.681   3.184 -0.3323 -1.3923  0.6050
 1618SOL    HW2 5754   2.181   3.796   3.284  1.0234  0.2994 -2.0048
 1619SOL     OW 5755   1.854   4.599   6.517  0.1261 -0.2032 -0.1568
 1619SOL    HW1 5756   1.892   4.575   6.607 -0.9821 -2.6577 -0.2455
 1619SOL    HW2 5757   1.754   4.594   6.521  0.0598 -0.2954 -1.4990
 1620SOL     OW 5758   2.648   0.217   5.380  0.1542 -0.0077  0.2047
 1620SOL    HW1 5759   2.684   0.167   5.459  0.5795  0.1057  0.0857
 1620SOL    HW2 5760   2.716   0.283   5.349  0.0396 -0.1407 -0.3348
 1621SOL     OW 5761   4.811   4.555   2.523  0.2910 -0.2381  0.0896
 1621SOL    HW1 5762   4.902   4.594   2.535  1.0431 -1.8434 -0.1942
 1621SOL    HW2 5763   4.773   4.587   2.436  1.2120 -0.6933 -0.5001
 1622SOL     OW 5764   0.816   3.642   4.194  0.3965  0.2226  0.3753
 1622SOL    HW1 5765   0.789   3.650   4.098  3.1214 -0.4160 -0.5081
 1622SOL    HW2 5766   0.811   3.732   4.238 -0.2794  0.6323 -0.5211
 1623SOL     OW 5767   2.207   2.845   2.692  0.2804 -0.4033 -0.3418
 1623SOL    HW1 5768   2.236   2.903   2.769 -1.0455  0.9473 -0.8066
 1623SOL    HW2 5769   2.274   2.773   2.678  0.4335 -0.8678  2.2603
 1624SOL     OW 5770   3.650   1.842   6.508  0.0962  0.3247  0.0513
 1624SOL    HW1 5771   3.673   1.939   6.499  2.1587  0.0187  1.4608
 1624SOL    HW2 5772   3.658   1.797   6.419  1.4678  0.9789 -0.1719
 1625SOL     OW 5773   1.151   6.474   1.001  0.1185 -0.8021 -0.1999
 1625SOL    HW1 5774   1.058   6.487   0.966  0.3501 -2.4828 -1.6099
 1625SOL    HW2 5775   1.177   6.552   1.057 -2.2727 -0.4632  0.5439
 1626SOL     OW 5776   3.383   1.792   1.985 -0.1907  0.9461  0.2216
 1626SOL    HW1 5777   3.381   1.844   1.899 -1.3420  1.4213  0.5232
 1626SOL    HW2 5778   3.372   1.855   2.062  1.6332  0.6200  0.7947
 1627SOL     OW 5779   5.363   0.861   6.500  0.1908 -0.3782 -0.0908
 1627SOL    HW1 5780   5.358   0.905   6.410  2.3681  1.2718  0.5172
 1627SOL    HW2 5781   5.456   0.828   6.515  0.2169  0.5270  2.0440
 1628SOL     OW 5782   6.571   5.991   0.144  0.1629 -0.5974  0.4059
 1628SOL    HW1 5783   6.543   5.901   0.177  1.3957 -1.2179 -0.1394
 1628SOL    HW2 5784   6.580   5.988   0.045  1.1255 -0.1590  0.4681
 1629SOL     OW 5785   0.821   5.605   0.475  0.1634 -0.1755  0.3187
 1629SOL    HW1 5786   0.754   5.674   0.451 -0.8268 -1.2721 -0.1977
 1629SOL    HW2 5787   0.909   5.648   0.492  0.0707  1.0556 -1.8845
 1630SOL     OW 5788   0.239   4.341   5.707 -0.1874 -0.0627  0.1171
 1630SOL    HW1 5789   0.187   4.333   5.622  1.1201 -0.8487 -0.6362
 1630SOL    HW2 5790   0.293   4.258   5.721 -0.4082  0.0413  1.7427
 1631SOL     OW 5791   5.780   4.870   6.870  0.6930  0.9585 -0.8228
 1631SOL    HW1 5792   5.786   4.846   6.967 -0.4292  1.2255 -0.6703
 1631SOL    HW2 5793   5.752   4.966   6.861  0.8179  0.9463 -1.4070
 1632SOL     OW 5794   5.184   5.747   2.192 -0.8699  0.1379  0.5068
 1632SOL    HW1 5795   5.196   5.765   2.094 -0.7105 -3.2097 -0.2221
 1632SOL    HW2 5796   5.252   5.798   2.244 -0.3218  1.2345 -1.2025
 1633SOL     OW 5797   6.822   4.979   5.058  0.2183  0.0667 -0.2736
 1633SOL    HW1 5798   6.794   4.970   5.154  2.3496  0.2174  0.4015
 1633SOL    HW2 5799   6.747   5.021   5.006 -0.2981  1.8586  1.7443
 1634SOL     OW 5800   6.970   4.036   5.455 -0.3662  0.0975  0.0947
 1634SOL    HW1 5801   7.067   4.050   5.474 -0.1838 -0.8900 -0.0743
 1634SOL    HW2 5802   6.935   3.961   5.511 -1.0238  0.4205  0.1253
 1635SOL     OW 5803   2.420   2.536   3.838  0.7734  0.4869 -0.1185
 1635SOL    HW1 5804   2.413   2.604   3.765  1.0899 -0.6306 -1.2334
 1635SOL    HW2 5805   2.403   2.580   3.926 -0.5219  1.7097 -0.9238
 1636SOL     OW 5806   6.881   5.778   1.821 -0.2040  0.7064 -0.1639
 1636SOL    HW1 5807   6.931   5.727   1.891 -0.6531 -1.3566 -1.2872
 1636SOL    HW2 5808   6.807   5.722   1.784  0.7819  1.1873 -3.1777
 1637SOL     OW 5809   2.300   2.650   1.952  0.1204 -0.2348  0.2421
 1637SOL    HW1 5810   2.240   2.710   1.900  0.2694 -0.1822  0.1296
 1637SOL    HW2 5811   2.376   2.621   1.894  0.8923  0.7121  0.7588
 1638SOL     OW 5812   5.774   1.384   3.668  0.8476 -0.1469  0.5337
 1638SOL    HW1 5813   5.732   1.442   3.739 -1.4130  0.6481 -1.3300
 1638SOL    HW2 5814   5.745   1.290   3.680 -1.9501  0.4336 -0.8978
 1639SOL     OW 5815   4.702   3.408   1.711 -0.5493 -0.2575  0.0421
 1639SOL    HW1 5816   4.672   3.498   1.679 -0.4798 -0.4005 -0.4300
 1639SOL    HW2 5817   4.650   3.337   1.664  1.4979 -0.5700 -1.9345
 1640SOL     OW 5818   6.235   1.612   6.390  0.4377  0.4070  0.8021
 1640SOL    HW1 5819   6.169   1.666   6.442  0.7508  2.4633 -0.7920
 1640SOL    HW2 5820   6.242   1.648   6.297  3.5629  0.1026  0.8033
 1641SOL     OW 5821   5.799   1.764   2.929  0.1128  0.3118 -0.0083
 1641SOL    HW1 5822   5.889   1.743   2.892 -0.1926  0.5786 -0.9158
 1641SOL    HW2 5823   5.737   1.688   2.912 -0.1714  0.6583 -0.5255
 1642SOL     OW 5824   6.308   2.907   6.702  0.0292 -0.4866  0.5236
 1642SOL    HW1 5825   6.404   2.888   6.722  0.2946 -0.3148 -0.5602
 1642SOL    HW2 5826   6.265   2.946   6.784  1.2555  0.8111  0.5851
 1643SOL     OW 5827   1.827   5.216   4.318  0.2762  0.7215 -0.4028
 1643SOL    HW1 5828   1.922   5.196   4.295  0.6617  0.7903  1.0188
 1643SOL    HW2 5829   1.775   5.131   4.322  1.0443  0.2877  1.9383
 1644SOL     OW 5830   6.550   2.577   2.535 -0.0673  0.0459 -0.4287
 1644SOL    HW1 5831   6.573   2.665   2.495 -2.0210  1.2566  0.8901
 1644SOL    HW2 5832   6.455   2.554   2.512  0.1844 -1.3708 -0.1522
 1645SOL     OW 5833   2.950   0.721   2.533  0.5339  0.2426  0.3139
 1645SOL    HW1 5834   2.920   0.645   2.476 -1.7796  0.2397  1.4073
 1645SOL    HW2 5835   3.022   0.772   2.486 -0.7208 -0.2034 -2.2445
 1646SOL     OW 5836   7.011   5.238   1.896  0.8575  0.0329 -0.0594
 1646SOL    HW1 5837   7.016   5.203   1.802 -1.9255 -0.5647 -0.0827
 1646SOL    HW2 5838   7.015   5.161   1.960 -2.8111 -0.3301 -0.0202
 1647SOL     OW 5839   6.120   4.189   4.270 -0.0687 -0.3874 -0.2895
 1647SOL    HW1 5840   6.076   4.157   4.355 -0.1549  0.5536  0.0297
 1647SOL    HW2 5841   6.107   4.287   4.261  2.2166 -0.0086 -0.0343
 1648SOL     OW 5842   4.980   0.198   3.328  0.1704  0.0385 -0.3349
 1648SOL    HW1 5843   5.031   0.125   3.283  0.5014 -0.6557  1.0809
 1648SOL    HW2 5844   5.038   0.279   3.338  0.6141 -0.3312  0.1769
 1649SOL     OW 5845   4.361   1.984   4.701 -0.4857 -0.0632  0.3557
 1649SOL    HW1 5846   4.354   1.887   4.680  2.4851 -0.2171 -0.3648
 1649SOL    HW2 5847   4.333   2.038   4.621 -0.4357 -0.3683  0.1312
 1650SOL     OW 5848   1.710   3.725   5.122  0.2007  0.1320 -0.0057
 1650SOL    HW1 5849   1.691   3.822   5.132 -0.1170 -0.0377  1.3474
 1650SOL    HW2 5850   1.775   3.696   5.193 -1.4210 -1.0579  1.0648
 1651SOL     OW 5851   2.146   2.600   4.573 -0.3285 -0.0209 -0.2409
 1651SOL    HW1 5852   2.172   2.696   4.564 -2.8610  0.6942 -0.8733
 1651SOL    HW2 5853   2.143   2.575   4.670 -2.6596  1.5489  0.1806
 1652SOL     OW 5854   6.519   4.333   0.917  0.3693 -0.1092  0.2459
 1652SOL    HW1 5855   6.549   4.245   0.952  0.7336 -0.2724 -0.4453
 1652SOL    HW2 5856   6.597   4.382   0.877 -0.0378  0.0121 -0.4319
 1653SOL     OW 5857   5.152   5.075   1.190  0.3598 -0.1478  0.3068
 1653SOL    HW1 5858   5.179   5.028   1.274 -1.1515 -0.7212  0.4936
 1653SOL    HW2 5859   5.069   5.033   1.153  0.0664  1.1560 -0.5803
 1654SOL     OW 5860   5.823   3.101   1.221 -0.0724  0.0392  0.2627
 1654SOL    HW1 5861   5.902   3.157   1.194  1.6104 -1.1475  2.3566
 1654SOL    HW2 5862   5.830   3.010   1.180 -0.8198  0.1869 -0.2081
 1655SOL     OW 5863   6.188   0.188   0.246  0.5802  0.0330 -0.4876
 1655SOL    HW1 5864   6.181   0.093   0.219  1.6299 -0.0020 -0.6825
 1655SOL    HW2 5865   6.120   0.242   0.197  2.7925  0.0784 -3.7809
 1656SOL     OW 5866   0.092   4.773   2.321  0.6350  0.3562 -0.2475
 1656SOL    HW1 5867   0.171   4.833   2.305  1.1096 -0.9921 -3.7397
 1656SOL    HW2 5868   0.008   4.828   2.318  1.1037  1.0773 -2.7506
 1657SOL     OW 5869   6.010   2.072   5.736 -0.3245  0.4490  0.1612
 1657SOL    HW1 5870   5.945   1.997   5.723 -0.3545  0.5897 -0.5753
 1657SOL    HW2 5871   6.018   2.124   5.651  0.8618  0.3473  0.1874
 1658SOL     OW 5872   5.918   0.536   6.544  0.5312  0.0452 -0.2565
 1658SOL    HW1 5873   5.930   0.612   6.607  1.1743 -1.2415  1.2240
 1658SOL    HW2 5874   5.968   0.555   6.459  1.0686  1.0530  0.2676
 1659SOL     OW 5875   1.804   0.584   6.397 -0.2381  0.1645 -0.1435
 1659SOL    HW1 5876   1.713   0.608   6.431  0.1802  0.2503  0.9409
 1659SOL    HW2 5877   1.874   0.631   6.450  0.5613 -2.2614  1.0952
 1660SOL     OW 5878   2.526   0.624   1.845 -0.4674 -0.1113  0.0692
 1660SOL    HW1 5879   2.533   0.709   1.897 -0.4128 -1.2911  2.0870
 1660SOL    HW2 5880   2.609   0.570   1.858 -1.6740 -1.7880  1.3162
 1661SOL     OW 5881   4.492   4.459   4.269  0.0864 -0.7976 -0.0411
 1661SOL    HW1 5882   4.501   4.380   4.329 -0.1425 -0.7403  0.0693
 1661SOL    HW2 5883   4.563   4.527   4.291 -1.1820  0.0883  1.4824
 1662SOL     OW 5884   6.850   3.568   6.005  0.3667  0.5134  0.1278
 1662SOL    HW1 5885   6.856   3.494   5.937  0.4542  1.8473 -1.3541
 1662SOL    HW2 5886   6.939   3.578   6.050  0.6559  0.3971 -0.4083
 1663SOL     OW 5887   5.724   3.567   0.577 -0.3228 -0.0675  0.5492
 1663SOL    HW1 5888   5.698   3.586   0.482 -2.3895 -1.6421  0.7278
 1663SOL    HW2 5889   5.820   3.541   0.580 -0.7317 -2.1837 -1.5229
 1664SOL     OW 5890   6.987   0.895   7.004 -0.0862 -0.1037  0.0740
 1664SOL    HW1 5891   6.940   0.853   6.926 -0.6812  0.2051  0.2582
 1664SOL    HW2 5892   7.049   0.966   6.971 -0.6537  0.3219 -0.0962
 1665SOL     OW 5893   2.475   1.602   1.363  0.8140  0.1462 -0.4300
 1665SOL    HW1 5894   2.514   1.619   1.272 -1.7447  1.2759 -1.3946
 1665SOL    HW2 5895   2.380   1.574   1.354  1.1350 -2.0821  1.8554
 1666SOL     OW 5896   5.821   1.231   5.457 -0.3830  0.1856 -0.0936
 1666SOL    HW1 5897   5.874   1.163   5.508 -1.2981 -1.0821 -0.7620
 1666SOL    HW2 5898   5.822   1.318   5.506  2.1210  0.1653  0.0160
 1667SOL     OW 5899   5.236   5.752   0.803  0.0462  0.2123  0.6413
 1667SOL    HW1 5900   5.208   5.844   0.773 -0.5851 -0.8892 -2.6440
 1667SOL    HW2 5901   5.330   5.735   0.772  0.5191  0.0733  2.1156
 1668SOL     OW 5902   0.542   3.248   2.372  0.3548  0.0657 -0.7828
 1668SOL    HW1 5903   0.557   3.345   2.386  1.0487 -0.1238 -0.1027
 1668SOL    HW2 5904   0.552   3.226   2.275  1.4860  0.4770 -0.7741
 1669SOL     OW 5905   6.930   2.436   6.996 -0.3516  0.5735 -0.5552
 1669SOL    HW1 5906   6.871   2.397   6.926 -1.8554  3.3360 -0.9684
 1669SOL    HW2 5907   6.969   2.521   6.963 -0.5282  1.5946  1.6825
 1670SOL     OW 5908   3.834   3.554   4.900 -0.2450 -0.0621 -0.0156
 1670SOL    HW1 5909   3.913   3.564   4.960 -0.4270  0.2837  0.1676
 1670SOL    HW2 5910   3.859   3.580   4.807  0.3526 -1.6910 -0.3387
 1671SOL     OW 5911   4.520   3.981   0.838  0.3621 -0.3587 -0.2090
 1671SOL    HW1 5912   4.591   3.971   0.769 -2.1085  0.8780 -3.1564
 1671SOL    HW2 5913   4.468   3.896   0.846  0.1970 -0.2779 -0.4202
 1672SOL     OW 5914   6.995   1.239   2.603 -0.2947 -0.0901  0.5215
 1672SOL    HW1 5915   6.978   1.321   2.657 -1.1869 -0.5592  0.9755
 1672SOL    HW2 5916   7.063   1.182   2.649  1.1899  0.8945 -0.3531
 1673SOL     OW 5917   1.521   0.621   1.124 -0.0063 -0.0712  0.1894
 1673SOL    HW1 5918   1.485   0.712   1.105 -0.1193  0.1282  1.2869
 1673SOL    HW2 5919   1.613   0.628   1.164  0.2436 -0.4647 -0.3112
 1674SOL     OW 5920   5.441   1.193   1.813 -0.4368 -0.1666 -0.1014
 1674SOL    HW1 5921   5.379   1.118   1.837  0.3595 -1.2504 -1.2688
 1674SOL    HW2 5922   5.388   1.272   1.784 -1.2997 -1.1800 -1.3808
 1675SOL     OW 5923   3.941   6.388   2.084 -0.0347 -0.1539 -0.0117
 1675SOL    HW1 5924   3.903   6.335   2.160  0.1416 -0.0979  0.1187
 1675SOL    HW2 5925   4.034   6.417   2.108  0.0613 -0.2247 -0.2921
 1676SOL     OW 5926   1.884   2.864   5.096  0.2711  0.5853 -0.3719
 1676SOL    HW1 5927   1.949   2.877   5.022 -0.7575 -0.1251 -1.4551
 1676SOL    HW2 5928   1.890   2.770   5.130 -0.2313  0.4880 -0.5376
 1677SOL     OW 5929   3.437   3.573   1.722  0.4405  0.0011  0.0118
 1677SOL    HW1 5930   3.386   3.538   1.801  2.6547 -0.7707  1.1997
 1677SOL    HW2 5931   3.402   3.531   1.638 -2.0914  0.9860  0.4951
 1678SOL     OW 5932   5.581   7.015   1.396  0.2555  0.1783 -0.0515
 1678SOL    HW1 5933   5.604   7.073   1.475 -1.6518 -0.8579  1.3479
 1678SOL    HW2 5934   5.597   6.919   1.420  2.7025 -0.0270 -2.0974
 1679SOL     OW 5935   6.357   2.853   6.037 -0.5136 -0.0757  0.5192
 1679SOL    HW1 5936   6.289   2.835   6.108 -0.4948 -1.3381  0.2366
 1679SOL    HW2 5937   6.349   2.785   5.964 -0.5986  1.2562 -0.7581
 1680SOL     OW 5938   5.733   0.770   3.053 -0.0712 -0.1862 -0.1202
 1680SOL    HW1 5939   5.639   0.787   3.084 -0.3069 -1.5024 -0.0677
 1680SOL    HW2 5940   5.748   0.816   2.965 -0.8816 -0.2587 -0.3061
 1681SOL     OW 5941   5.135   1.395   3.578  0.8570  0.2820 -0.5301
 1681SOL    HW1 5942   5.091   1.436   3.498  1.6489 -1.3043 -1.8598
 1681SOL    HW2 5943   5.225   1.437   3.591  0.7900  0.4429 -0.5828
 1682SOL     OW 5944   4.968   1.600   4.311  0.1697  0.2972 -0.2908
 1682SOL    HW1 5945   5.024   1.653   4.374 -0.4625  0.1611  0.4051
 1682SOL    HW2 5946   4.938   1.658   4.235 -0.5614  0.9602  0.4907
 1683SOL     OW 5947   0.149   4.506   4.685  0.1868  0.0217 -0.1110
 1683SOL    HW1 5948   0.075   4.540   4.627  0.0695 -0.0249  0.0112
 1683SOL    HW2 5949   0.236   4.517   4.637  0.1981  0.8722  0.0867
 1684SOL     OW 5950   3.514   5.165   1.542  0.1681 -0.0632 -0.3332
 1684SOL    HW1 5951   3.601   5.207   1.567 -0.4935  0.6598  0.8666
 1684SOL    HW2 5952   3.520   5.066   1.554  0.6156  0.0477  0.4131
 1685SOL     OW 5953   6.157   3.424   0.107 -0.2178  0.1544  0.2109
 1685SOL    HW1 5954   6.090   3.474   0.051 -1.5848 -1.7027  0.1049
 1685SOL    HW2 5955   6.131   3.431   0.203 -1.4725 -1.7753  0.0543
 1686SOL     OW 5956   1.321   4.597   2.006 -0.8804  0.8952 -0.3031
 1686SOL    HW1 5957   1.300   4.680   2.059  2.4267  1.6206  0.0606
 1686SOL    HW2 5958   1.366   4.530   2.066 -0.2653  0.3097 -1.3980
 1687SOL     OW 5959   4.622   5.529   0.179  0.4486  0.4490 -0.6803
 1687SOL    HW1 5960   4.703   5.579   0.207 -0.0356  1.6722 -1.4072
 1687SOL    HW2 5961   4.604   5.544   0.082 -1.2023  1.0174 -0.3273
 1688SOL     OW 5962   1.658   0.737   3.922  0.6835 -0.1325 -0.5854
 1688SOL    HW1 5963   1.583   0.706   3.864 -1.7621 -0.2162  2.3747
 1688SOL    HW2 5964   1.707   0.657   3.958  0.2944 -0.2264 -0.2491
 1689SOL     OW 5965   3.769   6.301   3.656 -0.1570  0.3278  0.3588
 1689SOL    HW1 5966   3.806   6.343   3.739  1.4596  0.3283 -0.3216
 1689SOL    HW2 5967   3.828   6.323   3.579  0.2785 -2.4575 -0.1980
 1690SOL     OW 5968   1.249   4.280   4.205 -1.0901  0.5870  0.1506
 1690SOL    HW1 5969   1.178   4.230   4.254 -0.8484  0.9929  0.9251
 1690SOL    HW2 5970   1.322   4.306   4.268  0.8082 -1.6063 -0.9698
 1691SOL     OW 5971   4.941   2.520   4.369  0.4564  0.0441 -0.2485
 1691SOL    HW1 5972   4.961   2.599   4.427  2.0100  0.2004 -0.9485
 1691SOL    HW2 5973   4.855   2.478   4.398  0.3717  1.0875  1.0988
 1692SOL     OW 5974   4.267   0.277   3.520 -0.3271  0.5774 -0.2769
 1692SOL    HW1 5975   4.239   0.245   3.610 -1.5371  2.0405 -0.0925
 1692SOL    HW2 5976   4.210   0.235   3.450  1.7596 -1.9569 -0.6079
 1693SOL     OW 5977   5.616   1.344   4.435 -0.2539  0.4841  0.3217
 1693SOL    HW1 5978   5.668   1.262   4.412  0.2765  1.0351 -0.5144
 1693SOL    HW2 5979   5.520   1.332   4.408 -0.2727 -0.0105  0.5937
 1694SOL     OW 5980   4.189   6.468   6.363 -0.2056  0.0322 -0.1718
 1694SOL    HW1 5981   4.126   6.545   6.355  1.1810  1.1682 -0.5167
 1694SOL    HW2 5982   4.244   6.478   6.446  2.3013  1.2708 -1.8539
 1695SOL     OW 5983   4.233   1.928   5.235 -0.1093  0.1023  0.2356
 1695SOL    HW1 5984   4.187   2.015   5.250  0.8555  1.3424 -3.0735
 1695SOL    HW2 5985   4.316   1.943   5.180  0.4574 -2.8382  0.1174
 1696SOL     OW 5986   4.194   6.879   0.237  0.2565 -0.2646  0.0800
 1696SOL    HW1 5987   4.218   6.874   0.140 -0.2476 -0.2021 -0.0516
 1696SOL    HW2 5988   4.115   6.939   0.248  1.6248  1.5300  0.7816
 1697SOL     OW 5989   2.595   3.898   1.065  0.2079 -0.1263 -0.2653
 1697SOL    HW1 5990   2.614   3.947   1.150 -1.3364  0.1628 -0.0477
 1697SOL    HW2 5991   2.611   3.800   1.079  1.6817  0.0999 -0.1988
 1698SOL     OW 5992   4.634   3.284   0.433  0.1517  0.3006 -0.0957
 1698SOL    HW1 5993   4.555   3.228   0.412  1.1914 -2.6074  2.9587
 1698SOL    HW2 5994   4.604   3.376   0.459 -1.9265  0.0727 -1.4651
 1699SOL     OW 5995   2.552   1.826   0.421 -0.1302  0.1891  0.6651
 1699SOL    HW1 5996   2.476   1.789   0.367  0.1494  1.9275 -0.9991
 1699SOL    HW2 5997   2.534   1.811   0.518 -1.2157 -1.9650  0.1946
 1700SOL     OW 5998   6.277   3.351   3.621  0.5628 -0.1437  0.9369
 1700SOL    HW1 5999   6.286   3.429   3.559  0.5893 -0.2312  0.8297
 1700SOL    HW2 6000   6.205   3.369   3.687  0.0856 -0.3202  0.4694
 1701SOL     OW 6001   1.819   6.321   4.249 -0.3742 -0.1814 -0.1445
 1701SOL    HW1 6002   1.834   6.342   4.152  2.3208 -0.2239  0.1889
 1701SOL    HW2 6003   1.907   6.310   4.295 -1.5846 -0.4423  2.2849
 1702SOL     OW 6004   2.724   1.522   6.772 -0.3606 -0.5381 -0.3084
 1702SOL    HW1 6005   2.633   1.561   6.760 -0.3435 -0.3696  0.0933
 1702SOL    HW2 6006   2.717   1.423   6.782 -0.6859 -0.3478  1.6191
 1703SOL     OW 6007   2.172   2.062   2.297  0.1233  0.0967 -0.1160
 1703SOL    HW1 6008   2.266   2.085   2.322  0.0759  1.5383 -1.1473
 1703SOL    HW2 6009   2.172   2.004   2.216  0.1123  0.7551 -0.5918
 1704SOL     OW 6010   4.027   0.684   6.172  0.3170  0.3308 -0.3019
 1704SOL    HW1 6011   4.046   0.692   6.074 -0.4058  1.5247 -0.3639
 1704SOL    HW2 6012   4.025   0.775   6.213 -0.4950 -0.0728  0.6028
 1705SOL     OW 6013   5.928   1.707   0.979  0.3630 -0.2150  0.0760
 1705SOL    HW1 6014   5.957   1.696   0.884  0.6746 -0.7867  0.2340
 1705SOL    HW2 6015   5.828   1.710   0.983  0.3545 -0.0026 -0.2919
 1706SOL     OW 6016   6.808   5.345   4.382  0.2515  0.0280  0.3042
 1706SOL    HW1 6017   6.879   5.282   4.351 -0.5054 -0.7298  0.0738
 1706SOL    HW2 6018   6.735   5.349   4.314  0.4230  1.4097  0.1643
 1707SOL     OW 6019   2.950   1.574   2.409 -0.0083 -0.0104  0.5069
 1707SOL    HW1 6020   2.992   1.514   2.341 -1.4221 -1.1979  0.6272
 1707SOL    HW2 6021   2.864   1.611   2.373  0.4234  1.2946  0.7597
 1708SOL     OW 6022   3.175   3.496   0.378 -0.8899 -0.1682 -0.2444
 1708SOL    HW1 6023   3.183   3.414   0.434  2.4647  0.0915 -0.1386
 1708SOL    HW2 6024   3.183   3.577   0.437  0.5994  0.1289 -0.8209
 1709SOL     OW 6025   5.012   5.548   1.274 -0.0324  0.4747 -0.6367
 1709SOL    HW1 6026   4.926   5.516   1.314 -0.1740  1.0545 -0.4767
 1709SOL    HW2 6027   5.089   5.506   1.323 -0.2143 -0.5451 -1.1849
 1710SOL     OW 6028   6.077   1.824   1.167  0.0449 -0.3379 -0.4681
 1710SOL    HW1 6029   6.011   1.814   1.092 -0.1372  1.3672 -0.5821
 1710SOL    HW2 6030   6.038   1.787   1.251  0.3561 -2.5324 -1.2186
 1711SOL     OW 6031   3.555   6.421   1.233 -0.0714  0.4855  0.1966
 1711SOL    HW1 6032   3.547   6.417   1.333  0.6987 -1.8109  0.2271
 1711SOL    HW2 6033   3.589   6.511   1.206 -0.4135  1.1936  1.9765
 1712SOL     OW 6034   0.467   4.846   3.347 -0.2732  0.7875 -0.1594
 1712SOL    HW1 6035   0.441   4.882   3.257 -0.3920 -0.6468 -0.7295
 1712SOL    HW2 6036   0.405   4.883   3.416 -1.3115  0.5434 -0.9332
 1713SOL     OW 6037   3.952   2.013   4.997 -0.4011 -0.9632 -0.2435
 1713SOL    HW1 6038   4.030   2.074   5.010 -0.9873 -0.0528 -0.8594
 1713SOL    HW2 6039   3.870   2.055   5.037 -0.7876 -1.4166 -0.5484
 1714SOL     OW 6040   3.810   2.968   0.746 -0.1815 -0.2889  0.4973
 1714SOL    HW1 6041   3.750   2.896   0.710  1.0826 -0.9948 -0.3034
 1714SOL    HW2 6042   3.803   3.049   0.688  0.8076 -0.9374 -0.5857
 1715SOL     OW 6043   1.116   6.690   6.199  0.9267  0.3457 -0.6891
 1715SOL    HW1 6044   1.073   6.772   6.161 -0.8097 -0.9726 -1.6852
 1715SOL    HW2 6045   1.214   6.692   6.180  0.6430  1.3854 -2.2021
 1716SOL     OW 6046   3.884   0.686   0.998  0.4179 -0.0116 -0.1155
 1716SOL    HW1 6047   3.904   0.604   1.053  2.8639  0.1016 -0.7362
 1716SOL    HW2 6048   3.838   0.753   1.056  1.7575 -0.3876  1.4814
 1717SOL     OW 6049   3.353   0.813   4.134 -0.3838 -0.7988 -0.2887
 1717SOL    HW1 6050   3.265   0.769   4.115 -1.4166 -0.1335  2.5065
 1717SOL    HW2 6051   3.357   0.901   4.086 -1.5949 -0.5029  0.1171
 1718SOL     OW 6052   0.583   3.360   3.936 -0.0652  0.2372 -0.7198
 1718SOL    HW1 6053   0.522   3.341   3.859 -1.7514 -1.3067  0.8846
 1718SOL    HW2 6054   0.629   3.275   3.963 -0.6625  0.4034  0.8921
 1719SOL     OW 6055   6.667   3.277   2.831 -0.4646  0.4889  0.0735
 1719SOL    HW1 6056   6.707   3.351   2.775 -1.1156 -0.0070 -1.0881
 1719SOL    HW2 6057   6.729   3.199   2.832 -0.7544  0.2456 -0.5420
 1720SOL     OW 6058   2.810   2.381   5.426  0.4216  0.2577 -0.1015
 1720SOL    HW1 6059   2.769   2.470   5.446  1.5946  0.3521  2.2709
 1720SOL    HW2 6060   2.765   2.311   5.481 -0.3342 -0.6201 -1.7812
 1721SOL     OW 6061   2.354   3.134   1.535  0.3439  0.0437 -0.1614
 1721SOL    HW1 6062   2.340   3.055   1.595  2.4926  0.6903  1.3417
 1721SOL    HW2 6063   2.432   3.188   1.569  0.8128  1.2006 -2.8078
 1722SOL     OW 6064   5.723   2.409   2.781  0.0495  0.0412 -0.3702
 1722SOL    HW1 6065   5.711   2.319   2.822 -1.2572 -0.2429 -1.3090
 1722SOL    HW2 6066   5.732   2.400   2.682  0.5111  0.9039 -0.4183
 1723SOL     OW 6067   0.329   6.319   0.201 -0.4906 -0.2430 -0.6966
 1723SOL    HW1 6068   0.416   6.312   0.249  0.0686  0.8069 -1.5357
 1723SOL    HW2 6069   0.332   6.394   0.135 -2.0717 -0.1054 -0.6584
 1724SOL     OW 6070   5.092   3.952   2.645 -0.0211  0.3727 -0.1060
 1724SOL    HW1 6071   5.166   3.975   2.707 -1.0883  0.1137  1.3114
 1724SOL    HW2 6072   5.018   4.019   2.655 -0.2477  0.2775 -1.0394
 1725SOL     OW 6073   2.570   0.013   3.851  0.0180 -0.2962 -0.0668
 1725SOL    HW1 6074   2.584   0.008   3.950  1.3229 -0.5024 -0.2503
 1725SOL    HW2 6075   2.620   0.091   3.814  1.4603 -1.5375 -0.8603
 1726SOL     OW 6076   5.105   6.727   2.972  0.2772  0.3880 -0.5467
 1726SOL    HW1 6077   5.120   6.647   2.913  0.4406  0.2128 -0.2725
 1726SOL    HW2 6078   5.037   6.787   2.930 -0.2056 -0.1334 -0.5270
 1727SOL     OW 6079   4.110   3.488   3.557  0.5535  0.1940  0.7572
 1727SOL    HW1 6080   4.136   3.440   3.641  0.2879 -0.8234  0.2741
 1727SOL    HW2 6081   4.082   3.421   3.487  1.3855  0.9818 -0.3595
 1728SOL     OW 6082   5.884   3.355   2.843 -0.1603 -0.5421 -0.5165
 1728SOL    HW1 6083   5.970   3.305   2.856  0.9030  1.2564 -0.3003
 1728SOL    HW2 6084   5.861   3.404   2.926  0.3098  1.5044 -1.5336
 1729SOL     OW 6085   2.079   3.968   4.473  0.0539 -0.4915  0.4456
 1729SOL    HW1 6086   2.130   3.952   4.557  3.2035  0.1988 -1.1599
 1729SOL    HW2 6087   2.085   3.888   4.414 -2.0373 -0.9346  0.7683
 1730SOL     OW 6088   1.695   5.393   3.644  0.7942  0.3551  0.2907
 1730SOL    HW1 6089   1.749   5.314   3.616  0.8322  0.7715 -0.8682
 1730SOL    HW2 6090   1.696   5.401   3.744  0.6725 -1.1725  0.4315
 1731SOL     OW 6091   0.962   3.760   4.777 -0.1568  0.3819  0.0062
 1731SOL    HW1 6092   0.965   3.742   4.875 -0.7873  0.4613  0.0422
 1731SOL    HW2 6093   0.984   3.676   4.727  0.4845  0.4197  0.2126
 1732SOL     OW 6094   4.055   3.769   3.557 -0.3732  0.2977  0.3659
 1732SOL    HW1 6095   3.974   3.799   3.608 -0.8393 -0.8440  0.3262
 1732SOL    HW2 6096   4.082   3.678   3.588 -0.3056 -0.1695 -0.9973
 1733SOL     OW 6097   0.457   3.337   5.850 -0.1312  0.2967  0.1045
 1733SOL    HW1 6098   0.526   3.401   5.885 -0.0797 -0.2641  1.0721
 1733SOL    HW2 6099   0.502   3.261   5.804 -0.0223 -0.5157  1.4872
 1734SOL     OW 6100   6.212   5.902   0.331  0.0277  0.1739 -0.3723
 1734SOL    HW1 6101   6.176   5.973   0.270 -0.5944  1.0317  0.9404
 1734SOL    HW2 6102   6.213   5.814   0.284  0.3680  0.9602 -1.8866
 1735SOL     OW 6103   3.163   6.379   5.097  0.0379 -0.2630 -0.1868
 1735SOL    HW1 6104   3.245   6.436   5.092  0.2328 -0.1150  2.9223
 1735SOL    HW2 6105   3.187   6.290   5.135 -0.9926 -0.8477 -0.8615
 1736SOL     OW 6106   4.172   2.261   5.580 -0.2550 -0.3075 -0.3317
 1736SOL    HW1 6107   4.271   2.265   5.564 -0.4627 -0.8887 -2.0084
 1736SOL    HW2 6108   4.127   2.333   5.527 -0.7630 -0.2884  0.1246
 1737SOL     OW 6109   1.483   1.288   6.402  0.3027  0.1725  0.1738
 1737SOL    HW1 6110   1.428   1.331   6.473  2.3557  0.1354  1.8922
 1737SOL    HW2 6111   1.494   1.350   6.325  0.4102  1.3936  1.1523
 1738SOL     OW 6112   1.863   4.770   1.788 -0.1077 -0.2648 -0.1108
 1738SOL    HW1 6113   1.774   4.756   1.830 -0.7144  2.4579 -0.2663
 1738SOL    HW2 6114   1.919   4.828   1.849  0.7336 -0.1353 -0.9814
 1739SOL     OW 6115   4.940   4.077   2.169 -0.1673 -0.2695  0.1251
 1739SOL    HW1 6116   4.900   4.011   2.105 -1.0811 -1.2058  1.5875
 1739SOL    HW2 6117   4.877   4.155   2.179  0.1339  0.0431 -0.3356
 1740SOL     OW 6118   1.557   1.845   3.932  0.2936  0.1309 -0.1848
 1740SOL    HW1 6119   1.613   1.828   4.013  0.0023  0.8747  0.1828
 1740SOL    HW2 6120   1.612   1.828   3.850  0.9582  0.5039  0.1715
 1741SOL     OW 6121   1.651   2.024   3.399  0.7847  0.4091 -0.4842
 1741SOL    HW1 6122   1.569   2.076   3.373 -0.7111 -1.1178  0.9238
 1741SOL    HW2 6123   1.674   1.960   3.327 -0.5590 -0.5997 -0.0561
 1742SOL     OW 6124   6.017   1.113   1.700  0.4182 -0.6223  0.5514
 1742SOL    HW1 6125   5.954   1.182   1.663  0.3528 -1.4812 -1.0179
 1742SOL    HW2 6126   6.094   1.102   1.638 -0.0863 -2.6801  0.2128
 1743SOL     OW 6127   0.472   2.385   1.570  0.3022 -0.1931  0.0153
 1743SOL    HW1 6128   0.478   2.485   1.571  2.1514 -0.2357 -1.1457
 1743SOL    HW2 6129   0.532   2.347   1.641 -0.1327 -0.5050  0.2250
 1744SOL     OW 6130   3.278   1.926   0.063 -0.2376  0.5003  0.2273
 1744SOL    HW1 6131   3.289   2.019   0.098 -2.1575  0.4895  0.9900
 1744SOL    HW2 6132   3.283   1.861   0.138 -0.8049  0.1648 -0.0120
 1745SOL     OW 6133   6.968   6.050   1.378  0.4134  0.3263 -0.2077
 1745SOL    HW1 6134   6.907   6.020   1.451  0.1759 -1.0738 -0.9400
 1745SOL    HW2 6135   7.036   6.113   1.414  0.1211 -0.1161  1.1532
 1746SOL     OW 6136   0.732   4.857   1.955 -0.3279  1.0390  0.2519
 1746SOL    HW1 6137   0.756   4.849   1.858 -0.6110  1.2121  0.1685
 1746SOL    HW2 6138   0.806   4.819   2.011 -0.9370 -0.7157 -0.0889
 1747SOL     OW 6139   1.322   6.049   1.967 -0.0509 -0.7877  0.7760
 1747SOL    HW1 6140   1.234   6.021   1.929 -0.3173 -0.5826  1.2338
 1747SOL    HW2 6141   1.328   6.149   1.964 -0.5595 -0.6975  2.3244
 1748SOL     OW 6142   5.602   1.261   6.273 -0.0718  0.7889  0.0700
 1748SOL    HW1 6143   5.629   1.271   6.177 -0.6957  0.7358 -0.1204
 1748SOL    HW2 6144   5.680   1.231   6.327  0.6884  2.3255 -0.1319
 1749SOL     OW 6145   0.684   5.577   0.782  0.5687  0.3517  0.1102
 1749SOL    HW1 6146   0.725   5.488   0.764  0.4829  0.3372 -0.0216
 1749SOL    HW2 6147   0.733   5.647   0.730  1.2984  0.5359  1.0203
 1750SOL     OW 6148   4.706   1.896   6.094  0.4531  0.2586  0.0905
 1750SOL    HW1 6149   4.648   1.971   6.128  1.0517  1.0302 -0.5625
 1750SOL    HW2 6150   4.712   1.901   5.995  1.0770 -0.2306  0.1015
 1751SOL     OW 6151   0.424   4.045   1.125  0.8277  0.0507 -0.9434
 1751SOL    HW1 6152   0.468   4.101   1.055 -0.4753 -0.3712 -2.1418
 1751SOL    HW2 6153   0.330   4.025   1.098 -0.2097  1.0624  1.6007
 1752SOL     OW 6154   0.161   0.733   2.097 -0.3050 -0.0038 -0.1136
 1752SOL    HW1 6155   0.241   0.738   2.038  0.0302  2.0542  0.4348
 1752SOL    HW2 6156   0.121   0.642   2.092  0.9606 -0.5048 -1.8415
 1753SOL     OW 6157   0.254   0.731   0.708 -0.3639  0.5483  0.2213
 1753SOL    HW1 6158   0.255   0.634   0.684 -0.6015  0.6018 -0.0088
 1753SOL    HW2 6159   0.325   0.750   0.775  0.4794  0.4426 -0.6322
 1754SOL     OW 6160   1.344   3.882   3.701  0.3719  0.3281 -0.6847
 1754SOL    HW1 6161   1.407   3.842   3.768  1.4624  1.3328 -1.0788
 1754SOL    HW2 6162   1.295   3.808   3.653  0.1304 -0.4220  0.6573
 1755SOL     OW 6163   5.949   5.737   6.396  0.0820 -0.4055 -0.5331
 1755SOL    HW1 6164   5.930   5.834   6.411 -1.6931 -0.4530 -1.9872
 1755SOL    HW2 6165   5.959   5.721   6.298  3.1909 -1.2834 -0.1526
 1756SOL     OW 6166   4.193   6.750   1.918 -0.0838  0.1789 -0.7167
 1756SOL    HW1 6167   4.252   6.706   1.850 -0.5141  0.3025 -1.1814
 1756SOL    HW2 6168   4.113   6.789   1.872 -0.4431  0.1630 -0.1173
 1757SOL     OW 6169   3.250   5.241   4.940  0.0382 -0.4826 -0.0863
 1757SOL    HW1 6170   3.201   5.328   4.931  1.8614  0.7363  1.0485
 1757SOL    HW2 6171   3.241   5.190   4.854 -2.4293  0.0410 -0.2135
 1758SOL     OW 6172   0.508   6.152   2.972  0.1380  0.0424  0.3858
 1758SOL    HW1 6173   0.592   6.191   3.011  1.4755 -1.9729 -0.3288
 1758SOL    HW2 6174   0.504   6.054   2.992 -2.5691  0.2239  1.2117
 1759SOL     OW 6175   2.073   6.582   6.982 -0.1856 -0.1124 -0.1934
 1759SOL    HW1 6176   2.018   6.500   6.993  1.3358 -1.3064 -1.1314
 1759SOL    HW2 6177   2.152   6.579   7.043 -1.2417  1.7400  1.3879
 1760SOL     OW 6178   4.631   6.228   4.548  0.1659 -0.4890 -0.3720
 1760SOL    HW1 6179   4.565   6.160   4.515 -0.2779  0.2139 -0.9355
 1760SOL    HW2 6180   4.722   6.187   4.550 -0.1345 -1.1791 -0.4777
 1761SOL     OW 6181   5.909   3.265   4.010 -0.1634  0.5595  0.2987
 1761SOL    HW1 6182   5.947   3.325   4.081 -1.1342  1.3166  0.2060
 1761SOL    HW2 6183   5.907   3.171   4.042  1.3711  0.5536  0.4640
 1762SOL     OW 6184   1.092   1.286   3.672 -0.2363 -0.0301 -0.1385
 1762SOL    HW1 6185   1.029   1.334   3.733 -0.5978  1.1188 -1.3506
 1762SOL    HW2 6186   1.186   1.305   3.699 -0.3883  0.7515 -0.1343
 1763SOL     OW 6187   2.482   5.544   4.867  0.7071  0.2121  0.5523
 1763SOL    HW1 6188   2.546   5.579   4.935  0.9692  2.9390 -0.9338
 1763SOL    HW2 6189   2.516   5.458   4.830  2.2042  0.3216  1.6037
 1764SOL     OW 6190   6.860   5.917   2.163 -0.4786  0.4422  0.6099
 1764SOL    HW1 6191   6.955   5.889   2.175 -1.0474 -1.3837  1.1592
 1764SOL    HW2 6192   6.819   5.867   2.087 -0.8998  1.5357  0.0866
 1765SOL     OW 6193   5.433   3.785   1.775  0.8604  0.3265  0.3929
 1765SOL    HW1 6194   5.444   3.884   1.782  0.6667  0.3576  0.2611
 1765SOL    HW2 6195   5.335   3.763   1.770  0.9308  0.3193 -2.5254
 1766SOL     OW 6196   3.673   5.591   5.205 -0.4982 -0.3102 -0.4711
 1766SOL    HW1 6197   3.683   5.566   5.301 -0.3920 -2.8637 -1.0945
 1766SOL    HW2 6198   3.757   5.635   5.173 -0.6677  0.8931  0.6600
 1767SOL     OW 6199   2.949   4.239   1.470  0.1265  0.0262  0.4514
 1767SOL    HW1 6200   2.911   4.259   1.560 -0.0670  1.1058  0.1461
 1767SOL    HW2 6201   2.966   4.325   1.421  2.9544 -0.3530  0.5706
 1768SOL     OW 6202   4.635   5.953   2.769 -0.0761 -0.2408 -0.0311
 1768SOL    HW1 6203   4.591   5.866   2.793 -2.3553  0.3195 -1.8228
 1768SOL    HW2 6204   4.664   5.950   2.673  0.4951  0.7271  0.1042
 1769SOL     OW 6205   3.568   5.641   6.016 -0.1149 -0.7764  0.4074
 1769SOL    HW1 6206   3.539   5.694   5.936  1.4359  0.7465  0.8045
 1769SOL    HW2 6207   3.625   5.564   5.986  0.2066 -0.3920  0.0207
 1770SOL     OW 6208   2.927   2.334   6.041 -0.0369  1.0833 -0.3457
 1770SOL    HW1 6209   3.013   2.360   5.996 -1.5159  3.0417 -2.2127
 1770SOL    HW2 6210   2.946   2.314   6.138  2.4827  1.5598 -0.6517
 1771SOL     OW 6211   1.300   4.275   5.595  0.3507  1.0124  0.0473
 1771SOL    HW1 6212   1.314   4.234   5.505 -0.9178  0.4213  0.0937
 1771SOL    HW2 6213   1.250   4.361   5.585 -0.0876  0.7777  0.2054
 1772SOL     OW 6214   2.543   4.582   2.030  0.6017 -0.2931  0.8502
 1772SOL    HW1 6215   2.638   4.568   2.002  0.8334  0.7001  1.0805
 1772SOL    HW2 6216   2.484   4.576   1.950  0.7981 -1.3315  0.7669
 1773SOL     OW 6217   1.202   6.536   3.111 -0.3795 -0.6342 -0.4437
 1773SOL    HW1 6218   1.127   6.581   3.159 -0.1087  1.0996 -1.5469
 1773SOL    HW2 6219   1.256   6.605   3.063  0.4099 -2.1135 -1.7606
 1774SOL     OW 6220   6.014   5.096   2.344 -0.3394  0.2371 -0.1815
 1774SOL    HW1 6221   6.105   5.077   2.307  0.6945  1.1677  1.6949
 1774SOL    HW2 6222   6.011   5.065   2.439 -3.3761 -3.5679 -1.2538
 1775SOL     OW 6223   2.410   0.085   0.893  0.6135 -0.0491  0.8695
 1775SOL    HW1 6224   2.389  -0.010   0.870 -3.6258  0.6304  1.1997
 1775SOL    HW2 6225   2.397   0.099   0.991 -0.2034  1.1308  0.6176
 1776SOL     OW 6226   4.597   4.192   5.181 -0.0653  0.1652  0.3666
 1776SOL    HW1 6227   4.555   4.264   5.235 -1.2004  1.8370 -2.5324
 1776SOL    HW2 6228   4.578   4.103   5.223 -0.7125  1.3473  2.7167
 1777SOL     OW 6229   3.044   6.108   6.734 -0.3364 -0.3161  0.3210
 1777SOL    HW1 6230   3.064   6.143   6.642 -0.6516 -1.3740 -0.1702
 1777SOL    HW2 6231   3.115   6.043   6.761 -1.8029 -2.3618 -0.4885
 1778SOL     OW 6232   6.693   5.360   2.306 -0.0701  0.0799  0.3010
 1778SOL    HW1 6233   6.616   5.392   2.362  1.0998 -0.2103  2.1873
 1778SOL    HW2 6234   6.659   5.303   2.232 -1.6798  0.0294  1.0282
 1779SOL     OW 6235   6.967   0.153   0.286 -0.1759  0.3574  0.2084
 1779SOL    HW1 6236   6.936   0.071   0.238  1.8677 -2.1475  2.8374
 1779SOL    HW2 6237   6.894   0.187   0.345 -0.4099 -0.9575  0.7196
 1780SOL     OW 6238   1.929   0.876   5.880  0.3318 -0.1035  0.2609
 1780SOL    HW1 6239   1.887   0.843   5.796  0.1480 -1.3464  0.8171
 1780SOL    HW2 6240   1.903   0.971   5.896 -2.5046 -0.8797  0.7062
 1781SOL     OW 6241   3.374   2.925   5.249 -0.0234  0.6498  0.1561
 1781SOL    HW1 6242   3.425   2.999   5.291 -2.1170  2.0617  0.3793
 1781SOL    HW2 6243   3.384   2.842   5.304 -1.4224  2.0343  2.6850
 1782SOL     OW 6244   5.948   6.243   1.514 -0.6879 -0.0617  0.1161
 1782SOL    HW1 6245   5.926   6.191   1.596  1.9834 -0.8005  0.4604
 1782SOL    HW2 6246   5.979   6.335   1.539 -0.1448 -0.1889 -0.0821
 1783SOL     OW 6247   0.899   5.442   5.467  0.0980  0.6414 -0.2233
 1783SOL    HW1 6248   0.882   5.356   5.420 -0.2574  0.6436 -0.1070
 1783SOL    HW2 6249   0.831   5.454   5.540  1.9240 -0.4261  1.7864
 1784SOL     OW 6250   2.270   4.843   2.862 -0.5050 -0.0522  0.2674
 1784SOL    HW1 6251   2.316   4.880   2.943 -0.2130 -1.5433  0.8214
 1784SOL    HW2 6252   2.258   4.916   2.795  1.3025  0.7327  0.7194
 1785SOL     OW 6253   1.593   4.809   3.639  0.3458  0.1329 -0.3322
 1785SOL    HW1 6254   1.611   4.742   3.712  1.8772  0.8003 -0.0637
 1785SOL    HW2 6255   1.495   4.825   3.633  0.1942  0.8136  2.3351
 1786SOL     OW 6256   6.633   5.055   2.305 -0.4944 -0.0564  0.1445
 1786SOL    HW1 6257   6.642   5.109   2.222 -1.0816 -0.0544  0.0772
 1786SOL    HW2 6258   6.570   4.979   2.289  0.6014 -0.9885  0.1288
 1787SOL     OW 6259   3.686   1.005   5.854  0.3857  0.6865  0.1517
 1787SOL    HW1 6260   3.629   0.984   5.934 -0.1319  1.2803 -0.0607
 1787SOL    HW2 6261   3.640   0.973   5.771  1.0812 -0.2508  0.1012
 1788SOL     OW 6262   4.191   3.479   6.786  0.0721 -0.3687  0.2542
 1788SOL    HW1 6263   4.270   3.437   6.831  0.7256  0.7758  0.2268
 1788SOL    HW2 6264   4.188   3.577   6.809 -0.7392 -0.1846 -0.5714
 1789SOL     OW 6265   4.651   4.318   4.045  0.2097  0.3833  0.2143
 1789SOL    HW1 6266   4.584   4.295   4.116  0.3079 -2.2694 -0.4484
 1789SOL    HW2 6267   4.740   4.337   4.087  0.4966 -2.0531  0.8171
 1790SOL     OW 6268   2.114   3.403   5.911 -0.1039  0.4287  0.3652
 1790SOL    HW1 6269   2.124   3.410   5.812  0.5715  0.8852  0.4618
 1790SOL    HW2 6270   2.204   3.410   5.955 -0.5257  1.5663  1.0938
 1791SOL     OW 6271   6.402   6.434   3.710  0.0089  0.4606  0.4185
 1791SOL    HW1 6272   6.449   6.404   3.628 -0.2086  2.1785 -0.3777
 1791SOL    HW2 6273   6.355   6.356   3.752  0.1613 -0.4615 -1.0474
 1792SOL     OW 6274   6.269   3.277   4.510 -0.6832 -0.2738  0.1555
 1792SOL    HW1 6275   6.319   3.312   4.589  2.3514  1.2296 -2.1813
 1792SOL    HW2 6276   6.241   3.353   4.452 -2.7746 -1.3338 -0.3289
 1793SOL     OW 6277   6.882   3.915   6.182  0.4728 -0.4426  0.1754
 1793SOL    HW1 6278   6.925   3.825   6.181  0.5709 -0.3988 -0.8822
 1793SOL    HW2 6279   6.896   3.959   6.093 -1.9466 -0.5353 -0.3342
 1794SOL     OW 6280   6.631   2.769   3.888 -0.0723  0.4697 -0.4966
 1794SOL    HW1 6281   6.695   2.826   3.940 -1.6628  0.7236  1.2836
 1794SOL    HW2 6282   6.552   2.824   3.862 -0.4778 -0.3171 -0.9459
 1795SOL     OW 6283   5.776   2.896   0.041  0.4699  0.0388  0.2917
 1795SOL    HW1 6284   5.700   2.841   0.007  0.5813 -0.0471  0.1855
 1795SOL    HW2 6285   5.855   2.886  -0.019  0.6198  0.0008  0.4928
 1796SOL     OW 6286   5.882   6.185   6.243 -0.0441 -0.0615  0.0104
 1796SOL    HW1 6287   5.839   6.211   6.329 -0.2223 -0.3207 -0.0001
 1796SOL    HW2 6288   5.877   6.261   6.179 -0.7836 -0.1953 -0.1029
 1797SOL     OW 6289   2.845   2.057   6.378  0.4519  0.0786  0.3063
 1797SOL    HW1 6290   2.915   2.003   6.333 -0.6583 -0.2795 -1.0460
 1797SOL    HW2 6291   2.868   2.154   6.370  0.2115  0.0349 -1.1827
 1798SOL     OW 6292   2.212   4.169   1.230 -0.1496 -0.7840  0.1806
 1798SOL    HW1 6293   2.301   4.210   1.249  0.1663 -0.6810 -1.4395
 1798SOL    HW2 6294   2.170   4.141   1.317  0.4658  1.1681  1.1928
 1799SOL     OW 6295   3.325   0.737   2.906  0.6611 -0.0861  0.4440
 1799SOL    HW1 6296   3.269   0.689   2.838  2.6769  0.1139 -1.4671
 1799SOL    HW2 6297   3.351   0.827   2.871  0.6009  0.6196  2.1088
 1800SOL     OW 6298   4.927   2.524   6.145 -0.1877 -0.3209 -0.5892
 1800SOL    HW1 6299   5.011   2.527   6.092 -0.7544  1.7136 -1.4612
 1800SOL    HW2 6300   4.947   2.546   6.241  0.2203  0.5980 -0.8790
 1801SOL     OW 6301   2.402   1.740   3.602 -0.2188  0.1239 -0.5450
 1801SOL    HW1 6302   2.373   1.817   3.546 -0.2649 -1.4121 -2.7516
 1801SOL    HW2 6303   2.485   1.764   3.651  0.6983  1.0906 -2.4587
 1802SOL     OW 6304   0.161   4.531   3.949 -0.0738 -0.3287 -0.4141
 1802SOL    HW1 6305   0.151   4.508   3.852 -2.0666 -2.7989  0.2586
 1802SOL    HW2 6306   0.093   4.599   3.975 -1.5172 -1.7896 -0.2119
 1803SOL     OW 6307   4.616   5.205   3.636  0.3399 -0.2431 -0.2074
 1803SOL    HW1 6308   4.541   5.244   3.582  1.0150 -0.5242 -1.3836
 1803SOL    HW2 6309   4.580   5.170   3.722 -1.0857 -1.3066 -1.1811
 1804SOL     OW 6310   1.950   4.236   0.084  0.0441  0.2639  0.0477
 1804SOL    HW1 6311   2.014   4.178   0.034 -2.8505 -1.7594 -1.5996
 1804SOL    HW2 6312   1.980   4.245   0.179  2.4225 -1.0373 -0.5103
 1805SOL     OW 6313   0.650   6.176   4.031 -0.1551 -0.3524 -0.0828
 1805SOL    HW1 6314   0.747   6.195   4.019  0.1874 -0.6144  1.9032
 1805SOL    HW2 6315   0.607   6.252   4.079 -0.8949 -0.3667 -0.6936
 1806SOL     OW 6316   0.609   2.036   4.212 -0.2011  0.0291  0.1692
 1806SOL    HW1 6317   0.647   2.044   4.120 -0.6862  0.5949  0.0074
 1806SOL    HW2 6318   0.538   2.105   4.224 -0.1132 -0.0162  0.9842
 1807SOL     OW 6319   4.070   1.990   2.484  0.2942  0.2195  0.6888
 1807SOL    HW1 6320   4.126   2.070   2.462  1.5867 -0.7508  0.2756
 1807SOL    HW2 6321   4.071   1.975   2.583  2.1858 -0.7144  0.5787
 1808SOL     OW 6322   5.831   0.032   0.925  0.1788 -0.1332  0.0984
 1808SOL    HW1 6323   5.791   0.031   0.834 -0.2629 -0.9203  0.2921
 1808SOL    HW2 6324   5.759   0.024   0.994  0.6231 -1.2474  0.4560
 1809SOL     OW 6325   5.345   0.700   5.567  0.2403 -0.1261  0.0355
 1809SOL    HW1 6326   5.330   0.654   5.655  1.5698 -1.0228 -0.1797
 1809SOL    HW2 6327   5.257   0.723   5.526 -0.4164 -0.6793  1.0872
 1810SOL     OW 6328   1.032   1.184   3.131  0.2635  0.1506 -0.3518
 1810SOL    HW1 6329   1.064   1.091   3.150 -0.4639  0.0316  0.3497
 1810SOL    HW2 6330   1.081   1.249   3.189 -1.4754 -0.1438  1.5573
 1811SOL     OW 6331   2.910   4.178   1.003  0.2100 -0.0933  0.0752
 1811SOL    HW1 6332   2.892   4.114   1.078  2.2713 -0.8044  0.0268
 1811SOL    HW2 6333   2.948   4.263   1.041 -0.9961  0.4827  0.0103
 1812SOL     OW 6334   2.212   0.509   1.029  0.1774  0.6189  0.0052
 1812SOL    HW1 6335   2.201   0.558   0.943  2.4365  0.5363 -0.3844
 1812SOL    HW2 6336   2.309   0.509   1.055 -0.0235 -1.9727  0.9933
 1813SOL     OW 6337   4.902   5.186   0.713  0.4351 -0.2018 -0.3357
 1813SOL    HW1 6338   4.812   5.229   0.725  0.2273 -0.8688  0.6749
 1813SOL    HW2 6339   4.973   5.256   0.717  0.0206  0.2152 -0.0935
 1814SOL     OW 6340   6.531   0.047   2.439 -0.1866  0.2699 -0.5399
 1814SOL    HW1 6341   6.613   0.078   2.389  1.7410 -0.8132  1.7649
 1814SOL    HW2 6342   6.471  -0.001   2.376  0.6771  1.4953 -2.4262
 1815SOL     OW 6343   6.452   6.128   1.113 -0.0200  0.0167  0.1450
 1815SOL    HW1 6344   6.430   6.077   1.029 -3.9252  0.0534  0.9485
 1815SOL    HW2 6345   6.437   6.226   1.097  0.8392  0.2093  0.4751
 1816SOL     OW 6346   4.855   5.548   4.980 -0.1382  0.2890 -0.0433
 1816SOL    HW1 6347   4.806   5.570   4.896 -2.8770  1.0355  1.6569
 1816SOL    HW2 6348   4.809   5.473   5.028  1.2003  0.0726  0.9907
 1817SOL     OW 6349   5.956   2.580   3.454  0.5206 -0.4292  0.2894
 1817SOL    HW1 6350   6.003   2.592   3.367 -0.5466 -0.0764 -0.2485
 1817SOL    HW2 6351   5.889   2.506   3.447  0.3358 -0.3174  0.7730
 1818SOL     OW 6352   1.590   2.992   6.570 -0.1291  0.7285  0.4960
 1818SOL    HW1 6353   1.686   3.020   6.578  0.4754 -0.9454 -0.3812
 1818SOL    HW2 6354   1.554   2.970   6.661  1.5577 -2.2845  0.5857
 1819SOL     OW 6355   6.366   2.825   2.407 -0.1110  0.8964  0.8076
 1819SOL    HW1 6356   6.440   2.870   2.456 -0.4361  0.2678  1.9079
 1819SOL    HW2 6357   6.313   2.769   2.471 -0.2711 -0.3122 -0.3343
 1820SOL     OW 6358   5.320   0.198   5.522  0.1365 -0.2989  0.3565
 1820SOL    HW1 6359   5.329   0.127   5.452 -0.3002 -0.2822  0.2791
 1820SOL    HW2 6360   5.229   0.240   5.516  0.3081  0.1143  0.5462
 1821SOL     OW 6361   2.866   0.927   3.743 -0.3659  0.2740 -0.0490
 1821SOL    HW1 6362   2.846   1.020   3.776  0.2240 -0.1278  1.5448
 1821SOL    HW2 6363   2.800   0.863   3.782  0.0757 -0.1621 -0.0171
 1822SOL     OW 6364   1.774   4.900   4.281 -0.1138  0.3919 -0.4368
 1822SOL    HW1 6365   1.748   4.806   4.256 -0.0987  0.2791 -0.0390
 1822SOL    HW2 6366   1.848   4.896   4.348  0.2121  0.6974 -0.7754
 1823SOL     OW 6367   3.769   2.965   5.669 -0.4841 -0.1681  0.0300
 1823SOL    HW1 6368   3.867   2.945   5.679 -0.4299 -0.5254 -1.0988
 1823SOL    HW2 6369   3.736   3.011   5.751  0.3512 -1.1523  0.9510
 1824SOL     OW 6370   4.196   3.208   1.368  0.1022 -0.3701 -0.3829
 1824SOL    HW1 6371   4.237   3.124   1.401 -0.0311  0.6773  2.7207
 1824SOL    HW2 6372   4.096   3.199   1.370  0.0847 -0.1025  0.1173
 1825SOL     OW 6373   0.673   3.037   0.878 -1.0834 -0.0545  0.6244
 1825SOL    HW1 6374   0.678   2.949   0.925 -2.1999 -0.1608  0.5646
 1825SOL    HW2 6375   0.740   3.038   0.804 -1.6382 -1.2065  0.0680
 1826SOL     OW 6376   5.700   3.696   0.322  0.0748 -0.8721  0.0538
 1826SOL    HW1 6377   5.630   3.755   0.365  0.5331 -0.9902  0.9950
 1826SOL    HW2 6378   5.787   3.746   0.318 -0.0906 -0.6647 -1.2700
 1827SOL     OW 6379   4.879   5.457   6.979 -0.2021 -0.0850 -0.0927
 1827SOL    HW1 6380   4.955   5.497   6.927  1.6396  1.1424  3.2409
 1827SOL    HW2 6381   4.845   5.376   6.931  0.2035  1.7856 -3.8990
 1828SOL     OW 6382   3.466   0.855   6.396  0.3910  0.2290 -0.0867
 1828SOL    HW1 6383   3.368   0.836   6.399  0.4916 -1.2819 -2.7020
 1828SOL    HW2 6384   3.487   0.912   6.316  1.3051  3.9135  2.5109
 1829SOL     OW 6385   1.445   6.024   2.940 -0.2372  0.6962 -0.3944
 1829SOL    HW1 6386   1.417   6.047   2.847  1.1453  2.0587 -0.5078
 1829SOL    HW2 6387   1.543   6.004   2.942  0.0258  1.9365  0.9549
 1830SOL     OW 6388   5.572   1.609   6.884  1.1653 -0.6687  0.1287
 1830SOL    HW1 6389   5.611   1.522   6.854  0.8360 -1.6917  2.4694
 1830SOL    HW2 6390   5.492   1.631   6.828  1.5163 -1.6235 -0.7842
 1831SOL     OW 6391   2.108   2.900   5.964  0.4232  0.1194  0.4134
 1831SOL    HW1 6392   2.186   2.849   5.999 -0.2469 -1.8589 -0.8090
 1831SOL    HW2 6393   2.132   2.996   5.955  3.1517 -0.6099 -1.0553
 1832SOL     OW 6394   2.293   1.435   3.924  0.0438  0.2925 -0.1642
 1832SOL    HW1 6395   2.241   1.492   3.859 -1.2989  0.3507  0.9218
 1832SOL    HW2 6396   2.294   1.479   4.013  1.2161 -0.1670  0.0652
 1833SOL     OW 6397   2.589   1.519   0.678  0.3610 -0.0044  0.8728
 1833SOL    HW1 6398   2.630   1.477   0.597  0.2563  1.7413 -0.1275
 1833SOL    HW2 6399   2.504   1.470   0.701  0.6201 -0.7894  0.2064
 1834SOL     OW 6400   0.920   3.690   1.362 -0.3352 -0.0920  0.0416
 1834SOL    HW1 6401   0.835   3.669   1.314 -1.2745  1.3211  0.9828
 1834SOL    HW2 6402   0.996   3.692   1.297 -0.9671 -1.5906 -0.7843
 1835SOL     OW 6403   5.831   1.876   5.696  0.6712 -0.4089 -0.2038
 1835SOL    HW1 6404   5.895   1.841   5.627 -0.3992 -1.0371 -0.9185
 1835SOL    HW2 6405   5.740   1.837   5.680 -0.2989  1.6959 -0.2408
 1836SOL     OW 6406   5.106   0.673   5.456  0.1832  0.7878  0.5022
 1836SOL    HW1 6407   5.050   0.684   5.374  0.3227 -0.6324  0.1830
 1836SOL    HW2 6408   5.052   0.628   5.527  1.3314 -2.2471 -0.4053
 1837SOL     OW 6409   0.708   1.780   2.415 -0.2349 -0.1650  0.2264
 1837SOL    HW1 6410   0.687   1.877   2.409 -1.9755 -0.5794 -2.2156
 1837SOL    HW2 6411   0.782   1.758   2.352  0.0795 -0.4451  0.6874
 1838SOL     OW 6412   5.022   0.757   4.563 -0.2313  0.2890 -0.1655
 1838SOL    HW1 6413   4.978   0.676   4.600 -0.2678 -0.3395 -1.5242
 1838SOL    HW2 6414   4.953   0.829   4.551 -0.1276  0.6883  1.4013
 1839SOL     OW 6415   0.216   4.554   0.060 -0.4954  0.7752 -0.2938
 1839SOL    HW1 6416   0.174   4.481   0.114 -0.8895  0.2083 -1.3372
 1839SOL    HW2 6417   0.274   4.514  -0.011 -0.1233  1.5019 -0.4107
 1840SOL     OW 6418   2.292   5.737   6.371 -0.3377  0.0214  0.6876
 1840SOL    HW1 6419   2.266   5.641   6.380  0.5322 -0.3034 -0.1514
 1840SOL    HW2 6420   2.360   5.760   6.440 -0.3899 -0.0225  0.7538
 1841SOL     OW 6421   1.523   2.075   6.315 -0.2655  0.1121  0.0979
 1841SOL    HW1 6422   1.522   2.161   6.264  2.7995 -0.1823 -0.6594
 1841SOL    HW2 6423   1.609   2.066   6.364 -0.7847 -2.2265  0.7051
 1842SOL     OW 6424   0.104   3.992   1.072  0.0144  0.0012 -0.4183
 1842SOL    HW1 6425   0.015   4.025   1.103  0.5533 -0.0598  1.3574
 1842SOL    HW2 6426   0.113   4.006   0.974 -1.4919  1.0686 -0.4413
 1843SOL     OW 6427   1.495   6.190   4.711  0.6762  0.7957 -0.0521
 1843SOL    HW1 6428   1.510   6.163   4.616  0.4481 -1.0035  0.3781
 1843SOL    HW2 6429   1.577   6.169   4.765  0.2845  0.4533  0.4132
 1844SOL     OW 6430   5.576   3.172   6.607  0.2383 -0.3337 -0.1128
 1844SOL    HW1 6431   5.493   3.229   6.612  0.8020  0.7071 -1.8301
 1844SOL    HW2 6432   5.553   3.078   6.632 -1.5962 -0.1888 -1.0898
 1845SOL     OW 6433   0.654   1.139   0.322 -0.5646 -0.3311 -0.4011
 1845SOL    HW1 6434   0.609   1.050   0.326 -0.7286 -0.2390 -0.2202
 1845SOL    HW2 6435   0.736   1.132   0.265 -0.1467 -0.7822  0.2483
 1846SOL     OW 6436   0.833   6.142   2.458 -0.0805  0.0001 -0.3423
 1846SOL    HW1 6437   0.760   6.211   2.461  0.6046  0.7136  0.7417
 1846SOL    HW2 6438   0.819   6.076   2.532  0.6578  0.4563  0.2148
 1847SOL     OW 6439   3.680   5.454   6.934 -0.1438  0.0316 -0.2898
 1847SOL    HW1 6440   3.726   5.383   6.988  0.8854 -1.7053 -3.2293
 1847SOL    HW2 6441   3.587   5.424   6.912 -2.0232  2.4136  3.4733
 1848SOL     OW 6442   4.281   5.346   5.725  0.0692 -0.3770  0.3777
 1848SOL    HW1 6443   4.315   5.344   5.819 -0.0339 -0.9167  0.4050
 1848SOL    HW2 6444   4.321   5.271   5.673  2.2325  1.4512 -0.7586
 1849SOL     OW 6445   4.709   2.814   2.562 -0.0794 -0.4026 -0.0597
 1849SOL    HW1 6446   4.764   2.887   2.522 -0.5633 -0.7214 -1.3558
 1849SOL    HW2 6447   4.628   2.799   2.505 -0.7076 -0.9983  0.9651
 1850SOL     OW 6448   4.089   1.585   2.378 -0.5561  0.0112 -0.4183
 1850SOL    HW1 6449   4.168   1.525   2.386 -0.8076 -0.1324  1.2170
 1850SOL    HW2 6450   4.023   1.546   2.313 -0.3509 -1.0744  0.0127
 1851SOL     OW 6451   0.674   4.793   1.155 -1.2184  0.4359 -0.2779
 1851SOL    HW1 6452   0.763   4.806   1.199 -1.3484 -0.0356  0.1446
 1851SOL    HW2 6453   0.602   4.812   1.221 -1.4172 -1.3931  0.1059
 1852SOL     OW 6454   6.419   2.629   2.889  0.1992  0.4545  0.1954
 1852SOL    HW1 6455   6.378   2.654   2.801  0.2744  1.5036  0.4384
 1852SOL    HW2 6456   6.367   2.554   2.930 -0.3157  0.4855 -0.3829
 1853SOL     OW 6457   2.024   2.825   5.414 -0.5740 -0.0752  0.0401
 1853SOL    HW1 6458   2.045   2.843   5.318  1.1984  0.9041  0.5632
 1853SOL    HW2 6459   2.108   2.797   5.461 -1.5622 -1.2591  1.1659
 1854SOL     OW 6460   0.962   0.091   5.229 -0.1299  0.3227  0.3481
 1854SOL    HW1 6461   0.864   0.085   5.246 -0.3711  0.5135 -0.8961
 1854SOL    HW2 6462   1.003   0.155   5.294 -0.8890  0.5426  0.6227
 1855SOL     OW 6463   0.148   2.008   5.386  0.0007  0.1600  0.4446
 1855SOL    HW1 6464   0.131   2.104   5.360 -1.7585 -0.1843  0.1452
 1855SOL    HW2 6465   0.178   1.957   5.305 -0.8526  0.1023  0.1434
 1856SOL     OW 6466   5.114   4.181   0.185  0.4513 -0.1971 -0.4048
 1856SOL    HW1 6467   5.161   4.094   0.176  0.6625  0.0837 -2.5103
 1856SOL    HW2 6468   5.039   4.172   0.251  0.7670 -1.8038 -0.2202
 1857SOL     OW 6469   4.338   3.110   0.710  0.5036 -0.2309  0.1661
 1857SOL    HW1 6470   4.429   3.081   0.680  0.6000 -0.3785  0.5987
 1857SOL    HW2 6471   4.280   3.030   0.723  0.7356 -0.2336  1.2453
 1858SOL     OW 6472   5.145   3.152   6.855 -0.1434 -0.2276 -0.4975
 1858SOL    HW1 6473   5.192   3.072   6.818 -0.4332  0.1359 -1.7054
 1858SOL    HW2 6474   5.142   3.146   6.955 -0.4156 -1.8667 -0.5730
 1859SOL     OW 6475   5.346   5.521   3.182 -0.1123 -0.1346 -0.2557
 1859SOL    HW1 6476   5.422   5.531   3.119 -1.1448  3.3718 -1.1548
 1859SOL    HW2 6477   5.377   5.542   3.275  0.0102  1.9386 -0.7042
 1860SOL     OW 6478   1.327   0.442   6.612 -0.5048 -0.1204  0.0978
 1860SOL    HW1 6479   1.317   0.406   6.519  0.3598 -3.1135  1.0288
 1860SOL    HW2 6480   1.242   0.488   6.639 -0.0152  2.8871 -2.8506
 1861SOL     OW 6481   0.113   6.470   3.221  0.4674 -0.1713  0.6502
 1861SOL    HW1 6482   0.179   6.405   3.184  0.9622 -0.3170  1.7365
 1861SOL    HW2 6483   0.052   6.501   3.148  1.4761 -0.3399 -0.2928
 1862SOL     OW 6484   3.204   6.251   4.386  0.3796  0.5804  0.1563
 1862SOL    HW1 6485   3.215   6.186   4.311  2.4528  0.8597  0.1698
 1862SOL    HW2 6486   3.171   6.338   4.350  1.2593  0.6799 -0.4283
 1863SOL     OW 6487   6.946   2.378   0.742 -0.3559 -0.3497 -0.0163
 1863SOL    HW1 6488   6.918   2.368   0.647 -0.5123 -1.3710  0.1182
 1863SOL    HW2 6489   7.028   2.324   0.759  1.1628  1.8115 -0.1528
 1864SOL     OW 6490   3.335   6.927   3.271  0.4630 -0.7124  0.0833
 1864SOL    HW1 6491   3.338   6.896   3.366  0.6669 -1.1663 -0.0677
 1864SOL    HW2 6492   3.309   6.850   3.212 -3.0751  0.2908  0.1096
 1865SOL     OW 6493   0.453   2.746   6.578 -0.6144  0.5978  0.4051
 1865SOL    HW1 6494   0.361   2.713   6.595 -0.3348 -0.1254  0.5297
 1865SOL    HW2 6495   0.505   2.746   6.663  0.6367 -2.5532 -0.2410
 1866SOL     OW 6496   1.299   5.318   2.768 -0.1924 -0.2382 -0.0128
 1866SOL    HW1 6497   1.375   5.377   2.739  0.3998 -1.6833 -1.5558
 1866SOL    HW2 6498   1.335   5.239   2.817 -0.6343 -1.0873 -1.0094
 1867SOL     OW 6499   1.842   5.485   6.457 -0.1120  0.3452 -0.6911
 1867SOL    HW1 6500   1.923   5.542   6.471  0.3156  0.3100 -2.6695
 1867SOL    HW2 6501   1.780   5.531   6.393 -0.3753 -0.7887 -1.2793
 1868SOL     OW 6502   5.130   2.547   5.966  0.0044  0.1949  0.2465
 1868SOL    HW1 6503   5.118   2.490   5.885 -1.7191  0.0802  0.5335
 1868SOL    HW2 6504   5.227   2.560   5.984  0.4525 -2.5790  0.1343
 1869SOL     OW 6505   4.333   0.269   6.223 -0.2482 -0.1544  0.4907
 1869SOL    HW1 6506   4.405   0.215   6.180 -1.6607 -1.5703 -0.2211
 1869SOL    HW2 6507   4.253   0.211   6.238 -1.7776  1.6910 -0.1323
 1870SOL     OW 6508   5.883   2.105   6.560  0.8531  0.0370  1.1883
 1870SOL    HW1 6509   5.883   2.113   6.461  1.0630 -0.6781  1.1252
 1870SOL    HW2 6510   5.915   2.014   6.587 -0.5486 -0.2895  1.8701
 1871SOL     OW 6511   2.458   5.976   0.798 -0.9140  0.1061  0.0131
 1871SOL    HW1 6512   2.380   6.038   0.801  0.5220  1.9756  1.5313
 1871SOL    HW2 6513   2.469   5.941   0.705 -1.6529  2.3547 -0.9908
 1872SOL     OW 6514   2.394   3.806   1.249 -0.0311  0.0055  0.4115
 1872SOL    HW1 6515   2.467   3.874   1.235  0.1946 -0.3711 -0.2981
 1872SOL    HW2 6516   2.326   3.816   1.176 -0.3317 -0.0983  0.6815
 1873SOL     OW 6517   4.909   1.212   2.850  0.0504 -0.3408 -0.2471
 1873SOL    HW1 6518   4.860   1.258   2.924 -0.0701 -0.6747 -0.1175
 1873SOL    HW2 6519   4.976   1.275   2.811  0.5006 -0.3334  0.5128
 1874SOL     OW 6520   4.139   3.531   5.681 -0.5170 -0.0126 -0.0769
 1874SOL    HW1 6521   4.053   3.581   5.673 -1.6459 -1.8131  0.2773
 1874SOL    HW2 6522   4.215   3.595   5.681 -1.9605  1.8654  2.0290
 1875SOL     OW 6523   1.621   6.134   0.814  0.1805  0.2885 -0.2265
 1875SOL    HW1 6524   1.614   6.143   0.913  0.8430 -1.0349 -0.0413
 1875SOL    HW2 6525   1.546   6.077   0.780 -0.2965  1.0937 -0.5584
 1876SOL     OW 6526   6.689   5.399   5.336  0.2507 -0.5534  0.3899
 1876SOL    HW1 6527   6.768   5.343   5.314  0.4768  0.1802 -0.6997
 1876SOL    HW2 6528   6.717   5.476   5.394  0.4785  0.1357 -0.6248
 1877SOL     OW 6529   0.380   0.129   4.036 -0.8809  0.3090  0.3353
 1877SOL    HW1 6530   0.331   0.139   4.122 -1.1634 -2.0624  0.4907
 1877SOL    HW2 6531   0.451   0.060   4.045  0.0145  1.0085 -0.9650
 1878SOL     OW 6532   6.799   3.659   2.971 -0.2166  0.0405  0.2613
 1878SOL    HW1 6533   6.868   3.695   2.909  0.9846 -1.5287  0.6106
 1878SOL    HW2 6534   6.726   3.615   2.918  0.9347 -1.5291 -0.1027
 1879SOL     OW 6535   3.454   0.466   2.847 -0.1176 -0.6051 -0.4137
 1879SOL    HW1 6536   3.378   0.419   2.802 -0.4158  0.5531 -1.1494
 1879SOL    HW2 6537   3.435   0.564   2.850  0.7001 -0.4671  0.6991
 1880SOL     OW 6538   0.586   4.217   2.895  0.2169 -0.2703  0.2438
 1880SOL    HW1 6539   0.685   4.206   2.898  0.4455  1.4072 -0.2136
 1880SOL    HW2 6540   0.557   4.233   2.801 -0.5114 -0.7610  0.3707
 1881SOL     OW 6541   4.824   2.962   3.030 -0.1104 -0.0124 -0.1668
 1881SOL    HW1 6542   4.884   2.930   3.104 -1.3251 -0.0254  0.8560
 1881SOL    HW2 6543   4.734   2.919   3.039 -0.4922  0.5118 -1.2612
 1882SOL     OW 6544   4.891   0.529   6.360 -0.8152 -0.4669 -0.7838
 1882SOL    HW1 6545   4.897   0.536   6.261 -0.5284  2.5714 -0.6497
 1882SOL    HW2 6546   4.810   0.578   6.392  0.8780  1.5975  0.6377
 1883SOL     OW 6547   1.402   2.875   2.904  0.3446 -0.5365 -0.3248
 1883SOL    HW1 6548   1.332   2.937   2.939  0.1360 -0.4264 -0.9390
 1883SOL    HW2 6549   1.459   2.922   2.837  0.5595 -0.8345 -0.3576
 1884SOL     OW 6550   5.019   0.684   0.499 -0.0942  0.3827 -0.0687
 1884SOL    HW1 6551   5.102   0.668   0.446 -0.8441 -0.4391 -1.0338
 1884SOL    HW2 6552   5.021   0.629   0.583  0.1501  0.0574 -0.2900
 1885SOL     OW 6553   6.561   4.504   4.577 -0.4447 -0.4275 -0.0622
 1885SOL    HW1 6554   6.615   4.575   4.531 -3.3845  2.0016 -0.0910
 1885SOL    HW2 6555   6.518   4.445   4.508 -1.1503  0.2973 -0.2559
 1886SOL     OW 6556   3.148   3.060   3.221  0.2247 -0.3313 -0.1344
 1886SOL    HW1 6557   3.106   3.053   3.311 -1.4779 -0.1913 -0.8676
 1886SOL    HW2 6558   3.206   2.980   3.205  1.6931  0.3214  1.5927
 1887SOL     OW 6559   5.769   0.190   5.852 -0.1787 -0.0662  0.4426
 1887SOL    HW1 6560   5.762   0.191   5.753 -2.6264 -1.0675  0.5203
 1887SOL    HW2 6561   5.818   0.271   5.884  0.5025  0.3514 -1.5489
 1888SOL     OW 6562   1.797   3.289   5.493 -0.4195 -0.0666 -1.0878
 1888SOL    HW1 6563   1.784   3.365   5.430  0.5438  0.9957 -0.0360
 1888SOL    HW2 6564   1.708   3.248   5.515 -1.1393  1.8171 -0.3640
 1889SOL     OW 6565   4.183   4.241   5.726 -0.6300 -0.2716  0.3694
 1889SOL    HW1 6566   4.120   4.184   5.778 -1.8446  0.7518  0.0470
 1889SOL    HW2 6567   4.165   4.230   5.628  0.1432 -0.4697  0.2414
 1890SOL     OW 6568   5.101   6.187   0.723  0.0663 -0.0431  0.0264
 1890SOL    HW1 6569   5.120   6.101   0.770 -2.0293 -0.1998  0.6736
 1890SOL    HW2 6570   5.022   6.176   0.663  1.0324  0.9068 -1.5100
 1891SOL     OW 6571   3.819   3.990   1.553 -0.3497 -0.1086  0.0918
 1891SOL    HW1 6572   3.803   4.048   1.473 -0.4925 -0.2764 -0.0011
 1891SOL    HW2 6573   3.817   4.046   1.636 -1.4469 -0.1281  0.0910
 1892SOL     OW 6574   2.830   1.476   4.213 -0.6324 -0.2302 -0.3281
 1892SOL    HW1 6575   2.866   1.507   4.301 -0.2930 -1.1735 -0.1228
 1892SOL    HW2 6576   2.804   1.380   4.219  0.0905 -0.5254 -1.4494
 1893SOL     OW 6577   2.982   1.357   6.435 -0.3703 -0.6179 -0.2888
 1893SOL    HW1 6578   2.980   1.423   6.510 -0.3341 -0.4174 -0.4638
 1893SOL    HW2 6579   3.071   1.311   6.434 -0.5894 -1.0624  0.1707
 1894SOL     OW 6580   4.768   2.955   1.085 -0.2936  0.3329 -0.1998
 1894SOL    HW1 6581   4.765   3.053   1.106  0.9380  0.1184  1.1097
 1894SOL    HW2 6582   4.793   2.942   0.989  2.0208  1.3073  0.2161
 1895SOL     OW 6583   6.269   4.010   4.154 -0.0059  0.1087 -0.4700
 1895SOL    HW1 6584   6.277   4.029   4.056 -0.9213  0.5200 -0.4745
 1895SOL    HW2 6585   6.223   4.087   4.199 -0.7856 -0.6607  0.0680
 1896SOL     OW 6586   0.789   3.688   1.967  0.4016 -0.0985 -0.6660
 1896SOL    HW1 6587   0.740   3.601   1.968  0.9428 -0.4294  1.0176
 1896SOL    HW2 6588   0.779   3.732   1.878 -1.1937 -1.1385 -1.0298
 1897SOL     OW 6589   6.222   5.800   4.713 -0.0147  0.2711  0.3766
 1897SOL    HW1 6590   6.298   5.795   4.648 -0.8414 -0.4695 -0.5759
 1897SOL    HW2 6591   6.256   5.786   4.806  0.9154 -0.8381 -0.1076
 1898SOL     OW 6592   4.581   6.373   0.686  0.8351 -0.2032 -0.1293
 1898SOL    HW1 6593   4.518   6.412   0.618 -0.6057 -0.3470  1.0624
 1898SOL    HW2 6594   4.561   6.412   0.776  1.5868 -1.2317  0.5073
 1899SOL     OW 6595   0.816   2.667   5.068  0.3705 -0.0105 -0.1957
 1899SOL    HW1 6596   0.859   2.645   4.980  1.5101  1.7261 -0.1004
 1899SOL    HW2 6597   0.827   2.589   5.130 -0.2349 -1.1675 -1.4865
 1900SOL     OW 6598   1.338   4.498   1.352 -0.5466  0.6248  0.5611
 1900SOL    HW1 6599   1.405   4.572   1.359  1.3286 -1.0473  1.4830
 1900SOL    HW2 6600   1.306   4.473   1.443 -1.1761  0.3061  0.2591
 1901SOL     OW 6601   0.672   1.783   5.671 -0.6611 -0.1814 -0.3866
 1901SOL    HW1 6602   0.686   1.781   5.770 -0.5103 -0.3220 -0.4108
 1901SOL    HW2 6603   0.595   1.843   5.650 -0.9614 -0.4741 -0.1525
 1902SOL     OW 6604   1.977   3.722   5.589 -0.1613 -0.0304 -0.0856
 1902SOL    HW1 6605   2.074   3.740   5.601 -0.1372 -0.6986  0.7975
 1902SOL    HW2 6606   1.943   3.775   5.511  0.8152  0.5055 -0.1650
 1903SOL     OW 6607   0.261   6.115   3.298 -0.1815 -0.5181 -0.4683
 1903SOL    HW1 6608   0.265   6.166   3.211 -2.0887  2.2501  0.9007
 1903SOL    HW2 6609   0.236   6.020   3.280 -0.7384  0.0306 -2.9535
 1904SOL     OW 6610   0.740   1.758   3.052 -0.3478  0.3409 -0.2266
 1904SOL    HW1 6611   0.703   1.759   3.145  1.5751  0.2759  0.5823
 1904SOL    HW2 6612   0.706   1.677   3.003 -3.5100  1.7212 -0.5629
 1905SOL     OW 6613   5.244   2.928   6.680 -0.4775 -0.4195  0.3886
 1905SOL    HW1 6614   5.214   3.005   6.624 -0.7500 -0.5535  0.3528
 1905SOL    HW2 6615   5.340   2.907   6.658 -0.7716 -0.8865 -0.4993
 1906SOL     OW 6616   3.470   4.143   6.069  0.0848  0.4730  0.2452
 1906SOL    HW1 6617   3.478   4.226   6.014  0.7713 -1.2747 -2.5144
 1906SOL    HW2 6618   3.409   4.078   6.023 -0.2841 -0.6667  2.2076
 1907SOL     OW 6619   5.030   2.465   3.204  0.1214 -0.8410 -0.2244
 1907SOL    HW1 6620   5.099   2.431   3.139 -0.5462  0.0532 -1.4492
 1907SOL    HW2 6621   5.074   2.524   3.271  0.4465  0.7335 -1.7299
 1908SOL     OW 6622   5.902   4.718   6.678 -0.3710  0.7687 -0.1972
 1908SOL    HW1 6623   5.852   4.757   6.756  0.1811  0.4982  0.2939
 1908SOL    HW2 6624   5.973   4.656   6.711 -1.4845 -0.9834 -0.9797
 1909SOL     OW 6625   6.314   4.355   4.806  0.1462 -0.2729 -0.4924
 1909SOL    HW1 6626   6.342   4.323   4.896  1.2811 -0.3290 -0.8470
 1909SOL    HW2 6627   6.383   4.328   4.738 -0.6885 -0.2273 -1.3736
 1910SOL     OW 6628   4.400   4.946   3.453  0.4223  0.6905  0.3774
 1910SOL    HW1 6629   4.394   5.044   3.476 -0.9697  0.9262 -0.8321
 1910SOL    HW2 6630   4.421   4.937   3.356  3.1789 -0.2659  0.9707
 1911SOL     OW 6631   1.414   2.568   5.146 -0.2435 -0.9108 -0.1173
 1911SOL    HW1 6632   1.469   2.585   5.227 -2.3318 -1.2446  1.4608
 1911SOL    HW2 6633   1.469   2.520   5.077  2.4723  2.0418 -0.2234
 1912SOL     OW 6634   3.703   1.140   4.165  0.3555 -0.0322 -0.1895
 1912SOL    HW1 6635   3.682   1.147   4.067 -0.3530  2.9260  0.0576
 1912SOL    HW2 6636   3.639   1.076   4.208  1.3914 -2.2513 -1.7745
 1913SOL     OW 6637   3.890   5.055   1.496  0.3798  0.1430 -0.2133
 1913SOL    HW1 6638   3.820   5.030   1.428 -0.8617 -1.7051  1.6041
 1913SOL    HW2 6639   3.946   4.975   1.517  0.1074  0.3893  1.6068
 1914SOL     OW 6640   5.025   0.369   5.284  0.5502 -0.3253  0.3379
 1914SOL    HW1 6641   5.115   0.413   5.273  1.5323 -2.3048 -0.0787
 1914SOL    HW2 6642   5.023   0.317   5.369  0.1536 -1.0341 -0.0888
 1915SOL     OW 6643   2.908   0.582   5.068  0.3142  0.0327  0.2418
 1915SOL    HW1 6644   2.830   0.563   5.128 -0.3293 -0.1454 -0.6318
 1915SOL    HW2 6645   2.884   0.656   5.005  0.8417 -0.0472 -0.0610
 1916SOL     OW 6646   3.740   6.100   4.185  0.2285  0.2092 -0.4402
 1916SOL    HW1 6647   3.695   6.032   4.126  1.0019 -0.3615 -0.3830
 1916SOL    HW2 6648   3.811   6.147   4.133 -0.6142  1.3339 -0.6202
 1917SOL     OW 6649   2.872   3.359   3.147  0.4080 -0.7078  0.1629
 1917SOL    HW1 6650   2.942   3.429   3.162 -0.0240  0.0698 -1.3078
 1917SOL    HW2 6651   2.813   3.354   3.228  0.5896  0.4729  0.3952
 1918SOL     OW 6652   1.747   0.846   5.413 -0.0242  0.1814  0.3281
 1918SOL    HW1 6653   1.667   0.822   5.357 -0.7958 -1.2080  1.9291
 1918SOL    HW2 6654   1.734   0.937   5.452 -0.6687  0.1159  0.2838
 1919SOL     OW 6655   4.825   0.920   1.441  0.2500 -0.6226 -0.9352
 1919SOL    HW1 6656   4.756   0.915   1.368  0.7119 -0.4508 -1.3872
 1919SOL    HW2 6657   4.877   1.004   1.431 -0.9800  0.4162  0.7699
 1920SOL     OW 6658   5.054   6.640   5.251 -0.3614  0.0169  0.1364
 1920SOL    HW1 6659   5.090   6.565   5.306  1.9485  0.6840 -0.3527
 1920SOL    HW2 6660   5.002   6.602   5.174 -0.3807 -1.0283  0.6397
 1921SOL     OW 6661   1.679   6.427   0.477  0.3983 -0.0698 -0.1732
 1921SOL    HW1 6662   1.669   6.494   0.404 -2.5799 -1.1261 -0.8830
 1921SOL    HW2 6663   1.719   6.472   0.557 -1.1606  2.5176 -0.7060
 1922SOL     OW 6664   3.407   4.460   0.518 -0.8155  0.1121 -0.2580
 1922SOL    HW1 6665   3.474   4.437   0.588 -1.2878  1.6941  0.7665
 1922SOL    HW2 6666   3.425   4.552   0.483 -0.8564 -0.4788 -1.9246
 1923SOL     OW 6667   1.358   3.452   3.083  0.4029 -0.0171  0.2691
 1923SOL    HW1 6668   1.321   3.438   3.175  0.1851 -0.7639  0.0777
 1923SOL    HW2 6669   1.378   3.363   3.041 -0.0204  0.2915 -0.6152
 1924SOL     OW 6670   1.226   3.989   1.092  0.4580 -0.7908  0.2623
 1924SOL    HW1 6671   1.244   3.972   1.189 -1.6705 -0.9543  0.6879
 1924SOL    HW2 6672   1.149   3.933   1.062 -0.1544  0.6473 -1.0121
 1925SOL     OW 6673   1.292   3.587   0.799 -0.4532 -0.6763 -0.0416
 1925SOL    HW1 6674   1.392   3.586   0.796 -0.4430 -0.8228  0.3643
 1925SOL    HW2 6675   1.257   3.621   0.712 -0.0423 -0.1723 -0.0115
 1926SOL     OW 6676   6.335   0.963   3.295 -0.4528  0.2329 -0.1909
 1926SOL    HW1 6677   6.317   1.010   3.209 -2.3499 -1.1466 -0.6087
 1926SOL    HW2 6678   6.383   1.025   3.357  0.1786  1.5397 -1.9091
 1927SOL     OW 6679   5.296   5.056   1.663  0.4703 -0.4874 -0.1283
 1927SOL    HW1 6680   5.245   5.005   1.733  1.6520 -2.4713 -0.6334
 1927SOL    HW2 6681   5.393   5.054   1.684  0.7474 -0.2622 -1.3098
 1928SOL     OW 6682   1.326   5.480   3.877 -0.2602 -0.4490  0.0060
 1928SOL    HW1 6683   1.226   5.488   3.880 -0.2228 -0.0171  0.1308
 1928SOL    HW2 6684   1.351   5.383   3.871 -0.6548 -0.6430  1.2592
 1929SOL     OW 6685   0.628   5.492   1.509  0.1975 -0.7810  0.1975
 1929SOL    HW1 6686   0.565   5.420   1.536 -0.3342  0.0245  1.1901
 1929SOL    HW2 6687   0.577   5.571   1.476  0.7103 -0.3809  0.3411
 1930SOL     OW 6688   0.240   0.493   6.516  0.3057 -0.0258  0.0177
 1930SOL    HW1 6689   0.153   0.534   6.486 -0.0568 -0.6434  0.1953
 1930SOL    HW2 6690   0.312   0.518   6.452 -0.1374 -0.0322 -0.4974
 1931SOL     OW 6691   2.117   3.563   3.790 -0.5782 -0.0346 -0.2094
 1931SOL    HW1 6692   2.018   3.578   3.791 -0.4137  1.2423 -0.7833
 1931SOL    HW2 6693   2.150   3.569   3.696  0.0569 -0.4120 -0.0149
 1932SOL     OW 6694   5.155   1.218   2.541  0.6965  0.1417 -0.1667
 1932SOL    HW1 6695   5.182   1.187   2.450  0.1477 -1.4516  0.1953
 1932SOL    HW2 6696   5.180   1.315   2.551  2.7689 -0.2362 -1.1996
 1933SOL     OW 6697   2.419   5.061   6.837 -0.6224 -0.8241 -0.0633
 1933SOL    HW1 6698   2.485   5.003   6.884 -0.5264 -0.6531  0.0134
 1933SOL    HW2 6699   2.466   5.139   6.796 -0.7566 -0.7762 -0.1259
 1934SOL     OW 6700   6.683   5.618   2.502 -0.1955  0.3818 -0.4978
 1934SOL    HW1 6701   6.782   5.621   2.491 -0.0415  1.6665  0.8534
 1934SOL    HW2 6702   6.644   5.708   2.479 -0.3983  1.5644  3.6257
 1935SOL     OW 6703   6.810   1.442   1.809  0.0328  0.0798  0.0264
 1935SOL    HW1 6704   6.839   1.405   1.897 -3.8031  0.4191  1.6308
 1935SOL    HW2 6705   6.861   1.526   1.791  1.8131 -0.6714  1.2361
 1936SOL     OW 6706   1.606   0.056   5.063 -0.0590  0.6824  0.5933
 1936SOL    HW1 6707   1.599  -0.043   5.074 -1.3211  0.5692 -0.9339
 1936SOL    HW2 6708   1.570   0.101   5.144 -0.1770 -0.0992  0.9863
 1937SOL     OW 6709   5.455   3.070   3.258  0.3132  0.4643 -1.1976
 1937SOL    HW1 6710   5.453   3.159   3.304 -1.5605  0.5599 -1.4030
 1937SOL    HW2 6711   5.493   3.080   3.166 -2.1353  1.5831 -2.1716
 1938SOL     OW 6712   2.929   6.839   3.103  0.0001  0.1718  0.5794
 1938SOL    HW1 6713   2.921   6.912   3.171 -0.0588 -0.9796  1.8488
 1938SOL    HW2 6714   3.009   6.782   3.124  1.1219  0.9031 -1.4473
 1939SOL     OW 6715   1.884   0.315   3.882 -0.2421 -0.8450 -0.5418
 1939SOL    HW1 6716   1.908   0.221   3.861 -0.1764 -1.2175  1.0747
 1939SOL    HW2 6717   1.818   0.348   3.814  0.3291 -1.7686 -1.5818
 1940SOL     OW 6718   6.141   0.849   6.464  0.1736 -0.2347 -0.3356
 1940SOL    HW1 6719   6.080   0.807   6.531 -0.1568  0.5154 -0.1545
 1940SOL    HW2 6720   6.223   0.883   6.510 -1.3164  2.9586  0.3148
 1941SOL     OW 6721   5.411   4.256   0.861  0.5735 -0.2837 -0.4351
 1941SOL    HW1 6722   5.339   4.196   0.896  1.0122 -0.7095 -0.2541
 1941SOL    HW2 6723   5.493   4.247   0.918  1.0036 -0.3121 -1.0452
 1942SOL     OW 6724   0.455   2.895   3.058 -0.1435 -0.0400 -0.6233
 1942SOL    HW1 6725   0.369   2.875   3.106 -1.1628  1.3865 -1.7663
 1942SOL    HW2 6726   0.474   2.820   2.994  0.2914 -1.0951  0.7106
 1943SOL     OW 6727   2.908   6.081   4.627  0.1736 -0.2021  0.0524
 1943SOL    HW1 6728   2.837   6.120   4.568 -2.5434 -0.5892  2.7612
 1943SOL    HW2 6729   2.906   5.981   4.621  0.9968 -0.2022 -0.3463
 1944SOL     OW 6730   6.348   1.489   2.861  0.2722  0.3060  0.1192
 1944SOL    HW1 6731   6.443   1.520   2.864  0.3551  0.1597 -0.7516
 1944SOL    HW2 6732   6.305   1.502   2.950  0.7913  1.3727  0.2159
 1945SOL     OW 6733   4.372   4.540   2.007 -0.3305  0.1089 -0.3664
 1945SOL    HW1 6734   4.420   4.453   2.017 -1.9822 -0.9184 -0.8528
 1945SOL    HW2 6735   4.343   4.551   1.911  0.2805  1.4401 -0.4158
 1946SOL     OW 6736   0.396   1.290   1.264 -0.2816  0.4544  0.3777
 1946SOL    HW1 6737   0.400   1.220   1.336 -0.2102  0.1283  0.0544
 1946SOL    HW2 6738   0.370   1.248   1.178  1.2891  0.5605 -0.1729
 1947SOL     OW 6739   3.003   0.339   4.819  0.3208 -0.0534 -0.1606
 1947SOL    HW1 6740   2.948   0.421   4.833  1.2764  0.3091  1.8347
 1947SOL    HW2 6741   3.082   0.341   4.880  1.3461 -1.6221 -1.3503
 1948SOL     OW 6742   5.955   3.313   5.294  0.0270 -0.5147  0.3004
 1948SOL    HW1 6743   5.966   3.238   5.229 -2.5887 -0.2856 -0.5276
 1948SOL    HW2 6744   5.976   3.400   5.249 -0.6731 -0.4599  0.0537
 1949SOL     OW 6745   5.306   5.043   6.578  0.5766 -0.0716  0.1789
 1949SOL    HW1 6746   5.228   5.073   6.634 -0.4302 -1.7851 -0.2162
 1949SOL    HW2 6747   5.361   5.122   6.552  0.2703  0.9524  2.3622
 1950SOL     OW 6748   2.832   6.117   0.891  0.3485  0.0029 -0.2450
 1950SOL    HW1 6749   2.844   6.027   0.850  0.7248  0.3763 -0.9981
 1950SOL    HW2 6750   2.740   6.126   0.929 -1.1002  0.5778 -3.5355
 1951SOL     OW 6751   6.182   2.478   0.084  0.0328  0.2065  0.1978
 1951SOL    HW1 6752   6.125   2.526   0.150  1.4735 -0.2050  1.8097
 1951SOL    HW2 6753   6.229   2.402   0.129 -1.5795 -2.3170 -2.0944
 1952SOL     OW 6754   3.231   4.088   4.417  0.1204 -0.3808  0.5196
 1952SOL    HW1 6755   3.133   4.090   4.401  0.1039  1.2377  0.6586
 1952SOL    HW2 6756   3.250   4.037   4.502 -0.7067  0.3453  1.1516
 1953SOL     OW 6757   1.772   3.316   4.569 -0.1849  0.1999  0.3713
 1953SOL    HW1 6758   1.762   3.267   4.656 -1.3841  1.4812  0.9957
 1953SOL    HW2 6759   1.693   3.376   4.556  0.1092  0.2228 -1.4987
 1954SOL     OW 6760   2.209   2.013   1.993  0.3484  0.0728  0.2185
 1954SOL    HW1 6761   2.265   1.993   1.912 -1.8580 -1.4994 -1.0082
 1954SOL    HW2 6762   2.207   2.112   2.008  1.5506  0.3275 -1.0618
 1955SOL     OW 6763   5.381   6.094   1.652 -0.1034 -0.1127  0.1338
 1955SOL    HW1 6764   5.307   6.088   1.585  1.1835 -0.1067 -1.3230
 1955SOL    HW2 6765   5.451   6.157   1.620  1.1901 -1.1409  0.8435
 1956SOL     OW 6766   1.792   6.895   4.173 -0.4115  0.0661  0.4279
 1956SOL    HW1 6767   1.803   6.831   4.098 -0.7716  0.9619 -0.4103
 1956SOL    HW2 6768   1.721   6.863   4.235  3.2136 -3.3538  3.3037
 1957SOL     OW 6769   2.697   6.192   4.489  0.6437 -0.9350  0.0754
 1957SOL    HW1 6770   2.637   6.152   4.420  1.3110  1.7299 -2.2232
 1957SOL    HW2 6771   2.643   6.245   4.554  0.2662 -0.6360 -0.4757
 1958SOL     OW 6772   3.987   6.261   1.209  0.0142  0.2647  0.5717
 1958SOL    HW1 6773   4.069   6.204   1.211 -0.6202 -0.6532  0.9468
 1958SOL    HW2 6774   3.957   6.281   1.303 -1.9582 -2.0434  0.5244
 1959SOL     OW 6775   3.434   0.141   1.539  0.1381 -0.3558  0.4153
 1959SOL    HW1 6776   3.449   0.090   1.623 -0.1971 -2.1895 -0.5799
 1959SOL    HW2 6777   3.338   0.170   1.535  0.6713  1.8208  1.7054
 1960SOL     OW 6778   3.341   4.971   3.063  0.5663  0.2212 -0.3069
 1960SOL    HW1 6779   3.300   5.033   2.996 -0.9624 -0.7759 -0.3660
 1960SOL    HW2 6780   3.275   4.899   3.086  1.7561 -0.5582  0.8369
 1961SOL     OW 6781   5.837   5.416   2.341  0.0554 -0.4427 -0.1160
 1961SOL    HW1 6782   5.901   5.421   2.265 -0.2336 -2.7847 -0.5952
 1961SOL    HW2 6783   5.881   5.369   2.418  0.2435  1.6285  1.1234
 1962SOL     OW 6784   1.065   5.938   5.201 -0.2643 -0.4706  0.1415
 1962SOL    HW1 6785   1.165   5.937   5.199 -0.1951  1.1373  1.1815
 1962SOL    HW2 6786   1.033   5.863   5.258  0.3715 -0.7400  0.1611
 1963SOL     OW 6787   1.938   2.013   3.104  0.3718  0.4678  0.2853
 1963SOL    HW1 6788   1.994   2.037   3.183  1.3646  0.8171 -0.5027
 1963SOL    HW2 6789   1.900   2.096   3.063 -1.2468  0.2016  1.1490
 1964SOL     OW 6790   0.278   2.968   1.768  0.2709 -0.1594 -0.0107
 1964SOL    HW1 6791   0.287   2.874   1.802 -3.0517 -0.7410 -0.3395
 1964SOL    HW2 6792   0.299   3.032   1.842  0.2440 -1.2362  0.9681
 1965SOL     OW 6793   5.674   4.707   2.310  0.3371 -0.2635 -0.3788
 1965SOL    HW1 6794   5.769   4.729   2.333  0.2368 -0.8396  0.5993
 1965SOL    HW2 6795   5.671   4.618   2.264  0.4250  0.4419 -1.8246
 1966SOL     OW 6796   0.239   6.211   6.003  0.2292  0.1434  0.2159
 1966SOL    HW1 6797   0.324   6.183   6.047  0.7311  1.0542 -0.1527
 1966SOL    HW2 6798   0.246   6.198   5.904  0.2324  0.9156  0.1059
 1967SOL     OW 6799   5.345   3.191   5.753 -0.2274  0.1857  0.1195
 1967SOL    HW1 6800   5.327   3.165   5.658  3.1278  0.2746 -0.6648
 1967SOL    HW2 6801   5.382   3.284   5.757  1.0854 -0.3385  1.3007
 1968SOL     OW 6802   3.022   7.009   5.321  0.2182 -0.2330  0.6141
 1968SOL    HW1 6803   3.087   7.031   5.393  1.1472 -1.1884  0.0946
 1968SOL    HW2 6804   3.023   6.911   5.304 -1.8671 -0.3792  1.0447
 1969SOL     OW 6805   5.408   0.365   1.499 -0.3232  0.0758  0.3312
 1969SOL    HW1 6806   5.335   0.364   1.567  1.6225  0.8707  2.5746
 1969SOL    HW2 6807   5.493   0.330   1.540  0.4635 -1.4968 -2.3627
 1970SOL     OW 6808   2.433   2.280   3.697 -0.0041  0.5478 -0.1291
 1970SOL    HW1 6809   2.438   2.376   3.725 -0.8982  1.2514 -2.1420
 1970SOL    HW2 6810   2.519   2.254   3.653  0.3064  0.3651  0.5837
 1971SOL     OW 6811   0.659   1.813   5.937  0.1520  0.2542 -0.3154
 1971SOL    HW1 6812   0.721   1.889   5.956 -0.6465  1.0998 -1.0074
 1971SOL    HW2 6813   0.567   1.835   5.969 -0.3806  0.1447 -1.6962
 1972SOL     OW 6814   0.635   5.939   3.536  1.0948 -0.3917  0.3562
 1972SOL    HW1 6815   0.686   5.862   3.574 -0.8324 -1.1782  1.5204
 1972SOL    HW2 6816   0.652   6.021   3.591  0.5536 -0.8339  1.2077
 1973SOL     OW 6817   3.619   3.675   5.829  0.1653 -0.2285  0.2874
 1973SOL    HW1 6818   3.651   3.581   5.836 -1.0354 -0.7328 -0.6607
 1973SOL    HW2 6819   3.554   3.683   5.753 -1.5345  0.8407  1.7582
 1974SOL     OW 6820   6.839   6.592   4.158 -0.2604  0.0803  0.6021
 1974SOL    HW1 6821   6.751   6.570   4.116 -0.6262 -0.2115  1.5003
 1974SOL    HW2 6822   6.883   6.666   4.106 -0.2807 -0.8605 -0.8099
 1975SOL     OW 6823   3.628   6.130   4.638  0.0613 -0.1149  0.0859
 1975SOL    HW1 6824   3.665   6.217   4.605 -0.0256  0.1614  0.7175
 1975SOL    HW2 6825   3.558   6.147   4.707  0.3317 -0.6973  0.5164
 1976SOL     OW 6826   6.126   4.307   5.271 -0.0220 -0.4940  0.1400
 1976SOL    HW1 6827   6.074   4.250   5.207 -1.9968  2.7444 -1.3690
 1976SOL    HW2 6828   6.074   4.319   5.355 -0.1252 -0.0024  0.0045
 1977SOL     OW 6829   2.576   2.571   5.203  0.3120  0.2182 -0.5889
 1977SOL    HW1 6830   2.557   2.473   5.215  0.0598  0.4628  1.2965
 1977SOL    HW2 6831   2.616   2.608   5.287  2.8677  1.2191 -2.1235
 1978SOL     OW 6832   0.276   2.549   6.159 -0.1529 -0.0060  0.5814
 1978SOL    HW1 6833   0.190   2.546   6.209 -1.6542  2.0187 -1.6516
 1978SOL    HW2 6834   0.344   2.600   6.211 -0.8291 -0.1560  1.6270
 1979SOL     OW 6835   1.247   5.996   1.024  0.9434  0.1444  0.3274
 1979SOL    HW1 6836   1.292   6.086   1.024  0.7033  0.2643  0.4311
 1979SOL    HW2 6837   1.177   5.994   1.095  1.6834 -0.4995  1.0515
 1980SOL     OW 6838   3.350   0.520   2.198  0.5559  0.6523 -0.4182
 1980SOL    HW1 6839   3.393   0.569   2.274  0.7162 -0.5556  0.2904
 1980SOL    HW2 6840   3.407   0.442   2.173 -1.8392 -1.8896  1.5092
 1981SOL     OW 6841   0.464   2.599   3.384 -0.9570  0.1988  0.5018
 1981SOL    HW1 6842   0.544   2.660   3.378  0.4355 -1.6078 -0.2260
 1981SOL    HW2 6843   0.494   2.504   3.377 -3.2192 -0.5410 -0.0406
 1982SOL     OW 6844   6.393   6.261   4.648  0.0449  0.2242 -0.7920
 1982SOL    HW1 6845   6.312   6.312   4.619  0.6210  1.4986 -0.2293
 1982SOL    HW2 6846   6.398   6.262   4.748  0.1995 -0.7515 -0.7831
 1983SOL     OW 6847   2.846   5.507   2.125 -0.7206  0.4890  0.8399
 1983SOL    HW1 6848   2.800   5.424   2.093 -1.4882  0.5440  1.7728
 1983SOL    HW2 6849   2.779   5.579   2.139 -0.0403  1.3211 -0.0791
 1984SOL     OW 6850   2.740   1.205   5.235 -0.1274  0.2542  0.2156
 1984SOL    HW1 6851   2.647   1.221   5.270 -1.5248 -1.2072 -2.4729
 1984SOL    HW2 6852   2.757   1.266   5.158  0.3864 -0.7251 -0.4741
 1985SOL     OW 6853   6.739   4.287   1.169 -0.0216 -0.2123 -0.2174
 1985SOL    HW1 6854   6.752   4.256   1.075 -1.0573 -0.4162 -0.3060
 1985SOL    HW2 6855   6.803   4.362   1.189 -1.8765  2.0267 -2.1290
 1986SOL     OW 6856   4.272   1.140   1.881 -0.6025  0.0367 -0.4439
 1986SOL    HW1 6857   4.314   1.054   1.851 -0.2881  0.1679 -0.3788
 1986SOL    HW2 6858   4.176   1.142   1.852 -1.0301 -0.9629  0.7685
 1987SOL     OW 6859   1.157   2.925   0.073 -0.0069 -0.0339  0.1695
 1987SOL    HW1 6860   1.219   2.867   0.126  2.6690  1.5744 -1.0206
 1987SOL    HW2 6861   1.115   2.871   0.000  1.4698 -0.8075 -0.1531
 1988SOL     OW 6862   4.298   0.765   0.980 -0.5483  0.1193  0.2364
 1988SOL    HW1 6863   4.253   0.790   1.065 -0.7249  0.1095  0.1484
 1988SOL    HW2 6864   4.228   0.746   0.910 -0.4113 -0.1516  0.1708
 1989SOL     OW 6865   2.760   1.731   2.645  0.3634 -0.0077  0.9113
 1989SOL    HW1 6866   2.843   1.779   2.617  0.6036 -0.9508 -0.0558
 1989SOL    HW2 6867   2.724   1.679   2.568 -0.5342 -0.4636  1.6185
 1990SOL     OW 6868   6.829   6.993   2.568  0.0661 -0.5803 -0.1215
 1990SOL    HW1 6869   6.790   7.044   2.491 -0.0670  0.1810  0.4413
 1990SOL    HW2 6870   6.775   7.011   2.650  0.9719 -0.3688  0.4332
 1991SOL     OW 6871   4.413   5.887   2.997  0.4614  0.3434  0.2493
 1991SOL    HW1 6872   4.421   5.820   2.923  0.7696  1.1999 -0.5134
 1991SOL    HW2 6873   4.355   5.963   2.967 -0.1707  0.2672  1.2273
 1992SOL     OW 6874   2.778   0.883   5.479  0.7903  0.0632 -0.0428
 1992SOL    HW1 6875   2.849   0.907   5.413 -1.1515 -0.0638 -2.3172
 1992SOL    HW2 6876   2.736   0.967   5.514 -0.0686  0.1453 -1.2051
 1993SOL     OW 6877   3.234   4.005   2.528  0.1275  0.2072 -0.0472
 1993SOL    HW1 6878   3.135   4.014   2.540  0.0789 -0.6248  0.2497
 1993SOL    HW2 6879   3.262   3.912   2.553  0.7175 -0.1608 -1.9820
 1994SOL     OW 6880   6.514   4.168   0.647 -0.0180  0.3936  0.0374
 1994SOL    HW1 6881   6.443   4.158   0.717 -1.7673  0.9214 -1.5571
 1994SOL    HW2 6882   6.538   4.264   0.638 -0.2900  0.4176 -0.5007
 1995SOL     OW 6883   3.559   2.880   2.145  0.7401 -0.5106 -0.2939
 1995SOL    HW1 6884   3.461   2.864   2.158  0.6080 -0.1819 -0.8323
 1995SOL    HW2 6885   3.590   2.832   2.063  1.0004 -0.4969 -0.2054
 1996SOL     OW 6886   1.746   4.834   0.124 -0.0410  0.3476  0.1110
 1996SOL    HW1 6887   1.833   4.860   0.165 -0.2752  0.5737  0.4708
 1996SOL    HW2 6888   1.728   4.737   0.143  1.9846 -0.8786 -3.2479
 1997SOL     OW 6889   6.315   5.499   4.030 -0.2571 -0.5635  0.0598
 1997SOL    HW1 6890   6.288   5.408   3.999 -1.0865 -0.2762 -0.0745
 1997SOL    HW2 6891   6.368   5.544   3.957 -0.7200 -0.5520 -0.2712
 1998SOL     OW 6892   3.145   5.359   6.158  0.2190  0.2458 -0.3532
 1998SOL    HW1 6893   3.112   5.361   6.064 -0.2210 -0.9170 -0.2371
 1998SOL    HW2 6894   3.159   5.453   6.190 -1.9003  0.7547 -0.7883
 1999SOL     OW 6895   4.155   0.050   2.053 -0.5435  0.0523 -0.6911
 1999SOL    HW1 6896   4.114   0.077   1.966 -0.0312  0.3026 -0.8604
 1999SOL    HW2 6897   4.245   0.093   2.063 -2.0571  3.0154  1.6074
 2000SOL     OW 6898   5.143   6.612   4.920 -0.3392  0.7362 -0.4711
 2000SOL    HW1 6899   5.159   6.600   4.822  0.9446  1.1276 -0.3395
 2000SOL    HW2 6900   5.187   6.538   4.971 -1.8556 -0.0229 -0.2211
 2001SOL     OW 6901   3.775   2.759   0.202  0.1859 -0.0552  0.1353
 2001SOL    HW1 6902   3.869   2.731   0.183 -0.7178 -2.8411 -0.6679
 2001SOL    HW2 6903   3.769   2.859   0.200  2.9146  0.1731 -0.6602
 2002SOL     OW 6904   2.945   5.035   2.980 -0.0102  0.0496  0.6041
 2002SOL    HW1 6905   2.996   4.958   2.940 -0.4368 -0.2710  0.6633
 2002SOL    HW2 6906   2.877   4.999   3.044 -0.3145  0.4708  0.5163
 2003SOL     OW 6907   6.870   4.775   3.365  0.1030  0.0675 -0.1253
 2003SOL    HW1 6908   6.888   4.799   3.270 -1.9559  0.5702 -0.4218
 2003SOL    HW2 6909   6.858   4.676   3.374 -0.8830  0.1440 -0.5990
 2004SOL     OW 6910   4.112   6.430   5.935  0.3410  0.1850 -0.3604
 2004SOL    HW1 6911   4.059   6.353   5.970  1.3125 -1.2344 -1.8839
 2004SOL    HW2 6912   4.176   6.461   6.005  0.7314 -1.1544 -0.1033
 2005SOL     OW 6913   2.101   6.607   5.553  0.5450 -0.3393 -0.5630
 2005SOL    HW1 6914   2.016   6.646   5.589  0.2360 -0.6988 -0.8909
 2005SOL    HW2 6915   2.081   6.521   5.507  0.9067  0.1418 -1.6756
 2006SOL     OW 6916   4.649   0.319   1.922 -0.2168 -0.5473  0.0598
 2006SOL    HW1 6917   4.553   0.345   1.913 -0.1754 -0.7082 -1.1285
 2006SOL    HW2 6918   4.705   0.380   1.866  0.6399  0.8436  2.3226
 2007SOL     OW 6919   5.997   5.738   0.438  0.5320 -0.3584 -0.7602
 2007SOL    HW1 6920   6.059   5.817   0.440  0.0978 -0.0141 -0.5854
 2007SOL    HW2 6921   6.003   5.689   0.525  1.6873 -1.2263 -1.3106
 2008SOL     OW 6922   6.666   5.912   5.191 -0.1797 -0.6396 -0.2198
 2008SOL    HW1 6923   6.670   6.012   5.193 -2.3935 -0.5237  0.1226
 2008SOL    HW2 6924   6.747   5.877   5.144 -0.9129  1.4827 -3.3535
 2009SOL     OW 6925   0.766   1.451   0.335 -0.1606  0.3915  0.0470
 2009SOL    HW1 6926   0.812   1.503   0.262 -0.4401 -0.8836 -1.0784
 2009SOL    HW2 6927   0.715   1.514   0.393  2.0418  1.7175  0.6467
 2010SOL     OW 6928   3.207   1.461   3.507 -0.6356  0.1423  0.7077
 2010SOL    HW1 6929   3.238   1.376   3.465 -3.7392 -0.8136  0.0955
 2010SOL    HW2 6930   3.274   1.533   3.491  0.4740 -1.3322 -1.8001
 2011SOL     OW 6931   1.274   2.433   3.126 -0.1133 -0.5853  0.0456
 2011SOL    HW1 6932   1.239   2.381   3.048 -1.1095 -2.2203  1.5090
 2011SOL    HW2 6933   1.373   2.438   3.122 -0.0782 -1.6581 -0.7082
 2012SOL     OW 6934   6.426   2.460   1.308  0.5766 -0.5791  0.1243
 2012SOL    HW1 6935   6.437   2.428   1.214  1.5398 -1.5539  0.5500
 2012SOL    HW2 6936   6.515   2.490   1.344 -0.1242  1.7715  0.0576
 2013SOL     OW 6937   4.076   1.280   1.069  0.1064  0.7473  0.1597
 2013SOL    HW1 6938   4.019   1.359   1.051 -0.8002 -0.0139 -0.4135
 2013SOL    HW2 6939   4.024   1.196   1.052  1.2190  0.0264  0.1596
 2014SOL     OW 6940   5.163   3.944   1.543  0.6377 -1.2262  0.7077
 2014SOL    HW1 6941   5.077   3.902   1.514 -0.2831  0.2143  1.2229
 2014SOL    HW2 6942   5.159   3.964   1.641  0.9726  0.1299  0.4723
 2015SOL     OW 6943   2.859   6.794   1.342  0.7843  0.3931  0.4004
 2015SOL    HW1 6944   2.895   6.838   1.424  0.1455  0.3833  0.6943
 2015SOL    HW2 6945   2.855   6.695   1.356  0.1010  0.4399  0.6019
 2016SOL     OW 6946   5.946   4.792   5.811  0.5504  0.4682 -0.0044
 2016SOL    HW1 6947   5.870   4.744   5.855 -0.7047  2.3249 -0.0374
 2016SOL    HW2 6948   6.010   4.825   5.881  0.6141  0.0836  0.1210
 2017SOL     OW 6949   3.199   6.253   1.979  0.1367  0.1527 -0.7143
 2017SOL    HW1 6950   3.188   6.206   2.067 -1.8190  0.2408 -0.8856
 2017SOL    HW2 6951   3.184   6.188   1.905  0.8318  0.2998 -0.9930
 2018SOL     OW 6952   1.016   4.643   4.510  0.4179 -0.4828 -0.0820
 2018SOL    HW1 6953   1.007   4.718   4.575 -0.8949  0.5752 -1.4157
 2018SOL    HW2 6954   0.961   4.565   4.541  0.5088 -0.3078  0.5215
 2019SOL     OW 6955   6.241   1.214   1.190  0.5380  0.0002  0.0119
 2019SOL    HW1 6956   6.231   1.312   1.208  2.3786 -0.1805  2.4610
 2019SOL    HW2 6957   6.332   1.196   1.152  0.7717 -0.9135  0.9822
 2020SOL     OW 6958   2.106   4.732   1.432 -0.1746  0.0463 -0.8318
 2020SOL    HW1 6959   2.030   4.793   1.453  0.9435  0.6830  1.9464
 2020SOL    HW2 6960   2.182   4.785   1.394  0.2600  0.1909  0.1831
 2021SOL     OW 6961   2.031   5.092   0.754  0.6484 -0.5268 -0.0506
 2021SOL    HW1 6962   2.019   5.191   0.747 -0.0556 -0.5854  0.1906
 2021SOL    HW2 6963   2.128   5.069   0.748  0.7272  0.0720 -1.2831
 2022SOL     OW 6964   3.290   6.220   0.500 -0.4439  0.1301 -0.3461
 2022SOL    HW1 6965   3.289   6.316   0.472  1.2536  0.2843 -0.0078
 2022SOL    HW2 6966   3.201   6.195   0.539 -0.7915  1.6541 -0.1070
 2023SOL     OW 6967   6.545   2.426   5.023  0.8214 -0.1107 -0.1927
 2023SOL    HW1 6968   6.585   2.336   5.006  1.4044  0.1960 -0.4893
 2023SOL    HW2 6969   6.572   2.489   4.950  1.3203  0.5817  0.5705
 2024SOL     OW 6970   5.717   5.161   4.111 -0.4847 -0.1521  0.6620
 2024SOL    HW1 6971   5.761   5.217   4.181  0.2413  0.6078 -0.3783
 2024SOL    HW2 6972   5.786   5.125   4.049 -0.9554 -2.1357  1.2371
 2025SOL     OW 6973   5.615   6.525   2.159 -0.3019  0.2368 -0.6856
 2025SOL    HW1 6974   5.532   6.518   2.103  0.2572  1.2029 -1.6559
 2025SOL    HW2 6975   5.614   6.452   2.228 -0.7942 -1.2783 -2.2192
 2026SOL     OW 6976   2.623   2.760   6.271  0.1654 -0.9625  0.0403
 2026SOL    HW1 6977   2.594   2.720   6.357 -0.3659 -0.9602 -0.1340
 2026SOL    HW2 6978   2.680   2.695   6.220  1.0247 -0.7287  0.6735
 2027SOL     OW 6979   6.730   1.051   1.819 -0.0721  0.5502 -0.0969
 2027SOL    HW1 6980   6.769   1.110   1.748 -1.0482  1.2072 -0.1053
 2027SOL    HW2 6981   6.676   0.979   1.777  0.8942 -0.2199 -0.0739
 2028SOL     OW 6982   3.881   4.493   5.686  0.1450 -0.7145 -0.5627
 2028SOL    HW1 6983   3.909   4.542   5.604 -0.1766  1.3080  0.4872
 2028SOL    HW2 6984   3.941   4.517   5.762 -1.8661  0.5488  0.7250
 2029SOL     OW 6985   2.858   1.527   5.179 -0.8261  0.1210  0.0149
 2029SOL    HW1 6986   2.952   1.504   5.205 -1.1050 -2.3734 -0.8497
 2029SOL    HW2 6987   2.858   1.608   5.121  0.9944 -0.7302 -1.2759
 2030SOL     OW 6988   1.455   1.789   2.170 -0.0465  0.1622 -0.7529
 2030SOL    HW1 6989   1.370   1.820   2.212  0.0900  1.2794 -1.2509
 2030SOL    HW2 6990   1.504   1.868   2.132  0.8436 -0.5564 -1.1460
 2031SOL     OW 6991   6.545   0.411   3.755 -0.0881  0.8174 -0.1431
 2031SOL    HW1 6992   6.619   0.367   3.807 -1.5298 -1.0444  0.4485
 2031SOL    HW2 6993   6.461   0.358   3.766 -1.3637  2.4976 -1.3566
 2032SOL     OW 6994   4.963   5.055   3.826  0.2541  0.5142  0.4269
 2032SOL    HW1 6995   4.984   4.966   3.785  0.6623  0.3952  0.8970
 2032SOL    HW2 6996   4.885   5.045   3.887 -0.3975  0.7045 -0.3534
 2033SOL     OW 6997   1.207   4.180   0.549 -0.5219 -0.3395 -0.1829
 2033SOL    HW1 6998   1.236   4.251   0.613  1.4057 -1.6034  0.4233
 2033SOL    HW2 6999   1.128   4.131   0.587 -0.8255  0.3972  0.1499
 2034SOL     OW 7000   3.101   6.900   4.560  0.1025 -0.1401 -0.1680
 2034SOL    HW1 7001   3.013   6.873   4.520 -0.2304  0.2052  0.3302
 2034SOL    HW2 7002   3.149   6.960   4.496  0.9721 -2.0606 -1.4189
 2035SOL     OW 7003   0.391   0.305   2.871 -0.0266  0.7249 -0.3543
 2035SOL    HW1 7004   0.432   0.221   2.909 -2.0119  1.0787  2.9654
 2035SOL    HW2 7005   0.459   0.378   2.871  0.6477  0.1183  0.5565
 2036SOL     OW 7006   0.355   4.081   1.838 -0.0316 -0.0198 -0.1011
 2036SOL    HW1 7007   0.416   4.160   1.849 -0.6300  0.3733  0.4627
 2036SOL    HW2 7008   0.286   4.103   1.769 -0.0723 -0.1311 -0.0954
 2037SOL     OW 7009   0.438   3.953   5.043 -0.3161 -0.3059  0.3819
 2037SOL    HW1 7010   0.420   3.930   5.139 -0.1561 -0.6684  0.3267
 2037SOL    HW2 7011   0.362   4.008   5.007 -0.2084  0.1315  0.8159
 2038SOL     OW 7012   2.360   0.692   6.074 -0.2065  0.0046  0.1572
 2038SOL    HW1 7013   2.327   0.731   5.988 -0.1882 -2.5252 -1.0877
 2038SOL    HW2 7014   2.441   0.636   6.056  0.1835 -0.0535  1.9460
 2039SOL     OW 7015   2.084   5.082   3.638 -0.7562 -0.3661  0.4724
 2039SOL    HW1 7016   2.062   5.036   3.552  0.7112 -2.3307  1.0704
 2039SOL    HW2 7017   2.154   5.152   3.622 -1.5074  0.2686 -0.1241
 2040SOL     OW 7018   3.589   3.667   4.084 -0.3000 -0.1157 -0.0277
 2040SOL    HW1 7019   3.612   3.648   4.180 -0.7063  0.2173  0.1398
 2040SOL    HW2 7020   3.511   3.611   4.057  0.0995 -0.5432 -0.3044
 2041SOL     OW 7021   4.488   3.085   6.740  0.0455 -0.0465  0.3381
 2041SOL    HW1 7022   4.470   2.992   6.772  1.8521 -0.2459  0.9090
 2041SOL    HW2 7023   4.581   3.112   6.766  0.3290  1.1304 -1.6329
 2042SOL     OW 7024   5.539   6.050   1.203  0.1187 -0.1441  0.2700
 2042SOL    HW1 7025   5.510   5.993   1.127  0.3279  0.1197 -0.0118
 2042SOL    HW2 7026   5.560   6.142   1.169 -0.9948  0.3406  0.8301
 2043SOL     OW 7027   4.795   6.340   3.765 -0.4332 -0.0311 -0.3102
 2043SOL    HW1 7028   4.748   6.257   3.735  1.6000 -1.0064 -1.0352
 2043SOL    HW2 7029   4.793   6.344   3.865 -2.2611  0.1370 -0.3229
 2044SOL     OW 7030   6.441   1.513   3.828 -0.2251  0.1193  0.1890
 2044SOL    HW1 7031   6.368   1.534   3.894  0.1261 -1.3238  1.0843
 2044SOL    HW2 7032   6.401   1.480   3.743 -0.6715  1.5592 -0.1825
 2045SOL     OW 7033   2.847   1.327   6.204 -0.3229 -0.1449 -0.0299
 2045SOL    HW1 7034   2.769   1.266   6.194  0.1233 -0.4261 -2.5260
 2045SOL    HW2 7035   2.871   1.336   6.301 -1.4669 -2.5480  0.5461
 2046SOL     OW 7036   6.533   1.319   5.816 -0.3879  0.0276 -0.3978
 2046SOL    HW1 7037   6.557   1.393   5.879 -0.5884 -0.5696  0.3950
 2046SOL    HW2 7038   6.599   1.244   5.826 -0.6036 -0.2005 -0.6650
 2047SOL     OW 7039   4.174   4.130   0.477 -0.0098 -0.6855 -0.1149
 2047SOL    HW1 7040   4.245   4.097   0.539 -0.4975  0.7266  1.2479
 2047SOL    HW2 7041   4.137   4.053   0.425  0.2411 -1.9767  1.5326
 2048SOL     OW 7042   5.394   0.502   6.358  0.0725 -0.2341  0.0420
 2048SOL    HW1 7043   5.331   0.577   6.379 -0.1178  0.4204 -2.5781
 2048SOL    HW2 7044   5.482   0.520   6.401 -0.2863  0.9770  0.3080
 2049SOL     OW 7045   0.084   5.502   6.443 -0.2748 -0.0298  0.3404
 2049SOL    HW1 7046   0.101   5.404   6.451  1.7233  0.0227 -2.1328
 2049SOL    HW2 7047   0.024   5.520   6.365  0.9880  0.7969 -0.4776
 2050SOL     OW 7048   6.418   1.279   3.256 -0.2924  0.1151  0.7431
 2050SOL    HW1 7049   6.397   1.225   3.338 -1.4361 -1.2554 -0.3891
 2050SOL    HW2 7050   6.355   1.253   3.183 -1.4894  3.6222  0.3413
 2051SOL     OW 7051   3.499   4.201   0.916  0.5607 -0.1530 -0.3561
 2051SOL    HW1 7052   3.537   4.147   0.840  0.9198 -1.3340  0.6308
 2051SOL    HW2 7053   3.403   4.222   0.896  0.5896 -0.6247 -1.0553
 2052SOL     OW 7054   1.772   2.034   2.071  0.0951  0.6377 -0.2675
 2052SOL    HW1 7055   1.832   1.956   2.059 -0.4433  0.1232  0.3484
 2052SOL    HW2 7056   1.813   2.115   2.028  0.3027 -0.1414 -1.6081
 2053SOL     OW 7057   5.773   0.810   0.272  0.5723  0.2735 -0.0159
 2053SOL    HW1 7058   5.722   0.826   0.357 -0.4758  2.3816 -0.9571
 2053SOL    HW2 7059   5.741   0.725   0.230  0.6509 -0.4596  1.3724
 2054SOL     OW 7060   0.083   2.862   1.981 -0.1371 -0.3319 -0.0727
 2054SOL    HW1 7061   0.162   2.907   2.022  0.4071  0.8096 -2.2479
 2054SOL    HW2 7062   0.016   2.930   1.953 -0.9862 -1.1524 -0.1127
 2055SOL     OW 7063   0.284   0.591   0.371 -0.2163  0.4673  0.6020
 2055SOL    HW1 7064   0.262   0.596   0.274  0.2354  2.5638  0.5578
 2055SOL    HW2 7065   0.243   0.508   0.411  0.4483 -0.9730 -1.5441
 2056SOL     OW 7066   0.982   1.569   3.413 -0.1622  0.6212 -0.3957
 2056SOL    HW1 7067   1.037   1.490   3.386 -0.1420  0.4620  0.1046
 2056SOL    HW2 7068   1.040   1.650   3.419  0.5955 -0.0170  2.5985
 2057SOL     OW 7069   5.353   3.760   4.851 -0.1278  0.2301 -0.6212
 2057SOL    HW1 7070   5.293   3.683   4.831  0.4824 -0.5033  0.3020
 2057SOL    HW2 7071   5.434   3.756   4.793  0.4471 -0.4911  0.1955
 2058SOL     OW 7072   0.302   0.765   1.067 -0.3798 -0.4914 -0.0770
 2058SOL    HW1 7073   0.332   0.670   1.068 -1.2138 -0.7633 -0.7140
 2058SOL    HW2 7074   0.342   0.812   0.988 -0.4162 -0.4549 -0.0735
 2059SOL     OW 7075   2.136   0.244   6.015  0.2843 -0.1392  0.0773
 2059SOL    HW1 7076   2.073   0.310   6.056 -0.6248 -1.5410  1.0108
 2059SOL    HW2 7077   2.149   0.266   5.918 -1.3478  0.3828 -0.0445
 2060SOL     OW 7078   0.901   5.510   2.647 -0.2144  0.0953 -0.2533
 2060SOL    HW1 7079   0.955   5.435   2.609 -0.1104  0.4710 -0.8508
 2060SOL    HW2 7080   0.902   5.588   2.584 -0.7328  0.4207  0.1327
 2061SOL     OW 7081   1.762   0.468   0.323  0.4750  0.7451  0.2358
 2061SOL    HW1 7082   1.749   0.536   0.251 -1.5112 -1.4160 -1.6054
 2061SOL    HW2 7083   1.859   0.445   0.330  0.6422  0.2099 -2.6653
 2062SOL     OW 7084   4.035   0.778   3.602 -0.3186  0.3926  0.7323
 2062SOL    HW1 7085   4.051   0.859   3.658  0.9433  0.2372  0.6230
 2062SOL    HW2 7086   4.110   0.713   3.614 -0.4675 -0.0338 -0.4502
 2063SOL     OW 7087   2.796   3.376   1.597 -0.0482 -0.4988 -0.3588
 2063SOL    HW1 7088   2.875   3.315   1.605  1.8116  1.6982 -0.9890
 2063SOL    HW2 7089   2.775   3.391   1.501 -0.6660 -0.3373 -0.2052
 2064SOL     OW 7090   0.913   2.606   6.588 -0.1348 -0.2336  0.1298
 2064SOL    HW1 7091   0.995   2.646   6.546  0.1668 -0.7968  0.1785
 2064SOL    HW2 7092   0.833   2.630   6.534  0.1104 -0.0033 -0.1348
 2065SOL     OW 7093   0.400   4.927   3.077  0.1878 -0.0887  0.1457
 2065SOL    HW1 7094   0.406   4.961   2.983 -2.4607  0.8766  0.2184
 2065SOL    HW2 7095   0.401   4.827   3.077  1.2277 -0.0869 -0.8012
 2066SOL     OW 7096   6.231   6.652   3.747 -0.2436  0.0033 -0.0222
 2066SOL    HW1 7097   6.229   6.725   3.679  1.8963  1.1296  1.0237
 2066SOL    HW2 7098   6.286   6.576   3.713  0.4372  0.3706  0.2401
 2067SOL     OW 7099   0.950   1.435   2.460  0.1793  0.3850 -0.6206
 2067SOL    HW1 7100   0.851   1.422   2.464 -0.2209  2.7517 -1.5149
 2067SOL    HW2 7101   0.984   1.407   2.370  0.1459  0.6620 -0.7185
 2068SOL     OW 7102   2.824   2.145   3.341  0.0140 -0.2631 -0.3636
 2068SOL    HW1 7103   2.835   2.173   3.246  2.5556  0.0952 -0.0338
 2068SOL    HW2 7104   2.913   2.115   3.377 -1.1349 -1.5579  1.5431
 2069SOL     OW 7105   2.278   2.155   6.226  0.0654 -0.1944  0.0900
 2069SOL    HW1 7106   2.259   2.079   6.164  0.0105 -1.1535  1.2416
 2069SOL    HW2 7107   2.376   2.173   6.229  0.1195 -0.4813  0.0897
 2070SOL     OW 7108   6.455   1.695   3.058 -0.5503 -0.2013  0.8533
 2070SOL    HW1 7109   6.479   1.630   3.130 -1.0176  0.9738  2.1192
 2070SOL    HW2 7110   6.536   1.750   3.035 -0.3932 -0.5967  0.4634
 2071SOL     OW 7111   3.124   7.005   5.977  0.5273  0.8780  0.2206
 2071SOL    HW1 7112   3.093   6.918   5.938  0.2126  0.6995  0.8500
 2071SOL    HW2 7113   3.222   7.016   5.961  0.3886  0.8494 -0.6902
 2072SOL     OW 7114   4.269   4.756   2.680 -0.6575  0.1671 -0.8437
 2072SOL    HW1 7115   4.291   4.707   2.595 -0.7132  2.2008 -2.1134
 2072SOL    HW2 7116   4.342   4.822   2.700 -2.2493  2.1770 -1.3107
 2073SOL     OW 7117   1.477   0.330   3.954 -0.0095  0.5989  0.0614
 2073SOL    HW1 7118   1.465   0.237   3.987  1.3340  0.7911  1.1741
 2073SOL    HW2 7119   1.477   0.394   4.031 -3.3574  1.8735 -0.8389
 2074SOL     OW 7120   6.243   0.799   3.775  0.3674  0.2238 -0.3440
 2074SOL    HW1 7121   6.325   0.814   3.718  0.2251 -1.0729 -0.9343
 2074SOL    HW2 7122   6.265   0.819   3.870  1.8956 -1.6159 -0.2352
 2075SOL     OW 7123   4.249   3.318   5.811  0.1661 -0.0063 -0.3354
 2075SOL    HW1 7124   4.335   3.275   5.782 -0.1496  0.0616 -1.3970
 2075SOL    HW2 7125   4.226   3.392   5.748 -0.1900  0.5991  0.4858
 2076SOL     OW 7126   3.755   0.701   1.389 -0.5062  0.4973 -0.3009
 2076SOL    HW1 7127   3.763   0.768   1.315 -0.4212  0.9129  0.0715
 2076SOL    HW2 7128   3.847   0.676   1.421 -0.5352  0.0606 -0.5651
 2077SOL     OW 7129   2.656   1.873   3.686 -0.6157 -0.2911  0.5992
 2077SOL    HW1 7130   2.750   1.840   3.682  0.3289  2.3516 -1.1445
 2077SOL    HW2 7131   2.644   1.931   3.767 -0.3693  0.3913  0.1501
 2078SOL     OW 7132   3.109   6.582   4.770  0.3501  0.3947 -0.1021
 2078SOL    HW1 7133   3.060   6.504   4.732 -0.9807  0.5809  1.1553
 2078SOL    HW2 7134   3.194   6.596   4.719 -1.1632  0.4461 -2.7643
 2079SOL     OW 7135   5.644   5.837   3.643  0.0571  0.3607  0.3168
 2079SOL    HW1 7136   5.685   5.763   3.591 -1.9092 -0.4516 -0.1504
 2079SOL    HW2 7137   5.711   5.911   3.654  2.1250 -1.4821  0.9092
 2080SOL     OW 7138   2.265   2.179   2.767 -0.3013 -0.4834  0.2721
 2080SOL    HW1 7139   2.242   2.270   2.734 -0.4176 -0.7994 -0.5262
 2080SOL    HW2 7140   2.322   2.132   2.700 -1.0746 -1.3696  0.2124
 2081SOL     OW 7141   6.855   4.892   2.339  0.0821 -0.5129  0.4231
 2081SOL    HW1 7142   6.819   4.803   2.366 -1.4555  0.2242  0.9121
 2081SOL    HW2 7143   6.779   4.954   2.318  1.1150  0.6826  0.0924
 2082SOL     OW 7144   4.605   6.521   3.220 -0.3325  0.4401 -0.1780
 2082SOL    HW1 7145   4.667   6.459   3.269 -0.3597 -0.1189 -0.8278
 2082SOL    HW2 7146   4.657   6.573   3.152 -0.5548  0.0259 -0.6711
 2083SOL     OW 7147   3.200   4.645   5.586 -0.0109 -0.3626 -0.0817
 2083SOL    HW1 7148   3.296   4.670   5.571 -0.1940 -0.1414 -0.9054
 2083SOL    HW2 7149   3.153   4.639   5.499 -0.6782 -0.7816  0.3003
 2084SOL     OW 7150   6.280   1.814   5.423  0.0218 -0.0510  0.2279
 2084SOL    HW1 7151   6.307   1.718   5.428 -2.1987 -0.7185  0.4819
 2084SOL    HW2 7152   6.283   1.854   5.515 -2.3922 -0.9366  0.7731
 2085SOL     OW 7153   0.174   0.683   6.720  0.5066  0.1260  0.2041
 2085SOL    HW1 7154   0.112   0.725   6.654  0.0712  0.6159  0.9156
 2085SOL    HW2 7155   0.230   0.613   6.674  0.6068  0.8502 -0.7896
 2086SOL     OW 7156   4.800   4.663   6.427 -0.7518 -0.3416 -0.3281
 2086SOL    HW1 7157   4.840   4.751   6.454  0.1379  0.3553 -3.5378
 2086SOL    HW2 7158   4.730   4.636   6.494  0.8253  1.4202  2.1849
 2087SOL     OW 7159   6.334   4.880   2.961 -0.1741 -0.1273 -0.2233
 2087SOL    HW1 7160   6.422   4.916   2.931  0.0980  0.2450  0.9518
 2087SOL    HW2 7161   6.346   4.788   2.998 -0.3635 -0.2649 -0.5002
 2088SOL     OW 7162   1.239   0.398   1.405  0.4217 -0.1034  0.8700
 2088SOL    HW1 7163   1.313   0.365   1.462 -0.4690 -2.6282  0.6995
 2088SOL    HW2 7164   1.193   0.321   1.362 -0.4591  1.5467 -1.3881
 2089SOL     OW 7165   1.442   0.791   4.780  0.2165 -0.5353  0.1879
 2089SOL    HW1 7166   1.467   0.721   4.713 -2.5406 -0.4756 -1.0277
 2089SOL    HW2 7167   1.357   0.835   4.752  0.4927  1.5069  2.2990
 2090SOL     OW 7168   3.889   4.229   5.217  0.3758  0.3212  0.0077
 2090SOL    HW1 7169   3.883   4.138   5.177  1.5742 -0.1531  0.8674
 2090SOL    HW2 7170   3.803   4.250   5.264  0.0199 -0.2699 -0.3687
 2091SOL     OW 7171   1.786   2.741   1.674 -0.3149  0.5212 -0.9513
 2091SOL    HW1 7172   1.743   2.776   1.591 -1.4773  2.9192  0.5689
 2091SOL    HW2 7173   1.818   2.817   1.730  3.0200 -1.0729 -0.4257
 2092SOL     OW 7174   4.974   0.787   2.227 -0.0506  1.0199  0.0022
 2092SOL    HW1 7175   4.917   0.836   2.293 -1.7021 -2.3177  1.2969
 2092SOL    HW2 7176   4.919   0.759   2.149 -0.2063 -1.7742  1.0090
 2093SOL     OW 7177   1.133   2.688   1.357  0.7661 -0.4936 -0.2482
 2093SOL    HW1 7178   1.064   2.617   1.368  0.5832 -0.5083 -1.3290
 2093SOL    HW2 7179   1.185   2.698   1.442 -0.9727 -0.0256  0.7949
 2094SOL     OW 7180   1.755   1.423   2.980 -0.7040 -0.1198 -0.0441
 2094SOL    HW1 7181   1.830   1.358   2.971  0.1273  0.4308  2.1660
 2094SOL    HW2 7182   1.780   1.509   2.935 -0.7388 -0.4829 -0.7688
 2095SOL     OW 7183   5.990   3.352   4.625 -0.1514 -0.5013 -0.2515
 2095SOL    HW1 7184   6.085   3.359   4.594  0.0031 -0.5534  0.1982
 2095SOL    HW2 7185   5.987   3.297   4.708 -0.4943  0.0190  0.0861
 2096SOL     OW 7186   5.934   3.773   4.092  0.1050 -0.1781  0.1395
 2096SOL    HW1 7187   5.967   3.862   4.060  0.2896 -1.1383 -2.6300
 2096SOL    HW2 7188   5.883   3.785   4.177 -2.1737  3.0131 -1.4525
 2097SOL     OW 7189   0.996   4.126   5.407  0.1997  0.0615  0.5691
 2097SOL    HW1 7190   0.908   4.167   5.434 -0.9649 -0.4556 -2.1589
 2097SOL    HW2 7191   0.991   4.027   5.417 -0.2763 -0.1451 -1.4499
 2098SOL     OW 7192   4.928   5.139   3.543  0.3347  0.7282 -0.2832
 2098SOL    HW1 7193   4.918   5.136   3.642  0.6822  0.0408 -0.2645
 2098SOL    HW2 7194   4.990   5.214   3.518  2.2245 -0.5824  0.2090
 2099SOL     OW 7195   2.578   2.008   3.445  0.3541 -0.3393 -0.3086
 2099SOL    HW1 7196   2.608   1.967   3.531 -0.1180 -0.8500 -0.3807
 2099SOL    HW2 7197   2.636   2.087   3.423  0.6495 -0.3740  0.3330
 2100SOL     OW 7198   5.120   3.824   0.426  0.1061  0.2716  0.1248
 2100SOL    HW1 7199   5.155   3.825   0.520 -1.5793  4.0571  0.8834
 2100SOL    HW2 7200   5.129   3.915   0.386 -1.3243 -0.6839 -2.5830
 2101SOL     OW 7201   5.107   6.844   2.638 -0.0221 -0.4862 -0.1581
 2101SOL    HW1 7202   5.112   6.914   2.567 -2.7589 -0.0941 -0.1069
 2101SOL    HW2 7203   5.157   6.875   2.719  2.9606 -0.8494 -1.7207
 2102SOL     OW 7204   0.828   5.324   0.528  0.8529 -0.3356  0.2704
 2102SOL    HW1 7205   0.877   5.408   0.505  0.9756 -0.8073 -1.3279
 2102SOL    HW2 7206   0.876   5.246   0.488  0.0198 -1.0273  0.6075
 2103SOL     OW 7207   2.248   3.230   6.549 -0.9497  0.1381  0.2141
 2103SOL    HW1 7208   2.335   3.278   6.558 -1.0984  0.8699 -1.6648
 2103SOL    HW2 7209   2.251   3.170   6.469 -2.8449  1.8559 -1.2430
 2104SOL     OW 7210   6.488   4.666   6.041 -0.1284 -0.1844  0.1665
 2104SOL    HW1 7211   6.569   4.622   6.080 -0.3993  0.0968  1.0774
 2104SOL    HW2 7212   6.512   4.757   6.008 -0.6241  1.1913  3.2218
 2105SOL     OW 7213   2.705   0.037   0.946  0.1360 -0.1589  0.3999
 2105SOL    HW1 7214   2.743   0.007   0.859 -0.4368  0.3913 -0.0511
 2105SOL    HW2 7215   2.612   0.071   0.932 -0.5633 -1.5195  1.4944
 2106SOL     OW 7216   6.983   6.585   5.969  0.0192 -0.3367  0.7765
 2106SOL    HW1 7217   7.062   6.559   6.024 -1.0589 -0.9061  2.0771
 2106SOL    HW2 7218   6.903   6.599   6.027 -0.9351 -0.0328 -0.5416
 2107SOL     OW 7219   2.233   4.986   5.844  0.0437  0.1043 -0.7023
 2107SOL    HW1 7220   2.213   4.935   5.760 -0.8873 -0.1512 -0.3343
 2107SOL    HW2 7221   2.188   5.076   5.839  1.8332  1.0138 -1.4349
 2108SOL     OW 7222   6.095   6.459   6.711  0.0434 -0.0140  0.1050
 2108SOL    HW1 7223   6.002   6.494   6.695  0.0760  0.4348  0.8467
 2108SOL    HW2 7224   6.130   6.497   6.796  0.2473 -1.5485  0.7391
 2109SOL     OW 7225   5.302   6.625   2.151  0.4016 -0.1079 -0.3772
 2109SOL    HW1 7226   5.303   6.714   2.196 -0.7676 -0.8619  1.2566
 2109SOL    HW2 7227   5.239   6.627   2.073  0.0994  0.3864 -0.1238
 2110SOL     OW 7228   3.080   6.073   6.402  0.1417 -0.1965  0.2866
 2110SOL    HW1 7229   3.053   6.167   6.379 -0.1327  0.6606  3.5821
 2110SOL    HW2 7230   3.171   6.055   6.365  0.1678  1.3199 -0.4921
 2111SOL     OW 7231   1.631   1.773   5.544  0.2139  0.2236 -0.2465
 2111SOL    HW1 7232   1.717   1.819   5.567 -0.0585  0.5717  0.1026
 2111SOL    HW2 7233   1.645   1.674   5.543  0.2448  0.1724  1.5316
 2112SOL     OW 7234   3.075   4.619   6.664 -0.1207 -0.2379 -0.1156
 2112SOL    HW1 7235   2.977   4.637   6.660 -0.2064 -0.8507 -0.9913
 2112SOL    HW2 7236   3.102   4.600   6.758 -1.0167 -1.0027 -0.0037
 2113SOL     OW 7237   5.470   1.815   3.430 -0.3232  0.2812 -0.2234
 2113SOL    HW1 7238   5.540   1.785   3.495 -0.6906 -1.2230 -0.4803
 2113SOL    HW2 7239   5.511   1.824   3.339 -0.9931 -4.0172 -1.1777
 2114SOL     OW 7240   0.197   3.804   0.729  0.3851 -0.0192 -0.5943
 2114SOL    HW1 7241   0.190   3.897   0.694 -2.1525 -0.2158 -0.7665
 2114SOL    HW2 7242   0.161   3.801   0.822  0.0729 -0.8757 -0.7312
 2115SOL     OW 7243   3.811   5.987   2.268  0.4218 -0.6721 -0.4294
 2115SOL    HW1 7244   3.754   6.065   2.296  2.0213  0.2809  0.3597
 2115SOL    HW2 7245   3.869   6.015   2.192  0.7807 -1.2130 -0.3543
 2116SOL     OW 7246   2.026   4.473   3.078  0.2762 -0.0517 -0.3144
 2116SOL    HW1 7247   2.117   4.431   3.072  1.1510  1.8333 -0.7736
 2116SOL    HW2 7248   2.034   4.572   3.065 -1.8779  0.1294 -0.5194
 2117SOL     OW 7249   4.723   6.136   0.057 -0.3750 -0.0879 -0.0356
 2117SOL    HW1 7250   4.639   6.143   0.109  0.4595 -0.1024  1.3603
 2117SOL    HW2 7251   4.732   6.044   0.019 -0.7201 -0.2580  0.2942
 2118SOL     OW 7252   0.922   0.818   2.557  0.3608  0.0915 -0.3145
 2118SOL    HW1 7253   0.954   0.788   2.647 -0.2724 -0.4470 -0.2601
 2118SOL    HW2 7254   0.925   0.917   2.552 -1.4913  0.2567  1.0370
 2119SOL     OW 7255   4.054   6.951   0.532 -0.0174  0.4091  0.3205
 2119SOL    HW1 7256   4.034   6.959   0.434  0.6809  1.3177  0.2427
 2119SOL    HW2 7257   4.039   7.039   0.577  2.2039  0.7463  0.5315
 2120SOL     OW 7258   0.942   3.628   2.218  0.6450  0.3458  0.2781
 2120SOL    HW1 7259   0.945   3.720   2.256  0.7805  0.0986  0.8867
 2120SOL    HW2 7260   0.879   3.626   2.140  2.0422  1.3653 -0.9335
 2121SOL     OW 7261   1.668   3.434   3.728  0.1115  0.3517  0.5327
 2121SOL    HW1 7262   1.727   3.389   3.661  0.0300  0.8822  0.0975
 2121SOL    HW2 7263   1.572   3.416   3.707 -0.1493  3.5994 -1.8523
 2122SOL     OW 7264   4.210   6.439   3.875  0.1241 -0.0952  0.4191
 2122SOL    HW1 7265   4.305   6.408   3.881  0.8361  1.4334 -1.8953
 2122SOL    HW2 7266   4.160   6.380   3.812  0.6996  1.4873 -1.6293
 2123SOL     OW 7267   4.856   6.471   4.572  0.5242  0.2456  0.0957
 2123SOL    HW1 7268   4.800   6.396   4.607 -0.0783 -0.2819 -1.8541
 2123SOL    HW2 7269   4.944   6.472   4.619 -0.7942  0.6401  2.7208
 2124SOL     OW 7270   3.317   2.498   1.426 -0.1144  0.4785 -0.1973
 2124SOL    HW1 7271   3.383   2.521   1.354 -1.0579 -1.1193 -1.6727
 2124SOL    HW2 7272   3.226   2.490   1.385 -0.5120 -1.4877  0.9799
 2125SOL     OW 7273   5.433   0.243   0.339 -0.2536 -0.2825  0.3121
 2125SOL    HW1 7274   5.434   0.317   0.407 -0.9209  1.2124 -1.2378
 2125SOL    HW2 7275   5.380   0.166   0.375 -2.7728  1.4354  0.6040
 2126SOL     OW 7276   2.914   0.241   3.049 -0.4561 -0.0529  0.3980
 2126SOL    HW1 7277   2.972   0.302   3.103 -0.8422  0.5486  0.1446
 2126SOL    HW2 7278   2.921   0.266   2.952  2.4192 -2.8694 -0.2855
 2127SOL     OW 7279   5.969   3.419   4.217 -0.1597  0.2865 -0.0216
 2127SOL    HW1 7280   5.905   3.411   4.293 -0.5086 -2.5636 -0.5118
 2127SOL    HW2 7281   6.058   3.450   4.251 -0.4161 -0.5801  1.5071
 2128SOL     OW 7282   0.513   3.765   4.134 -0.4428 -0.2440  0.0832
 2128SOL    HW1 7283   0.516   3.672   4.169  1.5018 -0.4798 -0.5888
 2128SOL    HW2 7284   0.521   3.764   4.034  0.9708  0.6620  0.1590
 2129SOL     OW 7285   4.652   2.498   5.184  0.6064  0.4770  0.1250
 2129SOL    HW1 7286   4.637   2.491   5.085  1.3598 -0.3407  0.0488
 2129SOL    HW2 7287   4.645   2.594   5.212 -1.2857  0.5325 -0.4254
 2130SOL     OW 7288   6.098   4.179   2.890  0.0299  0.0150  0.4735
 2130SOL    HW1 7289   6.120   4.160   2.986  0.1202  0.6993  0.5922
 2130SOL    HW2 7290   6.027   4.115   2.859  1.9156 -2.0470  0.1583
 2131SOL     OW 7291   4.315   1.196   1.212 -0.1785 -0.1275 -0.1153
 2131SOL    HW1 7292   4.326   1.251   1.295 -0.6615  0.6411 -0.5583
 2131SOL    HW2 7293   4.237   1.229   1.159 -0.2041 -0.9553 -0.6144
 2132SOL     OW 7294   1.880   3.305   2.565  0.3384  0.1199 -0.1458
 2132SOL    HW1 7295   1.901   3.403   2.570 -0.5437  0.3128 -0.1165
 2132SOL    HW2 7296   1.792   3.292   2.520  0.1098 -0.6136  0.4857
 2133SOL     OW 7297   2.277   4.551   4.185 -0.1014  0.2647 -0.3538
 2133SOL    HW1 7298   2.248   4.475   4.126  0.5027 -2.5989  2.7286
 2133SOL    HW2 7299   2.196   4.602   4.215 -0.7190 -0.2729 -1.0643
 2134SOL     OW 7300   1.309   0.692   0.552  0.0525 -0.3707 -0.1177
 2134SOL    HW1 7301   1.357   0.761   0.608 -0.4046 -0.4660  0.4019
 2134SOL    HW2 7302   1.235   0.736   0.503  0.0623 -0.4026 -0.1607
 2135SOL     OW 7303   6.759   5.011   6.763 -0.3824  0.2703 -0.6921
 2135SOL    HW1 7304   6.787   5.018   6.667  0.2168  1.0044 -0.4717
 2135SOL    HW2 7305   6.662   5.036   6.770 -0.6693 -0.6422 -1.2188
 2136SOL     OW 7306   1.514   5.006   0.178  0.5434  0.1933 -0.2735
 2136SOL    HW1 7307   1.603   4.961   0.184 -0.2391 -1.1822  2.1073
 2136SOL    HW2 7308   1.518   5.094   0.226  0.5352  0.0071  0.0662
 2137SOL     OW 7309   2.277   5.957   3.282 -0.2255  0.4264  0.3164
 2137SOL    HW1 7310   2.302   5.875   3.229  0.1481  0.3448  0.6222
 2137SOL    HW2 7311   2.180   5.976   3.267 -0.6178 -0.7705  1.1701
 2138SOL     OW 7312   5.516   3.370   2.309  0.0038  0.1068  0.0392
 2138SOL    HW1 7313   5.505   3.384   2.408  1.0196  0.3490  0.1310
 2138SOL    HW2 7314   5.606   3.403   2.281  0.4155 -1.5378 -0.6679
 2139SOL     OW 7315   1.550   0.927   0.346  0.3559 -0.7966  0.3191
 2139SOL    HW1 7316   1.487   0.962   0.415  0.6922  0.2590  0.1179
 2139SOL    HW2 7317   1.642   0.920   0.385  1.3061  2.9826 -0.7910
 2140SOL     OW 7318   1.797   2.117   4.418 -0.1481  0.0438 -0.5860
 2140SOL    HW1 7319   1.759   2.208   4.401  0.0197 -0.2002 -2.5772
 2140SOL    HW2 7320   1.894   2.126   4.442 -0.3083  0.4120 -0.0455
 2141SOL     OW 7321   6.777   2.928   2.076  0.6482 -0.3904  0.0320
 2141SOL    HW1 7322   6.683   2.900   2.100  0.3561 -1.4746 -2.1728
 2141SOL    HW2 7323   6.773   2.998   2.005  1.5199  1.2712  1.5477
 2142SOL     OW 7324   1.698   1.718   1.573  0.2690  0.9597 -0.1284
 2142SOL    HW1 7325   1.617   1.682   1.619  0.8362  0.8733  0.8311
 2142SOL    HW2 7326   1.712   1.814   1.599 -0.0795  1.2841 -1.0766
 2143SOL     OW 7327   0.256   6.387   5.275 -0.4545 -0.2751  0.1814
 2143SOL    HW1 7328   0.205   6.364   5.192 -0.6262  0.5785  0.0356
 2143SOL    HW2 7329   0.342   6.338   5.276  0.0454  0.5221 -1.0554
 2144SOL     OW 7330   6.233   4.831   0.920  0.0878 -0.0505 -0.8443
 2144SOL    HW1 7331   6.135   4.838   0.938  0.4431 -0.9409  2.0586
 2144SOL    HW2 7332   6.252   4.748   0.867 -0.8349  1.1702 -3.1940
 2145SOL     OW 7333   5.094   1.884   4.801 -0.6054  0.5431  0.1352
 2145SOL    HW1 7334   5.193   1.900   4.802 -0.4781 -0.2343  0.4265
 2145SOL    HW2 7335   5.047   1.963   4.841  0.0641 -0.1148  2.3394
 2146SOL     OW 7336   3.876   0.031   1.259  0.2063  0.5045 -0.4466
 2146SOL    HW1 7337   3.895  -0.067   1.256  0.4521  0.5072  0.8045
 2146SOL    HW2 7338   3.782   0.045   1.291  0.0448  0.6803 -0.9787
 2147SOL     OW 7339   6.934   0.570   3.184  0.1369  0.2986 -0.0205
 2147SOL    HW1 7340   6.943   0.533   3.092  0.2129 -0.3720  0.2487
 2147SOL    HW2 7341   7.023   0.601   3.217  0.2149  0.0273  0.0307
 2148SOL     OW 7342   0.886   2.016   4.652  0.1213 -0.6284 -0.1959
 2148SOL    HW1 7343   0.966   2.057   4.609 -0.4075  1.4752  0.6801
 2148SOL    HW2 7344   0.805   2.035   4.597 -0.1250 -0.5282  0.1958
 2149SOL     OW 7345   1.031   1.338   0.021 -0.5561 -0.2335  0.2372
 2149SOL    HW1 7346   1.062   1.390  -0.058 -0.6915  0.1106  0.4050
 2149SOL    HW2 7347   1.106   1.284   0.057 -0.0497  0.8213  0.8194
 2150SOL     OW 7348   0.439   1.362   6.432 -0.3166 -0.1086 -0.3130
 2150SOL    HW1 7349   0.418   1.434   6.498 -0.7602 -0.4752 -0.0548
 2150SOL    HW2 7350   0.521   1.387   6.381 -0.5250  0.6323 -0.2954
 2151SOL     OW 7351   5.834   5.863   0.028 -0.2716  1.0985  0.6750
 2151SOL    HW1 7352   5.866   5.930   0.096 -0.7970  2.2482 -0.1707
 2151SOL    HW2 7353   5.736   5.874   0.015  0.0889  2.1651 -1.5592
 2152SOL     OW 7354   5.425   6.493   2.553 -0.9224 -0.1389 -0.4876
 2152SOL    HW1 7355   5.479   6.419   2.592  0.1221  1.7061  1.8773
 2152SOL    HW2 7356   5.486   6.565   2.519 -1.8714  0.8578 -0.1517
 2153SOL     OW 7357   4.291   1.416   4.008 -0.1581 -0.4134 -0.4264
 2153SOL    HW1 7358   4.366   1.354   3.983  0.0773 -0.2111 -0.2146
 2153SOL    HW2 7359   4.325   1.510   4.012 -0.7998 -0.0749 -2.0730
 2154SOL     OW 7360   2.634   0.015   1.369  0.1193  0.3675 -0.1757
 2154SOL    HW1 7361   2.588  -0.073   1.356  2.6222 -1.5469  2.4810
 2154SOL    HW2 7362   2.662   0.024   1.465  1.0585  3.5560 -0.6290
 2155SOL     OW 7363   5.883   0.775   2.226 -0.2606  0.0795 -0.1381
 2155SOL    HW1 7364   5.804   0.764   2.287 -0.0020  1.3438  0.4565
 2155SOL    HW2 7365   5.900   0.872   2.211  2.3055 -0.0679  1.2491
 2156SOL     OW 7366   0.277   0.116   4.288  0.2814 -0.0142 -0.0123
 2156SOL    HW1 7367   0.188   0.161   4.284 -1.0483 -2.5156 -0.8261
 2156SOL    HW2 7368   0.315   0.124   4.380 -0.5645  1.4302  0.2407
 2157SOL     OW 7369   5.221   6.897   4.938 -0.4090  0.4813  0.3387
 2157SOL    HW1 7370   5.236   6.798   4.945 -0.3673  0.5195  0.8153
 2157SOL    HW2 7371   5.244   6.928   4.846  0.1423  0.1466  0.3621
 2158SOL     OW 7372   3.074   6.497   2.404  0.0760  0.5094 -0.0721
 2158SOL    HW1 7373   3.146   6.431   2.427 -0.4575 -0.1232 -0.1901
 2158SOL    HW2 7374   3.082   6.577   2.464 -0.0325 -0.2137  0.9450
 2159SOL     OW 7375   2.366   1.295   6.104 -0.3045  0.2056  0.5288
 2159SOL    HW1 7376   2.345   1.392   6.117  2.0040  0.9149 -0.5645
 2159SOL    HW2 7377   2.420   1.261   6.181  0.6279  0.3589 -0.0464
 2160SOL     OW 7378   6.502   4.928   6.512  0.1537 -0.0635  0.6712
 2160SOL    HW1 7379   6.592   4.883   6.517 -0.4368 -1.1855  1.7188
 2160SOL    HW2 7380   6.484   4.975   6.598 -0.3866 -0.1023  0.5796
 2161SOL     OW 7381   0.813   3.721   0.884 -0.4569 -0.3291  0.0701
 2161SOL    HW1 7382   0.721   3.741   0.918 -0.6541  0.1582 -0.7102
 2161SOL    HW2 7383   0.808   3.644   0.820 -0.5657  0.6208 -1.0898
 2162SOL     OW 7384   2.384   6.162   5.812 -0.3148 -0.4005  0.2536
 2162SOL    HW1 7385   2.357   6.236   5.750  0.0547  0.4375  1.0644
 2162SOL    HW2 7386   2.465   6.116   5.776  0.5210  0.7542  0.6063
 2163SOL     OW 7387   1.863   2.586   4.648  0.4218 -0.6943 -0.3672
 2163SOL    HW1 7388   1.930   2.567   4.719 -0.2294  1.9559  1.0973
 2163SOL    HW2 7389   1.901   2.653   4.584 -0.1543 -0.5875 -0.6021
 2164SOL     OW 7390   0.645   4.887   1.427  0.1966 -0.0720 -0.7325
 2164SOL    HW1 7391   0.611   4.980   1.416  1.9456  0.6624 -0.2200
 2164SOL    HW2 7392   0.739   4.881   1.394  0.9335 -1.0523  1.3583
 2165SOL     OW 7393   5.045   0.756   6.595 -0.3668 -0.1120 -0.1433
 2165SOL    HW1 7394   4.957   0.770   6.551 -0.9629  0.0342  1.0629
 2165SOL    HW2 7395   5.031   0.731   6.691  0.9170  1.1539  0.4156
 2166SOL     OW 7396   6.730   3.431   1.828 -0.0590  0.0266 -0.4234
 2166SOL    HW1 7397   6.752   3.451   1.923  0.2257 -2.5610  0.1036
 2166SOL    HW2 7398   6.815   3.428   1.774 -0.0845 -0.0456 -0.4585
 2167SOL     OW 7399   2.014   1.957   2.499 -0.4146 -0.3339 -0.1273
 2167SOL    HW1 7400   2.060   1.921   2.580 -0.5469 -0.2905 -0.0303
 2167SOL    HW2 7401   2.080   2.003   2.440 -0.1111 -1.3993 -0.6366
 2168SOL     OW 7402   1.340   3.454   5.606  0.6347 -0.1126  0.6132
 2168SOL    HW1 7403   1.335   3.438   5.705  1.8096  1.0215  0.8857
 2168SOL    HW2 7404   1.430   3.428   5.572  0.3184 -0.2766 -0.1308
 2169SOL     OW 7405   5.670   0.501   3.056  0.0949  0.7655  0.0079
 2169SOL    HW1 7406   5.736   0.432   3.025  1.3398  2.6048 -1.7081
 2169SOL    HW2 7407   5.715   0.590   3.061 -1.5975  1.6007  1.6427
 2170SOL     OW 7408   0.901   2.315   6.328 -0.1705 -0.3606 -0.7087
 2170SOL    HW1 7409   0.907   2.371   6.246  0.0959 -3.0933 -2.7007
 2170SOL    HW2 7410   0.860   2.226   6.305  2.5682 -2.3586  1.4191
 2171SOL     OW 7411   4.052   0.049   0.943 -0.1782  0.6700 -0.0841
 2171SOL    HW1 7412   3.954   0.066   0.933 -0.1248  0.8192 -0.3758
 2171SOL    HW2 7413   4.099   0.136   0.957 -0.2042  0.4996  1.1221
 2172SOL     OW 7414   1.334   2.443   4.217 -0.0038  0.3786  0.3319
 2172SOL    HW1 7415   1.346   2.347   4.243 -2.1332  0.4050  1.6294
 2172SOL    HW2 7416   1.270   2.487   4.280 -0.0387  2.3379 -0.9869
 2173SOL     OW 7417   3.992   1.791   3.808 -0.6206  0.3237  0.1356
 2173SOL    HW1 7418   3.991   1.693   3.828 -2.6301  0.5013  1.1514
 2173SOL    HW2 7419   4.044   1.839   3.878  0.2016  0.0224 -0.2576
 2174SOL     OW 7420   5.689   5.703   6.480  0.2589 -0.4925  0.2802
 2174SOL    HW1 7421   5.770   5.673   6.430  0.2637 -1.4077  0.8026
 2174SOL    HW2 7422   5.709   5.788   6.529  0.8383 -0.5999  0.2338
 2175SOL     OW 7423   3.356   2.563   6.360 -0.1637 -0.5636 -0.3078
 2175SOL    HW1 7424   3.364   2.654   6.320  0.2005 -0.8758 -0.9516
 2175SOL    HW2 7425   3.336   2.572   6.458 -0.3123  0.2027 -0.3996
 2176SOL     OW 7426   0.447   1.447   3.690 -0.2962 -0.2602  0.3212
 2176SOL    HW1 7427   0.385   1.427   3.766 -0.9508 -2.2023 -0.6446
 2176SOL    HW2 7428   0.515   1.375   3.683 -1.6323 -1.4107 -2.2499
 2177SOL     OW 7429   0.681   1.287   5.212 -0.0573  0.3879 -0.5716
 2177SOL    HW1 7430   0.748   1.247   5.149  0.4627  1.0201 -0.4337
 2177SOL    HW2 7431   0.604   1.224   5.223  2.4243 -2.4595  2.6393
 2178SOL     OW 7432   0.630   4.548   2.696  0.4545  0.3635 -0.3271
 2178SOL    HW1 7433   0.688   4.481   2.650  1.3261  0.9999 -0.1901
 2178SOL    HW2 7434   0.560   4.581   2.633 -1.3309 -2.1681  0.1958
 2179SOL     OW 7435   2.578   5.374   1.586 -0.0089 -0.9306 -0.3038
 2179SOL    HW1 7436   2.659   5.362   1.643 -0.6834 -1.3028  0.6053
 2179SOL    HW2 7437   2.521   5.447   1.624 -0.4078 -1.0989 -0.5729
 2180SOL     OW 7438   6.901   2.453   1.678 -0.2262  0.1950 -0.0816
 2180SOL    HW1 7439   6.811   2.426   1.712  0.4969  0.9847  2.6857
 2180SOL    HW2 7440   6.972   2.402   1.727  0.9133  1.5312 -0.2777
 2181SOL     OW 7441   3.969   4.827   3.934  0.6261 -0.2371 -0.3395
 2181SOL    HW1 7442   4.011   4.820   3.843  1.7763  1.4227  0.0071
 2181SOL    HW2 7443   3.870   4.831   3.924  0.6953 -0.8041 -1.4686
 2182SOL     OW 7444   5.943   5.300   1.644  0.2125 -0.4031  0.1827
 2182SOL    HW1 7445   6.002   5.227   1.611  0.1695  0.1029 -1.0982
 2182SOL    HW2 7446   5.918   5.360   1.567  0.2612  0.9640  1.1879
 2183SOL     OW 7447   3.807   3.408   0.463 -0.5687  0.0360 -0.4718
 2183SOL    HW1 7448   3.710   3.414   0.486 -0.9849  0.2843 -2.1597
 2183SOL    HW2 7449   3.817   3.382   0.367  1.0343  0.4616 -0.4463
 2184SOL     OW 7450   6.620   1.822   6.203  0.0904  0.0207  1.1906
 2184SOL    HW1 7451   6.551   1.816   6.275 -1.0082  0.7036  0.2449
 2184SOL    HW2 7452   6.605   1.906   6.150  0.8852 -0.4403  0.2028
 2185SOL     OW 7453   0.041   2.208   5.831  0.2032  0.2995  0.3076
 2185SOL    HW1 7454   0.024   2.298   5.872 -0.2937 -0.0570  0.9076
 2185SOL    HW2 7455  -0.010   2.201   5.745 -0.8389  0.1066  0.9256
 2186SOL     OW 7456   6.087   5.994   6.165  0.5690  0.6138 -0.2735
 2186SOL    HW1 7457   6.001   6.045   6.164  0.2164  0.0369 -1.9393
 2186SOL    HW2 7458   6.069   5.897   6.149  1.4944  0.3996 -0.0930
 2187SOL     OW 7459   5.384   5.120   1.046  0.2330 -0.2361  0.5886
 2187SOL    HW1 7460   5.456   5.070   1.095  0.8068 -0.4339 -0.4386
 2187SOL    HW2 7461   5.301   5.122   1.102  1.2088  0.5734  2.1006
 2188SOL     OW 7462   4.434   0.404   1.192  0.0713  0.6083 -0.0316
 2188SOL    HW1 7463   4.398   0.445   1.108  1.9095  2.5853  0.0279
 2188SOL    HW2 7464   4.386   0.441   1.271 -0.1692  0.4829 -0.1210
 2189SOL     OW 7465   1.520   1.377   3.074 -0.2265 -0.8506 -0.0094
 2189SOL    HW1 7466   1.454   1.337   3.011  0.2200  1.6058 -2.2300
 2189SOL    HW2 7467   1.608   1.389   3.027  0.9386 -1.2639  1.9244
 2190SOL     OW 7468   5.915   3.344   1.575  0.1243 -0.4131  0.6039
 2190SOL    HW1 7469   5.832   3.310   1.530 -0.0914  1.5028 -0.5528
 2190SOL    HW2 7470   5.900   3.349   1.673 -1.4156  0.5548  0.3508
 2191SOL     OW 7471   5.234   0.535   5.786  0.2850 -0.5275 -0.2106
 2191SOL    HW1 7472   5.185   0.448   5.778 -0.8344  0.0594 -0.0208
 2191SOL    HW2 7473   5.183   0.597   5.845  0.5204  0.6226 -1.1539
 2192SOL     OW 7474   3.735   1.998   0.430 -0.1164  0.0689  0.2285
 2192SOL    HW1 7475   3.664   1.951   0.377  0.3745 -0.0034 -0.3751
 2192SOL    HW2 7476   3.731   1.968   0.526 -1.0343  0.2294  0.2516
 2193SOL     OW 7477   2.785   0.515   0.297 -0.7594 -0.1696  0.7490
 2193SOL    HW1 7478   2.781   0.508   0.198 -2.9008 -0.0807  0.7908
 2193SOL    HW2 7479   2.869   0.563   0.324 -0.9320  1.2363 -1.0932
 2194SOL     OW 7480   5.287   3.894   5.682  0.6253 -0.7507 -0.2395
 2194SOL    HW1 7481   5.379   3.884   5.644  0.0222 -2.1534 -1.4067
 2194SOL    HW2 7482   5.245   3.804   5.691 -0.4741 -0.1631  0.7483
 2195SOL     OW 7483   6.662   3.043   3.604 -0.3462  0.4543  0.0633
 2195SOL    HW1 7484   6.750   3.018   3.563 -0.9880  0.9690 -1.7327
 2195SOL    HW2 7485   6.624   3.122   3.555  0.0596  2.9141  3.4000
 2196SOL     OW 7486   4.076   0.991   5.678 -0.1144  0.1282 -0.5934
 2196SOL    HW1 7487   4.003   1.008   5.611 -1.0218  0.7969  0.5265
 2196SOL    HW2 7488   4.037   0.987   5.770  1.2379  0.2926  0.0195
 2197SOL     OW 7489   6.201   3.929   5.638 -1.0188 -0.2329 -0.6047
 2197SOL    HW1 7490   6.274   3.928   5.706 -0.1899  1.0244 -1.4281
 2197SOL    HW2 7491   6.113   3.922   5.684 -0.4589  0.1679  0.5642
 2198SOL     OW 7492   0.889   0.673   4.823 -0.1720 -0.0392  0.7346
 2198SOL    HW1 7493   0.971   0.682   4.878 -0.2564 -1.0050  1.0289
 2198SOL    HW2 7494   0.893   0.588   4.770 -0.6263  0.2931  0.1514
 2199SOL     OW 7495   5.317   5.129   4.577  0.2659  0.5426  0.1878
 2199SOL    HW1 7496   5.357   5.217   4.604 -0.5427  1.0088 -0.0869
 2199SOL    HW2 7497   5.217   5.138   4.572  0.0100 -0.8712  1.8579
 2200SOL     OW 7498   2.614   2.305   4.909 -0.1221 -0.4881 -0.0978
 2200SOL    HW1 7499   2.713   2.295   4.903  0.0609  0.8737  0.2955
 2200SOL    HW2 7500   2.582   2.357   4.829 -0.2557  0.6862  0.6963
 2201SOL     OW 7501   6.323   1.612   4.635 -0.3976  0.5092 -0.3419
 2201SOL    HW1 7502   6.255   1.642   4.702 -1.5614 -1.9641 -0.2803
 2201SOL    HW2 7503   6.291   1.637   4.543 -0.5762  0.8071 -0.2009
 2202SOL     OW 7504   5.299   2.175   3.864  0.4477  0.3443 -0.0171
 2202SOL    HW1 7505   5.239   2.197   3.787 -0.5812 -0.2411  0.5917
 2202SOL    HW2 7506   5.257   2.208   3.949  2.1562  2.1206  0.2124
 2203SOL     OW 7507   1.995   4.600   0.297 -0.0762 -0.5561  0.1664
 2203SOL    HW1 7508   1.934   4.528   0.264  0.3417 -0.8217 -0.0330
 2203SOL    HW2 7509   2.088   4.580   0.269  0.2106 -0.5056  1.0506
 2204SOL     OW 7510   3.086   5.396   1.393  0.2136 -0.1542  0.0660
 2204SOL    HW1 7511   3.183   5.396   1.419  0.5618 -0.0650 -1.1655
 2204SOL    HW2 7512   3.077   5.367   1.298 -1.0025 -0.4149  0.2429
 2205SOL     OW 7513   4.727   4.298   2.174  0.2447 -0.3101 -0.0708
 2205SOL    HW1 7514   4.651   4.279   2.111  0.8574 -0.4938 -0.7681
 2205SOL    HW2 7515   4.787   4.367   2.134  1.8148 -1.9643 -0.7005
 2206SOL     OW 7516   3.393   4.546   6.262 -0.3738 -0.4570 -0.4178
 2206SOL    HW1 7517   3.477   4.541   6.316 -0.6494 -0.7218 -0.0146
 2206SOL    HW2 7518   3.332   4.615   6.301 -0.0265  0.2955 -1.1668
 2207SOL     OW 7519   4.008   5.144   2.266 -0.5391 -0.2727 -0.0402
 2207SOL    HW1 7520   3.933   5.172   2.326 -0.8734  0.5000 -0.7971
 2207SOL    HW2 7521   4.088   5.201   2.284 -0.4594 -0.4170  0.0635
 2208SOL     OW 7522   0.511   6.515   2.263  0.2261 -0.3264  0.5816
 2208SOL    HW1 7523   0.494   6.597   2.208  1.9199 -0.3317 -0.0084
 2208SOL    HW2 7524   0.438   6.449   2.246  0.0706  0.1452 -0.7659
 2209SOL     OW 7525   0.024   5.669   2.052  0.0287 -0.0910  0.3028
 2209SOL    HW1 7526   0.097   5.602   2.066 -0.7089 -0.7091  1.3465
 2209SOL    HW2 7527   0.061   5.761   2.059  0.8146 -0.3928  0.2049
 2210SOL     OW 7528   3.116   5.466   2.156  0.0463  0.4066  0.0682
 2210SOL    HW1 7529   3.142   5.397   2.224 -0.4080  1.5448  1.4599
 2210SOL    HW2 7530   3.021   5.491   2.170 -1.1770 -1.7951 -3.2564
 2211SOL     OW 7531   3.111   1.573   0.506 -0.5003  0.1249  0.2180
 2211SOL    HW1 7532   3.065   1.502   0.453  0.6287 -0.4339 -0.0477
 2211SOL    HW2 7533   3.101   1.661   0.460 -0.8563 -0.0837 -0.1054
 2212SOL     OW 7534   3.725   6.172   6.231 -0.0308 -0.2051  0.0335
 2212SOL    HW1 7535   3.726   6.100   6.300  0.0643 -0.5405 -0.3142
 2212SOL    HW2 7536   3.638   6.169   6.181  0.6854 -1.2681 -1.2097
 2213SOL     OW 7537   4.780   0.644   4.230 -0.1687 -0.1530 -0.6591
 2213SOL    HW1 7538   4.773   0.743   4.224  1.1979 -0.0396 -0.6912
 2213SOL    HW2 7539   4.863   0.613   4.183  0.0791 -1.1782  0.4027
 2214SOL     OW 7540   4.680   5.780   6.412  0.1360  0.3415 -0.8878
 2214SOL    HW1 7541   4.681   5.732   6.500  0.7564  0.5330 -0.7836
 2214SOL    HW2 7542   4.617   5.857   6.417  1.0790  1.0931 -0.1967
 2215SOL     OW 7543   6.745   5.182   2.083  0.4262 -0.0807 -0.2978
 2215SOL    HW1 7544   6.755   5.247   2.008  2.8811 -0.4203 -0.3488
 2215SOL    HW2 7545   6.730   5.090   2.046 -0.0008 -0.0090 -0.3087
 2216SOL     OW 7546   0.608   0.196   0.311  0.0577 -0.3733  0.1305
 2216SOL    HW1 7547   0.639   0.107   0.276 -1.1292 -0.1422 -1.6491
 2216SOL    HW2 7548   0.520   0.219   0.270 -0.7263  0.6593  2.2343
 2217SOL     OW 7549   4.795   2.341   3.229 -0.5047  0.6896  0.4429
 2217SOL    HW1 7550   4.885   2.383   3.221 -0.5989  0.7058 -0.8759
 2217SOL    HW2 7551   4.800   2.245   3.202 -1.0147  0.9043 -0.4625
 2218SOL     OW 7552   6.630   4.473   5.105  0.3347 -0.3101 -0.0195
 2218SOL    HW1 7553   6.536   4.440   5.115  0.3369 -0.7859 -1.3883
 2218SOL    HW2 7554   6.629   4.569   5.079  0.0508 -1.0968 -3.3614
 2219SOL     OW 7555   5.457   2.411   1.498 -0.5865 -0.0644  0.3968
 2219SOL    HW1 7556   5.443   2.318   1.465 -0.6072  0.0331  0.1236
 2219SOL    HW2 7557   5.493   2.409   1.591  0.0455 -0.3615  0.1521
 2220SOL     OW 7558   6.380   6.867   4.512  0.0841 -0.1670 -0.7294
 2220SOL    HW1 7559   6.433   6.923   4.576  2.0222 -3.6116  0.9890
 2220SOL    HW2 7560   6.427   6.865   4.424  0.0386  0.7885 -0.7876
 2221SOL     OW 7561   5.109   6.577   2.741  0.4054 -0.0862 -0.2468
 2221SOL    HW1 7562   5.153   6.505   2.688  1.5383  0.4160 -0.0280
 2221SOL    HW2 7563   5.128   6.666   2.699  2.3097  0.4513  1.5497
 2222SOL     OW 7564   4.833   0.201   4.682  0.0136 -0.7662 -0.6967
 2222SOL    HW1 7565   4.872   0.131   4.741  0.4270 -0.8665 -1.0778
 2222SOL    HW2 7566   4.807   0.281   4.736 -1.7887 -1.7418 -0.0469
 2223SOL     OW 7567   1.019   3.129   4.214  0.2069 -0.1032  0.4607
 2223SOL    HW1 7568   1.104   3.165   4.176 -0.2931  2.8283  1.8154
 2223SOL    HW2 7569   0.942   3.177   4.173 -0.5104  0.4509  2.3477
 2224SOL     OW 7570   4.457   4.864   0.236  0.1599 -0.1066  0.1477
 2224SOL    HW1 7571   4.546   4.866   0.283  1.0098  1.7332 -1.4025
 2224SOL    HW2 7572   4.471   4.872   0.138 -1.6938 -1.5501 -0.2918
 2225SOL     OW 7573   6.556   0.436   1.882  0.4715 -0.1308  0.1581
 2225SOL    HW1 7574   6.473   0.479   1.846  0.4121  0.7792  1.3513
 2225SOL    HW2 7575   6.634   0.498   1.870  0.4907  0.1006  1.3832
 2226SOL     OW 7576   2.671   1.765   5.676  0.3011 -0.4309 -0.3642
 2226SOL    HW1 7577   2.631   1.703   5.744  0.8062 -1.1503 -0.7106
 2226SOL    HW2 7578   2.622   1.755   5.589 -0.2032  0.3294 -0.1776
 2227SOL     OW 7579   5.127   1.653   1.661 -0.2074 -0.0440 -0.3145
 2227SOL    HW1 7580   5.040   1.606   1.677 -0.5060 -0.0936 -1.9488
 2227SOL    HW2 7581   5.111   1.738   1.612  0.6398  0.1833 -0.2241
 2228SOL     OW 7582   3.935   6.464   0.585  0.0179 -0.8487 -0.1539
 2228SOL    HW1 7583   3.865   6.393   0.581 -0.3107 -0.6002  0.8565
 2228SOL    HW2 7584   4.014   6.429   0.637 -0.6394 -0.0846  1.4008
 2229SOL     OW 7585   2.947   3.561   5.071  0.0661  0.1390 -0.2829
 2229SOL    HW1 7586   2.886   3.569   4.992 -2.0737  0.3227  1.3076
 2229SOL    HW2 7587   2.904   3.601   5.151  1.9879 -0.4327  1.1213
 2230SOL     OW 7588   4.713   0.199   5.908  0.0900  0.0007 -0.6666
 2230SOL    HW1 7589   4.696   0.297   5.903 -0.1647  0.0309  0.4511
 2230SOL    HW2 7590   4.776   0.180   5.984  1.1458 -0.5881 -1.6531
 2231SOL     OW 7591   2.203   6.980   0.012 -0.5490 -1.0263  0.1147
 2231SOL    HW1 7592   2.123   7.027  -0.026 -0.3641 -1.6412 -1.0643
 2231SOL    HW2 7593   2.178   6.941   0.101 -0.9028  0.6728  0.7960
 2232SOL     OW 7594   0.846   6.543   6.399 -0.5462  0.1018 -0.0408
 2232SOL    HW1 7595   0.921   6.545   6.464 -0.4089  1.4152 -0.2159
 2232SOL    HW2 7596   0.882   6.522   6.308 -0.1552  1.9841 -0.3673
 2233SOL     OW 7597   3.200   4.516   0.670  0.2911 -0.3223 -0.2328
 2233SOL    HW1 7598   3.282   4.508   0.613 -0.3229 -1.4610 -0.9937
 2233SOL    HW2 7599   3.180   4.427   0.712  0.1846  0.2629  1.0193
 2234SOL     OW 7600   5.113   1.330   0.311 -0.3539  0.2174  0.5047
 2234SOL    HW1 7601   5.157   1.416   0.287  0.5002 -0.7519 -1.7632
 2234SOL    HW2 7602   5.061   1.341   0.396 -1.0849  3.2217 -0.1942
 2235SOL     OW 7603   0.621   1.944   2.875  0.2730  0.1752 -0.4238
 2235SOL    HW1 7604   0.560   1.889   2.818 -0.2200  0.6087 -0.3121
 2235SOL    HW2 7605   0.659   1.886   2.948 -1.5001  0.3415  0.6812
 2236SOL     OW 7606   1.934   3.872   5.356  0.2820 -0.4647  0.5658
 2236SOL    HW1 7607   1.975   3.954   5.315  1.0738 -0.6407  0.9856
 2236SOL    HW2 7608   1.964   3.791   5.305 -1.3682 -0.4276 -0.5284
 2237SOL     OW 7609   6.285   0.816   0.103 -0.5222  0.5579 -0.0773
 2237SOL    HW1 7610   6.353   0.788   0.036  0.2755  1.5000  0.3011
 2237SOL    HW2 7611   6.214   0.746   0.111  0.7637 -0.7910  0.0101
 2238SOL     OW 7612   5.751   4.019   1.387  0.1553  0.3482  0.5710
 2238SOL    HW1 7613   5.698   4.101   1.409  0.3756  0.6623 -0.0621
 2238SOL    HW2 7614   5.845   4.030   1.419  0.3554  0.6173 -0.0852
 2239SOL     OW 7615   3.339   6.883   2.811 -0.4565 -0.5347  0.3055
 2239SOL    HW1 7616   3.251   6.929   2.824 -0.2761 -0.0748 -0.0633
 2239SOL    HW2 7617   3.404   6.946   2.767  0.0179 -0.9093  0.4556
 2240SOL     OW 7618   5.636   4.726   2.660 -0.1491  0.2023  0.0042
 2240SOL    HW1 7619   5.680   4.812   2.686 -0.1839  0.1400  0.2711
 2240SOL    HW2 7620   5.706   4.659   2.634 -0.1303  0.3586 -0.3514
 2241SOL     OW 7621   2.087   3.904   3.055  0.8356  0.2913 -0.6947
 2241SOL    HW1 7622   2.123   3.956   3.132 -1.2228  0.8452 -0.0399
 2241SOL    HW2 7623   2.143   3.921   2.973  2.9455 -0.1616  0.5755
 2242SOL     OW 7624   4.426   4.569   2.862  0.5508  0.3736 -0.1228
 2242SOL    HW1 7625   4.463   4.569   2.769 -0.0196  0.4947 -0.3580
 2242SOL    HW2 7626   4.340   4.620   2.863  0.4598  0.2161  0.4360
 2243SOL     OW 7627   3.574   0.935   6.990 -0.3345 -0.4017  0.1122
 2243SOL    HW1 7628   3.542   0.940   6.896 -0.9889 -0.5142  0.3207
 2243SOL    HW2 7629   3.532   0.857   7.036  1.7595 -1.7378 -0.1406
 2244SOL     OW 7630   1.146   1.112   0.694 -0.1091  0.2310  0.4739
 2244SOL    HW1 7631   1.229   1.093   0.746  1.1959  1.0127 -1.2156
 2244SOL    HW2 7632   1.140   1.210   0.674 -1.5915  0.2280  0.7772
 2245SOL     OW 7633   5.843   1.956   1.498 -0.1648  0.0688 -0.2982
 2245SOL    HW1 7634   5.802   1.978   1.586 -1.4110 -0.5513 -0.6890
 2245SOL    HW2 7635   5.876   2.039   1.454  0.9028  0.3324  0.9346
 2246SOL     OW 7636   6.259   0.673   5.685 -0.1897 -0.2597  0.1963
 2246SOL    HW1 7637   6.356   0.679   5.711 -0.3494 -0.5899  0.8756
 2246SOL    HW2 7638   6.251   0.623   5.599  0.3438  0.8796 -0.5470
 2247SOL     OW 7639   3.281   4.040   1.916 -0.0936  0.2275  0.8294
 2247SOL    HW1 7640   3.185   4.067   1.922 -0.7681 -2.1354  1.4890
 2247SOL    HW2 7641   3.313   4.053   1.822 -0.4957  2.6370  0.9578
 2248SOL     OW 7642   5.052   2.444   2.838 -0.4308 -0.4015 -0.0804
 2248SOL    HW1 7643   5.109   2.456   2.919 -0.6893  0.8596 -0.0607
 2248SOL    HW2 7644   4.959   2.418   2.865 -0.2020 -1.1716 -0.0394
 2249SOL     OW 7645   2.186   6.537   3.504 -0.6732  0.2449 -0.1397
 2249SOL    HW1 7646   2.267   6.594   3.491  0.6525 -1.3243  0.9091
 2249SOL    HW2 7647   2.117   6.588   3.556 -0.1760  1.4256 -0.6038
 2250SOL     OW 7648   2.169   5.171   5.462  0.4922  0.1809 -0.2461
 2250SOL    HW1 7649   2.256   5.155   5.509 -0.9653  0.7445  2.9080
 2250SOL    HW2 7650   2.108   5.093   5.478 -0.8085  1.3580  0.7174
 2251SOL     OW 7651   2.540   0.355   4.153 -0.4050 -0.1410  0.4201
 2251SOL    HW1 7652   2.496   0.423   4.213  0.5447  0.8247  0.0584
 2251SOL    HW2 7653   2.493   0.354   4.064 -0.9122 -0.5353  0.6874
 2252SOL     OW 7654   3.195   1.176   1.956 -0.0522  0.0734  0.1714
 2252SOL    HW1 7655   3.111   1.133   1.922  1.2928 -0.2381 -3.1433
 2252SOL    HW2 7656   3.191   1.274   1.942 -0.0690  0.1329  0.5690
 2253SOL     OW 7657   1.168   0.984   1.289  0.0715 -0.2197  0.1201
 2253SOL    HW1 7658   1.254   0.940   1.312  1.3237  2.3134  0.6826
 2253SOL    HW2 7659   1.156   1.066   1.346 -3.1294 -0.8795  0.6279
 2254SOL     OW 7660   2.931   4.195   1.741 -0.2215 -0.3508 -0.3880
 2254SOL    HW1 7661   2.943   4.288   1.773  2.7662 -0.5325 -0.7377
 2254SOL    HW2 7662   2.955   4.131   1.814 -0.9137 -0.8457 -0.5818
 2255SOL     OW 7663   2.387   2.568   6.325 -0.0796  0.2783  0.0499
 2255SOL    HW1 7664   2.411   2.526   6.238  1.4050  0.2109  0.4603
 2255SOL    HW2 7665   2.362   2.664   6.310  1.3616  0.6166 -0.3298
 2256SOL     OW 7666   3.390   0.436   0.626  0.3505  0.3815  0.3174
 2256SOL    HW1 7667   3.357   0.523   0.588  2.6128  1.4939  0.7452
 2256SOL    HW2 7668   3.340   0.415   0.710 -0.3295  1.1767  0.1256
 2257SOL     OW 7669   6.745   1.323   5.537  0.1009  0.4561 -0.1374
 2257SOL    HW1 7670   6.835   1.288   5.563  0.3594  1.6853  0.6902
 2257SOL    HW2 7671   6.709   1.380   5.610 -2.4406 -1.8954  0.6302
 2258SOL     OW 7672   1.356   0.971   3.043  0.3064  0.0526  0.5977
 2258SOL    HW1 7673   1.402   1.022   3.116 -1.2853  1.9123  0.3701
 2258SOL    HW2 7674   1.326   1.034   2.972 -1.0459 -1.3033 -0.0948
 2259SOL     OW 7675   6.676   0.111   6.470  0.6609 -0.5221  0.3254
 2259SOL    HW1 7676   6.641   0.024   6.433  2.2340 -1.4920  1.0087
 2259SOL    HW2 7677   6.615   0.144   6.542  0.3655 -1.4076  0.4936
 2260SOL     OW 7678   6.563   3.018   0.941  0.2556  0.3656 -0.2654
 2260SOL    HW1 7679   6.661   3.004   0.927  0.7081  2.2653  0.7335
 2260SOL    HW2 7680   6.548   3.101   0.994 -1.8768 -0.3142  0.3084
 2261SOL     OW 7681   5.096   5.440   6.284 -0.4872 -0.2772  0.8704
 2261SOL    HW1 7682   5.189   5.469   6.307 -0.1233 -1.3099  0.7593
 2261SOL    HW2 7683   5.097   5.393   6.196 -1.1723 -0.0294  0.7247
 2262SOL     OW 7684   0.464   0.218   4.582  0.3252 -1.0150  0.2394
 2262SOL    HW1 7685   0.367   0.213   4.605  0.3397 -1.2114  0.2522
 2262SOL    HW2 7686   0.498   0.310   4.604 -0.2104 -0.4530 -1.1407
 2263SOL     OW 7687   2.741   5.637   5.917  0.4027 -0.2488  0.2505
 2263SOL    HW1 7688   2.745   5.731   5.950 -0.2095  1.3107 -3.5977
 2263SOL    HW2 7689   2.647   5.605   5.917  0.2720  0.0970 -0.6729
 2264SOL     OW 7690   2.508   0.337   5.560  0.1539  0.3349 -0.4691
 2264SOL    HW1 7691   2.547   0.292   5.480  0.0826  1.0913 -0.9351
 2264SOL    HW2 7692   2.470   0.268   5.622  0.3453 -0.2622 -1.0107
 2265SOL     OW 7693   1.128   5.638   4.485  0.8445 -0.0322  0.0923
 2265SOL    HW1 7694   1.109   5.565   4.419 -1.4284  0.8786 -0.3603
 2265SOL    HW2 7695   1.172   5.714   4.438  2.6174 -0.7830  0.4370
 2266SOL     OW 7696   2.943   3.894   6.729  0.2077 -0.0692  0.0555
 2266SOL    HW1 7697   2.953   3.828   6.654  0.5328 -1.3528  1.1847
 2266SOL    HW2 7698   3.012   3.965   6.720 -2.3259  2.2920 -3.2208
 2267SOL     OW 7699   4.658   2.691   4.553  0.2282 -0.4747  0.1653
 2267SOL    HW1 7700   4.655   2.775   4.608  2.4385  0.1242 -0.5338
 2267SOL    HW2 7701   4.728   2.630   4.589  0.4233 -0.8801 -0.8560
 2268SOL     OW 7702   0.751   5.990   4.230 -0.4943  0.1725  0.2245
 2268SOL    HW1 7703   0.657   6.019   4.213 -0.4091 -0.8093 -2.5101
 2268SOL    HW2 7704   0.759   5.952   4.322 -3.0655 -0.7837  0.1183
 2269SOL     OW 7705   0.754   2.289   4.397  0.3482  0.8440  0.4550
 2269SOL    HW1 7706   0.738   2.195   4.426  0.0482  0.6579 -0.2756
 2269SOL    HW2 7707   0.815   2.289   4.318 -2.3154  0.9725 -1.7454
 2270SOL     OW 7708   3.934   1.681   5.831  0.3907  0.0199 -0.4446
 2270SOL    HW1 7709   3.839   1.650   5.830  0.8418 -1.4479  0.0261
 2270SOL    HW2 7710   3.980   1.646   5.912  1.8961 -1.0812 -1.7250
 2271SOL     OW 7711   4.344   4.535   6.062 -0.0429 -0.0145  0.5702
 2271SOL    HW1 7712   4.358   4.439   6.040  0.1192 -0.1296  1.1547
 2271SOL    HW2 7713   4.259   4.546   6.114 -0.3872  0.2416 -0.0365
 2272SOL     OW 7714   6.358   0.951   6.557  0.3628 -0.5751 -0.1173
 2272SOL    HW1 7715   6.422   0.880   6.528  1.1954 -0.2575  0.8625
 2272SOL    HW2 7716   6.370   0.968   6.655  1.1413  1.8725 -0.5736
 2273SOL     OW 7717   3.207   1.867   2.418 -0.0378 -0.0910  0.0637
 2273SOL    HW1 7718   3.234   1.962   2.431 -0.0450 -0.2446  1.3178
 2273SOL    HW2 7719   3.275   1.807   2.461  2.9718 -1.0022 -5.1514
 2274SOL     OW 7720   0.672   0.900   0.137  0.7098  0.1558  0.3154
 2274SOL    HW1 7721   0.614   0.931   0.062  0.6788 -0.9312 -0.1251
 2274SOL    HW2 7722   0.747   0.965   0.150 -0.1138  1.1340  0.3395
 2275SOL     OW 7723   5.245   3.770   2.498  0.5196 -0.0528 -0.2771
 2275SOL    HW1 7724   5.237   3.816   2.410  0.0033  2.2741  0.9112
 2275SOL    HW2 7725   5.194   3.821   2.567  0.1438 -2.3106  1.2208
 2276SOL     OW 7726   0.961   2.538   0.257  0.5417  0.4872  0.4868
 2276SOL    HW1 7727   0.886   2.472   0.262  0.6080  0.2154 -1.3528
 2276SOL    HW2 7728   1.045   2.495   0.289  0.3628  0.0094  0.3272
 2277SOL     OW 7729   2.912   3.537   3.706  0.0333 -0.0649 -0.2772
 2277SOL    HW1 7730   2.843   3.566   3.639 -0.2979 -0.3847 -0.0744
 2277SOL    HW2 7731   2.938   3.616   3.762  1.1129  0.4693 -1.4847
 2278SOL     OW 7732   0.198   4.825   2.823 -0.3254  0.1323  0.1807
 2278SOL    HW1 7733   0.251   4.824   2.907 -0.5225  0.0458  0.3063
 2278SOL    HW2 7734   0.124   4.892   2.831 -1.4422 -1.1148  0.7740
 2279SOL     OW 7735   1.165   0.243   5.679 -0.0584 -0.0656 -0.0982
 2279SOL    HW1 7736   1.187   0.150   5.708 -1.2000 -0.3997 -0.2548
 2279SOL    HW2 7737   1.247   0.301   5.687 -0.0581 -0.3341  2.9188
 2280SOL     OW 7738   5.044   4.264   4.397  0.1098 -0.0970 -0.9505
 2280SOL    HW1 7739   5.034   4.241   4.494 -0.1960  1.4111 -0.5923
 2280SOL    HW2 7740   5.112   4.204   4.355 -0.7440 -1.6960 -0.1498
 2281SOL     OW 7741   5.255   5.379   1.954 -0.3693  0.3369 -0.1941
 2281SOL    HW1 7742   5.330   5.314   1.942 -1.0138 -0.6110  0.7276
 2281SOL    HW2 7743   5.226   5.380   2.050 -0.0778  2.3440 -0.0894
 2282SOL     OW 7744   3.566   5.212   5.300 -1.1411  0.1211 -0.0848
 2282SOL    HW1 7745   3.520   5.145   5.359  0.1955 -1.0955 -0.3686
 2282SOL    HW2 7746   3.581   5.173   5.210  1.4138  0.0036  0.3164
 2283SOL     OW 7747   0.312   6.311   6.751  0.1134 -0.0213 -0.5343
 2283SOL    HW1 7748   0.298   6.375   6.676 -0.1628 -1.2686 -1.5792
 2283SOL    HW2 7749   0.366   6.355   6.823 -1.4177  1.9216 -0.4722
 2284SOL     OW 7750   0.947   4.519   5.773 -0.0250 -0.5984  0.1264
 2284SOL    HW1 7751   1.036   4.487   5.739  1.5376  3.0358  0.2557
 2284SOL    HW2 7752   0.947   4.517   5.873  1.4730  2.5794  0.3186
 2285SOL     OW 7753   2.033   4.292   5.836 -0.4470 -0.4079 -0.2999
 2285SOL    HW1 7754   2.002   4.226   5.769 -1.5471 -0.6945  0.4588
 2285SOL    HW2 7755   2.061   4.244   5.920  1.1428 -0.0806 -0.6044
 2286SOL     OW 7756   6.867   3.718   2.194 -0.0308  0.2363  0.1967
 2286SOL    HW1 7757   6.786   3.751   2.242 -1.0105 -0.5485 -0.8517
 2286SOL    HW2 7758   6.895   3.784   2.124  0.0537  0.3809  0.3691
 2287SOL     OW 7759   2.666   1.548   3.479 -0.0515  0.4036 -0.3630
 2287SOL    HW1 7760   2.692   1.481   3.548  2.1808  1.6783  0.1268
 2287SOL    HW2 7761   2.574   1.582   3.499  0.2868  0.2653  1.6256
 2288SOL     OW 7762   4.392   5.243   2.986  0.1609 -0.2991 -0.5283
 2288SOL    HW1 7763   4.303   5.199   2.974  1.0386 -1.8641 -1.5973
 2288SOL    HW2 7764   4.432   5.213   3.072 -0.7038  1.1377  0.4204
 2289SOL     OW 7765   0.341   4.457   1.025  0.2092  0.7782  0.2309
 2289SOL    HW1 7766   0.439   4.461   1.044  0.0943  2.1504  0.6430
 2289SOL    HW2 7767   0.307   4.550   1.008 -1.0394  0.3284  0.2048
 2290SOL     OW 7768   6.960   4.235   5.740 -0.2641 -0.1922 -0.1994
 2290SOL    HW1 7769   6.972   4.303   5.668  0.0239 -0.4888 -0.4336
 2290SOL    HW2 7770   7.035   4.169   5.737  0.0256  0.0892  0.7067
 2291SOL     OW 7771   2.369   1.348   6.753  0.2749 -0.9875  0.3908
 2291SOL    HW1 7772   2.276   1.368   6.721  0.5749 -0.5923 -0.2384
 2291SOL    HW2 7773   2.367   1.336   6.852 -0.4255 -0.8415  0.4062
 2292SOL     OW 7774   2.176   1.451   2.861  0.3351 -0.2928  0.3103
 2292SOL    HW1 7775   2.267   1.461   2.902 -0.5612  1.0400  2.1651
 2292SOL    HW2 7776   2.166   1.360   2.821  1.5963 -1.4525  2.4601
 2293SOL     OW 7777   4.735   4.636   4.357 -0.1614  0.2924 -0.2617
 2293SOL    HW1 7778   4.685   4.703   4.412  0.1215 -1.1282  1.8154
 2293SOL    HW2 7779   4.797   4.583   4.415  0.9534 -0.5831 -2.1391
 2294SOL     OW 7780   2.637   5.809   1.347 -0.2234  0.7009  0.3113
 2294SOL    HW1 7781   2.716   5.773   1.297  0.5814  1.3750  1.0592
 2294SOL    HW2 7782   2.566   5.836   1.282  0.2943  0.3923 -0.3932
 2295SOL     OW 7783   6.761   0.625   1.918 -0.2131 -0.2805 -0.1184
 2295SOL    HW1 7784   6.763   0.613   2.017 -0.1159  0.4079 -0.0354
 2295SOL    HW2 7785   6.851   0.602   1.880 -0.0394  0.1471  0.0338
 2296SOL     OW 7786   2.833   5.767   6.704 -0.0851  0.6093  0.3962
 2296SOL    HW1 7787   2.772   5.710   6.649 -0.8927  1.3974  0.4592
 2296SOL    HW2 7788   2.828   5.861   6.672 -0.0845  0.9681  1.4232
 2297SOL     OW 7789   3.653   6.412   5.020  1.0118  0.8793 -0.2175
 2297SOL    HW1 7790   3.686   6.489   5.075  1.0548  2.0653 -1.8207
 2297SOL    HW2 7791   3.728   6.348   5.004  1.9867  2.3308 -1.8104
 2298SOL     OW 7792   5.339   2.342   6.816 -0.2367 -0.2187 -0.2049
 2298SOL    HW1 7793   5.378   2.283   6.887 -1.0292 -0.9808 -0.3827
 2298SOL    HW2 7794   5.413   2.376   6.757  0.3727  0.0311  0.6799
 2299SOL     OW 7795   3.809   1.132   1.541  0.3864  0.0737 -0.0748
 2299SOL    HW1 7796   3.766   1.141   1.631  1.0506  2.2663  0.0991
 2299SOL    HW2 7797   3.890   1.191   1.538  0.0753  0.4699 -2.2886
 2300SOL     OW 7798   2.224   3.496   1.631  0.1181 -0.1021  0.2703
 2300SOL    HW1 7799   2.290   3.465   1.699 -0.1502  0.9288  1.0242
 2300SOL    HW2 7800   2.273   3.530   1.550  0.5705  1.4515  1.1642
 2301SOL     OW 7801   4.407   3.142   1.192 -0.4129  0.4381  0.3906
 2301SOL    HW1 7802   4.349   3.185   1.261  0.8128  0.3062  1.5420
 2301SOL    HW2 7803   4.366   3.055   1.165 -1.8436  1.3325 -0.4336
 2302SOL     OW 7804   3.122   5.969   3.051  0.3731 -0.7359  0.7240
 2302SOL    HW1 7805   3.071   5.954   3.136 -0.8389  0.2863  0.2215
 2302SOL    HW2 7806   3.059   5.966   2.974  1.5705 -2.3390 -0.2402
 2303SOL     OW 7807   0.467   3.432   0.583 -0.1840  0.7729 -0.3124
 2303SOL    HW1 7808   0.466   3.519   0.633  2.0275  0.7788 -0.2135
 2303SOL    HW2 7809   0.508   3.361   0.640 -0.4599  0.0481 -1.0036
 2304SOL     OW 7810   2.945   2.141   2.659 -0.6455  0.4749  0.0586
 2304SOL    HW1 7811   2.878   2.109   2.726 -2.2618  0.8801 -1.3024
 2304SOL    HW2 7812   3.036   2.143   2.701 -1.3572 -0.7362  1.7515
 2305SOL     OW 7813   3.723   4.816   0.277  0.2391  0.0163 -0.0489
 2305SOL    HW1 7814   3.750   4.886   0.211  2.4510  1.2070  1.9556
 2305SOL    HW2 7815   3.802   4.790   0.332 -0.5717 -3.8648 -0.4235
 2306SOL     OW 7816   0.062   4.696   0.817  0.4911  0.2885  0.1235
 2306SOL    HW1 7817   0.105   4.685   0.728 -1.0763 -0.3167 -0.6045
 2306SOL    HW2 7818  -0.009   4.766   0.812  0.3261  0.1836  0.8652
 2307SOL     OW 7819   1.992   0.697   3.199  0.4890 -0.0727  0.1192
 2307SOL    HW1 7820   1.922   0.737   3.141  0.3532  0.4019  0.6011
 2307SOL    HW2 7821   1.980   0.730   3.293  0.9448 -0.5157  0.3374
 2308SOL     OW 7822   1.069   1.341   5.601  0.4423  0.3257  0.0616
 2308SOL    HW1 7823   1.097   1.437   5.610  0.4576  0.1902  1.8101
 2308SOL    HW2 7824   0.979   1.337   5.557  0.6529  1.1018 -0.4752
 2309SOL     OW 7825   0.812   4.625   6.341 -0.3764 -0.0835 -0.2524
 2309SOL    HW1 7826   0.836   4.721   6.351 -0.1817  0.1995 -2.7708
 2309SOL    HW2 7827   0.714   4.613   6.357 -0.4521  0.5714 -0.2147
 2310SOL     OW 7828   0.050   2.112   3.785 -0.3038  0.7212 -0.6335
 2310SOL    HW1 7829   0.060   2.118   3.885  0.9363 -2.6661 -0.4242
 2310SOL    HW2 7830  -0.014   2.038   3.763 -0.6713  1.5204 -2.3823
 2311SOL     OW 7831   2.132   4.353   2.700  0.8352  0.6830  0.2061
 2311SOL    HW1 7832   2.203   4.291   2.665  0.2033  0.4261 -0.6830
 2311SOL    HW2 7833   2.175   4.430   2.748  1.6988  0.4131 -0.1081
 2312SOL     OW 7834   1.242   1.084   2.810  0.1011 -0.2098 -0.4880
 2312SOL    HW1 7835   1.148   1.115   2.822 -0.4537 -1.3555 -1.7183
 2312SOL    HW2 7836   1.302   1.164   2.800 -0.0121  0.8022  4.3006
 2313SOL     OW 7837   4.369   5.448   2.581  0.7002 -0.6739 -0.5880
 2313SOL    HW1 7838   4.439   5.394   2.629  0.8128  0.9222  1.1895
 2313SOL    HW2 7839   4.288   5.456   2.639  0.8534  1.3650 -0.5705
 2314SOL     OW 7840   5.936   5.165   2.093 -0.4624  0.1662 -0.7391
 2314SOL    HW1 7841   5.909   5.130   2.183 -0.7080  0.6353 -0.6284
 2314SOL    HW2 7842   5.971   5.258   2.103 -1.5095  0.6331 -1.2674
 2315SOL     OW 7843   5.967   6.285   3.901 -0.0342 -0.6365 -0.1633
 2315SOL    HW1 7844   5.873   6.290   3.867 -0.3468 -0.7893  0.6519
 2315SOL    HW2 7845   5.972   6.330   3.990  0.9405  0.4953 -0.7611
 2316SOL     OW 7846   2.833   3.149   6.618 -0.1298  0.1258  0.2278
 2316SOL    HW1 7847   2.799   3.061   6.584  0.5268  0.5518 -1.6900
 2316SOL    HW2 7848   2.835   3.215   6.542  1.7861  1.0474  1.0154
 2317SOL     OW 7849   6.130   3.468   1.831  0.0695 -0.4391  0.4508
 2317SOL    HW1 7850   6.035   3.478   1.803 -0.9468 -0.3669  3.5716
 2317SOL    HW2 7851   6.190   3.481   1.752 -2.4499 -0.0282 -1.5074
 2318SOL     OW 7852   2.979   5.572   4.137 -0.6393 -0.0266  0.8768
 2318SOL    HW1 7853   2.903   5.507   4.136 -0.4029 -0.4073 -2.0315
 2318SOL    HW2 7854   2.951   5.656   4.090  0.6047 -0.0758 -0.0018
 2319SOL     OW 7855   1.800   6.106   2.441 -0.0994 -0.1024 -0.3413
 2319SOL    HW1 7856   1.817   6.191   2.392 -0.2098 -0.6112 -1.2809
 2319SOL    HW2 7857   1.806   6.123   2.539 -0.7033  1.1131 -0.4966
 2320SOL     OW 7858   1.701   3.494   5.817 -0.2578  0.7018 -0.3298
 2320SOL    HW1 7859   1.696   3.396   5.835 -1.9648  0.7809 -0.1696
 2320SOL    HW2 7860   1.646   3.543   5.885  0.4672  1.7621 -0.4851
 2321SOL     OW 7861   2.375   6.029   3.523  0.2454 -0.0030  0.5648
 2321SOL    HW1 7862   2.338   5.992   3.438  0.3082  1.0202  0.0717
 2321SOL    HW2 7863   2.340   6.121   3.537 -1.3233 -0.8600  2.6928
 2322SOL     OW 7864   1.449   3.391   6.635 -0.6578 -0.4487 -0.2714
 2322SOL    HW1 7865   1.467   3.338   6.718 -0.2134 -0.0507 -0.1087
 2322SOL    HW2 7866   1.437   3.328   6.557 -2.4702 -0.9024  0.3207
 2323SOL     OW 7867   3.252   6.461   0.399 -0.1635  0.3711 -0.1443
 2323SOL    HW1 7868   3.184   6.440   0.329 -0.1642 -0.5894  0.1305
 2323SOL    HW2 7869   3.280   6.556   0.391 -0.5590  0.4149 -1.1071
 2324SOL     OW 7870   6.627   4.425   1.404  0.4739  0.4317 -0.1264
 2324SOL    HW1 7871   6.626   4.348   1.341 -1.9363  0.5251 -0.2790
 2324SOL    HW2 7872   6.629   4.511   1.353  0.0419  0.4937 -0.0414
 2325SOL     OW 7873   4.684   5.158   1.215 -0.1130  0.4555 -0.7319
 2325SOL    HW1 7874   4.599   5.115   1.187  0.2500 -0.4737 -0.4378
 2325SOL    HW2 7875   4.666   5.250   1.249 -1.1801 -0.2304  0.6359
 2326SOL     OW 7876   2.013   0.520   2.451 -0.3720 -0.1167 -0.6619
 2326SOL    HW1 7877   1.972   0.574   2.377 -1.2911 -1.7832 -1.4409
 2326SOL    HW2 7878   1.948   0.514   2.527  0.1747  0.7644 -0.1106
 2327SOL     OW 7879   6.340   4.622   3.035  0.6515  0.4324 -0.5492
 2327SOL    HW1 7880   6.337   4.572   2.948 -0.2137  1.9401 -1.4054
 2327SOL    HW2 7881   6.298   4.566   3.106 -1.5591  0.4495 -1.7698
 2328SOL     OW 7882   1.487   3.425   1.453  0.3022  0.6930  0.5152
 2328SOL    HW1 7883   1.425   3.422   1.532 -0.2459 -0.9250  0.0637
 2328SOL    HW2 7884   1.577   3.392   1.481  0.5138  1.4932  0.7928
 2329SOL     OW 7885   0.150   4.977   0.391  0.0388  0.2222  0.5295
 2329SOL    HW1 7886   0.050   4.976   0.391 -0.0082 -0.0347 -1.8149
 2329SOL    HW2 7887   0.184   4.904   0.333  1.4478  2.5765 -1.8488
 2330SOL     OW 7888   6.065   4.672   0.508  0.6627  0.0039 -0.1563
 2330SOL    HW1 7889   6.066   4.574   0.526 -1.1435 -0.3748 -1.8025
 2330SOL    HW2 7890   5.997   4.716   0.566  0.6189  0.0703 -0.2565
 2331SOL     OW 7891   5.138   4.439   2.291 -0.3991  0.1506 -0.5063
 2331SOL    HW1 7892   5.171   4.514   2.348  0.0309 -1.1109  0.9823
 2331SOL    HW2 7893   5.104   4.366   2.350 -0.4519 -0.9879 -1.9046
 2332SOL     OW 7894   6.346   0.491   1.476 -0.4423  0.2024  0.6975
 2332SOL    HW1 7895   6.380   0.409   1.430 -0.6863  1.0256 -1.0144
 2332SOL    HW2 7896   6.420   0.531   1.530 -0.0921 -0.6652  0.8841
 2333SOL     OW 7897   1.721   5.109   1.352  0.1159 -0.5844  0.0308
 2333SOL    HW1 7898   1.671   5.064   1.425 -0.3196  1.6501  1.2102
 2333SOL    HW2 7899   1.678   5.089   1.264 -3.3901  1.7002  1.0340
 2334SOL     OW 7900   4.473   0.111   5.044 -0.4222 -0.0593  0.0746
 2334SOL    HW1 7901   4.501   0.194   4.994  0.8684 -0.3115  0.3436
 2334SOL    HW2 7902   4.519   0.032   5.005 -0.6815 -0.4849  0.6239
 2335SOL     OW 7903   0.184   0.178   2.739 -0.3499 -0.7522  0.1628
 2335SOL    HW1 7904   0.272   0.223   2.759 -0.4581 -0.7155  0.5794
 2335SOL    HW2 7905   0.200   0.081   2.720 -0.1643 -0.6361 -0.2657
 2336SOL     OW 7906   3.156   1.116   3.151  0.9421  0.6094  0.5599
 2336SOL    HW1 7907   3.171   1.191   3.087  2.1320 -1.7543 -2.1535
 2336SOL    HW2 7908   3.242   1.096   3.200  0.8835  0.4726  0.6092
 2337SOL     OW 7909   4.545   2.396   2.518  0.4904  0.1012 -0.8519
 2337SOL    HW1 7910   4.504   2.321   2.466  1.3109  0.0148 -1.3942
 2337SOL    HW2 7911   4.640   2.407   2.491  0.1455  1.9499 -1.4680
 2338SOL     OW 7912   5.513   2.194   2.406 -0.6218 -0.3266 -0.1499
 2338SOL    HW1 7913   5.527   2.290   2.429  1.6290 -0.5910 -0.1550
 2338SOL    HW2 7914   5.473   2.146   2.484  0.3473  0.1799  0.6763
 2339SOL     OW 7915   3.310   2.907   3.783 -0.4124 -0.7749  0.7440
 2339SOL    HW1 7916   3.399   2.915   3.828 -0.2938 -0.6396  0.4888
 2339SOL    HW2 7917   3.323   2.902   3.684 -0.7633  1.0369  0.5621
 2340SOL     OW 7918   2.514   1.831   6.148 -0.3327 -0.3370  0.4546
 2340SOL    HW1 7919   2.576   1.870   6.217 -0.4986 -1.0421  1.0125
 2340SOL    HW2 7920   2.550   1.742   6.118  1.3876  1.2154 -2.6323
 2341SOL     OW 7921   1.658   4.397   3.108  0.3441  0.5205 -0.1335
 2341SOL    HW1 7922   1.716   4.318   3.126 -1.3599 -1.2414 -1.9086
 2341SOL    HW2 7923   1.583   4.399   3.173  1.5257  1.9862  1.2639
 2342SOL     OW 7924   3.798   2.184   4.213 -0.5885 -0.2267 -0.0941
 2342SOL    HW1 7925   3.856   2.264   4.225  0.8473 -1.2810  0.3768
 2342SOL    HW2 7926   3.753   2.162   4.300  0.2887 -0.8243  0.2348
 2343SOL     OW 7927   1.895   1.686   0.312  0.0754  0.0771 -0.3479
 2343SOL    HW1 7928   1.891   1.622   0.236  1.5889 -1.4879  0.7866
 2343SOL    HW2 7929   1.930   1.774   0.280  0.6062 -0.5189 -1.4722
 2344SOL     OW 7930   5.669   5.974   0.569  0.0792 -0.4318 -0.2692
 2344SOL    HW1 7931   5.745   5.919   0.605 -0.4139 -2.0955 -1.6297
 2344SOL    HW2 7932   5.702   6.066   0.548  0.9858 -0.1875  1.9101
 2345SOL     OW 7933   1.600   6.257   3.295  0.1097  0.6241 -0.0653
 2345SOL    HW1 7934   1.603   6.250   3.394 -0.1223 -1.6429 -0.1787
 2345SOL    HW2 7935   1.541   6.334   3.269 -2.2202 -0.4915  1.5502
 2346SOL     OW 7936   5.597   2.194   6.525 -0.1362  0.4737 -0.0756
 2346SOL    HW1 7937   5.539   2.123   6.487  0.0325 -0.9996  2.2194
 2346SOL    HW2 7938   5.688   2.156   6.544  0.3628  1.6668  0.0214
 2347SOL     OW 7939   0.921   1.369   1.437 -0.0222  0.2520  0.1422
 2347SOL    HW1 7940   0.988   1.312   1.486 -0.8070  1.2158  2.4809
 2347SOL    HW2 7941   0.961   1.400   1.350  2.7060  0.9910  1.5347
 2348SOL     OW 7942   6.096   5.600   1.560 -0.6894  0.3129 -0.1537
 2348SOL    HW1 7943   6.138   5.689   1.579 -0.2316  0.1781 -0.5191
 2348SOL    HW2 7944   6.055   5.602   1.468 -1.1078  0.3024  0.0295
 2349SOL     OW 7945   6.876   4.782   4.622  0.6004 -0.8035 -0.3328
 2349SOL    HW1 7946   6.814   4.734   4.685 -0.8838 -0.4843 -1.4923
 2349SOL    HW2 7947   6.927   4.852   4.672  1.2752 -2.1892  0.9738
 2350SOL     OW 7948   5.199   3.615   1.026 -0.2407 -0.0717  0.5707
 2350SOL    HW1 7949   5.180   3.621   1.124  0.1273 -3.9239  1.0506
 2350SOL    HW2 7950   5.114   3.593   0.977 -0.2052  0.6617  0.1724
 2351SOL     OW 7951   1.902   6.673   1.613 -0.7028  0.2676  0.1481
 2351SOL    HW1 7952   1.817   6.648   1.658 -1.4733  1.5515 -0.5305
 2351SOL    HW2 7953   1.894   6.657   1.514  0.3181 -0.8042  0.2117
 2352SOL     OW 7954   0.366   1.269   2.691 -0.0494 -0.1124  0.0197
 2352SOL    HW1 7955   0.304   1.192   2.708  1.2591 -0.7255  2.4241
 2352SOL    HW2 7956   0.443   1.238   2.635  0.6624 -0.7042  1.2847
 2353SOL     OW 7957   2.678   1.053   4.712  0.3263  0.0276 -0.0154
 2353SOL    HW1 7958   2.632   1.083   4.795 -0.0651  0.0436 -0.2359
 2353SOL    HW2 7959   2.637   0.968   4.679  1.0771 -0.4680  0.3063
 2354SOL     OW 7960   2.807   2.212   4.039  0.0016 -0.1292  0.5677
 2354SOL    HW1 7961   2.746   2.287   4.064 -1.9263 -1.6553  0.6960
 2354SOL    HW2 7962   2.833   2.220   3.943 -3.0028 -1.0713 -0.4257
 2355SOL     OW 7963   1.625   3.999   4.098 -0.2589 -0.6107 -0.6560
 2355SOL    HW1 7964   1.620   4.088   4.142 -1.1064 -1.1906  0.4918
 2355SOL    HW2 7965   1.577   4.002   4.010 -0.6711 -0.0507 -0.4116
 2356SOL     OW 7966   6.759   2.266   6.793  0.0731  0.3293  0.4698
 2356SOL    HW1 7967   6.791   2.171   6.794 -1.5816 -0.2665  1.7276
 2356SOL    HW2 7968   6.659   2.267   6.802  0.1723  2.2249  1.9043
 2357SOL     OW 7969   1.786   6.830   2.678  0.1105  0.2781 -0.5059
 2357SOL    HW1 7970   1.851   6.877   2.737 -0.6647  0.9506 -0.1783
 2357SOL    HW2 7971   1.797   6.731   2.689  0.5201  0.3922  0.1569
 2358SOL     OW 7972   2.891   5.297   6.597  0.0580 -0.5315  0.2533
 2358SOL    HW1 7973   2.920   5.205   6.623 -1.5797 -1.2297 -0.1998
 2358SOL    HW2 7974   2.895   5.306   6.497 -0.8586 -0.5232  0.2076
 2359SOL     OW 7975   0.836   6.580   5.377  0.6821  0.0931 -0.3772
 2359SOL    HW1 7976   0.774   6.621   5.311  1.8653  0.8097 -1.0875
 2359SOL    HW2 7977   0.913   6.538   5.329  1.2318  0.0565  0.5091
 2360SOL     OW 7978   0.613   4.518   1.102 -0.1590 -0.2484 -0.1240
 2360SOL    HW1 7979   0.612   4.618   1.098  0.0364 -0.1865  0.9886
 2360SOL    HW2 7980   0.627   4.489   1.197  3.9598 -1.3118 -0.8584
 2361SOL     OW 7981   2.897   1.527   2.081 -0.2982 -0.5225 -0.3198
 2361SOL    HW1 7982   2.961   1.603   2.068  0.4455 -1.3561 -1.7129
 2361SOL    HW2 7983   2.944   1.452   2.128 -0.7479 -0.5235  0.1458
 2362SOL     OW 7984   2.219   4.652   1.767  0.5874  0.9315  0.1543
 2362SOL    HW1 7985   2.213   4.665   1.866 -2.4941 -1.3114  0.3988
 2362SOL    HW2 7986   2.164   4.721   1.721 -0.2371  0.3195  0.2092
 2363SOL     OW 7987   4.728   1.255   3.449 -0.3304 -0.0709 -0.3287
 2363SOL    HW1 7988   4.708   1.347   3.482 -0.6789 -0.3457  0.2421
 2363SOL    HW2 7989   4.758   1.198   3.526  2.0236  0.1308 -1.0209
 2364SOL     OW 7990   1.603   1.943   6.642 -0.1468 -0.1027 -0.3042
 2364SOL    HW1 7991   1.507   1.950   6.615  0.0914  0.2247 -1.0875
 2364SOL    HW2 7992   1.651   1.880   6.581  0.4665  0.8778 -0.8709
 2365SOL     OW 7993   5.450   3.132   1.434  0.3473 -0.2430  0.3270
 2365SOL    HW1 7994   5.436   3.082   1.520 -1.5729  0.6183  0.5513
 2365SOL    HW2 7995   5.398   3.217   1.436 -0.2888 -0.5263 -1.9875
 2366SOL     OW 7996   4.637   6.208   2.404 -0.5256 -0.6923  0.5160
 2366SOL    HW1 7997   4.616   6.295   2.448 -0.7249 -1.1040  1.2558
 2366SOL    HW2 7998   4.561   6.145   2.416 -0.7492 -0.7048 -0.7613
 2367SOL     OW 7999   3.980   3.904   6.351  0.1227  0.5623 -0.0575
 2367SOL    HW1 8000   3.985   3.815   6.396  1.6976 -0.0224 -1.2887
 2367SOL    HW2 8001   4.061   3.958   6.373  1.0373  0.1904 -2.2261
 2368SOL     OW 8002   5.967   4.699   1.808 -0.2915 -0.0985 -0.3623
 2368SOL    HW1 8003   5.922   4.726   1.893  1.5472  0.1155  0.6009
 2368SOL    HW2 8004   5.964   4.775   1.743 -2.5680 -0.5923 -0.9207
 2369SOL     OW 8005   2.552   0.960   3.967 -0.1657 -0.1107 -0.0013
 2369SOL    HW1 8006   2.493   1.014   3.908  0.0604  0.0030 -0.1214
 2369SOL    HW2 8007   2.504   0.940   4.053 -0.4525 -0.1881 -0.1798
 2370SOL     OW 8008   6.734   2.204   1.197  0.4547 -0.1568  0.7027
 2370SOL    HW1 8009   6.824   2.160   1.198  0.1251 -0.8670 -0.0491
 2370SOL    HW2 8010   6.744   2.298   1.163  1.0652  0.1521  1.6871
 2371SOL     OW 8011   6.531   6.176   0.370  0.4411  0.2518 -0.8686
 2371SOL    HW1 8012   6.525   6.110   0.295  0.7216 -0.2710 -0.4323
 2371SOL    HW2 8013   6.442   6.185   0.413  0.4080  0.1408 -0.9128
 2372SOL     OW 8014   4.880   3.543   3.275  0.2928 -0.1106  0.2417
 2372SOL    HW1 8015   4.853   3.448   3.291  0.0226 -0.2707 -1.0688
 2372SOL    HW2 8016   4.858   3.598   3.355 -0.8488 -0.8862  0.4751
 2373SOL     OW 8017   1.372   2.630   4.646  0.3335  0.0152 -0.1019
 2373SOL    HW1 8018   1.304   2.672   4.707  0.3876 -2.3157  1.7005
 2373SOL    HW2 8019   1.463   2.665   4.668  0.3753 -0.9334  1.3517
 2374SOL     OW 8020   5.035   2.125   4.262 -0.0513  0.4922 -0.5542
 2374SOL    HW1 8021   4.964   2.108   4.330 -0.2966 -0.1590 -0.9680
 2374SOL    HW2 8022   5.121   2.084   4.293  0.0826  1.0440 -0.1820
 2375SOL     OW 8023   2.912   1.398   4.501 -0.4004  0.6728 -0.1577
 2375SOL    HW1 8024   2.845   1.428   4.569  1.2485  1.0384  1.3820
 2375SOL    HW2 8025   2.913   1.298   4.495  0.0126  0.5974  1.0014
 2376SOL     OW 8026   5.475   2.752   2.460  0.5607 -0.0650 -0.2166
 2376SOL    HW1 8027   5.470   2.652   2.465  0.4818 -0.2557 -2.7266
 2376SOL    HW2 8028   5.466   2.781   2.364  1.2802  2.3221  0.3689
 2377SOL     OW 8029   4.089   3.334   3.886 -0.7702 -0.6208  0.0542
 2377SOL    HW1 8030   4.072   3.260   3.951 -1.7135 -0.2150  0.2934
 2377SOL    HW2 8031   4.090   3.421   3.934  0.6612 -0.4858 -0.1777
 2378SOL     OW 8032   6.459   1.417   0.738  0.0038 -0.2167 -0.3518
 2378SOL    HW1 8033   6.476   1.407   0.640 -1.4465 -0.9972 -0.5532
 2378SOL    HW2 8034   6.493   1.337   0.786  1.1931  0.4011 -0.1251
 2379SOL     OW 8035   5.835   1.367   6.703 -0.3604  0.2477 -0.7704
 2379SOL    HW1 8036   5.882   1.279   6.701 -1.0491 -0.1098 -2.2898
 2379SOL    HW2 8037   5.888   1.432   6.757  0.8812 -0.6803 -0.8400
 2380SOL     OW 8038   6.058   0.841   3.424  0.2218 -0.2816  0.3078
 2380SOL    HW1 8039   6.014   0.768   3.373 -0.2919 -0.4090  0.9143
 2380SOL    HW2 8040   6.150   0.856   3.388  0.5002 -1.5194  0.4427
 2381SOL     OW 8041   1.466   0.316   1.580 -0.1816  0.2324 -0.2401
 2381SOL    HW1 8042   1.516   0.393   1.543  2.3627 -1.4451 -0.5150
 2381SOL    HW2 8043   1.529   0.241   1.600 -2.4279 -1.5316  0.7356
 2382SOL     OW 8044   3.262   1.739   4.495  0.3227 -1.1217  0.6677
 2382SOL    HW1 8045   3.308   1.756   4.408 -2.3192  0.4247 -0.5468
 2382SOL    HW2 8046   3.284   1.812   4.559 -2.2658  1.1386 -0.8004
 2383SOL     OW 8047   5.557   4.981   1.704  0.2541 -0.0358 -0.4901
 2383SOL    HW1 8048   5.634   5.038   1.733  0.1110  0.3505 -0.8584
 2383SOL    HW2 8049   5.583   4.885   1.711 -0.1892 -0.0252  2.0916
 2384SOL     OW 8050   5.411   1.395   2.837  0.2013 -0.7909 -0.5109
 2384SOL    HW1 8051   5.396   1.305   2.877 -0.8046 -0.6285 -0.4912
 2384SOL    HW2 8052   5.389   1.392   2.740 -1.3716 -0.2090 -0.1988
 2385SOL     OW 8053   6.803   2.036   0.940  0.4386 -0.3806 -0.6518
 2385SOL    HW1 8054   6.796   1.943   0.902 -0.6097 -0.7656  0.4115
 2385SOL    HW2 8055   6.860   2.035   1.022 -0.5066 -0.3285  0.0252
 2386SOL     OW 8056   3.819   5.218   2.425  0.1035  0.0389  0.2554
 2386SOL    HW1 8057   3.752   5.292   2.424  2.2251  2.1396  1.2940
 2386SOL    HW2 8058   3.859   5.211   2.517  0.9606 -1.4414 -0.2070
 2387SOL     OW 8059   2.309   0.954   2.906  0.0345  0.2039 -0.3725
 2387SOL    HW1 8060   2.219   0.965   2.862 -0.4775  1.2969  0.8804
 2387SOL    HW2 8061   2.355   1.042   2.911  1.5349 -0.4543 -1.6363
 2388SOL     OW 8062   1.262   2.207   5.410  0.3825  0.1847  0.3636
 2388SOL    HW1 8063   1.239   2.178   5.503  1.8661  1.0509  1.0404
 2388SOL    HW2 8064   1.298   2.300   5.412  2.6836 -0.5955 -0.7154
 2389SOL     OW 8065   4.425   0.082   3.033 -1.0516  0.2530 -0.2666
 2389SOL    HW1 8066   4.454   0.176   3.050 -0.3976 -0.1425  0.8957
 2389SOL    HW2 8067   4.501   0.030   2.995 -1.2125  0.0277 -0.2844
 2390SOL     OW 8068   3.889   5.101   0.465 -0.0640 -0.7434 -0.5540
 2390SOL    HW1 8069   3.892   5.072   0.369 -0.2009 -0.9641 -0.4941
 2390SOL    HW2 8070   3.801   5.144   0.484 -0.2952 -1.2937 -0.3641
 2391SOL     OW 8071   4.047   5.851   4.987  0.5008 -0.1341 -0.0798
 2391SOL    HW1 8072   4.037   5.926   5.053  0.6157 -0.7047  0.5974
 2391SOL    HW2 8073   4.002   5.876   4.901  0.2071  0.5572  0.2679
 2392SOL     OW 8074   3.674   0.437   0.397  0.4872 -0.1039 -0.4734
 2392SOL    HW1 8075   3.617   0.384   0.460 -0.2826 -1.1049 -1.9456
 2392SOL    HW2 8076   3.621   0.456   0.314  0.2306  4.1638  0.4611
 2393SOL     OW 8077   1.272   4.993   5.626  0.1803 -0.2150 -0.1227
 2393SOL    HW1 8078   1.359   5.029   5.661 -0.0091  0.6635 -0.5355
 2393SOL    HW2 8079   1.205   4.991   5.700  0.8061 -1.8221  0.4502
 2394SOL     OW 8080   0.844   6.202   4.788 -0.2991 -0.4314  0.4582
 2394SOL    HW1 8081   0.761   6.210   4.734  0.0872  0.6452  0.0034
 2394SOL    HW2 8082   0.842   6.116   4.840 -1.6696 -0.4256  0.4440
 2395SOL     OW 8083   4.185   6.434   5.659 -0.4089  0.2492  0.3604
 2395SOL    HW1 8084   4.109   6.449   5.597 -1.0227  1.5912  1.3841
 2395SOL    HW2 8085   4.155   6.448   5.754  0.6944 -0.9260  0.9202
 2396SOL     OW 8086   2.735   4.748   0.828 -0.2318 -0.3334  0.0333
 2396SOL    HW1 8087   2.803   4.702   0.773 -0.6240  0.3732 -1.0839
 2396SOL    HW2 8088   2.686   4.681   0.885 -0.4139 -1.2079 -1.1240
 2397SOL     OW 8089   1.559   4.012   4.856 -0.6989 -0.4062  0.2625
 2397SOL    HW1 8090   1.516   3.922   4.849 -2.0587  0.3541 -3.1496
 2397SOL    HW2 8091   1.653   4.007   4.822 -0.4048 -0.6995  1.0886
 2398SOL     OW 8092   6.649   4.136   6.498 -0.4923 -0.6711 -0.6143
 2398SOL    HW1 8093   6.737   4.144   6.450  1.1245 -2.4056  1.8217
 2398SOL    HW2 8094   6.628   4.040   6.513 -1.2215 -0.2350  1.5381
 2399SOL     OW 8095   3.883   0.662   3.393  0.2213  0.3353 -0.5114
 2399SOL    HW1 8096   3.936   0.704   3.467 -1.2264  0.1421  0.6884
 2399SOL    HW2 8097   3.911   0.701   3.305 -1.0700  3.9782  0.4937
 2400SOL     OW 8098   6.986   5.869   4.798 -0.0873 -0.0383 -0.2353
 2400SOL    HW1 8099   7.003   5.806   4.723 -0.5186  1.9170 -2.0729
 2400SOL    HW2 8100   6.903   5.842   4.847  1.1922 -2.3874  0.7930
 2401SOL     OW 8101   0.026   5.464   5.316 -0.0733 -0.0691 -0.0241
 2401SOL    HW1 8102   0.094   5.520   5.363  1.5305 -2.8170  1.1911
 2401SOL    HW2 8103  -0.062   5.511   5.315  0.7949  1.7702  2.2566
 2402SOL     OW 8104   6.617   6.312   4.453 -0.2014 -0.0228  0.1757
 2402SOL    HW1 8105   6.680   6.390   4.448 -1.0272  0.6255 -0.3997
 2402SOL    HW2 8106   6.538   6.337   4.510 -0.8947 -0.1208 -0.7304
 2403SOL     OW 8107   0.035   0.682   2.820  0.1397 -0.3486  0.3119
 2403SOL    HW1 8108   0.040   0.781   2.820  1.1779 -0.3562  2.4639
 2403SOL    HW2 8109   0.111   0.644   2.767  1.8830  0.0042  2.4727
 2404SOL     OW 8110   1.984   0.380   6.193 -0.6405 -0.7123 -0.3930
 2404SOL    HW1 8111   2.015   0.352   6.284 -0.0854  0.4167 -0.2163
 2404SOL    HW2 8112   1.944   0.472   6.198  0.5576 -0.0939 -1.4896
 2405SOL     OW 8113   3.494   4.343   1.453 -0.6800  0.3579 -0.0921
 2405SOL    HW1 8114   3.409   4.290   1.448 -0.5862 -0.1391  2.3620
 2405SOL    HW2 8115   3.528   4.343   1.547  1.6932  1.1340 -0.8725
 2406SOL     OW 8116   5.124   6.349   1.892 -0.2885 -0.1518  0.1938
 2406SOL    HW1 8117   5.067   6.431   1.894 -0.1513 -0.0654  0.6485
 2406SOL    HW2 8118   5.085   6.283   1.828 -2.0433 -0.9185  1.9572
 2407SOL     OW 8119   3.532   6.403   2.799 -0.5988  0.5854 -0.1024
 2407SOL    HW1 8120   3.510   6.483   2.743 -1.3634 -0.0562 -0.7369
 2407SOL    HW2 8121   3.462   6.391   2.869  0.2364  1.2528  0.8765
 2408SOL     OW 8122   4.759   5.541   2.419  0.5171  0.4904  0.0331
 2408SOL    HW1 8123   4.669   5.570   2.384  0.0828 -0.8761 -0.0538
 2408SOL    HW2 8124   4.790   5.606   2.488 -0.6466  0.8844  0.2172
 2409SOL     OW 8125   2.203   4.124   6.502  0.0865 -0.4147 -0.1725
 2409SOL    HW1 8126   2.183   4.177   6.420  1.8257 -1.8634 -1.6257
 2409SOL    HW2 8127   2.131   4.139   6.569 -0.7584  1.7844 -1.4526
 2410SOL     OW 8128   3.333   4.121   2.777  0.1877  0.2014  0.1247
 2410SOL    HW1 8129   3.419   4.088   2.739 -0.7196 -1.6379 -0.4251
 2410SOL    HW2 8130   3.259   4.108   2.710 -0.8575 -0.0500  1.2914
 2411SOL     OW 8131   5.238   1.847   5.507 -0.7806 -0.2322  0.3195
 2411SOL    HW1 8132   5.164   1.794   5.548 -0.1471 -0.9989  0.5031
 2411SOL    HW2 8133   5.289   1.894   5.580 -0.5828 -0.3783  0.2781
 2412SOL     OW 8134   4.945   3.408   1.204 -0.2693  0.1979 -0.0631
 2412SOL    HW1 8135   4.973   3.406   1.108  1.5469  0.8369  0.4081
 2412SOL    HW2 8136   4.852   3.444   1.211  0.6043  3.0033 -1.3896
 2413SOL     OW 8137   2.502   0.254   3.624 -0.1723  0.0916  0.3932
 2413SOL    HW1 8138   2.502   0.284   3.529 -0.0318  1.5322  0.8324
 2413SOL    HW2 8139   2.466   0.326   3.683  0.2230 -0.5832  1.5015
 2414SOL     OW 8140   4.986   3.915   4.156 -0.5480  0.0299  0.1547
 2414SOL    HW1 8141   5.060   3.903   4.222 -2.0708 -1.0165  1.7602
 2414SOL    HW2 8142   4.919   3.841   4.167 -1.9433  1.0555 -1.0697
 2415SOL     OW 8143   3.521   0.297   3.659 -0.2168  0.6145  0.1071
 2415SOL    HW1 8144   3.528   0.264   3.753  0.2512  0.4424  0.0149
 2415SOL    HW2 8145   3.599   0.264   3.606  1.0889  3.0233  0.3576
 2416SOL     OW 8146   4.567   3.038   0.267  0.4993  0.3678  0.1910
 2416SOL    HW1 8147   4.631   3.025   0.192  0.8315 -0.4544  0.6112
 2416SOL    HW2 8148   4.544   2.950   0.308 -1.1611  0.6068 -0.1502
 2417SOL     OW 8149   3.485   3.854   6.813 -0.2838  0.6091  0.2447
 2417SOL    HW1 8150   3.556   3.801   6.766 -0.6103 -0.3781  0.8529
 2417SOL    HW2 8151   3.519   3.946   6.831  0.9546  0.0732  0.7634
 2418SOL     OW 8152   3.980   3.481   2.296 -0.5319 -0.3236 -0.1200
 2418SOL    HW1 8153   4.054   3.511   2.237  0.8033  0.7127  1.9757
 2418SOL    HW2 8154   3.892   3.509   2.257  0.4628  3.8613  0.1919
 2419SOL     OW 8155   0.119   6.214   4.010 -1.0391 -0.0704  0.3408
 2419SOL    HW1 8156   0.183   6.206   4.086  0.5242  0.6316 -0.8603
 2419SOL    HW2 8157   0.035   6.260   4.042  0.1200  1.4419  1.3560
 2420SOL     OW 8158   1.794   1.126   2.206 -0.6671 -0.0332  0.1216
 2420SOL    HW1 8159   1.888   1.158   2.215 -1.0183  1.1720 -0.3215
 2420SOL    HW2 8160   1.734   1.203   2.184 -1.5833 -0.9808 -0.8199
 2421SOL     OW 8161   4.547   1.185   3.211 -0.0599 -0.6521  0.5085
 2421SOL    HW1 8162   4.476   1.239   3.258 -0.8568 -0.5872 -0.7308
 2421SOL    HW2 8163   4.637   1.221   3.236 -0.4753 -0.3042  1.5846
 2422SOL     OW 8164   0.075   0.853   1.732  0.0935 -0.5019  0.7369
 2422SOL    HW1 8165   0.034   0.805   1.810 -1.0326 -0.1086  0.3992
 2422SOL    HW2 8166   0.166   0.886   1.758 -0.5801  0.3191  2.1488
 2423SOL     OW 8167   0.899   6.437   3.493  0.6073  0.0265  0.2601
 2423SOL    HW1 8168   0.993   6.435   3.459  1.0084 -1.2144  1.3528
 2423SOL    HW2 8169   0.877   6.349   3.534 -1.4523 -0.1286 -1.0374
 2424SOL     OW 8170   0.575   5.887   6.597 -0.5753  0.9483 -0.1012
 2424SOL    HW1 8171   0.634   5.963   6.569 -0.1683  1.0985  1.1110
 2424SOL    HW2 8172   0.552   5.896   6.694 -1.1580 -0.0581 -0.1333
 2425SOL     OW 8173   5.763   1.320   2.993  0.6578  0.4337  0.0677
 2425SOL    HW1 8174   5.721   1.231   3.010  1.7213 -0.1905 -0.4478
 2425SOL    HW2 8175   5.843   1.308   2.934  1.9285  1.4861  1.5064
 2426SOL     OW 8176   1.179   6.020   4.286  0.6625  0.1137 -0.9385
 2426SOL    HW1 8177   1.245   6.032   4.360 -0.3657  2.0994 -0.2722
 2426SOL    HW2 8178   1.104   5.962   4.317  1.5675 -1.3223 -1.3684
 2427SOL     OW 8179   5.538   6.449   5.292  0.0252  0.0458 -0.1871
 2427SOL    HW1 8180   5.581   6.402   5.368 -0.3233 -0.6595 -0.4166
 2427SOL    HW2 8181   5.567   6.407   5.206 -0.7350 -0.1283 -0.3641
 2428SOL     OW 8182   6.515   1.355   0.467  0.8801 -0.0830 -0.2536
 2428SOL    HW1 8183   6.475   1.411   0.395 -0.6616 -2.1045 -1.0816
 2428SOL    HW2 8184   6.590   1.301   0.430  0.0389 -1.1792 -0.4254
 2429SOL     OW 8185   4.950   3.300   1.623  0.3445  0.2120 -0.1435
 2429SOL    HW1 8186   4.874   3.365   1.628  0.2646  0.0589  1.2188
 2429SOL    HW2 8187   5.028   3.336   1.676  0.5082 -0.5178  0.1258
 2430SOL     OW 8188   4.359   0.469   2.154 -0.0309  0.5549 -0.1427
 2430SOL    HW1 8189   4.359   0.435   2.060 -2.2109 -1.7318  0.5848
 2430SOL    HW2 8190   4.270   0.509   2.174  0.9964  2.6869  0.4726
 2431SOL     OW 8191   5.595   6.332   2.363  0.0834  0.3028  0.1253
 2431SOL    HW1 8192   5.671   6.382   2.403  1.7868 -2.9545  1.2592
 2431SOL    HW2 8193   5.530   6.307   2.434  0.7184 -1.4645  0.1312
 2432SOL     OW 8194   1.238   5.741   4.099  0.4087  0.5665 -0.6195
 2432SOL    HW1 8195   1.261   5.824   4.149  1.1172  0.0017  0.0109
 2432SOL    HW2 8196   1.311   5.719   4.035  0.8391 -0.2655  0.1348
 2433SOL     OW 8197   4.202   0.974   0.301  0.1133  0.5609 -0.0549
 2433SOL    HW1 8198   4.194   0.885   0.346  1.0890  0.9096  0.8539
 2433SOL    HW2 8199   4.127   1.033   0.331 -1.4298 -0.3886 -1.8112
 2434SOL     OW 8200   5.587   4.200   5.590 -0.7026  0.2594  0.0254
 2434SOL    HW1 8201   5.663   4.204   5.526  0.2602 -3.9147  0.6237
 2434SOL    HW2 8202   5.508   4.157   5.546 -0.6196 -1.0149  1.0457
 2435SOL     OW 8203   5.475   4.746   6.345  0.2286 -0.5774  0.5161
 2435SOL    HW1 8204   5.555   4.790   6.388  0.0844  1.0446 -0.7890
 2435SOL    HW2 8205   5.402   4.738   6.413  0.7200  0.0048  1.1368
 2436SOL     OW 8206   3.276   4.317   6.367  0.4653 -0.5104  0.2839
 2436SOL    HW1 8207   3.359   4.269   6.395  1.5389  1.6741  1.1197
 2436SOL    HW2 8208   3.302   4.398   6.313 -1.1232  0.1508  0.4760
 2437SOL     OW 8209   1.766   2.776   5.581 -0.6888  0.2456  0.2233
 2437SOL    HW1 8210   1.861   2.795   5.555 -0.2513  2.3706  2.9561
 2437SOL    HW2 8211   1.756   2.678   5.601  1.3092  0.1855  1.1518
 2438SOL     OW 8212   4.225   3.736   6.862 -0.3159  0.1152  0.7985
 2438SOL    HW1 8213   4.318   3.748   6.827 -0.9667  1.0955 -0.7194
 2438SOL    HW2 8214   4.165   3.805   6.821 -1.8744 -0.9931  1.1094
 2439SOL     OW 8215   0.245   3.337   1.397 -0.2797  0.1388  0.0619
 2439SOL    HW1 8216   0.171   3.271   1.400  1.0410 -1.3832  0.3540
 2439SOL    HW2 8217   0.264   3.362   1.302  0.7643 -1.7905 -0.2906
 2440SOL     OW 8218   6.112   5.513   4.784 -0.0088  0.4546  0.0313
 2440SOL    HW1 8219   6.155   5.423   4.790 -1.2117 -0.1956 -0.5711
 2440SOL    HW2 8220   6.136   5.568   4.864 -0.3307 -0.9062  1.0902
 2441SOL     OW 8221   0.158   1.084   6.935 -0.1687  0.4722 -0.6635
 2441SOL    HW1 8222   0.131   1.163   6.880  3.7714  1.6637 -1.1546
 2441SOL    HW2 8223   0.222   1.027   6.883 -2.1561 -2.6749  0.0302
 2442SOL     OW 8224   0.277   2.076   4.187  0.2617  0.1980 -0.1868
 2442SOL    HW1 8225   0.203   2.009   4.180  1.4990 -1.3660  0.9878
 2442SOL    HW2 8226   0.254   2.144   4.256 -0.9014  0.9068 -1.2216
 2443SOL     OW 8227   4.612   6.698   5.164  0.2568  0.2576 -0.1770
 2443SOL    HW1 8228   4.615   6.797   5.152 -0.7595  0.3062 -0.1086
 2443SOL    HW2 8229   4.637   6.675   5.258  0.9545  0.4016 -0.3169
 2444SOL     OW 8230   1.218   1.534   5.283  0.3755  0.6124  0.0762
 2444SOL    HW1 8231   1.268   1.599   5.225 -0.4063  2.7852  1.7007
 2444SOL    HW2 8232   1.126   1.520   5.247  0.1198  1.4271  0.3941
 2445SOL     OW 8233   1.709   1.643   0.559  0.0243  0.2748  0.7424
 2445SOL    HW1 8234   1.677   1.550   0.580  0.1721  0.4197  1.6405
 2445SOL    HW2 8235   1.768   1.640   0.478  2.1354 -0.8407  2.2202
 2446SOL     OW 8236   5.675   1.068   0.726 -0.1681 -0.0088 -0.2008
 2446SOL    HW1 8237   5.771   1.075   0.700 -0.5318 -1.0559 -2.0373
 2446SOL    HW2 8238   5.662   0.992   0.789  0.3056  0.6376  0.6892
 2447SOL     OW 8239   0.765   3.254   6.036 -0.1652  0.1244  0.2975
 2447SOL    HW1 8240   0.717   3.177   6.078 -3.1371  1.3690 -0.5257
 2447SOL    HW2 8241   0.752   3.252   5.937 -3.1445  3.2285  0.4364
 2448SOL     OW 8242   5.449   1.251   5.756  0.2335 -0.4142 -0.1093
 2448SOL    HW1 8243   5.391   1.262   5.675  0.6922  0.2222 -0.3567
 2448SOL    HW2 8244   5.504   1.168   5.747  1.0770  0.2155 -0.9596
 2449SOL     OW 8245   4.212   2.188   6.947 -0.1499  0.0793  0.0331
 2449SOL    HW1 8246   4.215   2.166   6.849  0.9412  2.4059 -0.5288
 2449SOL    HW2 8247   4.305   2.194   6.982 -0.4774  1.0074  0.7759
 2450SOL     OW 8248   4.078   1.224   1.532  0.7811  0.4287  0.1087
 2450SOL    HW1 8249   4.062   1.292   1.461  2.2855  0.6496 -0.0501
 2450SOL    HW2 8250   4.137   1.263   1.603  0.7788 -0.3686  0.5615
 2451SOL     OW 8251   1.415   5.077   2.411  0.0062 -0.4239 -0.2308
 2451SOL    HW1 8252   1.452   5.150   2.468 -1.6367 -1.2033  2.0263
 2451SOL    HW2 8253   1.381   5.003   2.470 -1.5783 -1.4213 -2.2635
 2452SOL     OW 8254   3.722   1.365   1.983 -0.0256 -0.4598  0.1822
 2452SOL    HW1 8255   3.747   1.439   1.920 -3.0163 -0.5740 -1.3138
 2452SOL    HW2 8256   3.673   1.404   2.061 -0.0349 -0.7180  0.3051
 2453SOL     OW 8257   0.862   4.405   2.623  0.8130 -0.1783 -0.1039
 2453SOL    HW1 8258   0.873   4.364   2.713  0.9526 -0.1044 -0.0877
 2453SOL    HW2 8259   0.895   4.499   2.624 -2.0142  0.9057  0.5910
 2454SOL     OW 8260   5.620   5.144   1.405  0.2808  0.1954 -0.3196
 2454SOL    HW1 8261   5.681   5.133   1.484  0.8145 -1.0904 -0.8820
 2454SOL    HW2 8262   5.669   5.189   1.330  0.2992 -0.1425 -0.5104
 2455SOL     OW 8263   6.061   3.761   0.181  0.5206  0.5253 -0.3040
 2455SOL    HW1 8264   5.995   3.704   0.132  1.5893 -1.4660  0.4588
 2455SOL    HW2 8265   6.078   3.722   0.271  3.2939  0.4623 -0.7610
 2456SOL     OW 8266   1.756   1.803   0.779 -0.1069 -0.2322 -0.0760
 2456SOL    HW1 8267   1.716   1.734   0.720  0.3579  0.5169 -1.3031
 2456SOL    HW2 8268   1.767   1.888   0.728  0.3511  0.4265  1.0815
 2457SOL     OW 8269   4.526   5.743   0.666 -0.2925 -0.5294 -0.0100
 2457SOL    HW1 8270   4.583   5.825   0.673 -0.2159 -0.4021 -1.6442
 2457SOL    HW2 8271   4.503   5.726   0.570 -1.0661 -1.9176  0.3801
 2458SOL     OW 8272   1.264   6.877   3.241  0.4202  0.8081  0.1585
 2458SOL    HW1 8273   1.288   6.855   3.146 -1.4160 -0.9907  0.0370
 2458SOL    HW2 8274   1.347   6.896   3.293  1.7555 -1.0744 -1.1264
 2459SOL     OW 8275   0.440   1.565   1.266  0.1405  0.4066  0.3229
 2459SOL    HW1 8276   0.431   1.466   1.281 -0.9138  0.3829 -0.3970
 2459SOL    HW2 8277   0.352   1.609   1.281  0.2071  1.0189 -0.9842
 2460SOL     OW 8278   1.353   3.552   1.061 -0.0873 -0.2919  0.4283
 2460SOL    HW1 8279   1.312   3.562   0.970  1.0669 -1.1596 -0.2134
 2460SOL    HW2 8280   1.449   3.579   1.058  0.0551 -0.6591  1.3110
 2461SOL     OW 8281   4.568   0.676   3.756  0.1341  0.4509  0.6617
 2461SOL    HW1 8282   4.523   0.593   3.788  1.8458 -0.6059  0.4610
 2461SOL    HW2 8283   4.595   0.731   3.835 -0.9615  0.8091  0.7984
 2462SOL     OW 8284   4.087   3.229   6.368 -0.6140  0.2380 -0.5370
 2462SOL    HW1 8285   4.156   3.295   6.338  0.6235 -0.9614 -0.4101
 2462SOL    HW2 8286   4.122   3.175   6.444 -1.4162 -0.8917 -0.9357
 2463SOL     OW 8287   2.150   3.529   6.285  0.2528 -0.1655 -0.0086
 2463SOL    HW1 8288   2.194   3.585   6.215 -0.2504 -1.9308 -1.8385
 2463SOL    HW2 8289   2.206   3.529   6.368  1.1244  1.5929 -0.5583
 2464SOL     OW 8290   1.728   3.041   0.545  0.1469  0.1200  0.2343
 2464SOL    HW1 8291   1.728   2.958   0.489 -0.7978  0.0370  0.3483
 2464SOL    HW2 8292   1.781   3.113   0.498  0.6071 -0.4045 -0.0629
 2465SOL     OW 8293   0.457   5.755   2.478 -0.7460 -0.1658 -0.4105
 2465SOL    HW1 8294   0.480   5.842   2.521  0.3197  0.1713 -1.6102
 2465SOL    HW2 8295   0.515   5.683   2.516  1.4236  0.4287 -2.3987
 2466SOL     OW 8296   5.554   2.438   6.640 -0.1458  0.8365 -0.0780
 2466SOL    HW1 8297   5.573   2.356   6.585  0.2370  2.0050 -1.7702
 2466SOL    HW2 8298   5.638   2.467   6.686 -0.7619 -0.9136  2.3204
 2467SOL     OW 8299   0.071   1.506   3.728  0.6113  0.0761  0.6768
 2467SOL    HW1 8300   0.106   1.599   3.746  0.9616  0.3261 -1.1188
 2467SOL    HW2 8301   0.139   1.455   3.675 -0.0784 -0.8174  0.6359
 2468SOL     OW 8302   6.381   3.134   0.350  0.2789  0.0513 -0.1535
 2468SOL    HW1 8303   6.368   3.038   0.373  0.1370 -0.5211 -2.3966
 2468SOL    HW2 8304   6.478   3.156   0.351  0.5385 -0.8232 -2.0402
 2469SOL     OW 8305   2.880   0.854   3.107 -0.1324  0.6797 -0.0496
 2469SOL    HW1 8306   2.968   0.851   3.059 -0.1113 -0.5825  0.0461
 2469SOL    HW2 8307   2.820   0.920   3.061  0.8493  1.5294 -0.1289
 2470SOL     OW 8308   3.423   1.711   2.503  0.4639 -0.1078 -0.5916
 2470SOL    HW1 8309   3.364   1.649   2.451  0.5404 -0.0154 -0.7904
 2470SOL    HW2 8310   3.502   1.662   2.537  0.6631 -0.0585 -0.9810
 2471SOL     OW 8311   1.638   1.569   1.900  0.3721 -0.4507 -0.4254
 2471SOL    HW1 8312   1.604   1.579   1.806 -0.4191 -0.2194 -0.1208
 2471SOL    HW2 8313   1.571   1.519   1.955 -0.0251  0.9883  0.4674
 2472SOL     OW 8314   6.586   6.846   4.858  0.1549  0.5542 -0.6773
 2472SOL    HW1 8315   6.555   6.801   4.941  1.5928 -1.0648 -0.9759
 2472SOL    HW2 8316   6.658   6.792   4.815 -1.0891  0.9096 -3.4293
 2473SOL     OW 8317   1.754   4.830   3.411  0.3693  0.5557  0.1184
 2473SOL    HW1 8318   1.707   4.825   3.500  0.4629 -0.4124  0.1286
 2473SOL    HW2 8319   1.751   4.740   3.368 -1.4986  1.4507 -1.8109
 2474SOL     OW 8320   6.032   0.866   3.100 -0.0081 -0.0213 -0.1037
 2474SOL    HW1 8321   5.985   0.800   3.158  0.2377  0.5951  0.8075
 2474SOL    HW2 8322   6.024   0.957   3.140 -1.3388  0.7240 -1.9226
 2475SOL     OW 8323   3.232   1.520   0.192 -0.8737 -0.1961  0.1686
 2475SOL    HW1 8324   3.330   1.528   0.211 -0.1151 -0.3660 -3.1102
 2475SOL    HW2 8325   3.184   1.600   0.229  0.6747  0.4729  0.8072
 2476SOL     OW 8326   0.825   3.312   4.136 -0.5793 -0.0387  0.3579
 2476SOL    HW1 8327   0.765   3.321   4.215 -1.7178  0.0749 -0.4825
 2476SOL    HW2 8328   0.826   3.398   4.085 -1.4041 -0.6825 -0.7856
 2477SOL     OW 8329   5.437   4.965   2.104  0.4751  0.1371 -0.1573
 2477SOL    HW1 8330   5.536   4.970   2.092  0.4142 -0.7627 -1.1840
 2477SOL    HW2 8331   5.399   5.057   2.101  1.1764  0.4187 -0.8273
 2478SOL     OW 8332   0.819   1.683   1.163 -0.0248  0.6110 -0.2355
 2478SOL    HW1 8333   0.759   1.752   1.123  0.9972  1.4138 -0.4163
 2478SOL    HW2 8334   0.766   1.626   1.226 -1.3117  0.3327 -1.4868
 2479SOL     OW 8335   0.541   1.036   1.340  0.0872 -0.0455 -0.1943
 2479SOL    HW1 8336   0.551   0.942   1.372 -1.5062 -0.2096 -0.1354
 2479SOL    HW2 8337   0.557   1.041   1.242  1.2555 -0.1769 -0.0222
 2480SOL     OW 8338   0.146   4.457   5.945 -0.9974 -0.3985  0.3355
 2480SOL    HW1 8339   0.167   4.401   5.864 -0.8740  0.4549 -0.2379
 2480SOL    HW2 8340   0.222   4.452   6.009 -0.9016 -0.7318  0.2004
 2481SOL     OW 8341   5.177   4.648   3.159 -0.5535  0.3622 -0.1215
 2481SOL    HW1 8342   5.137   4.573   3.212  1.6794 -1.1098 -0.3684
 2481SOL    HW2 8343   5.218   4.715   3.221  1.5099 -1.0464  0.1574
 2482SOL     OW 8344   3.212   1.704   6.726  0.0714  0.2353  0.2716
 2482SOL    HW1 8345   3.160   1.749   6.799  0.9335  1.4410  0.1814
 2482SOL    HW2 8346   3.236   1.772   6.656  0.2797 -0.6588 -0.5438
 2483SOL     OW 8347   0.545   2.703   6.846 -0.5498 -0.8226  0.3429
 2483SOL    HW1 8348   0.568   2.612   6.810  0.2248 -0.0660 -1.1720
 2483SOL    HW2 8349   0.615   2.769   6.819 -1.9642  0.5764 -0.0751
 2484SOL     OW 8350   3.640   4.075   6.826 -0.3108 -0.1026  0.4420
 2484SOL    HW1 8351   3.598   4.153   6.781  1.7529  0.8522  0.0333
 2484SOL    HW2 8352   3.660   4.099   6.922 -1.5994 -0.9239  0.9453
 2485SOL     OW 8353   0.475   4.912   5.845  0.6062  0.1062  0.7339
 2485SOL    HW1 8354   0.450   4.996   5.796  0.0507  0.6586  1.9246
 2485SOL    HW2 8355   0.412   4.897   5.921  1.7502 -0.4225  1.6263
 2486SOL     OW 8356   6.187   3.969   4.504  0.3454 -0.3958  0.0072
 2486SOL    HW1 8357   6.117   4.040   4.504 -0.9015 -1.4030 -4.0259
 2486SOL    HW2 8358   6.276   4.011   4.525 -0.8852  1.4931  1.9267
 2487SOL     OW 8359   2.497   6.543   2.361 -0.0914  0.0272 -0.1535
 2487SOL    HW1 8360   2.464   6.520   2.453 -1.2908 -0.9950 -0.8200
 2487SOL    HW2 8361   2.422   6.536   2.296  0.7630  0.6930 -1.2282
 2488SOL     OW 8362   3.229   5.311   5.305  0.4939 -0.1548  0.4583
 2488SOL    HW1 8363   3.233   5.408   5.285 -2.5314 -0.0845 -0.3353
 2488SOL    HW2 8364   3.309   5.265   5.266  0.3457  1.5549 -2.1082
 2489SOL     OW 8365   6.411   6.220   6.326  0.6259 -0.0798 -0.3686
 2489SOL    HW1 8366   6.367   6.248   6.241  0.0419 -0.6537 -0.2632
 2489SOL    HW2 8367   6.380   6.129   6.351  1.7193 -0.4059 -0.1672
 2490SOL     OW 8368   5.216   2.909   0.827  0.2260  0.0301  0.2731
 2490SOL    HW1 8369   5.183   2.821   0.861  1.3318 -0.2201  0.7128
 2490SOL    HW2 8370   5.198   2.915   0.728 -1.5783  0.1228  0.5748
 2491SOL     OW 8371   6.719   1.788   3.341 -0.4974  0.9457 -0.3406
 2491SOL    HW1 8372   6.685   1.766   3.249 -0.8243  0.0284 -0.0100
 2491SOL    HW2 8373   6.651   1.844   3.389 -1.6888 -1.0418  0.3878
 2492SOL     OW 8374   5.463   2.094   6.887  0.3147 -0.0044  0.1252
 2492SOL    HW1 8375   5.507   2.107   6.976 -0.2922 -3.0544  0.9803
 2492SOL    HW2 8376   5.533   2.076   6.818  0.6715 -0.2968  0.5520
 2493SOL     OW 8377   6.902   0.100   4.924  0.5691 -0.4387  0.0637
 2493SOL    HW1 8378   6.821   0.090   4.982  1.5139 -0.0450  1.4937
 2493SOL    HW2 8379   6.918   0.197   4.905  0.5608 -0.5315 -0.4214
 2494SOL     OW 8380   6.702   5.659   0.770 -0.1530 -0.2642 -0.7094
 2494SOL    HW1 8381   6.727   5.750   0.803 -3.6061  1.3372 -2.0703
 2494SOL    HW2 8382   6.654   5.610   0.842  0.6901 -0.5977 -0.3574
 2495SOL     OW 8383   0.934   0.765   2.248  0.1301 -0.0936  0.1244
 2495SOL    HW1 8384   0.889   0.734   2.332 -0.2910  0.9871  0.3023
 2495SOL    HW2 8385   0.971   0.857   2.262  0.7377 -0.2154 -0.6306
 2496SOL     OW 8386   2.117   3.537   1.314  0.2848 -0.1927 -0.0657
 2496SOL    HW1 8387   2.086   3.628   1.341 -0.9748 -0.7217  0.3331
 2496SOL    HW2 8388   2.054   3.499   1.247  0.7080 -0.8506 -0.0978
 2497SOL     OW 8389   5.680   0.623   0.935  0.0806 -0.4941  0.1444
 2497SOL    HW1 8390   5.599   0.616   0.994  0.1475 -0.4226  0.2454
 2497SOL    HW2 8391   5.652   0.622   0.839 -0.5804  4.7254  0.0133
 2498SOL     OW 8392   2.050   4.595   6.988 -0.1093  0.1458 -0.2052
 2498SOL    HW1 8393   2.102   4.677   7.014  0.0159 -0.3905  1.3064
 2498SOL    HW2 8394   1.980   4.577   7.057  0.8276 -1.8583  0.2675
 2499SOL     OW 8395   6.592   1.238   6.154 -0.5262  0.3617 -0.2945
 2499SOL    HW1 8396   6.552   1.149   6.174 -0.5178  0.0709 -1.5511
 2499SOL    HW2 8397   6.619   1.282   6.240  0.4258 -1.2826  0.2758
 2500SOL     OW 8398   5.388   3.630   5.413  0.5506  0.4398 -0.3940
 2500SOL    HW1 8399   5.407   3.533   5.398 -0.2228  0.0346  1.0499
 2500SOL    HW2 8400   5.292   3.650   5.391  0.3778  0.6017  0.4702
 2501SOL     OW 8401   3.291   5.852   1.546  0.8061  0.3630  0.2362
 2501SOL    HW1 8402   3.195   5.835   1.566  0.4274 -1.0592 -2.3437
 2501SOL    HW2 8403   3.298   5.926   1.478  1.5922  0.9466  0.9419
 2502SOL     OW 8404   6.913   5.787   2.831 -0.5431 -0.1241 -0.2446
 2502SOL    HW1 8405   6.963   5.853   2.775 -1.5458  0.9688  0.1054
 2502SOL    HW2 8406   6.840   5.834   2.881 -0.7545 -1.3688  0.6626
 2503SOL     OW 8407   5.349   4.408   3.340  0.4278 -0.0925  0.1271
 2503SOL    HW1 8408   5.380   4.464   3.417  1.9589  2.0315 -1.8689
 2503SOL    HW2 8409   5.250   4.394   3.346  0.1270  2.0600  1.2820
 2504SOL     OW 8410   3.115   4.953   1.306  0.2128  0.2570  0.3261
 2504SOL    HW1 8411   3.144   4.916   1.218 -0.7785 -0.1116  0.1394
 2504SOL    HW2 8412   3.186   4.936   1.375 -0.2157 -2.0718  0.2687
 2505SOL     OW 8413   4.687   4.473   3.491 -0.4854 -0.0553  0.1022
 2505SOL    HW1 8414   4.665   4.410   3.416 -0.7811  0.4824 -0.2626
 2505SOL    HW2 8415   4.745   4.425   3.558 -0.4776 -0.6319 -0.3076
 2506SOL     OW 8416   1.347   2.203   0.126  0.4198 -0.0251 -0.3092
 2506SOL    HW1 8417   1.314   2.293   0.157  0.2574  0.6923 -2.3962
 2506SOL    HW2 8418   1.283   2.165   0.060  0.4937 -1.7215  0.5340
 2507SOL     OW 8419   0.078   6.687   0.827  0.1531 -0.2745  0.2708
 2507SOL    HW1 8420   0.130   6.627   0.888  0.2943 -0.0666  0.3542
 2507SOL    HW2 8421   0.096   6.782   0.850 -0.8485 -0.1924  0.8106
 2508SOL     OW 8422   1.614   0.507   1.888 -0.0175  0.3637  0.3976
 2508SOL    HW1 8423   1.598   0.552   1.800  0.6723 -1.3786 -0.6794
 2508SOL    HW2 8424   1.536   0.450   1.911  0.3110 -0.1473  0.2705
 2509SOL     OW 8425   5.586   5.280   3.186 -0.1579  0.6364  0.7221
 2509SOL    HW1 8426   5.632   5.220   3.120  0.1492  2.9104 -1.2924
 2509SOL    HW2 8427   5.573   5.370   3.145 -1.3384  1.7457  3.3107
 2510SOL     OW 8428   3.597   5.374   2.473  0.6826  0.3424 -0.3361
 2510SOL    HW1 8429   3.559   5.329   2.554  2.4325  0.5066  0.6208
 2510SOL    HW2 8430   3.532   5.443   2.440  0.2387  0.8004  1.3843
 2511SOL     OW 8431   1.629   5.051   5.493 -0.0998  0.2993 -0.1226
 2511SOL    HW1 8432   1.726   5.029   5.504 -0.2021  0.3211  0.9581
 2511SOL    HW2 8433   1.586   5.053   5.583 -0.5556  2.8850 -0.3304
 2512SOL     OW 8434   6.581   2.010   3.616  0.1629  0.1973 -0.1587
 2512SOL    HW1 8435   6.519   2.015   3.537  1.4779 -0.1026 -1.2485
 2512SOL    HW2 8436   6.566   1.925   3.666 -0.2218  0.0707 -0.4894
 2513SOL     OW 8437   0.485   5.849   1.114 -0.0020 -0.8837  0.3180
 2513SOL    HW1 8438   0.546   5.803   1.178  0.1714  2.4391  2.8327
 2513SOL    HW2 8439   0.398   5.870   1.160 -0.9241 -0.6831 -1.4210
 2514SOL     OW 8440   0.397   3.706   3.369 -0.2179 -0.4159 -0.7435
 2514SOL    HW1 8441   0.359   3.696   3.461  0.6005 -0.3695 -0.3931
 2514SOL    HW2 8442   0.405   3.616   3.327 -0.4979 -0.4475 -0.7292
 2515SOL     OW 8443   0.030   5.233   6.171  0.6142 -0.0288  0.0675
 2515SOL    HW1 8444   0.082   5.295   6.112  1.3879 -1.3303 -0.6671
 2515SOL    HW2 8445   0.093   5.182   6.230 -0.0783  0.5589  1.3545
 2516SOL     OW 8446   3.486   0.475   4.852  0.3803  0.1025  0.4622
 2516SOL    HW1 8447   3.511   0.565   4.817  1.4323  0.0388  1.0174
 2516SOL    HW2 8448   3.514   0.467   4.948 -1.1879 -0.2352  0.9258
 2517SOL     OW 8449   3.018   0.199   6.950 -0.9378  0.2286  0.4575
 2517SOL    HW1 8450   2.944   0.153   7.000 -1.0308  0.4108  0.4880
 2517SOL    HW2 8451   3.072   0.254   7.014  0.7717 -1.8504  0.9143
 2518SOL     OW 8452   1.272   1.868   0.574 -0.2493 -0.3079  0.4379
 2518SOL    HW1 8453   1.263   1.957   0.529  2.5324  0.2328  0.7468
 2518SOL    HW2 8454   1.251   1.876   0.671 -1.1212 -0.2603  0.2468
 2519SOL     OW 8455   6.158   3.207   1.624 -0.0548 -0.3746  0.5159
 2519SOL    HW1 8456   6.077   3.250   1.585  0.2381  0.6089  0.9693
 2519SOL    HW2 8457   6.231   3.274   1.634  1.0442 -1.3724 -0.4377
 2520SOL     OW 8458   2.868   5.852   0.798  0.2631 -0.5409 -0.3573
 2520SOL    HW1 8459   2.961   5.835   0.830  1.3014  0.6599 -2.5205
 2520SOL    HW2 8460   2.863   5.836   0.699 -2.3625 -2.4729 -0.0272
 2521SOL     OW 8461   5.108   6.439   4.677 -0.8489 -0.6326 -0.1404
 2521SOL    HW1 8462   5.127   6.448   4.579  1.3486  1.1132  0.3651
 2521SOL    HW2 8463   5.170   6.372   4.718  0.3884  0.8422  0.5172
 2522SOL     OW 8464   3.707   6.642   5.183 -0.1791 -0.0668  0.1527
 2522SOL    HW1 8465   3.778   6.618   5.250  0.5282  1.4153 -0.0165
 2522SOL    HW2 8466   3.627   6.677   5.231 -0.8190 -1.7149  0.3441
 2523SOL     OW 8467   1.454   0.681   0.307  0.3573  0.6187  0.4814
 2523SOL    HW1 8468   1.392   0.644   0.376  1.0501 -0.4754  0.5518
 2523SOL    HW2 8469   1.487   0.771   0.336 -2.0178  1.7319 -0.0789
 2524SOL     OW 8470   0.963   0.364   4.201  0.2054 -0.5368 -0.6496
 2524SOL    HW1 8471   1.013   0.365   4.114 -1.3333 -2.0706 -1.6055
 2524SOL    HW2 8472   0.883   0.305   4.193 -2.2056  2.2974  0.6232
 2525SOL     OW 8473   2.259   5.717   1.994  0.0785 -0.2485  0.2049
 2525SOL    HW1 8474   2.206   5.759   2.067  0.2791  0.5989 -0.1211
 2525SOL    HW2 8475   2.310   5.788   1.945 -0.3170 -0.7553 -0.9694
 2526SOL     OW 8476   6.363   0.767   5.097 -0.0875  0.0301  0.1115
 2526SOL    HW1 8477   6.363   0.858   5.139  0.3376 -0.4650  1.2192
 2526SOL    HW2 8478   6.361   0.776   4.998  0.4226  1.2577  0.1989
 2527SOL     OW 8479   6.822   6.304   5.008 -0.1193 -0.0028  0.3813
 2527SOL    HW1 8480   6.749   6.359   5.049 -0.2114 -1.0294  1.6885
 2527SOL    HW2 8481   6.786   6.215   4.980  0.6360 -0.5959  1.2100
 2528SOL     OW 8482   6.030   4.355   2.464 -0.2506  0.1143  0.2822
 2528SOL    HW1 8483   6.094   4.387   2.394 -1.5865  2.5735  0.0962
 2528SOL    HW2 8484   5.952   4.310   2.420 -1.3569  2.1425  0.0857
 2529SOL     OW 8485   5.985   5.666   4.573  0.3091 -0.3164  0.1304
 2529SOL    HW1 8486   6.065   5.634   4.624  0.3872  2.0754  1.6466
 2529SOL    HW2 8487   6.014   5.728   4.500 -0.1380  1.6928  1.5688
 2530SOL     OW 8488   2.113   5.044   1.366  0.2128 -0.1670 -0.0282
 2530SOL    HW1 8489   2.028   5.049   1.418 -0.2557  1.0563 -0.8420
 2530SOL    HW2 8490   2.095   5.000   1.277  0.4621 -0.0620 -0.1304
 2531SOL     OW 8491   5.122   1.036   6.678 -0.3071  0.4185 -0.3691
 2531SOL    HW1 8492   5.166   0.953   6.642  0.6752  0.7341  0.0809
 2531SOL    HW2 8493   5.080   1.086   6.602  0.1047  0.0992 -0.8189
 2532SOL     OW 8494   0.016   4.673   5.681  0.1431  0.4022  0.5642
 2532SOL    HW1 8495   0.111   4.685   5.712  0.2748  1.1405 -0.0919
 2532SOL    HW2 8496  -0.035   4.624   5.751  0.7958  0.7558  1.3132
 2533SOL     OW 8497   4.559   1.802   3.412 -0.6774  0.2200 -0.4862
 2533SOL    HW1 8498   4.463   1.775   3.408 -0.9444  1.0411  0.0104
 2533SOL    HW2 8499   4.566   1.895   3.449  0.2848  0.3233 -0.8945
 2534SOL     OW 8500   7.005   5.288   2.722  0.7372  0.3923 -0.4706
 2534SOL    HW1 8501   6.962   5.359   2.776  1.3493  1.6330 -1.5432
 2534SOL    HW2 8502   6.960   5.281   2.633 -0.4189 -1.7835  0.2193
 2535SOL     OW 8503   4.127   0.848   2.755  0.2558  0.2637  0.5440
 2535SOL    HW1 8504   4.096   0.753   2.760 -0.1435  0.4297  1.4775
 2535SOL    HW2 8505   4.072   0.897   2.687  0.4331 -0.1562  0.0931
 2536SOL     OW 8506   1.604   6.742   4.357  0.5574 -0.3474 -0.1216
 2536SOL    HW1 8507   1.622   6.644   4.342 -0.2000 -0.6270  0.6884
 2536SOL    HW2 8508   1.506   6.759   4.350  0.7349  0.4668 -0.7810
 2537SOL     OW 8509   3.241   5.225   2.299 -0.1457 -0.1336  0.3713
 2537SOL    HW1 8510   3.205   5.138   2.268 -0.6861  0.3514 -0.3986
 2537SOL    HW2 8511   3.275   5.216   2.393  0.6418 -1.3893 -0.0166
 2538SOL     OW 8512   6.871   0.655   5.092  0.0570  0.1788 -0.1679
 2538SOL    HW1 8513   6.928   0.720   5.041 -1.4240  1.0133 -0.8138
 2538SOL    HW2 8514   6.786   0.640   5.043  0.0553 -1.7181  0.3537
 2539SOL     OW 8515   1.318   0.020   4.934  0.1744  0.5750 -0.0109
 2539SOL    HW1 8516   1.402   0.044   4.885  1.6470  0.8492  2.4817
 2539SOL    HW2 8517   1.298   0.090   5.003 -1.0670 -0.4199  0.6826
 2540SOL     OW 8518   6.251   3.044   0.890 -0.0619  0.4575 -0.1693
 2540SOL    HW1 8519   6.183   3.028   0.818 -0.8063 -1.1383  0.8441
 2540SOL    HW2 8520   6.342   3.046   0.849 -0.6130  1.6280 -1.4158
 2541SOL     OW 8521   2.926   2.503   6.560  0.7856 -0.0882 -0.0087
 2541SOL    HW1 8522   2.902   2.429   6.623  1.4561  0.8793  1.4414
 2541SOL    HW2 8523   3.024   2.501   6.542  0.4351 -1.0847 -2.0376
 2542SOL     OW 8524   5.486   2.824   1.991  0.0663  1.0681  0.0315
 2542SOL    HW1 8525   5.503   2.729   1.964 -0.7848  1.1837 -1.0008
 2542SOL    HW2 8526   5.444   2.873   1.914 -1.3411  1.7552  1.2003
 2543SOL     OW 8527   5.850   5.486   4.415  0.3397  0.1894  0.1906
 2543SOL    HW1 8528   5.838   5.511   4.319 -0.7016  0.2153  0.3079
 2543SOL    HW2 8529   5.924   5.539   4.455  0.3282  0.6819 -0.4222
 2544SOL     OW 8530   0.806   2.098   6.209  0.0671 -0.1920  0.2695
 2544SOL    HW1 8531   0.778   2.087   6.114  0.7038 -0.6877  0.1309
 2544SOL    HW2 8532   0.756   2.033   6.267 -0.2877  0.0796  0.2727
 2545SOL     OW 8533   0.037   0.079   1.360  0.0551 -0.1914  0.0051
 2545SOL    HW1 8534   0.122   0.036   1.329  1.1933  0.2729  2.3008
 2545SOL    HW2 8535   0.033   0.173   1.327  1.4254  0.4177  1.4831
 2546SOL     OW 8536   0.234   3.435   3.369 -0.6401 -0.1676  0.1969
 2546SOL    HW1 8537   0.181   3.395   3.444 -1.4905 -0.3910 -0.5055
 2546SOL    HW2 8538   0.195   3.523   3.343  0.3166  0.4283  0.7300
 2547SOL     OW 8539   5.679   2.666   1.754 -0.1834 -0.2346 -0.4483
 2547SOL    HW1 8540   5.765   2.687   1.800 -0.7299  0.2559  0.3789
 2547SOL    HW2 8541   5.649   2.746   1.701  0.3338 -0.7238 -1.5094
 2548SOL     OW 8542   4.897   6.866   0.187 -0.7909 -0.1112 -0.4056
 2548SOL    HW1 8543   4.839   6.880   0.267 -0.8783 -0.1597 -0.4598
 2548SOL    HW2 8544   4.961   6.943   0.178 -1.2410  0.2388 -0.6797
 2549SOL     OW 8545   2.968   3.976   5.940 -0.3801 -0.1619  0.0874
 2549SOL    HW1 8546   3.032   4.040   5.897  0.0733 -0.4403  0.3410
 2549SOL    HW2 8547   2.911   3.933   5.870 -0.4070  0.2089 -0.1232
 2550SOL     OW 8548   3.632   6.771   0.825  0.1018  0.2471  0.4386
 2550SOL    HW1 8549   3.600   6.735   0.738  2.1495 -2.2143  0.6040
 2550SOL    HW2 8550   3.685   6.854   0.810  0.3280 -0.0889 -0.6283
 2551SOL     OW 8551   2.680   3.737   0.147 -0.2284 -0.0878  0.6733
 2551SOL    HW1 8552   2.655   3.805   0.215 -0.6577 -0.2976  0.7255
 2551SOL    HW2 8553   2.734   3.780   0.074 -0.0858  0.2077  0.9548
 2552SOL     OW 8554   3.448   6.211   1.863 -0.1178 -0.2260 -0.2911
 2552SOL    HW1 8555   3.473   6.282   1.797  0.3435 -1.6117 -1.6634
 2552SOL    HW2 8556   3.372   6.244   1.920  2.1749  2.6036  1.3889
 2553SOL     OW 8557   4.239   1.784   2.214 -0.0575  0.8226 -0.0074
 2553SOL    HW1 8558   4.293   1.841   2.276 -0.0085  0.4948  0.2573
 2553SOL    HW2 8559   4.164   1.743   2.265  0.3229  0.0858 -0.0296
 2554SOL     OW 8560   1.014   5.385   6.206 -0.1648  0.2823 -0.1648
 2554SOL    HW1 8561   0.966   5.370   6.293  0.3852 -1.3574 -0.1094
 2554SOL    HW2 8562   0.982   5.319   6.138  1.8675 -0.7870 -0.1567
 2555SOL     OW 8563   1.362   6.008   3.817 -0.4520 -0.3182  0.2711
 2555SOL    HW1 8564   1.348   6.023   3.915  1.1861 -3.0758  1.0380
 2555SOL    HW2 8565   1.402   6.091   3.777 -1.7922  1.1240  1.7219
 2556SOL     OW 8566   5.311   6.182   1.252 -0.1232  0.1984  0.1780
 2556SOL    HW1 8567   5.405   6.151   1.237  0.0489  1.3461 -1.4595
 2556SOL    HW2 8568   5.257   6.108   1.291  1.5082 -0.4083  1.3816
 2557SOL     OW 8569   1.064   0.351   1.115 -0.3912 -0.9082 -0.0256
 2557SOL    HW1 8570   0.965   0.349   1.101 -0.6072  0.8016  0.9955
 2557SOL    HW2 8571   1.099   0.442   1.095  1.1477 -1.7080 -1.2284
 2558SOL     OW 8572   5.422   1.448   1.248 -0.0107 -0.1835  0.5715
 2558SOL    HW1 8573   5.482   1.369   1.252  0.7479  0.4267  2.5580
 2558SOL    HW2 8574   5.330   1.422   1.277 -0.7574 -1.0667 -2.2549
 2559SOL     OW 8575   5.218   5.805   3.257 -1.0105 -0.3704  0.7616
 2559SOL    HW1 8576   5.182   5.871   3.192 -1.1197 -1.4000 -0.2550
 2559SOL    HW2 8577   5.314   5.785   3.237 -0.6911  0.1960  1.6684
 2560SOL     OW 8578   2.243   1.988   6.668  0.0073 -0.7770 -0.7466
 2560SOL    HW1 8579   2.155   2.036   6.664  0.9522  1.1192 -0.3667
 2560SOL    HW2 8580   2.309   2.035   6.609  1.0931 -1.3856 -0.0555
 2561SOL     OW 8581   2.406   2.723   3.665 -0.2432  0.2305  0.0009
 2561SOL    HW1 8582   2.390   2.777   3.748  1.1016  3.5603 -1.7377
 2561SOL    HW2 8583   2.413   2.784   3.586  0.8811 -2.5988 -2.2593
 2562SOL     OW 8584   1.484   5.434   5.180 -0.0276  0.2204 -0.2961
 2562SOL    HW1 8585   1.548   5.419   5.255 -0.6895 -1.3613 -0.0069
 2562SOL    HW2 8586   1.525   5.401   5.094 -0.1487 -0.0516 -0.2484
 2563SOL     OW 8587   4.120   0.274   1.528 -0.5088  0.4522 -0.5607
 2563SOL    HW1 8588   4.031   0.229   1.538 -0.0043 -0.0634  3.3418
 2563SOL    HW2 8589   4.112   0.368   1.561 -0.1025  1.2714 -2.6519
 2564SOL     OW 8590   1.948   6.969   2.833  0.1420  1.0096 -0.4654
 2564SOL    HW1 8591   1.977   6.913   2.911  0.6476  1.2953 -0.4405
 2564SOL    HW2 8592   1.928   7.062   2.865 -1.1855  0.7318 -0.4186
 2565SOL     OW 8593   6.351   0.604   1.782  0.4367 -0.0549  0.2259
 2565SOL    HW1 8594   6.288   0.674   1.749  0.2134 -0.9108 -1.2562
 2565SOL    HW2 8595   6.318   0.514   1.753  0.3049 -0.8899  2.6956
 2566SOL     OW 8596   3.291   2.035   0.843  0.4884  0.0525 -0.2559
 2566SOL    HW1 8597   3.323   2.126   0.870  1.8039 -0.6184  0.5517
 2566SOL    HW2 8598   3.250   1.990   0.922 -0.1723 -0.0596 -0.6576
 2567SOL     OW 8599   2.562   0.717   5.408 -0.0449 -0.1719  0.0636
 2567SOL    HW1 8600   2.502   0.701   5.486 -2.2598  0.6411 -1.3865
 2567SOL    HW2 8601   2.629   0.788   5.431 -0.7111  0.1100  1.1816
 2568SOL     OW 8602   2.546   6.893   5.911 -0.4254 -0.7012 -0.0987
 2568SOL    HW1 8603   2.559   6.975   5.966  0.0226 -1.5046  1.0285
 2568SOL    HW2 8604   2.571   6.812   5.964 -1.8742 -1.6696 -0.8098
 2569SOL     OW 8605   3.582   4.848   5.347  0.0750 -0.1310 -0.5152
 2569SOL    HW1 8606   3.557   4.755   5.371 -3.1578  0.1963 -2.0669
 2569SOL    HW2 8607   3.522   4.913   5.394  2.6604  1.3259  1.0431
 2570SOL     OW 8608   5.930   2.942   4.495 -0.2652 -0.1452  0.4713
 2570SOL    HW1 8609   6.007   2.950   4.433 -0.5952  1.9147  0.2707
 2570SOL    HW2 8610   5.847   2.975   4.450 -0.8918 -0.4729  1.3483
 2571SOL     OW 8611   3.304   2.855   1.977 -0.4246  0.0258 -0.4730
 2571SOL    HW1 8612   3.272   2.855   2.071  1.4700  1.0040  0.2075
 2571SOL    HW2 8613   3.248   2.792   1.923 -0.9279 -1.2949  1.4977
 2572SOL     OW 8614   2.672   0.352   1.453  1.0840  0.2352 -0.0375
 2572SOL    HW1 8615   2.735   0.300   1.510  1.1709  1.3589  0.9140
 2572SOL    HW2 8616   2.664   0.445   1.487 -0.1266  0.4754 -0.8914
 2573SOL     OW 8617   0.475   1.122   3.827 -0.3458  0.1072 -0.5020
 2573SOL    HW1 8618   0.401   1.103   3.763 -0.7942  0.1080  0.0133
 2573SOL    HW2 8619   0.552   1.161   3.777  0.2562 -2.1075 -1.4770
 2574SOL     OW 8620   1.777   3.975   1.727  0.2667 -0.2679 -0.4567
 2574SOL    HW1 8621   1.720   3.903   1.767  0.3314 -0.9285 -1.5143
 2574SOL    HW2 8622   1.772   3.971   1.628 -0.9784  2.2301 -0.5649
 2575SOL     OW 8623   3.969   3.796   5.737  0.4539  0.1108  0.0857
 2575SOL    HW1 8624   3.919   3.777   5.653 -0.0226  1.5309  0.0157
 2575SOL    HW2 8625   3.953   3.891   5.764  0.5714 -0.3260  1.7977
 2576SOL     OW 8626   1.955   0.942   4.168  0.4710  0.0536  0.2274
 2576SOL    HW1 8627   2.016   0.863   4.173  1.2084  0.6425  0.8626
 2576SOL    HW2 8628   1.902   0.948   4.253 -1.8908 -1.5262 -1.0363
 2577SOL     OW 8629   0.257   4.683   1.259 -0.3601  0.0367 -0.0870
 2577SOL    HW1 8630   0.205   4.754   1.213 -1.8806  0.1219  1.6361
 2577SOL    HW2 8631   0.210   4.595   1.248  0.1622 -0.2445 -0.1077
 2578SOL     OW 8632   0.198   1.062   3.033 -0.4188  0.0897  0.3909
 2578SOL    HW1 8633   0.101   1.061   3.008 -0.4989 -1.1970  0.6465
 2578SOL    HW2 8634   0.242   0.980   2.995  0.5825  0.6760  0.2570
 2579SOL     OW 8635   0.912   3.258   0.529  0.1974 -0.0397 -0.4563
 2579SOL    HW1 8636   0.988   3.320   0.509 -0.6310  2.1850  2.5394
 2579SOL    HW2 8637   0.827   3.300   0.497 -0.0490 -1.4925 -1.8027
 2580SOL     OW 8638   1.807   4.645   5.332 -0.0743 -0.0324  0.1744
 2580SOL    HW1 8639   1.800   4.695   5.418 -0.9165 -4.7029  3.1504
 2580SOL    HW2 8640   1.716   4.640   5.289  0.1062  1.2467 -0.4000
 2581SOL     OW 8641   5.937   6.302   5.298 -0.0249  0.1931 -0.6620
 2581SOL    HW1 8642   5.863   6.319   5.233 -1.5548 -0.6544  0.7684
 2581SOL    HW2 8643   5.967   6.207   5.288 -0.7695 -0.1651  0.2952
 2582SOL     OW 8644   6.160   5.560   2.459  0.1815  0.3375 -0.1205
 2582SOL    HW1 8645   6.138   5.648   2.418 -1.1935 -0.4009 -1.0791
 2582SOL    HW2 8646   6.075   5.512   2.482  0.8836 -0.8484  0.1172
 2583SOL     OW 8647   2.912   6.986   0.365  0.0653  0.9674 -0.8278
 2583SOL    HW1 8648   2.818   7.019   0.356  1.2095  4.2384 -2.3995
 2583SOL    HW2 8649   2.970   7.061   0.396  2.2776 -0.8502 -0.3331
 2584SOL     OW 8650   3.262   0.637   4.860  0.1823  0.2679 -0.2717
 2584SOL    HW1 8651   3.241   0.637   4.957 -1.1401  1.6645 -0.5153
 2584SOL    HW2 8652   3.337   0.573   4.841 -0.0839 -0.6190  1.5209
 2585SOL     OW 8653   3.040   0.352   4.261 -0.6377 -0.7074 -0.3996
 2585SOL    HW1 8654   2.964   0.416   4.264  0.2762  0.4327 -0.7479
 2585SOL    HW2 8655   3.084   0.348   4.351  0.5499  0.7581 -0.8683
 2586SOL     OW 8656   3.133   2.197   3.732  0.3960  0.0515  0.7263
 2586SOL    HW1 8657   3.180   2.284   3.748 -0.4034  0.3834  1.3443
 2586SOL    HW2 8658   3.036   2.207   3.755 -0.4020 -0.0960 -2.2082
 2587SOL     OW 8659   5.774   5.478   3.902 -0.7635 -0.2881 -0.1772
 2587SOL    HW1 8660   5.719   5.414   3.956 -0.3248  0.2301  0.9072
 2587SOL    HW2 8661   5.841   5.426   3.848  0.1134 -0.7224  1.2883
 2588SOL     OW 8662   2.336   6.087   2.347 -0.1016 -0.2765  0.2140
 2588SOL    HW1 8663   2.264   6.044   2.401 -0.1885  1.0434  1.1944
 2588SOL    HW2 8664   2.318   6.072   2.250 -0.7424 -1.4303  0.4866
 2589SOL     OW 8665   3.342   6.006   1.339 -0.2672  0.7576  0.1093
 2589SOL    HW1 8666   3.421   5.985   1.282 -0.0544  1.4706  0.1219
 2589SOL    HW2 8667   3.269   6.043   1.282 -0.9354 -0.7453 -0.0324
 2590SOL     OW 8668   6.718   6.093   4.857 -0.0128  0.0806 -0.6123
 2590SOL    HW1 8669   6.745   6.110   4.762  0.1479  0.4513 -0.5029
 2590SOL    HW2 8670   6.687   5.999   4.867 -0.2639  0.1126 -1.0877
 2591SOL     OW 8671   4.212   1.250   0.427  0.1884  0.3324  0.4241
 2591SOL    HW1 8672   4.247   1.159   0.449  1.4824  0.1493 -2.0328
 2591SOL    HW2 8673   4.264   1.319   0.476  0.6770 -0.1732  0.6223
 2592SOL     OW 8674   4.164   5.464   2.085 -0.1256 -0.0633  0.1904
 2592SOL    HW1 8675   4.220   5.441   2.165  0.6995 -0.1554 -0.3986
 2592SOL    HW2 8676   4.069   5.478   2.113 -0.1262 -1.4779  0.9884
 2593SOL     OW 8677   2.104   1.681   3.972  0.4176 -0.5926 -0.1651
 2593SOL    HW1 8678   2.114   1.672   3.873 -1.3542  1.5727 -0.6233
 2593SOL    HW2 8679   2.014   1.646   4.000  1.8965 -3.7133  1.1884
 2594SOL     OW 8680   1.590   6.997   5.489  0.5521  0.3214  0.4058
 2594SOL    HW1 8681   1.498   7.000   5.450  0.1211 -1.4111  1.1875
 2594SOL    HW2 8682   1.634   7.086   5.478 -2.1540  2.0396  2.2551
 2595SOL     OW 8683   0.575   3.470   4.569 -0.0808 -0.0641 -0.3806
 2595SOL    HW1 8684   0.592   3.384   4.519  0.0039 -0.7493  0.7962
 2595SOL    HW2 8685   0.660   3.501   4.611 -0.2319  0.3090 -0.3526
 2596SOL     OW 8686   5.990   6.943   0.438  0.0948 -0.1572  0.0854
 2596SOL    HW1 8687   6.088   6.948   0.418 -0.1392 -0.2090 -1.1458
 2596SOL    HW2 8688   5.971   6.987   0.526  1.4261 -1.4406  1.0673
 2597SOL     OW 8689   2.976   2.581   5.313 -0.1951  0.0543 -0.6431
 2597SOL    HW1 8690   3.040   2.514   5.275 -0.1318 -1.6513  2.1311
 2597SOL    HW2 8691   2.916   2.535   5.378 -1.2204  2.4563  0.2078
 2598SOL     OW 8692   6.199   6.066   3.623  0.2922  0.3426 -0.2975
 2598SOL    HW1 8693   6.123   6.124   3.594 -0.6672 -0.6404  0.1967
 2598SOL    HW2 8694   6.164   5.986   3.672  1.6727  0.0985  0.3436
 2599SOL     OW 8695   3.578   6.569   4.057 -0.3341 -0.5906 -0.2450
 2599SOL    HW1 8696   3.517   6.586   4.134 -0.3796 -0.8089 -0.2313
 2599SOL    HW2 8697   3.673   6.586   4.085 -0.4043 -0.0649 -0.3237
 2600SOL     OW 8698   0.009   5.204   0.004  0.0861  0.2340  0.1877
 2600SOL    HW1 8699   0.051   5.242   0.087 -0.7643  1.7347 -0.0265
 2600SOL    HW2 8700   0.055   5.242  -0.077 -0.8716  0.9448 -0.0344
 2601SOL     OW 8701   3.457   5.061   6.049  0.2491 -0.2723 -0.1736
 2601SOL    HW1 8702   3.393   5.100   6.116  0.0106 -1.0844  0.0829
 2601SOL    HW2 8703   3.437   4.964   6.036  1.2748 -0.4840 -0.2803
 2602SOL     OW 8704   6.616   1.403   6.382  0.3834 -0.1340 -0.6408
 2602SOL    HW1 8705   6.685   1.455   6.433 -0.3811  0.7726 -0.5066
 2602SOL    HW2 8706   6.537   1.387   6.439  0.4978 -1.2277 -0.7784
 2603SOL     OW 8707   1.952   1.591   5.836 -0.2336  0.5028 -0.2021
 2603SOL    HW1 8708   1.979   1.678   5.795  0.1036  0.9639  0.9489
 2603SOL    HW2 8709   2.021   1.522   5.815  0.4164  0.9687  0.3734
 2604SOL     OW 8710   0.567   0.769   1.419  0.3344 -0.3904  0.1087
 2604SOL    HW1 8711   0.562   0.683   1.470  0.6242 -0.5697 -0.1616
 2604SOL    HW2 8712   0.605   0.752   1.328 -2.5551 -0.5513 -1.2099
 2605SOL     OW 8713   5.087   2.004   5.857 -0.3423  0.1096 -0.3291
 2605SOL    HW1 8714   4.991   1.977   5.846 -0.2230 -1.2417  1.4805
 2605SOL    HW2 8715   5.103   2.027   5.953  0.8310  1.7474 -0.8768
 2606SOL     OW 8716   6.816   3.689   0.469  0.7420  0.8364  0.3246
 2606SOL    HW1 8717   6.835   3.787   0.468  2.7113  0.5478  2.2873
 2606SOL    HW2 8718   6.852   3.649   0.553 -1.0193 -1.4113  0.1047
 2607SOL     OW 8719   0.389   5.248   3.759 -0.0817 -0.3920  0.2493
 2607SOL    HW1 8720   0.361   5.193   3.680  0.7038  0.5648 -0.7268
 2607SOL    HW2 8721   0.307   5.277   3.809 -0.5390 -1.9266  0.4533
 2608SOL     OW 8722   4.661   0.262   1.280  0.5550  0.7874 -0.2911
 2608SOL    HW1 8723   4.653   0.180   1.223  1.3414  0.8594 -0.5054
 2608SOL    HW2 8724   4.576   0.314   1.273 -0.4951 -0.6688  0.9004
 2609SOL     OW 8725   1.916   3.344   4.320 -0.1284 -0.3094 -0.5441
 2609SOL    HW1 8726   1.864   3.328   4.404  0.6169  1.6032  0.3381
 2609SOL    HW2 8727   1.885   3.279   4.249 -1.7584 -1.0363  0.7476
 2610SOL     OW 8728   6.500   3.744   4.406 -0.1294 -0.6842 -0.1060
 2610SOL    HW1 8729   6.424   3.740   4.470 -0.3273 -0.2458 -0.3076
 2610SOL    HW2 8730   6.496   3.830   4.355  0.5464 -0.6179 -0.0591
 2611SOL     OW 8731   1.556   1.261   1.578 -0.3266 -0.3459  0.0699
 2611SOL    HW1 8732   1.545   1.195   1.503 -1.2067 -0.3306  0.1697
 2611SOL    HW2 8733   1.467   1.277   1.621  0.0244  0.2891  0.5758
 2612SOL     OW 8734   0.751   6.747   4.715 -0.1224  0.6194  0.3677
 2612SOL    HW1 8735   0.840   6.783   4.745  0.7314 -1.3633  0.3950
 2612SOL    HW2 8736   0.678   6.793   4.765  1.1201 -1.1393  4.1834
 2613SOL     OW 8737   4.753   0.774   6.542  0.2388  1.1099 -0.0403
 2613SOL    HW1 8738   4.679   0.723   6.498  0.4219  0.9887 -0.2050
 2613SOL    HW2 8739   4.739   0.871   6.528  0.5473  1.0520 -0.7571
 2614SOL     OW 8740   1.478   5.440   5.603  0.0369  0.5959 -0.2896
 2614SOL    HW1 8741   1.497   5.383   5.683  1.8322  1.0706 -0.3358
 2614SOL    HW2 8742   1.379   5.453   5.595 -0.1892  1.5802  2.6190
 2615SOL     OW 8743   0.959   5.869   0.558  0.3195  0.2139  0.0261
 2615SOL    HW1 8744   0.980   5.965   0.574  0.6215  0.1576 -0.0261
 2615SOL    HW2 8745   0.860   5.857   0.550  0.3722  0.8519 -2.1005
 2616SOL     OW 8746   3.135   3.179   1.870  0.0016 -0.5119  0.3293
 2616SOL    HW1 8747   3.225   3.173   1.914  0.7173  0.0816 -0.9870
 2616SOL    HW2 8748   3.136   3.253   1.803 -2.0971  0.7985  1.6415
 2617SOL     OW 8749   1.753   0.649   1.252 -1.4704  0.2676 -0.0785
 2617SOL    HW1 8750   1.776   0.708   1.175 -0.1580  1.1511  0.9302
 2617SOL    HW2 8751   1.828   0.585   1.269 -1.0421  1.1122  1.3736
 2618SOL     OW 8752   2.038   0.061   1.382 -0.3633 -0.4537 -0.7092
 2618SOL    HW1 8753   2.089  -0.024   1.391 -0.6801 -0.9423 -2.9072
 2618SOL    HW2 8754   2.100   0.138   1.399  0.1862 -1.0808  0.2454
 2619SOL     OW 8755   4.580   1.810   2.937  0.0721  0.2056  0.2917
 2619SOL    HW1 8756   4.661   1.775   2.891 -0.2576 -1.1679  0.7140
 2619SOL    HW2 8757   4.607   1.871   3.012  0.8383 -1.8794  1.7937
 2620SOL     OW 8758   1.303   0.284   3.716 -0.2340  0.2664 -0.3686
 2620SOL    HW1 8759   1.360   0.309   3.794  0.6965  0.3242 -1.0627
 2620SOL    HW2 8760   1.224   0.232   3.749  0.8210 -0.8472  0.4900
 2621SOL     OW 8761   2.112   6.306   4.207 -0.0024 -0.1117 -0.0680
 2621SOL    HW1 8762   2.101   6.301   4.307  1.2210  3.4485  0.4039
 2621SOL    HW2 8763   2.209   6.314   4.185 -0.3270  0.3983 -1.4124
 2622SOL     OW 8764   1.624   5.399   4.266 -0.0621  0.1124 -0.8342
 2622SOL    HW1 8765   1.704   5.365   4.316  0.0562 -1.7245 -2.1571
 2622SOL    HW2 8766   1.634   5.376   4.169 -1.9001  0.4500 -1.1324
 2623SOL     OW 8767   5.080   0.322   6.048  0.5176 -0.0713 -0.2186
 2623SOL    HW1 8768   5.058   0.252   6.116 -0.9145  1.7230  1.2765
 2623SOL    HW2 8769   5.152   0.382   6.084 -2.1034  2.5452  1.0646
 2624SOL     OW 8770   4.679   2.119   5.084  0.0496  0.2211 -0.4533
 2624SOL    HW1 8771   4.669   2.159   4.993 -1.0776  0.7076 -0.1265
 2624SOL    HW2 8772   4.611   2.047   5.096 -0.4003  0.7677  0.3217
 2625SOL     OW 8773   3.191   1.172   5.660  0.2725 -0.1826  0.8780
 2625SOL    HW1 8774   3.121   1.226   5.614 -0.5269 -2.4587 -0.7595
 2625SOL    HW2 8775   3.271   1.162   5.600  0.7222 -0.2029  1.4644
 2626SOL     OW 8776   2.524   6.789   3.222 -0.5473  0.1087  0.7377
 2626SOL    HW1 8777   2.457   6.855   3.188 -0.0513  1.1184  1.6409
 2626SOL    HW2 8778   2.602   6.839   3.260 -0.6964 -0.9784  2.5588
 2627SOL     OW 8779   1.042   0.501   4.425 -0.3018  0.4017 -0.0776
 2627SOL    HW1 8780   1.099   0.442   4.482 -3.8748 -1.4164  1.9705
 2627SOL    HW2 8781   1.009   0.449   4.346  0.0857  1.1727 -0.7740
 2628SOL     OW 8782   5.618   6.013   6.349  1.0613 -0.2988 -0.1803
 2628SOL    HW1 8783   5.593   6.083   6.416  0.7685  0.2432 -0.8467
 2628SOL    HW2 8784   5.714   5.989   6.360  1.4914  1.1133 -0.7445
 2629SOL     OW 8785   3.353   3.379   2.677 -0.3439 -0.1696  0.1703
 2629SOL    HW1 8786   3.348   3.341   2.585  0.4354  0.7343 -0.2680
 2629SOL    HW2 8787   3.412   3.321   2.734  0.6382  0.2264 -0.4191
 2630SOL     OW 8788   3.580   1.771   2.277 -0.7326 -0.5421  0.5442
 2630SOL    HW1 8789   3.533   1.773   2.366  1.5199  1.8502  1.8447
 2630SOL    HW2 8790   3.574   1.861   2.234  0.4750 -0.8935 -0.4304
 2631SOL     OW 8791   4.335   1.758   3.724  0.3503  0.2214 -0.6400
 2631SOL    HW1 8792   4.319   1.813   3.805  1.1575  0.1025 -0.3898
 2631SOL    HW2 8793   4.255   1.762   3.664 -0.0886  0.6367 -0.0343
 2632SOL     OW 8794   3.923   7.006   0.283  0.2532 -0.1790 -0.2091
 2632SOL    HW1 8795   3.895   7.075   0.216 -0.0319  0.6246  0.7089
 2632SOL    HW2 8796   3.879   6.919   0.263 -0.5393  0.2877 -0.5400
 2633SOL     OW 8797   0.052   4.366   6.762  0.0476 -0.3764 -0.3915
 2633SOL    HW1 8798   0.029   4.302   6.688  0.8212 -0.1117 -0.8789
 2633SOL    HW2 8799  -0.027   4.378   6.821 -0.7481 -0.2267 -1.4474
 2634SOL     OW 8800   2.921   4.460   1.041 -0.9065  0.2536  0.4276
 2634SOL    HW1 8801   2.832   4.444   1.083 -0.9494  1.3068  0.7759
 2634SOL    HW2 8802   2.934   4.558   1.028  0.0418  0.0829  0.0076
 2635SOL     OW 8803   0.000   4.726   4.021 -0.0554 -0.6110  0.5235
 2635SOL    HW1 8804   0.085   4.777   4.034 -0.9561  0.6357  1.8854
 2635SOL    HW2 8805  -0.066   4.783   3.973 -1.1344 -0.3488  2.2203
 2636SOL     OW 8806   4.372   4.404   6.895  0.7815 -0.2694  0.4577
 2636SOL    HW1 8807   4.405   4.499   6.892  1.0432 -0.2632  2.2850
 2636SOL    HW2 8808   4.379   4.364   6.804 -1.4657  2.1415 -0.9085
 2637SOL     OW 8809   5.830   4.245   2.280 -0.0241  0.1160  0.0929
 2637SOL    HW1 8810   5.784   4.333   2.289  1.2957  0.6823  1.7460
 2637SOL    HW2 8811   5.854   4.230   2.184 -3.7631 -0.3372 -0.9076
 2638SOL     OW 8812   4.875   4.608   0.181  0.0894 -0.2516  0.2493
 2638SOL    HW1 8813   4.921   4.565   0.258  2.0523  1.9370  0.3811
 2638SOL    HW2 8814   4.818   4.683   0.213  1.2196  0.9259 -0.4117
 2639SOL     OW 8815   5.529   6.776   0.912  0.2467 -0.2346 -0.0619
 2639SOL    HW1 8816   5.486   6.712   0.975 -0.4238  0.7889  0.5386
 2639SOL    HW2 8817   5.628   6.778   0.927  0.1919 -0.6559  0.3407
 2640SOL     OW 8818   0.018   6.745   7.004  0.5264 -0.2874 -0.7281
 2640SOL    HW1 8819  -0.053   6.707   6.945 -0.2731 -2.5768  1.5206
 2640SOL    HW2 8820  -0.009   6.735   7.100  2.2671  2.2353  0.1188
 2641SOL     OW 8821   6.206   6.752   2.259  0.8182 -0.0749  0.4926
 2641SOL    HW1 8822   6.117   6.706   2.254 -0.0113  1.4387  0.6939
 2641SOL    HW2 8823   6.273   6.690   2.300 -0.2064 -1.1587  0.5869
 2642SOL     OW 8824   6.528   5.646   2.024  0.8306  0.2233  0.0972
 2642SOL    HW1 8825   6.541   5.742   1.999 -0.4649  0.6153  0.8259
 2642SOL    HW2 8826   6.615   5.608   2.057  0.8847  1.8572  2.0784
 2643SOL     OW 8827   1.805   0.996   1.778 -0.0614  0.6340 -0.0022
 2643SOL    HW1 8828   1.839   1.088   1.758 -0.0111  0.6385  0.1046
 2643SOL    HW2 8829   1.705   0.998   1.781 -0.0447  1.2480  2.6005
 2644SOL     OW 8830   6.029   6.288   3.606  0.0364  0.0023  0.3595
 2644SOL    HW1 8831   5.941   6.283   3.559 -0.4076 -0.5363  1.2264
 2644SOL    HW2 8832   6.023   6.353   3.681  1.1323  1.8816 -1.0752
 2645SOL     OW 8833   0.603   6.784   0.561  0.4442  0.4175 -0.3513
 2645SOL    HW1 8834   0.650   6.865   0.594  0.2588 -0.0472  1.0990
 2645SOL    HW2 8835   0.566   6.802   0.469  1.8847  1.3653 -0.7748
 2646SOL     OW 8836   6.491   5.213   5.762  0.3833  0.1468 -0.7751
 2646SOL    HW1 8837   6.514   5.116   5.772  0.7110  0.1379 -1.5890
 2646SOL    HW2 8838   6.521   5.262   5.843  0.3199 -0.4096 -0.4043
 2647SOL     OW 8839   4.030   2.856   1.221 -0.5123 -0.0570  0.3771
 2647SOL    HW1 8840   4.026   2.763   1.258  1.8255  0.1880  1.4110
 2647SOL    HW2 8841   4.030   2.851   1.121  2.6841 -1.5051  0.3193
 2648SOL     OW 8842   5.497   0.032   5.674 -0.6913  0.1608 -0.3006
 2648SOL    HW1 8843   5.497   0.060   5.770 -3.1707 -0.4437 -0.0622
 2648SOL    HW2 8844   5.433   0.089   5.622  0.6194  0.4848 -1.6254
 2649SOL     OW 8845   4.565   5.147   6.626 -0.0319 -0.2656  0.8049
 2649SOL    HW1 8846   4.650   5.142   6.574 -0.3161  1.4785  0.0927
 2649SOL    HW2 8847   4.535   5.055   6.651 -0.1481 -1.2427 -2.5444
 2650SOL     OW 8848   0.095   6.927   2.315 -0.3598 -0.4027 -0.2955
 2650SOL    HW1 8849   0.192   6.951   2.306 -0.0312 -2.2947 -2.7799
 2650SOL    HW2 8850   0.044   6.967   2.239 -1.8175  1.3582  1.4727
 2651SOL     OW 8851   6.969   6.441   2.181 -0.1601  0.3954  0.1102
 2651SOL    HW1 8852   7.067   6.456   2.189  0.1699 -0.7871 -1.2183
 2651SOL    HW2 8853   6.952   6.345   2.158 -1.6427  0.5546  0.4184
 2652SOL     OW 8854   3.091   2.092   2.041 -0.1870 -0.0136 -0.1486
 2652SOL    HW1 8855   3.044   2.176   2.016 -0.0057  0.7995  2.0297
 2652SOL    HW2 8856   3.037   2.043   2.110 -0.5262 -1.9713 -1.7097
 2653SOL     OW 8857   5.607   5.455   1.799 -0.1845  0.6484 -0.6073
 2653SOL    HW1 8858   5.629   5.452   1.701  1.0616 -0.4880 -0.3143
 2653SOL    HW2 8859   5.538   5.526   1.815 -0.0145  1.2243 -2.2256
 2654SOL     OW 8860   1.015   5.143   4.742 -0.0157  0.1118  0.3131
 2654SOL    HW1 8861   1.092   5.151   4.680  0.6692  1.8786  1.3240
 2654SOL    HW2 8862   1.019   5.216   4.810 -2.4020  0.0597  0.5948
 2655SOL     OW 8863   6.177   4.958   4.974 -0.3614  0.2253 -0.1711
 2655SOL    HW1 8864   6.122   5.019   4.918 -0.7183  0.5653  0.5382
 2655SOL    HW2 8865   6.128   4.937   5.059 -0.1626 -0.8935 -0.3155
 2656SOL     OW 8866   5.449   3.056   4.522 -0.1159 -0.3615 -0.2314
 2656SOL    HW1 8867   5.365   3.036   4.573 -0.3410  0.7418 -0.1529
 2656SOL    HW2 8868   5.500   3.128   4.568  0.6183 -0.6591 -0.5670
 2657SOL     OW 8869   3.342   6.823   5.691 -0.0940  0.7046 -0.5146
 2657SOL    HW1 8870   3.323   6.842   5.787  0.5662  2.9750 -0.7744
 2657SOL    HW2 8871   3.436   6.850   5.669 -0.1910  0.0995 -1.7778
 2658SOL     OW 8872   0.737   4.156   4.479 -0.1974  0.1035 -0.3289
 2658SOL    HW1 8873   0.693   4.119   4.397  0.4443 -0.5964 -0.3679
 2658SOL    HW2 8874   0.680   4.138   4.559 -0.3912 -0.0263 -0.4957
 2659SOL     OW 8875   0.762   5.397   3.595 -0.9027  0.1520 -0.3686
 2659SOL    HW1 8876   0.753   5.298   3.608  0.9956 -0.0432 -0.2564
 2659SOL    HW2 8877   0.859   5.422   3.593 -1.3393  1.9939 -0.6249
 2660SOL     OW 8878   6.753   4.652   2.468  0.3913 -0.2262  0.4402
 2660SOL    HW1 8879   6.689   4.650   2.545  0.1376  1.0874  0.2909
 2660SOL    HW2 8880   6.846   4.648   2.503  0.2821  0.5216  0.8386
 2661SOL     OW 8881   3.132   6.275   1.608  0.1701  0.0820 -0.4039
 2661SOL    HW1 8882   3.069   6.352   1.602 -0.6179 -0.6424 -2.6481
 2661SOL    HW2 8883   3.209   6.291   1.546  0.1302 -0.7886 -0.6895
 2662SOL     OW 8884   4.536   2.451   5.770  0.2219 -0.3556  0.0128
 2662SOL    HW1 8885   4.512   2.545   5.793 -1.8132 -0.4653 -1.4079
 2662SOL    HW2 8886   4.625   2.428   5.810  1.1332  2.3892 -0.2700
 2663SOL     OW 8887   1.269   4.464   3.673 -0.4645 -0.1665  0.1365
 2663SOL    HW1 8888   1.203   4.425   3.737  0.1919  0.5758  1.2929
 2663SOL    HW2 8889   1.348   4.403   3.666  0.2585  0.5928  1.4237
 2664SOL     OW 8890   5.507   3.898   1.268  0.4234  0.5919 -0.2000
 2664SOL    HW1 8891   5.585   3.957   1.288 -0.5471  1.3763  1.4099
 2664SOL    HW2 8892   5.485   3.843   1.348 -2.1000  2.0989  0.2532
 2665SOL     OW 8893   4.601   0.958   6.213  0.2346 -0.3443 -0.3300
 2665SOL    HW1 8894   4.686   0.920   6.250 -0.0134  0.7584  1.5422
 2665SOL    HW2 8895   4.581   0.916   6.125  1.9355 -1.7063 -0.1294
 2666SOL     OW 8896   6.983   6.368   6.727 -0.2890  0.0025 -0.1099
 2666SOL    HW1 8897   6.988   6.461   6.762 -1.3171 -0.4995  1.5137
 2666SOL    HW2 8898   7.000   6.304   6.802 -0.9114 -1.1193 -0.9043
 2667SOL     OW 8899   0.289   5.130   2.102  0.1706 -0.8586  0.0305
 2667SOL    HW1 8900   0.281   5.133   2.202 -2.4704 -2.8578 -0.0177
 2667SOL    HW2 8901   0.244   5.047   2.068  1.1127 -0.2824 -2.8432
 2668SOL     OW 8902   1.648   3.803   6.504  0.3804 -0.3098 -0.3818
 2668SOL    HW1 8903   1.680   3.855   6.425  2.1685 -1.0625 -0.1999
 2668SOL    HW2 8904   1.615   3.713   6.473  0.5187 -0.3752 -0.3408
 2669SOL     OW 8905   4.549   4.976   5.130 -0.1595 -0.0705  0.1549
 2669SOL    HW1 8906   4.516   4.883   5.111  0.5452 -0.4421  0.6929
 2669SOL    HW2 8907   4.648   4.974   5.140 -0.3307  0.3544  2.2831
 2670SOL     OW 8908   2.264   6.873   4.910 -0.4443  0.2181  0.0538
 2670SOL    HW1 8909   2.343   6.872   4.849 -0.3203 -0.0325  0.2186
 2670SOL    HW2 8910   2.183   6.902   4.859  0.2787  3.4923  0.5401
 2671SOL     OW 8911   3.778   2.796   6.443  0.3328 -0.5203  0.0859
 2671SOL    HW1 8912   3.778   2.720   6.378 -1.3627  0.2195 -0.8233
 2671SOL    HW2 8913   3.820   2.876   6.401  1.0430 -0.5941  0.6314
 2672SOL     OW 8914   1.034   3.669   0.585 -0.1624  0.1055 -0.1104
 2672SOL    HW1 8915   0.950   3.615   0.594 -0.4556  0.4284 -0.8249
 2672SOL    HW2 8916   1.030   3.748   0.646 -0.1248 -0.1909  0.2783
 2673SOL     OW 8917   4.951   2.616   3.601  0.5231  0.0269  0.6278
 2673SOL    HW1 8918   4.975   2.696   3.656  1.3144  0.6788 -0.6391
 2673SOL    HW2 8919   4.856   2.625   3.569  0.1218 -0.2664  1.6982
 2674SOL     OW 8920   4.465   6.882   6.903 -0.5437  0.4223 -0.2876
 2674SOL    HW1 8921   4.497   6.791   6.929  0.9141  0.9250 -0.2296
 2674SOL    HW2 8922   4.542   6.946   6.904 -1.7273  1.9082  0.7462
 2675SOL     OW 8923   6.274   5.512   3.587  0.5342 -0.1924 -0.1486
 2675SOL    HW1 8924   6.234   5.438   3.641 -1.3067  0.2208 -0.8818
 2675SOL    HW2 8925   6.201   5.572   3.553  1.8218  0.7974 -1.2670
 2676SOL     OW 8926   4.201   6.855   6.981  0.3739  0.0399  0.0983
 2676SOL    HW1 8927   4.145   6.899   6.912  0.4765 -0.0580 -0.0498
 2676SOL    HW2 8928   4.298   6.871   6.961  0.4811 -1.6158 -0.9068
 2677SOL     OW 8929   2.536   4.737   0.623  0.2635 -0.3791 -0.1876
 2677SOL    HW1 8930   2.503   4.674   0.694  1.5701 -1.2955 -0.3451
 2677SOL    HW2 8931   2.625   4.774   0.650  0.8926 -0.9223 -1.4132
 2678SOL     OW 8932   0.148   0.440   0.820 -0.6553 -0.1991 -0.5010
 2678SOL    HW1 8933   0.234   0.462   0.865 -1.6855  0.4494  1.2396
 2678SOL    HW2 8934   0.100   0.369   0.870 -1.2190 -0.4526 -1.3643
 2679SOL     OW 8935   2.797   4.613   6.142 -0.0046  0.0190 -0.0861
 2679SOL    HW1 8936   2.741   4.578   6.066 -0.8545 -0.9668  0.9658
 2679SOL    HW2 8937   2.873   4.666   6.105 -1.1175  0.6471 -1.5991
 2680SOL     OW 8938   0.221   3.459   0.414 -0.2372  0.2587 -0.4684
 2680SOL    HW1 8939   0.225   3.559   0.409  1.7413  0.1652 -2.1308
 2680SOL    HW2 8940   0.264   3.428   0.499 -0.4846  0.8121 -0.1382
 2681SOL     OW 8941   2.302   2.723   2.210 -0.0911  0.4641  0.8996
 2681SOL    HW1 8942   2.310   2.704   2.112 -1.6268  1.4560  0.5319
 2681SOL    HW2 8943   2.223   2.783   2.225 -0.4710 -0.4563  2.8481
 2682SOL     OW 8944   1.904   4.896   3.795  0.1935 -1.3604 -0.2216
 2682SOL    HW1 8945   1.850   4.893   3.711  0.7152 -1.4523 -0.5580
 2682SOL    HW2 8946   1.973   4.968   3.788 -2.4075  1.5904  1.7784
 2683SOL     OW 8947   0.643   1.866   1.053  0.5744  0.0811 -0.3705
 2683SOL    HW1 8948   0.583   1.790   1.026  0.4058  0.0522  0.0801
 2683SOL    HW2 8949   0.610   1.905   1.138  1.4246 -0.1895  0.0922
 2684SOL     OW 8950   1.782   5.921   4.263 -0.3358  0.1782 -0.2205
 2684SOL    HW1 8951   1.773   5.827   4.231  1.0740  0.3365 -1.1818
 2684SOL    HW2 8952   1.801   5.921   4.361  0.7805 -0.6184 -0.4164
 2685SOL     OW 8953   5.758   5.232   5.090  0.1274  0.0267 -0.5387
 2685SOL    HW1 8954   5.822   5.274   5.154  1.6017  0.2374 -2.0785
 2685SOL    HW2 8955   5.805   5.214   5.003 -2.0323  0.6367 -1.9091
 2686SOL     OW 8956   1.820   5.142   3.620  0.2078 -0.0860 -0.0856
 2686SOL    HW1 8957   1.914   5.122   3.649  0.5182  0.6342 -0.5432
 2686SOL    HW2 8958   1.813   5.133   3.520 -0.4317 -0.9580  0.0290
 2687SOL     OW 8959   2.442   4.489   2.276  0.0195  0.6920 -0.6237
 2687SOL    HW1 8960   2.417   4.392   2.278 -2.7225  1.2918 -1.3441
 2687SOL    HW2 8961   2.485   4.512   2.189  1.3648  0.0045 -0.1571
 2688SOL     OW 8962   2.498   4.799   5.206 -0.1252 -0.4972 -0.0513
 2688SOL    HW1 8963   2.581   4.852   5.191  0.0172  0.2259  2.7890
 2688SOL    HW2 8964   2.518   4.702   5.195  1.0090 -0.3013  0.1751
 2689SOL     OW 8965   6.084   1.343   4.898  0.7299  0.0905  0.1382
 2689SOL    HW1 8966   6.167   1.291   4.919 -0.5971 -1.7341  1.0333
 2689SOL    HW2 8967   6.035   1.298   4.823  0.2094  0.7984  0.0466
 2690SOL     OW 8968   2.947   3.446   2.683  0.0840 -0.3521  0.1196
 2690SOL    HW1 8969   3.032   3.419   2.638  1.4965  0.5222  2.1668
 2690SOL    HW2 8970   2.930   3.387   2.761 -0.6713  0.1304  0.3347
 2691SOL     OW 8971   0.759   5.337   3.064 -0.0544 -0.3995 -0.3666
 2691SOL    HW1 8972   0.833   5.307   3.124  0.7940 -0.6025 -1.4881
 2691SOL    HW2 8973   0.792   5.411   3.005 -1.1607  0.4710  0.0786
 2692SOL     OW 8974   6.222   2.601   5.490  0.0539  0.0013 -0.2575
 2692SOL    HW1 8975   6.271   2.661   5.426  0.1694 -0.3299 -0.4831
 2692SOL    HW2 8976   6.124   2.615   5.479  0.0646 -0.2741 -0.7267
 2693SOL     OW 8977   2.118   3.033   3.315  0.2266  0.3927 -0.1470
 2693SOL    HW1 8978   2.088   2.994   3.402 -0.1162 -0.1127 -0.4918
 2693SOL    HW2 8979   2.196   2.981   3.279  0.0851  0.3277 -0.3619
 2694SOL     OW 8980   2.416   1.739   2.646  0.0304  0.4269  0.4185
 2694SOL    HW1 8981   2.436   1.641   2.650  1.9827  0.8205  1.0733
 2694SOL    HW2 8982   2.461   1.785   2.722 -0.8549  1.8529  0.1097
 2695SOL     OW 8983   4.034   3.203   2.356  0.1770 -0.5833  0.2422
 2695SOL    HW1 8984   3.992   3.139   2.292 -0.0562 -1.8803  1.6359
 2695SOL    HW2 8985   4.003   3.296   2.336 -0.6160 -1.0805 -0.9251
 2696SOL     OW 8986   3.660   4.133   0.084  0.8217 -0.0558 -0.1461
 2696SOL    HW1 8987   3.713   4.128   0.169  1.0676 -1.7852 -0.3687
 2696SOL    HW2 8988   3.580   4.073   0.091  0.2834  0.5583 -0.7824
 2697SOL     OW 8989   1.835   0.139   4.253 -0.8844  0.4941 -0.3702
 2697SOL    HW1 8990   1.827   0.054   4.201  0.4544  1.1541 -1.7519
 2697SOL    HW2 8991   1.749   0.191   4.245 -1.1828 -0.0443 -0.7533
 2698SOL     OW 8992   1.914   2.122   7.015  0.0930  0.5282  0.0461
 2698SOL    HW1 8993   1.997   2.177   7.006  0.2287  0.5864  1.3950
 2698SOL    HW2 8994   1.896   2.075   6.929  1.6003  0.4097 -0.2357
 2699SOL     OW 8995   2.417   4.376   3.816 -0.2872  0.8736  0.0015
 2699SOL    HW1 8996   2.487   4.345   3.751  1.5376  0.9628  1.8036
 2699SOL    HW2 8997   2.460   4.432   3.886 -1.5895 -1.3813  2.8185
 2700SOL     OW 8998   2.135   3.813   2.413  0.7741 -0.7628  0.3779
 2700SOL    HW1 8999   2.144   3.744   2.342  0.5713 -1.3553  0.9241
 2700SOL    HW2 9000   2.150   3.772   2.503  1.6138  0.0903  0.6529
 2701SOL     OW 9001   0.707   5.055   3.026 -0.1228  0.0451  0.4383
 2701SOL    HW1 9002   0.696   5.131   3.090 -1.6994  0.7401 -0.5974
 2701SOL    HW2 9003   0.754   5.087   2.944  0.3699 -0.4294  0.5290
 2702SOL     OW 9004   4.129   5.165   3.359  0.0644  0.1190  0.0788
 2702SOL    HW1 9005   4.076   5.165   3.274  2.6611 -1.7868 -1.6699
 2702SOL    HW2 9006   4.199   5.236   3.354  0.2121  0.0121  0.6278
 2703SOL     OW 9007   1.659   3.225   2.442 -0.4876 -0.0853 -0.3430
 2703SOL    HW1 9008   1.626   3.135   2.413  1.1377 -0.2922 -1.6923
 2703SOL    HW2 9009   1.641   3.292   2.370 -0.4628  0.4051  0.0954
 2704SOL     OW 9010   1.089   5.493   4.241  0.2701  0.3379  0.5063
 2704SOL    HW1 9011   0.993   5.490   4.213  0.0938  0.5285  1.0761
 2704SOL    HW2 9012   1.138   5.561   4.186  0.3506 -0.5438 -0.5655
 2705SOL     OW 9013   0.823   2.727   2.106 -0.2016  0.4060 -0.8780
 2705SOL    HW1 9014   0.861   2.746   2.197 -2.6126  0.6887  0.1368
 2705SOL    HW2 9015   0.820   2.628   2.091 -0.8855  0.3040 -0.1293
 2706SOL     OW 9016   6.297   2.441   2.509 -0.0663  0.4163  0.2711
 2706SOL    HW1 9017   6.321   2.363   2.567 -0.9917  0.2165  0.3936
 2706SOL    HW2 9018   6.207   2.476   2.535 -0.8118 -0.0867 -1.4698
 2707SOL     OW 9019   3.772   0.400   0.774 -0.0658  0.1302 -0.1337
 2707SOL    HW1 9020   3.813   0.374   0.861 -0.0823 -0.5509 -0.3232
 2707SOL    HW2 9021   3.697   0.464   0.790  0.0416  0.1437  0.3376
 2708SOL     OW 9022   1.995   4.897   5.282  0.3571  0.5900 -0.6422
 2708SOL    HW1 9023   2.093   4.891   5.264  0.1676  1.6942 -2.1954
 2708SOL    HW2 9024   1.945   4.897   5.196 -1.2036 -2.1063  0.1653
 2709SOL     OW 9025   4.194   1.530   3.476 -0.6341 -0.1322  0.1891
 2709SOL    HW1 9026   4.153   1.619   3.493  0.9127  1.0075 -1.6042
 2709SOL    HW2 9027   4.124   1.466   3.443 -1.2252  1.4095 -1.7039
 2710SOL     OW 9028   5.720   2.941   2.050  0.2075 -0.2888  0.4247
 2710SOL    HW1 9029   5.625   2.910   2.039 -0.4854  1.0943  1.9459
 2710SOL    HW2 9030   5.782   2.866   2.031 -1.2618 -1.7598  1.1297
 2711SOL     OW 9031   5.877   4.991   1.754 -0.6815 -0.0396  0.2380
 2711SOL    HW1 9032   5.835   5.081   1.767  1.0543  1.2678 -2.3367
 2711SOL    HW2 9033   5.955   4.981   1.816  0.9590  1.5911 -1.4280
 2712SOL     OW 9034   2.825   5.680   2.985 -0.1878 -0.1151  0.2937
 2712SOL    HW1 9035   2.883   5.695   2.906 -0.0714 -0.9146  0.2230
 2712SOL    HW2 9036   2.754   5.614   2.963 -0.0692 -0.4545  0.8978
 2713SOL     OW 9037   2.248   3.115   5.328 -0.0461 -0.6850  0.2756
 2713SOL    HW1 9038   2.184   3.043   5.300  1.8703 -1.4083 -2.6114
 2713SOL    HW2 9039   2.339   3.094   5.294  1.4346  1.2235  2.7336
 2714SOL     OW 9040   4.373   6.871   5.994  0.4246  0.7339 -0.0991
 2714SOL    HW1 9041   4.369   6.776   5.963  0.4251  0.6161  0.2534
 2714SOL    HW2 9042   4.370   6.873   6.094  0.6767  1.0937 -0.0983
 2715SOL     OW 9043   5.039   6.041   6.119 -0.2070  0.2706 -0.0372
 2715SOL    HW1 9044   4.954   5.988   6.120  0.1206 -0.2675 -0.2210
 2715SOL    HW2 9045   5.069   6.058   6.213 -0.0770 -0.2624  0.0196
 2716SOL     OW 9046   5.202   0.284   2.369 -0.3526  0.4042  0.8074
 2716SOL    HW1 9047   5.223   0.291   2.271  0.9376  1.6401  1.1408
 2716SOL    HW2 9048   5.153   0.366   2.398 -0.0027  0.4197  1.3621
 2717SOL     OW 9049   6.512   6.646   4.040 -0.2783  0.1188 -0.6617
 2717SOL    HW1 9050   6.417   6.646   4.010 -0.1675 -0.4903 -1.0251
 2717SOL    HW2 9051   6.538   6.554   4.071 -0.4495  0.7386  1.5292
 2718SOL     OW 9052   1.786   3.170   4.133 -0.6593 -0.3616  0.3432
 2718SOL    HW1 9053   1.701   3.118   4.132 -0.6597 -0.4447 -1.9594
 2718SOL    HW2 9054   1.813   3.191   4.039  1.8852 -0.3594  0.9930
 2719SOL     OW 9055   3.915   4.911   3.495  0.0137 -0.7979  0.9621
 2719SOL    HW1 9056   3.817   4.916   3.479  0.2223  1.1839  0.0086
 2719SOL    HW2 9057   3.947   4.996   3.537  1.6749 -0.4051 -0.9465
 2720SOL     OW 9058   6.355   0.088   6.275  0.3147  0.4108 -0.1285
 2720SOL    HW1 9059   6.346   0.185   6.298 -0.1959  0.1011  1.0190
 2720SOL    HW2 9060   6.451   0.061   6.280  0.3866  0.7156  0.1173
 2721SOL     OW 9061   3.829   5.561   2.798  0.0577 -0.1953 -0.3151
 2721SOL    HW1 9062   3.772   5.479   2.809 -3.1559  1.8464 -0.3985
 2721SOL    HW2 9063   3.833   5.586   2.701  0.1468  0.2996 -0.1864
 2722SOL     OW 9064   6.209   5.777   1.286  0.3811 -0.4855 -0.0128
 2722SOL    HW1 9065   6.138   5.844   1.309 -0.2112 -1.0840 -0.0875
 2722SOL    HW2 9066   6.299   5.821   1.291  0.2010 -0.2832  2.2825
 2723SOL     OW 9067   3.308   2.859   4.975  0.3713  0.2581 -0.0095
 2723SOL    HW1 9068   3.345   2.885   5.064  1.0744 -0.2444 -0.1451
 2723SOL    HW2 9069   3.304   2.759   4.969  0.6946  0.2804 -0.6826
 2724SOL     OW 9070   5.320   6.664   6.577 -0.5057 -0.2697  0.0915
 2724SOL    HW1 9071   5.324   6.600   6.500  0.0986 -0.5639  0.3546
 2724SOL    HW2 9072   5.389   6.637   6.645 -0.2855  0.6283  0.2324
 2725SOL     OW 9073   2.248   5.108   2.465 -0.0158  0.1513  0.4311
 2725SOL    HW1 9074   2.322   5.142   2.523 -0.6014  0.3789  1.0553
 2725SOL    HW2 9075   2.255   5.009   2.457  1.1222  0.2793 -0.5946
 2726SOL     OW 9076   2.455   5.302   3.503 -0.0577 -0.5922 -0.0041
 2726SOL    HW1 9077   2.547   5.319   3.539 -0.2270 -0.4060  0.3480
 2726SOL    HW2 9078   2.394   5.376   3.532 -0.3267 -0.7351 -0.2024
 2727SOL     OW 9079   1.359   5.663   3.220 -0.6521 -0.4826  0.1174
 2727SOL    HW1 9080   1.399   5.675   3.311 -0.9016 -0.8744  0.2783
 2727SOL    HW2 9081   1.275   5.610   3.227  0.3457 -2.2238 -0.5609
 2728SOL     OW 9082   2.516   4.520   5.211  0.7204 -0.0403  0.0089
 2728SOL    HW1 9083   2.604   4.491   5.249  0.3132 -0.4938  0.6107
 2728SOL    HW2 9084   2.452   4.539   5.285  0.5498  1.0744 -0.4019
 2729SOL     OW 9085   6.889   2.808   2.759  0.0239  0.1021 -0.5388
 2729SOL    HW1 9086   6.944   2.724   2.751 -0.0499  0.0913 -0.9465
 2729SOL    HW2 9087   6.796   2.784   2.787 -0.4733 -0.1200 -2.2825
 2730SOL     OW 9088   2.585   4.174   1.566  0.2840  0.4709  0.0806
 2730SOL    HW1 9089   2.513   4.129   1.618 -0.7495  0.2561 -1.4685
 2730SOL    HW2 9090   2.669   4.121   1.571  0.0837  0.2291  1.1285
 2731SOL     OW 9091   1.528   3.766   5.421  0.3278 -0.5289 -0.0641
 2731SOL    HW1 9092   1.465   3.688   5.417 -0.1364 -0.3598  2.3990
 2731SOL    HW2 9093   1.484   3.846   5.380 -0.7169 -0.6441  0.7876
 2732SOL     OW 9094   6.265   2.800   4.983  0.6754 -0.4907 -0.1537
 2732SOL    HW1 9095   6.272   2.724   4.918  0.6308  0.9397 -1.8922
 2732SOL    HW2 9096   6.171   2.833   4.986  0.8894  0.1404 -0.1721
 2733SOL     OW 9097   1.082   1.160   0.403  0.6164  0.5237 -0.3535
 2733SOL    HW1 9098   1.119   1.161   0.311  1.9207  2.0013  0.1575
 2733SOL    HW2 9099   1.042   1.249   0.425  3.5748  1.4833  1.7198
 2734SOL     OW 9100   6.944   6.437   3.854  0.0849 -0.6242  0.3368
 2734SOL    HW1 9101   6.857   6.409   3.812  0.7605 -1.4916 -0.5186
 2734SOL    HW2 9102   6.937   6.428   3.954 -2.1066  3.0142  0.7032
 2735SOL     OW 9103   2.889   6.729   2.462  0.3446 -0.0994  0.2503
 2735SOL    HW1 9104   2.852   6.637   2.455  1.9888 -0.8209  0.6101
 2735SOL    HW2 9105   2.825   6.787   2.512 -0.1022 -1.4048  1.2398
 2736SOL     OW 9106   3.762   0.800   5.454 -0.5854 -0.0112 -0.7681
 2736SOL    HW1 9107   3.837   0.734   5.453 -0.4162 -0.0843  2.6427
 2736SOL    HW2 9108   3.798   0.892   5.445 -0.2476 -0.1363 -0.6870
 2737SOL     OW 9109   4.221   4.564   0.389 -0.8413  0.4836  0.2181
 2737SOL    HW1 9110   4.252   4.657   0.406  0.5824  0.3969 -1.6166
 2737SOL    HW2 9111   4.281   4.500   0.438 -2.2687  0.4751  2.1018
 2738SOL     OW 9112   0.720   3.674   5.067  0.4284  0.3385 -0.7395
 2738SOL    HW1 9113   0.667   3.720   4.995  0.2078  1.1149 -0.1013
 2738SOL    HW2 9114   0.725   3.576   5.047  0.7969  0.6002 -2.0726
 2739SOL     OW 9115   4.218   5.330   6.328 -0.5004 -0.3933  0.8394
 2739SOL    HW1 9116   4.217   5.429   6.342 -1.8171  0.1789 -2.3871
 2739SOL    HW2 9117   4.127   5.293   6.348 -0.8024 -0.4575 -0.5834
 2740SOL     OW 9118   5.944   4.631   4.076  0.7354  0.1927  0.2541
 2740SOL    HW1 9119   5.991   4.544   4.093  2.0958  0.5377 -1.5264
 2740SOL    HW2 9120   5.862   4.614   4.021  1.0932  0.0305 -0.2399
 2741SOL     OW 9121   1.449   4.185   6.304  0.1546 -0.3227 -0.1212
 2741SOL    HW1 9122   1.395   4.103   6.285 -1.4512  0.8804 -1.0335
 2741SOL    HW2 9123   1.540   4.175   6.264 -0.6646 -0.9042 -1.9364
 2742SOL     OW 9124   2.077   6.610   4.203  0.8801  0.2044  0.1084
 2742SOL    HW1 9125   2.108   6.625   4.109 -0.6323 -0.6766 -0.5657
 2742SOL    HW2 9126   2.075   6.512   4.223  0.8259  0.3637  0.9364
 2743SOL     OW 9127   4.851   4.201   0.740 -0.0545 -0.6500 -0.2167
 2743SOL    HW1 9128   4.914   4.243   0.805  0.3731  1.8620 -2.0986
 2743SOL    HW2 9129   4.762   4.245   0.746  1.0061  2.5479 -3.7638
 2744SOL     OW 9130   3.668   6.415   0.857 -0.3338 -0.1883 -0.5968
 2744SOL    HW1 9131   3.642   6.340   0.918  0.6378 -0.5640 -0.6211
 2744SOL    HW2 9132   3.756   6.452   0.885 -1.2566  1.6505  0.0284
 2745SOL     OW 9133   3.581   4.974   4.794  0.2324  0.6085  0.4204
 2745SOL    HW1 9134   3.509   4.905   4.802  0.4063  0.5684  1.8569
 2745SOL    HW2 9135   3.611   4.981   4.699 -1.2257  0.1760 -0.0896
 2746SOL     OW 9136   1.662   1.501   5.540 -0.0467 -0.0059  0.1416
 2746SOL    HW1 9137   1.585   1.448   5.504  1.7845 -1.5436 -1.7945
 2746SOL    HW2 9138   1.719   1.441   5.596  2.1782 -0.2742 -2.2457
 2747SOL     OW 9139   3.867   4.995   4.281  0.1671  0.5478  0.0861
 2747SOL    HW1 9140   3.800   5.057   4.240 -0.2166  0.8476  1.1427
 2747SOL    HW2 9141   3.899   5.032   4.368  0.2853 -0.4993  0.5095
 2748SOL     OW 9142   5.645   0.342   3.330  0.2024 -0.2621  0.1674
 2748SOL    HW1 9143   5.564   0.320   3.384 -0.3748  0.2829 -0.4625
 2748SOL    HW2 9144   5.632   0.431   3.286  0.9132 -0.4342 -0.3988
 2749SOL     OW 9145   6.867   6.243   3.046 -0.5735 -0.1331 -0.3034
 2749SOL    HW1 9146   6.951   6.277   3.004 -0.2034 -1.2203 -0.4762
 2749SOL    HW2 9147   6.855   6.286   3.136 -0.3392  0.7351 -0.6806
 2750SOL     OW 9148   0.820   0.192   1.077  0.6256 -0.3753 -0.0430
 2750SOL    HW1 9149   0.877   0.126   1.028  2.0843  1.4606 -0.9729
 2750SOL    HW2 9150   0.736   0.209   1.025  1.6653  0.7456 -1.4644
 2751SOL     OW 9151   6.060   0.819   1.511  0.3971 -0.3767  0.1047
 2751SOL    HW1 9152   6.069   0.904   1.460 -1.2723 -0.9757 -1.2399
 2751SOL    HW2 9153   6.056   0.840   1.609  1.9554  0.9067 -0.0610
 2752SOL     OW 9154   0.341   6.233   6.375  0.2918  0.3536 -0.2429
 2752SOL    HW1 9155   0.441   6.241   6.364  0.3426 -0.4677 -0.4342
 2752SOL    HW2 9156   0.309   6.304   6.439  0.9664  0.7492 -0.3283
 2753SOL     OW 9157   2.764   6.037   5.473  0.1728 -0.2390 -0.4519
 2753SOL    HW1 9158   2.752   6.023   5.374 -1.6032  0.1023 -0.3155
 2753SOL    HW2 9159   2.743   5.953   5.521  0.2630 -0.1812 -0.3117
 2754SOL     OW 9160   5.459   5.848   3.166 -0.3796 -0.1881 -0.5566
 2754SOL    HW1 9161   5.543   5.889   3.202 -0.6791 -0.6105  0.6867
 2754SOL    HW2 9162   5.447   5.874   3.070  1.3995 -0.4772 -0.8860
 2755SOL     OW 9163   6.096   5.732   2.739  0.0999  0.0902 -0.3364
 2755SOL    HW1 9164   6.182   5.773   2.770 -1.0593  3.1407 -0.8162
 2755SOL    HW2 9165   6.062   5.668   2.808  0.7397  1.9059  1.7457
 2756SOL     OW 9166   0.455   3.472   4.142  0.6325  0.0640 -0.7060
 2756SOL    HW1 9167   0.509   3.436   4.066  0.1489 -0.8623 -0.6200
 2756SOL    HW2 9168   0.481   3.425   4.227  0.3659  0.2901 -0.4962
 2757SOL     OW 9169   3.858   4.808   5.212  0.4304 -0.2655 -0.2490
 2757SOL    HW1 9170   3.901   4.742   5.274 -1.2299  0.0287  1.3121
 2757SOL    HW2 9171   3.761   4.818   5.237  0.1129  1.1226 -1.8714
 2758SOL     OW 9172   5.956   6.492   1.633 -0.3502 -0.3992  0.1030
 2758SOL    HW1 9173   5.877   6.503   1.695 -0.4161 -1.3966  0.2122
 2758SOL    HW2 9174   6.037   6.469   1.687 -0.0073  0.4660 -0.0274
 2759SOL     OW 9175   3.608   3.022   3.551 -0.6419 -0.0218 -0.2607
 2759SOL    HW1 9176   3.608   3.017   3.651  0.2073  2.5497 -0.0500
 2759SOL    HW2 9177   3.702   3.015   3.518 -1.0954 -3.6761 -1.1990
 2760SOL     OW 9178   4.765   5.336   2.187 -1.0946  0.6122  0.1379
 2760SOL    HW1 9179   4.750   5.247   2.228  1.0865 -0.1726 -0.6358
 2760SOL    HW2 9180   4.793   5.401   2.257 -1.0563  0.2662  0.4431
 2761SOL     OW 9181   1.987   3.083   5.561 -0.1385 -0.1708  0.2818
 2761SOL    HW1 9182   2.016   3.026   5.484  0.7979  0.2426  0.3152
 2761SOL    HW2 9183   1.918   3.149   5.530 -1.1451 -1.2068  0.2175
 2762SOL     OW 9184   3.535   1.096   3.219  0.8848 -0.1324  0.1490
 2762SOL    HW1 9185   3.549   1.043   3.302  2.0899 -1.4112 -0.8171
 2762SOL    HW2 9186   3.571   1.045   3.141 -0.7615  0.7483 -1.2592
 2763SOL     OW 9187   5.134   6.446   3.766  0.1433 -0.9318  0.4176
 2763SOL    HW1 9188   5.076   6.506   3.711 -1.1110 -0.8971  1.7454
 2763SOL    HW2 9189   5.158   6.365   3.712 -2.2543 -1.6019  0.2335
 2764SOL     OW 9190   6.810   3.040   2.881  0.2284  0.2624  0.1787
 2764SOL    HW1 9191   6.746   2.993   2.941 -0.2234 -0.3209 -0.7283
 2764SOL    HW2 9192   6.871   2.974   2.838  0.6237  0.6784  0.0868
 2765SOL     OW 9193   0.115   6.219   6.908 -0.3502  0.1072  0.7774
 2765SOL    HW1 9194   0.163   6.138   6.942  0.9184 -1.2446 -3.5876
 2765SOL    HW2 9195   0.179   6.277   6.858 -2.1273  1.4666 -0.0194
 2766SOL     OW 9196   4.704   0.680   0.026  0.0391  0.8257  0.3493
 2766SOL    HW1 9197   4.794   0.701   0.064 -0.0962  0.6491  0.7753
 2766SOL    HW2 9198   4.704   0.587  -0.011  0.5403  1.4286 -1.2376
 2767SOL     OW 9199   0.019   5.994   0.786 -0.6295 -0.4811 -0.3795
 2767SOL    HW1 9200  -0.060   5.967   0.731 -0.6328 -1.1128 -0.0717
 2767SOL    HW2 9201   0.036   6.092   0.774 -2.2287 -0.0555  0.5135
 2768SOL     OW 9202   4.438   6.860   1.071 -0.3734  0.1071 -0.8792
 2768SOL    HW1 9203   4.499   6.940   1.069  1.9154 -1.4507  1.1441
 2768SOL    HW2 9204   4.443   6.813   0.983  0.1931  0.8308 -1.2515
 2769SOL     OW 9205   6.832   5.801   5.894  0.5677 -1.0103  0.2458
 2769SOL    HW1 9206   6.819   5.776   5.990 -0.9860  0.2109  0.4061
 2769SOL    HW2 9207   6.747   5.783   5.844  1.1624 -1.0495 -0.7758
 2770SOL     OW 9208   2.455   5.783   6.845 -0.1833  0.1842 -0.4906
 2770SOL    HW1 9209   2.533   5.844   6.863  0.4488 -0.7556  0.0335
 2770SOL    HW2 9210   2.408   5.764   6.931 -0.1734 -0.3297 -0.5970
 2771SOL     OW 9211   4.465   5.271   4.686  0.7082  0.1736 -0.5168
 2771SOL    HW1 9212   4.543   5.231   4.638  0.5232  0.1626 -0.8101
 2771SOL    HW2 9213   4.392   5.203   4.693  0.8014  0.1117 -0.0496
 2772SOL     OW 9214   0.938   2.679   3.421 -0.2429  0.4266 -0.1024
 2772SOL    HW1 9215   0.909   2.611   3.489  1.5408  0.2014  0.5120
 2772SOL    HW2 9216   1.014   2.642   3.368  2.3294  2.6113  1.7440
 2773SOL     OW 9217   2.649   0.818   4.516 -0.1804  0.1529  0.0685
 2773SOL    HW1 9218   2.677   0.866   4.433 -0.7608 -0.2047 -0.3345
 2773SOL    HW2 9219   2.553   0.792   4.510  0.5142 -2.6266 -0.5089
 2774SOL     OW 9220   6.686   0.323   3.493 -0.2081  0.4195  0.5791
 2774SOL    HW1 9221   6.710   0.418   3.512  1.2860  0.1583  0.1441
 2774SOL    HW2 9222   6.694   0.269   3.577 -0.2360  0.5210  0.6471
 2775SOL     OW 9223   0.123   3.522   3.805 -0.8184 -0.4815 -0.6367
 2775SOL    HW1 9224   0.026   3.547   3.811 -0.4658  1.0920 -0.9897
 2775SOL    HW2 9225   0.143   3.451   3.872 -1.7512  0.7053  0.9554
 2776SOL     OW 9226   6.347   3.264   6.484  0.6884  0.0597 -0.0184
 2776SOL    HW1 9227   6.257   3.245   6.522 -0.0489  0.3340 -1.5240
 2776SOL    HW2 9228   6.380   3.353   6.515  1.1076 -0.6567  1.6752
 2777SOL     OW 9229   0.912   2.358   6.680  0.0126 -0.1256 -0.2973
 2777SOL    HW1 9230   0.977   2.293   6.640 -0.0753 -1.9071  2.2295
 2777SOL    HW2 9231   0.931   2.450   6.645  1.4770 -1.1497 -2.4248
 2778SOL     OW 9232   2.435   4.632   5.789  0.0701 -0.4283  0.4421
 2778SOL    HW1 9233   2.436   4.707   5.856 -1.0795 -0.7982  0.8898
 2778SOL    HW2 9234   2.528   4.616   5.757  0.5211  0.3375  1.3046
 2779SOL     OW 9235   5.354   3.281   4.093  0.7376 -0.2840  0.4167
 2779SOL    HW1 9236   5.433   3.297   4.033  0.7061  0.8047  0.6489
 2779SOL    HW2 9237   5.287   3.355   4.081 -0.0848 -1.0024  0.4955
 2780SOL     OW 9238   6.878   1.730   5.314  0.4134  0.5493 -0.0060
 2780SOL    HW1 9239   6.846   1.635   5.316 -0.7271  0.9215  1.7559
 2780SOL    HW2 9240   6.927   1.752   5.398 -1.3321  2.0999  0.7134
 2781SOL     OW 9241   6.647   6.814   3.869  0.1659  0.0548  0.1290
 2781SOL    HW1 9242   6.594   6.891   3.833  0.4675 -0.6973 -2.0985
 2781SOL    HW2 9243   6.593   6.767   3.939 -1.5983  0.0736 -1.1439
 2782SOL     OW 9244   5.891   0.981   5.038 -0.5083  0.0709 -0.3076
 2782SOL    HW1 9245   5.860   1.062   5.088 -0.6298  0.1494 -0.5084
 2782SOL    HW2 9246   5.991   0.980   5.036 -0.5056  0.4867 -0.7335
 2783SOL     OW 9247   0.397   1.643   1.886 -0.4193  0.2006  0.5531
 2783SOL    HW1 9248   0.314   1.627   1.939 -0.0212 -1.2245  0.7859
 2783SOL    HW2 9249   0.467   1.683   1.945 -1.3396  2.7266  0.0322
 2784SOL     OW 9250   2.063   2.587   2.467 -0.3081  0.5275  0.3318
 2784SOL    HW1 9251   1.981   2.645   2.471 -1.4503 -0.9917  0.3015
 2784SOL    HW2 9252   2.037   2.497   2.430  1.5686  0.2933 -0.4810
 2785SOL     OW 9253   5.478   4.029   3.782 -0.1941  0.2595 -0.0291
 2785SOL    HW1 9254   5.481   3.980   3.695 -0.9090 -0.3624  0.2755
 2785SOL    HW2 9255   5.428   4.115   3.771 -0.3157  0.1641 -0.2312
 2786SOL     OW 9256   0.696   6.285   1.560  0.1262 -0.2937 -0.2188
 2786SOL    HW1 9257   0.657   6.202   1.600  0.8128 -1.2020 -1.3616
 2786SOL    HW2 9258   0.767   6.321   1.620 -0.0860 -0.6004  0.2249
 2787SOL     OW 9259   6.677   5.258   5.008  0.1571  0.1767  0.3837
 2787SOL    HW1 9260   6.741   5.333   5.000 -0.8808  1.0111 -0.3834
 2787SOL    HW2 9261   6.622   5.269   5.091 -0.3346  0.5487  0.0140
 2788SOL     OW 9262   2.568   6.372   0.374  0.0576  0.3133 -1.0327
 2788SOL    HW1 9263   2.538   6.298   0.435 -1.5143 -0.0682 -2.1711
 2788SOL    HW2 9264   2.660   6.401   0.398 -0.7264  0.6396  1.9152
 2789SOL     OW 9265   2.642   2.441   2.484  0.2456 -0.2165  0.4336
 2789SOL    HW1 9266   2.551   2.468   2.452 -0.9084 -1.7606  2.1629
 2789SOL    HW2 9267   2.695   2.406   2.407 -1.1469 -0.5990 -0.3974
 2790SOL     OW 9268   1.044   4.778   0.960  0.3777 -0.2483 -0.8359
 2790SOL    HW1 9269   1.015   4.820   1.046  1.5579 -2.2556  0.6282
 2790SOL    HW2 9270   0.968   4.779   0.895 -1.8453 -2.0174  1.5394
 2791SOL     OW 9271   6.619   3.569   3.873  0.4772  0.0852  0.3665
 2791SOL    HW1 9272   6.558   3.586   3.951  2.0116  1.5178  1.3100
 2791SOL    HW2 9273   6.579   3.609   3.790 -1.6260 -2.2610  0.1381
 2792SOL     OW 9274   2.830   0.810   6.473 -0.3874 -0.0924  0.1268
 2792SOL    HW1 9275   2.861   0.903   6.454  1.0925 -0.7092 -0.6037
 2792SOL    HW2 9276   2.904   0.757   6.514 -0.2126 -1.7686 -2.1491
 2793SOL     OW 9277   4.693   3.550   1.179  0.0074 -0.0826 -0.3388
 2793SOL    HW1 9278   4.684   3.615   1.103  0.0698 -0.4674 -0.6796
 2793SOL    HW2 9279   4.605   3.539   1.224 -0.3166 -0.7464 -1.1034
 2794SOL     OW 9280   1.343   2.320   6.113 -0.3983  0.6740  0.3281
 2794SOL    HW1 9281   1.288   2.392   6.155  0.0436 -0.3125  2.7794
 2794SOL    HW2 9282   1.435   2.321   6.153  0.0004 -0.4414 -0.5272
 2795SOL     OW 9283   0.192   0.584   1.282  0.0479 -0.0338 -0.2482
 2795SOL    HW1 9284   0.244   0.602   1.366  0.5180 -0.7829 -0.3677
 2795SOL    HW2 9285   0.131   0.661   1.263  0.8047  0.6753  0.1362
 2796SOL     OW 9286   3.092   5.760   6.614 -0.3847 -0.2955  0.1864
 2796SOL    HW1 9287   3.038   5.807   6.545 -1.4562  1.3759  2.0637
 2796SOL    HW2 9288   3.041   5.756   6.700  2.5409  1.7206  2.2132
 2797SOL     OW 9289   4.996   3.101   6.280  0.3887 -0.1589  0.4848
 2797SOL    HW1 9290   4.931   3.043   6.232  1.1594  0.1650 -1.0278
 2797SOL    HW2 9291   4.980   3.096   6.379 -0.7514 -1.4592  0.2556
 2798SOL     OW 9292   4.888   1.792   1.387  0.8720  0.0007  0.1146
 2798SOL    HW1 9293   4.828   1.868   1.362  0.7580 -0.2659 -0.4469
 2798SOL    HW2 9294   4.972   1.826   1.428  0.2761  0.3807  1.0594
 2799SOL     OW 9295   2.688   0.277   5.056  0.0447  0.4952  0.2090
 2799SOL    HW1 9296   2.732   0.209   4.997 -0.4164 -0.4183  0.8998
 2799SOL    HW2 9297   2.705   0.254   5.151 -0.9833  0.7667  0.4697
 2800SOL     OW 9298   4.117   6.892   1.149  0.0005 -0.2320  0.2861
 2800SOL    HW1 9299   4.203   6.882   1.200 -0.1852 -0.0110  0.6449
 2800SOL    HW2 9300   4.124   6.971   1.088  0.2447 -0.5341 -0.0838
 2801SOL     OW 9301   6.805   4.545   2.204  0.2112 -0.2161  0.0451
 2801SOL    HW1 9302   6.719   4.494   2.207 -0.5672  1.0912  0.7365
 2801SOL    HW2 9303   6.845   4.546   2.296  0.0096  0.7400  0.1292
 2802SOL     OW 9304   1.605   4.894   5.263 -0.3276  0.2277 -0.0270
 2802SOL    HW1 9305   1.513   4.890   5.225  0.2720  0.7666 -1.6097
 2802SOL    HW2 9306   1.602   4.936   5.354 -1.6586 -0.0749  0.0944
 2803SOL     OW 9307   3.458   2.244   1.682 -0.1046 -0.2514 -0.2879
 2803SOL    HW1 9308   3.393   2.319   1.698  0.3372  0.4440 -1.5976
 2803SOL    HW2 9309   3.538   2.256   1.740  0.9308  1.5387 -1.9548
 2804SOL     OW 9310   6.424   2.604   4.020  0.1883 -0.0128  0.0857
 2804SOL    HW1 9311   6.442   2.510   3.991  0.6611  0.3247 -0.7441
 2804SOL    HW2 9312   6.507   2.659   4.009  0.1287  0.3468  1.2481
 2805SOL     OW 9313   3.266   6.154   5.214  0.2540  0.7803  0.4629
 2805SOL    HW1 9314   3.302   6.104   5.136 -1.4012 -0.2864  0.3220
 2805SOL    HW2 9315   3.332   6.153   5.289  0.6238 -0.8805  0.1473
 2806SOL     OW 9316   2.157   1.055   4.385  0.4388  0.6059  0.2673
 2806SOL    HW1 9317   2.136   0.995   4.462  1.1821  1.1970  0.9562
 2806SOL    HW2 9318   2.102   1.139   4.393 -1.9560 -0.6619 -1.6688
 2807SOL     OW 9319   5.516   1.244   5.423  0.1207  0.6594 -0.6588
 2807SOL    HW1 9320   5.609   1.219   5.446 -0.4486 -1.6870 -0.6753
 2807SOL    HW2 9321   5.515   1.292   5.335  1.1768 -0.7023 -1.4429
 2808SOL     OW 9322   6.772   1.096   6.602  0.4642 -0.5278  0.1858
 2808SOL    HW1 9323   6.768   1.194   6.621  1.6628 -0.1081 -1.5274
 2808SOL    HW2 9324   6.853   1.075   6.548  0.3582 -2.5204  0.7109
 2809SOL     OW 9325   5.946   5.266   1.111  0.8524 -0.1342  0.2331
 2809SOL    HW1 9326   5.861   5.235   1.069  0.5592  0.1868  0.5823
 2809SOL    HW2 9327   6.008   5.301   1.040  0.4176  0.2765  0.0561
 2810SOL     OW 9328   0.060   3.914   1.825 -0.0860  0.1748 -0.0749
 2810SOL    HW1 9329   0.031   3.832   1.777  1.4493  0.4860 -1.6394
 2810SOL    HW2 9330   0.086   3.891   1.919  0.3691 -1.1272 -0.5045
 2811SOL     OW 9331   1.300   1.208   6.910  0.3668 -0.3767 -0.6048
 2811SOL    HW1 9332   1.349   1.288   6.944  0.3501 -0.1370 -1.1267
 2811SOL    HW2 9333   1.365   1.142   6.871  0.2186  0.5652 -2.5946
 2812SOL     OW 9334   3.550   1.378   1.505  0.3677  0.1771 -0.1796
 2812SOL    HW1 9335   3.517   1.414   1.592  0.8687  0.1372  0.0308
 2812SOL    HW2 9336   3.616   1.306   1.522 -0.9048 -1.1284 -0.5995
 2813SOL     OW 9337   5.301   2.660   1.399 -0.0975 -0.6918 -0.1217
 2813SOL    HW1 9338   5.332   2.585   1.457  2.9968  0.5267  0.0069
 2813SOL    HW2 9339   5.252   2.728   1.454  1.3785 -0.3282  0.7840
 2814SOL     OW 9340   2.727   4.423   6.369 -0.0986  0.1327  0.4303
 2814SOL    HW1 9341   2.802   4.358   6.362  1.1828  1.0337  3.8030
 2814SOL    HW2 9342   2.713   4.468   6.281  0.7420 -2.6904 -1.2835
 2815SOL     OW 9343   6.626   5.017   4.293 -0.2044 -0.7135 -0.0243
 2815SOL    HW1 9344   6.540   4.990   4.249 -0.9613  0.3571  0.7095
 2815SOL    HW2 9345   6.608   5.094   4.355  0.7587 -2.2443  2.2865
 2816SOL     OW 9346   1.667   6.671   5.840 -0.0172 -0.1363  0.3609
 2816SOL    HW1 9347   1.608   6.747   5.814  1.4507  1.2464  0.8394
 2816SOL    HW2 9348   1.689   6.679   5.938  2.0016  0.2250 -0.0693
 2817SOL     OW 9349   4.644   1.945   1.864  0.0463  0.4225  0.0977
 2817SOL    HW1 9350   4.738   1.976   1.849  0.4152 -0.5144  0.3526
 2817SOL    HW2 9351   4.590   2.019   1.903 -0.1215  1.9090 -2.7724
 2818SOL     OW 9352   0.970   6.779   6.716  0.5581 -0.3144  0.4797
 2818SOL    HW1 9353   0.999   6.741   6.628 -3.0880 -0.4521 -0.8262
 2818SOL    HW2 9354   1.049   6.820   6.762  2.7581 -0.8755 -2.4910
 2819SOL     OW 9355   4.353   6.850   6.251  0.3120 -0.3395 -0.5641
 2819SOL    HW1 9356   4.315   6.880   6.339  0.7832  1.2590 -0.8779
 2819SOL    HW2 9357   4.436   6.796   6.267  2.2885  2.6095  0.0023
 2820SOL     OW 9358   3.017   0.675   6.610 -0.1405 -0.5048  0.0908
 2820SOL    HW1 9359   3.059   0.738   6.676  0.2502 -1.0933  0.4177
 2820SOL    HW2 9360   3.017   0.582   6.648 -2.2081 -0.4645  0.3221
 2821SOL     OW 9361   6.208   2.478   6.776  0.2267 -0.2054  0.1013
 2821SOL    HW1 9362   6.237   2.444   6.865 -1.5107  0.3037  0.9087
 2821SOL    HW2 9363   6.174   2.572   6.785  1.3259  0.3667 -1.3679
 2822SOL     OW 9364   3.287   4.152   6.982 -0.6814  0.3248 -0.5719
 2822SOL    HW1 9365   3.345   4.092   7.037 -1.0894  1.0378  0.6757
 2822SOL    HW2 9366   3.268   4.109   6.893 -0.6698 -1.2158  0.1505
 2823SOL     OW 9367   5.072   3.939   3.102  0.3795  0.0509 -0.0304
 2823SOL    HW1 9368   5.120   3.899   3.024  3.0977  1.5489  0.7423
 2823SOL    HW2 9369   4.983   3.895   3.113  1.9107 -3.6332 -0.9889
 2824SOL     OW 9370   6.459   2.985   4.926 -0.3280 -1.0336 -0.5452
 2824SOL    HW1 9371   6.500   2.956   4.840 -1.4492 -1.7687 -0.8641
 2824SOL    HW2 9372   6.389   2.918   4.954 -2.1498  0.7359 -0.6621
 2825SOL     OW 9373   5.127   3.413   4.524  0.4366  0.0288 -0.1926
 2825SOL    HW1 9374   5.169   3.446   4.609  2.2038 -2.8375  0.1734
 2825SOL    HW2 9375   5.058   3.345   4.545 -1.5097  1.6299 -1.0240
 2826SOL     OW 9376   2.329   1.781   5.167 -0.4037 -0.5925  0.5481
 2826SOL    HW1 9377   2.398   1.764   5.238 -0.3649  1.0958  0.9575
 2826SOL    HW2 9378   2.246   1.818   5.208 -0.3730  0.4369 -0.2728
 2827SOL     OW 9379   0.138   2.618   0.332 -0.2114 -0.2279  0.2660
 2827SOL    HW1 9380   0.039   2.617   0.319  0.0607  0.3033 -2.2618
 2827SOL    HW2 9381   0.179   2.692   0.278  1.6792 -1.0804  0.4381
 2828SOL     OW 9382   1.918   4.542   6.241 -0.1375  0.9440 -0.0561
 2828SOL    HW1 9383   1.896   4.559   6.337 -2.4676 -0.3495 -0.3003
 2828SOL    HW2 9384   1.921   4.444   6.224 -2.3564  1.0987 -1.7933
 2829SOL     OW 9385   2.991   2.937   6.343 -0.5741 -0.0132  0.1307
 2829SOL    HW1 9386   2.918   2.995   6.306 -0.5056 -0.4442 -0.7064
 2829SOL    HW2 9387   3.047   2.990   6.406 -1.4809  0.3856  0.6266
 2830SOL     OW 9388   1.593   6.476   4.297 -0.6442  0.1866  0.0275
 2830SOL    HW1 9389   1.548   6.445   4.381  1.6192 -1.0968  0.8602
 2830SOL    HW2 9390   1.661   6.408   4.269 -0.8251  0.9331 -2.4754
 2831SOL     OW 9391   5.085   1.507   0.748  0.4956  0.2059  0.1420
 2831SOL    HW1 9392   5.140   1.583   0.783  0.5232  0.1164  0.2938
 2831SOL    HW2 9393   5.143   1.443   0.698  0.7404 -0.4926  1.2914
 2832SOL     OW 9394   6.338   3.405   0.464  0.3353 -0.0009 -0.5333
 2832SOL    HW1 9395   6.438   3.406   0.451  0.4241 -1.8158 -0.2960
 2832SOL    HW2 9396   6.304   3.313   0.447 -1.2368  0.4646 -0.0102
 2833SOL     OW 9397   6.560   2.052   2.505 -0.5399 -0.4857  0.7304
 2833SOL    HW1 9398   6.647   2.027   2.546 -0.1792  0.2159  0.4229
 2833SOL    HW2 9399   6.567   2.144   2.466 -0.9916 -0.9604 -0.5161
 2834SOL     OW 9400   2.606   1.796   4.115 -0.6624 -0.1021  1.0200
 2834SOL    HW1 9401   2.526   1.854   4.101  0.9533  1.7893 -1.0986
 2834SOL    HW2 9402   2.656   1.825   4.197  1.1282  2.9748 -0.9569
 2835SOL     OW 9403   5.923   0.667   1.072 -0.8546  0.0438 -0.0690
 2835SOL    HW1 9404   5.834   0.631   1.043 -0.5891 -0.2273 -0.5580
 2835SOL    HW2 9405   5.988   0.592   1.083 -0.1283  0.3944 -1.6769
 2836SOL     OW 9406   4.218   5.280   4.271 -0.0461  0.3550 -0.2260
 2836SOL    HW1 9407   4.278   5.349   4.232 -0.2718  0.8761  0.3438
 2836SOL    HW2 9408   4.175   5.315   4.354  1.1960 -1.0708  1.0983
 2837SOL     OW 9409   4.594   4.469   2.636 -0.6703  0.4576  0.4406
 2837SOL    HW1 9410   4.687   4.494   2.609 -0.2986  0.1547  1.4190
 2837SOL    HW2 9411   4.548   4.423   2.559  0.1600  0.1410  0.1277
 2838SOL     OW 9412   6.300   5.556   3.281 -0.0004  0.2733 -0.2260
 2838SOL    HW1 9413   6.279   5.467   3.239  1.4643  0.7024 -1.9737
 2838SOL    HW2 9414   6.397   5.560   3.303 -0.2884  1.0078  0.9576
 2839SOL     OW 9415   5.519   2.548   6.125 -0.4004 -0.3514  0.6723
 2839SOL    HW1 9416   5.502   2.643   6.098  0.3133 -0.3066  0.3599
 2839SOL    HW2 9417   5.615   2.525   6.108  0.1839 -0.2430  3.3596
 2840SOL     OW 9418   0.793   5.019   3.787 -0.5822  0.5834  0.0350
 2840SOL    HW1 9419   0.845   5.048   3.706  2.5714  0.4072  1.8497
 2840SOL    HW2 9420   0.768   4.923   3.777  0.0300  0.4817 -0.6148
 2841SOL     OW 9421   0.319   4.135   2.185  0.1301 -0.2583  0.0050
 2841SOL    HW1 9422   0.257   4.139   2.106  1.7581 -1.0193 -1.3664
 2841SOL    HW2 9423   0.379   4.055   2.176  2.4543  1.3490  0.3843
 2842SOL     OW 9424   0.612   6.878   3.553  0.0973  0.0575 -0.1498
 2842SOL    HW1 9425   0.661   6.794   3.530  1.4793  0.7623  0.1434
 2842SOL    HW2 9426   0.517   6.870   3.523  0.1820 -1.6351 -0.0515
 2843SOL     OW 9427   6.209   2.348   4.690  0.6558 -0.1800  0.4731
 2843SOL    HW1 9428   6.110   2.344   4.706 -0.1159 -2.0777 -3.7019
 2843SOL    HW2 9429   6.253   2.269   4.733  0.1761 -0.0494  1.2231
 2844SOL     OW 9430   4.362   3.868   1.420  0.3662  0.1313 -0.3237
 2844SOL    HW1 9431   4.372   3.789   1.481  1.1161 -0.0941 -0.7238
 2844SOL    HW2 9432   4.267   3.874   1.389  0.2707 -0.5311 -0.1777
 2845SOL     OW 9433   3.957   1.822   1.835 -0.4831  0.3080 -0.2092
 2845SOL    HW1 9434   3.932   1.807   1.739 -0.1628  0.2339 -0.2809
 2845SOL    HW2 9435   3.923   1.911   1.865  0.6498  0.9701 -0.8136
 2846SOL     OW 9436   6.941   0.288   0.947  0.9380  0.0056 -0.3404
 2846SOL    HW1 9437   6.974   0.217   0.885 -1.8382 -2.7352  1.0133
 2846SOL    HW2 9438   6.849   0.316   0.919  0.4711  0.2190  1.2827
 2847SOL     OW 9439   6.971   0.459   1.763 -0.3980  0.2727  0.1121
 2847SOL    HW1 9440   6.994   0.363   1.775  1.1074  0.4549 -0.9094
 2847SOL    HW2 9441   6.939   0.475   1.669 -0.7908  0.7337  0.3194
 2848SOL     OW 9442   5.691   3.534   5.213  0.1468 -0.3814  0.0247
 2848SOL    HW1 9443   5.658   3.495   5.299 -0.2110 -1.6955 -0.6657
 2848SOL    HW2 9444   5.620   3.591   5.172  0.9635  1.7801  1.4441
 2849SOL     OW 9445   6.922   1.014   0.453  0.4442 -0.3567 -0.3304
 2849SOL    HW1 9446   6.843   1.042   0.399 -0.6032 -2.5480 -0.0340
 2849SOL    HW2 9447   6.950   1.090   0.512 -0.2477  1.0714 -1.7704
 2850SOL     OW 9448   0.335   1.961   1.015 -0.5264  0.2467 -0.4033
 2850SOL    HW1 9449   0.323   2.056   0.987  0.6985  0.5976  0.1759
 2850SOL    HW2 9450   0.408   1.955   1.084  0.2358 -1.2483 -1.2749
 2851SOL     OW 9451   3.786   3.618   2.975 -0.1889 -0.0501 -0.1082
 2851SOL    HW1 9452   3.721   3.658   2.910 -1.5221 -0.0408  1.1809
 2851SOL    HW2 9453   3.817   3.529   2.940 -0.2186  0.3220 -1.1375
 2852SOL     OW 9454   1.519   4.603   5.608  0.1930 -0.5453 -0.0573
 2852SOL    HW1 9455   1.441   4.661   5.587  0.3610 -0.8640 -1.7767
 2852SOL    HW2 9456   1.545   4.551   5.526  2.4658 -0.1356  0.3181
 2853SOL     OW 9457   4.881   4.846   5.160 -0.0666 -0.9186  0.1236
 2853SOL    HW1 9458   4.887   4.934   5.207 -0.3802 -1.6852  1.6569
 2853SOL    HW2 9459   4.923   4.775   5.217  1.1778 -1.6048 -1.5666
 2854SOL     OW 9460   2.811   0.578   5.787  0.7242 -0.5351 -0.0276
 2854SOL    HW1 9461   2.716   0.562   5.759  0.6063  1.8047 -1.1718
 2854SOL    HW2 9462   2.871   0.514   5.738 -0.3270 -3.5959  2.3438
 2855SOL     OW 9463   2.888   1.752   5.002  0.3254  0.0589 -0.0727
 2855SOL    HW1 9464   2.822   1.812   4.957  0.1469  0.1200  0.2654
 2855SOL    HW2 9465   2.935   1.802   5.074  1.3092  0.2411 -0.8224
 2856SOL     OW 9466   1.239   5.766   5.995 -0.2446 -0.6825  0.2474
 2856SOL    HW1 9467   1.151   5.746   6.037  0.3828 -2.5807  0.7216
 2856SOL    HW2 9468   1.305   5.695   6.018  1.5598  0.8895  0.2416
 2857SOL     OW 9469   1.527   2.862   5.519 -0.5175 -0.0237  0.6270
 2857SOL    HW1 9470   1.460   2.857   5.592  0.0414 -2.2033  1.0519
 2857SOL    HW2 9471   1.608   2.809   5.544  0.0975 -0.0006 -1.1466
 2858SOL     OW 9472   6.072   2.650   2.096 -0.0804  0.0484  0.2147
 2858SOL    HW1 9473   6.156   2.703   2.109  0.0361 -0.1239  0.1585
 2858SOL    HW2 9474   6.095   2.556   2.074 -0.2943 -0.1181  0.6957
 2859SOL     OW 9475   6.606   5.267   1.696  0.3133  0.5937  0.0549
 2859SOL    HW1 9476   6.653   5.306   1.775 -1.8239 -3.0988  3.5045
 2859SOL    HW2 9477   6.513   5.303   1.692 -0.0992 -0.4203  0.2610
 2860SOL     OW 9478   1.853   4.625   0.901 -0.4835 -0.4135  0.6862
 2860SOL    HW1 9479   1.890   4.691   0.836 -1.0800  0.2962  1.0573
 2860SOL    HW2 9480   1.902   4.538   0.892 -1.8680 -1.0420 -2.1722
 2861SOL     OW 9481   4.810   1.825   5.783 -0.4803 -0.3398 -0.1776
 2861SOL    HW1 9482   4.809   1.745   5.843 -1.1802 -0.5272 -0.4282
 2861SOL    HW2 9483   4.722   1.833   5.735 -0.9128  1.3151  0.8071
 2862SOL     OW 9484   3.366   5.268   0.671 -0.2262  0.0207  0.0378
 2862SOL    HW1 9485   3.431   5.231   0.737  0.1870 -0.6419 -0.7404
 2862SOL    HW2 9486   3.286   5.304   0.721 -0.9531 -2.4557  0.8177
 2863SOL     OW 9487   4.428   2.039   5.659  0.8045 -0.6249 -0.1943
 2863SOL    HW1 9488   4.435   1.998   5.749  1.7979 -0.9503 -0.4088
 2863SOL    HW2 9489   4.387   1.974   5.595 -0.5803 -0.1415  0.1635
 2864SOL     OW 9490   5.149   3.455   0.093  0.2965 -0.2436  0.4946
 2864SOL    HW1 9491   5.128   3.501   0.007 -1.5236 -2.5708 -0.4228
 2864SOL    HW2 9492   5.101   3.502   0.168  1.6606  1.6194  0.2736
 2865SOL     OW 9493   4.991   3.473   5.817  0.0110 -0.2670 -0.3190
 2865SOL    HW1 9494   4.962   3.383   5.785  1.0002 -0.4069 -0.8756
 2865SOL    HW2 9495   4.976   3.479   5.916  0.3664 -1.2334 -0.1898
 2866SOL     OW 9496   4.391   5.095   1.117 -0.0553  0.0482 -0.1145
 2866SOL    HW1 9497   4.299   5.095   1.077 -0.3370 -1.0209  0.4873
 2866SOL    HW2 9498   4.415   5.002   1.145  0.9215  0.4400  0.3930
 2867SOL     OW 9499   0.011   6.229   2.438 -0.7927  0.2613  0.2760
 2867SOL    HW1 9500   0.048   6.138   2.421 -0.2566  0.4029  0.6544
 2867SOL    HW2 9501   0.055   6.294   2.375  1.5654  0.8734  2.3868
 2868SOL     OW 9502   6.462   5.595   5.843  0.1402 -0.2805  0.2228
 2868SOL    HW1 9503   6.380   5.552   5.879 -0.4613  0.3929 -0.3006
 2868SOL    HW2 9504   6.486   5.554   5.755  1.3995 -1.6791  1.1797
 2869SOL     OW 9505   6.936   4.281   3.986 -0.1385 -0.3692 -0.3252
 2869SOL    HW1 9506   6.905   4.251   3.895  1.6458 -1.4048 -0.6250
 2869SOL    HW2 9507   7.006   4.351   3.975  0.8310 -1.2290  0.1913
 2870SOL     OW 9508   0.663   1.374   0.098  0.0725  0.3722 -0.4965
 2870SOL    HW1 9509   0.690   1.372   0.194 -1.0973 -0.8354 -0.1567
 2870SOL    HW2 9510   0.729   1.321   0.044  0.0096 -0.0774 -0.1414
 2871SOL     OW 9511   4.984   2.337   4.621 -0.3112 -0.2793  0.4569
 2871SOL    HW1 9512   5.069   2.289   4.645  1.2359  2.5384  1.0812
 2871SOL    HW2 9513   5.003   2.406   4.551 -2.2605 -0.0372  0.1107
 2872SOL     OW 9514   1.696   1.414   4.211  0.0257 -0.0591 -0.1417
 2872SOL    HW1 9515   1.634   1.490   4.196 -0.5989 -0.4491  0.3985
 2872SOL    HW2 9516   1.736   1.420   4.303 -1.6586 -1.4781  0.7578
 2873SOL     OW 9517   6.428   6.961   1.924  0.2190 -0.2228 -0.1469
 2873SOL    HW1 9518   6.527   6.973   1.914  0.6937 -2.2811  1.3302
 2873SOL    HW2 9519   6.386   6.944   1.835  1.2611  0.2195 -0.7303
 2874SOL     OW 9520   0.773   0.575   2.714 -0.4093  0.4520 -0.2863
 2874SOL    HW1 9521   0.825   0.645   2.763  0.3320  1.7329 -2.6995
 2874SOL    HW2 9522   0.833   0.532   2.646 -1.9693  0.6443 -1.8642
 2875SOL     OW 9523   2.467   0.010   3.528 -0.6095 -0.2519  0.0582
 2875SOL    HW1 9524   2.510  -0.066   3.576 -1.0741 -0.8830 -0.5029
 2875SOL    HW2 9525   2.457   0.088   3.590 -3.0463 -1.6841  1.6316
 2876SOL     OW 9526   1.899   1.080   6.160 -0.7301 -0.2637  0.0402
 2876SOL    HW1 9527   1.996   1.081   6.185 -0.8623 -0.0785  0.5399
 2876SOL    HW2 9528   1.843   1.079   6.242 -1.2123  2.6058 -0.1659
 2877SOL     OW 9529   0.603   2.359   6.243 -0.0338 -0.3758  0.1489
 2877SOL    HW1 9530   0.603   2.410   6.157 -0.6741 -1.2199 -0.3553
 2877SOL    HW2 9531   0.650   2.272   6.231  0.7888 -0.0608  0.9343
 2878SOL     OW 9532   3.940   3.010   4.795  0.2140  0.3737  0.7235
 2878SOL    HW1 9533   3.983   2.920   4.792  1.6410  1.0410 -0.1578
 2878SOL    HW2 9534   3.909   3.035   4.703 -0.1424  0.7835  0.9524
 2879SOL     OW 9535   2.366   0.189   0.111 -0.5174  0.4181  0.1745
 2879SOL    HW1 9536   2.444   0.185   0.048  0.1140 -0.1479  0.9725
 2879SOL    HW2 9537   2.309   0.108   0.098  0.0397 -0.0905  0.8615
 2880SOL     OW 9538   1.780   1.053   3.274 -0.5505  0.0052  0.0840
 2880SOL    HW1 9539   1.876   1.062   3.250 -0.5980 -0.5534 -0.3347
 2880SOL    HW2 9540   1.766   0.971   3.330 -0.7373  0.2535  0.4081
 2881SOL     OW 9541   5.007   6.093   1.107 -0.1769 -0.5284  0.4714
 2881SOL    HW1 9542   4.914   6.116   1.135 -1.2282 -0.8095 -2.4512
 2881SOL    HW2 9543   5.036   6.009   1.152 -1.8917 -1.1754  0.4156
 2882SOL     OW 9544   4.141   6.416   0.742  0.5194  0.2077  0.2287
 2882SOL    HW1 9545   4.212   6.473   0.702 -0.5093  1.7440  0.4958
 2882SOL    HW2 9546   4.122   6.446   0.836  1.2069 -1.7714  1.0427
 2883SOL     OW 9547   6.067   6.416   2.333 -0.6677 -0.1545 -0.0392
 2883SOL    HW1 9548   6.044   6.457   2.245  1.0866 -0.0708 -0.5051
 2883SOL    HW2 9549   5.988   6.369   2.371 -2.5367  2.8640  0.0802
 2884SOL     OW 9550   4.483   4.792   3.862 -0.7971  0.6986  0.0532
 2884SOL    HW1 9551   4.442   4.712   3.905  0.0767  0.4616  0.4810
 2884SOL    HW2 9552   4.567   4.765   3.815 -2.4797  0.6583 -3.1840
 2885SOL     OW 9553   5.835   3.581   3.443  0.5828 -0.1170 -0.3725
 2885SOL    HW1 9554   5.821   3.667   3.393  1.5952 -0.6531 -1.6025
 2885SOL    HW2 9555   5.797   3.505   3.391  1.5627 -0.6739 -0.2868
 2886SOL     OW 9556   1.983   5.659   4.798 -0.0713 -0.6804 -0.1117
 2886SOL    HW1 9557   1.977   5.599   4.719  1.9128 -0.3151 -0.5935
 2886SOL    HW2 9558   2.076   5.655   4.836 -0.8285 -0.4212  1.8688
 2887SOL     OW 9559   0.547   5.896   2.093 -0.8331  0.0221  0.5595
 2887SOL    HW1 9560   0.624   5.867   2.035 -0.2155 -2.2316  2.3565
 2887SOL    HW2 9561   0.494   5.816   2.119 -0.6122  0.7889  3.7238
 2888SOL     OW 9562   5.889   0.020   6.021  0.2317  0.0212  0.1210
 2888SOL    HW1 9563   5.836   0.073   5.956 -0.8787  0.3614  1.2674
 2888SOL    HW2 9564   5.986   0.042   6.010  0.0812 -0.0098 -1.4594
 2889SOL     OW 9565   2.431   5.401   5.186 -0.3215 -0.1176 -0.2798
 2889SOL    HW1 9566   2.396   5.315   5.151 -1.1429  0.2218 -0.3179
 2889SOL    HW2 9567   2.503   5.435   5.126  0.4135 -1.0493  0.0451
 2890SOL     OW 9568   3.484   2.695   6.889  0.4216 -0.2641 -0.1068
 2890SOL    HW1 9569   3.491   2.679   6.791 -0.1916  0.5031 -0.2812
 2890SOL    HW2 9570   3.509   2.790   6.910 -0.4093 -0.1347  0.3500
 2891SOL     OW 9571   1.794   2.813   4.802  0.2646  0.2252  0.0045
 2891SOL    HW1 9572   1.797   2.733   4.742 -0.5946 -0.7373  1.1832
 2891SOL    HW2 9573   1.882   2.824   4.848  1.0113  1.1188 -1.5762
 2892SOL     OW 9574   6.293   6.441   3.159  0.1957  0.3858  0.3899
 2892SOL    HW1 9575   6.386   6.471   3.178 -0.5943  2.7644  0.8297
 2892SOL    HW2 9576   6.249   6.412   3.244  0.2589  0.0886  0.3218
 2893SOL     OW 9577   6.227   3.952   5.337 -0.4397  0.0679 -0.4130
 2893SOL    HW1 9578   6.308   3.922   5.287 -1.5238  0.8644 -2.7728
 2893SOL    HW2 9579   6.242   3.938   5.435  1.3864 -2.5217 -0.9427
 2894SOL     OW 9580   6.988   4.789   1.699 -0.2843 -0.8555 -0.0052
 2894SOL    HW1 9581   7.070   4.736   1.678  0.3525  0.4949 -1.1030
 2894SOL    HW2 9582   6.910   4.754   1.648  0.6659  0.7020 -2.7117
 2895SOL     OW 9583   5.585   5.964   7.007 -0.2771  0.2342 -0.0076
 2895SOL    HW1 9584   5.490   5.933   7.005 -0.3243 -0.3340  3.6255
 2895SOL    HW2 9585   5.590   6.050   7.058  1.0795  0.7682 -0.9924
 2896SOL     OW 9586   0.545   0.169   6.715 -0.0241 -0.4376  0.0035
 2896SOL    HW1 9587   0.622   0.230   6.695 -0.7189  0.3403 -0.3810
 2896SOL    HW2 9588   0.578   0.088   6.762  0.6990  1.2721  2.6863
 2897SOL     OW 9589   3.260   5.504   3.356  0.0078  0.2752  0.1075
 2897SOL    HW1 9590   3.323   5.427   3.349 -0.0749  0.1992  0.2058
 2897SOL    HW2 9591   3.168   5.471   3.376 -0.1934  0.3358 -0.6724
 2898SOL     OW 9592   4.700   3.177   1.186  0.1556 -0.6470 -0.4761
 2898SOL    HW1 9593   4.753   3.193   1.269  2.1556 -1.4134 -1.5372
 2898SOL    HW2 9594   4.604   3.161   1.210  0.4674  0.2684  1.5597
 2899SOL     OW 9595   6.084   3.666   0.840 -0.4451  0.4990  0.1092
 2899SOL    HW1 9596   6.048   3.663   0.933 -1.1488 -0.7771 -0.1653
 2899SOL    HW2 9597   6.098   3.761   0.812  3.2481  0.9235  2.7602
 2900SOL     OW 9598   3.195   3.680   4.428 -0.0535  0.1929 -0.5389
 2900SOL    HW1 9599   3.202   3.599   4.486 -2.2448 -0.6038 -1.3003
 2900SOL    HW2 9600   3.221   3.656   4.334  2.1623  1.1523 -0.2442
 2901SOL     OW 9601   0.647   1.237   0.595 -0.2997  0.2399  0.2357
 2901SOL    HW1 9602   0.642   1.154   0.651  0.0042 -0.3679 -0.6135
 2901SOL    HW2 9603   0.657   1.212   0.499  2.7560  1.1881  0.1705
 2902SOL     OW 9604   3.649   5.896   4.012 -0.4328  0.2706 -0.2596
 2902SOL    HW1 9605   3.744   5.872   4.035  0.2332  0.6377 -2.4643
 2902SOL    HW2 9606   3.598   5.812   3.993  0.0801  0.1773 -1.2955
 2903SOL     OW 9607   1.882   6.573   0.193 -0.2427 -0.5064 -0.1444
 2903SOL    HW1 9608   1.813   6.583   0.265  0.2588 -1.7472  0.5441
 2903SOL    HW2 9609   1.903   6.476   0.181  1.5197 -0.1456 -0.2028
 2904SOL     OW 9610   2.666   4.958   3.818  0.2122 -0.0251  0.0024
 2904SOL    HW1 9611   2.666   4.867   3.776 -2.1921  0.4421 -1.2180
 2904SOL    HW2 9612   2.589   5.011   3.781  0.2462  1.7585  2.2964
 2905SOL     OW 9613   1.207   4.301   2.051  0.0034 -0.8348 -0.4427
 2905SOL    HW1 9614   1.296   4.255   2.047  0.2815 -0.8173  2.6346
 2905SOL    HW2 9615   1.175   4.321   1.959  3.4110 -0.4228 -1.6797
 2906SOL     OW 9616   6.186   1.089   1.459 -0.0572  0.8254 -0.0545
 2906SOL    HW1 9617   6.204   1.132   1.371  2.4524  0.3679  0.1600
 2906SOL    HW2 9618   6.264   1.103   1.520  0.1269 -2.3737  0.6635
 2907SOL     OW 9619   1.743   2.029   4.678 -0.2794  0.4981 -0.3649
 2907SOL    HW1 9620   1.765   2.063   4.586 -3.1628  0.6864 -1.0779
 2907SOL    HW2 9621   1.748   2.105   4.743 -1.0322  1.0339 -0.9118
 2908SOL     OW 9622   3.090   6.723   4.217  0.4011  0.5907  0.2641
 2908SOL    HW1 9623   3.075   6.704   4.120  1.8381  0.9050 -0.0444
 2908SOL    HW2 9624   3.174   6.776   4.228  1.3365 -1.1005  1.8290
 2909SOL     OW 9625   6.914   0.003   1.577 -0.4925 -0.0897 -0.1880
 2909SOL    HW1 9626   6.870  -0.086   1.570  0.2242 -0.4412 -0.3548
 2909SOL    HW2 9627   6.963   0.023   1.492  0.7206 -0.2834  0.4519
 2910SOL     OW 9628   0.289   0.657   3.640 -0.0879 -0.0213 -0.6543
 2910SOL    HW1 9629   0.303   0.558   3.636 -2.2239 -0.3846 -0.5061
 2910SOL    HW2 9630   0.319   0.692   3.728 -0.9252 -0.8621 -0.0128
 2911SOL     OW 9631   0.103   3.947   2.696  0.1034  0.2816  0.1957
 2911SOL    HW1 9632   0.164   3.974   2.771 -2.5544 -0.4352  2.8225
 2911SOL    HW2 9633   0.014   3.991   2.709 -0.5557 -0.1429 -2.4183
 2912SOL     OW 9634   5.520   1.526   3.391 -0.5660  0.3623 -0.6207
 2912SOL    HW1 9635   5.571   1.583   3.456 -0.9546  0.1704 -0.1392
 2912SOL    HW2 9636   5.577   1.506   3.312 -0.1451  0.7483 -0.4194
 2913SOL     OW 9637   1.252   6.430   5.366 -0.5207  0.0874  0.0713
 2913SOL    HW1 9638   1.162   6.389   5.350 -0.0315 -0.7085 -0.7857
 2913SOL    HW2 9639   1.305   6.371   5.426  0.0483 -0.3760 -0.8530
 2914SOL     OW 9640   2.644   4.956   5.697  0.3656  0.1057 -0.0360
 2914SOL    HW1 9641   2.679   4.883   5.755  0.5279  0.3063  0.1202
 2914SOL    HW2 9642   2.717   5.022   5.679  0.1925  0.2828 -0.0897
 2915SOL     OW 9643   0.583   0.154   2.980 -0.8496 -0.4252 -0.0611
 2915SOL    HW1 9644   0.602   0.056   2.994 -2.0450 -0.7918 -0.8335
 2915SOL    HW2 9645   0.576   0.199   3.069 -0.2278 -1.0224  0.3045
 2916SOL     OW 9646   0.043   3.366   6.424 -0.0243 -0.2777 -0.1852
 2916SOL    HW1 9647  -0.037   3.409   6.381 -0.0343  1.5650  1.5751
 2916SOL    HW2 9648   0.020   3.338   6.517  0.9979 -1.0812 -0.1526
 2917SOL     OW 9649   3.907   2.162   2.651  0.9827 -0.4623 -0.4385
 2917SOL    HW1 9650   3.980   2.167   2.583  2.3349 -2.4813  0.7680
 2917SOL    HW2 9651   3.946   2.136   2.740 -0.8380  1.2082  0.9488
 2918SOL     OW 9652   4.676   0.258   1.541  0.5282  0.2567 -0.0849
 2918SOL    HW1 9653   4.671   0.263   1.442  0.7087 -2.1926 -0.2790
 2918SOL    HW2 9654   4.584   0.252   1.579  0.4478 -2.7982 -0.4884
 2919SOL     OW 9655   0.388   5.691   6.191 -0.0727  0.4096 -0.1171
 2919SOL    HW1 9656   0.426   5.717   6.102 -0.6437  0.4695 -0.3453
 2919SOL    HW2 9657   0.304   5.742   6.208 -1.4112 -1.4758 -0.7403
 2920SOL     OW 9658   2.974   1.880   2.563 -0.2806  0.4899 -0.1306
 2920SOL    HW1 9659   3.064   1.862   2.523 -0.8837  1.1742 -1.9404
 2920SOL    HW2 9660   2.958   1.979   2.566 -1.0289  0.3726 -0.0026
 2921SOL     OW 9661   0.842   3.912   4.276 -0.3903  0.3151 -0.6156
 2921SOL    HW1 9662   0.763   3.971   4.262 -0.4175  0.0341 -1.7690
 2921SOL    HW2 9663   0.838   3.871   4.367 -1.0571  1.0501 -0.3011
 2922SOL     OW 9664   3.656   5.023   3.817 -0.8918 -0.4864  0.1359
 2922SOL    HW1 9665   3.742   5.073   3.829 -1.1456 -0.3458  1.5618
 2922SOL    HW2 9666   3.617   5.002   3.907 -1.8492 -1.4226 -0.4777
 2923SOL     OW 9667   2.043   5.883   2.717  0.1796  0.0800  0.1509
 2923SOL    HW1 9668   2.133   5.925   2.726 -0.1609  0.8736 -0.1302
 2923SOL    HW2 9669   2.029   5.819   2.793  0.6520  0.5561  0.6473
 2924SOL     OW 9670   6.539   0.460   0.136  0.3028  0.0003  0.4816
 2924SOL    HW1 9671   6.509   0.466   0.041 -2.0789 -0.5790  1.1207
 2924SOL    HW2 9672   6.534   0.550   0.180  0.2368  0.0438  0.3826
 2925SOL     OW 9673   5.889   5.179   3.830  0.5006 -0.0601 -0.6835
 2925SOL    HW1 9674   5.820   5.140   3.767  0.0902 -1.2984  0.4863
 2925SOL    HW2 9675   5.974   5.127   3.821  0.0512 -1.0825  0.6511
 2926SOL     OW 9676   4.521   3.963   5.283 -0.3336 -0.8542  0.0021
 2926SOL    HW1 9677   4.447   3.897   5.291  0.2349 -1.3855  1.1539
 2926SOL    HW2 9678   4.609   3.915   5.290  0.0862  0.0895  1.8704
 2927SOL     OW 9679   1.378   1.853   3.220  0.2206 -0.1470 -0.8057
 2927SOL    HW1 9680   1.409   1.825   3.311  0.7274  2.3757 -0.1169
 2927SOL    HW2 9681   1.340   1.946   3.225 -1.0213 -0.4719 -2.9474
 2928SOL     OW 9682   4.721   3.979   1.017  0.5967 -0.1596  0.3774
 2928SOL    HW1 9683   4.716   4.045   1.091 -3.6367  0.0941  0.1107
 2928SOL    HW2 9684   4.674   4.016   0.936  1.1257 -2.1530 -0.9179
 2929SOL     OW 9685   2.517   1.183   2.141 -0.1019 -0.4885 -0.0747
 2929SOL    HW1 9686   2.562   1.258   2.093 -1.5879 -0.1637 -1.0286
 2929SOL    HW2 9687   2.419   1.185   2.120 -0.5597 -1.2325  1.8248
 2930SOL     OW 9688   1.522   2.773   2.523 -0.2669  0.0914 -0.5275
 2930SOL    HW1 9689   1.487   2.814   2.439 -0.0790  0.9457 -0.1923
 2930SOL    HW2 9690   1.513   2.838   2.598  1.1522 -0.0223 -0.2329
 2931SOL     OW 9691   4.346   4.285   5.951 -0.2581 -0.7742 -0.0245
 2931SOL    HW1 9692   4.296   4.249   5.872 -0.4730 -0.3511 -0.0845
 2931SOL    HW2 9693   4.443   4.293   5.928 -0.5444  0.9746 -0.8702
 2932SOL     OW 9694   1.467   0.307   6.804  0.1302 -0.0403  0.3237
 2932SOL    HW1 9695   1.431   0.216   6.784  0.3218 -0.0861  0.1813
 2932SOL    HW2 9696   1.422   0.374   6.744  1.1997 -0.2705 -0.7716
 2933SOL     OW 9697   0.155   3.079   0.088 -0.7309  0.3827  0.5301
 2933SOL    HW1 9698   0.242   3.029   0.087 -1.1978 -0.4495  0.6888
 2933SOL    HW2 9699   0.169   3.170   0.050  0.2792  0.3746  0.8505
 2934SOL     OW 9700   4.962   6.412   1.411  1.1015  0.3248 -0.5467
 2934SOL    HW1 9701   4.969   6.505   1.374  0.6738  0.5421 -0.0916
 2934SOL    HW2 9702   4.894   6.410   1.485  1.6595 -0.1839 -0.0317
 2935SOL     OW 9703   6.047   3.655   5.474  0.4299  0.0663 -0.0746
 2935SOL    HW1 9704   6.137   3.613   5.463 -0.2929 -2.7592  2.8570
 2935SOL    HW2 9705   6.045   3.708   5.559 -0.3109  1.3479 -0.8550
 2936SOL     OW 9706   4.672   6.741   2.626  0.7744 -0.0628  0.4040
 2936SOL    HW1 9707   4.747   6.695   2.674  0.4146 -0.0913  0.9530
 2936SOL    HW2 9708   4.642   6.821   2.679 -0.0943 -0.4935  0.5819
 2937SOL     OW 9709   6.080   4.397   2.745 -0.1765 -0.2410 -0.3173
 2937SOL    HW1 9710   6.092   4.304   2.780  1.3715 -0.5921 -1.6713
 2937SOL    HW2 9711   6.049   4.393   2.650 -2.1025  0.6821  0.2056
 2938SOL     OW 9712   0.073   6.264   0.779  0.5431  0.6896 -0.4421
 2938SOL    HW1 9713   0.101   6.325   0.704 -0.0576  1.9899  0.3560
 2938SOL    HW2 9714   0.099   6.305   0.866 -0.9619  0.4127  0.1704
 2939SOL     OW 9715   6.430   3.846   6.880 -0.1365 -0.1023  0.7548
 2939SOL    HW1 9716   6.384   3.863   6.792  0.0225 -0.7769  0.5358
 2939SOL    HW2 9717   6.370   3.873   6.955  0.2205  1.7389  0.4400
 2940SOL     OW 9718   6.992   4.419   3.017 -0.2833 -0.0318  0.3898
 2940SOL    HW1 9719   6.991   4.509   3.060 -0.1826  0.3743 -0.4347
 2940SOL    HW2 9720   6.959   4.350   3.082 -4.2046  1.1372 -0.1593
 2941SOL     OW 9721   2.432   5.898   1.127 -0.1305 -0.0007 -0.4417
 2941SOL    HW1 9722   2.364   5.838   1.085  0.6903 -0.0163 -1.7780
 2941SOL    HW2 9723   2.511   5.908   1.067 -0.1068  2.1996 -0.1272
 2942SOL     OW 9724   1.342   2.053   6.907 -0.0029 -0.5381 -0.6240
 2942SOL    HW1 9725   1.243   2.052   6.924  0.1943  0.6767  0.7689
 2942SOL    HW2 9726   1.387   1.986   6.966  0.2269  0.6068  0.5481
 2943SOL     OW 9727   2.094   3.901   1.999  0.2728  0.0127  0.7861
 2943SOL    HW1 9728   2.045   3.979   1.960  1.4728  0.5382  0.2740
 2943SOL    HW2 9729   2.029   3.840   2.045 -0.6716  1.3936  1.3494
 2944SOL     OW 9730   6.344   5.346   1.628 -0.2224 -0.4027 -0.0208
 2944SOL    HW1 9731   6.332   5.354   1.529 -0.2044  0.8586  0.0595
 2944SOL    HW2 9732   6.347   5.437   1.669 -0.0107 -0.8988  1.1230
 2945SOL     OW 9733   5.330   2.425   1.827  0.4287  0.3308  0.3190
 2945SOL    HW1 9734   5.320   2.330   1.858  0.0445  0.3988  0.4054
 2945SOL    HW2 9735   5.411   2.432   1.769  0.9869  0.1385  1.0659
 2946SOL     OW 9736   4.258   3.965   5.600 -0.1553 -0.8484 -0.2825
 2946SOL    HW1 9737   4.278   3.916   5.684 -0.3016 -1.2901 -0.5046
 2946SOL    HW2 9738   4.338   4.019   5.574  0.1029 -1.1771 -0.1805
 2947SOL     OW 9739   6.432   0.054   0.749 -0.4659  0.4722 -0.3190
 2947SOL    HW1 9740   6.395  -0.033   0.781 -0.3676  0.8398  0.8772
 2947SOL    HW2 9741   6.506   0.038   0.684 -0.3090 -0.3490  0.0462
 2948SOL     OW 9742   5.794   5.730   1.095 -0.0230 -0.1202  0.4527
 2948SOL    HW1 9743   5.745   5.715   1.010 -1.8937  0.5464  1.3535
 2948SOL    HW2 9744   5.825   5.825   1.100 -0.7408  0.0939  0.9113
 2949SOL     OW 9745   0.536   5.643   6.480  0.0706  0.6017  0.2129
 2949SOL    HW1 9746   0.550   5.725   6.536  0.0867  1.7130 -1.3333
 2949SOL    HW2 9747   0.439   5.636   6.455  0.2474  0.7829 -0.5536
 2950SOL     OW 9748   3.451   5.276   3.420  0.1066  0.2686  0.7139
 2950SOL    HW1 9749   3.449   5.308   3.325  0.3866 -1.8447 -0.0514
 2950SOL    HW2 9750   3.539   5.233   3.439 -1.4031 -3.2710  0.4874
 2951SOL     OW 9751   2.154   3.414   1.038  0.0556 -0.1207 -0.0824
 2951SOL    HW1 9752   2.226   3.450   1.098  0.3699 -0.1632 -0.4328
 2951SOL    HW2 9753   2.171   3.317   1.020 -1.0387 -0.5949  1.2327
 2952SOL     OW 9754   2.106   1.286   4.706  0.3955  0.4061 -0.0339
 2952SOL    HW1 9755   2.153   1.340   4.637 -1.0003  2.5460  0.5909
 2952SOL    HW2 9756   2.172   1.229   4.755  1.7060  0.4669 -1.6692
 2953SOL     OW 9757   0.683   5.400   2.236 -0.8137 -0.3209 -0.5901
 2953SOL    HW1 9758   0.725   5.467   2.175  1.9379 -1.1729  0.2565
 2953SOL    HW2 9759   0.692   5.431   2.331 -0.4475 -1.3862 -0.2690
 2954SOL     OW 9760   6.251   2.552   4.845  0.1412 -0.2638  0.2174
 2954SOL    HW1 9761   6.240   2.481   4.776  0.7290 -0.3082  0.1609
 2954SOL    HW2 9762   6.165   2.565   4.895 -0.1918 -0.4586 -0.3019
 2955SOL     OW 9763   6.722   5.780   4.844 -0.3189  0.0349 -0.2725
 2955SOL    HW1 9764   6.631   5.790   4.885  0.4325 -1.3074  1.8571
 2955SOL    HW2 9765   6.719   5.708   4.775 -0.4939 -1.4196  1.1916
 2956SOL     OW 9766   4.904   2.932   5.500  0.1187 -0.3977  0.0881
 2956SOL    HW1 9767   4.903   2.848   5.555 -0.7871 -1.2536 -1.1896
 2956SOL    HW2 9768   4.969   2.997   5.540  0.3243 -1.4242  1.5033
 2957SOL     OW 9769   3.506   4.339   5.892  0.2080 -0.4522 -0.3099
 2957SOL    HW1 9770   3.603   4.337   5.866  0.8384 -1.7317  1.8769
 2957SOL    HW2 9771   3.451   4.303   5.817  1.3788  0.5861 -1.7170
 2958SOL     OW 9772   1.147   1.835   0.819 -0.2884  0.0152 -0.1531
 2958SOL    HW1 9773   1.213   1.832   0.894  0.3171 -0.7685 -0.6980
 2958SOL    HW2 9774   1.062   1.790   0.849  0.2492 -1.0691 -0.1984
 2959SOL     OW 9775   1.641   3.015   4.716 -0.4166 -0.3126  0.0019
 2959SOL    HW1 9776   1.646   3.088   4.783 -1.7249  0.8431 -1.0973
 2959SOL    HW2 9777   1.698   2.938   4.746 -0.3703  0.4477  2.0319
 2960SOL     OW 9778   5.658   4.699   0.911 -0.3257  0.4892  0.3838
 2960SOL    HW1 9779   5.640   4.601   0.902  3.3035 -0.3691  0.7921
 2960SOL    HW2 9780   5.591   4.740   0.972 -3.0910 -1.2590 -1.2701
 2961SOL     OW 9781   5.231   6.926   1.195  0.4691  0.6562 -0.3843
 2961SOL    HW1 9782   5.250   6.846   1.252 -1.6705  0.6520  0.4033
 2961SOL    HW2 9783   5.265   7.009   1.241 -1.7845  0.7293  1.3030
 2962SOL     OW 9784   6.299   1.525   5.388  0.2317  0.6200  0.1621
 2962SOL    HW1 9785   6.199   1.517   5.391  0.2713 -0.6457 -0.8307
 2962SOL    HW2 9786   6.339   1.467   5.459  0.2674  0.5717  0.1029
 2963SOL     OW 9787   1.793   1.339   6.067 -0.0993 -0.0738 -1.2497
 2963SOL    HW1 9788   1.770   1.249   6.103  0.2653 -0.2360 -1.4235
 2963SOL    HW2 9789   1.711   1.397   6.067 -0.4768 -0.6007 -1.7326
 2964SOL     OW 9790   7.012   2.215   6.603 -0.5396  0.2915 -0.1465
 2964SOL    HW1 9791   6.950   2.290   6.627 -0.3669  1.5406 -3.1316
 2964SOL    HW2 9792   6.984   2.132   6.650 -1.5310  1.8772  2.2897
 2965SOL     OW 9793   0.752   1.458   6.600  0.2000  0.2698  0.2228
 2965SOL    HW1 9794   0.797   1.370   6.585 -2.6194 -0.9169 -2.5743
 2965SOL    HW2 9795   0.732   1.469   6.698 -1.3636 -3.4094  0.5086
 2966SOL     OW 9796   6.266   2.101   3.886  0.0711 -0.2984  0.7249
 2966SOL    HW1 9797   6.353   2.069   3.923  0.6933  0.8374  0.2658
 2966SOL    HW2 9798   6.211   2.141   3.960  0.5335  0.2748  0.7598
 2967SOL     OW 9799   4.890   6.370   5.324 -0.3675 -1.3448  0.2881
 2967SOL    HW1 9800   4.872   6.347   5.229 -1.6223  0.6887 -0.0329
 2967SOL    HW2 9801   4.986   6.395   5.335 -0.2648 -1.3883 -0.4830
 2968SOL     OW 9802   1.385   2.870   3.353  0.4015 -0.1101  0.6495
 2968SOL    HW1 9803   1.485   2.864   3.353  0.6513  2.8173  0.4257
 2968SOL    HW2 9804   1.355   2.941   3.290 -1.7937 -0.2908  1.3961
 2969SOL     OW 9805   4.203   2.136   4.978 -0.0167  0.5892  0.3063
 2969SOL    HW1 9806   4.274   2.137   4.908 -0.1351  0.2649  0.1802
 2969SOL    HW2 9807   4.168   2.229   4.991  1.0869  0.9085  1.0565
 2970SOL     OW 9808   1.925   2.754   6.105  0.0278 -0.1306 -0.1182
 2970SOL    HW1 9809   1.847   2.724   6.051  1.2155 -1.7400 -1.0189
 2970SOL    HW2 9810   1.982   2.816   6.051  0.2883 -0.3406 -0.0862
 2971SOL     OW 9811   3.569   4.127   3.939  0.2354  0.6920  0.5386
 2971SOL    HW1 9812   3.469   4.131   3.930  0.1911 -1.2121 -0.2182
 2971SOL    HW2 9813   3.595   4.147   4.033 -0.9317  0.3267  0.9570
 2972SOL     OW 9814   1.960   5.059   0.488 -0.4909 -0.2501 -0.5717
 2972SOL    HW1 9815   1.987   5.093   0.577  0.9415  0.0031 -1.0849
 2972SOL    HW2 9816   1.942   5.136   0.426  0.1556 -0.4191 -0.9763
 2973SOL     OW 9817   5.801   1.534   4.461 -0.3351 -0.4038  0.5340
 2973SOL    HW1 9818   5.749   1.462   4.417 -0.0549  0.1328 -0.7413
 2973SOL    HW2 9819   5.899   1.521   4.442 -0.2116 -0.1236  0.9536
 2974SOL     OW 9820   4.704   5.936   2.477  0.7075 -0.4680  0.0304
 2974SOL    HW1 9821   4.611   5.946   2.441 -0.8814 -3.0244  2.9058
 2974SOL    HW2 9822   4.737   5.843   2.457  2.1656  0.0109  0.1029
 2975SOL     OW 9823   0.990   5.665   5.334  0.4357  0.4985  0.1606
 2975SOL    HW1 9824   0.977   5.579   5.383  1.4824 -0.4231 -1.0933
 2975SOL    HW2 9825   1.067   5.715   5.373 -0.1808  0.8845  0.8989
 2976SOL     OW 9826   1.898   0.580   0.894 -0.0819 -0.0073  0.3976
 2976SOL    HW1 9827   1.871   0.503   0.952  2.5135 -0.0433  1.7232
 2976SOL    HW2 9828   1.917   0.548   0.802  0.0097 -0.7888  0.6813
 2977SOL     OW 9829   2.491   3.311   0.027  0.1924  0.5662 -0.0665
 2977SOL    HW1 9830   2.440   3.378   0.081 -0.5462 -0.7367  0.9068
 2977SOL    HW2 9831   2.429   3.241  -0.007  0.9603  0.3335 -1.0558
 2978SOL     OW 9832   2.999   4.827   6.253  0.3169  0.0137 -0.0506
 2978SOL    HW1 9833   3.064   4.766   6.298  0.8028  0.4406 -0.1631
 2978SOL    HW2 9834   2.965   4.895   6.318  0.3743  0.1071 -0.1175
 2979SOL     OW 9835   3.775   2.104   6.544  0.9218 -0.0032 -0.2484
 2979SOL    HW1 9836   3.838   2.160   6.491  0.2920 -0.6929 -1.7622
 2979SOL    HW2 9837   3.684   2.144   6.541 -0.2585 -2.4417 -3.8263
 2980SOL     OW 9838   3.402   3.640   2.636 -0.4563  0.0055  0.1745
 2980SOL    HW1 9839   3.346   3.670   2.559 -1.9787  1.4146  1.7408
 2980SOL    HW2 9840   3.375   3.546   2.661 -1.6694  0.3933  0.4325
 2981SOL     OW 9841   1.483   1.576   1.663 -0.5818  0.3306  0.0818
 2981SOL    HW1 9842   1.410   1.517   1.697 -0.3673 -0.5164 -0.9015
 2981SOL    HW2 9843   1.448   1.632   1.587 -0.6747  1.1894  0.7449
 2982SOL     OW 9844   0.257   5.897   1.256 -0.4961 -0.1264 -0.5485
 2982SOL    HW1 9845   0.173   5.852   1.286 -1.3874  0.2528 -2.3456
 2982SOL    HW2 9846   0.263   5.987   1.299 -1.6961  0.3746 -1.3754
 2983SOL     OW 9847   1.496   3.615   5.939 -0.4601  0.5647 -0.4294
 2983SOL    HW1 9848   1.509   3.608   6.038 -0.9212  0.8158 -0.3475
 2983SOL    HW2 9849   1.490   3.711   5.913 -2.7093  0.5030 -0.3607
 2984SOL     OW 9850   0.801   4.447   1.728 -0.0687 -0.1480  0.2700
 2984SOL    HW1 9851   0.749   4.530   1.744  2.1543  1.4581 -0.3409
 2984SOL    HW2 9852   0.825   4.405   1.816  0.8223  1.2316  0.7207
 2985SOL     OW 9853   6.603   5.307   6.040 -0.3006  0.1310  0.1613
 2985SOL    HW1 9854   6.681   5.339   5.987  0.2987 -0.6204  0.5670
 2985SOL    HW2 9855   6.573   5.379   6.103 -1.4345  1.2871 -1.5854
 2986SOL     OW 9856   3.615   3.989   2.110 -0.1410  0.0794  0.2525
 2986SOL    HW1 9857   3.543   4.023   2.170 -1.6388 -2.0807 -0.2214
 2986SOL    HW2 9858   3.622   4.048   2.029 -0.3816  1.0940  0.9501
 2987SOL     OW 9859   2.376   0.057   6.097  0.5252  0.0642  0.3089
 2987SOL    HW1 9860   2.367  -0.032   6.053 -0.6950  1.2135 -1.9903
 2987SOL    HW2 9861   2.300   0.116   6.068  2.0648  2.3104  0.5675
 2988SOL     OW 9862   0.301   0.996   5.362 -0.2125 -0.2583  0.3281
 2988SOL    HW1 9863   0.206   1.011   5.336  0.2912  0.2172 -1.3307
 2988SOL    HW2 9864   0.362   1.034   5.293  1.2341  0.9092  2.1276
 2989SOL     OW 9865   5.127   3.837   0.721 -0.2206 -0.5411 -0.3976
 2989SOL    HW1 9866   5.119   3.738   0.707  0.1518 -1.0401  2.2513
 2989SOL    HW2 9867   5.071   3.864   0.799  1.3855  0.9344  0.3164
 2990SOL     OW 9868   5.592   1.811   5.620  0.4020 -0.1666 -0.0550
 2990SOL    HW1 9869   5.547   1.744   5.560 -1.9721 -0.6361  2.0913
 2990SOL    HW2 9870   5.529   1.885   5.642  1.1338 -0.0513  1.8922
 2991SOL     OW 9871   0.062   0.951   0.860 -0.4227 -0.2162 -0.1927
 2991SOL    HW1 9872   0.141   0.902   0.824 -1.4876 -0.8806 -1.7276
 2991SOL    HW2 9873   0.025   0.902   0.939  0.7143  0.1535  0.5966
 2992SOL     OW 9874   0.831   6.018   3.254  0.1223 -0.3088 -0.0202
 2992SOL    HW1 9875   0.764   5.945   3.262  0.3309 -0.4950  0.0621
 2992SOL    HW2 9876   0.872   6.036   3.344  1.2361 -1.2179 -0.3272
 2993SOL     OW 9877   4.577   4.585   6.609  0.1502 -0.2458  0.7314
 2993SOL    HW1 9878   4.488   4.589   6.564 -0.0901 -0.9167  1.1385
 2993SOL    HW2 9879   4.566   4.594   6.707  0.7562  2.1431  0.6451
 2994SOL     OW 9880   3.608   4.553   5.702 -0.2540  0.0643 -0.3019
 2994SOL    HW1 9881   3.620   4.620   5.776 -2.2400  0.4559 -0.2747
 2994SOL    HW2 9882   3.693   4.502   5.689  1.6993  3.1877 -0.9522
 2995SOL     OW 9883   6.966   6.253   3.655 -0.1576  0.1034  0.1076
 2995SOL    HW1 9884   7.058   6.235   3.620 -0.5219 -1.0454 -0.3140
 2995SOL    HW2 9885   6.971   6.320   3.729  1.0023  0.1363  0.0203
 2996SOL     OW 9886   5.030   0.165   2.737 -0.0339 -0.4083  1.0415
 2996SOL    HW1 9887   5.069   0.243   2.689 -1.0992 -0.2018  0.5049
 2996SOL    HW2 9888   5.102   0.096   2.752  0.1022 -1.0066 -1.8879
 2997SOL     OW 9889   5.322   6.695   3.136  0.0986  0.4289 -0.4152
 2997SOL    HW1 9890   5.236   6.696   3.084 -0.6657 -0.5606  0.7599
 2997SOL    HW2 9891   5.329   6.779   3.190  0.1712  0.7853 -0.9727
 2998SOL     OW 9892   1.146   1.506   2.216  0.3626 -0.0458 -0.1771
 2998SOL    HW1 9893   1.105   1.596   2.204  0.8005  0.5243  2.1924
 2998SOL    HW2 9894   1.241   1.508   2.184  0.9197  0.8789  1.4333
 2999SOL     OW 9895   0.355   5.009   1.584 -0.3398 -0.2652 -0.2173
 2999SOL    HW1 9896   0.306   4.990   1.670 -0.7500  0.6143 -0.2506
 2999SOL    HW2 9897   0.295   5.060   1.522 -0.6085 -2.2039 -1.6566
 3000SOL     OW 9898   2.240   4.421   6.910 -0.0487 -0.5282 -0.0448
 3000SOL    HW1 9899   2.265   4.354   6.980 -0.0969  0.1495  0.6184
 3000SOL    HW2 9900   2.162   4.474   6.940 -0.6186 -0.8083 -0.9822
 3001SOL     OW 9901   1.115   1.056   5.675  0.1736 -0.1915  0.2388
 3001SOL    HW1 9902   1.030   1.109   5.676  1.1571  1.5992 -2.1157
 3001SOL    HW2 9903   1.141   1.034   5.769 -2.9157 -0.9280  1.0321
 3002SOL     OW 9904   6.392   1.772   0.376  0.1189 -0.2056  0.1536
 3002SOL    HW1 9905   6.305   1.756   0.421 -0.7667 -0.4667 -1.5506
 3002SOL    HW2 9906   6.416   1.691   0.321  1.9298 -0.5271  1.3238
 3003SOL     OW 9907   7.001   4.197   1.988  0.0661 -0.0204  0.3171
 3003SOL    HW1 9908   7.021   4.100   1.974 -1.7326 -0.5215  0.9969
 3003SOL    HW2 9909   6.986   4.241   1.899  1.6342 -0.1679 -0.0442
 3004SOL     OW 9910   3.257   0.974   4.403 -0.3077 -0.3461  0.2279
 3004SOL    HW1 9911   3.349   1.000   4.371 -0.5929 -2.2898 -2.5979
 3004SOL    HW2 9912   3.196   1.053   4.396  0.8787  0.6738  1.0485
 3005SOL     OW 9913   1.510   1.078   6.777 -0.2040  0.4387 -0.3600
 3005SOL    HW1 9914   1.585   1.144   6.783  0.8406 -0.6905 -0.7763
 3005SOL    HW2 9915   1.496   1.051   6.682 -0.6583  0.0910 -0.1996
 3006SOL     OW 9916   4.951   1.905   6.601  0.2583  0.1697 -0.0134
 3006SOL    HW1 9917   4.919   1.810   6.606 -0.2459  0.3199 -0.3803
 3006SOL    HW2 9918   4.916   1.957   6.679  0.8152 -0.0223  0.3752
 3007SOL     OW 9919   5.374   5.437   0.093 -0.0493  0.0460  0.0062
 3007SOL    HW1 9920   5.425   5.522   0.073 -0.2429  0.0213 -0.6097
 3007SOL    HW2 9921   5.388   5.412   0.189  0.4043  0.5120  0.0681
 3008SOL     OW 9922   6.854   4.027   5.937 -0.0078  0.0989 -0.6266
 3008SOL    HW1 9923   6.897   4.094   5.878  0.5042 -0.5696 -1.0315
 3008SOL    HW2 9924   6.887   3.935   5.914  0.5042 -0.1531  0.9357
 3009SOL     OW 9925   4.178   3.482   1.394 -0.2113  0.8020 -0.6618
 3009SOL    HW1 9926   4.267   3.523   1.416 -0.4304  0.4534  1.0207
 3009SOL    HW2 9927   4.192   3.388   1.363  0.0173  0.8547 -0.7288
 3010SOL     OW 9928   4.882   1.985   1.723 -0.6828  0.0573 -0.0989
 3010SOL    HW1 9929   4.957   2.026   1.775 -0.4032 -0.8223  0.2065
 3010SOL    HW2 9930   4.835   2.057   1.671  0.0906  0.6841  0.0409
 3011SOL     OW 9931   6.058   5.510   1.823 -0.0464 -0.1991 -0.2203
 3011SOL    HW1 9932   6.059   5.410   1.811 -0.4622 -0.1929 -0.3500
 3011SOL    HW2 9933   6.070   5.553   1.734 -2.3017 -0.1477 -0.5555
 3012SOL     OW 9934   2.281   2.847   3.954 -0.3213 -0.7089 -0.0685
 3012SOL    HW1 9935   2.272   2.775   4.023 -3.5322 -1.4490 -1.0861
 3012SOL    HW2 9936   2.282   2.936   4.000 -0.4918 -1.2390  1.0086
 3013SOL     OW 9937   2.394   5.965   4.567  0.0506  0.1586  0.2635
 3013SOL    HW1 9938   2.384   6.061   4.542 -3.5289 -0.7534 -2.8428
 3013SOL    HW2 9939   2.357   5.949   4.658 -0.7759  1.5250  0.1865
 3014SOL     OW 9940   3.051   7.004   2.611 -0.1267 -0.2029  0.2204
 3014SOL    HW1 9941   3.087   6.976   2.522 -0.7501  1.2136 -0.5096
 3014SOL    HW2 9942   2.956   6.974   2.619 -0.2461  0.1592  0.1684
 3015SOL     OW 9943   3.061   1.798   6.935 -0.6968 -0.1037  0.0895
 3015SOL    HW1 9944   3.117   1.852   6.998 -2.7523  0.2232  1.7564
 3015SOL    HW2 9945   3.001   1.858   6.883 -1.7720 -0.5997  0.7094
 3016SOL     OW 9946   1.543   1.718   3.047 -0.3928  0.6636 -0.1937
 3016SOL    HW1 9947   1.521   1.620   3.054 -0.2697  0.5562 -1.1106
 3016SOL    HW2 9948   1.486   1.770   3.110 -0.8710  0.0482 -0.1084
 3017SOL     OW 9949   1.759   4.798   0.482 -0.1586  0.1739 -0.0221
 3017SOL    HW1 9950   1.664   4.811   0.454 -0.0779  0.0974 -0.3328
 3017SOL    HW2 9951   1.763   4.732   0.557 -0.2089 -1.1817 -1.1646
 3018SOL     OW 9952   1.783   3.660   0.685 -0.3884 -0.6218  0.6848
 3018SOL    HW1 9953   1.787   3.575   0.632 -0.1014  0.1199 -0.5083
 3018SOL    HW2 9954   1.875   3.686   0.713 -0.3527 -0.1446  0.1329
 3019SOL     OW 9955   0.417   1.086   5.727  0.1988 -0.1649 -0.1934
 3019SOL    HW1 9956   0.334   1.136   5.753 -0.1792  0.2560 -2.0304
 3019SOL    HW2 9957   0.475   1.072   5.807 -0.7909  1.1530  0.7888
 3020SOL     OW 9958   4.903   3.496   5.285  0.5284 -0.1886  0.5563
 3020SOL    HW1 9959   4.822   3.537   5.242  0.0232 -1.1643  0.5462
 3020SOL    HW2 9960   4.933   3.417   5.231  0.4279 -0.8826  1.4902
 3021SOL     OW 9961   3.419   5.004   4.439  0.5798  0.0872 -0.1310
 3021SOL    HW1 9962   3.519   5.013   4.448  0.2940  3.8535  0.9113
 3021SOL    HW2 9963   3.381   4.969   4.524  0.9301 -0.5260 -0.2207
 3022SOL     OW 9964   3.231   6.797   0.736 -0.2271 -0.3938  0.5974
 3022SOL    HW1 9965   3.234   6.703   0.769 -0.8679 -0.7319 -0.2795
 3022SOL    HW2 9966   3.320   6.821   0.696 -0.3705 -0.9700 -0.0824
 3023SOL     OW 9967   6.076   5.819   4.366 -0.5724  0.2269 -0.5075
 3023SOL    HW1 9968   6.090   5.915   4.343  0.5109  0.2879  0.3206
 3023SOL    HW2 9969   6.142   5.763   4.315 -0.1817  0.0767  0.1500
 3024SOL     OW 9970   0.002   1.561   5.568 -0.0928  0.0168 -0.0832
 3024SOL    HW1 9971  -0.034   1.526   5.655  0.1938 -1.4591 -0.5473
 3024SOL    HW2 9972   0.009   1.661   5.574 -0.9769  0.0336  1.2472
 3025SOL     OW 9973   3.702   0.686   0.534  0.0385  0.1759 -0.4267
 3025SOL    HW1 9974   3.699   0.661   0.631  0.6191  2.1369  0.1414
 3025SOL    HW2 9975   3.730   0.606   0.480 -0.6702 -1.0564  0.9570
 3026SOL     OW 9976   0.905   4.745   4.272 -0.9882  0.0710  0.0479
 3026SOL    HW1 9977   0.956   4.696   4.343 -0.5144  1.9058  1.0460
 3026SOL    HW2 9978   0.969   4.793   4.212 -1.3968  3.1187  1.8357
 3027SOL     OW 9979   3.268   6.011   2.152  0.2973  0.5555  0.3435
 3027SOL    HW1 9980   3.216   5.965   2.224 -0.2945  0.6665 -0.0038
 3027SOL    HW2 9981   3.261   5.958   2.068  3.0177 -0.9025  0.9396
 3028SOL     OW 9982   3.956   3.925   3.294 -0.0099 -0.0921  0.3945
 3028SOL    HW1 9983   3.967   3.829   3.268  3.0464  0.2996 -0.0708
 3028SOL    HW2 9984   3.990   3.938   3.387  2.4685  0.9983 -0.5851
 3029SOL     OW 9985   6.002   4.169   5.069 -0.5394 -0.0426  0.3436
 3029SOL    HW1 9986   6.021   4.192   4.974  0.2800 -0.2581  0.4456
 3029SOL    HW2 9987   5.905   4.182   5.088 -0.1448  3.6537  0.4712
 3030SOL     OW 9988   6.863   3.382   4.572  0.0693  0.0646 -0.7023
 3030SOL    HW1 9989   6.821   3.458   4.522  1.0604  0.6606 -0.6540
 3030SOL    HW2 9990   6.816   3.370   4.660  0.1672  0.8784 -0.5378
 3031SOL     OW 9991   5.922   2.836   1.221  0.6857  0.1907 -0.1597
 3031SOL    HW1 9992   5.994   2.888   1.267  0.1720 -0.3865  1.3754
 3031SOL    HW2 9993   5.918   2.743   1.259 -1.2411  0.3834  0.2544
 3032SOL     OW 9994   3.295   0.337   4.103  0.3900  0.8765 -0.2197
 3032SOL    HW1 9995   3.227   0.351   4.176  0.9392  2.1295  0.0704
 3032SOL    HW2 9996   3.248   0.326   4.016 -0.3322 -1.5044  0.3925
 3033SOL     OW 9997   0.704   5.274   5.254  0.5731  0.2291  0.8539
 3033SOL    HW1 9998   0.651   5.198   5.215  0.7634  0.3484  0.3609
 3033SOL    HW2 9999   0.800   5.265   5.228  0.6162  0.5769  0.8930
 3034SOL     OW10000   5.084   4.822   3.823  0.6659  0.1134 -0.0334
 3034SOL    HW110001   5.167   4.876   3.837  0.4336  0.9467 -1.7432
 3034SOL    HW210002   5.054   4.785   3.911  1.0046  2.4840  1.1499
 3035SOL     OW10003   5.515   5.680   0.466  0.0711 -0.1996 -0.4989
 3035SOL    HW110004   5.493   5.588   0.433  1.9036 -0.5843 -0.7551
 3035SOL    HW210005   5.596   5.714   0.419  1.2660  0.2911  1.7470
 3036SOL     OW10006   0.760   6.768   6.162 -0.2845  0.1007 -0.3161
 3036SOL    HW110007   0.790   6.809   6.248  0.3962 -1.9836  0.4984
 3036SOL    HW210008   0.838   6.760   6.100 -0.5259  0.5122 -0.6773
 3037SOL     OW10009   3.377   4.683   0.082 -0.4403 -0.5579 -0.1547
 3037SOL    HW110010   3.352   4.587   0.069 -1.7432 -0.2098 -0.4394
 3037SOL    HW210011   3.383   4.703   0.179 -0.1941 -0.9141 -0.0933
 3038SOL     OW10012   6.377   3.195   3.824  0.2245 -0.7135 -0.0777
 3038SOL    HW110013   6.364   3.254   3.744  0.1015 -0.0760  0.4057
 3038SOL    HW210014   6.396   3.252   3.904  0.5904 -1.3628  0.2977
 3039SOL     OW10015   5.197   3.549   4.807  0.0757  0.0986 -0.4375
 3039SOL    HW110016   5.259   3.487   4.855 -0.2204 -0.4770 -0.7974
 3039SOL    HW210017   5.103   3.516   4.816 -0.0303  0.2296 -1.0534
 3040SOL     OW10018   5.114   6.676   0.111 -0.2737  0.1291  0.7472
 3040SOL    HW110019   5.136   6.743   0.040  0.7733  0.6723  1.5594
 3040SOL    HW210020   5.046   6.715   0.173  0.7205  0.6852  1.5260
 3041SOL     OW10021   0.702   4.988   5.165 -0.3233  0.0819  0.1985
 3041SOL    HW110022   0.611   4.947   5.172 -0.2210 -1.2214 -3.7920
 3041SOL    HW210023   0.752   4.971   5.249 -2.9686 -1.1236  1.6724
 3042SOL     OW10024   6.243   6.277   5.787 -0.0554  0.3123  0.4770
 3042SOL    HW110025   6.342   6.270   5.797 -0.2392 -1.7497  1.3900
 3042SOL    HW210026   6.200   6.189   5.811 -2.0500  0.8762 -0.7424
 3043SOL     OW10027   1.962   2.424   2.810 -0.4571  0.5878 -0.3660
 3043SOL    HW110028   2.046   2.443   2.759 -0.3013 -0.0019 -0.3396
 3043SOL    HW210029   1.944   2.326   2.809  0.2418  0.3774  1.7914
 3044SOL     OW10030   4.019   3.916   4.443  0.1442  0.2753 -0.5719
 3044SOL    HW110031   4.089   3.963   4.390 -1.0098  0.1824 -2.2640
 3044SOL    HW210032   3.940   3.897   4.384 -1.5823  0.9412  1.4050
 3045SOL     OW10033   6.314   4.511   3.930  0.1104  0.1709  0.3476
 3045SOL    HW110034   6.401   4.499   3.883  0.2243 -1.2871  0.8871
 3045SOL    HW210035   6.239   4.512   3.863  0.2041 -2.5259  0.0855
 3046SOL     OW10036   6.639   0.535   1.221  0.4578 -0.1611  0.1801
 3046SOL    HW110037   6.640   0.443   1.181  0.7229 -0.9779  1.9675
 3046SOL    HW210038   6.701   0.595   1.170 -0.4072 -0.6934 -1.5703
 3047SOL     OW10039   3.501   1.714   4.825 -0.5005  0.7695 -0.5980
 3047SOL    HW110040   3.465   1.623   4.803  1.9274 -0.3458 -0.2829
 3047SOL    HW210041   3.532   1.716   4.920 -2.3786  2.6414  0.0648
 3048SOL     OW10042   5.580   5.522   3.022 -0.2719  0.1260  0.3534
 3048SOL    HW110043   5.624   5.589   2.962  0.1586 -0.9690 -0.5905
 3048SOL    HW210044   5.533   5.453   2.966  1.0618 -1.5385  1.2015
 3049SOL     OW10045   6.047   1.072   2.424  0.2267  0.4292 -0.6888
 3049SOL    HW110046   6.029   1.002   2.493  2.6674 -0.9225 -1.3318
 3049SOL    HW210047   5.989   1.152   2.442 -1.5629 -1.1492  0.9348
 3050SOL     OW10048   4.256   3.520   5.343 -0.0933  0.0196 -0.5064
 3050SOL    HW110049   4.353   3.504   5.360 -0.4050 -0.9284  0.5582
 3050SOL    HW210050   4.232   3.614   5.368  0.0985 -0.4371  1.5313
 3051SOL     OW10051   2.799   4.409   6.824  0.1208 -0.1500  1.2408
 3051SOL    HW110052   2.828   4.327   6.776 -1.2263  0.3222 -0.4883
 3051SOL    HW210053   2.716   4.390   6.876 -0.4810  0.2275  0.4283
 3052SOL     OW10054   5.486   1.072   3.919  0.0194 -0.4477 -0.7102
 3052SOL    HW110055   5.389   1.047   3.914  0.3957 -1.8920 -1.5159
 3052SOL    HW210056   5.531   1.013   3.986  0.0643  1.3154  0.8858
 3053SOL     OW10057   0.003   5.681   4.608  0.2882 -0.1863  0.2476
 3053SOL    HW110058   0.014   5.586   4.637  5.0088  0.5786  1.9454
 3053SOL    HW210059   0.059   5.697   4.527 -0.5719  1.1176 -0.1115
 3054SOL     OW10060   6.906   6.382   3.384 -0.9462  0.5466 -0.7649
 3054SOL    HW110061   6.920   6.330   3.468 -1.3319 -1.0139 -1.6417
 3054SOL    HW210062   6.995   6.403   3.343 -0.8026 -0.3131 -0.9196
 3055SOL     OW10063   5.417   5.286   6.525  0.1766 -0.5163 -0.4478
 3055SOL    HW110064   5.463   5.276   6.614 -0.0360  0.8443 -0.1525
 3055SOL    HW210065   5.458   5.362   6.475 -0.7378 -0.2689 -0.8427
 3056SOL     OW10066   4.367   3.028   1.750  0.4457 -0.0128  0.1899
 3056SOL    HW110067   4.292   3.074   1.796  0.2353  0.3227 -0.4779
 3056SOL    HW210068   4.450   3.035   1.805  0.7817  2.3998 -0.5123
 3057SOL     OW10069   6.300   2.348   2.242 -0.1374 -0.3487  0.4165
 3057SOL    HW110070   6.260   2.371   2.330 -0.4270  1.3199 -0.1080
 3057SOL    HW210071   6.233   2.298   2.187 -0.0356 -1.1899  1.0466
 3058SOL     OW10072   6.976   4.023   4.685  0.1914  0.4473 -0.8264
 3058SOL    HW110073   6.948   3.998   4.592 -1.7931 -0.3103 -0.0911
 3058SOL    HW210074   7.016   3.943   4.730  1.3705  0.8780 -1.0850
 3059SOL     OW10075   0.988   1.161   2.876 -0.6692 -0.1930  0.4239
 3059SOL    HW110076   0.892   1.172   2.848 -1.1918 -1.5562  1.5280
 3059SOL    HW210077   0.994   1.173   2.975  0.7686  2.4474  0.1073
 3060SOL     OW10078   6.545   3.852   4.964 -0.5516  0.2225  0.0585
 3060SOL    HW110079   6.506   3.871   5.054 -1.6158  0.1014 -0.3616
 3060SOL    HW210080   6.494   3.903   4.894 -0.1093 -0.1332 -0.5346
 3061SOL     OW10081   4.552   4.776   2.532 -0.1540 -0.2337  0.1913
 3061SOL    HW110082   4.639   4.734   2.507 -0.9351 -0.8546 -1.6299
 3061SOL    HW210083   4.477   4.725   2.492 -1.3455  0.7271  1.1071
 3062SOL     OW10084   4.445   5.701   6.640 -0.8345 -0.5140  0.0491
 3062SOL    HW110085   4.479   5.610   6.617 -2.8613 -1.2077 -0.3780
 3062SOL    HW210086   4.412   5.747   6.558 -2.8201 -0.7105  0.6940
 3063SOL     OW10087   6.342   0.601   0.436 -0.0422  0.2749 -0.1597
 3063SOL    HW110088   6.431   0.619   0.394  0.2308 -0.7332 -0.0266
 3063SOL    HW210089   6.354   0.583   0.533 -0.2977 -0.6515 -0.2929
 3064SOL     OW10090   6.701   0.064   5.551 -0.3057 -0.5452  0.1414
 3064SOL    HW110091   6.643   0.142   5.573  0.5554  0.3999 -0.8130
 3064SOL    HW210092   6.662  -0.019   5.590 -1.1259  0.3859  1.3790
 3065SOL     OW10093   4.570   1.587   6.436 -0.1109 -0.0751 -0.9752
 3065SOL    HW110094   4.607   1.521   6.501 -1.2657  0.8160  0.6681
 3065SOL    HW210095   4.470   1.581   6.435 -0.2491  1.6208 -0.7785
 3066SOL     OW10096   3.973   6.934   6.562  0.4022 -0.4459  0.2869
 3066SOL    HW110097   3.909   6.863   6.530  1.6628 -1.2941 -0.4526
 3066SOL    HW210098   3.986   6.924   6.660  0.3472 -1.0700  0.2406
 3067SOL     OW10099   2.571   2.531   3.158 -0.3447 -0.2331  0.2224
 3067SOL    HW110100   2.572   2.439   3.119 -0.8178 -0.1964  0.1245
 3067SOL    HW210101   2.629   2.591   3.103  0.0764 -0.5006  0.3675
 3068SOL     OW10102   6.478   1.288   1.073  0.6021  0.0954  1.1546
 3068SOL    HW110103   6.529   1.373   1.057  1.5011 -0.7890 -0.9709
 3068SOL    HW210104   6.479   1.232   0.990 -3.2232 -0.3299  1.2309
 3069SOL     OW10105   6.325   4.722   5.180 -0.0476  0.0861  0.4186
 3069SOL    HW110106   6.279   4.768   5.104  0.6810  1.9557  1.0650
 3069SOL    HW210107   6.282   4.749   5.266  0.5610 -0.2401  0.8305
 3070SOL     OW10108   1.714   6.429   1.236 -0.0058  0.2177  0.7778
 3070SOL    HW110109   1.782   6.411   1.166 -0.9123  2.0912 -0.6524
 3070SOL    HW210110   1.760   6.442   1.324  1.4374  0.8312 -0.0326
 3071SOL     OW10111   6.063   4.069   3.753 -0.6063 -0.0835 -0.1380
 3071SOL    HW110112   6.143   4.129   3.754 -1.8908  1.7052  1.5748
 3071SOL    HW210113   6.054   4.025   3.842 -0.6172 -1.6245 -0.8598
 3072SOL     OW10114   1.676   5.515   3.167 -0.0913 -0.0932  0.3931
 3072SOL    HW110115   1.606   5.461   3.213 -0.7724 -0.2208 -0.7431
 3072SOL    HW210116   1.727   5.457   3.103  0.0905  0.3068  0.1668
 3073SOL     OW10117   2.401   5.954   1.907  0.3504 -0.0498 -0.6404
 3073SOL    HW110118   2.440   5.956   1.815  0.4532 -0.8194 -0.6270
 3073SOL    HW210119   2.454   6.013   1.968  0.3520  0.3714 -1.0448
 3074SOL     OW10120   3.878   3.667   6.733  0.3060 -0.4175  0.0282
 3074SOL    HW110121   3.916   3.697   6.645  1.1842  0.0248  0.5491
 3074SOL    HW210122   3.890   3.739   6.801  0.6425 -1.1914  0.8006
 3075SOL     OW10123   4.967   4.540   1.380 -0.1022  0.1555 -0.2378
 3075SOL    HW110124   5.056   4.583   1.398  0.3382 -0.3129 -1.2230
 3075SOL    HW210125   4.902   4.609   1.351 -0.5178  0.7555  1.9082
 3076SOL     OW10126   2.544   1.205   4.419 -0.1199 -0.3107  0.0717
 3076SOL    HW110127   2.543   1.296   4.461 -0.3453 -0.2176 -0.1404
 3076SOL    HW210128   2.524   1.212   4.322 -1.3066 -0.7053  0.2760
 3077SOL     OW10129   1.656   4.408   3.474 -0.5879 -0.1827  0.4720
 3077SOL    HW110130   1.627   4.406   3.570 -0.0246 -0.0829  0.6517
 3077SOL    HW210131   1.580   4.383   3.415 -0.4405 -2.2522  1.0725
 3078SOL     OW10132   6.879   4.922   0.784  0.6932  0.3793 -0.2198
 3078SOL    HW110133   6.935   4.975   0.847  2.3787 -1.8999  0.3600
 3078SOL    HW210134   6.782   4.935   0.805  1.1246  1.7004  1.0951
 3079SOL     OW10135   0.795   3.557   1.688 -1.0658  0.4304  0.1655
 3079SOL    HW110136   0.861   3.628   1.666 -0.8502 -0.3833 -2.0241
 3079SOL    HW210137   0.824   3.508   1.770  0.7695  0.4378 -0.4463
 3080SOL     OW10138   2.739   6.672   1.098  0.1874  0.3449  0.5234
 3080SOL    HW110139   2.752   6.575   1.122  1.8868 -0.0025 -1.5109
 3080SOL    HW210140   2.822   6.723   1.117  0.1029  0.9165 -0.5543
 3081SOL     OW10141   1.001   3.492   5.859  0.0393  0.2378  0.2100
 3081SOL    HW110142   0.938   3.465   5.786 -2.7062  0.2048  2.4725
 3081SOL    HW210143   1.027   3.411   5.912 -2.1484  0.8379  2.3572
 3082SOL     OW10144   5.695   3.002   4.356 -0.0495 -0.0484 -0.5242
 3082SOL    HW110145   5.607   3.027   4.396  0.3406  3.1960 -1.4639
 3082SOL    HW210146   5.679   2.956   4.268 -0.7821 -2.2001  0.6626
 3083SOL     OW10147   3.990   5.978   1.746 -0.2432 -0.5528  0.9984
 3083SOL    HW110148   3.905   5.949   1.702  0.5035 -2.0221  0.4335
 3083SOL    HW210149   4.013   6.071   1.717 -1.0653 -0.5656  0.2606
 3084SOL     OW10150   0.714   6.267   3.188  0.0567  0.0208  0.3974
 3084SOL    HW110151   0.778   6.318   3.130  0.2299  0.9656  1.3883
 3084SOL    HW210152   0.765   6.208   3.250 -0.1451 -1.6215 -0.9022
 3085SOL     OW10153   6.688   6.257   5.561 -0.4712 -0.2018 -0.0712
 3085SOL    HW110154   6.677   6.356   5.561 -0.4071 -0.1904 -0.7242
 3085SOL    HW210155   6.785   6.234   5.553 -0.4835 -0.3210  0.1033
 3086SOL     OW10156   0.318   6.093   5.747 -0.0422 -0.4449 -0.4760
 3086SOL    HW110157   0.379   6.114   5.671  0.5765  1.2421  0.4386
 3086SOL    HW210158   0.229   6.064   5.711  0.0705  0.8050 -1.8488
 3087SOL     OW10159   1.030   1.030   3.538  0.0217 -0.2668 -0.1728
 3087SOL    HW110160   1.118   1.030   3.490 -0.2791 -2.1837 -0.8224
 3087SOL    HW210161   1.027   1.107   3.603  1.5613  0.7037 -1.1883
 3088SOL     OW10162   0.437   4.205   3.977  0.7605 -0.2425  0.1820
 3088SOL    HW110163   0.442   4.303   3.995 -0.8951 -0.2190  0.6481
 3088SOL    HW210164   0.387   4.159   4.050  0.9413 -1.3437 -0.3543
 3089SOL     OW10165   4.417   0.243   6.886  0.0110 -0.4082 -0.7128
 3089SOL    HW110166   4.402   0.337   6.915  0.8279 -0.3223 -0.5587
 3089SOL    HW210167   4.371   0.181   6.950  0.3360 -0.1558 -0.2294
 3090SOL     OW10168   6.294   0.944   1.901  0.1879 -0.2762  0.0993
 3090SOL    HW110169   6.314   1.033   1.860 -0.1124 -0.6848 -0.9518
 3090SOL    HW210170   6.206   0.911   1.869 -1.5620  0.7406  3.4101
 3091SOL     OW10171   2.566   1.720   4.730 -0.0628 -0.5821  0.4425
 3091SOL    HW110172   2.547   1.783   4.805 -2.0364 -1.5450  0.8268
 3091SOL    HW210173   2.479   1.685   4.693  0.7172  1.0272 -3.3670
 3092SOL     OW10174   5.159   2.272   4.091  0.3534 -0.0375  0.0862
 3092SOL    HW110175   5.146   2.370   4.100  0.2952 -0.0909  0.6299
 3092SOL    HW210176   5.127   2.226   4.174 -0.1538 -0.5692 -0.3872
 3093SOL     OW10177   6.627   6.865   5.670  0.0415  0.0485 -0.4941
 3093SOL    HW110178   6.631   6.786   5.732 -1.7531 -0.1986 -0.6425
 3093SOL    HW210179   6.543   6.860   5.615 -0.1161  2.0601 -0.5109
 3094SOL     OW10180   2.099   0.990   6.654  0.2039 -0.0926  0.1826
 3094SOL    HW110181   2.135   0.926   6.587  1.2735 -0.0659  0.7142
 3094SOL    HW210182   2.095   1.082   6.614  0.5440 -0.1310  0.0615
 3095SOL     OW10183   1.124   5.736   5.738 -0.1983 -0.2225  0.1656
 3095SOL    HW110184   1.049   5.678   5.768  0.1849 -1.1018 -0.5368
 3095SOL    HW210185   1.182   5.760   5.816 -1.8140  1.4342  0.9458
 3096SOL     OW10186   6.999   4.867   5.487  0.0448 -0.2881 -0.3005
 3096SOL    HW110187   7.017   4.953   5.534 -1.4231 -0.2102  0.1619
 3096SOL    HW210188   7.007   4.791   5.551 -1.7106 -0.2030  0.0621
 3097SOL     OW10189   4.897   1.472   6.282  0.5628  0.3154  0.5062
 3097SOL    HW110190   4.856   1.414   6.352 -0.0365  0.4080  0.2398
 3097SOL    HW210191   4.831   1.540   6.253  1.4341  1.4881  1.1944
 3098SOL     OW10192   1.884   4.544   2.085  0.0571  0.2742  0.0688
 3098SOL    HW110193   1.963   4.491   2.116 -0.0798  0.0047 -0.0355
 3098SOL    HW210194   1.817   4.549   2.160 -0.0141  0.1333  0.0150
 3099SOL     OW10195   0.394   2.797   5.462 -0.1737 -0.0211  0.3527
 3099SOL    HW110196   0.395   2.717   5.522 -1.5199 -0.8168 -0.6368
 3099SOL    HW210197   0.483   2.806   5.417  0.8317  0.5450  2.3569
 3100SOL     OW10198   6.874   3.483   3.854  0.3215  0.0584 -0.2319
 3100SOL    HW110199   6.807   3.557   3.861  0.8896  0.7430 -1.7389
 3100SOL    HW210200   6.828   3.395   3.866 -0.8469  0.5279 -1.1187
 3101SOL     OW10201   4.140   6.617   5.251  0.2183  0.0574  0.4671
 3101SOL    HW110202   4.225   6.632   5.302 -0.7973  2.2944  1.6418
 3101SOL    HW210203   4.129   6.687   5.181  0.4113 -1.5850 -1.2900
 3102SOL     OW10204   5.118   2.067   3.542  0.2322 -0.2214 -0.3291
 3102SOL    HW110205   5.168   2.142   3.498  0.4167  0.3744  0.8474
 3102SOL    HW210206   5.057   2.024   3.475  0.4476  0.6876 -1.1417
 3103SOL     OW10207   2.470   1.354   1.692  0.7696  0.4918 -0.0168
 3103SOL    HW110208   2.510   1.331   1.781  0.9529  0.5938 -0.0730
 3103SOL    HW210209   2.532   1.414   1.642  0.1641  1.3563  0.2456
 3104SOL     OW10210   5.759   0.621   6.091  0.1463 -0.3853 -0.0052
 3104SOL    HW110211   5.790   0.651   6.001  1.2231  1.8643  1.0282
 3104SOL    HW210212   5.729   0.525   6.086 -0.8701 -0.0201 -2.9445
 3105SOL     OW10213   5.847   5.310   1.390  0.4448  0.0456 -0.4675
 3105SOL    HW110214   5.891   5.345   1.307 -0.2167 -1.2960 -1.4270
 3105SOL    HW210215   5.883   5.218   1.410 -1.3966 -0.8160 -0.9126
 3106SOL     OW10216   5.778   1.624   4.888  0.1559  0.6332  0.3497
 3106SOL    HW110217   5.786   1.723   4.883  3.2688  0.4220 -1.6771
 3106SOL    HW210218   5.768   1.586   4.796 -0.1322 -0.9738  1.0130
 3107SOL     OW10219   6.517   0.579   5.288  0.1964 -0.0965 -0.0886
 3107SOL    HW110220   6.604   0.536   5.263  0.4117 -0.6470  1.5155
 3107SOL    HW210221   6.460   0.589   5.206  1.8641  0.5614 -1.2397
 3108SOL     OW10222   2.867   5.805   4.941  0.4017 -0.7080 -0.6037
 3108SOL    HW110223   2.933   5.760   5.001 -2.4254 -0.3066  3.1969
 3108SOL    HW210224   2.906   5.890   4.906  1.0574  1.3885  4.3484
 3109SOL     OW10225   0.303   3.956   4.137 -0.9131  0.1305 -0.5224
 3109SOL    HW110226   0.377   3.891   4.122 -1.7024 -0.7629 -0.6224
 3109SOL    HW210227   0.266   3.943   4.229 -2.1777 -0.7270 -1.1255
 3110SOL     OW10228   2.814   5.380   4.612  0.2479  0.3262  0.0900
 3110SOL    HW110229   2.747   5.417   4.548 -1.1251 -1.5009  0.4034
 3110SOL    HW210230   2.796   5.416   4.703 -0.8206 -0.7115  0.3140
 3111SOL     OW10231   1.100   3.593   4.503 -0.0791  0.1544 -0.7092
 3111SOL    HW110232   1.009   3.553   4.514 -0.7691  1.3092 -1.8738
 3111SOL    HW210233   1.151   3.584   4.589 -1.6425  0.3459  0.2875
 3112SOL     OW10234   4.492   2.144   1.266 -0.3470  0.2456 -0.2982
 3112SOL    HW110235   4.460   2.136   1.361 -1.4234 -0.2123 -0.6756
 3112SOL    HW210236   4.416   2.123   1.204  0.6666 -0.6771 -1.2563
 3113SOL     OW10237   6.285   0.010   2.879 -0.3413 -0.1061  0.0168
 3113SOL    HW110238   6.229   0.070   2.822  0.2073 -1.1703 -1.6964
 3113SOL    HW210239   6.366  -0.018   2.829  0.5404 -0.5250  1.5997
 3114SOL     OW10240   3.875   5.175   3.811  0.0418  0.2073 -0.2643
 3114SOL    HW110241   3.893   5.218   3.899  2.2720 -2.3710  0.6713
 3114SOL    HW210242   3.943   5.204   3.744 -0.2776  0.4406 -0.4900
 3115SOL     OW10243   5.305   4.086   4.312  0.1137  0.1276  0.3198
 3115SOL    HW110244   5.347   3.996   4.307  0.7834  0.3354  1.7184
 3115SOL    HW210245   5.373   4.155   4.286  0.1457  0.3415  0.9512
 3116SOL     OW10246   1.820   3.735   5.857 -0.3711 -0.0966  0.3060
 3116SOL    HW110247   1.859   3.757   5.768 -1.4328 -1.1300 -0.4409
 3116SOL    HW210248   1.795   3.638   5.859  0.5193 -0.3341  2.0739
 3117SOL     OW10249   4.356   6.901   2.724 -0.1857  0.3584  0.4985
 3117SOL    HW110250   4.448   6.929   2.753  0.5030 -0.9361 -0.3269
 3117SOL    HW210251   4.355   6.887   2.625 -1.8517  2.3683  0.1758
 3118SOL     OW10252   1.069   1.604   3.789  0.9801  0.6229  0.0075
 3118SOL    HW110253   0.991   1.605   3.851  0.9324 -0.8765 -0.0028
 3118SOL    HW210254   1.147   1.561   3.834  1.2015  0.3081 -0.6588
 3119SOL     OW10255   3.477   7.012   3.651 -0.1029  0.1712  0.0824
 3119SOL    HW110256   3.548   7.001   3.582 -0.5758 -0.5838 -0.2943
 3119SOL    HW210257   3.394   6.965   3.621  0.0014 -1.0943  1.6449
 3120SOL     OW10258   2.185   6.015   5.903 -0.5856  0.3201  0.3970
 3120SOL    HW110259   2.265   6.071   5.884  1.2012 -1.4394  2.1923
 3120SOL    HW210260   2.181   5.939   5.838 -0.3584 -0.0106  0.7679
 3121SOL     OW10261   4.896   0.172   2.200 -0.1611 -0.0217 -0.4209
 3121SOL    HW110262   4.912   0.203   2.294  1.1916 -1.5036 -0.1176
 3121SOL    HW210263   4.949   0.229   2.137 -2.0352  1.7922 -0.4827
 3122SOL     OW10264   6.306   1.253   5.946  0.2739 -0.1357 -0.4212
 3122SOL    HW110265   6.291   1.340   5.992  1.1385 -0.1914 -0.0155
 3122SOL    HW210266   6.393   1.256   5.897  0.2108 -0.7040 -0.5719
 3123SOL     OW10267   2.685   2.459   1.761 -0.2806 -0.0773  0.2187
 3123SOL    HW110268   2.776   2.473   1.800  0.3023  0.9275 -1.3921
 3123SOL    HW210269   2.690   2.391   1.688 -0.7176  0.3032 -0.1736
 3124SOL     OW10270   4.368   5.881   4.856 -0.2441 -0.3737 -0.6138
 3124SOL    HW110271   4.313   5.962   4.833 -1.3492 -1.1896 -0.9175
 3124SOL    HW210272   4.418   5.898   4.942 -3.5396 -0.7436  1.5571
 3125SOL     OW10273   1.494   2.612   3.866 -0.6548  0.2053 -0.4918
 3125SOL    HW110274   1.492   2.512   3.863 -0.4900  0.2207 -1.3424
 3125SOL    HW210275   1.481   2.649   3.774  0.3200  0.9440 -0.3532
 3126SOL     OW10276   6.512   3.290   5.811 -0.2468 -0.2094  0.5154
 3126SOL    HW110277   6.560   3.376   5.796  0.8891 -1.1648 -2.0206
 3126SOL    HW210278   6.570   3.229   5.865  0.7293 -0.6963 -0.9829
 3127SOL     OW10279   7.013   2.028   0.580 -0.1266  0.9189  0.1444
 3127SOL    HW110280   7.074   1.972   0.636  0.1147  0.1908 -0.8148
 3127SOL    HW210281   7.066   2.084   0.517 -0.3929  1.7762  0.6631
 3128SOL     OW10282   4.939   3.078   1.818  0.1605  0.1246 -0.3978
 3128SOL    HW110283   5.005   3.153   1.822  0.7375 -0.4152  0.7912
 3128SOL    HW210284   4.887   3.075   1.904  0.5763 -1.2063 -0.1785
 3129SOL     OW10285   5.208   4.453   0.841  0.2736  0.2479  0.5703
 3129SOL    HW110286   5.289   4.395   0.856 -0.1509 -0.7101 -0.6750
 3129SOL    HW210287   5.126   4.404   0.870 -0.0654  0.3167 -0.2464
 3130SOL     OW10288   0.150   5.256   3.548  0.4718  0.5557 -0.0757
 3130SOL    HW110289   0.126   5.283   3.455 -0.2057  0.5587  0.0893
 3130SOL    HW210290   0.108   5.168   3.569  1.9708 -0.2335 -0.3214
 3131SOL     OW10291   0.731   2.718   5.695 -0.3812 -0.8524  0.3631
 3131SOL    HW110292   0.765   2.795   5.641  1.3400 -1.6328  0.2907
 3131SOL    HW210293   0.702   2.751   5.785 -0.5415  0.0050  0.0122
 3132SOL     OW10294   5.795   4.975   5.644 -0.0607 -0.5616  0.2042
 3132SOL    HW110295   5.859   4.920   5.698 -0.1187  0.4085  1.3060
 3132SOL    HW210296   5.751   4.917   5.576  0.0668 -1.8289  1.1619
 3133SOL     OW10297   5.008   0.369   5.811 -0.3159 -0.4137 -0.3762
 3133SOL    HW110298   5.028   0.348   5.907 -1.6882 -1.6003 -0.3025
 3133SOL    HW210299   4.925   0.425   5.806  0.3725  0.5887 -0.8411
 3134SOL     OW10300   2.711   6.182   3.212  0.0803  0.6542  0.3475
 3134SOL    HW110301   2.627   6.139   3.178  0.8393  0.4070 -1.3186
 3134SOL    HW210302   2.728   6.266   3.160  0.0392  1.5659  1.7588
 3135SOL     OW10303   4.214   5.339   6.036 -0.3944  0.1097 -0.0252
 3135SOL    HW110304   4.118   5.355   6.015 -0.9788 -0.3021  2.0589
 3135SOL    HW210305   4.227   5.343   6.135  1.8301  0.5530 -0.2842
 3136SOL     OW10306   6.391   5.697   0.789 -0.1296 -0.4513 -0.1607
 3136SOL    HW110307   6.470   5.757   0.800 -1.3097  1.5509 -1.8290
 3136SOL    HW210308   6.403   5.640   0.708 -0.8891  0.8129 -1.2079
 3137SOL     OW10309   6.377   2.909   0.008  0.2712  0.1194  0.0874
 3137SOL    HW110310   6.365   2.950   0.099  0.1599  1.5193 -0.5391
 3137SOL    HW210311   6.463   2.857   0.007  0.1597 -0.1136  1.0582
 3138SOL     OW10312   6.548   6.435   6.079  0.1295  0.2201  0.2681
 3138SOL    HW110313   6.583   6.383   6.001 -2.0149 -0.2903 -0.3982
 3138SOL    HW210314   6.472   6.386   6.121 -0.8871  2.0306  0.6290
 3139SOL     OW10315   1.635   4.322   2.737 -0.6449  0.7018 -0.3444
 3139SOL    HW110316   1.555   4.381   2.750  0.6836  2.2636  1.1753
 3139SOL    HW210317   1.675   4.300   2.826  1.5254  1.2793 -1.1104
 3140SOL     OW10318   5.347   5.257   5.702 -0.3065  0.0268  0.3947
 3140SOL    HW110319   5.253   5.290   5.704 -0.6573 -0.9583  1.0792
 3140SOL    HW210320   5.398   5.298   5.778  0.1872  1.5576 -0.7305
 3141SOL     OW10321   5.458   3.357   0.862  0.6241  0.2847 -0.2085
 3141SOL    HW110322   5.475   3.287   0.932 -0.7920 -1.2215 -1.2725
 3141SOL    HW210323   5.507   3.332   0.778 -0.5334  0.0796 -0.8518
 3142SOL     OW10324   4.752   5.980   6.150  0.0068 -0.2625  0.6384
 3142SOL    HW110325   4.679   5.938   6.097  1.2856 -2.7533  0.7147
 3142SOL    HW210326   4.739   5.961   6.247  0.8624 -0.9597  0.6303
 3143SOL     OW10327   5.778   1.052   5.908  0.1906 -0.0818  0.0529
 3143SOL    HW110328   5.850   0.991   5.940 -0.3905 -1.2211 -0.7393
 3143SOL    HW210329   5.818   1.137   5.875  1.5083 -1.7317 -2.9410
 3144SOL     OW10330   4.522   5.469   5.200  0.4521  0.2005  0.0018
 3144SOL    HW110331   4.476   5.554   5.175  1.7535  0.5722 -1.2449
 3144SOL    HW210332   4.605   5.489   5.251  0.4576 -0.3541  0.2201
 3145SOL     OW10333   0.534   6.354   4.208 -0.1585  0.6482  0.1829
 3145SOL    HW110334   0.566   6.423   4.273  0.1969 -0.1564  0.8836
 3145SOL    HW210335   0.489   6.280   4.258 -2.4296  1.3593 -0.7225
 3146SOL     OW10336   6.288   0.444   4.273 -0.2774 -0.1268  0.5268
 3146SOL    HW110337   6.300   0.496   4.188 -1.9119 -2.0397 -0.9983
 3146SOL    HW210338   6.366   0.382   4.285 -1.3044 -1.9128 -1.2603
 3147SOL     OW10339   3.911   1.504   1.060  0.3702 -0.1108 -0.2413
 3147SOL    HW110340   3.908   1.596   1.022  0.3358  0.3151  0.7833
 3147SOL    HW210341   3.827   1.455   1.037 -0.5131  0.8085  0.9299
 3148SOL     OW10342   5.650   4.285   0.069  0.3053 -0.2875 -0.4285
 3148SOL    HW110343   5.682   4.206   0.015 -0.0387 -0.1724 -0.8047
 3148SOL    HW210344   5.634   4.362   0.008  1.8799  0.4854  0.0867
 3149SOL     OW10345   3.864   2.550   0.789  0.2230 -0.1658 -0.4513
 3149SOL    HW110346   3.927   2.548   0.712  1.2548 -2.9117  0.3407
 3149SOL    HW210347   3.916   2.551   0.874 -0.8337 -1.0341  0.2247
 3150SOL     OW10348   0.974   2.409   5.599  0.0253  0.7721 -0.6969
 3150SOL    HW110349   0.902   2.470   5.565  0.5975  0.5169 -2.4795
 3150SOL    HW210350   0.951   2.315   5.575  0.4080  0.5662 -0.2622
 3151SOL     OW10351   2.631   1.131   6.241  0.3262  0.0723 -0.4326
 3151SOL    HW110352   2.682   1.107   6.324 -0.0292 -0.1878 -0.2821
 3151SOL    HW210353   2.633   1.054   6.177 -0.6131 -0.2818 -0.0527
 3152SOL     OW10354   2.499   0.573   4.404 -0.0507 -0.2254 -0.1247
 3152SOL    HW110355   2.586   0.539   4.441  0.9847  0.7997 -1.4967
 3152SOL    HW210356   2.426   0.556   4.470  1.0346 -1.8060  0.7505
 3153SOL     OW10357   3.721   5.793   0.360  0.5719 -0.1214 -0.0410
 3153SOL    HW110358   3.647   5.822   0.299  0.1455 -0.3234  0.3727
 3153SOL    HW210359   3.774   5.720   0.316 -1.4418 -2.2770  0.9080
 3154SOL     OW10360   4.589   1.432   0.553 -0.0196  0.8037  0.0829
 3154SOL    HW110361   4.649   1.498   0.597  0.9902 -0.8115  1.2795
 3154SOL    HW210362   4.639   1.383   0.482  0.0408 -0.3521  0.8872
 3155SOL     OW10363   5.506   4.946   0.481 -0.0102 -0.2995 -0.1009
 3155SOL    HW110364   5.495   5.028   0.537  0.3382 -0.6911  0.5621
 3155SOL    HW210365   5.424   4.889   0.491 -0.0549 -0.2522 -0.1959
 3156SOL     OW10366   3.180   3.930   2.195 -0.2766 -0.4286  0.1486
 3156SOL    HW110367   3.172   3.959   2.099 -0.6918  0.4214  0.4314
 3156SOL    HW210368   3.093   3.892   2.226 -0.3999  0.0637  0.4239
 3157SOL     OW10369   1.239   2.633   3.342  0.3824 -0.2745 -0.5960
 3157SOL    HW110370   1.286   2.721   3.337 -0.9761  0.4734 -0.6618
 3157SOL    HW210371   1.285   2.568   3.281  0.4504  0.8628 -1.8126
 3158SOL     OW10372   1.130   6.911   5.328  0.2549 -0.1828  0.2522
 3158SOL    HW110373   1.124   6.819   5.290 -0.0925  0.4815 -1.4130
 3158SOL    HW210374   1.054   6.966   5.293  0.4200  0.7357  1.2629
 3159SOL     OW10375   4.537   4.780   0.795  0.4499 -0.0987 -0.2142
 3159SOL    HW110376   4.562   4.721   0.872  0.9960 -2.5339 -2.1191
 3159SOL    HW210377   4.523   4.873   0.828  1.5860 -0.8182  2.6482
 3160SOL     OW10378   1.335   3.021   5.922 -0.3736 -0.3298  0.1391
 3160SOL    HW110379   1.382   3.099   5.881 -0.5225 -0.1946  0.2204
 3160SOL    HW210380   1.281   3.053   6.000  0.7494 -0.7448  1.1051
 3161SOL     OW10381   2.314   1.731   0.318  0.4313  1.0155  0.2426
 3161SOL    HW110382   2.275   1.823   0.319 -1.0368  0.4654 -1.3329
 3161SOL    HW210383   2.292   1.687   0.230  1.3909 -0.7089  0.8338
 3162SOL     OW10384   2.080   5.658   2.194  0.0358 -0.4590  0.0005
 3162SOL    HW110385   2.103   5.655   2.292 -1.0255 -3.1273  0.2598
 3162SOL    HW210386   2.140   5.595   2.145  0.2723  0.5546 -1.0560
 3163SOL     OW10387   5.205   4.944   1.414 -0.6246 -0.5609  0.3968
 3163SOL    HW110388   5.300   4.936   1.385 -0.0888  0.6956  1.7082
 3163SOL    HW210389   5.201   4.991   1.502 -2.4581 -0.7121  0.4236
 3164SOL     OW10390   2.549   6.792   0.491  0.0641 -0.5588  0.3395
 3164SOL    HW110391   2.471   6.801   0.553 -0.3909  2.1997 -0.5273
 3164SOL    HW210392   2.518   6.796   0.396  1.1986  0.3105 -0.0240
 3165SOL     OW10393   6.544   3.741   3.649 -0.1750 -0.1278 -0.3204
 3165SOL    HW110394   6.447   3.754   3.628 -0.2750 -1.3654 -0.6598
 3165SOL    HW210395   6.594   3.725   3.564  0.3432  0.4954 -0.1457
 3166SOL     OW10396   2.581   2.476   4.678 -0.5668 -0.2295 -1.0097
 3166SOL    HW110397   2.575   2.573   4.658 -1.5011 -0.3251 -1.2452
 3166SOL    HW210398   2.650   2.433   4.620  1.5919  0.6937  0.7413
 3167SOL     OW10399   0.291   2.985   2.095 -0.2942  0.4650 -0.1587
 3167SOL    HW110400   0.365   3.048   2.072  0.2139 -0.7313 -2.0767
 3167SOL    HW210401   0.310   2.941   2.183  1.5987 -0.2167 -0.8610
 3168SOL     OW10402   4.930   1.480   1.733  0.7192 -0.3365  0.1601
 3168SOL    HW110403   4.926   1.473   1.833 -0.2717 -1.9480  0.0368
 3168SOL    HW210404   4.884   1.564   1.704 -1.1053 -1.0226  0.9500
 3169SOL     OW10405   0.936   3.234   2.060 -0.0479  0.0335 -0.4959
 3169SOL    HW110406   0.958   3.235   2.158 -1.3470 -1.0007 -0.1680
 3169SOL    HW210407   1.015   3.200   2.009  0.9568  1.3947  0.0709
 3170SOL     OW10408   1.460   4.873   4.213  0.4778  0.3786  0.4007
 3170SOL    HW110409   1.431   4.813   4.287 -1.7012  0.1752 -0.5440
 3170SOL    HW210410   1.474   4.819   4.130  0.1750  0.9605 -0.0377
 3171SOL     OW10411   6.756   2.117   3.892  0.2828 -0.0884 -0.1532
 3171SOL    HW110412   6.773   2.190   3.826 -1.5250  0.0269 -0.5588
 3171SOL    HW210413   6.828   2.047   3.886  0.9848  0.7046 -1.1068
 3172SOL     OW10414   1.494   4.733   1.341 -0.2351  0.0700 -0.5532
 3172SOL    HW110415   1.484   4.830   1.362  0.3677  0.0702 -0.2302
 3172SOL    HW210416   1.589   4.714   1.316 -0.0039 -0.6859  0.7914
 3173SOL     OW10417   4.919   3.323   6.908  0.2135 -0.4711 -0.5460
 3173SOL    HW110418   4.973   3.398   6.871 -0.3428 -0.7945 -2.0833
 3173SOL    HW210419   4.979   3.259   6.956  0.7724  0.6257  0.2445
 3174SOL     OW10420   3.369   3.196   6.105  0.5429 -0.2427 -0.1241
 3174SOL    HW110421   3.394   3.273   6.047 -0.7495  0.9676  0.8390
 3174SOL    HW210422   3.334   3.121   6.049  0.5117  0.4097 -0.9915
 3175SOL     OW10423   6.897   4.941   4.292  0.7189 -0.3626 -0.0195
 3175SOL    HW110424   6.898   4.842   4.283  0.1551 -0.3627 -0.0839
 3175SOL    HW210425   6.803   4.975   4.288  1.0053  0.3318 -1.8297
 3176SOL     OW10426   6.526   3.554   2.584 -0.4504  0.0429  0.3663
 3176SOL    HW110427   6.605   3.614   2.596 -0.9185  1.4074 -2.5626
 3176SOL    HW210428   6.556   3.465   2.548 -0.2166  0.6191 -0.9061
 3177SOL     OW10429   5.169   3.732   1.793  0.4106 -0.3447  0.2801
 3177SOL    HW110430   5.171   3.697   1.887 -0.9115 -1.5793 -0.1261
 3177SOL    HW210431   5.075   3.751   1.766  0.8448  0.7434 -0.5552
 3178SOL     OW10432   1.450   2.660   5.831 -0.8986 -0.4613 -0.5639
 3178SOL    HW110433   1.368   2.612   5.860 -0.8754 -0.4865 -0.5412
 3178SOL    HW210434   1.426   2.729   5.762 -1.0201 -0.0886 -0.1510
 3179SOL     OW10435   0.482   4.173   1.369  0.0470  0.6348  0.1886
 3179SOL    HW110436   0.479   4.106   1.443 -0.6234  0.4781  0.0202
 3179SOL    HW210437   0.438   4.135   1.287  0.8411  0.7753 -0.3219
 3180SOL     OW10438   6.128   1.718   0.412 -0.1158 -0.2206  0.3961
 3180SOL    HW110439   6.085   1.628   0.421 -1.2165  0.2361 -0.1702
 3180SOL    HW210440   6.090   1.780   0.480 -0.7830  0.3389 -0.4637
 3181SOL     OW10441   6.551   6.678   5.848 -0.0260 -0.0371 -0.3323
 3181SOL    HW110442   6.469   6.732   5.870  0.5605  0.5882  0.3708
 3181SOL    HW210443   6.553   6.596   5.905  0.0815  0.1898 -0.0083
 3182SOL     OW10444   1.904   0.875   0.143 -0.3211  0.1358 -0.5279
 3182SOL    HW110445   1.975   0.829   0.197  2.0409  2.3738 -1.5171
 3182SOL    HW210446   1.839   0.807   0.108 -0.1353 -1.7335  2.4233
 3183SOL     OW10447   4.311   5.800   6.855 -0.0835 -0.0706 -0.0697
 3183SOL    HW110448   4.360   5.787   6.769  0.5429 -1.4042  0.4627
 3183SOL    HW210449   4.371   5.846   6.921 -1.4848  3.7453 -1.1592
 3184SOL     OW10450   1.341   0.496   4.917 -0.1192 -0.0527  0.1538
 3184SOL    HW110451   1.305   0.589   4.927  2.5109  1.0137  0.4650
 3184SOL    HW210452   1.397   0.491   4.834  0.2548 -1.1915  0.4562
 3185SOL     OW10453   6.911   5.930   6.352  0.1394 -0.6148  0.0012
 3185SOL    HW110454   6.818   5.964   6.359  0.3363  0.1861 -0.9992
 3185SOL    HW210455   6.975   6.003   6.374  0.5768 -0.1305 -2.5753
 3186SOL     OW10456   1.568   1.658   5.232 -0.5606  0.2518  0.4854
 3186SOL    HW110457   1.540   1.691   5.142 -0.6796 -3.0956 -0.8498
 3186SOL    HW210458   1.517   1.575   5.255 -0.9923  1.3209  4.0186
 3187SOL     OW10459   3.446   1.054   1.957  0.3241  0.0018  0.2723
 3187SOL    HW110460   3.363   1.109   1.962 -0.3308 -0.9417  0.0690
 3187SOL    HW210461   3.423   0.957   1.968  1.2359 -0.3931 -1.0648
 3188SOL     OW10462   6.531   0.591   3.568 -0.8842  0.3364 -0.1097
 3188SOL    HW110463   6.531   0.521   3.640 -1.3119 -0.5448 -0.9569
 3188SOL    HW210464   6.625   0.610   3.541 -0.7935 -0.3195 -0.2690
 3189SOL     OW10465   2.882   2.774   6.713 -0.1726 -0.6821 -0.3204
 3189SOL    HW110466   2.952   2.711   6.679  0.3159 -0.0186 -0.5741
 3189SOL    HW210467   2.925   2.843   6.772 -0.6419 -0.4063 -0.2941
 3190SOL     OW10468   1.142   6.288   2.653 -0.1558  0.1301  0.3554
 3190SOL    HW110469   1.043   6.304   2.661 -0.1727  0.6890 -0.7879
 3190SOL    HW210470   1.158   6.193   2.627 -0.2955 -0.4225  2.1563
 3191SOL     OW10471   3.718   5.707   1.190 -0.0366 -0.6712 -0.0361
 3191SOL    HW110472   3.752   5.682   1.280 -0.5966  0.4014  0.4892
 3191SOL    HW210473   3.794   5.704   1.124  0.9952  1.1013  0.9999
 3192SOL     OW10474   5.821   2.664   3.927  0.2635  0.0260 -0.1347
 3192SOL    HW110475   5.786   2.648   3.835  0.9408 -0.1239 -0.3710
 3192SOL    HW210476   5.916   2.694   3.922  0.5865 -0.8345  0.5623
 3193SOL     OW10477   5.540   0.354   4.596 -0.9817 -0.6909 -0.1991
 3193SOL    HW110478   5.589   0.386   4.515 -1.8113 -2.8366 -1.6455
 3193SOL    HW210479   5.533   0.429   4.662  2.2886  0.3164 -0.7904
 3194SOL     OW10480   3.916   6.353   4.978  0.1175 -0.3687 -0.1038
 3194SOL    HW110481   3.983   6.427   4.980 -1.7130  1.3583  1.2687
 3194SOL    HW210482   3.904   6.320   4.884  3.0291 -0.9552 -0.3507
 3195SOL     OW10483   5.011   0.299   1.995 -0.0052  0.2145  0.0076
 3195SOL    HW110484   4.962   0.352   1.926  1.1967  1.7577  0.2733
 3195SOL    HW210485   5.047   0.215   1.953 -1.0569  0.1021 -0.7026
 3196SOL     OW10486   5.817   1.689   2.573 -0.4525  0.7106  0.0402
 3196SOL    HW110487   5.736   1.660   2.522 -0.2386  0.3344 -0.0905
 3196SOL    HW210488   5.817   1.788   2.584 -1.2212  0.6622  0.5278
 3197SOL     OW10489   4.308   6.090   2.866 -0.4950 -0.0145  0.5123
 3197SOL    HW110490   4.249   6.151   2.918 -0.4508  0.1804  0.3369
 3197SOL    HW210491   4.342   6.138   2.785 -0.3833 -0.2417  0.4238
 3198SOL     OW10492   6.794   5.111   3.805 -0.0807  0.4702 -0.2605
 3198SOL    HW110493   6.753   5.186   3.754 -0.8458  0.7792  0.7551
 3198SOL    HW210494   6.848   5.148   3.881  1.5667  0.0459 -1.1816
 3199SOL     OW10495   4.738   4.151   3.484  0.1447 -0.2115 -0.2369
 3199SOL    HW110496   4.704   4.190   3.570 -0.4149 -1.1081 -0.0450
 3199SOL    HW210497   4.698   4.202   3.407 -1.1525 -0.8193 -0.0009
 3200SOL     OW10498   5.089   2.944   4.203  0.1058  0.9121  0.1754
 3200SOL    HW110499   5.099   2.916   4.108 -0.0907  1.7295 -0.0925
 3200SOL    HW210500   5.180   2.956   4.245  0.1968 -0.5651  0.4407
 3201SOL     OW10501   0.522   2.030   2.500  0.0528  0.0068  0.1493
 3201SOL    HW110502   0.444   1.967   2.496  1.2581 -1.4916 -1.1321
 3201SOL    HW210503   0.521   2.078   2.588 -0.5979 -2.2805  1.4920
 3202SOL     OW10504   3.940   3.179   3.695 -0.0513  0.0534  0.1801
 3202SOL    HW110505   3.992   3.250   3.743 -0.9652  0.3851  0.6926
 3202SOL    HW210506   3.901   3.217   3.612 -0.7758  0.2443  0.5971
 3203SOL     OW10507   2.836   6.323   1.803 -0.0326  0.2170  0.2441
 3203SOL    HW110508   2.812   6.397   1.866 -2.2647 -0.7609  0.6464
 3203SOL    HW210509   2.804   6.236   1.840 -0.1309 -0.5777 -1.5836
 3204SOL     OW10510   5.938   2.516   4.332  0.3933  0.4306 -0.1051
 3204SOL    HW110511   5.984   2.555   4.413 -1.7899 -0.9535  1.9437
 3204SOL    HW210512   5.999   2.522   4.253  2.9141  1.2781  1.7541
 3205SOL     OW10513   5.090   3.566   0.695 -0.1261  0.3868  0.4611
 3205SOL    HW110514   5.019   3.542   0.762 -0.8455  1.0785 -0.0410
 3205SOL    HW210515   5.060   3.538   0.604  0.9089 -0.6709  0.4241
 3206SOL     OW10516   1.647   6.072   1.168 -0.5985  0.1597 -0.4782
 3206SOL    HW110517   1.602   6.017   1.238  1.3494  1.1821  1.7281
 3206SOL    HW210518   1.660   6.165   1.203  0.1650  0.7975 -2.3356
 3207SOL     OW10519   1.383   6.216   1.500  0.2551  0.4524  0.0032
 3207SOL    HW110520   1.448   6.252   1.567  0.0693 -1.1320  1.1177
 3207SOL    HW210521   1.295   6.201   1.545  0.3187 -1.2950 -0.3922
 3208SOL     OW10522   6.661   2.792   0.059 -0.8323 -0.1992 -0.2894
 3208SOL    HW110523   6.691   2.750  -0.027 -1.5570 -1.3464 -0.0023
 3208SOL    HW210524   6.629   2.721   0.122  0.0135  0.5800  1.0855
 3209SOL     OW10525   3.608   0.734   4.132  0.0521  0.7153 -0.2555
 3209SOL    HW110526   3.595   0.641   4.100  1.2825 -0.3435  2.0575
 3209SOL    HW210527   3.521   0.784   4.125 -0.9124 -0.9156 -0.5522
 3210SOL     OW10528   5.098   5.283   1.710 -0.0929  0.2746  0.4721
 3210SOL    HW110529   5.155   5.361   1.686 -1.5103  0.7420 -1.7405
 3210SOL    HW210530   5.136   5.200   1.668 -0.5957  0.4663 -0.4002
 3211SOL     OW10531   2.591   1.284   5.939  0.0444  0.2933  0.5564
 3211SOL    HW110532   2.574   1.370   5.890 -1.0205 -0.2756 -0.1118
 3211SOL    HW210533   2.508   1.258   5.989  0.2754 -0.4927  0.5305
 3212SOL     OW10534   4.678   0.860   3.932 -0.1231  0.4723 -0.7533
 3212SOL    HW110535   4.772   0.848   3.899  0.5790 -2.6039  1.8321
 3212SOL    HW210536   4.680   0.888   4.028 -1.8388  0.3916 -0.6733
 3213SOL     OW10537   0.404   1.137   5.144  0.1267 -0.2182 -0.1884
 3213SOL    HW110538   0.366   1.170   5.057 -0.0743  0.0576  0.0038
 3213SOL    HW210539   0.461   1.057   5.126  1.2792  0.6954 -0.7657
 3214SOL     OW10540   3.609   1.136   2.185  0.2087 -0.5949  0.1172
 3214SOL    HW110541   3.527   1.136   2.127  0.5075 -0.8873 -0.3104
 3214SOL    HW210542   3.621   1.227   2.226 -0.3291 -0.5542  0.1853
 3215SOL     OW10543   2.399   2.450   2.266  0.5804  0.4651  0.0580
 3215SOL    HW110544   2.412   2.392   2.185 -1.1111  0.1944 -0.0624
 3215SOL    HW210545   2.354   2.535   2.238 -0.7996  0.0088  0.8116
 3216SOL     OW10546   7.014   5.121   0.930  0.2479 -0.1387 -0.6362
 3216SOL    HW110547   7.077   5.108   1.007  0.6730  2.8906 -0.3249
 3216SOL    HW210548   7.063   5.111   0.844  0.3284 -1.1881 -0.4752
 3217SOL     OW10549   6.173   5.588   6.139 -0.3380 -0.3797  0.4656
 3217SOL    HW110550   6.177   5.546   6.048 -2.0611 -2.1464  1.1347
 3217SOL    HW210551   6.213   5.526   6.206 -0.4207  0.2703  1.1267
 3218SOL     OW10552   0.239   2.621   4.547  0.1420  0.0913 -0.5944
 3218SOL    HW110553   0.322   2.569   4.528 -0.4810 -1.0585 -0.2388
 3218SOL    HW210554   0.159   2.567   4.522 -0.5167  1.1808 -0.9325
 3219SOL     OW10555   4.120   1.462   5.312  0.4667 -0.2660 -0.2681
 3219SOL    HW110556   4.067   1.387   5.351 -2.5209  2.4951  1.5686
 3219SOL    HW210557   4.169   1.509   5.385  2.9129 -0.7738 -1.4933
 3220SOL     OW10558   0.614   5.510   4.864  0.4509  0.1747 -0.2577
 3220SOL    HW110559   0.525   5.467   4.845  0.0222  0.8376  0.2067
 3220SOL    HW210560   0.604   5.574   4.940  1.2762  0.4555 -0.3809
 3221SOL     OW10561   4.002   2.170   1.660 -0.0113  0.5902 -0.2687
 3221SOL    HW110562   3.917   2.121   1.680 -0.8223  1.3581 -1.7444
 3221SOL    HW210563   4.000   2.260   1.704  0.3998  0.2988  0.3609
 3222SOL     OW10564   1.357   1.513   4.899 -0.0381 -0.3173  0.3190
 3222SOL    HW110565   1.360   1.413   4.899  0.2675 -0.3096 -0.1735
 3222SOL    HW210566   1.446   1.549   4.872 -0.5043  0.0760 -0.7385
 3223SOL     OW10567   1.705   4.518   2.289 -0.2655  0.4281 -0.5351
 3223SOL    HW110568   1.707   4.542   2.386  1.2673  0.7559 -0.6184
 3223SOL    HW210569   1.612   4.494   2.262 -0.6015 -0.3878  1.1924
 3224SOL     OW10570   5.090   3.272   3.184  0.2250 -0.5035 -0.4748
 3224SOL    HW110571   5.094   3.212   3.264 -1.0452  0.4914  0.3756
 3224SOL    HW210572   5.007   3.252   3.132 -0.6526  0.9844  0.2609
 3225SOL     OW10573   4.040   2.121   3.939 -1.1124  0.1092  0.0772
 3225SOL    HW110574   4.005   2.062   4.012 -1.3587  0.8870  0.5955
 3225SOL    HW210575   3.963   2.154   3.883 -1.1657  1.3176  0.8378
 3226SOL     OW10576   4.130   1.917   0.259  0.3180  0.1185  0.1896
 3226SOL    HW110577   4.137   1.844   0.191 -0.0427  0.3505 -0.1007
 3226SOL    HW210578   4.048   1.903   0.314 -0.6321  1.1424 -0.8855
 3227SOL     OW10579   5.133   3.900   4.534 -0.4737 -0.4176 -0.0272
 3227SOL    HW110580   5.034   3.885   4.535 -0.5303 -0.7704 -3.0394
 3227SOL    HW210581   5.155   3.984   4.584 -2.2457 -0.4306  0.8344
 3228SOL     OW10582   2.104   4.048   5.763  0.2870 -0.4060  0.4345
 3228SOL    HW110583   2.173   4.041   5.691  1.9129  0.6103  1.8009
 3228SOL    HW210584   2.015   4.065   5.722  0.8774 -1.3514 -1.3845
 3229SOL     OW10585   0.360   1.578   6.569 -0.2640  0.1797  0.3286
 3229SOL    HW110586   0.266   1.570   6.601  0.5440 -2.1626  2.4360
 3229SOL    HW210587   0.408   1.648   6.623 -0.1465 -0.4505  1.0564
 3230SOL     OW10588   2.654   0.883   5.795 -0.4105  0.0723 -0.7196
 3230SOL    HW110589   2.671   0.970   5.749  1.1394  0.5494  0.6490
 3230SOL    HW210590   2.730   0.821   5.778 -0.0062  0.1125  0.7895
 3231SOL     OW10591   2.489   1.561   2.210 -0.3416  0.4782 -0.1418
 3231SOL    HW110592   2.464   1.652   2.179 -1.8141  1.2225  2.8209
 3231SOL    HW210593   2.408   1.502   2.209 -0.0324  0.0269  0.5046
 3232SOL     OW10594   2.919   6.007   3.275 -0.1185 -0.1221  0.4348
 3232SOL    HW110595   2.966   6.063   3.343 -0.3463  0.8096 -0.1664
 3232SOL    HW210596   2.840   6.056   3.238  1.1284  0.2578 -1.9554
 3233SOL     OW10597   2.077   0.461   4.712 -0.1018  0.2547  0.4193
 3233SOL    HW110598   1.985   0.444   4.748 -0.5761  0.1617 -0.8161
 3233SOL    HW210599   2.131   0.509   4.781 -0.8425 -0.3198  1.4283
 3234SOL     OW10600   3.157   4.115   6.220 -0.7888  0.3574 -0.6829
 3234SOL    HW110601   3.213   4.170   6.283 -2.0039  1.6207 -0.6611
 3234SOL    HW210602   3.124   4.173   6.146 -2.0661 -0.3464 -0.6891
 3235SOL     OW10603   6.193   0.355   2.605 -0.0349  0.4265 -0.0071
 3235SOL    HW110604   6.169   0.356   2.508  0.7458 -0.3074 -0.2283
 3235SOL    HW210605   6.288   0.324   2.615  0.4201  2.0097  0.8990
 3236SOL     OW10606   0.561   6.274   0.368 -0.3535 -0.0509 -0.0040
 3236SOL    HW110607   0.491   6.269   0.439 -1.1509 -0.7046 -0.8162
 3236SOL    HW210608   0.638   6.217   0.393 -1.2887 -1.5153 -0.3524
 3237SOL     OW10609   5.819   4.120   6.291  0.4952  0.0177 -0.1146
 3237SOL    HW110610   5.790   4.188   6.223  1.0926 -0.2885 -0.6961
 3237SOL    HW210611   5.803   4.155   6.383  0.7570  0.9361 -0.4076
 3238SOL     OW10612   1.495   4.757   0.403  0.0384  0.2742 -0.7864
 3238SOL    HW110613   1.507   4.824   0.329  0.5659  0.5294 -0.4729
 3238SOL    HW210614   1.410   4.778   0.451  0.8091  1.5234  0.1070
 3239SOL     OW10615   1.270   2.468   5.531 -0.1393 -0.2083  0.0790
 3239SOL    HW110616   1.297   2.544   5.589 -1.0459  1.1620 -1.2385
 3239SOL    HW210617   1.175   2.443   5.551 -0.1190 -0.4373 -0.0993
 3240SOL     OW10618   0.567   2.655   1.607  0.1354  0.2942  0.5029
 3240SOL    HW110619   0.582   2.637   1.704 -0.2483  0.8356  0.6650
 3240SOL    HW210620   0.534   2.748   1.595 -1.2491 -0.2487 -0.0147
 3241SOL     OW10621   6.588   3.763   5.388  0.5924  0.0076  0.1182
 3241SOL    HW110622   6.654   3.693   5.360  0.8710 -0.2944  1.4690
 3241SOL    HW210623   6.554   3.742   5.480 -0.7772  0.6085 -0.2204
 3242SOL     OW10624   5.852   5.762   3.409 -0.6432  0.1849  0.4561
 3242SOL    HW110625   5.882   5.857   3.396 -1.3115  0.0739 -2.7030
 3242SOL    HW210626   5.925   5.700   3.378 -1.1055 -0.2567  0.2454
 3243SOL     OW10627   5.729   5.204   2.800 -0.3789 -0.2028 -0.5011
 3243SOL    HW110628   5.721   5.296   2.760 -0.2675 -1.0211 -2.5291
 3243SOL    HW210629   5.785   5.147   2.740 -0.8795 -1.7583  0.4655
 3244SOL     OW10630   6.016   6.849   1.009 -0.5838 -0.1386 -0.2459
 3244SOL    HW110631   5.999   6.942   0.974  0.1254  0.0408 -0.1141
 3244SOL    HW210632   5.931   6.813   1.048 -0.9528  0.3208 -0.6150
 3245SOL     OW10633   1.116   0.136   3.279 -0.0421 -0.3436 -0.0935
 3245SOL    HW110634   1.051   0.144   3.203 -0.2317 -1.3137 -0.0512
 3245SOL    HW210635   1.121   0.040   3.308 -1.3584  0.2242  2.3094
 3246SOL     OW10636   5.470   4.178   2.358  0.3619 -0.1823 -0.2673
 3246SOL    HW110637   5.375   4.190   2.387  0.9246  1.5942  1.0553
 3246SOL    HW210638   5.527   4.158   2.438  1.5396  2.0558 -0.4596
 3247SOL     OW10639   2.424   3.580   5.527 -0.0264 -0.8514 -0.7871
 3247SOL    HW110640   2.393   3.486   5.534 -1.5468 -0.3537 -0.4103
 3247SOL    HW210641   2.405   3.616   5.436 -0.6924 -0.5078 -0.5202
 3248SOL     OW10642   4.985   2.856   3.734  0.1813  0.0825  0.2654
 3248SOL    HW110643   5.066   2.814   3.776 -0.6375 -1.3521  0.5050
 3248SOL    HW210644   4.949   2.926   3.795  1.2428  0.7470  0.1487
 3249SOL     OW10645   3.365   2.939   3.509  0.5509 -0.5133  0.3446
 3249SOL    HW110646   3.462   2.958   3.493  0.3293 -0.9846 -1.8361
 3249SOL    HW210647   3.321   2.911   3.424 -1.2899 -1.3747  1.4948
 3250SOL     OW10648   4.453   4.968   2.756 -0.1097 -0.3590  0.2659
 3250SOL    HW110649   4.464   5.045   2.693 -0.1759 -1.2308 -0.8481
 3250SOL    HW210650   4.543   4.940   2.790 -0.1316  0.5424  1.1183
 3251SOL     OW10651   3.626   3.111   2.289 -0.0062 -0.8360 -0.0596
 3251SOL    HW110652   3.642   3.202   2.250 -1.1178 -0.3406  0.5809
 3251SOL    HW210653   3.611   3.046   2.215 -0.5350 -0.2196 -0.5076
 3252SOL     OW10654   1.079   6.623   1.850 -0.1119 -0.1610 -0.8916
 3252SOL    HW110655   1.131   6.615   1.765  1.3372 -0.3823 -0.0199
 3252SOL    HW210656   1.137   6.664   1.921 -0.8001 -1.3078  0.3790
 3253SOL     OW10657   6.595   3.698   0.737 -0.6135  0.5917  0.1270
 3253SOL    HW110658   6.540   3.617   0.716  0.5261 -0.9274  2.6525
 3253SOL    HW210659   6.684   3.691   0.692  0.2476 -0.6418  1.8788
 3254SOL     OW10660   5.470   4.884   6.085 -0.0236  0.1029  0.6233
 3254SOL    HW110661   5.432   4.831   6.010 -0.7715  1.5241 -0.0387
 3254SOL    HW210662   5.463   4.831   6.170 -1.2349 -0.6346  0.0855
 3255SOL     OW10663   2.749   6.927   2.596 -0.0440 -0.3868  1.0552
 3255SOL    HW110664   2.689   6.862   2.642 -2.1518 -0.5720 -1.7067
 3255SOL    HW210665   2.696   7.008   2.569  1.6603  0.7930  1.0669
 3256SOL     OW10666   5.717   1.161   1.456 -0.3347  0.3949  0.2347
 3256SOL    HW110667   5.624   1.138   1.484 -0.4575  0.2842 -0.2555
 3256SOL    HW210668   5.770   1.190   1.536 -1.0555  1.3942  0.3728
 3257SOL     OW10669   1.970   1.401   3.325 -0.4026 -0.1284  0.0234
 3257SOL    HW110670   1.901   1.354   3.379 -0.4922  0.0857  0.0970
 3257SOL    HW210671   1.947   1.397   3.228  0.2697 -1.3705 -0.0996
 3258SOL     OW10672   6.581   6.950   6.290 -0.2724  0.0791 -0.1120
 3258SOL    HW110673   6.527   6.867   6.297  0.0687 -0.1556 -0.1964
 3258SOL    HW210674   6.647   6.940   6.214  0.5460 -0.0291  0.5977
 3259SOL     OW10675   0.067   5.519   1.674  0.1765 -0.6655  0.1379
 3259SOL    HW110676   0.075   5.619   1.676 -0.9384 -0.5527 -0.1162
 3259SOL    HW210677   0.136   5.479   1.734  0.3988  0.2742  0.5330
 3260SOL     OW10678   1.977   2.962   3.547 -0.0043  0.0413  0.4450
 3260SOL    HW110679   1.889   3.008   3.539  0.5822  1.0324 -0.5951
 3260SOL    HW210680   2.026   2.996   3.627  0.2788  1.0062 -0.1229
 3261SOL     OW10681   6.095   5.710   5.453 -0.2675  0.0712  0.1179
 3261SOL    HW110682   6.154   5.791   5.455 -0.8019  0.4450  1.0054
 3261SOL    HW210683   6.014   5.729   5.397  0.4186 -0.4460 -1.1102
 3262SOL     OW10684   3.012   2.244   1.258 -0.0839  0.4669  0.0907
 3262SOL    HW110685   2.950   2.236   1.336 -0.2067  2.4369  0.2335
 3262SOL    HW210686   3.052   2.335   1.256  0.2330  0.3302 -1.9394
 3263SOL     OW10687   6.198   5.646   0.232  0.7298 -0.4606  0.2840
 3263SOL    HW110688   6.143   5.620   0.312 -0.2689 -1.1070 -0.5868
 3263SOL    HW210689   6.235   5.563   0.189  1.1032 -0.1323 -0.0334
 3264SOL     OW10690   1.046   3.332   0.769 -0.4780  0.0654 -0.3198
 3264SOL    HW110691   1.141   3.363   0.763  0.0855 -1.3035  0.9924
 3264SOL    HW210692   0.995   3.367   0.690  0.7256  2.0699 -0.2726
 3265SOL     OW10693   5.965   5.761   6.117  0.4431  0.6308 -0.0052
 3265SOL    HW110694   6.037   5.692   6.113  0.0849  0.2402  0.1142
 3265SOL    HW210695   5.917   5.764   6.029 -0.7626 -0.6287  0.5644
 3266SOL     OW10696   3.293   4.509   6.014  0.7320  0.0759 -0.3188
 3266SOL    HW110697   3.358   4.476   5.945  0.2012 -1.4300 -0.1405
 3266SOL    HW210698   3.338   4.516   6.103  0.2804 -2.7186  0.2033
 3267SOL     OW10699   4.003   0.834   6.468 -0.1403  0.1517  0.2441
 3267SOL    HW110700   3.984   0.736   6.465  0.6548 -0.0223  0.5313
 3267SOL    HW210701   4.088   0.850   6.519 -0.0504  0.9552 -0.1401
 3268SOL     OW10702   4.712   4.871   2.797  0.5749  0.3786 -0.0256
 3268SOL    HW110703   4.752   4.800   2.854 -0.8923  0.6262  1.3890
 3268SOL    HW210704   4.659   4.828   2.723 -1.4544 -0.1078  1.6224
 3269SOL     OW10705   2.620   7.011   0.281  0.3524  0.4313 -0.1149
 3269SOL    HW110706   2.530   7.004   0.326  0.2499  0.1912 -0.3540
 3269SOL    HW210707   2.651   7.106   0.284  1.3022  0.1272  2.3003
 3270SOL     OW10708   1.046   4.781   5.862 -0.4547 -1.2774  0.1452
 3270SOL    HW110709   0.995   4.719   5.803 -2.4276 -0.2109  0.6720
 3270SOL    HW210710   1.131   4.736   5.890 -1.2266 -3.2521 -0.4708
 3271SOL     OW10711   0.742   4.733   1.668 -0.1098 -0.7795  0.4208
 3271SOL    HW110712   0.665   4.705   1.725  0.1051 -1.8238  0.2259
 3271SOL    HW210713   0.710   4.794   1.596 -0.7094 -0.9775  0.5149
 3272SOL     OW10714   2.781   7.003   1.675  0.0873  0.5486 -0.3216
 3272SOL    HW110715   2.687   6.971   1.686  0.2905  0.3100  0.8060
 3272SOL    HW210716   2.842   6.946   1.730  0.6313  1.9836  0.6085
 3273SOL     OW10717   3.128   6.505   1.190 -0.6130 -0.3786 -0.0866
 3273SOL    HW110718   3.137   6.577   1.122 -2.8211  0.5304  0.5104
 3273SOL    HW210719   3.195   6.433   1.171  1.1929  1.4577 -1.0998
 3274SOL     OW10720   5.482   5.956   2.884  0.3396  0.1408  0.2527
 3274SOL    HW110721   5.525   6.037   2.924 -0.2467  0.2992  0.5755
 3274SOL    HW210722   5.393   5.981   2.846  0.3006 -0.2851  0.0613
 3275SOL     OW10723   4.633   1.076   1.849  0.4306 -0.0325 -0.1667
 3275SOL    HW110724   4.612   1.150   1.785  4.6096  0.9981 -0.6319
 3275SOL    HW210725   4.627   1.111   1.942 -2.2125 -0.5629 -0.0582
 3276SOL     OW10726   1.548   6.895   0.208  0.6209 -0.4455 -0.3119
 3276SOL    HW110727   1.645   6.904   0.187  0.0900  1.3181 -2.4825
 3276SOL    HW210728   1.511   6.985   0.231 -0.6171 -0.9982 -0.0611
 3277SOL     OW10729   5.498   6.212   2.582  0.2071  0.0251 -0.3823
 3277SOL    HW110730   5.401   6.237   2.583  0.2371  0.2218 -1.6935
 3277SOL    HW210731   5.507   6.115   2.607 -0.1783  0.3887  1.2965
 3278SOL     OW10732   3.384   6.839   6.303  0.0781 -0.3622 -0.1368
 3278SOL    HW110733   3.395   6.934   6.271  3.6437 -0.9780 -1.1699
 3278SOL    HW210734   3.364   6.839   6.401 -1.6845  1.4393 -0.4388
 3279SOL     OW10735   4.469   0.396   2.408 -0.1422 -0.5909 -0.1044
 3279SOL    HW110736   4.392   0.417   2.348 -0.6640 -0.3271  0.6396
 3279SOL    HW210737   4.546   0.455   2.386  0.1497 -1.4293 -1.4182
 3280SOL     OW10738   0.751   2.407   3.594  0.1182  0.4620  0.4350
 3280SOL    HW110739   0.844   2.372   3.598 -1.0295 -3.5081 -1.7096
 3280SOL    HW210740   0.702   2.383   3.678 -0.1553 -1.8343 -0.3046
 3281SOL     OW10741   5.414   2.667   0.866 -0.0896 -0.0501  0.2103
 3281SOL    HW110742   5.319   2.635   0.875 -0.1236 -0.3247 -0.9794
 3281SOL    HW210743   5.445   2.704   0.953 -1.1337 -0.4018  0.7438
 3282SOL     OW10744   6.905   5.362   6.775  0.3365  0.3955 -0.4870
 3282SOL    HW110745   6.864   5.328   6.690 -0.5555  0.0561  0.0601
 3282SOL    HW210746   6.848   5.435   6.813 -0.5652 -1.0110  1.0083
 3283SOL     OW10747   3.539   0.346   1.849  0.6016 -1.0050 -0.2176
 3283SOL    HW110748   3.583   0.267   1.805 -0.1554 -1.0455 -0.9329
 3283SOL    HW210749   3.591   0.429   1.826 -0.5309 -0.8164 -2.4307
 3284SOL     OW10750   2.412   1.779   6.487  0.5258  0.0551 -0.2477
 3284SOL    HW110751   2.438   1.684   6.472  0.4584  0.3776 -3.0082
 3284SOL    HW210752   2.493   1.832   6.514  0.6157 -0.7198  1.0387
 3285SOL     OW10753   5.794   1.988   5.943 -0.2534 -0.1684  0.1113
 3285SOL    HW110754   5.808   1.911   5.880 -1.2871 -0.9099  0.7456
 3285SOL    HW210755   5.797   1.954   6.037  1.5516  0.9695  0.5036
 3286SOL     OW10756   1.252   3.408   3.310  0.7342 -0.1568 -0.1645
 3286SOL    HW110757   1.289   3.472   3.377  1.6456 -0.5544 -0.2670
 3286SOL    HW210758   1.220   3.326   3.356  0.2987  0.0431 -0.1091
 3287SOL     OW10759   4.668   0.834   0.333 -0.0456 -0.1312  0.6289
 3287SOL    HW110760   4.627   0.743   0.338  0.3297 -0.2858  0.9676
 3287SOL    HW210761   4.762   0.826   0.302 -0.5000  0.2935 -0.9346
 3288SOL     OW10762   3.437   5.436   2.802  0.2077 -0.6029  0.4757
 3288SOL    HW110763   3.437   5.485   2.890 -0.2125 -0.6099  0.4805
 3288SOL    HW210764   3.527   5.396   2.786  0.0188 -1.4196  1.3599
 3289SOL     OW10765   4.971   6.353   6.058 -0.0112  0.2176 -0.4223
 3289SOL    HW110766   5.033   6.275   6.073  1.7413  1.2093 -2.0072
 3289SOL    HW210767   4.979   6.383   5.963 -2.0470  1.1903 -0.3198
 3290SOL     OW10768   1.666   5.078   0.495 -0.4665 -0.4520 -0.0929
 3290SOL    HW110769   1.729   5.001   0.502  0.5535  0.2675 -0.9936
 3290SOL    HW210770   1.715   5.158   0.461 -1.3304  0.8161  1.5006
 3291SOL     OW10771   5.743   5.521   6.254  0.7799  0.4515 -0.1307
 3291SOL    HW110772   5.683   5.600   6.254  0.6050  0.3947  1.9982
 3291SOL    HW210773   5.811   5.530   6.182  0.0103  1.9284 -0.7092
 3292SOL     OW10774   0.387   2.977   6.111  0.3100  0.8618  0.3862
 3292SOL    HW110775   0.373   2.929   6.024  1.8235  0.6828  0.2239
 3292SOL    HW210776   0.485   2.986   6.129  0.0229  1.9683  1.4930
 3293SOL     OW10777   6.281   4.432   1.318 -0.9486 -0.2039  0.2355
 3293SOL    HW110778   6.313   4.457   1.227  0.9830  0.1411  0.9566
 3293SOL    HW210779   6.189   4.393   1.312 -1.3833  0.9829 -1.6842
 3294SOL     OW10780   4.562   3.148   6.396  0.5132  0.6002 -0.3483
 3294SOL    HW110781   4.623   3.070   6.411  0.9724  0.9396 -0.4271
 3294SOL    HW210782   4.515   3.170   6.481  1.6903  1.3321  0.1444
 3295SOL     OW10783   1.934   3.362   4.997  0.8855  0.1747  0.5334
 3295SOL    HW110784   1.991   3.352   5.079 -0.2469  0.6995  1.4163
 3295SOL    HW210785   1.983   3.416   4.929  1.2479  1.0984  1.4961
 3296SOL     OW10786   2.982   6.941   6.524  0.3799 -0.1993 -0.7909
 3296SOL    HW110787   2.883   6.942   6.513  0.3881  0.8380 -0.8403
 3296SOL    HW210788   3.015   6.846   6.524 -0.7560 -0.6301  0.6700
 3297SOL     OW10789   5.201   3.155   6.500  0.1282 -0.7733  0.0173
 3297SOL    HW110790   5.118   3.201   6.532  0.1631 -1.4467  1.1351
 3297SOL    HW210791   5.199   3.149   6.400 -0.7327  0.0166 -0.0305
 3298SOL     OW10792   4.264   4.811   6.901 -0.3953 -0.3023 -0.1899
 3298SOL    HW110793   4.258   4.763   6.989 -1.4783 -0.8531 -0.5372
 3298SOL    HW210794   4.240   4.748   6.827 -1.9642  0.7694 -0.6514
 3299SOL     OW10795   2.286   0.375   5.180  0.8585  1.0441  0.0982
 3299SOL    HW110796   2.375   0.414   5.205  0.6106  0.5072  1.9467
 3299SOL    HW210797   2.284   0.278   5.203 -0.4356  1.2022  0.7758
 3300SOL     OW10798   0.965   1.121   2.560 -0.6271  0.1752  0.1757
 3300SOL    HW110799   1.019   1.205   2.561 -0.7786  0.2897 -0.7492
 3300SOL    HW210800   0.908   1.117   2.643  0.0838  0.5132  0.6873
 3301SOL     OW10801   6.214   0.200   1.330 -0.4042  1.0180  0.4804
 3301SOL    HW110802   6.230   0.113   1.283  0.5041  0.7971  1.1623
 3301SOL    HW210803   6.302   0.243   1.352 -0.8289  1.6705  0.9506
 3302SOL     OW10804   1.609   4.738   1.889  0.1457  0.6302 -0.2054
 3302SOL    HW110805   1.533   4.760   1.828  1.2300  0.1199 -1.7812
 3302SOL    HW210806   1.584   4.764   1.983 -1.7769  0.8924 -0.7420
 3303SOL     OW10807   3.587   5.805   0.008  0.2641  0.8948 -0.2325
 3303SOL    HW110808   3.553   5.823   0.100  0.5729  2.0514 -0.3236
 3303SOL    HW210809   3.560   5.713  -0.021 -0.7968  0.9418  0.5690
 3304SOL     OW10810   3.307   3.959   0.722  0.1580 -0.0517  0.3104
 3304SOL    HW110811   3.285   3.950   0.819  2.2172  0.2535  0.8487
 3304SOL    HW210812   3.387   4.017   0.711  0.2403 -0.4569 -1.5438
 3305SOL     OW10813   2.002   1.234   5.060 -0.0710  0.4169 -0.2652
 3305SOL    HW110814   2.093   1.194   5.072 -0.1236 -1.0071 -3.5198
 3305SOL    HW210815   1.945   1.213   5.139  1.4706 -1.5219  0.4120
 3306SOL     OW10816   2.879   6.972   0.067 -0.8032 -0.6815 -0.3175
 3306SOL    HW110817   2.810   7.043   0.082  1.0232  1.0982  0.0996
 3306SOL    HW210818   2.934   6.960   0.150  0.9269 -0.2557 -1.3406
 3307SOL     OW10819   2.655   5.506   4.417  0.0769 -0.0328  0.4009
 3307SOL    HW110820   2.630   5.590   4.466  0.8950 -0.0950  0.9383
 3307SOL    HW210821   2.668   5.527   4.320  1.6486  0.7757  0.7495
 3308SOL     OW10822   6.467   5.103   0.378  0.2396 -0.3443 -0.5416
 3308SOL    HW110823   6.369   5.091   0.363  0.1054  0.7565 -0.6798
 3308SOL    HW210824   6.482   5.144   0.468  0.6170 -1.0219 -0.2904
 3309SOL     OW10825   6.093   3.215   2.905  0.0295 -0.2628 -0.2292
 3309SOL    HW110826   6.109   3.254   2.995  0.2130 -0.2429 -0.2707
 3309SOL    HW210827   6.126   3.121   2.903 -0.0982 -0.3071 -0.2342
 3310SOL     OW10828   5.235   3.939   0.088  0.2193  0.1295 -0.5418
 3310SOL    HW110829   5.288   3.855   0.097  0.4586  0.3222 -0.1298
 3310SOL    HW210830   5.154   3.922   0.031  0.3422 -0.3408 -0.5751
 3311SOL     OW10831   2.453   2.954   0.388  0.8364 -0.3917 -0.2633
 3311SOL    HW110832   2.507   2.969   0.305  1.0637 -0.7901 -0.1897
 3311SOL    HW210833   2.377   3.019   0.390 -0.0550 -1.3460 -1.5437
 3312SOL     OW10834   6.201   2.238   0.625 -0.2870 -0.1665  0.0319
 3312SOL    HW110835   6.258   2.316   0.598 -0.7174 -0.3199 -1.4062
 3312SOL    HW210836   6.164   2.254   0.716  0.2816  0.9460  0.0859
 3313SOL     OW10837   1.560   5.793   5.046  0.3807  0.2289  0.2190
 3313SOL    HW110838   1.639   5.731   5.041  0.7863  0.4130  2.6936
 3313SOL    HW210839   1.492   5.766   4.978  1.1552 -2.0485  0.2436
 3314SOL     OW10840   2.988   5.669   1.949  0.2585 -0.2080 -0.7572
 3314SOL    HW110841   2.983   5.601   2.022  0.7369  0.6207  0.0729
 3314SOL    HW210842   2.915   5.653   1.883 -0.8360 -0.3663  0.4552
 3315SOL     OW10843   1.995   5.416   5.418  0.2635  0.2082  0.5136
 3315SOL    HW110844   2.026   5.323   5.440  0.5896  0.6200  1.9245
 3315SOL    HW210845   1.965   5.461   5.502  0.0135  1.3484 -0.1719
 3316SOL     OW10846   3.773   0.946   6.746 -0.2012 -0.0678 -0.0329
 3316SOL    HW110847   3.804   0.941   6.651 -0.7194 -1.3673 -0.1529
 3316SOL    HW210848   3.674   0.932   6.750 -0.0629 -0.9513  0.7596
 3317SOL     OW10849   3.399   1.584   0.617 -0.7088  0.2822  0.0943
 3317SOL    HW110850   3.392   1.676   0.654 -2.7988 -0.3700  1.4984
 3317SOL    HW210851   3.313   1.558   0.574 -0.1764 -1.0419 -0.2217
 3318SOL     OW10852   5.035   3.213   0.708 -0.6069  0.2120 -0.2116
 3318SOL    HW110853   4.956   3.167   0.749 -0.3257  0.1902  0.3095
 3318SOL    HW210854   5.108   3.220   0.775 -0.6088  1.3516 -0.3189
 3319SOL     OW10855   1.058   6.031   3.847  0.5524  0.5964 -0.0733
 3319SOL    HW110856   1.061   5.944   3.798  1.8089  1.1713 -1.0765
 3319SOL    HW210857   0.966   6.069   3.841  0.0930 -0.4828  0.0445
 3320SOL     OW10858   6.474   6.960   2.700 -0.3778  0.0271 -0.3414
 3320SOL    HW110859   6.505   6.866   2.713 -0.0993 -0.0380 -1.4351
 3320SOL    HW210860   6.486   6.987   2.605  1.1791  1.7727  0.2864
 3321SOL     OW10861   4.674   4.516   0.384  0.3226  0.0128 -0.3505
 3321SOL    HW110862   4.676   4.595   0.446 -0.1829  1.1758 -1.7552
 3321SOL    HW210863   4.739   4.447   0.416  0.6273  0.8989  1.0301
 3322SOL     OW10864   5.465   3.498   1.133 -0.2112  0.3328  0.6421
 3322SOL    HW110865   5.537   3.465   1.193 -1.3234 -1.3825  1.1122
 3322SOL    HW210866   5.379   3.503   1.184 -0.6463  1.4076 -0.1515
 3323SOL     OW10867   6.079   0.076   1.877  0.5707  0.1673  0.0720
 3323SOL    HW110868   6.106  -0.018   1.899  1.5359 -0.1128 -2.0367
 3323SOL    HW210869   6.153   0.138   1.901  0.2264  0.3175  0.7783
 3324SOL     OW10870   5.300   5.504   0.886  0.2613  0.3832  0.1991
 3324SOL    HW110871   5.271   5.594   0.854  1.8270  1.1302  0.7631
 3324SOL    HW210872   5.301   5.503   0.986 -1.0643 -0.7259  0.2237
 3325SOL     OW10873   2.798   6.461   0.105  0.3206  0.0040  0.0454
 3325SOL    HW110874   2.807   6.557   0.079 -1.9132  0.7411  1.6787
 3325SOL    HW210875   2.761   6.408   0.028 -0.1927  0.8405 -0.2941
 3326SOL     OW10876   3.365   1.741   0.957 -0.1923 -0.0894 -0.2836
 3326SOL    HW110877   3.407   1.656   0.924 -1.0667 -0.8040  0.4189
 3326SOL    HW210878   3.267   1.727   0.971  0.0343  0.3173  2.1008
 3327SOL     OW10879   1.478   0.614   5.180  0.1110 -0.0343  0.0791
 3327SOL    HW110880   1.551   0.606   5.113  0.4864  1.2620  0.2975
 3327SOL    HW210881   1.401   0.557   5.153  0.4403  0.0988 -1.1960
 3328SOL     OW10882   3.463   3.393   4.971  0.0426  0.0298  0.1245
 3328SOL    HW110883   3.415   3.347   4.897  0.2505 -0.0329  0.0273
 3328SOL    HW210884   3.458   3.337   5.054 -0.7944  0.4276  0.3534
 3329SOL     OW10885   6.882   4.486   6.492  0.1985 -0.6536  0.0354
 3329SOL    HW110886   6.790   4.447   6.499  1.2110 -3.2060  0.0828
 3329SOL    HW210887   6.948   4.421   6.529  1.8889  1.9694  1.9679
 3330SOL     OW10888   1.867   3.572   2.328  0.4180  0.5995 -0.3974
 3330SOL    HW110889   1.947   3.523   2.294  0.4507 -1.6066  2.4467
 3330SOL    HW210890   1.885   3.607   2.420 -1.3140  1.6439 -0.3991
 3331SOL     OW10891   3.769   3.061   0.081 -0.6499  0.2423  0.1262
 3331SOL    HW110892   3.676   3.089   0.103 -0.5240  0.0614  0.9259
 3331SOL    HW210893   3.834   3.129   0.116 -0.4386 -0.1266  0.4712
 3332SOL     OW10894   1.785   4.534   2.600  0.4246 -0.0669  0.1803
 3332SOL    HW110895   1.719   4.603   2.632 -0.5657  0.0979 -2.0271
 3332SOL    HW210896   1.749   4.443   2.617  0.8523 -0.0332  1.3456
 3333SOL     OW10897   2.857   0.143   4.896  0.3871  0.0713  0.4245
 3333SOL    HW110898   2.910   0.215   4.851 -0.0374 -0.2049 -0.5492
 3333SOL    HW210899   2.918   0.070   4.925  0.5928 -0.0582 -0.3198
 3334SOL     OW10900   1.588   2.286   5.850  0.6383 -0.3953  0.3638
 3334SOL    HW110901   1.574   2.329   5.939  0.4773  0.7208 -0.1867
 3334SOL    HW210902   1.621   2.193   5.864 -0.2593 -0.5628  1.5981
 3335SOL     OW10903   5.238   4.373   5.314  0.1476  0.9964  0.1753
 3335SOL    HW110904   5.170   4.350   5.245  1.2953 -0.3097 -0.5799
 3335SOL    HW210905   5.268   4.289   5.359  1.8545  1.4353 -0.0887
 3336SOL     OW10906   2.465   6.805   4.725  0.3437  0.1750  0.0150
 3336SOL    HW110907   2.511   6.889   4.753  0.2074  0.1771  0.2380
 3336SOL    HW210908   2.445   6.809   4.627  1.3369 -0.0762 -0.2047
 3337SOL     OW10909   3.925   6.412   2.611  0.3239  0.1918 -0.0956
 3337SOL    HW110910   3.832   6.383   2.636  0.6970 -0.6211  0.4022
 3337SOL    HW210911   3.985   6.332   2.610  1.3880  0.9402  1.2562
 3338SOL     OW10912   6.835   5.573   0.003  0.5026 -0.5071 -0.4251
 3338SOL    HW110913   6.866   5.481   0.025 -0.7015 -1.1080 -1.1097
 3338SOL    HW210914   6.743   5.586   0.040  1.0213  0.7699  0.4826
 3339SOL     OW10915   1.000   4.961   0.223  0.5242 -0.0961  0.0837
 3339SOL    HW110916   1.024   4.864   0.223 -0.3834 -0.3626 -1.6195
 3339SOL    HW210917   0.916   4.974   0.171 -0.0107  1.4828  1.2641
 3340SOL     OW10918   4.508   2.772   0.352 -0.0291  0.5640 -0.0547
 3340SOL    HW110919   4.563   2.745   0.432 -1.2229 -1.4542  0.1446
 3340SOL    HW210920   4.488   2.691   0.297 -0.8471  1.6410 -1.3848
 3341SOL     OW10921   0.902   6.564   0.893  0.6763  0.2527  0.3541
 3341SOL    HW110922   0.889   6.531   0.799 -1.7252  0.9059  0.3906
 3341SOL    HW210923   0.929   6.660   0.891  0.3774  0.3375  0.3236
 3342SOL     OW10924   0.871   6.034   4.513  0.1927 -0.4793  0.4113
 3342SOL    HW110925   0.820   6.119   4.502  0.6236 -0.2843 -0.1512
 3342SOL    HW210926   0.814   5.966   4.559 -0.8980 -0.5658 -1.0119
 3343SOL     OW10927   0.552   1.217   1.933  0.9157  0.5973  0.1839
 3343SOL    HW110928   0.630   1.264   1.976  1.7382  0.9919 -1.6589
 3343SOL    HW210929   0.516   1.273   1.859  2.1358 -1.7168 -2.3109
 3344SOL     OW10930   1.471   1.929   6.090  0.6530  0.6531  0.0156
 3344SOL    HW110931   1.382   1.971   6.070 -0.5513 -1.4356  0.6744
 3344SOL    HW210932   1.504   1.964   6.178  0.6211  1.6205 -0.3431
 3345SOL     OW10933   3.133   4.523   6.908  0.3253  0.5081 -0.4534
 3345SOL    HW110934   3.223   4.489   6.935 -0.2321 -0.2104  0.5779
 3345SOL    HW210935   3.063   4.479   6.964 -0.6973  0.8390 -1.4380
 3346SOL     OW10936   2.846   5.829   4.567  0.5774  0.3871  0.2794
 3346SOL    HW110937   2.834   5.838   4.469  1.5910  2.7826  0.3246
 3346SOL    HW210938   2.914   5.758   4.586  0.3021 -0.1596 -0.7075
 3347SOL     OW10939   6.825   3.448   2.083  0.4757 -0.0227 -0.3532
 3347SOL    HW110940   6.900   3.383   2.076  0.6386  0.1513 -0.2409
 3347SOL    HW210941   6.851   3.522   2.145  0.6405  0.6159 -1.1673
 3348SOL     OW10942   4.118   3.359   2.693  0.4206 -0.5278  0.2768
 3348SOL    HW110943   4.125   3.344   2.792  1.3673 -0.3480  0.2485
 3348SOL    HW210944   4.083   3.276   2.649 -2.5372  0.2069  1.0159
 3349SOL     OW10945   2.560   1.258   0.398  0.5120  0.3751  0.6290
 3349SOL    HW110946   2.574   1.238   0.301 -2.4204  1.1992 -0.0585
 3349SOL    HW210947   2.476   1.213   0.430  0.2074  1.9095  2.1615
 3350SOL     OW10948   2.358   2.238   0.341 -0.5462  0.2417 -0.0935
 3350SOL    HW110949   2.420   2.189   0.403  1.7480  1.2186 -1.4554
 3350SOL    HW210950   2.343   2.331   0.376  0.1661  0.5519 -0.5636
 3351SOL     OW10951   5.958   2.470   0.606  0.0013  0.0774 -0.1678
 3351SOL    HW110952   5.909   2.549   0.569  1.4907  0.7542 -0.7709
 3351SOL    HW210953   5.912   2.386   0.576 -0.7855  0.6831 -0.7106
 3352SOL     OW10954   6.485   2.821   0.707  0.5341  0.0221  0.1204
 3352SOL    HW110955   6.569   2.835   0.758  1.4585 -3.2254 -0.2682
 3352SOL    HW210956   6.417   2.776   0.765 -0.1786  0.7273 -0.1504
 3353SOL     OW10957   0.125   4.277   5.446 -0.0497 -0.6527 -0.1489
 3353SOL    HW110958   0.032   4.295   5.476 -0.6509 -3.1212 -0.2643
 3353SOL    HW210959   0.156   4.351   5.386 -0.5175  2.0342  2.6785
 3354SOL     OW10960   6.313   5.905   2.863  0.6089  0.7894 -0.0719
 3354SOL    HW110961   6.270   5.928   2.950 -1.0772 -1.3457 -0.2428
 3354SOL    HW210962   6.404   5.866   2.879  0.3119  0.4107  0.7492
 3355SOL     OW10963   4.561   0.196   3.462 -0.5714  0.3433  0.0715
 3355SOL    HW110964   4.474   0.205   3.509  0.2330  0.0674  1.6981
 3355SOL    HW210965   4.622   0.137   3.515  0.8923  1.1925 -0.5834
 3356SOL     OW10966   0.686   3.598   0.391 -0.2430  0.2903 -0.0104
 3356SOL    HW110967   0.610   3.620   0.330 -0.7298 -1.9637 -0.2712
 3356SOL    HW210968   0.773   3.622   0.346 -0.7003  2.8767  0.2919
 3357SOL     OW10969   1.561   0.715   1.688 -0.1811  0.3344 -0.0469
 3357SOL    HW110970   1.475   0.707   1.638 -1.4308 -0.5207  2.0694
 3357SOL    HW210971   1.545   0.769   1.771  1.6629  1.2474 -0.2338
 3358SOL     OW10972   2.165   4.190   3.747  0.4965 -0.4280 -0.0468
 3358SOL    HW110973   2.114   4.155   3.669  0.0773  0.8255 -0.3397
 3358SOL    HW210974   2.185   4.114   3.810 -2.1034 -0.9126  0.3085
 3359SOL     OW10975   3.086   1.758   1.023 -0.5263  0.3154 -0.5149
 3359SOL    HW110976   3.076   1.709   0.936  0.6279  0.6368 -0.8433
 3359SOL    HW210977   3.034   1.710   1.093  0.8154 -1.6233 -0.7383
 3360SOL     OW10978   0.882   0.254   5.787  0.5055 -0.1175  0.6920
 3360SOL    HW110979   0.978   0.265   5.764  0.5673  0.6512  1.2860
 3360SOL    HW210980   0.838   0.193   5.721  1.1721  0.3156 -0.1554
 3361SOL     OW10981   3.280   0.999   2.676  0.4101  0.1419  0.0814
 3361SOL    HW110982   3.288   0.985   2.577 -0.1633 -1.6050  0.2394
 3361SOL    HW210983   3.209   1.067   2.695 -2.7788 -2.6790 -0.6875
 3362SOL     OW10984   3.545   2.013   5.030  0.1630 -0.1264  0.0557
 3362SOL    HW110985   3.571   1.929   5.076  2.4330  1.4642  1.8420
 3362SOL    HW210986   3.611   2.033   4.957 -1.6729 -0.9922 -1.9851
 3363SOL     OW10987   1.034   0.926   1.680 -0.3715 -0.4089 -0.1045
 3363SOL    HW110988   1.112   0.944   1.620  1.1234 -0.4897  1.7580
 3363SOL    HW210989   1.037   0.986   1.760 -1.2586 -1.5962  0.8672
 3364SOL     OW10990   1.807   4.369   4.866  0.2001  0.2665  0.6877
 3364SOL    HW110991   1.870   4.443   4.887  0.1211  0.7089 -0.5821
 3364SOL    HW210992   1.853   4.302   4.808 -0.7439  1.0608 -1.0336
 3365SOL     OW10993   5.887   1.905   5.226 -0.3913  0.0568 -0.1515
 3365SOL    HW110994   5.985   1.928   5.224 -0.7879  1.9522  0.3908
 3365SOL    HW210995   5.849   1.931   5.315 -1.4205 -0.5859 -0.3863
 3366SOL     OW10996   4.393   0.741   0.539 -0.0013  0.4605 -0.2836
 3366SOL    HW110997   4.485   0.718   0.573  0.9838  1.9998 -1.7536
 3366SOL    HW210998   4.363   0.825   0.583 -0.7224 -0.0239  0.1657
 3367SOL     OW10999   2.126   6.308   2.333  0.0345  0.0402 -0.1119
 3367SOL    HW111000   2.192   6.235   2.351 -0.6171 -1.1101 -2.0782
 3367SOL    HW211001   2.173   6.396   2.337  1.4413 -0.6608 -0.3364
 3368SOL     OW11002   4.618   2.077   3.434 -0.1529 -0.1473 -0.1660
 3368SOL    HW111003   4.629   2.161   3.380 -2.8904  0.4709  0.1008
 3368SOL    HW211004   4.610   2.101   3.531 -1.9522 -0.5534 -0.1776
 3369SOL     OW11005   3.179   5.818   0.054 -0.0115  0.3787 -0.3680
 3369SOL    HW111006   3.212   5.904   0.014 -0.0646  1.1914  1.2097
 3369SOL    HW211007   3.086   5.800   0.023 -0.2466  1.2610 -0.2220
 3370SOL     OW11008   5.486   0.167   6.623 -0.3113 -0.2320  0.4528
 3370SOL    HW111009   5.579   0.203   6.632 -0.2298 -0.5249  0.7956
 3370SOL    HW211010   5.439   0.214   6.548 -0.7231  1.6654  1.8178
 3371SOL     OW11011   5.227   2.859   1.219  0.4464  0.7406  0.2846
 3371SOL    HW111012   5.244   2.785   1.284 -0.2124 -0.7498 -1.1729
 3371SOL    HW211013   5.139   2.902   1.240  0.7237  0.9768  0.9967
 3372SOL     OW11014   1.412   3.543   2.233 -0.4869  0.0477 -0.6761
 3372SOL    HW111015   1.426   3.616   2.300  0.9989  2.2893 -3.2392
 3372SOL    HW211016   1.337   3.568   2.172  0.1350 -0.4543 -1.6741
 3373SOL     OW11017   2.186   3.059   6.250  0.4960 -0.2431  0.2351
 3373SOL    HW111018   2.097   3.082   6.290  0.3580  0.7479 -0.6021
 3373SOL    HW211019   2.224   3.139   6.205  2.2468 -0.4099  1.3399
 3374SOL     OW11020   3.772   0.090   4.987 -0.2196  0.3023 -0.1697
 3374SOL    HW111021   3.729   0.173   4.950 -0.6440  0.5769  0.9014
 3374SOL    HW211022   3.722   0.061   5.069  0.9386 -0.0551  0.4250
 3375SOL     OW11023   3.133   4.133   5.016 -0.1220  0.3619 -0.8977
 3375SOL    HW111024   3.161   4.136   4.920 -0.1161 -0.5598 -0.9345
 3375SOL    HW211025   3.034   4.121   5.023 -0.6327  3.6516 -0.7643
 3376SOL     OW11026   3.535   2.822   1.549  0.1692  0.1829 -0.1569
 3376SOL    HW111027   3.572   2.731   1.567 -1.6748 -0.6062 -0.1375
 3376SOL    HW211028   3.525   2.872   1.635  3.2468  1.3489 -0.3211
 3377SOL     OW11029   2.430   6.048   6.570  0.5064 -0.4549 -0.3623
 3377SOL    HW111030   2.442   5.953   6.541  2.6446 -0.3937  0.1400
 3377SOL    HW211031   2.447   6.055   6.668 -0.0739  0.3861 -0.3122
 3378SOL     OW11032   6.485   2.336   0.003 -0.3975 -1.0421  0.3957
 3378SOL    HW111033   6.393   2.299  -0.006 -0.9794 -0.1234  2.0675
 3378SOL    HW211034   6.545   2.267   0.043 -0.9229 -0.9378  1.3861
 3379SOL     OW11035   5.716   6.786   0.031 -0.1007 -0.0355  0.3413
 3379SOL    HW111036   5.622   6.759   0.050 -0.3759 -0.1019 -1.0658
 3379SOL    HW211037   5.718   6.861  -0.034  0.8264 -0.4990 -0.1967
 3380SOL     OW11038   1.581   4.599   5.109 -0.1838 -0.3291 -0.5420
 3380SOL    HW111039   1.644   4.636   5.041 -1.1065 -1.0933 -1.8496
 3380SOL    HW211040   1.543   4.512   5.077 -0.7856 -0.6233  0.8693
 3381SOL     OW11041   4.341   0.908   2.271  0.3293 -0.0008 -0.7824
 3381SOL    HW111042   4.325   1.007   2.268  2.3352  0.5065  1.7409
 3381SOL    HW211043   4.333   0.876   2.365  2.4527 -1.6894 -1.1016
 3382SOL     OW11044   6.321   0.187   1.876 -0.1892 -0.2932 -0.3627
 3382SOL    HW111045   6.357   0.106   1.922  1.3629 -0.7700 -2.2945
 3382SOL    HW211046   6.395   0.233   1.826 -1.5043  0.9739 -1.2225
 3383SOL     OW11047   1.098   2.871   1.164  0.3587  0.2910  0.3094
 3383SOL    HW111048   1.193   2.897   1.181 -0.0751  1.5313  0.9235
 3383SOL    HW211049   1.073   2.795   1.225  0.0975  1.9200  2.3248
 3384SOL     OW11050   3.681   4.025   3.351 -0.2036  0.2264  0.6985
 3384SOL    HW111051   3.778   4.023   3.327 -0.2581  1.1284  0.3799
 3384SOL    HW211052   3.661   4.107   3.403 -0.6794 -0.2775  1.3256
 3385SOL     OW11053   0.793   4.914   5.417 -0.5271 -0.3407  0.1729
 3385SOL    HW111054   0.769   4.848   5.489  0.8278  0.6347  1.5602
 3385SOL    HW211055   0.880   4.888   5.375 -0.5175 -0.0174 -0.0119
 3386SOL     OW11056   0.019   4.664   2.572 -0.0259 -0.0120 -0.4623
 3386SOL    HW111057   0.053   4.692   2.482  0.0001 -1.1773 -0.8332
 3386SOL    HW211058   0.088   4.608   2.618 -0.3616 -0.1107 -0.0731
 3387SOL     OW11059   2.651   1.425   2.043  0.1559 -0.0599 -0.4948
 3387SOL    HW111060   2.739   1.472   2.030 -0.7681  1.6628 -0.7442
 3387SOL    HW211061   2.600   1.470   2.116  0.6374 -2.8472  1.7406
 3388SOL     OW11062   7.015   1.159   0.678 -0.3554  0.6087 -0.3902
 3388SOL    HW111063   7.067   1.104   0.742  0.7902  1.0978 -0.8774
 3388SOL    HW211064   7.059   1.248   0.666 -0.1770  0.3178 -2.3067
 3389SOL     OW11065   3.749   5.868   1.970 -0.1481  0.5649 -0.0202
 3389SOL    HW111066   3.671   5.922   2.002 -0.1682  1.0424 -0.8477
 3389SOL    HW211067   3.834   5.909   2.002 -0.2217 -0.1864  1.2343
 3390SOL     OW11068   6.698   3.504   0.016 -0.0330  0.0748 -0.2732
 3390SOL    HW111069   6.734   3.596   0.031 -3.6970  1.1495  4.6252
 3390SOL    HW211070   6.757   3.437   0.059  0.5662  0.6712 -0.1498
 3391SOL     OW11071   2.425   1.480   5.111 -0.2816  0.6178 -0.2565
 3391SOL    HW111072   2.414   1.386   5.144  1.9225  0.2479 -0.3793
 3391SOL    HW211073   2.438   1.479   5.012  1.4145  0.8292 -0.0707
 3392SOL     OW11074   0.345   6.281   4.907 -0.3807 -0.1579 -0.1099
 3392SOL    HW111075   0.336   6.208   4.839  0.9334 -0.2834 -0.1719
 3392SOL    HW211076   0.432   6.327   4.895 -0.4519  0.2980  1.0279
 3393SOL     OW11077   0.535   6.794   6.036  0.5731  0.5087  0.1437
 3393SOL    HW111078   0.521   6.892   6.024  0.9495  0.3183 -2.7043
 3393SOL    HW211079   0.621   6.778   6.083  1.5808  1.5947 -1.2389
 3394SOL     OW11080   2.737   6.761   1.873 -0.5566  0.0736  0.4220
 3394SOL    HW111081   2.717   6.803   1.962 -0.6889 -0.5302  0.6833
 3394SOL    HW211082   2.810   6.693   1.884  0.9057  1.4590 -0.3190
 3395SOL     OW11083   1.710   3.395   6.237  0.4601 -0.2101  0.1878
 3395SOL    HW111084   1.675   3.321   6.181  0.8262 -1.7229  1.8812
 3395SOL    HW211085   1.808   3.408   6.219 -0.0370  1.3889 -1.6870
 3396SOL     OW11086   0.352   2.588   2.651 -0.8419 -0.0473  0.2358
 3396SOL    HW111087   0.420   2.661   2.649  0.9213 -1.5845  1.1764
 3396SOL    HW211088   0.298   2.591   2.567  0.4519  1.1717 -0.6024
 3397SOL     OW11089   4.306   6.738   0.458  0.3797 -0.0474  0.4277
 3397SOL    HW111090   4.301   6.805   0.531 -0.3751  0.4989 -0.1120
 3397SOL    HW211091   4.267   6.776   0.374 -1.8849 -1.7785  0.5891
 3398SOL     OW11092   6.996   1.169   5.544  0.0496  0.2865 -0.5770
 3398SOL    HW111093   7.021   1.172   5.641 -0.7843 -0.3689 -0.3221
 3398SOL    HW211094   7.025   1.082   5.505  1.1227  0.8826 -1.1462
 3399SOL     OW11095   2.656   4.688   4.184 -0.3597  0.1754  0.1882
 3399SOL    HW111096   2.696   4.771   4.144 -0.2692 -0.2659 -0.6558
 3399SOL    HW211097   2.628   4.707   4.279 -0.7328  1.2900 -0.1274
 3400SOL     OW11098   6.464   0.742   6.947 -0.2217  0.3728 -0.1787
 3400SOL    HW111099   6.482   0.671   6.880  2.3426 -1.5411  2.3244
 3400SOL    HW211100   6.550   0.777   6.984 -1.4738  0.7772  2.6371
 3401SOL     OW11101   1.883   4.942   5.525  0.2763  0.4330  0.4226
 3401SOL    HW111102   1.861   4.856   5.573 -0.0095  0.7957  0.9610
 3401SOL    HW211103   1.906   4.923   5.430 -0.0178 -0.2186  0.4787
 3402SOL     OW11104   4.991   4.320   1.205  0.1522  0.2417  0.2008
 3402SOL    HW111105   4.964   4.389   1.273 -0.8694 -0.7066  0.7972
 3402SOL    HW211106   5.001   4.231   1.250  1.4319 -0.0319 -0.5579
 3403SOL     OW11107   3.289   1.935   0.396 -0.0417 -0.3386 -0.3353
 3403SOL    HW111108   3.277   2.035   0.402  1.1158 -0.1412 -0.9862
 3403SOL    HW211109   3.277   1.895   0.487 -2.2543  0.1597 -0.3518
 3404SOL     OW11110   3.869   5.963   3.248  0.3185  0.2003  0.5337
 3404SOL    HW111111   3.859   6.062   3.253 -1.3690  0.0600  0.6433
 3404SOL    HW211112   3.927   5.939   3.170  0.5077  1.2626  0.3309
 3405SOL     OW11113   6.632   2.694   4.883  0.0800  0.0801 -0.6737
 3405SOL    HW111114   6.697   2.736   4.946 -0.3591  0.7989 -0.6874
 3405SOL    HW211115   6.675   2.615   4.839  0.4696 -0.2876  0.3386
 3406SOL     OW11116   1.284   2.231   1.460 -0.2911 -0.2581 -0.4503
 3406SOL    HW111117   1.310   2.277   1.545  2.3985 -1.5826 -0.4523
 3406SOL    HW211118   1.191   2.195   1.469  0.2250 -1.1379  2.2990
 3407SOL     OW11119   1.084   5.211   1.133  0.3909  0.2314 -0.2436
 3407SOL    HW111120   1.096   5.282   1.202 -0.2459  0.5686 -0.4669
 3407SOL    HW211121   1.172   5.167   1.114  0.3531 -1.0043  1.9693
 3408SOL     OW11122   4.499   3.500   1.394 -0.1957  0.4206  0.0157
 3408SOL    HW111123   4.516   3.408   1.428  2.4359  0.5914 -0.6650
 3408SOL    HW211124   4.523   3.567   1.464  0.5282  0.6443 -0.4401
 3409SOL     OW11125   3.118   1.650   5.435  0.1125  0.6243 -0.2939
 3409SOL    HW111126   3.200   1.689   5.477  0.3552 -1.1459  1.0006
 3409SOL    HW211127   3.039   1.671   5.493  0.7662 -3.8230  2.6792
 3410SOL     OW11128   1.350   1.613   5.939  0.3888  0.2048 -0.2523
 3410SOL    HW111129   1.290   1.686   5.971  1.7016  0.9506  0.5940
 3410SOL    HW211130   1.368   1.625   5.841 -0.4162  0.2605 -0.3977
 3411SOL     OW11131   5.333   0.533   2.249  0.1458 -0.0390  0.2387
 3411SOL    HW111132   5.339   0.585   2.334 -1.3304 -1.1480  1.0718
 3411SOL    HW211133   5.391   0.576   2.180  2.8965 -0.1792  2.3083
 3412SOL     OW11134   5.678   4.570   6.987  0.0681  0.3107  0.0378
 3412SOL    HW111135   5.695   4.586   6.890  0.8765  1.4369  0.3439
 3412SOL    HW211136   5.737   4.630   7.042 -1.1248  0.4736  1.2094
 3413SOL     OW11137   3.286   6.861   3.544  0.1590  0.4319 -0.3257
 3413SOL    HW111138   3.186   6.856   3.549  0.1251 -0.4070 -1.5501
 3413SOL    HW211139   3.326   6.784   3.593  0.1237 -0.6465 -1.9320
 3414SOL     OW11140   2.938   6.439   5.847  0.7174  0.1415  0.1337
 3414SOL    HW111141   2.849   6.445   5.801  0.1020  1.7128  1.4519
 3414SOL    HW211142   3.002   6.388   5.789 -0.9413 -0.7819 -0.9691
 3415SOL     OW11143   2.346   5.715   5.184 -0.1382 -0.1511 -0.2538
 3415SOL    HW111144   2.445   5.722   5.169 -0.1680 -0.2808 -0.5221
 3415SOL    HW211145   2.328   5.647   5.255  0.0205  0.6759  0.5936
 3416SOL     OW11146   0.436   4.584   4.858 -0.1412  0.1269  0.1137
 3416SOL    HW111147   0.439   4.666   4.800 -2.2253  1.2345  1.4515
 3416SOL    HW211148   0.427   4.611   4.954  0.4457 -1.6830  0.7238
 3417SOL     OW11149   5.110   0.698   1.159 -0.2676  0.7922  0.3218
 3417SOL    HW111150   5.104   0.714   1.257  0.9354  0.8955  0.3963
 3417SOL    HW211151   5.183   0.755   1.121 -0.9153  0.9697 -0.6827
 3418SOL     OW11152   2.214   0.795   5.878  0.3901  0.0942  0.4031
 3418SOL    HW111153   2.114   0.795   5.876  0.4080  0.0888 -1.0812
 3418SOL    HW211154   2.247   0.884   5.847  0.8652  0.2695  1.3626
 3419SOL     OW11155   4.929   3.199   5.128 -0.0967  0.2004 -0.2501
 3419SOL    HW111156   5.020   3.161   5.136 -0.3146 -0.0875  1.0435
 3419SOL    HW211157   4.862   3.136   5.168 -0.5514  1.5234  1.1918
 3420SOL     OW11158   1.922   1.917   3.985 -0.1529 -0.0763  0.0768
 3420SOL    HW111159   1.892   1.823   4.000 -0.7424  0.4662  2.9664
 3420SOL    HW211160   2.004   1.934   4.039 -0.2513  1.1641 -0.1440
 3421SOL     OW11161   6.879   6.104   2.760  0.8749 -0.8304  0.1693
 3421SOL    HW111162   6.828   6.084   2.844  1.6410 -3.9421  0.0354
 3421SOL    HW211163   6.889   6.203   2.749 -0.9940 -0.2742  2.6468
 3422SOL     OW11164   4.088   1.029   3.891 -0.9631  0.5925 -0.1812
 3422SOL    HW111165   4.131   1.077   3.967  0.2425 -0.1942 -0.3560
 3422SOL    HW211166   4.066   0.936   3.918 -0.4875  0.2930 -0.8014
 3423SOL     OW11167   2.432   6.969   2.486 -0.4407 -0.4809 -0.0432
 3423SOL    HW111168   2.335   6.945   2.477 -0.4579 -0.3443 -0.2187
 3423SOL    HW211169   2.443   7.067   2.473 -0.4724 -0.2653  1.4630
 3424SOL     OW11170   2.179   1.803   6.853 -0.4357  0.0474 -0.2390
 3424SOL    HW111171   2.094   1.828   6.900 -0.6093 -0.0336 -0.5087
 3424SOL    HW211172   2.185   1.852   6.767 -1.2395 -1.5115 -1.2224
 3425SOL     OW11173   4.236   2.188   1.179 -0.1949 -0.2370  0.4537
 3425SOL    HW111174   4.187   2.192   1.266  0.6763 -2.6033  1.1292
 3425SOL    HW211175   4.192   2.121   1.120 -0.7795  1.3561 -0.9924
 3426SOL     OW11176   4.738   4.245   6.881  0.1908 -0.1321  0.0997
 3426SOL    HW111177   4.716   4.313   6.950  1.1448 -0.7953  1.0966
 3426SOL    HW211178   4.824   4.200   6.905  1.4579  0.7816 -2.4142
 3427SOL     OW11179   1.826   1.408   4.978 -0.1939  0.0107  0.0710
 3427SOL    HW111180   1.765   1.397   5.057  0.5200  0.2555  0.6701
 3427SOL    HW211181   1.907   1.350   4.990 -0.9792 -1.4659 -1.4366
 3428SOL     OW11182   3.761   5.904   5.161 -0.0853 -0.2818 -0.3980
 3428SOL    HW111183   3.826   5.840   5.201  0.1552 -0.0136 -0.3525
 3428SOL    HW211184   3.810   5.984   5.126 -0.1354 -1.0122 -2.2838
 3429SOL     OW11185   0.216   2.356   6.514  0.3679 -0.1884  0.6309
 3429SOL    HW111186   0.195   2.448   6.479  1.4022 -0.2221 -0.1412
 3429SOL    HW211187   0.131   2.306   6.529 -0.1778  0.3535 -0.4727
 3430SOL     OW11188   0.117   6.403   0.552  0.0290 -0.0040 -0.0737
 3430SOL    HW111189   0.189   6.464   0.518  0.2337 -0.6309 -0.7780
 3430SOL    HW211190   0.089   6.341   0.479 -1.0023  0.0184  0.2936
 3431SOL     OW11191   2.883   4.268   0.719  0.7140 -0.5141  0.1941
 3431SOL    HW111192   2.968   4.231   0.682  0.5972  0.3266 -0.9819
 3431SOL    HW211193   2.876   4.246   0.816  1.7029 -1.6019  0.0387
 3432SOL     OW11194   3.951   3.282   5.774 -0.5762 -0.3383 -0.4602
 3432SOL    HW111195   3.934   3.264   5.677 -1.1156  0.0565 -0.4490
 3432SOL    HW211196   4.045   3.312   5.786 -0.5640 -0.1893 -0.8958
 3433SOL     OW11197   3.132   0.802   6.320 -0.5259 -0.2615  0.5103
 3433SOL    HW111198   3.092   0.716   6.353 -0.6586  0.3268  1.9495
 3433SOL    HW211199   3.147   0.863   6.398  1.3470  0.2934 -0.2426
 3434SOL     OW11200   3.113   1.242   4.335  0.1259  0.5036 -0.3926
 3434SOL    HW111201   3.141   1.334   4.362 -0.0228  1.0423 -1.9649
 3434SOL    HW211202   3.037   1.211   4.393  0.6364  1.0754  0.5945
 3435SOL     OW11203   6.948   1.084   4.748  0.3718  0.3917  0.1618
 3435SOL    HW111204   7.042   1.054   4.732 -0.0820  0.0634 -2.3692
 3435SOL    HW211205   6.947   1.179   4.776  1.4714  0.2481  0.7221
 3436SOL     OW11206   4.156   6.546   2.119  0.1973  0.2203 -0.4729
 3436SOL    HW111207   4.146   6.621   2.054  0.3367  0.8271  0.1890
 3436SOL    HW211208   4.232   6.566   2.181 -0.8807  0.3954  0.8471
 3437SOL     OW11209   3.429   0.559   0.950 -0.1352 -0.3494 -0.2302
 3437SOL    HW111210   3.355   0.531   0.889 -0.4563 -0.8314  0.3698
 3437SOL    HW211211   3.392   0.578   1.041 -0.0194  2.5398 -0.6999
 3438SOL     OW11212   1.628   6.656   0.318 -0.0228  0.6691  0.5498
 3438SOL    HW111213   1.608   6.752   0.298 -2.2156  0.7951  2.7937
 3438SOL    HW211214   1.576   6.597   0.258  2.4433  0.7438 -1.8502
 3439SOL     OW11215   2.986   0.848   3.524  0.1237  0.1622  0.0261
 3439SOL    HW111216   3.004   0.928   3.468  1.1685 -0.3531 -0.3958
 3439SOL    HW211217   2.924   0.873   3.599 -0.0153  1.2148 -0.4225
 3440SOL     OW11218   4.004   2.656   0.202 -0.1938  0.3669 -0.1084
 3440SOL    HW111219   3.973   2.591   0.132  1.1731  0.2092 -0.5892
 3440SOL    HW211220   4.073   2.612   0.259  0.4676  1.2772 -0.1918
 3441SOL     OW11221   4.883   6.762   5.941  0.1467 -0.3444 -0.1972
 3441SOL    HW111222   4.937   6.730   6.019  0.0707  0.1013  0.0435
 3441SOL    HW211223   4.943   6.774   5.862  0.2815 -0.5030 -0.1198
 3442SOL     OW11224   6.336   5.749   4.210  0.5392 -0.0464 -0.4451
 3442SOL    HW111225   6.410   5.703   4.259 -0.0826 -0.6915 -0.0953
 3442SOL    HW211226   6.315   5.699   4.127  1.2418  0.7625 -1.1380
 3443SOL     OW11227   6.168   6.025   5.905 -0.0666  0.1140 -0.1351
 3443SOL    HW111228   6.133   6.001   5.995 -1.0987  1.4552 -0.1477
 3443SOL    HW211229   6.259   5.986   5.893  0.0089 -0.2429  1.4041
 3444SOL     OW11230   3.314   5.178   6.263 -0.1119  0.0226 -0.5832
 3444SOL    HW111231   3.241   5.228   6.217 -0.0939 -0.7895 -1.5274
 3444SOL    HW211232   3.276   5.124   6.338 -0.2614  0.7194 -0.1511
 3445SOL     OW11233   6.047   4.237   4.790  0.0417 -0.8941  0.0852
 3445SOL    HW111234   6.134   4.279   4.764 -0.2402 -1.1241 -1.3006
 3445SOL    HW211235   6.050   4.139   4.771 -1.0351 -0.6582 -1.4174
 3446SOL     OW11236   2.182   5.747   1.297 -0.2058  0.1565  0.1682
 3446SOL    HW111237   2.090   5.771   1.268 -0.3255  0.3038  0.6603
 3446SOL    HW211238   2.238   5.724   1.217 -0.5008  0.6474 -0.1800
 3447SOL     OW11239   6.346   6.281   4.951  0.4259  0.0284 -0.1408
 3447SOL    HW111240   6.318   6.336   5.029  0.0053  1.0350 -0.9750
 3447SOL    HW211241   6.288   6.200   4.945  1.9403 -1.2888  1.9040
 3448SOL     OW11242   4.074   3.169   0.059 -0.9018  0.2250  0.0942
 3448SOL    HW111243   4.135   3.192   0.134 -0.7661 -0.7900  0.3134
 3448SOL    HW211244   4.047   3.252   0.011 -0.8666  0.8703  1.1613
 3449SOL     OW11245   6.363   4.652   2.528 -0.5371 -0.3135  0.0161
 3449SOL    HW111246   6.398   4.577   2.472 -2.4687 -1.1463 -0.1501
 3449SOL    HW211247   6.272   4.629   2.562 -1.6689  2.3708 -0.8939
 3450SOL     OW11248   0.548   0.929   0.583  0.0084  0.1859 -0.0230
 3450SOL    HW111249   0.453   0.932   0.552  0.1822 -0.1932 -0.6278
 3450SOL    HW211250   0.595   0.854   0.536  0.6937  0.5886  0.0100
 3451SOL     OW11251   1.172   4.872   2.684  0.2653 -0.3128  0.3460
 3451SOL    HW111252   1.125   4.950   2.724  0.3533  0.0188 -0.1967
 3451SOL    HW211253   1.261   4.859   2.729 -0.5435 -1.2769  1.7607
 3452SOL     OW11254   7.011   0.810   6.560  0.1343 -0.3885  0.5093
 3452SOL    HW111255   6.942   0.813   6.632  1.2871  0.2849  1.6289
 3452SOL    HW211256   7.020   0.900   6.518 -0.6503 -0.8184 -0.6201
 3453SOL     OW11257   6.692   6.454   4.732 -0.0580  0.0762  0.2268
 3453SOL    HW111258   6.607   6.507   4.725 -0.5167 -0.6198  0.4440
 3453SOL    HW211259   6.677   6.375   4.791  0.5782 -0.3772 -0.2024
 3454SOL     OW11260   6.388   0.788   0.740  0.0292  0.4353 -0.3526
 3454SOL    HW111261   6.401   0.817   0.835  0.6712  1.3527 -0.7100
 3454SOL    HW211262   6.350   0.695   0.739 -1.4683  1.0047  0.8005
 3455SOL     OW11263   0.477   1.036   2.152  0.2971  0.4529  0.8665
 3455SOL    HW111264   0.380   1.037   2.175  0.5844  1.5610  2.1338
 3455SOL    HW211265   0.495   1.107   2.084  0.2562  0.3610  0.7589
 3456SOL     OW11266   5.736   0.905   2.794  0.3003  0.0826  0.0826
 3456SOL    HW111267   5.664   0.960   2.837 -0.5130 -0.6277 -0.3286
 3456SOL    HW211268   5.724   0.906   2.695  1.6204  0.9635 -0.0906
 3457SOL     OW11269   1.880   6.228   3.347 -0.2393  0.4050  0.1891
 3457SOL    HW111270   1.964   6.197   3.302 -1.2377 -1.6337 -0.4059
 3457SOL    HW211271   1.803   6.219   3.284 -1.1493  0.8191  1.2068
 3458SOL     OW11272   6.873   5.436   6.294 -0.1902 -0.2295  0.1919
 3458SOL    HW111273   6.924   5.368   6.240 -0.3085 -1.0934  1.1376
 3458SOL    HW211274   6.891   5.527   6.258  1.0817 -0.6289 -0.2421
 3459SOL     OW11275   6.169   6.675   2.558 -0.6049  0.2597  0.2274
 3459SOL    HW111276   6.098   6.604   2.556 -0.1877 -0.1701 -2.1705
 3459SOL    HW211277   6.138   6.755   2.507  0.6538  0.0274 -0.9417
 3460SOL     OW11278   5.507   2.712   1.120 -0.0279  0.2283  0.7655
 3460SOL    HW111279   5.440   2.746   1.186  0.1900  0.1852  1.0116
 3460SOL    HW211280   5.552   2.631   1.157  0.8414  0.8193  1.0072
 3461SOL     OW11281   0.884   6.284   2.962 -0.4429 -0.5654  0.5652
 3461SOL    HW111282   0.955   6.341   2.921 -1.0124  0.7087  1.2600
 3461SOL    HW211283   0.925   6.204   3.004  0.7439  0.7053  1.9348
 3462SOL     OW11284   4.775   4.080   3.923  0.2910 -0.2727 -0.3205
 3462SOL    HW111285   4.715   4.145   3.876  0.8807 -0.5909 -1.5709
 3462SOL    HW211286   4.767   4.092   4.022 -1.2748  0.1815 -0.4712
 3463SOL     OW11287   0.352   3.694   1.157 -0.0598  0.1110 -0.1527
 3463SOL    HW111288   0.418   3.700   1.232 -0.4807  1.3393  0.1408
 3463SOL    HW211289   0.264   3.729   1.187 -0.6451 -0.7528 -0.7954
 3464SOL     OW11290   5.713   0.515   5.773 -0.1035  0.5119  0.4472
 3464SOL    HW111291   5.773   0.488   5.848 -0.5817  1.3793  1.1723
 3464SOL    HW211292   5.617   0.510   5.802 -0.2470  2.2203  0.4091
 3465SOL     OW11293   2.324   4.191   3.118  0.1810 -0.4586 -0.0739
 3465SOL    HW111294   2.347   4.280   3.157 -0.4205 -0.5170  0.4173
 3465SOL    HW211295   2.324   4.198   3.018  1.4877 -0.2519 -0.0841
 3466SOL     OW11296   6.139   3.021   5.627 -1.1314  0.2553 -0.6173
 3466SOL    HW111297   6.237   3.004   5.636 -0.5715  3.5313  0.4994
 3466SOL    HW211298   6.110   2.998   5.535  0.7742 -0.3439 -1.1129
 3467SOL     OW11299   3.453   3.409   5.948 -0.1137 -0.3744 -0.5435
 3467SOL    HW111300   3.487   3.452   6.032 -2.2977  2.4484 -0.9622
 3467SOL    HW211301   3.529   3.392   5.886  1.3495 -1.0936  1.3323
 3468SOL     OW11302   6.054   0.854   1.777 -0.0118  0.2518 -0.4953
 3468SOL    HW111303   5.976   0.809   1.822  1.3151  0.2934  2.0619
 3468SOL    HW211304   6.030   0.949   1.756 -0.4909  0.4647  0.8787
 3469SOL     OW11305   2.915   5.707   6.298  0.1245  0.7234 -0.3134
 3469SOL    HW111306   2.923   5.806   6.289  2.1851  0.5231 -1.4840
 3469SOL    HW211307   2.983   5.663   6.238  0.0304 -1.3720  1.0114
 3470SOL     OW11308   1.635   2.458   1.124 -0.2517  0.5261  0.7010
 3470SOL    HW111309   1.646   2.493   1.031 -2.9261  1.1967  0.5396
 3470SOL    HW211310   1.668   2.364   1.128  1.5822  1.0654 -0.4123
 3471SOL     OW11311   5.986   3.333   6.430  0.0358  0.0466 -0.2167
 3471SOL    HW111312   5.918   3.297   6.366  0.0132  0.7908 -0.6181
 3471SOL    HW211313   6.045   3.398   6.383  2.9236 -2.7018 -0.6570
 3472SOL     OW11314   4.813   3.300   0.922  0.2365 -0.0944 -0.3385
 3472SOL    HW111315   4.749   3.263   0.990  1.3836 -1.4214  0.0795
 3472SOL    HW211316   4.789   3.264   0.831  0.8250 -1.2280 -0.0639
 3473SOL     OW11317   5.705   3.759   1.498 -0.1838  0.4533  0.1651
 3473SOL    HW111318   5.774   3.701   1.453  0.4031  1.2920 -0.0462
 3473SOL    HW211319   5.737   3.854   1.498 -0.0191  0.4548  2.6535
 3474SOL     OW11320   4.983   4.914   4.914 -0.6871 -0.5246  0.1664
 3474SOL    HW111321   4.931   4.864   4.984 -1.0718 -0.0691  0.2083
 3474SOL    HW211322   4.963   5.011   4.920  0.2323 -0.3298  0.2247
 3475SOL     OW11323   6.646   2.740   2.865 -0.3093 -0.6689 -0.4097
 3475SOL    HW111324   6.673   2.761   2.959  0.4369 -1.3933 -0.4475
 3475SOL    HW211325   6.570   2.675   2.865 -1.5335  0.6973 -0.3117
 3476SOL     OW11326   1.700   1.438   6.549  0.8904 -0.1007  0.1990
 3476SOL    HW111327   1.658   1.408   6.464 -1.0804  0.0211  1.0838
 3476SOL    HW211328   1.762   1.514   6.530  0.2567  0.1189 -1.0998
 3477SOL     OW11329   1.978   3.823   0.927 -0.1168  0.8402  0.2312
 3477SOL    HW111330   1.960   3.726   0.911 -0.1563  0.6459  1.3696
 3477SOL    HW211331   1.902   3.877   0.890 -1.1917  0.2781  1.5428
 3478SOL     OW11332   3.457   1.367   1.841 -0.0733 -0.5772 -0.1314
 3478SOL    HW111333   3.400   1.328   1.915 -1.5029  0.9220 -0.3859
 3478SOL    HW211334   3.541   1.405   1.881  0.6360 -2.4810  0.3043
 3479SOL     OW11335   0.233   3.921   3.732  0.0716  0.3284 -0.3051
 3479SOL    HW111336   0.304   3.973   3.685  0.4346  0.6595  0.5974
 3479SOL    HW211337   0.206   3.968   3.815 -2.3403  1.0239 -1.3836
 3480SOL     OW11338   6.106   4.025   1.381  0.3577  0.3102  0.0265
 3480SOL    HW111339   6.141   4.079   1.304 -1.7412  2.0182  0.1549
 3480SOL    HW211340   6.143   4.062   1.466  1.6043 -0.7106 -0.0384
 3481SOL     OW11341   5.168   3.051   4.673  0.1728  0.1541 -0.3510
 3481SOL    HW111342   5.124   3.106   4.602 -0.5128 -0.3285 -0.3121
 3481SOL    HW211343   5.161   2.954   4.649 -0.6833 -0.0632  0.7066
 3482SOL     OW11344   6.030   1.738   6.527  0.1021 -0.3543  0.4925
 3482SOL    HW111345   6.004   1.783   6.613 -0.9828 -0.6613  0.3482
 3482SOL    HW211346   5.963   1.761   6.457  1.7354  1.0461 -0.6928
 3483SOL     OW11347   4.600   1.795   3.879  0.8425  0.0567  0.3705
 3483SOL    HW111348   4.690   1.780   3.840  0.4011  2.2273 -1.6634
 3483SOL    HW211349   4.530   1.766   3.814  0.0637  0.2636  1.0962
 3484SOL     OW11350   1.025   3.506   3.614  0.5497  0.0205 -0.5089
 3484SOL    HW111351   0.986   3.459   3.535  1.5210 -1.4378 -0.1771
 3484SOL    HW211352   0.961   3.575   3.648 -2.4931 -3.1630  0.8936
 3485SOL     OW11353   6.313   4.781   0.534  0.1311 -0.2348  0.1630
 3485SOL    HW111354   6.321   4.872   0.492 -0.9004 -0.6577 -1.0087
 3485SOL    HW211355   6.224   4.742   0.511  0.1628 -1.1532  1.4804
 3486SOL     OW11356   0.556   6.540   5.214 -0.0712  0.7665  0.4372
 3486SOL    HW111357   0.554   6.449   5.254 -0.2071  0.3824 -0.4325
 3486SOL    HW211358   0.488   6.598   5.259 -2.0586 -0.3803 -0.9105
 3487SOL     OW11359   4.985   0.948   0.444 -0.8346  0.8796  0.4987
 3487SOL    HW111360   4.972   0.855   0.477 -0.4783  0.5757 -0.2090
 3487SOL    HW211361   4.910   1.006   0.477 -1.2759  0.2518  0.6060
 3488SOL     OW11362   5.503   5.473   5.269 -0.1619  0.5883 -0.1644
 3488SOL    HW111363   5.551   5.550   5.312  0.4687  0.5685 -0.8221
 3488SOL    HW211364   5.404   5.486   5.279 -0.0594  1.4465 -0.1877
 3489SOL     OW11365   3.603   0.629   3.323 -0.0789 -0.1154  0.7745
 3489SOL    HW111366   3.627   0.608   3.228  0.7724 -0.1921  0.9974
 3489SOL    HW211367   3.686   0.630   3.379 -0.4618  0.8100  1.3562
 3490SOL     OW11368   5.578   0.961   1.160 -0.3890 -0.1287  0.2099
 3490SOL    HW111369   5.640   0.936   1.086  1.0270  0.3914  1.1734
 3490SOL    HW211370   5.528   0.881   1.192 -1.6280 -0.2185 -1.8109
 3491SOL     OW11371   4.170   4.955   4.728 -0.2538 -0.4940  0.2471
 3491SOL    HW111372   4.172   5.051   4.754  1.6571 -0.2451 -0.6417
 3491SOL    HW211373   4.229   4.902   4.789 -1.3232 -1.1356  0.7550
 3492SOL     OW11374   6.475   3.680   2.898  0.5369  0.5711  0.1147
 3492SOL    HW111375   6.479   3.698   2.800 -0.0182 -0.0105 -0.0256
 3492SOL    HW211376   6.449   3.585   2.913  1.2622  0.4737  0.8288
 3493SOL     OW11377   0.168   4.426   1.270  0.0328  0.2382 -0.0416
 3493SOL    HW111378   0.248   4.399   1.216  0.0485 -1.4733  0.7576
 3493SOL    HW211379   0.148   4.354   1.337 -0.5687  1.8474  1.5727
 3494SOL     OW11380   4.435   6.895   4.782  0.2111  0.2561  0.7262
 3494SOL    HW111381   4.375   6.840   4.840 -1.5996  2.7330  1.3583
 3494SOL    HW211382   4.381   6.932   4.706  1.4195  0.9954  0.2166
 3495SOL     OW11383   1.819   3.117   5.141  0.0445  0.1315  0.2835
 3495SOL    HW111384   1.887   3.181   5.106 -0.0141  0.1922  0.2806
 3495SOL    HW211385   1.842   3.024   5.112 -1.1103  0.4100 -1.6573
 3496SOL     OW11386   0.598   5.963   0.244 -0.0233 -0.5079  0.3210
 3496SOL    HW111387   0.681   5.996   0.289  0.4380 -1.5233  0.2469
 3496SOL    HW211388   0.582   6.015   0.160  0.2065  0.0872  0.6472
 3497SOL     OW11389   2.186   6.768   1.489  0.4257 -0.3034 -0.0540
 3497SOL    HW111390   2.284   6.768   1.506  0.4890 -1.2814 -0.3265
 3497SOL    HW211391   2.136   6.751   1.574  0.5578 -1.1104 -0.1314
 3498SOL     OW11392   2.100   1.680   0.507  0.1433  1.0204  0.8549
 3498SOL    HW111393   2.019   1.687   0.449 -0.0429 -2.4038  0.4768
 3498SOL    HW211394   2.182   1.687   0.450 -0.0369 -2.8511 -0.1847
 3499SOL     OW11395   4.970   5.903   4.767  0.5487  0.6792  0.0381
 3499SOL    HW111396   4.964   5.809   4.801 -0.6381  0.6128 -0.2799
 3499SOL    HW211397   5.065   5.930   4.759  0.8963 -0.2570  0.7912
 3500SOL     OW11398   2.879   1.105   4.528 -0.2151  0.2231  0.4410
 3500SOL    HW111399   2.810   1.106   4.600 -0.8296 -2.0978 -0.0317
 3500SOL    HW211400   2.847   1.049   4.451  1.8542 -0.2549 -0.1383
 3501SOL     OW11401   3.074   0.199   6.687  0.0221 -0.2675 -0.7921
 3501SOL    HW111402   3.030   0.138   6.621 -1.4825  0.2699 -0.3345
 3501SOL    HW211403   3.055   0.166   6.780 -0.0469  0.3986 -0.5641
 3502SOL     OW11404   4.876   1.734   4.101  0.2168  0.0931 -0.0345
 3502SOL    HW111405   4.832   1.822   4.120 -0.8736 -0.6122  0.8357
 3502SOL    HW211406   4.873   1.716   4.003  1.4632  1.5230 -0.3772
 3503SOL     OW11407   0.053   5.126   5.601 -0.1407  0.1273 -0.0747
 3503SOL    HW111408   0.073   5.206   5.658 -2.6549  2.7024 -2.4424
 3503SOL    HW211409   0.114   5.125   5.523 -1.8793  1.5497 -1.5428
 3504SOL     OW11410   1.886   1.682   5.005 -0.1308 -0.2386  0.3798
 3504SOL    HW111411   1.868   1.688   5.104 -0.0809 -0.5234  0.4052
 3504SOL    HW211412   1.845   1.599   4.968  0.7718 -0.6947  0.3675
 3505SOL     OW11413   4.872   2.759   4.059  0.3169 -0.0232 -0.3983
 3505SOL    HW111414   4.909   2.671   4.029 -0.9564 -1.0743  0.9663
 3505SOL    HW211415   4.899   2.830   3.995  1.7254 -1.3287 -1.3164
 3506SOL     OW11416   5.869   5.757   5.855 -0.1803  1.1200  0.3358
 3506SOL    HW111417   5.797   5.802   5.802 -0.7518 -0.8397 -0.6655
 3506SOL    HW211418   5.909   5.684   5.800 -0.2008 -0.4565  2.3067
 3507SOL     OW11419   2.630   0.607   1.547 -0.1423  0.4051 -0.3636
 3507SOL    HW111420   2.586   0.604   1.636 -0.3222 -0.3278 -0.4681
 3507SOL    HW211421   2.711   0.666   1.551 -0.0212  0.1969  0.3362
 3508SOL     OW11422   0.220   1.185   6.398  0.0900  0.4765 -0.4180
 3508SOL    HW111423   0.197   1.179   6.301 -0.3190 -0.5228 -0.2691
 3508SOL    HW211424   0.307   1.233   6.409  0.3755  0.1792 -1.3075
 3509SOL     OW11425   4.854   5.429   1.625  0.2754  0.3526 -0.4365
 3509SOL    HW111426   4.930   5.495   1.628 -1.4081  2.3596 -0.0535
 3509SOL    HW211427   4.874   5.354   1.688  1.3652  1.5122  0.6725
 3510SOL     OW11428   1.008   0.208   0.381  0.4458  0.5740 -0.0992
 3510SOL    HW111429   1.099   0.250   0.379 -0.1042  1.7736 -0.8253
 3510SOL    HW211430   0.938   0.279   0.383 -0.5383 -0.2735 -1.7901
 3511SOL     OW11431   2.756   5.636   2.706 -0.6463  0.0022 -0.2934
 3511SOL    HW111432   2.799   5.551   2.736 -1.7975 -0.3477  0.4464
 3511SOL    HW211433   2.659   5.619   2.687 -0.7518  1.0232 -0.7406
 3512SOL     OW11434   4.412   6.380   1.120 -0.1227  0.0288 -1.1591
 3512SOL    HW111435   4.481   6.386   1.192 -0.0196 -1.3587 -1.1040
 3512SOL    HW211436   4.372   6.470   1.104  0.7950  0.6103 -0.3026
 3513SOL     OW11437   3.770   1.260   6.098  0.5782  0.2596  0.3816
 3513SOL    HW111438   3.745   1.166   6.124 -0.6688  0.9135  1.7228
 3513SOL    HW211439   3.853   1.258   6.043  1.4159 -1.5210  1.6017
 3514SOL     OW11440   5.448   2.545   2.049  0.2173 -0.5127  0.0880
 3514SOL    HW111441   5.397   2.506   1.972 -0.6422 -0.8074  0.7804
 3514SOL    HW211442   5.394   2.535   2.133 -0.0809  2.2079  0.3203
 3515SOL     OW11443   6.913   4.811   2.757  0.1406  0.0097 -0.2878
 3515SOL    HW111444   6.970   4.765   2.689  1.2529  1.1428 -0.1437
 3515SOL    HW211445   6.935   4.908   2.759 -1.4302  0.3804  0.1568
 3516SOL     OW11446   4.541   1.265   1.058 -0.7044  0.3704  0.3405
 3516SOL    HW111447   4.455   1.255   1.108 -1.5498 -1.0370 -1.2873
 3516SOL    HW211448   4.557   1.183   1.003  0.3904  1.6638 -1.3501
 3517SOL     OW11449   5.898   6.559   3.651 -0.2302  0.9843 -0.2321
 3517SOL    HW111450   5.801   6.585   3.646 -0.7390 -0.8797 -1.2634
 3517SOL    HW211451   5.939   6.599   3.732 -2.8081 -0.9912  2.2684
 3518SOL     OW11452   6.135   2.000   5.970 -0.7567  0.9248 -1.0086
 3518SOL    HW111453   6.080   2.043   5.899 -0.7393 -1.3166 -2.4997
 3518SOL    HW211454   6.215   1.956   5.927  0.1495  0.8935  0.6330
 3519SOL     OW11455   4.258   0.494   3.072 -0.7157 -0.6362 -0.1625
 3519SOL    HW111456   4.185   0.441   3.028 -0.4401 -0.7739 -0.4608
 3519SOL    HW211457   4.219   0.554   3.141 -1.1503 -0.4493 -0.5672
 3520SOL     OW11458   2.230   6.750   4.014 -0.1117 -0.1671 -0.3612
 3520SOL    HW111459   2.201   6.750   3.919  1.6145  2.4340 -0.9877
 3520SOL    HW211460   2.189   6.827   4.062  2.6883  1.4443 -0.3440
 3521SOL     OW11461   2.574   2.590   5.724 -0.4883  0.4822 -0.6527
 3521SOL    HW111462   2.648   2.591   5.790  0.4950 -0.9896 -1.6675
 3521SOL    HW211463   2.498   2.646   5.757  1.1457  2.2387  0.2954
 3522SOL     OW11464   1.211   6.118   0.146 -0.1228  0.3474  0.2608
 3522SOL    HW111465   1.149   6.186   0.107 -0.1019  0.5994  0.6623
 3522SOL    HW211466   1.179   6.091   0.236 -0.2258 -0.3091  0.0309
 3523SOL     OW11467   5.451   4.229   0.292 -0.3177 -0.0274 -0.1691
 3523SOL    HW111468   5.519   4.155   0.293 -1.4653 -1.1622 -1.2068
 3523SOL    HW211469   5.489   4.308   0.244  0.8874  0.0246  0.8339
 3524SOL     OW11470   4.509   2.162   4.862 -0.3476 -0.0946 -0.0412
 3524SOL    HW111471   4.458   2.091   4.814 -1.5994  0.7144  0.0555
 3524SOL    HW211472   4.468   2.251   4.844  0.5616  0.4934  0.6771
 3525SOL     OW11473   0.501   3.254   3.330  0.3883 -0.0032 -0.1095
 3525SOL    HW111474   0.443   3.173   3.326  1.0051 -0.4150 -2.8489
 3525SOL    HW211475   0.444   3.336   3.333 -0.2930 -0.4782  0.0490
 3526SOL     OW11476   0.097   6.283   1.129  0.4279  0.4944  0.2174
 3526SOL    HW111477   0.099   6.289   1.229  1.5551 -1.1196  0.3307
 3526SOL    HW211478   0.190   6.287   1.094  0.0815  0.3565 -0.7307
 3527SOL     OW11479   0.540   4.691   6.309 -0.1579 -0.1619 -0.1300
 3527SOL    HW111480   0.501   4.698   6.401 -1.3577 -0.8411 -0.5710
 3527SOL    HW211481   0.518   4.774   6.258 -0.4061 -0.2351 -0.1438
 3528SOL     OW11482   3.135   4.114   5.786  0.1020  0.2530  0.5775
 3528SOL    HW111483   3.117   4.094   5.690  2.5581 -2.1013  0.4765
 3528SOL    HW211484   3.142   4.213   5.800  0.3780  0.6182 -1.8251
 3529SOL     OW11485   4.293   4.822   0.477  0.1620  0.1130  0.0219
 3529SOL    HW111486   4.241   4.871   0.547 -0.9053 -0.5331 -0.2932
 3529SOL    HW211487   4.358   4.885   0.435  0.8387  0.4995  1.5907
 3530SOL     OW11488   5.647   6.939   0.695  0.3556  0.0579  0.6235
 3530SOL    HW111489   5.633   6.916   0.599  0.9570  0.6866  0.3849
 3530SOL    HW211490   5.569   6.904   0.749  0.1477 -0.5295 -0.0406
 3531SOL     OW11491   4.422   2.844   6.835 -0.3020  0.5938 -0.4801
 3531SOL    HW111492   4.365   2.778   6.787  0.4416 -1.2784  1.0782
 3531SOL    HW211493   4.409   2.834   6.934 -1.5475  4.0818 -0.1436
 3532SOL     OW11494   1.316   0.626   2.072 -0.0713 -0.2071 -0.0718
 3532SOL    HW111495   1.298   0.648   2.168  1.0048  1.0311 -0.1304
 3532SOL    HW211496   1.235   0.648   2.018 -0.8204 -1.2502  0.5738
 3533SOL     OW11497   1.902   2.648   4.085 -0.4212  0.3968 -0.3117
 3533SOL    HW111498   1.841   2.628   4.162  0.4413  2.8982  1.1690
 3533SOL    HW211499   1.983   2.590   4.089 -1.4575 -1.1315 -0.7741
 3534SOL     OW11500   1.386   1.717   1.455  0.1130 -0.0366  0.1620
 3534SOL    HW111501   1.434   1.777   1.391 -0.8411 -1.4506 -2.0147
 3534SOL    HW211502   1.291   1.706   1.426 -0.2015 -1.2224  1.5022
 3535SOL     OW11503   5.394   0.349   3.085  0.6739 -0.0956  1.1044
 3535SOL    HW111504   5.408   0.274   3.020  0.2562  0.3608  0.4777
 3535SOL    HW211505   5.450   0.427   3.058  0.0680  0.2955  0.9564
 3536SOL     OW11506   4.461   6.919   3.929 -0.0422 -0.1954  0.6223
 3536SOL    HW111507   4.480   6.877   3.840 -0.9010  0.9906 -0.1631
 3536SOL    HW211508   4.520   6.879   3.998  1.8920  0.0536 -0.8025
 3537SOL     OW11509   2.512   0.574   3.209  0.1071  0.1266  0.3226
 3537SOL    HW111510   2.414   0.556   3.218  0.2227 -1.7307 -1.4366
 3537SOL    HW211511   2.528   0.672   3.212 -1.9544  0.5377 -0.5517
 3538SOL     OW11512   3.011   6.187   1.382 -0.2853 -0.5199  0.2686
 3538SOL    HW111513   3.046   6.216   1.472 -1.0780  0.4491  0.2879
 3538SOL    HW211514   2.977   6.093   1.388 -1.5855 -0.0162  1.3728
 3539SOL     OW11515   3.572   3.323   3.721  0.0047  0.1577  0.5795
 3539SOL    HW111516   3.662   3.322   3.678 -1.0029 -1.9761 -1.8150
 3539SOL    HW211517   3.518   3.398   3.683 -0.2334 -0.5178 -0.4540
 3540SOL     OW11518   1.491   2.155   3.663  0.1572  0.0244 -0.1684
 3540SOL    HW111519   1.491   2.135   3.565 -1.2616 -3.0856  0.3768
 3540SOL    HW211520   1.427   2.230   3.681 -0.1435  0.1245 -1.5115
 3541SOL     OW11521   3.586   3.519   6.187  0.6537 -0.1665 -0.0969
 3541SOL    HW111522   3.667   3.519   6.245  0.2709  0.8211  0.4581
 3541SOL    HW211523   3.547   3.611   6.182 -1.0442 -0.7989  0.5239
 3542SOL     OW11524   4.694   5.945   0.750 -0.3925 -0.4675 -0.8489
 3542SOL    HW111525   4.769   5.886   0.781 -0.1475  0.1844 -0.1509
 3542SOL    HW211526   4.728   6.039   0.742 -1.3146 -0.0184  0.2312
 3543SOL     OW11527   5.804   0.510   5.340 -0.2707 -0.1630 -0.4188
 3543SOL    HW111528   5.707   0.527   5.357 -0.0328  0.8095  0.0185
 3543SOL    HW211529   5.834   0.562   5.261 -0.0024 -0.0978 -0.2767
 3544SOL     OW11530   3.715   0.214   5.763 -0.0310 -0.2537  0.0418
 3544SOL    HW111531   3.793   0.163   5.727 -0.2893 -1.1099  0.6641
 3544SOL    HW211532   3.747   0.290   5.818  0.3644 -0.2002 -0.2620
 3545SOL     OW11533   1.568   4.493   0.612  0.2136 -0.4141  0.0667
 3545SOL    HW111534   1.534   4.536   0.696 -1.7927 -2.1449  0.2185
 3545SOL    HW211535   1.508   4.516   0.536  2.1088  1.2686 -0.9992
 3546SOL     OW11536   1.505   3.970   1.549 -0.3082  0.8073 -0.7846
 3546SOL    HW111537   1.583   4.017   1.508 -1.8752  2.5203 -1.9233
 3546SOL    HW211538   1.463   4.028   1.618 -1.3017  0.4332 -1.0573
 3547SOL     OW11539   4.932   6.004   5.035  0.3065  0.2367 -0.7924
 3547SOL    HW111540   4.889   5.953   4.961 -0.0847 -1.2781  0.4291
 3547SOL    HW211541   4.899   6.099   5.033 -2.1731 -0.5306 -0.6863
 3548SOL     OW11542   5.929   3.211   4.849 -0.0348 -0.1008 -0.3816
 3548SOL    HW111543   5.887   3.123   4.874 -0.4594  0.4179  0.8064
 3548SOL    HW211544   6.026   3.210   4.875  0.0174 -0.2950 -0.5777
 3549SOL     OW11545   5.662   2.796   2.655 -0.4926  0.7148 -0.3965
 3549SOL    HW111546   5.597   2.776   2.582 -1.1353  0.2857  0.2841
 3549SOL    HW211547   5.635   2.747   2.739  0.0055  1.5182  0.2462
 3550SOL     OW11548   5.356   1.265   4.402 -0.1034  0.3707  0.8820
 3550SOL    HW111549   5.300   1.185   4.424 -0.8600  0.5724 -0.2312
 3550SOL    HW211550   5.325   1.305   4.316  1.2649  0.9580  0.6326
 3551SOL     OW11551   1.988   0.303   2.716  0.3785 -0.2474  0.0826
 3551SOL    HW111552   1.915   0.366   2.689  2.0577  0.8437 -2.2325
 3551SOL    HW211553   2.004   0.238   2.641  0.6309 -1.6258  1.2890
 3552SOL     OW11554   6.311   5.082   2.249  0.0569 -0.1608 -0.2439
 3552SOL    HW111555   6.357   5.160   2.293 -0.8302 -0.2442  0.8662
 3552SOL    HW211556   6.306   5.098   2.150 -2.6506  2.6303  0.1848
 3553SOL     OW11557   0.065   1.729   4.502  0.2245 -0.3667 -0.1894
 3553SOL    HW111558   0.064   1.678   4.588 -0.3044  1.7839  1.1614
 3553SOL    HW211559   0.158   1.756   4.479  0.1692  0.7591  0.8223
 3554SOL     OW11560   2.881   5.167   5.891  0.5630  0.8046  0.4140
 3554SOL    HW111561   2.909   5.123   5.805 -1.2076  0.6032 -0.1036
 3554SOL    HW211562   2.854   5.097   5.957  0.8710  1.0017  0.7505
 3555SOL     OW11563   0.505   2.796   2.735 -0.4929 -0.2506  0.2141
 3555SOL    HW111564   0.512   2.731   2.810 -0.1264 -1.3505 -0.7321
 3555SOL    HW211565   0.452   2.876   2.764  0.1460 -0.3748  1.7994
 3556SOL     OW11566   4.246   1.573   6.934  0.2006 -0.1059  0.1389
 3556SOL    HW111567   4.234   1.641   6.862  1.0922 -0.9861 -0.8740
 3556SOL    HW211568   4.224   1.614   7.023 -0.3461  1.1679 -0.5626
 3557SOL     OW11569   0.689   2.428   2.715 -0.3648 -0.9856 -0.0079
 3557SOL    HW111570   0.764   2.434   2.781 -0.7134  1.6402  0.2580
 3557SOL    HW211571   0.602   2.421   2.765 -0.4493 -1.9158 -0.2735
 3558SOL     OW11572   6.571   6.715   2.776  0.2870  0.0594  0.6097
 3558SOL    HW111573   6.547   6.641   2.713  0.4563 -0.1657  0.8060
 3558SOL    HW211574   6.670   6.715   2.791  0.1058 -0.8029  1.9760
 3559SOL     OW11575   2.231   6.182   5.377 -0.3346 -0.0162  0.5435
 3559SOL    HW111576   2.228   6.127   5.294  2.3300  0.1252  0.2716
 3559SOL    HW211577   2.212   6.124   5.456 -0.3087 -0.7196  0.0397
 3560SOL     OW11578   0.246   0.677   1.574 -0.3359 -0.3329 -0.0194
 3560SOL    HW111579   0.279   0.766   1.542 -1.0777  0.9666  2.4923
 3560SOL    HW211580   0.151   0.686   1.605 -0.0499 -1.6749  1.3773
 3561SOL     OW11581   5.181   4.698   4.658  0.1547 -0.0576  0.9142
 3561SOL    HW111582   5.116   4.640   4.706 -1.3309  1.1164  0.3885
 3561SOL    HW211583   5.232   4.753   4.723  1.2525 -1.5651  1.3872
 3562SOL     OW11584   4.095   0.541   2.143  0.3627 -0.3126  0.0556
 3562SOL    HW111585   4.084   0.640   2.144  0.9664 -0.2239 -0.9856
 3562SOL    HW211586   4.022   0.499   2.197  1.2287  0.7858  2.2102
 3563SOL     OW11587   5.196   4.925   6.358  0.1090  0.0640 -0.4583
 3563SOL    HW111588   5.245   4.968   6.434 -1.3634 -0.2514  0.7253
 3563SOL    HW211589   5.184   4.991   6.284 -0.0618  0.9728  0.3562
 3564SOL     OW11590   7.006   4.955   0.102  0.1862 -0.1058 -0.4044
 3564SOL    HW111591   7.003   5.047   0.064  0.7790 -0.6199 -1.7460
 3564SOL    HW211592   7.083   4.904   0.063  0.7212 -0.7395  1.3590
 3565SOL     OW11593   6.839   0.574   5.346 -0.2808  0.2873 -0.3654
 3565SOL    HW111594   6.828   0.600   5.250 -0.1801  3.0388  0.2893
 3565SOL    HW211595   6.929   0.603   5.379  0.0512 -1.4508  0.3573
 3566SOL     OW11596   0.453   6.187   5.265 -0.1212  0.1961  0.0051
 3566SOL    HW111597   0.404   6.103   5.290  2.4447 -0.6836  2.5991
 3566SOL    HW211598   0.546   6.163   5.237  0.1221  2.0974 -0.9355
 3567SOL     OW11599   4.405   0.891   1.779  0.1476  0.1778  0.0157
 3567SOL    HW111600   4.405   0.894   1.679  0.1939  1.2703  0.0305
 3567SOL    HW211601   4.484   0.942   1.813 -1.0424  1.7197  0.6144
 3568SOL     OW11602   5.737   3.957   3.841 -0.0522 -0.4496 -0.0699
 3568SOL    HW111603   5.660   4.018   3.819  0.1859  0.1170  0.6309
 3568SOL    HW211604   5.802   4.006   3.900  0.3889 -1.2225  0.0886
 3569SOL     OW11605   3.910   3.715   5.231  0.1150 -0.0551 -0.3458
 3569SOL    HW111606   3.818   3.747   5.213  0.2964  0.1949 -0.8243
 3569SOL    HW211607   3.977   3.783   5.201  0.4335  0.4433  1.3392
 3570SOL     OW11608   1.723   2.325   5.079  0.3204 -0.7975  0.0866
 3570SOL    HW111609   1.757   2.237   5.048  0.5348 -0.0534 -1.9821
 3570SOL    HW211610   1.652   2.358   5.016 -1.8143 -0.7258  2.3656
 3571SOL     OW11611   1.337   1.244   4.893 -0.2415 -0.0182  0.0916
 3571SOL    HW111612   1.257   1.219   4.839 -0.1741 -1.9084  0.7856
 3571SOL    HW211613   1.416   1.190   4.864  0.7011  1.4718 -0.2558
 3572SOL     OW11614   6.582   4.758   2.661  0.0414 -0.0294  0.0795
 3572SOL    HW111615   6.511   4.731   2.596  1.3174 -0.9586 -0.9653
 3572SOL    HW211616   6.576   4.856   2.677 -0.3265  0.2255 -1.4361
 3573SOL     OW11617   6.857   3.271   1.465 -0.5417 -0.2208 -0.9343
 3573SOL    HW111618   6.928   3.212   1.426 -0.4026  0.0087 -1.0286
 3573SOL    HW211619   6.879   3.367   1.446 -1.5148 -0.2010 -2.0708
 3574SOL     OW11620   1.091   0.877   5.473 -0.4937 -0.4527  0.0674
 3574SOL    HW111621   1.086   0.932   5.556 -1.2713  0.8703 -0.8193
 3574SOL    HW211622   1.185   0.844   5.461  0.3392  1.8300 -0.0738
 3575SOL     OW11623   4.455   5.950   0.029 -0.1282 -0.4648 -0.1866
 3575SOL    HW111624   4.420   6.035  -0.011  2.3801  0.5892 -0.3039
 3575SOL    HW211625   4.388   5.914   0.094 -2.6269 -0.1406 -2.4005
 3576SOL     OW11626   1.874   3.241   0.436 -0.3659  0.0558 -0.0317
 3576SOL    HW111627   1.797   3.290   0.394 -0.1717 -0.9013 -1.5745
 3576SOL    HW211628   1.939   3.308   0.474 -0.8798  0.9512 -0.6774
 3577SOL     OW11629   1.312   4.516   4.876 -0.2792  0.3059  0.2368
 3577SOL    HW111630   1.238   4.580   4.857 -0.9249 -0.0431  1.4840
 3577SOL    HW211631   1.353   4.486   4.789 -3.8427 -2.1370 -0.8692
 3578SOL     OW11632   4.854   2.076   0.360  0.3339 -0.4459  0.0718
 3578SOL    HW111633   4.778   2.012   0.377  0.4166 -0.4925  0.2720
 3578SOL    HW211634   4.923   2.064   0.432 -1.2725  2.3425  2.3020
 3579SOL     OW11635   1.530   3.021   2.295 -0.1068  0.5051 -0.2143
 3579SOL    HW111636   1.467   2.949   2.266 -3.0024  3.3982 -1.7808
 3579SOL    HW211637   1.584   3.051   2.216  0.8800  0.2745  0.3588
 3580SOL     OW11638   6.724   2.151   2.143 -0.3805  0.4707 -0.4401
 3580SOL    HW111639   6.676   2.200   2.071 -0.6958  0.3198 -0.3338
 3580SOL    HW211640   6.768   2.216   2.205  0.3903  0.5984 -1.0957
 3581SOL     OW11641   0.774   0.225   2.791  0.6324  0.1361 -0.2531
 3581SOL    HW111642   0.680   0.226   2.826  0.9727 -0.5610  0.7127
 3581SOL    HW211643   0.811   0.318   2.791  0.0429  0.3759 -0.3799
 3582SOL     OW11644   1.320   0.004   5.483  0.1000 -0.6267 -0.2457
 3582SOL    HW111645   1.287   0.013   5.577  2.5237  0.7068  0.5812
 3582SOL    HW211646   1.244  -0.019   5.423 -1.9402  0.5514  1.7170
 3583SOL     OW11647   1.852   4.833   1.055  0.5385 -0.2723 -0.0547
 3583SOL    HW111648   1.851   4.744   1.008  0.1201 -0.2955 -0.0064
 3583SOL    HW211649   1.784   4.893   1.014 -1.3639 -0.9981  1.8437
 3584SOL     OW11650   6.264   4.052   3.447 -0.0971  0.7018 -0.4706
 3584SOL    HW111651   6.354   4.093   3.460  0.4533 -0.9027  1.2087
 3584SOL    HW211652   6.265   3.957   3.478 -2.8022  1.1162  1.3135
 3585SOL     OW11653   3.861   1.928   2.284  0.1437  0.1709 -0.4298
 3585SOL    HW111654   3.777   1.916   2.337  0.5263 -2.1041 -0.2418
 3585SOL    HW211655   3.939   1.930   2.345  0.3932  0.0381 -0.7388
 3586SOL     OW11656   0.704   3.110   5.302  0.5437  0.0587 -0.3713
 3586SOL    HW111657   0.623   3.125   5.246  1.3242  0.8395 -1.3271
 3586SOL    HW211658   0.780   3.164   5.267  0.7151  1.7521  2.2781
 3587SOL     OW11659   2.786   6.984   5.181 -0.2317 -0.1100 -0.3372
 3587SOL    HW111660   2.703   7.009   5.231 -0.5998  1.9980 -1.8496
 3587SOL    HW211661   2.865   6.993   5.242 -1.0563 -2.3898  1.1946
 3588SOL     OW11662   6.536   5.117   4.779 -0.3049 -0.3628  0.0998
 3588SOL    HW111663   6.578   5.174   4.850  0.5755 -0.6960 -0.1432
 3588SOL    HW211664   6.531   5.022   4.812  0.0416 -0.5043 -0.2533
 3589SOL     OW11665   0.578   3.111   5.644  0.5695  0.4781  0.2776
 3589SOL    HW111666   0.621   3.020   5.642 -1.0807 -0.3567  0.5028
 3589SOL    HW211667   0.514   3.119   5.568  0.2157  1.2019  0.6456
 3590SOL     OW11668   5.551   5.325   6.247 -0.5112  0.0123 -0.0980
 3590SOL    HW111669   5.585   5.254   6.185 -1.2412 -0.3750 -0.0599
 3590SOL    HW211670   5.627   5.383   6.276  0.1676 -1.0144  0.2172
 3591SOL     OW11671   4.142   2.167   0.514 -0.0877  0.1532 -0.5729
 3591SOL    HW111672   4.238   2.144   0.525 -0.1574  0.0909 -0.0405
 3591SOL    HW211673   4.127   2.209   0.425  0.3686 -0.1596 -0.7973
 3592SOL     OW11674   1.375   4.512   0.083  0.2781  0.0967  0.1830
 3592SOL    HW111675   1.425   4.453   0.020 -1.1261 -2.0204  0.9425
 3592SOL    HW211676   1.281   4.521   0.052  0.3859  1.7541  0.2546
 3593SOL     OW11677   5.131   3.659   5.326 -0.2218 -0.3023 -0.6333
 3593SOL    HW111678   5.097   3.687   5.237 -1.5966 -0.6417 -0.2426
 3593SOL    HW211679   5.061   3.607   5.374  0.3725  0.1265  0.7757
 3594SOL     OW11680   4.118   4.852   4.404  0.3551 -0.0808 -0.1490
 3594SOL    HW111681   4.161   4.781   4.459  2.0163  0.3565 -0.8326
 3594SOL    HW211682   4.069   4.915   4.463  1.9417  0.2723  0.8351
 3595SOL     OW11683   6.847   0.178   4.623 -0.4371 -0.4654 -0.3479
 3595SOL    HW111684   6.832   0.265   4.670 -2.3453 -0.4252 -0.9598
 3595SOL    HW211685   6.923   0.129   4.667  0.5415  1.4037  0.1197
 3596SOL     OW11686   3.253   1.843   0.638 -0.5586 -0.1668  0.0445
 3596SOL    HW111687   3.159   1.810   0.648 -1.4035  1.9144 -0.4936
 3596SOL    HW211688   3.276   1.904   0.714 -0.6050  1.3804 -1.1259
 3597SOL     OW11689   5.246   4.922   5.293  0.1323  0.2594  0.1795
 3597SOL    HW111690   5.196   4.978   5.359 -0.6757  0.4657 -0.5893
 3597SOL    HW211691   5.305   4.982   5.238 -0.1764  0.2692 -0.1470
 3598SOL     OW11692   6.630   3.078   1.487  0.5829  0.1996  0.3746
 3598SOL    HW111693   6.564   3.153   1.495 -1.5141 -1.4576 -0.2776
 3598SOL    HW211694   6.685   3.090   1.405  0.3595  1.0735  0.3399
 3599SOL     OW11695   1.431   1.096   6.165 -0.2173 -0.1562 -0.4475
 3599SOL    HW111696   1.429   1.195   6.175 -0.6578 -0.2473  0.5321
 3599SOL    HW211697   1.508   1.069   6.108 -0.3848  0.7816 -1.1321
 3600SOL     OW11698   3.190   4.929   6.752 -0.0162  0.1237 -0.3516
 3600SOL    HW111699   3.254   4.877   6.695  0.7356  0.9354 -0.2776
 3600SOL    HW211700   3.215   4.919   6.848 -1.0959 -0.9900 -0.1603
 3601SOL     OW11701   3.659   0.371   1.533  0.0524 -0.4928 -0.5770
 3601SOL    HW111702   3.652   0.439   1.606  0.5369 -2.4028  1.3604
 3601SOL    HW211703   3.608   0.289   1.560  1.2380 -1.6949 -1.8335
 3602SOL     OW11704   1.696   2.257   0.900  0.6867  0.3058  0.2381
 3602SOL    HW111705   1.693   2.235   0.998 -1.1437 -0.5747  0.0358
 3602SOL    HW211706   1.609   2.299   0.874  1.1757  0.5550 -1.0093
 3603SOL     OW11707   3.911   6.225   5.856 -0.1268  0.1098 -0.0702
 3603SOL    HW111708   3.815   6.195   5.861  0.3210 -1.1852  1.4145
 3603SOL    HW211709   3.963   6.160   5.800  0.5288 -1.0869  1.8576
 3604SOL     OW11710   2.197   1.454   5.833 -0.0055 -0.2694 -0.1532
 3604SOL    HW111711   2.284   1.415   5.802  1.0510 -0.5289  2.8606
 3604SOL    HW211712   2.144   1.384   5.880 -2.0509 -0.1724 -2.1169
 3605SOL     OW11713   1.154   0.652   3.314  0.2748  0.1028 -0.4161
 3605SOL    HW111714   1.100   0.576   3.352  0.3150 -0.5988 -1.6977
 3605SOL    HW211715   1.225   0.678   3.378  0.9325 -1.6765 -0.3720
 3606SOL     OW11716   2.795   1.612   1.772  0.2250 -0.1902  0.1770
 3606SOL    HW111717   2.797   1.669   1.854  0.9651  0.3692 -0.2195
 3606SOL    HW211718   2.839   1.661   1.696 -0.9235 -0.4731 -0.7039
 3607SOL     OW11719   3.854   0.855   4.025  0.1259 -0.2997  0.3029
 3607SOL    HW111720   3.797   0.921   3.976  1.1623 -0.7494 -1.5988
 3607SOL    HW211721   3.796   0.795   4.081 -1.1060  0.2019 -0.4053
 3608SOL     OW11722   3.840   1.016   4.875  0.1782 -0.5345  0.5303
 3608SOL    HW111723   3.820   0.921   4.852 -0.0639  0.0553 -2.0248
 3608SOL    HW211724   3.933   1.039   4.844 -0.0451  0.2575  0.4182
 3609SOL     OW11725   4.999   5.570   2.857  0.6253  0.3065  0.0517
 3609SOL    HW111726   4.956   5.624   2.930  0.7550  1.7550 -0.9072
 3609SOL    HW211727   5.077   5.520   2.895 -1.0474 -1.3408  1.5270
 3610SOL     OW11728   6.857   0.574   5.896 -0.1719 -0.5270  0.2105
 3610SOL    HW111729   6.947   0.573   5.938 -1.7002 -0.9336  3.7822
 3610SOL    HW211730   6.821   0.667   5.898 -0.0298 -0.4379 -0.8400
 3611SOL     OW11731   4.655   1.300   1.394 -0.3273  0.4584 -0.2797
 3611SOL    HW111732   4.677   1.341   1.483 -0.2649  0.4080 -0.2717
 3611SOL    HW211733   4.739   1.294   1.339 -0.5634  1.5449 -0.7784
 3612SOL     OW11734   6.031   2.198   2.502 -0.2746 -0.2086  0.0446
 3612SOL    HW111735   6.008   2.258   2.425 -0.8889 -0.9239 -0.3385
 3612SOL    HW211736   6.086   2.121   2.468  0.4598  0.0972  0.5233
 3613SOL     OW11737   4.416   1.945   2.414  0.2871  0.1451 -0.1153
 3613SOL    HW111738   4.512   1.932   2.441  0.4129  1.5698  0.1568
 3613SOL    HW211739   4.356   1.925   2.491  0.1403 -3.1138 -0.8968
 3614SOL     OW11740   3.369   5.441   6.627  0.1702 -0.1705 -0.2772
 3614SOL    HW111741   3.387   5.501   6.705  0.7184 -1.2224  0.4493
 3614SOL    HW211742   3.271   5.439   6.607 -0.0588 -0.3612  0.8067
 3615SOL     OW11743   5.616   2.237   4.716 -0.0033 -0.0914 -0.0776
 3615SOL    HW111744   5.568   2.242   4.628 -1.1817  0.1028  0.5583
 3615SOL    HW211745   5.554   2.266   4.789  1.5348  1.6070  0.6225
 3616SOL     OW11746   2.297   1.083   0.963 -0.1701  0.5083  0.1567
 3616SOL    HW111747   2.266   0.997   0.922 -1.4208  1.1110 -0.1872
 3616SOL    HW211748   2.249   1.160   0.922  1.2843  1.4406  0.1176
 3617SOL     OW11749   3.938   5.360   6.089  0.2772 -0.0531 -0.0831
 3617SOL    HW111750   3.891   5.282   6.129  0.6103 -0.4977 -0.5487
 3617SOL    HW211751   3.908   5.372   5.994  0.6385  0.0408 -0.1876
 3618SOL     OW11752   0.907   5.176   5.486 -0.5637 -0.0123  0.3437
 3618SOL    HW111753   0.999   5.165   5.450 -0.2606 -1.2033  1.3962
 3618SOL    HW211754   0.854   5.093   5.468 -1.8904  1.1503 -1.4231
 3619SOL     OW11755   1.616   1.602   2.262  0.4403  0.0209  0.2709
 3619SOL    HW111756   1.590   1.561   2.350  0.3721 -1.1867 -0.2998
 3619SOL    HW211757   1.567   1.688   2.250  1.4194  0.8832  1.9912
 3620SOL     OW11758   5.406   6.346   4.396  0.4393 -0.3586 -0.1812
 3620SOL    HW111759   5.446   6.437   4.407  0.9460 -0.3792 -1.6130
 3620SOL    HW211760   5.310   6.354   4.371  0.3558 -0.2335  0.1774
 3621SOL     OW11761   4.108   3.106   1.920  0.4935 -0.0161 -0.0517
 3621SOL    HW111762   4.054   3.089   2.002  1.5115 -0.9232  0.4529
 3621SOL    HW211763   4.057   3.073   1.840 -0.7923  1.4837  0.1058
 3622SOL     OW11764   2.281   6.843   0.543  0.1615 -0.7707  0.2467
 3622SOL    HW111765   2.300   6.933   0.505  1.1495 -1.2264 -0.3633
 3622SOL    HW211766   2.260   6.779   0.468  0.7410 -1.3439  0.5610
 3623SOL     OW11767   2.353   6.769   6.777 -0.4046  0.5649 -0.5800
 3623SOL    HW111768   2.403   6.787   6.862  1.1632 -2.0873 -0.8402
 3623SOL    HW211769   2.254   6.777   6.795 -0.1423 -0.4133  1.6569
 3624SOL     OW11770   3.025   6.771   3.607  0.6368  0.1183  0.1722
 3624SOL    HW111771   2.952   6.735   3.550  0.1070  0.8621  0.3640
 3624SOL    HW211772   2.986   6.815   3.688  1.3021  0.3447  0.3788
 3625SOL     OW11773   4.706   0.496   6.830  0.0749  0.3593  0.4144
 3625SOL    HW111774   4.801   0.513   6.805 -0.8377  0.8040 -3.4139
 3625SOL    HW211775   4.687   0.398   6.823  0.0885  0.3531  0.4663
 3626SOL     OW11776   0.162   4.069   6.088 -0.7924  0.1753  0.0840
 3626SOL    HW111777   0.185   4.140   6.154 -1.2819 -0.4658  0.9696
 3626SOL    HW211778   0.196   3.981   6.120 -0.5372 -0.0577 -0.8057
 3627SOL     OW11779   3.126   1.644   2.617 -0.0858 -0.2889 -0.7405
 3627SOL    HW111780   3.058   1.620   2.548  0.5130  0.8791 -1.7701
 3627SOL    HW211781   3.093   1.722   2.670 -1.1837 -2.0396  1.3235
 3628SOL     OW11782   5.423   2.756   3.104 -0.2393  0.6402  0.0618
 3628SOL    HW111783   5.470   2.679   3.060  0.4551  0.3700  1.2113
 3628SOL    HW211784   5.325   2.742   3.099 -0.1192 -1.0306  1.4016
 3629SOL     OW11785   0.431   2.622   5.649  0.2131 -0.2303  0.1450
 3629SOL    HW111786   0.525   2.588   5.650 -0.3555 -1.8971  1.4596
 3629SOL    HW211787   0.369   2.550   5.680 -1.1891  1.6888  2.1238
 3630SOL     OW11788   5.582   1.733   3.174 -0.4150 -0.6156 -0.7745
 3630SOL    HW111789   5.676   1.717   3.207 -0.9799 -0.3623  1.0913
 3630SOL    HW211790   5.546   1.647   3.137 -0.8270 -1.9242  2.3119
 3631SOL     OW11791   1.008   3.845   2.962  0.5322  0.1132 -0.0673
 3631SOL    HW111792   1.033   3.912   3.032 -0.9972  0.4783  0.1500
 3631SOL    HW211793   1.069   3.766   2.970  2.4492  1.4758 -0.3973
 3632SOL     OW11794   5.243   3.173   2.979  0.2326  0.0661  0.1765
 3632SOL    HW111795   5.194   3.097   2.935 -0.5761  0.8540 -0.3314
 3632SOL    HW211796   5.184   3.215   3.049 -0.3890  1.8154 -1.2923
 3633SOL     OW11797   6.247   3.708   4.540  0.5031 -0.2830 -0.1656
 3633SOL    HW111798   6.206   3.677   4.626  2.2727 -1.0255  0.4506
 3633SOL    HW211799   6.226   3.805   4.526  2.4867  0.6877  2.6005
 3634SOL     OW11800   2.128   6.052   5.579 -0.1885 -0.0984  0.3317
 3634SOL    HW111801   2.061   5.984   5.551 -1.5125  1.4521 -0.4536
 3634SOL    HW211802   2.085   6.116   5.643  0.7360  0.5021  0.3667
 3635SOL     OW11803   0.015   6.588   2.686 -0.2185 -0.3681  0.5704
 3635SOL    HW111804   0.031   6.661   2.620  2.3490 -0.8825  0.5299
 3635SOL    HW211805   0.064   6.609   2.771 -0.9217 -1.2027  1.2004
 3636SOL     OW11806   1.074   5.315   2.555  0.1762  0.1970 -0.0646
 3636SOL    HW111807   1.075   5.332   2.457 -0.4872 -1.4458 -0.3955
 3636SOL    HW211808   1.165   5.289   2.586  0.2737  0.1810 -0.3629
 3637SOL     OW11809   5.895   3.605   6.582  0.3934 -0.2940 -0.4593
 3637SOL    HW111810   5.993   3.588   6.594  0.4886  0.5109 -0.0326
 3637SOL    HW211811   5.878   3.636   6.489  0.5204 -0.5642 -0.5747
 3638SOL     OW11812   0.130   4.134   4.293  0.4032  0.5923  0.3597
 3638SOL    HW111813   0.200   4.063   4.289  0.6192  0.8263 -2.8135
 3638SOL    HW211814   0.174   4.224   4.298  0.3272  0.6895 -0.5585
 3639SOL     OW11815   3.154   3.842   2.881  0.1976  0.2656  0.2034
 3639SOL    HW111816   3.120   3.900   2.955 -1.1361 -0.1521 -0.0580
 3639SOL    HW211817   3.196   3.759   2.919  1.8512  1.2181  0.5661
 3640SOL     OW11818   4.894   0.982   1.065 -0.4212  0.0594 -0.1953
 3640SOL    HW111819   4.817   0.920   1.051  0.4251 -0.9462 -0.5484
 3640SOL    HW211820   4.938   1.000   0.977  0.1930  0.0069  0.0904
 3641SOL     OW11821   5.523   1.530   0.128  0.1813 -0.5157 -0.4976
 3641SOL    HW111822   5.517   1.430   0.133  1.2133 -0.5620  0.3112
 3641SOL    HW211823   5.538   1.558   0.034  0.6507 -1.1888 -0.6337
 3642SOL     OW11824   2.882   5.224   0.221 -0.3699 -0.8335 -0.1705
 3642SOL    HW111825   2.849   5.230   0.126 -0.0486  0.2125 -0.2389
 3642SOL    HW211826   2.815   5.266   0.282  0.2342  0.1552 -0.1632
 3643SOL     OW11827   5.416   5.695   6.485  0.5492  0.3959 -0.5884
 3643SOL    HW111828   5.515   5.692   6.499  0.7968  1.9507 -1.7290
 3643SOL    HW211829   5.371   5.731   6.567  1.0934  1.1529 -0.6154
 3644SOL     OW11830   3.890   0.259   1.939 -0.0099  0.6406  0.1723
 3644SOL    HW111831   3.936   0.347   1.945 -0.8964  1.0905  0.4178
 3644SOL    HW211832   3.887   0.216   2.030 -0.9309  1.0566  0.3451
 3645SOL     OW11833   2.209   4.054   2.825 -0.0926 -0.3725 -0.0241
 3645SOL    HW111834   2.278   4.074   2.756  0.1023  1.1283  0.5517
 3645SOL    HW211835   2.122   4.096   2.798 -0.6258 -1.7019 -0.4339
 3646SOL     OW11836   3.135   4.136   5.515  0.5537  0.1417 -0.2729
 3646SOL    HW111837   3.157   4.161   5.421  3.8266 -1.2772 -0.0302
 3646SOL    HW211838   3.099   4.043   5.518  2.0907 -0.4793 -0.0580
 3647SOL     OW11839   4.774   0.597   1.406 -0.5252  0.2090  0.4801
 3647SOL    HW111840   4.872   0.619   1.403 -0.5534  0.2991  0.2515
 3647SOL    HW211841   4.737   0.593   1.314 -0.9355  1.0764  0.5901
 3648SOL     OW11842   6.306   4.923   2.546 -0.8076 -0.3189  0.1527
 3648SOL    HW111843   6.311   4.824   2.553  0.9273 -0.2080  0.7405
 3648SOL    HW211844   6.322   4.950   2.451 -0.9197 -0.5713  0.0605
 3649SOL     OW11845   5.216   2.321   0.177  0.2131  0.0052  0.8761
 3649SOL    HW111846   5.196   2.275   0.263  0.4633 -1.1822  0.3268
 3649SOL    HW211847   5.145   2.298   0.110  0.3333  0.4368  0.5965
 3650SOL     OW11848   4.628   0.431   0.243 -0.2143  0.0474  0.7493
 3650SOL    HW111849   4.668   0.437   0.335 -2.1821 -0.1112  1.6812
 3650SOL    HW211850   4.542   0.483   0.241  0.0540  0.4837 -1.1828
 3651SOL     OW11851   2.286   0.578   3.927 -0.6264  0.0372 -0.1703
 3651SOL    HW111852   2.284   0.487   3.970  0.1824  0.7535  1.4693
 3651SOL    HW211853   2.210   0.633   3.962  0.1438  0.6877  0.5107
 3652SOL     OW11854   0.476   1.113   4.367  0.6944  0.4234  0.2326
 3652SOL    HW111855   0.524   1.039   4.320  0.9910  0.9205 -0.2511
 3652SOL    HW211856   0.410   1.155   4.304 -0.3548 -0.2249  0.8751
 3653SOL     OW11857   0.188   1.148   0.184  0.1491 -0.2110 -0.1236
 3653SOL    HW111858   0.187   1.145   0.084  0.6222 -0.0125 -0.1348
 3653SOL    HW211859   0.147   1.064   0.220 -1.5601  0.4230 -0.4784
 3654SOL     OW11860   6.119   6.152   0.858  0.0456  0.3446  0.1783
 3654SOL    HW111861   6.146   6.246   0.836 -0.1651  0.6318  1.1067
 3654SOL    HW211862   6.028   6.134   0.820  1.2234 -0.4514 -2.4951
 3655SOL     OW11863   2.783   1.196   4.179 -0.1004 -0.4143 -0.5996
 3655SOL    HW111864   2.805   1.112   4.227 -1.4192  1.1269  3.0093
 3655SOL    HW211865   2.684   1.201   4.163 -0.1622  0.7923  0.0425
 3656SOL     OW11866   0.988   0.554   1.378  0.0655 -0.0439  0.0183
 3656SOL    HW111867   1.076   0.517   1.407  0.1781  1.0054  1.1083
 3656SOL    HW211868   0.944   0.599   1.456 -0.2241  1.7645 -1.1406
 3657SOL     OW11869   6.890   4.237   0.929 -0.0523  0.1529  0.4898
 3657SOL    HW111870   6.906   4.157   0.871 -1.2514 -1.2194  1.9451
 3657SOL    HW211871   6.968   4.298   0.923  0.8701 -1.0734 -0.7535
 3658SOL     OW11872   1.856   3.853   0.128 -0.3805  0.3059 -0.2129
 3658SOL    HW111873   1.887   3.826   0.220 -2.2944  1.0289  0.6945
 3658SOL    HW211874   1.765   3.817   0.111  0.4104 -0.8528 -2.3707
 3659SOL     OW11875   1.201   1.669   0.398 -0.4766 -0.3880 -0.2141
 3659SOL    HW111876   1.224   1.755   0.443  1.6686  0.1686 -2.1526
 3659SOL    HW211877   1.286   1.625   0.368 -1.7207 -1.0113 -3.0913
 3660SOL     OW11878   3.093   4.846   4.014  0.0658 -0.2029 -0.2255
 3660SOL    HW111879   3.115   4.894   4.099 -0.4042  1.2253 -0.8675
 3660SOL    HW211880   3.112   4.749   4.024  0.2204 -0.0289  1.4388
 3661SOL     OW11881   6.034   1.536   5.323  0.0981 -0.2069 -0.2766
 3661SOL    HW111882   5.990   1.504   5.239 -1.7127  4.1114 -1.2633
 3661SOL    HW211883   5.968   1.531   5.399  1.0015 -2.0295  0.4371
 3662SOL     OW11884   4.326   3.434   6.523  0.8060 -0.5389  0.7563
 3662SOL    HW111885   4.279   3.454   6.609  2.2137  0.2359  1.3720
 3662SOL    HW211886   4.420   3.407   6.541  1.2511  0.0382 -0.5718
 3663SOL     OW11887   2.787   1.943   5.818  0.3227 -0.0374  0.0334
 3663SOL    HW111888   2.871   1.969   5.771  0.4432 -0.2614  0.1194
 3663SOL    HW211889   2.728   1.891   5.756  0.2498  0.1131 -0.0248
 3664SOL     OW11890   2.271   1.752   1.000  1.1474 -0.3723  0.0973
 3664SOL    HW111891   2.240   1.772   0.907  1.0715 -0.3598  0.1251
 3664SOL    HW211892   2.368   1.775   1.008  0.8823  0.7355  0.3441
 3665SOL     OW11893   6.850   0.256   6.831  0.0958  0.7978  0.9546
 3665SOL    HW111894   6.929   0.216   6.783 -0.5639  2.5237 -1.8470
 3665SOL    HW211895   6.879   0.290   6.920  1.8339 -1.0383  1.1733
 3666SOL     OW11896   1.040   4.407   4.788 -0.5561  0.3890  0.0034
 3666SOL    HW111897   1.052   4.462   4.871  0.2488 -0.1065  0.2280
 3666SOL    HW211898   1.075   4.315   4.804 -0.5321  0.2435 -0.8482
 3667SOL     OW11899   1.215   4.361   1.550 -0.1428  0.2256  0.0201
 3667SOL    HW111900   1.269   4.290   1.506 -0.3016  0.4537 -0.5499
 3667SOL    HW211901   1.250   4.377   1.643 -0.4184 -0.9333  0.3439
 3668SOL     OW11902   5.225   0.383   0.697 -0.4397  0.2945 -0.1411
 3668SOL    HW111903   5.220   0.309   0.764  0.8713 -1.9897 -2.4246
 3668SOL    HW211904   5.144   0.441   0.706 -0.2585  0.1923  3.4388
 3669SOL     OW11905   4.450   0.099   2.409  0.6085  0.4613 -0.0884
 3669SOL    HW111906   4.444   0.196   2.429  0.6606  0.8561 -1.8814
 3669SOL    HW211907   4.531   0.081   2.353  1.1771 -0.7794  1.0702
 3670SOL     OW11908   2.302   6.314   6.577 -0.6349 -0.3275 -0.8482
 3670SOL    HW111909   2.344   6.224   6.572 -0.0608 -0.2105  1.0814
 3670SOL    HW211910   2.364   6.377   6.624 -3.1258 -0.3284  2.8490
 3671SOL     OW11911   0.723   0.780   0.455  0.3059 -0.2456  0.2275
 3671SOL    HW111912   0.697   0.736   0.368  1.7841 -0.6476 -0.0404
 3671SOL    HW211913   0.789   0.853   0.437  1.1273 -0.7606  1.0631
 3672SOL     OW11914   2.674   1.016   3.064 -0.6818 -0.2775  0.2270
 3672SOL    HW111915   2.732   1.083   3.109 -0.8809  1.4653 -1.9497
 3672SOL    HW211916   2.595   0.995   3.122  0.6116 -0.5300  1.9825
 3673SOL     OW11917   5.016   2.465   0.518 -0.8996  0.1915 -0.4294
 3673SOL    HW111918   5.038   2.555   0.482 -0.8456  1.1220  1.7605
 3673SOL    HW211919   4.918   2.447   0.508 -1.6304  2.1057  2.2965
 3674SOL     OW11920   6.482   0.211   0.326 -0.1463  0.0685 -0.1349
 3674SOL    HW111921   6.514   0.292   0.276 -1.4134  0.5245 -0.2488
 3674SOL    HW211922   6.383   0.204   0.318 -0.3043 -0.2946  1.6652
 3675SOL     OW11923   4.003   6.150   6.409 -0.1196  0.5962  0.1335
 3675SOL    HW111924   4.021   6.208   6.329  1.1267  0.8833  0.6077
 3675SOL    HW211925   4.045   6.190   6.490 -0.1012 -0.4515  0.6635
 3676SOL     OW11926   2.710   1.596   6.157 -0.0157  0.2944 -1.0375
 3676SOL    HW111927   2.767   1.672   6.127 -0.1624  0.6297 -0.4780
 3676SOL    HW211928   2.767   1.516   6.177  0.3673  0.9036  0.4041
 3677SOL     OW11929   1.100   1.060   5.256  0.6767  0.1009 -0.4870
 3677SOL    HW111930   1.072   0.996   5.327  2.2113  0.4050  0.4509
 3677SOL    HW211931   1.026   1.124   5.236  0.0014 -0.3896  0.3884
 3678SOL     OW11932   2.107   0.513   4.226  0.2501  0.2669 -0.6022
 3678SOL    HW111933   2.074   0.424   4.195  0.1118  0.8868 -2.3250
 3678SOL    HW211934   2.164   0.500   4.308  0.2099 -1.3844 -0.7898
 3679SOL     OW11935   0.989   0.159   1.621  0.5457 -0.4333  0.1133
 3679SOL    HW111936   0.916   0.160   1.553  1.0510  0.6056 -0.4498
 3679SOL    HW211937   1.034   0.249   1.622  1.6142 -0.9546  0.6568
 3680SOL     OW11938   5.802   0.213   3.969 -0.4700  0.5221 -0.1120
 3680SOL    HW111939   5.843   0.304   3.967 -1.4546  0.9773 -0.0933
 3680SOL    HW211940   5.874   0.145   3.985  0.0704  1.4238  1.5460
 3681SOL     OW11941   3.173   6.696   5.000  0.5133 -0.0900 -0.2923
 3681SOL    HW111942   3.154   6.633   4.924 -1.2502  0.1298 -0.0574
 3681SOL    HW211943   3.153   6.789   4.972  0.9573  0.1222  0.0895
 3682SOL     OW11944   5.907   0.360   2.971 -0.3314  0.4370  0.0169
 3682SOL    HW111945   5.975   0.297   3.008  1.5611  3.1046  1.4223
 3682SOL    HW211946   5.949   0.419   2.902 -0.9355  2.5607  1.3500
 3683SOL     OW11947   5.924   0.993   0.626  0.3973 -0.4120  0.4487
 3683SOL    HW111948   5.986   0.915   0.621  0.8320 -0.1538  1.5274
 3683SOL    HW211949   5.969   1.074   0.590 -0.4296 -0.8434 -1.6940
 3684SOL     OW11950   2.418   6.382   6.274 -0.1198  0.1038  0.4394
 3684SOL    HW111951   2.333   6.402   6.225  0.4362  0.7435 -0.2827
 3684SOL    HW211952   2.434   6.283   6.275 -0.5835  0.0253  0.0951
 3685SOL     OW11953   1.537   4.859   2.143 -0.0828 -0.0087  0.1003
 3685SOL    HW111954   1.577   4.857   2.235 -0.1025  1.9400  0.2029
 3685SOL    HW211955   1.438   4.850   2.149 -0.1623  0.9375  0.3645
 3686SOL     OW11956   2.005   5.813   0.083  0.3564 -0.1607  0.2716
 3686SOL    HW111957   1.945   5.852   0.154 -0.9586 -3.0598  0.9012
 3686SOL    HW211958   2.003   5.872   0.003 -0.7922  1.5076  1.4359
 3687SOL     OW11959   5.333   4.934   3.936 -0.1029  0.0499  0.3333
 3687SOL    HW111960   5.421   4.895   3.907  0.1310  0.0594  1.0127
 3687SOL    HW211961   5.340   4.964   4.031 -0.6483  0.6508  0.1911
 3688SOL     OW11962   0.864   4.037   2.772 -0.1052  0.3567  0.4863
 3688SOL    HW111963   0.824   4.000   2.688 -0.9265 -0.9112  1.3946
 3688SOL    HW211964   0.850   3.972   2.846  3.8622 -0.2948  0.8670
 3689SOL     OW11965   2.234   4.801   4.560 -0.5122  0.1596 -0.1451
 3689SOL    HW111966   2.302   4.852   4.612 -0.5723  0.7302 -0.6195
 3689SOL    HW211967   2.272   4.713   4.533 -0.9163 -0.7334  1.9772
 3690SOL     OW11968   6.798   4.887   1.472  0.1882  0.1366  0.0937
 3690SOL    HW111969   6.835   4.931   1.390  1.0699  0.6796  0.7530
 3690SOL    HW211970   6.772   4.793   1.451  0.3654  0.2814 -0.8130
 3691SOL     OW11971   1.689   1.807   6.422  0.4632  0.8603  0.7222
 3691SOL    HW111972   1.775   1.857   6.405  1.2887 -0.3984  1.0669
 3691SOL    HW211973   1.660   1.761   6.338  0.5578  0.6283  0.8176
 3692SOL     OW11974   1.368   3.352   6.193  0.1714 -0.1343 -0.4570
 3692SOL    HW111975   1.328   3.332   6.282  2.7997 -1.2094  0.5813
 3692SOL    HW211976   1.386   3.451   6.186 -0.7323  0.0590 -0.1171
 3693SOL     OW11977   2.183   0.874   2.247 -0.2843 -0.1869 -0.4889
 3693SOL    HW111978   2.183   0.839   2.154 -0.9536 -0.3845 -0.4184
 3693SOL    HW211979   2.089   0.889   2.277 -0.0927 -0.5580  0.3174
 3694SOL     OW11980   0.043   5.077   1.673 -0.0871 -0.2018 -0.4288
 3694SOL    HW111981   0.024   5.132   1.592 -1.3802 -2.1585 -1.5431
 3694SOL    HW211982   0.020   4.981   1.654 -0.2524 -0.7464  2.2091
 3695SOL     OW11983   4.772   4.084   4.444  0.1124 -0.2578  0.0360
 3695SOL    HW111984   4.785   3.987   4.465  0.9615  0.0117  0.8200
 3695SOL    HW211985   4.828   4.108   4.364 -0.5039 -0.5196 -0.4856
 3696SOL     OW11986   6.164   2.561   6.013 -0.0200  0.1227 -0.3886
 3696SOL    HW111987   6.089   2.626   6.001  0.7688  0.9176 -1.1033
 3696SOL    HW211988   6.138   2.472   5.975 -0.6551  0.3450 -0.4861
 3697SOL     OW11989   5.349   4.891   2.390  0.5340  0.5595  0.3483
 3697SOL    HW111990   5.347   4.919   2.294  0.0760  0.4084  0.3119
 3697SOL    HW211991   5.442   4.896   2.424  0.8748 -0.3692 -0.3999
 3698SOL     OW11992   2.109   6.601   4.867  0.5350  0.6251  0.0019
 3698SOL    HW111993   2.029   6.608   4.926  0.5032  4.1165 -0.2115
 3698SOL    HW211994   2.090   6.646   4.779  2.6292  1.3822 -0.1326
 3699SOL     OW11995   6.185   1.764   3.105 -0.0499  0.2020 -0.4483
 3699SOL    HW111996   6.128   1.686   3.131  0.4163 -0.4964 -1.4590
 3699SOL    HW211997   6.282   1.739   3.112  0.1376  1.0860  0.3706
 3700SOL     OW11998   2.901   5.721   5.281 -0.0989 -0.1007  0.0155
 3700SOL    HW111999   2.984   5.726   5.226 -0.0901 -1.5572 -0.1625
 3700SOL    HW212000   2.919   5.662   5.361 -0.5968  0.6081  0.6571
 3701SOL     OW12001   7.017   0.681   0.936  0.5521 -0.6681  0.0662
 3701SOL    HW112002   6.995   0.646   0.845 -2.6927 -2.2410  1.3073
 3701SOL    HW212003   7.071   0.614   0.986 -1.8063 -2.0777  0.8727
 3702SOL     OW12004   0.499   4.817   4.754 -0.3777  0.2436 -0.1635
 3702SOL    HW112005   0.582   4.868   4.729  0.2283 -1.3629 -1.6622
 3702SOL    HW212006   0.427   4.837   4.687  0.0749 -1.2908 -1.1561
 3703SOL     OW12007   0.673   2.764   3.390 -0.1314  0.5097 -0.2817
 3703SOL    HW112008   0.767   2.744   3.420  0.0931  2.7881  0.7268
 3703SOL    HW212009   0.676   2.818   3.305 -0.6935 -2.4598 -2.3447
 3704SOL     OW12010   1.401   1.526   2.063 -0.2735  0.4241  0.0440
 3704SOL    HW112011   1.432   1.612   2.103 -1.3852  0.1087  1.7062
 3704SOL    HW212012   1.315   1.542   2.012 -0.1954  0.3844 -0.1014
 3705SOL     OW12013   0.548   5.269   5.484 -0.1574  0.1479 -0.1617
 3705SOL    HW112014   0.494   5.186   5.468  2.7675 -2.0329  0.4388
 3705SOL    HW212015   0.601   5.290   5.402  0.6330  0.1913  0.3525
 3706SOL     OW12016   0.195   6.487   6.091 -0.2358  0.0202  0.7311
 3706SOL    HW112017   0.217   6.403   6.041 -0.2625 -0.5503  1.6590
 3706SOL    HW212018   0.279   6.533   6.118 -0.2135  0.7268 -0.4540
 3707SOL     OW12019   6.640   4.574   3.407 -0.3232  0.1314 -0.5081
 3707SOL    HW112020   6.605   4.604   3.318  0.2532  1.8699 -0.1817
 3707SOL    HW212021   6.602   4.631   3.479 -0.0801 -0.6866  0.2900
 3708SOL     OW12022   1.988   5.710   6.592 -0.1676  0.0212 -0.2698
 3708SOL    HW112023   2.076   5.749   6.618  1.1513 -1.3896 -2.3747
 3708SOL    HW212024   1.957   5.752   6.507 -1.2711  0.0950  0.1545
 3709SOL     OW12025   0.645   2.160   1.141  0.5251  0.2899 -0.3115
 3709SOL    HW112026   0.736   2.189   1.171  0.5566 -0.7628  0.6422
 3709SOL    HW212027   0.576   2.214   1.189  0.6162  0.2735 -0.1636
 3710SOL     OW12028   0.220   4.190   6.899  0.1794  0.8262 -0.0063
 3710SOL    HW112029   0.172   4.255   6.841 -2.2484  0.2856  1.2434
 3710SOL    HW212030   0.310   4.226   6.923  0.5827  1.7988 -2.6501
 3711SOL     OW12031   0.233   4.474   5.285 -0.3760 -0.1718  0.3745
 3711SOL    HW112032   0.274   4.501   5.198 -0.6045  3.6157  1.3013
 3711SOL    HW212033   0.294   4.499   5.360 -2.0432  0.6423  1.5045
 3712SOL     OW12034   5.298   4.232   3.722 -0.5781 -0.1786  0.2235
 3712SOL    HW112035   5.332   4.325   3.739  0.3164 -0.5243  0.3651
 3712SOL    HW212036   5.249   4.230   3.635  1.1238  0.0059 -0.7848
 3713SOL     OW12037   0.257   1.761   6.836 -0.2295 -0.0231 -0.3365
 3713SOL    HW112038   0.356   1.754   6.827 -0.2278 -0.3498 -0.0685
 3713SOL    HW212039   0.215   1.676   6.805 -0.4444  0.2068 -0.6878
 3714SOL     OW12040   2.048   5.362   6.583 -0.3320  0.3203 -0.6226
 3714SOL    HW112041   2.026   5.270   6.615 -0.0213 -0.2336 -1.9380
 3714SOL    HW212042   1.973   5.397   6.526 -0.4222  0.8585 -0.1812
 3715SOL     OW12043   5.332   3.388   1.510  0.2106 -0.0499  0.1973
 3715SOL    HW112044   5.256   3.409   1.572 -1.1972 -3.4284 -0.1479
 3715SOL    HW212045   5.412   3.360   1.563  0.0139  0.0075  0.5298
 3716SOL     OW12046   4.455   4.393   5.340  0.0357 -0.0463 -0.6761
 3716SOL    HW112047   4.392   4.415   5.414 -0.1661 -0.8098 -0.6103
 3716SOL    HW212048   4.408   4.405   5.252 -0.5879 -1.6771 -0.6048
 3717SOL     OW12049   3.758   0.257   3.111  0.4925  0.4698  0.1803
 3717SOL    HW112050   3.699   0.210   3.177 -0.4904 -0.4817 -1.2940
 3717SOL    HW212051   3.826   0.312   3.159  0.8070 -1.3923  1.9836
 3718SOL     OW12052   5.781   6.622   6.798 -0.4111  0.0716 -0.8395
 3718SOL    HW112053   5.773   6.646   6.895 -0.4752 -1.7421 -0.3554
 3718SOL    HW212054   5.772   6.705   6.742 -0.4937  1.1342  0.6859
 3719SOL     OW12055   2.396   4.151   6.929 -0.0485  0.2014  0.4710
 3719SOL    HW112056   2.434   4.113   6.845 -0.2753 -0.2689  0.5813
 3719SOL    HW212057   2.296   4.157   6.922  0.0177  1.3084  0.2353
 3720SOL     OW12058   1.014   1.946   6.293  0.3240  0.0493  0.6507
 3720SOL    HW112059   0.946   2.002   6.245 -0.7647 -1.2069  0.6936
 3720SOL    HW212060   1.023   1.858   6.247 -0.4840 -1.0589  2.5150
 3721SOL     OW12061   0.213   6.876   5.414 -0.7380 -0.0937  0.2978
 3721SOL    HW112062   0.226   6.894   5.511 -3.1002 -0.2466  0.7033
 3721SOL    HW212063   0.181   6.959   5.368  0.1502 -0.0794 -0.3230
 3722SOL     OW12064   3.081   6.519   3.036 -0.5575  0.1538  0.5260
 3722SOL    HW112065   3.089   6.419   3.031  0.5201  0.2865 -1.3747
 3722SOL    HW212066   3.024   6.543   3.114  0.1907 -1.8828  1.7969
 3723SOL     OW12067   4.608   5.664   6.199  0.0842  0.1649 -0.2523
 3723SOL    HW112068   4.583   5.737   6.135  0.4776  0.3292 -0.2207
 3723SOL    HW212069   4.636   5.705   6.286 -0.1426 -0.0445 -0.0787
 3724SOL     OW12070   4.630   5.382   4.238 -0.5832  0.3639  0.1961
 3724SOL    HW112071   4.689   5.427   4.170 -0.2946 -0.3305 -0.0187
 3724SOL    HW212072   4.537   5.417   4.229 -0.3138  1.1079  0.2061
 3725SOL     OW12073   5.198   4.667   2.443  0.4979 -0.1918  0.4695
 3725SOL    HW112074   5.231   4.646   2.535 -0.9781  1.2528  1.3716
 3725SOL    HW212075   5.252   4.741   2.404  1.5513 -1.2397 -0.1377
 3726SOL     OW12076   6.087   2.082   3.680 -0.1429 -0.3655  0.1104
 3726SOL    HW112077   6.003   2.060   3.729 -0.9597 -1.3697 -1.6590
 3726SOL    HW212078   6.165   2.069   3.741 -1.1064 -1.5756  1.1496
 3727SOL     OW12079   6.755   1.440   4.490 -0.0918  0.2064 -0.2979
 3727SOL    HW112080   6.801   1.506   4.432 -1.0575  0.1581 -1.1429
 3727SOL    HW212081   6.657   1.459   4.492  0.0527  1.2822  2.7270
 3728SOL     OW12082   2.743   5.305   1.916  0.1328 -0.3522  0.4478
 3728SOL    HW112083   2.735   5.209   1.888  1.6091 -0.6084  0.8161
 3728SOL    HW212084   2.822   5.346   1.871 -0.3481  0.6290  0.4893
 3729SOL     OW12085   6.958   6.179   5.541  0.3878  0.2159 -0.3211
 3729SOL    HW112086   6.987   6.135   5.625 -1.9238  1.5505  1.2890
 3729SOL    HW212087   7.027   6.246   5.513  1.3391 -0.4792  0.2794
 3730SOL     OW12088   0.085   5.315   3.293 -0.1211  0.7546 -0.1479
 3730SOL    HW112089   0.146   5.259   3.236  0.0843  1.6584 -0.8258
 3730SOL    HW212090   0.109   5.411   3.283 -1.8665  1.1653 -0.6706
 3731SOL     OW12091   5.629   6.601   3.729  0.4787  0.2877 -0.5257
 3731SOL    HW112092   5.585   6.682   3.690 -2.2770 -0.8116  0.0852
 3731SOL    HW212093   5.587   6.579   3.817  0.5075 -2.3063 -1.0775
 3732SOL     OW12094   3.950   4.070   5.754  0.5796 -0.2397  0.1532
 3732SOL    HW112095   3.976   4.125   5.675 -1.3423  0.6348  0.0733
 3732SOL    HW212096   3.922   4.130   5.829  1.7164 -1.0691  1.2941
 3733SOL     OW12097   1.997   1.295   3.043  0.0020  0.1749 -0.9474
 3733SOL    HW112098   2.068   1.360   3.015  0.0989  1.2196  1.4624
 3733SOL    HW212099   2.039   1.216   3.088 -0.2968  0.9453  0.7756
 3734SOL     OW12100   4.507   0.690   2.178 -0.5729  0.0893  0.1385
 3734SOL    HW112101   4.443   0.614   2.178  0.4106 -0.7761 -0.1784
 3734SOL    HW212102   4.460   0.775   2.201 -1.4359 -0.8259  1.8728
 3735SOL     OW12103   4.549   1.521   2.833  0.3745  0.3868 -0.4482
 3735SOL    HW112104   4.532   1.565   2.921 -0.6532 -1.0004  0.0840
 3735SOL    HW212105   4.564   1.591   2.763 -1.0460  1.5808  0.3906
 3736SOL     OW12106   0.038   3.506   5.683 -0.0905 -0.3848 -0.4480
 3736SOL    HW112107   0.107   3.438   5.659 -0.4740 -1.2062  0.6755
 3736SOL    HW212108  -0.034   3.463   5.738  0.1385  1.1052  1.1232
 3737SOL     OW12109   5.478   1.487   4.649 -0.3590 -0.1632  0.0734
 3737SOL    HW112110   5.443   1.395   4.635 -0.0545 -0.5460  1.5888
 3737SOL    HW212111   5.565   1.498   4.601 -0.7417 -0.4274 -0.6835
 3738SOL     OW12112   6.514   0.584   6.733 -0.5727 -0.1013  0.2765
 3738SOL    HW112113   6.484   0.623   6.647  0.6674  0.1435 -0.0679
 3738SOL    HW212114   6.599   0.532   6.719 -0.7344 -0.6571  1.2195
 3739SOL     OW12115   3.275   5.342   0.405 -0.0615  0.1561  0.3997
 3739SOL    HW112116   3.181   5.377   0.411 -0.0377  0.7785 -1.9915
 3739SOL    HW212117   3.312   5.330   0.497 -1.8300  1.6566  1.3679
 3740SOL     OW12118   6.245   1.247   6.225 -0.5796  0.4860 -0.1404
 3740SOL    HW112119   6.287   1.332   6.193  0.8963 -0.1540  0.0102
 3740SOL    HW212120   6.314   1.174   6.228 -1.0075  0.0530  2.7753
 3741SOL     OW12121   5.215   4.108   0.994 -0.0205  0.4409 -0.1103
 3741SOL    HW112122   5.247   4.115   1.089 -0.1210  0.8693 -0.1034
 3741SOL    HW212123   5.176   4.018   0.979 -1.7976  1.0017  0.8349
 3742SOL     OW12124   4.514   6.073   0.943  0.3084 -0.4404  0.5123
 3742SOL    HW112125   4.432   6.029   0.906 -0.1342 -0.5261  1.5897
 3742SOL    HW212126   4.594   6.038   0.893 -0.3288  0.0284 -0.8974
 3743SOL     OW12127   3.337   6.363   1.074  0.0271  0.5503  0.0626
 3743SOL    HW112128   3.421   6.376   1.127  0.0337  0.6636  0.0272
 3743SOL    HW212129   3.352   6.398   0.981 -0.3424  1.3957  0.3107
 3744SOL     OW12130   6.318   4.271   1.535 -0.2132  0.4538  0.1829
 3744SOL    HW112131   6.403   4.258   1.586  0.3054 -1.9290 -1.1021
 3744SOL    HW212132   6.334   4.333   1.458  0.3172  0.2087  0.0897
 3745SOL     OW12133   6.000   1.283   2.871  0.0592 -0.2487 -0.0420
 3745SOL    HW112134   6.014   1.336   2.788  2.6826  2.0783  1.7048
 3745SOL    HW212135   6.035   1.190   2.858 -0.5179 -0.2449 -1.8139
 3746SOL     OW12136   5.823   6.297   6.521 -0.2748  0.0687  0.2341
 3746SOL    HW112137   5.790   6.267   6.610  0.0210  1.4002  0.8199
 3746SOL    HW212138   5.921   6.280   6.514  0.0183  1.3850  0.8139
 3747SOL     OW12139   1.421   5.554   5.994  0.3701  0.2011  0.0844
 3747SOL    HW112140   1.488   5.511   6.055  1.4415  1.9865  0.2385
 3747SOL    HW212141   1.347   5.490   5.976  0.7835 -0.9223  2.0414
 3748SOL     OW12142   3.929   0.418   3.627  0.5290 -0.1784  0.2374
 3748SOL    HW112143   4.019   0.453   3.601 -0.8724  2.1892 -1.8541
 3748SOL    HW212144   3.897   0.466   3.708  0.8977 -0.6296  0.6561
 3749SOL     OW12145   0.513   6.161   6.092 -0.2553 -0.0756 -0.0145
 3749SOL    HW112146   0.550   6.127   6.178  1.3718  1.3233 -0.0998
 3749SOL    HW212147   0.564   6.242   6.063 -0.4011 -0.7864 -2.5588
 3750SOL     OW12148   6.668   5.318   1.424  0.2588 -0.6865 -0.1959
 3750SOL    HW112149   6.646   5.294   1.519  1.9667  0.2035  0.4512
 3750SOL    HW212150   6.586   5.354   1.379 -1.1202 -3.0521  0.2690
 3751SOL     OW12151   2.456   4.816   1.563 -0.1196  0.0577 -0.2554
 3751SOL    HW112152   2.542   4.790   1.607  0.4631 -0.0021 -1.3931
 3751SOL    HW212153   2.411   4.885   1.619  1.6866  1.6425 -0.6457
 3752SOL     OW12154   2.409   5.499   0.712  0.2378 -0.1601 -0.1977
 3752SOL    HW112155   2.458   5.486   0.798 -1.0662 -1.1791  0.4340
 3752SOL    HW212156   2.319   5.456   0.719 -0.0776  0.1667 -1.9142
 3753SOL     OW12157   0.523   2.244   5.877 -0.7515  0.4229 -0.1398
 3753SOL    HW112158   0.436   2.195   5.886 -0.9525  1.0593  1.8419
 3753SOL    HW212159   0.510   2.339   5.904 -0.0954  1.3373 -2.7937
 3754SOL     OW12160   5.877   0.279   1.892 -0.0099 -0.1941 -0.1557
 3754SOL    HW112161   5.956   0.218   1.893 -0.2717 -0.5315  0.1570
 3754SOL    HW212162   5.841   0.285   1.799 -0.9195 -1.7455  0.0615
 3755SOL     OW12163   4.438   0.925   0.189  0.1654 -0.0928  0.4268
 3755SOL    HW112164   4.361   0.924   0.253  1.4314 -1.8543  2.0583
 3755SOL    HW212165   4.524   0.922   0.241  1.3354  0.9824 -1.3474
 3756SOL     OW12166   4.563   6.554   6.778 -0.7353  0.7953 -0.5988
 3756SOL    HW112167   4.611   6.518   6.857 -1.5622  2.2750  0.6372
 3756SOL    HW212168   4.599   6.512   6.695 -0.0845 -1.0457  0.5644
 3757SOL     OW12169   3.431   0.934   5.216 -0.4726 -0.0053  0.2276
 3757SOL    HW112170   3.335   0.907   5.224 -0.3116 -1.0158 -0.9460
 3757SOL    HW212171   3.459   0.984   5.298 -2.5171  1.9929 -0.1876
 3758SOL     OW12172   1.302   0.710   1.615 -0.0082 -0.9537 -0.3418
 3758SOL    HW112173   1.301   0.810   1.607 -0.6451 -0.9874 -0.7307
 3758SOL    HW212174   1.300   0.669   1.524 -0.5929 -1.3209 -0.1659
 3759SOL     OW12175   4.592   3.889   0.089 -0.0454  0.2483  0.0495
 3759SOL    HW112176   4.498   3.908   0.117  0.3419  1.2152  0.7274
 3759SOL    HW212177   4.646   3.973   0.090  1.1139 -0.4710  0.7431
 3760SOL     OW12178   4.066   2.901   5.727  0.0590  0.4691 -0.2832
 3760SOL    HW112179   4.055   2.833   5.799 -0.6115  0.4864 -0.3648
 3760SOL    HW212180   4.156   2.890   5.685 -0.7095 -1.5823 -1.5345
 3761SOL     OW12181   5.976   0.609   6.286 -0.5549 -0.3469 -0.3378
 3761SOL    HW112182   6.034   0.587   6.207  0.3591 -0.2140  0.2859
 3761SOL    HW212183   5.900   0.666   6.255  0.5180  0.8237 -0.9369
 3762SOL     OW12184   1.647   5.103   1.070  0.1693  0.5451 -0.3823
 3762SOL    HW112185   1.685   5.160   0.997 -1.3867 -0.5849 -2.1862
 3762SOL    HW212186   1.555   5.134   1.093 -0.0498 -0.2008 -0.2080
 3763SOL     OW12187   2.084   3.559   4.449  0.4763  0.0453  0.3692
 3763SOL    HW112188   2.036   3.481   4.409  0.2844  0.7395 -0.8085
 3763SOL    HW212189   2.048   3.578   4.540  0.7913 -1.4615  0.8472
 3764SOL     OW12190   0.749   0.366   3.857  0.6830 -0.5650  0.5970
 3764SOL    HW112191   0.651   0.362   3.838  1.2535 -1.0377 -2.8809
 3764SOL    HW212192   0.782   0.275   3.882  0.3311 -0.5290  1.1887
 3765SOL     OW12193   6.060   3.560   3.054 -0.2044  0.6859  0.0092
 3765SOL    HW112194   5.962   3.554   3.074 -0.5538 -0.9449 -1.8872
 3765SOL    HW212195   6.110   3.494   3.111 -0.2413  1.2082  0.6595
 3766SOL     OW12196   0.909   2.285   3.880 -0.4662  0.0252  0.0038
 3766SOL    HW112197   0.965   2.360   3.917  0.5807 -0.0773 -1.2820
 3766SOL    HW212198   0.813   2.312   3.881 -0.1184  1.3906 -0.3958
 3767SOL     OW12199   5.641   3.233   0.126 -0.2953  0.5679  0.4008
 3767SOL    HW112200   5.567   3.230   0.059  1.1138  0.0407 -1.1916
 3767SOL    HW212201   5.690   3.319   0.117  0.6295  0.0064 -0.0983
 3768SOL     OW12202   4.303   0.345   0.440 -0.1291  0.0997  0.5942
 3768SOL    HW112203   4.207   0.371   0.441 -0.2174 -0.2361  1.1611
 3768SOL    HW212204   4.354   0.409   0.382 -0.6247  0.5105  0.6021
 3769SOL     OW12205   2.275   1.767   4.155 -0.5789  0.7171  0.4793
 3769SOL    HW112206   2.227   1.850   4.185  2.0365  1.8082  2.0066
 3769SOL    HW212207   2.226   1.727   4.077 -2.9278  2.6471  0.8215
 3770SOL     OW12208   0.936   1.435   5.851 -0.2220 -0.3496 -0.4793
 3770SOL    HW112209   0.993   1.373   5.796  1.6013 -0.1970  1.1439
 3770SOL    HW212210   0.943   1.528   5.814  3.1114  0.2817  1.3568
 3771SOL     OW12211   0.436   2.333   5.001 -0.8817  0.6482 -0.6165
 3771SOL    HW112212   0.499   2.305   4.929  0.4455  1.6333  0.1103
 3771SOL    HW212213   0.444   2.432   5.016 -3.6443  1.0883 -1.4460
 3772SOL     OW12214   4.548   2.074   2.697  0.1071  0.7348 -0.1009
 3772SOL    HW112215   4.615   2.017   2.649 -0.8507 -0.5430 -0.0057
 3772SOL    HW212216   4.580   2.168   2.701  1.1015  0.4872 -1.5378
 3773SOL     OW12217   5.841   2.266   1.815 -0.4468  0.1663 -0.3181
 3773SOL    HW112218   5.897   2.320   1.753  2.0771 -1.0550  0.7538
 3773SOL    HW212219   5.850   2.303   1.908 -3.2867  1.2989 -0.3893
 3774SOL     OW12220   2.077   1.185   2.344 -0.6170 -0.5879  0.2642
 3774SOL    HW112221   2.139   1.121   2.390  1.2317  0.4812 -0.6182
 3774SOL    HW212222   2.085   1.275   2.388  0.8746  0.3545 -1.7703
 3775SOL     OW12223   6.424   2.085   4.541  0.1245 -0.2721 -0.9019
 3775SOL    HW112224   6.471   2.142   4.473 -0.4014  0.7073 -0.4708
 3775SOL    HW212225   6.326   2.088   4.524  0.0198 -0.3106 -0.3127
 3776SOL     OW12226   3.061   0.558   0.386 -0.2619  0.4913  0.2949
 3776SOL    HW112227   3.039   0.505   0.467 -1.4601  1.3409  0.5446
 3776SOL    HW212228   3.149   0.604   0.400 -0.4792  0.6734  1.1436
 3777SOL     OW12229   1.903   1.457   1.935  0.0558 -0.2068  0.3404
 3777SOL    HW112230   1.811   1.495   1.924  0.2101  0.1360  0.2163
 3777SOL    HW212231   1.964   1.527   1.973  0.3691 -0.2915  0.0033
 3778SOL     OW12232   3.060   1.933   1.381 -0.2387 -0.1647 -0.2663
 3778SOL    HW112233   3.010   2.012   1.417  0.9176  0.6441 -0.3479
 3778SOL    HW212234   3.154   1.961   1.360 -0.3674 -1.0505 -2.2506
 3779SOL     OW12235   1.905   3.560   6.469 -0.5741 -0.1960  0.0064
 3779SOL    HW112236   1.997   3.525   6.451 -0.6036 -0.4117  0.2482
 3779SOL    HW212237   1.866   3.599   6.386  1.0409  3.0574  0.6246
 3780SOL     OW12238   0.656   0.152   3.605 -0.1490 -0.8412  0.4249
 3780SOL    HW112239   0.645   0.167   3.703 -0.9962 -0.8237  0.3365
 3780SOL    HW212240   0.638   0.056   3.583  0.3462 -0.9124  0.3291
 3781SOL     OW12241   3.886   0.299   4.614 -0.5685 -0.4155  0.2267
 3781SOL    HW112242   3.830   0.280   4.695  0.7330 -2.3476  0.7412
 3781SOL    HW212243   3.847   0.376   4.564 -1.9264  0.2552  2.1903
 3782SOL     OW12244   1.297   1.332   1.708 -0.5357 -0.2825  0.2268
 3782SOL    HW112245   1.321   1.285   1.793 -0.8012  0.3200  0.6424
 3782SOL    HW212246   1.207   1.374   1.718 -0.2071  0.4995 -0.0628
 3783SOL     OW12247   5.067   5.531   4.408  0.2051 -0.7623  0.0502
 3783SOL    HW112248   4.988   5.561   4.356  0.1547  0.4023  0.7529
 3783SOL    HW212249   5.136   5.604   4.410  2.2806 -2.5031 -2.3638
 3784SOL     OW12250   6.454   1.293   2.702  0.0503 -0.4300 -0.4260
 3784SOL    HW112251   6.390   1.340   2.762  0.3277  1.4140 -1.5099
 3784SOL    HW212252   6.405   1.224   2.648 -0.9569  0.6831 -0.9637
 3785SOL     OW12253   1.286   1.839   1.074 -0.2597 -0.3547 -0.1381
 3785SOL    HW112254   1.378   1.864   1.044 -0.8299  1.1686 -0.7315
 3785SOL    HW212255   1.253   1.905   1.141 -1.1623 -0.4921 -0.4265
 3786SOL     OW12256   2.862   6.515   1.325 -0.4907  0.8673  0.0719
 3786SOL    HW112257   2.809   6.455   1.265 -1.3086  1.5264  0.1189
 3786SOL    HW212258   2.958   6.514   1.297  0.2742 -3.0610  2.1010
 3787SOL     OW12259   6.279   1.020   4.239  0.7339 -0.4652  0.2551
 3787SOL    HW112260   6.363   0.976   4.208  0.4174 -0.1712 -1.0982
 3787SOL    HW212261   6.217   1.032   4.162  0.4007  1.4312  0.7512
 3788SOL     OW12262   1.046   3.002   0.932  0.1299  0.3996 -0.2950
 3788SOL    HW112263   1.074   2.979   1.025  0.6251  0.6193 -0.3876
 3788SOL    HW212264   1.114   3.062   0.890  1.0488 -1.4108 -1.5480
 3789SOL     OW12265   1.670   4.256   0.874  0.4540  0.2713  0.3912
 3789SOL    HW112266   1.642   4.317   0.800 -0.5065 -0.3692  0.2076
 3789SOL    HW212267   1.589   4.225   0.924  0.7932 -1.7776 -0.2601
 3790SOL     OW12268   2.125   3.552   2.880  0.0878  0.4606  0.4513
 3790SOL    HW112269   2.137   3.485   2.807  0.9183  1.6021 -0.5034
 3790SOL    HW212270   2.129   3.506   2.969 -0.3354 -0.8650 -0.1929
 3791SOL     OW12271   6.188   5.732   2.105 -0.0195 -0.0652 -0.7783
 3791SOL    HW112272   6.266   5.671   2.115  0.3985  0.6265  0.3652
 3791SOL    HW212273   6.137   5.735   2.191 -0.6558  0.3631 -1.1608
 3792SOL     OW12274   1.844   6.083   6.552 -0.8885 -0.1135 -0.1574
 3792SOL    HW112275   1.816   6.123   6.465 -0.9543  0.2214  0.0134
 3792SOL    HW212276   1.937   6.046   6.544 -0.6285  0.5286 -0.1857
 3793SOL     OW12277   0.252   6.237   1.739  0.0362 -0.7376 -0.0368
 3793SOL    HW112278   0.226   6.278   1.652  0.0897 -0.0989  0.2461
 3793SOL    HW212279   0.253   6.137   1.730 -0.3719 -0.6882 -0.6474
 3794SOL     OW12280   5.153   0.905   4.228  0.6507 -0.0601 -0.1240
 3794SOL    HW112281   5.165   0.971   4.302 -0.9000  0.1691 -0.0573
 3794SOL    HW212282   5.177   0.813   4.261 -0.4417 -0.0285  0.8153
 3795SOL     OW12283   4.052   6.813   2.399 -0.1429 -0.3382  0.1864
 3795SOL    HW112284   3.961   6.852   2.416  0.2629  0.6099  0.2053
 3795SOL    HW212285   4.116   6.885   2.375  0.2837 -1.1739 -1.2871
 3796SOL     OW12286   1.204   2.092   2.069  0.1883 -0.6530 -0.1433
 3796SOL    HW112287   1.108   2.085   2.097 -0.2101 -1.1513 -1.5419
 3796SOL    HW212288   1.243   2.178   2.102 -1.3394  0.5158 -1.2897
 3797SOL     OW12289   0.600   4.074   2.028  0.6391 -0.3272  0.0419
 3797SOL    HW112290   0.564   3.998   2.081 -3.1594  0.8249 -0.6000
 3797SOL    HW212291   0.611   4.154   2.087  0.8537 -0.3155 -0.0152
 3798SOL     OW12292   2.361   4.076   0.301  0.2559 -0.0262 -0.0861
 3798SOL    HW112293   2.380   3.983   0.333  0.5524 -0.7952 -2.2873
 3798SOL    HW212294   2.390   4.085   0.206 -1.7678  1.6532 -0.6283
 3799SOL     OW12295   5.787   0.177   6.255  0.3311 -0.4976  0.4125
 3799SOL    HW112296   5.848   0.099   6.272  1.7809  0.7681  1.3651
 3799SOL    HW212297   5.752   0.172   6.162  3.1825 -0.4874 -0.7633
 3800SOL     OW12298   2.830   3.461   0.152  0.1785 -0.3304  0.2051
 3800SOL    HW112299   2.763   3.534   0.164 -0.3578 -0.7695 -0.0426
 3800SOL    HW212300   2.793   3.392   0.089 -0.2852 -1.9381  2.0936
 3801SOL     OW12301   6.994   0.912   5.414  0.1515 -0.3038  0.0778
 3801SOL    HW112302   7.062   0.840   5.404  0.8487  0.4376 -0.6281
 3801SOL    HW212303   6.912   0.874   5.457  0.3710 -1.5987 -0.5837
 3802SOL     OW12304   1.780   1.117   4.876 -0.7123  0.0401  0.5858
 3802SOL    HW112305   1.847   1.109   4.950 -0.9234 -0.8925  0.6906
 3802SOL    HW212306   1.788   1.207   4.834  2.1091 -0.7336 -0.8107
 3803SOL     OW12307   5.294   6.708   1.341  0.1896  0.6632  0.3506
 3803SOL    HW112308   5.374   6.716   1.400 -0.8510  0.7777  1.8208
 3803SOL    HW212309   5.263   6.613   1.339  0.6641  0.5200 -0.6553
 3804SOL     OW12310   4.374   5.698   5.137 -0.6048  0.4032 -0.0449
 3804SOL    HW112311   4.434   5.714   5.058  0.6571 -2.6105  0.1513
 3804SOL    HW212312   4.281   5.681   5.104 -0.1355 -0.6218 -0.9138
 3805SOL     OW12313   3.295   2.481   1.688 -0.2870  0.2285  0.5985
 3805SOL    HW112314   3.291   2.495   1.589  0.0105  0.8373  0.6694
 3805SOL    HW212315   3.222   2.534   1.732  0.6469  1.3245  0.8464
 3806SOL     OW12316   3.560   0.890   0.286 -0.3188 -0.3247  0.2954
 3806SOL    HW112317   3.529   0.800   0.255 -0.5493 -0.5204  1.0661
 3806SOL    HW212318   3.481   0.946   0.311 -0.1321 -0.2941  0.8407
 3807SOL     OW12319   6.964   2.368   3.550  0.0362 -0.2164  0.3757
 3807SOL    HW112320   6.915   2.282   3.537 -1.2479  0.4288  0.8022
 3807SOL    HW212321   6.986   2.380   3.647  0.9011 -0.4194  0.2105
 3808SOL     OW12322   3.482   6.756   0.112  0.0402 -0.7834 -0.3954
 3808SOL    HW112323   3.559   6.744   0.175 -0.7926 -1.6055  0.5101
 3808SOL    HW212324   3.397   6.740   0.162 -0.6639 -0.8857 -1.6119
 3809SOL     OW12325   4.277   6.465   6.899  0.3492 -0.2770 -0.1829
 3809SOL    HW112326   4.217   6.534   6.938  0.5804  0.7173 -1.5295
 3809SOL    HW212327   4.372   6.485   6.923  0.6002  0.9151 -1.9928
 3810SOL     OW12328   2.179   3.436   0.264 -1.1514 -0.3418  0.3422
 3810SOL    HW112329   2.163   3.471   0.172 -0.9628 -0.9293  0.0844
 3810SOL    HW212330   2.258   3.484   0.304 -1.0316 -0.3160  0.0768
 3811SOL     OW12331   7.001   6.856   4.845  0.1022 -0.3016 -0.0353
 3811SOL    HW112332   6.977   6.952   4.826 -0.3348 -0.6249 -1.2437
 3811SOL    HW212333   7.056   6.821   4.770 -0.2409 -1.1648  0.1089
 3812SOL     OW12334   5.145   6.825   6.906  0.0989 -0.1106 -0.2684
 3812SOL    HW112335   5.171   6.802   6.813 -2.7073  0.5907 -1.3333
 3812SOL    HW212336   5.157   6.923   6.921  2.6845 -0.5262  0.9582
 3813SOL     OW12337   1.098   5.474   2.321  0.8953 -0.4232  0.4534
 3813SOL    HW112338   1.148   5.477   2.235  0.2103  0.8111  0.0734
 3813SOL    HW212339   1.030   5.547   2.323 -0.2949 -1.5030  1.3170
 3814SOL     OW12340   2.098   0.270   1.058 -0.1148  0.3654 -0.0967
 3814SOL    HW112341   2.139   0.360   1.044 -0.7986  0.8548  0.9064
 3814SOL    HW212342   1.999   0.277   1.047 -0.0713 -0.5345 -1.2246
 3815SOL     OW12343   4.377   6.598   4.320  0.2160  0.4835 -0.3096
 3815SOL    HW112344   4.284   6.621   4.346 -0.7726  1.5004 -4.0591
 3815SOL    HW212345   4.411   6.667   4.256  2.9891 -0.6827 -0.2170
 3816SOL     OW12346   0.055   6.749   1.628  0.2599  1.1930 -0.0250
 3816SOL    HW112347   0.025   6.796   1.545  1.9785  1.4386 -0.5487
 3816SOL    HW212348   0.155   6.746   1.631  0.2377 -0.9931  0.8093
 3817SOL     OW12349   5.110   2.202   5.547  0.3377 -0.3818  0.1935
 3817SOL    HW112350   5.030   2.252   5.512  1.6004  1.1187 -0.6590
 3817SOL    HW212351   5.108   2.203   5.647 -0.0322  0.7786  0.1874
 3818SOL     OW12352   4.372   6.132   4.281 -0.2168 -0.1766 -0.0303
 3818SOL    HW112353   4.344   6.046   4.323  1.0325 -0.5777  0.0132
 3818SOL    HW212354   4.339   6.136   4.187  0.0883 -0.8974 -0.1704
 3819SOL     OW12355   5.674   2.483   0.796  0.1781  0.1134 -0.0884
 3819SOL    HW112356   5.731   2.421   0.850 -0.3678 -1.2772 -1.0515
 3819SOL    HW212357   5.623   2.543   0.858  0.2970 -0.7747  0.9027
 3820SOL     OW12358   4.024   1.302   3.427 -0.2421  0.2987  0.8856
 3820SOL    HW112359   3.945   1.316   3.367  0.3027 -1.3525 -0.3080
 3820SOL    HW212360   4.062   1.211   3.410  2.6505  1.4622  0.5234
 3821SOL     OW12361   1.325   5.429   0.725 -0.6893  0.1129  0.2535
 3821SOL    HW112362   1.271   5.512   0.738 -1.8492 -0.4837 -0.5187
 3821SOL    HW212363   1.274   5.365   0.667  0.4960 -0.8382  0.2156
 3822SOL     OW12364   1.790   2.312   3.998 -0.1838 -0.7565  0.0100
 3822SOL    HW112365   1.761   2.295   3.904  0.6327  0.1297 -0.4127
 3822SOL    HW212366   1.854   2.240   4.026 -1.7442 -2.0159  0.5214
 3823SOL     OW12367   3.394   3.590   5.608 -0.1096 -0.5195  0.3192
 3823SOL    HW112368   3.460   3.631   5.546 -0.1228  0.0162  0.6525
 3823SOL    HW212369   3.376   3.495   5.580  1.1314 -0.8204  0.4947
 3824SOL     OW12370   0.607   3.860   4.855  0.5090  0.7406  0.0312
 3824SOL    HW112371   0.584   3.901   4.767 -0.0606 -1.1364 -0.7470
 3824SOL    HW212372   0.556   3.906   4.927 -1.2150  0.5044 -0.9691
 3825SOL     OW12373   0.344   5.445   5.515  0.5601  0.2259  0.4902
 3825SOL    HW112374   0.418   5.378   5.514 -0.0530 -0.5457 -2.1469
 3825SOL    HW212375   0.375   5.529   5.470  0.3038  0.5072  0.8298
 3826SOL     OW12376   1.002   2.024   0.660  0.3078 -0.0572 -0.2330
 3826SOL    HW112377   1.055   1.958   0.713  0.8858 -0.2527 -1.0380
 3826SOL    HW212378   1.054   2.109   0.651  0.5490 -0.2915 -1.1269
 3827SOL     OW12379   5.658   1.687   3.583  0.0706  0.4880  0.5026
 3827SOL    HW112380   5.736   1.635   3.548  0.3431 -0.0684  1.8589
 3827SOL    HW212381   5.680   1.722   3.674 -1.7948 -1.0165  1.6130
 3828SOL     OW12382   3.377   0.012   2.005 -0.1632  0.4624 -0.3209
 3828SOL    HW112383   3.412   0.089   2.059  0.0697 -0.0498  0.2641
 3828SOL    HW212384   3.278   0.016   2.001 -0.1549  0.7668 -0.2621
 3829SOL     OW12385   0.436   5.379   2.139 -0.3333 -0.5927  0.3419
 3829SOL    HW112386   0.406   5.291   2.175 -0.8799  0.0838  1.5885
 3829SOL    HW212387   0.533   5.393   2.162 -0.6634 -0.1901  1.5246
 3830SOL     OW12388   4.810   1.039   5.880 -0.6495  0.1675  0.0032
 3830SOL    HW112389   4.906   1.057   5.858 -0.2966 -0.9763  0.5048
 3830SOL    HW212390   4.758   1.031   5.796 -0.1747  0.1872 -0.2968
 3831SOL     OW12391   4.902   3.709   3.520 -0.6672 -0.3119  0.2303
 3831SOL    HW112392   4.903   3.801   3.480  0.5456 -0.4280 -0.0455
 3831SOL    HW212393   4.882   3.716   3.618 -2.4719  0.0705 -0.1213
 3832SOL     OW12394   6.535   6.170   2.912  0.3704 -0.1599  0.3313
 3832SOL    HW112395   6.437   6.186   2.921  0.5265  0.5271  0.8504
 3832SOL    HW212396   6.559   6.160   2.815 -0.1473  0.0563  0.1810
 3833SOL     OW12397   0.572   5.889   0.791 -0.2034 -0.2200 -0.4443
 3833SOL    HW112398   0.495   5.951   0.806  0.4533  0.3953  0.5492
 3833SOL    HW212399   0.624   5.880   0.876 -0.3275 -2.2283 -0.5412
 3834SOL     OW12400   4.953   0.051   1.406  0.2200  0.2754  0.1272
 3834SOL    HW112401   4.878   0.082   1.347  0.7979  2.1067  0.2998
 3834SOL    HW212402   4.977   0.123   1.471  0.8860 -0.9876  1.3420
 3835SOL     OW12403   3.256   5.860   4.671  0.0884  0.3399 -0.0515
 3835SOL    HW112404   3.305   5.848   4.585 -0.1608  1.0520 -0.2929
 3835SOL    HW212405   3.199   5.942   4.667 -1.0059 -0.3735  0.2832
 3836SOL     OW12406   4.773   3.362   0.659 -0.1862 -0.5004 -0.1112
 3836SOL    HW112407   4.720   3.326   0.582  0.7666 -0.4194 -0.8315
 3836SOL    HW212408   4.753   3.460   0.670 -0.1847 -0.4699 -0.3759
 3837SOL     OW12409   3.683   4.491   6.293  0.0354 -0.7615 -0.4103
 3837SOL    HW112410   3.718   4.403   6.323 -0.9822 -0.7229  0.9607
 3837SOL    HW212411   3.706   4.505   6.196  0.5070 -2.3576 -0.5482
 3838SOL     OW12412   0.607   3.113   6.920  0.1147  0.3794 -0.0495
 3838SOL    HW112413   0.586   3.211   6.916  2.5205  0.9560 -0.1333
 3838SOL    HW212414   0.662   3.094   7.001 -2.0307 -1.3379  1.1048
 3839SOL     OW12415   1.348   6.699   6.495  0.4203 -0.2646 -0.8139
 3839SOL    HW112416   1.366   6.795   6.473  1.1540 -0.7065 -2.2831
 3839SOL    HW212417   1.402   6.673   6.576 -2.1392  1.3302  1.5943
 3840SOL     OW12418   4.806   1.463   3.122  0.6637 -0.0572 -0.4575
 3840SOL    HW112419   4.824   1.365   3.124 -0.7467 -0.3244  0.4759
 3840SOL    HW212420   4.708   1.480   3.136  1.0658  1.5255  0.8771
 3841SOL     OW12421   2.327   2.797   3.411 -0.3768  0.3831  0.4409
 3841SOL    HW112422   2.317   2.807   3.312 -0.6040  0.5709  0.4803
 3841SOL    HW212423   2.252   2.741   3.447  0.5055 -0.8977  0.3189
 3842SOL     OW12424   3.117   3.440   6.849 -0.1998  0.1710  0.4570
 3842SOL    HW112425   3.122   3.433   6.949 -0.6965 -1.8599  0.3798
 3842SOL    HW212426   3.206   3.469   6.813  0.3758 -0.3525  1.4095
 3843SOL     OW12427   5.005   4.307   0.935  0.0763  0.0269  0.4005
 3843SOL    HW112428   4.977   4.334   1.027  1.2212  1.4453  0.3649
 3843SOL    HW212429   5.045   4.215   0.938 -1.1439 -0.5009  1.0583
 3844SOL     OW12430   5.085   4.214   6.021  0.3048 -0.0794 -0.0883
 3844SOL    HW112431   5.139   4.276   6.078 -1.0544  0.8353  0.2426
 3844SOL    HW212432   5.094   4.241   5.925  0.8614 -0.2694 -0.0912
 3845SOL     OW12433   4.113   3.303   2.992 -0.4082 -0.0426 -0.1422
 3845SOL    HW112434   4.095   3.207   3.013 -0.3921  0.1354  0.7068
 3845SOL    HW212435   4.037   3.359   3.026 -0.3726  0.2572 -0.5490
 3846SOL     OW12436   6.367   4.248   5.506 -0.4602  0.0540  0.4568
 3846SOL    HW112437   6.277   4.206   5.503  0.2105 -1.6196  1.8345
 3846SOL    HW212438   6.359   4.347   5.493 -2.5827  0.0804  1.6128
 3847SOL     OW12439   6.775   6.767   1.503  0.0043 -0.0871 -0.2628
 3847SOL    HW112440   6.806   6.726   1.417  1.3331 -0.8821  0.5815
 3847SOL    HW212441   6.676   6.783   1.498 -0.0313 -0.6276 -1.7222
 3848SOL     OW12442   3.520   5.217   2.228  0.0127 -0.2707 -0.1485
 3848SOL    HW112443   3.513   5.163   2.311  0.0355 -1.2993 -0.8033
 3848SOL    HW212444   3.437   5.206   2.173 -0.7559  1.7453  0.5012
 3849SOL     OW12445   2.088   0.797   4.548  0.2194 -0.0091  0.3314
 3849SOL    HW112446   2.047   0.865   4.609  1.3664  0.2158  0.8749
 3849SOL    HW212447   2.163   0.750   4.595 -0.5312 -1.6715 -0.0309
 3850SOL     OW12448   1.601   2.303   2.388  0.4245 -0.3461  0.0413
 3850SOL    HW112449   1.645   2.214   2.379  1.3060  0.2453 -2.3230
 3850SOL    HW212450   1.595   2.327   2.485 -0.2579 -3.1207  0.7822
 3851SOL     OW12451   3.624   3.642   6.623  0.2825  0.1578  0.7849
 3851SOL    HW112452   3.595   3.551   6.594  1.1614  0.1385 -0.0865
 3851SOL    HW212453   3.717   3.637   6.660  0.0999  0.6018  1.3215
 3852SOL     OW12454   6.554   3.052   5.619  0.3476 -0.1136  0.2032
 3852SOL    HW112455   6.595   2.963   5.641 -2.9530 -1.2212  2.8045
 3852SOL    HW212456   6.591   3.122   5.679  2.0784  0.0781 -1.0275
 3853SOL     OW12457   6.174   2.935   1.246  0.7094 -0.4256  0.3681
 3853SOL    HW112458   6.237   2.866   1.282  1.4681 -0.4951 -1.0109
 3853SOL    HW212459   6.174   2.931   1.146 -0.2878  0.6589  0.3012
 3854SOL     OW12460   1.582   4.883   4.710  0.3102 -0.6533 -0.1380
 3854SOL    HW112461   1.500   4.889   4.653  0.8629 -1.1319 -0.9934
 3854SOL    HW212462   1.599   4.972   4.752  0.9548  0.2522 -2.2190
 3855SOL     OW12463   0.284   4.353   4.294 -0.0675 -0.5778 -0.2320
 3855SOL    HW112464   0.339   4.389   4.219 -1.2327 -0.7002 -1.1688
 3855SOL    HW212465   0.315   4.394   4.380  0.8533  0.0667 -0.8452
 3856SOL     OW12466   0.191   6.974   0.035 -0.1115  0.1393 -0.3324
 3856SOL    HW112467   0.131   6.903  -0.001 -2.6082  1.4095  1.0480
 3856SOL    HW212468   0.176   7.059  -0.015 -0.2564  0.7323  0.6764
 3857SOL     OW12469   1.140   0.687   6.277 -0.1933 -0.6303  0.3442
 3857SOL    HW112470   1.079   0.625   6.326  0.9990 -2.8316 -0.7985
 3857SOL    HW212471   1.088   0.738   6.209 -0.9967 -1.3935  0.3711
 3858SOL     OW12472   4.729   5.582   5.946  0.7983 -0.4096  0.0023
 3858SOL    HW112473   4.813   5.633   5.963  1.9082 -2.2814  0.4905
 3858SOL    HW212474   4.669   5.588   6.025  0.3842  1.0496 -0.3999
 3859SOL     OW12475   2.057   3.236   2.365  0.2085 -0.2219  0.3323
 3859SOL    HW112476   1.997   3.246   2.445 -1.3332  0.2031 -0.8246
 3859SOL    HW212477   2.118   3.158   2.379  0.8823  0.6049  2.4463
 3860SOL     OW12478   4.125   6.536   4.594 -0.1864 -0.0043  0.3136
 3860SOL    HW112479   4.172   6.454   4.559  0.7242  0.5046  0.3086
 3860SOL    HW212480   4.163   6.617   4.549 -0.0926  0.5325  1.3442
 3861SOL     OW12481   2.203   5.170   1.005 -0.0499  0.0499 -0.5498
 3861SOL    HW112482   2.279   5.151   1.068 -0.7292  0.4680  0.4327
 3861SOL    HW212483   2.128   5.106   1.025  0.1371 -0.5656 -1.7184
 3862SOL     OW12484   6.292   0.132   4.490  0.0446 -0.2052 -0.3446
 3862SOL    HW112485   6.295   0.071   4.569  0.9719 -0.1869 -0.3523
 3862SOL    HW212486   6.326   0.222   4.517 -2.3991  0.6918 -0.0380
 3863SOL     OW12487   3.246   2.531   1.074 -0.6027  0.4932 -0.0239
 3863SOL    HW112488   3.152   2.562   1.088 -0.7542 -0.0806  0.2723
 3863SOL    HW212489   3.281   2.567   0.987 -2.1816 -1.8276 -1.7218
 3864SOL     OW12490   2.793   6.649   3.467 -0.0132 -0.1235  0.2274
 3864SOL    HW112491   2.731   6.600   3.528 -1.1095 -1.2599 -1.7010
 3864SOL    HW212492   2.758   6.741   3.450  0.2833  0.1890  1.2264
 3865SOL     OW12493   4.479   6.824   2.428  0.3130 -0.4651 -0.2898
 3865SOL    HW112494   4.489   6.923   2.423  0.8513 -0.5609 -1.2904
 3865SOL    HW212495   4.563   6.784   2.462 -0.0262 -0.5629  0.4560
 3866SOL     OW12496   4.462   0.750   3.378 -0.6117  0.2440  0.9108
 3866SOL    HW112497   4.491   0.797   3.461 -0.0740  0.3947  0.6384
 3866SOL    HW212498   4.451   0.652   3.398 -3.0869  0.6274  1.8409
 3867SOL     OW12499   2.578   4.564   3.947 -0.1149  0.1278 -0.2079
 3867SOL    HW112500   2.583   4.596   4.041 -2.0480  0.3851 -0.1514
 3867SOL    HW212501   2.630   4.625   3.888  0.0942  0.6728  0.5268
 3868SOL     OW12502   1.685   6.943   3.055 -0.0641 -0.1435 -0.2369
 3868SOL    HW112503   1.646   7.008   3.120 -2.4173 -0.1342 -1.5520
 3868SOL    HW212504   1.780   6.923   3.081 -0.3280  1.2383  2.0918
 3869SOL     OW12505   2.655   0.986   2.791 -0.3208  0.3540  0.4418
 3869SOL    HW112506   2.652   1.007   2.889  1.3307  1.7050  0.2546
 3869SOL    HW212507   2.740   0.938   2.771 -0.3909  0.5903 -0.4218
 3870SOL     OW12508   2.744   3.111   0.545  0.0678  0.2136 -0.3376
 3870SOL    HW112509   2.831   3.080   0.585 -0.0147 -0.3232 -0.5663
 3870SOL    HW212510   2.744   3.211   0.539  1.3218  0.1583 -1.7838
 3871SOL     OW12511   2.485   0.901   3.629  0.2094  0.2541  0.4993
 3871SOL    HW112512   2.550   0.959   3.579  0.0355  0.8136  0.9068
 3871SOL    HW212513   2.429   0.959   3.688 -1.4095 -0.0805 -0.6531
 3872SOL     OW12514   6.349   4.616   0.090 -0.0679  0.3574  0.4070
 3872SOL    HW112515   6.379   4.609  -0.005 -0.5284  1.9731  0.1246
 3872SOL    HW212516   6.396   4.546   0.144  0.7055 -0.1545 -0.8766
 3873SOL     OW12517   6.339   6.234   1.623 -0.3514  0.3185 -0.0193
 3873SOL    HW112518   6.412   6.291   1.585  0.2225  0.3780  1.0934
 3873SOL    HW212519   6.285   6.194   1.550  0.2321  1.0236 -0.8488
 3874SOL     OW12520   0.851   6.244   3.708 -0.0842  0.1234  0.5730
 3874SOL    HW112521   0.872   6.284   3.797 -1.7221 -1.3825  1.7000
 3874SOL    HW212522   0.759   6.273   3.679 -0.3326 -0.9089  0.2957
 3875SOL     OW12523   4.010   3.415   6.990  0.7229  0.4940  0.1404
 3875SOL    HW112524   4.020   3.472   6.908  1.8913  2.1777  1.3633
 3875SOL    HW212525   4.076   3.445   7.060 -0.8207 -0.2660  2.0332
 3876SOL     OW12526   5.820   3.202   2.452  0.4686 -0.2994 -0.7415
 3876SOL    HW112527   5.822   3.180   2.354  0.9299  0.1409 -0.8328
 3876SOL    HW212528   5.790   3.296   2.465  2.9624  0.5386 -0.6312
 3877SOL     OW12529   5.206   1.105   0.440 -0.2244 -0.6830 -0.2946
 3877SOL    HW112530   5.145   1.026   0.443 -1.1492  0.0213  0.2280
 3877SOL    HW212531   5.162   1.178   0.387  0.5257 -0.4441 -0.5944
 3878SOL     OW12532   5.999   5.909   5.054 -0.5949  0.5172  0.0198
 3878SOL    HW112533   5.932   5.889   5.126 -0.4630  0.3873  0.1069
 3878SOL    HW212534   5.963   5.878   4.966 -0.3272 -0.2667  0.1742
 3879SOL     OW12535   2.779   0.385   1.179  0.4163 -0.0309  0.2037
 3879SOL    HW112536   2.735   0.371   1.268 -2.4624 -1.4087 -1.3164
 3879SOL    HW212537   2.814   0.298   1.144 -0.0007  0.1690 -0.7484
 3880SOL     OW12538   5.638   2.159   2.847 -0.1053  0.2092 -0.3336
 3880SOL    HW112539   5.695   2.077   2.857  0.2552  0.5111  0.1575
 3880SOL    HW212540   5.579   2.168   2.927 -1.9268 -0.9004 -1.4939
 3881SOL     OW12541   0.054   6.485   6.308  0.2149 -0.1726 -0.2162
 3881SOL    HW112542   0.105   6.449   6.386 -1.5867 -2.9138 -0.1676
 3881SOL    HW212543   0.115   6.491   6.229  1.1662 -1.1920  0.4063
 3882SOL     OW12544   0.040   5.475   0.917 -0.0338 -0.1279  0.3284
 3882SOL    HW112545   0.083   5.430   0.839  2.2686  0.0247  1.4265
 3882SOL    HW212546  -0.036   5.420   0.950 -0.6443 -0.5008 -1.5919
 3883SOL     OW12547   3.834   2.301   1.099  0.1310  0.1640 -0.2279
 3883SOL    HW112548   3.827   2.312   1.198 -1.3405  1.4166 -0.4251
 3883SOL    HW212549   3.913   2.244   1.076  1.9558  1.8691  1.5466
 3884SOL     OW12550   2.618   5.663   5.075  0.1714  0.8304  0.0430
 3884SOL    HW112551   2.655   5.749   5.041 -0.2215  0.4224 -1.5019
 3884SOL    HW212552   2.690   5.612   5.122  1.1109  0.8922 -1.2706
 3885SOL     OW12553   1.483   2.695   3.585  0.1496  0.0567 -0.2410
 3885SOL    HW112554   1.503   2.608   3.541  0.2579  0.4104 -0.8965
 3885SOL    HW212555   1.423   2.750   3.526 -1.0447 -0.1273  0.7606
 3886SOL     OW12556   0.188   4.074   4.963  0.1189  0.1297  0.0455
 3886SOL    HW112557   0.109   4.104   5.016 -0.7617 -0.5000 -0.8841
 3886SOL    HW212558   0.205   4.140   4.889  3.0685  2.5781  2.6304
 3887SOL     OW12559   2.277   3.331   5.518  0.4568 -0.2132  0.9692
 3887SOL    HW112560   2.283   3.278   5.434 -0.3645  1.0665  0.0683
 3887SOL    HW212561   2.180   3.342   5.543  0.6460  0.3700  1.4558
 3888SOL     OW12562   5.096   1.591   2.470  0.1657 -0.3218  0.0038
 3888SOL    HW112563   5.078   1.689   2.458  0.3764 -0.1235  1.2099
 3888SOL    HW212564   5.010   1.541   2.463  0.0908 -0.0891 -0.8915
 3889SOL     OW12565   5.545   4.873   1.368  0.1740 -0.5370 -0.1863
 3889SOL    HW112566   5.543   4.820   1.452  0.6376 -1.4292 -0.7166
 3889SOL    HW212567   5.582   4.964   1.386 -1.8358  0.1055  0.9825
 3890SOL     OW12568   4.898   4.258   4.174 -0.3764  0.2965  0.0678
 3890SOL    HW112569   4.977   4.236   4.117  0.7620  0.8977  1.3611
 3890SOL    HW212570   4.927   4.269   4.269 -1.9696  0.8225  0.5261
 3891SOL     OW12571   3.815   5.011   6.551  0.7622  0.6394  0.2989
 3891SOL    HW112572   3.744   4.943   6.534  0.3916  0.9654  0.5119
 3891SOL    HW212573   3.784   5.075   6.622  0.8061  1.4514 -0.3938
 3892SOL     OW12574   5.529   5.367   5.004 -0.1664 -0.6757 -0.2124
 3892SOL    HW112575   5.611   5.310   5.001  0.3619  0.0956 -2.2114
 3892SOL    HW212576   5.518   5.405   5.095  2.7397  0.6089 -0.2816
 3893SOL     OW12577   2.131   6.738   3.744 -0.2139  0.0299  0.3671
 3893SOL    HW112578   2.053   6.683   3.715 -1.4670  2.1326 -0.4598
 3893SOL    HW212579   2.158   6.799   3.669  0.5956  1.1009  1.4991
 3894SOL     OW12580   6.359   4.189   4.553 -0.4196  0.5110 -0.5702
 3894SOL    HW112581   6.457   4.201   4.542 -0.2806  1.2115  1.1518
 3894SOL    HW212582   6.311   4.264   4.508 -0.0601  1.1862  0.1475
 3895SOL     OW12583   1.224   3.596   6.008  0.1878 -0.3948  0.0583
 3895SOL    HW112584   1.176   3.553   5.932  0.0882  0.8301 -0.6028
 3895SOL    HW212585   1.320   3.611   5.983 -0.0389  0.7795 -0.1870
 3896SOL     OW12586   6.650   2.542   0.642  0.0232  0.0638 -0.4961
 3896SOL    HW112587   6.651   2.633   0.600  1.8530 -0.2193 -1.1592
 3896SOL    HW212588   6.720   2.485   0.599 -0.3510 -1.3203  0.6652
 3897SOL     OW12589   3.256   6.435   3.883  0.1435 -0.2208 -0.5593
 3897SOL    HW112590   3.211   6.349   3.860 -0.3986 -0.6146  1.7287
 3897SOL    HW212591   3.196   6.490   3.942  2.1131 -0.2833  1.6946
 3898SOL     OW12592   3.283   4.138   3.906 -0.4365  0.3887  0.2313
 3898SOL    HW112593   3.244   4.097   3.989 -0.4618 -0.0711 -0.0024
 3898SOL    HW212594   3.272   4.074   3.829 -1.0370  1.0968 -0.2870
 3899SOL     OW12595   4.354   1.296   5.314 -0.1612 -0.1332 -0.5533
 3899SOL    HW112596   4.273   1.352   5.297  0.4860  0.2438 -2.6564
 3899SOL    HW212597   4.372   1.238   5.234  1.8205  0.0183 -0.2617
 3900SOL     OW12598   3.211   2.136   3.988  0.0299  0.0982  0.3544
 3900SOL    HW112599   3.164   2.205   3.933 -1.2771 -0.7829  0.3217
 3900SOL    HW212600   3.196   2.046   3.947 -0.4105 -0.4987  1.7743
 3901SOL     OW12601   4.349   0.766   5.204 -0.6874 -0.2254 -0.4589
 3901SOL    HW112602   4.304   0.821   5.275 -1.6060 -1.5366  0.0171
 3901SOL    HW212603   4.444   0.795   5.195 -0.1468 -0.8810  2.2884
 3902SOL     OW12604   1.554   5.121   3.741  0.2341  0.1868  0.0547
 3902SOL    HW112605   1.527   5.028   3.716  0.3078  0.7651 -2.4415
 3902SOL    HW212606   1.632   5.149   3.687 -1.0327  2.4058 -0.7682
 3903SOL     OW12607   2.580   4.753   4.441 -0.2716 -0.3023 -0.3563
 3903SOL    HW112608   2.555   4.672   4.494  1.3627 -0.6050  0.0226
 3903SOL    HW212609   2.535   4.833   4.479  0.0793 -0.6692  0.8795
 3904SOL     OW12610   2.320   0.086   1.158 -0.1997  0.3554  0.3018
 3904SOL    HW112611   2.246   0.147   1.128  0.2853  1.9907  2.1838
 3904SOL    HW212612   2.380   0.136   1.220  2.1819 -1.1133 -0.6948
 3905SOL     OW12613   5.281   6.973   5.375 -0.2907  0.1148 -0.4447
 3905SOL    HW112614   5.191   6.965   5.417  0.2976 -0.4512  0.7903
 3905SOL    HW212615   5.298   6.893   5.317 -0.3226 -0.1257 -0.1276
 3906SOL     OW12616   6.139   4.341   2.180 -0.0303  0.1094 -0.2082
 3906SOL    HW112617   6.208   4.414   2.177 -0.5951  0.6865  0.7244
 3906SOL    HW212618   6.179   4.257   2.142  0.4686  1.0034 -1.7917
 3907SOL     OW12619   0.787   0.077   3.911  0.2594  0.1311  1.3079
 3907SOL    HW112620   0.820   0.090   4.004  1.8940 -0.7048  0.8771
 3907SOL    HW212621   0.807  -0.017   3.881  0.2087  0.5340 -0.0471
 3908SOL     OW12622   4.121   1.338   4.727  0.3662 -0.6342  0.0697
 3908SOL    HW112623   4.059   1.389   4.667  0.9248 -1.3501 -1.1563
 3908SOL    HW212624   4.156   1.399   4.798 -0.5622  0.1568 -0.1248
 3909SOL     OW12625   1.954   2.654   1.917  0.3761  0.2319  0.3008
 3909SOL    HW112626   1.906   2.741   1.905 -1.7673 -0.9414 -0.1694
 3909SOL    HW212627   1.906   2.599   1.985  2.3929 -0.1613  1.5035
 3910SOL     OW12628   3.898   2.721   6.048 -0.6460  0.6705 -0.3094
 3910SOL    HW112629   3.996   2.701   6.043 -0.3184  2.1118 -0.2539
 3910SOL    HW212630   3.860   2.680   6.130 -0.2479 -0.4841 -0.6815
 3911SOL     OW12631   5.206   1.028   1.949  0.4060  0.2330 -0.4075
 3911SOL    HW112632   5.117   1.026   1.995  1.7255 -0.9790  2.3790
 3911SOL    HW212633   5.264   0.956   1.987  2.7170  1.2256 -1.8368
 3912SOL     OW12634   5.491   5.204   0.571  0.6542 -0.3719 -0.4305
 3912SOL    HW112635   5.590   5.214   0.567  0.5090  1.9081  0.0536
 3912SOL    HW212636   5.461   5.206   0.666  0.0865 -0.2140 -0.6081
 3913SOL     OW12637   3.849   2.884   5.221  0.6539 -0.4790  0.2388
 3913SOL    HW112638   3.895   2.959   5.174 -1.4549  1.8636  1.6123
 3913SOL    HW212639   3.917   2.827   5.267  2.4577 -0.5501 -2.3021
 3914SOL     OW12640   6.177   6.890   0.085 -0.6321  0.1305  0.5158
 3914SOL    HW112641   6.253   6.867   0.024 -0.3832  0.6266  0.6376
 3914SOL    HW212642   6.157   6.811   0.143 -0.0646  0.0619  0.6305
 3915SOL     OW12643   4.176   6.818   3.470 -0.3584 -0.3022  0.1392
 3915SOL    HW112644   4.213   6.739   3.422  0.5829  0.2744 -0.1131
 3915SOL    HW212645   4.245   6.890   3.474 -0.8479  0.1264  1.2723
 3916SOL     OW12646   1.403   2.263   1.889  0.3080 -0.6770 -0.4968
 3916SOL    HW112647   1.398   2.246   1.987 -1.8709  1.7417 -0.0624
 3916SOL    HW212648   1.432   2.180   1.842 -0.6970 -2.5853  2.0113
 3917SOL     OW12649   3.415   6.123   2.369 -0.0194 -0.1598 -0.4999
 3917SOL    HW112650   3.340   6.096   2.309  0.9366  0.1120 -1.8729
 3917SOL    HW212651   3.438   6.048   2.430  1.3487 -1.8931 -2.9515
 3918SOL     OW12652   3.593   6.495   6.001  0.0485  0.1051 -0.0266
 3918SOL    HW112653   3.541   6.440   5.936 -2.0002  1.8470  0.0395
 3918SOL    HW212654   3.656   6.554   5.951  1.0198 -1.0051 -0.1783
 3919SOL     OW12655   4.746   4.626   4.081  0.2975 -0.4436 -0.6975
 3919SOL    HW112656   4.661   4.580   4.054 -0.8006  1.2434 -0.3118
 3919SOL    HW212657   4.752   4.629   4.180  0.0714  0.6222 -0.6929
 3920SOL     OW12658   5.581   5.123   5.436  0.2956  0.0683  0.0346
 3920SOL    HW112659   5.608   5.204   5.385  0.2601 -0.7381 -1.2988
 3920SOL    HW212660   5.627   5.042   5.399  0.7327 -0.4819  1.6684
 3921SOL     OW12661   1.512   4.765   6.024  0.2054 -0.7084 -0.1125
 3921SOL    HW112662   1.548   4.857   6.030 -0.2370 -0.6006  1.1973
 3921SOL    HW212663   1.586   4.699   6.034  0.3412 -0.4932  0.3095
 3922SOL     OW12664   5.515   0.916   3.481  0.0893  0.1633  0.9463
 3922SOL    HW112665   5.442   0.933   3.415  1.0328 -0.1425 -0.2188
 3922SOL    HW212666   5.560   1.003   3.504  0.1161  0.2003  0.7551
 3923SOL     OW12667   4.714   0.539   2.245 -0.7914 -0.0862 -0.2049
 3923SOL    HW112668   4.708   0.442   2.225 -1.3324  0.0301 -0.6459
 3923SOL    HW212669   4.639   0.587   2.199  0.0878  0.6830 -0.8743
 3924SOL     OW12670   4.870   5.421   4.576  0.2565 -0.0106 -0.2140
 3924SOL    HW112671   4.832   5.359   4.507 -1.1008  1.9123 -1.2980
 3924SOL    HW212672   4.929   5.488   4.533  0.9403  0.0559  0.7902
 3925SOL     OW12673   3.737   5.297   2.097 -0.0134 -0.0273 -0.0338
 3925SOL    HW112674   3.659   5.273   2.155  0.6411  1.5229  1.5830
 3925SOL    HW212675   3.703   5.335   2.010 -1.0474 -0.0712  0.3346
 3926SOL     OW12676   0.685   5.083   0.655  0.0019  0.0653  0.5427
 3926SOL    HW112677   0.727   5.164   0.699 -0.3675  0.8785 -0.5722
 3926SOL    HW212678   0.638   5.029   0.725 -1.7516  2.0510  1.0164
 3927SOL     OW12679   1.728   0.264   6.142 -0.3542  0.0055 -0.5007
 3927SOL    HW112680   1.655   0.315   6.188  0.5937  1.6106 -0.6864
 3927SOL    HW212681   1.816   0.284   6.187  0.1840 -0.6849 -1.2151
 3928SOL     OW12682   1.589   4.363   1.657 -0.5345  0.6562 -0.4387
 3928SOL    HW112683   1.664   4.375   1.722 -1.3501  0.5391  0.5363
 3928SOL    HW212684   1.615   4.403   1.569 -0.0909  2.4138  0.4403
 3929SOL     OW12685   2.647   0.882   6.110 -0.4428 -0.6041  0.4467
 3929SOL    HW112686   2.656   0.893   6.011  0.8019 -0.2654  0.5764
 3929SOL    HW212687   2.664   0.787   6.135  1.1507 -0.3304  0.4987
 3930SOL     OW12688   0.975   5.219   4.359 -0.0592 -0.3979 -0.3685
 3930SOL    HW112689   1.013   5.310   4.339  0.9261 -0.6786  0.1522
 3930SOL    HW212690   0.975   5.164   4.275  3.8393 -1.4936  0.1535
 3931SOL     OW12691   1.239   2.465   6.821  0.0902  0.4886  0.1452
 3931SOL    HW112692   1.276   2.465   6.728 -1.4194 -3.4246 -0.6990
 3931SOL    HW212693   1.295   2.406   6.879 -1.8209 -1.4325  0.1723
 3932SOL     OW12694   1.163   4.396   2.739 -0.3396  0.4131 -0.5147
 3932SOL    HW112695   1.261   4.413   2.732 -0.3785  1.1983  0.5571
 3932SOL    HW212696   1.113   4.475   2.705 -0.5714  0.6481  0.3364
 3933SOL     OW12697   2.056   0.374   1.881 -0.2660  0.2336 -0.0307
 3933SOL    HW112698   2.131   0.386   1.816  1.0408  0.7562  1.4876
 3933SOL    HW212699   1.982   0.437   1.860 -0.0095  0.1552 -1.1905
 3934SOL     OW12700   1.446   6.897   2.190 -0.3893 -0.6795  0.2930
 3934SOL    HW112701   1.488   6.821   2.240 -0.5394 -1.0872 -0.1932
 3934SOL    HW212702   1.510   6.973   2.184  0.6964 -1.6846 -1.3879
 3935SOL     OW12703   5.735   0.849   5.488  0.3798 -0.4931 -0.5338
 3935SOL    HW112704   5.787   0.769   5.518 -1.6100 -1.4882  0.4549
 3935SOL    HW212705   5.664   0.819   5.423 -1.0550  0.2555  0.6310
 3936SOL     OW12706   5.926   5.198   4.860  0.2683 -0.4131 -0.1841
 3936SOL    HW112707   5.903   5.263   4.787  0.3194  1.2466  1.1966
 3936SOL    HW212708   5.873   5.115   4.849 -0.5662  0.2534 -1.4636
 3937SOL     OW12709   1.432   5.309   1.369 -0.1266  0.0035 -0.5247
 3937SOL    HW112710   1.335   5.332   1.377 -0.1588 -0.3866  0.3231
 3937SOL    HW212711   1.487   5.390   1.390 -0.2493 -0.4299  1.7732
 3938SOL     OW12712   1.844   5.522   5.638  1.2322  0.8058  0.1471
 3938SOL    HW112713   1.749   5.501   5.615  2.0321 -1.4332 -1.3585
 3938SOL    HW212714   1.855   5.622   5.643 -1.1735  1.1300  0.4338
 3939SOL     OW12715   1.338   6.056   4.961  0.0681  0.1540  0.1771
 3939SOL    HW112716   1.289   6.029   4.879 -3.9181  3.2713  1.2172
 3939SOL    HW212717   1.432   6.082   4.937 -0.4613 -0.5403 -3.0274
 3940SOL     OW12718   1.757   5.589   0.214  0.0963  0.4638 -0.1057
 3940SOL    HW112719   1.790   5.683   0.208  0.8093  0.6144  3.6883
 3940SOL    HW212720   1.660   5.590   0.239 -0.3689  0.1010 -1.7642
 3941SOL     OW12721   4.879   5.363   3.178 -0.7868 -0.2130 -0.4391
 3941SOL    HW112722   4.851   5.341   3.085 -0.6639  1.4271 -0.8804
 3941SOL    HW212723   4.938   5.443   3.178  0.9127 -1.3815  0.8600
 3942SOL     OW12724   2.043   0.988   0.851  0.5828  0.3765 -0.0883
 3942SOL    HW112725   2.060   1.081   0.883 -0.2877  0.6207 -0.3040
 3942SOL    HW212726   1.950   0.983   0.813  1.1483 -0.2103 -1.4320
 3943SOL     OW12727   0.716   5.373   6.807 -0.0273  0.4597 -0.3158
 3943SOL    HW112728   0.661   5.356   6.725  1.5661  0.0751 -1.3334
 3943SOL    HW212729   0.655   5.386   6.886 -1.5689  0.3215 -1.4503
 3944SOL     OW12730   5.621   0.884   6.841 -0.4243 -0.4340  0.3645
 3944SOL    HW112731   5.527   0.852   6.829  0.3460 -2.8132 -0.0232
 3944SOL    HW212732   5.632   0.923   6.932 -1.2090 -2.5595  1.4369
 3945SOL     OW12733   1.458   0.505   3.272 -0.1128 -0.1004 -0.7962
 3945SOL    HW112734   1.391   0.467   3.209  0.9432 -0.5275 -1.7017
 3945SOL    HW212735   1.438   0.473   3.365 -2.3834  1.4832 -0.6660
 3946SOL     OW12736   4.957   1.637   6.936  0.4089 -0.2918 -0.7736
 3946SOL    HW112737   4.974   1.594   6.847 -1.4392 -1.2488 -0.7081
 3946SOL    HW212738   4.864   1.618   6.965  0.7360  0.6490  1.0494
 3947SOL     OW12739   3.666   6.656   1.135 -0.7745  0.9344  0.7078
 3947SOL    HW112740   3.707   6.647   1.044 -0.4154 -1.9093  1.0363
 3947SOL    HW212741   3.596   6.727   1.133 -0.2643  1.4767 -1.5876
 3948SOL     OW12742   1.905   2.297   3.061  0.2536 -0.0820 -0.2506
 3948SOL    HW112743   1.962   2.331   2.987  0.2460 -0.5018 -0.4537
 3948SOL    HW212744   1.920   2.352   3.143  0.4661  0.2121 -0.4863
 3949SOL     OW12745   6.945   6.871   3.448  0.6129  0.8081  0.2446
 3949SOL    HW112746   7.012   6.891   3.519  0.7536 -3.5081  1.6315
 3949SOL    HW212747   6.987   6.813   3.378 -0.8944  0.6545 -0.5782
 3950SOL     OW12748   2.359   3.876   0.490 -0.2403  0.2675  0.6864
 3950SOL    HW112749   2.387   3.830   0.575 -2.3060 -1.7401  0.3828
 3950SOL    HW212750   2.277   3.930   0.507 -0.4384  0.1713  0.0360
 3951SOL     OW12751   5.739   3.687   3.908  0.1628 -0.4550  0.5374
 3951SOL    HW112752   5.726   3.780   3.876  0.4790 -0.9254 -1.0645
 3951SOL    HW212753   5.821   3.682   3.965  0.5077  0.1300  0.0970
 3952SOL     OW12754   5.294   5.882   0.438  0.0424 -0.7528  0.0506
 3952SOL    HW112755   5.321   5.787   0.456  2.0019 -0.3265 -0.4008
 3952SOL    HW212756   5.304   5.936   0.522 -1.0056 -0.9050  0.2893
 3953SOL     OW12757   3.424   2.985   4.575  0.3080 -0.0519 -0.3946
 3953SOL    HW112758   3.352   3.000   4.644  0.7673  0.0964  0.0584
 3953SOL    HW212759   3.392   2.918   4.508 -0.2674  0.0346 -0.2151
 3954SOL     OW12760   6.772   5.495   0.357  0.1288 -0.2925  0.1465
 3954SOL    HW112761   6.809   5.410   0.317  0.2081 -0.6320  0.9183
 3954SOL    HW212762   6.847   5.546   0.400  0.0967  0.2226 -0.3967
 3955SOL     OW12763   5.787   3.343   0.920 -0.5784 -0.0848 -0.5300
 3955SOL    HW112764   5.746   3.251   0.922 -2.5783  0.7390 -0.9745
 3955SOL    HW212765   5.854   3.348   0.846  0.7804 -1.6327  0.5327
 3956SOL     OW12766   6.719   3.380   4.851  0.2117 -0.1018  0.4478
 3956SOL    HW112767   6.759   3.375   4.942  0.5400  0.6394  0.3550
 3956SOL    HW212768   6.637   3.437   4.853  0.6336  0.5289  0.1508
 3957SOL     OW12769   6.902   2.630   0.877 -0.0009 -0.2874 -0.2346
 3957SOL    HW112770   6.921   2.556   0.813  0.0621 -0.6792  0.2372
 3957SOL    HW212771   6.835   2.601   0.944 -0.4671  0.3014 -0.4329
 3958SOL     OW12772   4.933   3.211   2.141  0.6000  0.3648  0.5018
 3958SOL    HW112773   4.909   3.249   2.230 -1.1062 -1.2894  0.8188
 3958SOL    HW212774   4.854   3.162   2.103  2.0084 -1.0131 -0.8219
 3959SOL     OW12775   3.381   4.138   5.139  0.0056 -0.1418 -0.1212
 3959SOL    HW112776   3.421   4.051   5.169 -1.6915 -0.2592  2.0546
 3959SOL    HW212777   3.297   4.119   5.087 -0.4992  0.1937  0.5661
 3960SOL     OW12778   5.831   3.095   1.721 -0.5817 -0.4657  0.5255
 3960SOL    HW112779   5.760   3.128   1.782 -1.6549  0.5047 -1.1789
 3960SOL    HW212780   5.833   3.151   1.638  0.5859 -1.9367 -0.4999
 3961SOL     OW12781   0.535   1.695   0.155 -0.1907 -0.4542 -0.1673
 3961SOL    HW112782   0.620   1.738   0.186 -0.3386 -0.5116  0.3302
 3961SOL    HW212783   0.554   1.602   0.123 -0.0015 -0.3175 -0.4524
 3962SOL     OW12784   0.122   6.382   5.502  0.3382  0.4926 -0.2403
 3962SOL    HW112785   0.051   6.451   5.513  0.1930  0.6303 -1.7763
 3962SOL    HW212786   0.161   6.389   5.410  2.5302  0.5862  0.6448
 3963SOL     OW12787   5.406   2.359   4.858  0.5210  0.1097  0.3927
 3963SOL    HW112788   5.360   2.293   4.917 -0.8891 -0.2576 -1.0455
 3963SOL    HW212789   5.414   2.447   4.906 -0.9471 -0.0599  1.0001
 3964SOL     OW12790   0.427   4.938   6.186 -0.1830 -0.2142  0.2081
 3964SOL    HW112791   0.441   5.033   6.156 -0.0881  0.0584  1.0912
 3964SOL    HW212792   0.335   4.909   6.161 -0.0836 -0.0169 -0.4033
 3965SOL     OW12793   1.838   4.187   1.085 -0.1628  0.0647 -0.0853
 3965SOL    HW112794   1.815   4.233   1.171 -2.5429 -0.9768 -0.0775
 3965SOL    HW212795   1.791   4.232   1.009 -0.6901 -0.9367 -0.3743
 3966SOL     OW12796   1.137   3.825   5.382  0.0950  0.3235 -0.6014
 3966SOL    HW112797   1.164   3.730   5.391  0.2838  0.3504 -0.8634
 3966SOL    HW212798   1.123   3.847   5.285  2.5156  1.2045 -0.8289
 3967SOL     OW12799   3.169   6.157   1.155 -0.0819  0.5238  0.2605
 3967SOL    HW112800   3.244   6.221   1.135 -2.5816  3.4522 -0.5116
 3967SOL    HW212801   3.108   6.198   1.223 -2.5803 -0.3793 -1.3315
 3968SOL     OW12802   4.043   2.572   1.334  0.2734 -0.5511  0.0140
 3968SOL    HW112803   4.057   2.525   1.421  1.6056 -1.1161 -0.4724
 3968SOL    HW212804   4.125   2.560   1.277  0.3428  1.7153 -0.4280
 3969SOL     OW12805   0.659   0.711   0.725 -0.0981  0.4083 -0.0411
 3969SOL    HW112806   0.573   0.668   0.699 -0.0781 -0.2421  0.9407
 3969SOL    HW212807   0.695   0.762   0.647 -0.9182 -0.0451 -0.7335
 3970SOL     OW12808   4.638   4.282   3.785 -0.7135  0.1629 -0.2106
 3970SOL    HW112809   4.569   4.337   3.738 -2.8615 -1.4501  0.9102
 3970SOL    HW212810   4.639   4.304   3.882  1.2908  1.0376 -0.3781
 3971SOL     OW12811   0.752   5.482   3.912 -0.5089 -0.0875  0.3599
 3971SOL    HW112812   0.703   5.484   3.999 -0.8709  0.1442  0.1506
 3971SOL    HW212813   0.689   5.460   3.838 -0.2694  0.0600  0.1107
 3972SOL     OW12814   6.861   0.804   6.780  0.3149  0.6699 -0.2810
 3972SOL    HW112815   6.776   0.855   6.793 -0.4890 -0.3261 -1.4728
 3972SOL    HW212816   6.841   0.707   6.764  1.7048  0.3089  0.0040
 3973SOL     OW12817   1.576   0.936   0.994 -0.0332 -0.3413 -0.1012
 3973SOL    HW112818   1.611   1.029   0.998 -2.0196  0.4841 -0.4741
 3973SOL    HW212819   1.488   0.931   1.041  0.6565 -2.3811  1.1213
 3974SOL     OW12820   5.119   1.251   6.501 -0.3519 -0.0984  0.6035
 3974SOL    HW112821   5.103   1.335   6.554 -0.0128 -0.3814  1.1613
 3974SOL    HW212822   5.207   1.259   6.453  0.2306 -0.5681  1.5455
 3975SOL     OW12823   6.587   6.127   2.596 -0.0194 -0.5092 -0.3090
 3975SOL    HW112824   6.602   6.173   2.508  0.8271  1.6634  0.8943
 3975SOL    HW212825   6.674   6.088   2.628 -0.0034 -0.0379  0.2248
 3976SOL     OW12826   0.152   4.219   4.723 -0.2536 -0.2060  0.5458
 3976SOL    HW112827   0.079   4.158   4.691  0.0258  0.4375 -1.5056
 3976SOL    HW212828   0.114   4.310   4.739 -0.3763 -0.5106  2.0956
 3977SOL     OW12829   2.723   5.093   4.712  0.3794 -0.4316 -0.2678
 3977SOL    HW112830   2.818   5.103   4.742  0.0936  0.6753  0.3078
 3977SOL    HW212831   2.707   4.997   4.687  1.1926 -1.0043  1.2289
 3978SOL     OW12832   4.052   3.632   1.203 -0.0863  0.3517 -0.6664
 3978SOL    HW112833   4.078   3.621   1.107 -0.3435  0.3566 -0.7377
 3978SOL    HW212834   4.090   3.556   1.257  0.7402  0.7874 -0.6327
 3979SOL     OW12835   1.066   6.840   3.410 -0.1585 -0.0117  0.3898
 3979SOL    HW112836   1.130   6.843   3.334 -0.0294  0.3034  0.5091
 3979SOL    HW212837   0.979   6.880   3.382 -0.5589 -1.1265 -0.0053
 3980SOL     OW12838   5.301   3.051   3.891 -0.1309  0.6261  0.3184
 3980SOL    HW112839   5.212   3.097   3.892  0.3024  1.6356 -1.4293
 3980SOL    HW212840   5.360   3.091   3.961 -0.3211  1.6134 -0.0567
 3981SOL     OW12841   6.931   1.712   6.794  0.5255 -0.1663 -0.8525
 3981SOL    HW112842   6.831   1.711   6.802  0.4405  0.2616 -1.7613
 3981SOL    HW212843   6.972   1.688   6.882 -0.3790 -0.2502 -0.4498
 3982SOL     OW12844   1.163   2.307   1.046  0.1017 -0.0144  0.4668
 3982SOL    HW112845   1.081   2.290   1.100 -0.9820  1.1931 -0.7267
 3982SOL    HW212846   1.208   2.390   1.080  1.0878 -0.8736  1.3590
 3983SOL     OW12847   2.303   1.036   4.113 -0.5051  0.0360  0.0104
 3983SOL    HW112848   2.259   1.028   4.024  0.3166 -0.8228 -0.3392
 3983SOL    HW212849   2.242   1.002   4.185 -1.1127  0.6009 -0.2355
 3984SOL     OW12850   0.909   0.540   3.711  0.3887 -0.3600 -0.6040
 3984SOL    HW112851   0.949   0.631   3.725  1.0122 -0.9028  1.4129
 3984SOL    HW212852   0.851   0.517   3.789 -0.9300 -1.1405 -1.7665
 3985SOL     OW12853   0.461   0.914   0.892  0.0587  0.7567 -0.1074
 3985SOL    HW112854   0.500   0.927   0.800 -0.0579  2.5342  0.0628
 3985SOL    HW212855   0.535   0.907   0.959  0.1265  2.0910 -0.0307
 3986SOL     OW12856   1.146   0.939   3.833 -0.1521 -0.0650  0.9888
 3986SOL    HW112857   1.185   0.957   3.743 -1.0066 -1.0666  0.3968
 3986SOL    HW212858   1.219   0.909   3.895  0.3466  0.0600  0.4788
 3987SOL     OW12859   0.918   3.236   5.206  0.5562  0.4307 -0.3445
 3987SOL    HW112860   0.999   3.186   5.176 -0.3365 -0.0867 -1.9901
 3987SOL    HW212861   0.946   3.322   5.249  2.0504 -0.7739  1.2504
 3988SOL     OW12862   4.505   5.243   2.715  0.1926 -0.7612  0.0348
 3988SOL    HW112863   4.464   5.198   2.794  0.2666 -1.0442 -0.0863
 3988SOL    HW212864   4.591   5.287   2.742 -0.7186  0.7838  0.5465
 3989SOL     OW12865   6.619   0.953   6.805  0.7549  0.0344 -0.9176
 3989SOL    HW112866   6.519   0.952   6.810  0.8061 -0.2372  0.7156
 3989SOL    HW212867   6.649   1.021   6.738 -0.5089  1.3391 -0.2155
 3990SOL     OW12868   5.639   5.034   3.680 -0.4036  0.1544 -0.5010
 3990SOL    HW112869   5.578   5.101   3.723  0.3663  0.3489  0.3145
 3990SOL    HW212870   5.676   5.072   3.596  2.4290  2.0809  1.4545
 3991SOL     OW12871   4.676   2.178   6.393  0.3652  0.2694 -0.0748
 3991SOL    HW112872   4.595   2.235   6.392  0.2745  0.2842  2.1478
 3991SOL    HW212873   4.667   2.108   6.465  1.3448 -1.2267 -1.3320
 3992SOL     OW12874   0.455   2.185   5.230 -0.2190  0.1681  0.2760
 3992SOL    HW112875   0.435   2.092   5.199  0.1147  0.2461 -0.1924
 3992SOL    HW212876   0.482   2.241   5.151  0.2123  0.4920  0.6489
 3993SOL     OW12877   6.379   1.220   4.475  0.5458  0.8351  0.0939
 3993SOL    HW112878   6.320   1.254   4.401 -3.4932 -2.2843  1.4778
 3993SOL    HW212879   6.458   1.174   4.436 -0.8434  0.2824 -2.3125
 3994SOL     OW12880   1.761   2.086   3.808 -0.7226  0.0913  0.0222
 3994SOL    HW112881   1.663   2.077   3.828 -0.6036  0.2936  0.7405
 3994SOL    HW212882   1.813   2.023   3.865 -0.3796  0.5405  0.2190
 3995SOL     OW12883   3.219   4.317   0.892 -0.3247 -0.4737  1.1769
 3995SOL    HW112884   3.123   4.343   0.906 -0.9221  0.8281 -3.4882
 3995SOL    HW212885   3.278   4.392   0.920 -1.0390  0.4481  0.3081
 3996SOL     OW12886   6.542   5.179   4.513  0.1155  0.2335  0.3987
 3996SOL    HW112887   6.539   5.149   4.608 -1.0936  1.2151  0.6916
 3996SOL    HW212888   6.603   5.258   4.505  0.1549  0.2002  0.3610
 3997SOL     OW12889   6.517   3.701   5.637  0.2049  0.3276 -0.0433
 3997SOL    HW112890   6.584   3.650   5.690 -0.4759  0.5928  1.1153
 3997SOL    HW212891   6.476   3.772   5.695 -2.1555 -0.7852 -0.2459
 3998SOL     OW12892   4.774   2.377   2.800 -0.0865  0.2064  0.2320
 3998SOL    HW112893   4.809   2.435   2.727 -1.6953  0.6508 -0.2385
 3998SOL    HW212894   4.795   2.281   2.780 -0.5500  0.3173 -0.8644
 3999SOL     OW12895   4.044   2.603   6.583  0.1415  0.1525 -0.1678
 3999SOL    HW112896   4.004   2.657   6.657  2.7935  0.8319  0.8795
 3999SOL    HW212897   4.012   2.509   6.591 -0.7257  0.5050  0.9704
 4000SOL     OW12898   3.082   5.217   2.001 -0.0465  0.0078 -0.8155
 4000SOL    HW112899   3.086   5.238   1.904  1.6469  0.4157 -0.6927
 4000SOL    HW212900   3.085   5.301   2.054 -5.5196  0.2513 -0.3063
 4001SOL     OW12901   0.786   6.611   4.018  0.2728 -0.7184 -0.1534
 4001SOL    HW112902   0.802   6.513   4.009  0.6451 -0.5868 -1.0421
 4001SOL    HW212903   0.781   6.652   3.927 -0.2878  0.0245  0.2037
 4002SOL     OW12904   3.101   4.369   5.814 -0.6287 -0.1246 -0.8917
 4002SOL    HW112905   3.037   4.391   5.741 -1.2663  0.4207 -0.1704
 4002SOL    HW212906   3.123   4.451   5.866 -1.0120 -0.7005  0.1982
 4003SOL     OW12907   1.294   1.503   3.918  0.0179  0.4788  0.3094
 4003SOL    HW112908   1.359   1.489   3.843 -0.7723  0.3823 -0.3769
 4003SOL    HW212909   1.277   1.415   3.964 -2.9610 -0.5511 -2.3505
 4004SOL     OW12910   1.649   3.535   5.548  0.1802  0.0912 -0.0400
 4004SOL    HW112911   1.669   3.536   5.646 -0.2928  0.4779  0.0527
 4004SOL    HW212912   1.624   3.627   5.517  1.0323  0.1210 -0.6722
 4005SOL     OW12913   5.836   0.658   1.483 -0.4282 -0.0051  0.0119
 4005SOL    HW112914   5.909   0.725   1.496 -0.7150  0.1651  0.8137
 4005SOL    HW212915   5.862   0.593   1.411  1.4807 -1.2816  1.7432
 4006SOL     OW12916   1.972   4.505   1.533  0.0022 -0.2295 -0.1345
 4006SOL    HW112917   2.038   4.573   1.501 -0.0701 -0.7759 -1.5212
 4006SOL    HW212918   1.909   4.548   1.598 -1.1160  1.5436 -2.2389
 4007SOL     OW12919   2.306   1.831   1.442  0.3782  0.1984 -0.8783
 4007SOL    HW112920   2.325   1.737   1.414  1.8967  0.4933 -0.9386
 4007SOL    HW212921   2.296   1.835   1.542  0.5979  0.0116 -0.8480
 4008SOL     OW12922   2.922   5.982   3.622 -0.3291 -0.3824  0.0375
 4008SOL    HW112923   2.920   6.030   3.710  0.6931 -2.4076  1.2656
 4008SOL    HW212924   3.011   5.996   3.579 -0.1190 -0.9238  0.2810
 4009SOL     OW12925   4.396   2.595   0.114 -0.1653  0.3460 -0.0673
 4009SOL    HW112926   4.356   2.521   0.060 -0.4067  0.7685 -0.4660
 4009SOL    HW212927   4.374   2.683   0.073  0.2274  0.6396  0.3373
 4010SOL     OW12928   2.642   5.867   0.967 -0.2479  0.0338 -0.5212
 4010SOL    HW112929   2.574   5.894   0.899  0.9262  1.5145 -1.1699
 4010SOL    HW212930   2.732   5.860   0.923  0.2718 -0.5137  0.5892
 4011SOL     OW12931   6.051   5.202   5.904 -0.7753 -0.1111 -0.4974
 4011SOL    HW112932   6.099   5.165   5.983 -0.7957  0.5028 -0.1897
 4011SOL    HW212933   6.080   5.153   5.821 -0.8127 -0.8038 -0.1039
 4012SOL     OW12934   6.971   3.157   1.965 -0.2063  0.1187 -0.2463
 4012SOL    HW112935   7.048   3.215   1.937  0.8797 -1.5641 -0.8567
 4012SOL    HW212936   6.896   3.166   1.899  0.6664 -0.5548 -1.3421
 4013SOL     OW12937   0.428   1.648   6.205  1.2563  0.0109  0.4908
 4013SOL    HW112938   0.433   1.724   6.270  0.7803 -0.1583  0.7372
 4013SOL    HW212939   0.392   1.681   6.118  1.2705  0.1132  0.5238
 4014SOL     OW12940   4.780   4.909   2.149 -0.6295 -0.1885  0.4219
 4014SOL    HW112941   4.853   4.841   2.160 -0.1133  0.5030  1.3517
 4014SOL    HW212942   4.719   4.880   2.075 -0.7148 -1.9328  1.1209
 4015SOL     OW12943   2.956   6.500   5.476  0.4619  0.1522 -0.4547
 4015SOL    HW112944   2.975   6.561   5.553 -3.7059  3.1739 -1.4902
 4015SOL    HW212945   2.897   6.425   5.506  1.9546 -0.9293 -0.0833
 4016SOL     OW12946   3.140   6.954   4.825  0.3743  0.5913 -0.2955
 4016SOL    HW112947   3.126   6.933   4.728  2.3005  0.5955 -0.6151
 4016SOL    HW212948   3.057   6.932   4.876 -0.4019 -0.1913 -1.8196
 4017SOL     OW12949   2.341   5.286   0.223 -0.0534 -0.4810  0.3065
 4017SOL    HW112950   2.335   5.188   0.243 -1.3522 -0.7350 -1.1641
 4017SOL    HW212951   2.380   5.333   0.302  1.8490 -2.3313  0.5545
 4018SOL     OW12952   4.719   6.389   1.987  0.7828 -0.0672  0.7501
 4018SOL    HW112953   4.742   6.483   2.013  1.2373  0.0924 -0.1759
 4018SOL    HW212954   4.760   6.325   2.052 -0.8062  0.4072  2.2759
 4019SOL     OW12955   1.677   1.359   2.152  0.5611  0.6694 -0.5069
 4019SOL    HW112956   1.642   1.436   2.207 -1.2167 -0.2362 -0.3016
 4019SOL    HW212957   1.676   1.384   2.055 -1.0206  0.5773 -0.5408
 4020SOL     OW12958   6.847   5.678   3.392  0.4194  0.5062  0.2303
 4020SOL    HW112959   6.801   5.738   3.457  0.8610  1.4512 -0.3094
 4020SOL    HW212960   6.922   5.630   3.438 -0.1899  0.0475  0.7616
 4021SOL     OW12961   5.520   5.383   0.342  0.0047 -0.1112  0.0432
 4021SOL    HW112962   5.501   5.311   0.410 -3.3850 -2.0136 -2.5563
 4021SOL    HW212963   5.613   5.372   0.307  0.8864 -0.7669  2.4193
 4022SOL     OW12964   4.276   0.723   1.931  0.5721  0.0461 -0.3958
 4022SOL    HW112965   4.204   0.762   1.988  0.0330 -1.3406 -0.0873
 4022SOL    HW212966   4.316   0.795   1.874 -0.5700  0.9742 -0.0680
 4023SOL     OW12967   0.555   2.877   2.458  0.2281 -0.4203 -0.2167
 4023SOL    HW112968   0.628   2.944   2.469  1.6524 -1.5324 -2.2601
 4023SOL    HW212969   0.521   2.850   2.548  2.3607  0.0911  0.8121
 4024SOL     OW12970   1.569   0.075   4.793  0.0099  0.0074  0.4451
 4024SOL    HW112971   1.614   0.145   4.737  0.0751 -0.5367 -0.1932
 4024SOL    HW212972   1.585   0.094   4.890 -2.3890  2.5760  0.4875
 4025SOL     OW12973   1.752   6.141   4.580 -0.1076 -0.5961  0.5796
 4025SOL    HW112974   1.830   6.088   4.548 -0.1285 -0.2766 -0.0111
 4025SOL    HW212975   1.779   6.236   4.595 -0.4045 -0.4618  0.2723
 4026SOL     OW12976   6.573   5.061   5.492 -0.2032  0.0295  0.0173
 4026SOL    HW112977   6.583   5.065   5.591 -0.3986  0.4438  0.0209
 4026SOL    HW212978   6.480   5.030   5.469 -1.0400  2.3522 -0.0277
 4027SOL     OW12979   1.706   5.977   2.965 -0.2550 -0.4885  0.0071
 4027SOL    HW112980   1.798   6.004   2.994 -0.1947 -1.0378  0.3384
 4027SOL    HW212981   1.710   5.891   2.915 -0.5308 -0.2525 -0.4319
 4028SOL     OW12982   5.468   2.038   4.084  0.0125 -0.4619  0.3320
 4028SOL    HW112983   5.393   2.054   4.020 -0.2688 -0.1062  0.7454
 4028SOL    HW212984   5.504   2.125   4.117  1.1938 -0.6080 -0.5221
 4029SOL     OW12985   1.988   0.796   1.820 -0.1427  0.8971 -0.2787
 4029SOL    HW112986   1.940   0.881   1.840 -1.5871  0.1961 -0.6809
 4029SOL    HW212987   1.942   0.720   1.864  1.3371  0.3318  0.3720
 4030SOL     OW12988   5.924   0.024   1.642 -0.3544 -0.1799  0.6694
 4030SOL    HW112989   5.959   0.050   1.733 -0.0804 -0.4313  0.6359
 4030SOL    HW212990   5.947   0.096   1.576  1.0054 -0.8071  0.4378
 4031SOL     OW12991   5.643   5.999   1.963 -0.2544  0.3218  0.6542
 4031SOL    HW112992   5.681   6.031   2.050  1.5755  1.0259 -0.3324
 4031SOL    HW212993   5.717   5.959   1.908 -1.2433  0.4699 -0.8278
 4032SOL     OW12994   4.159   2.245   2.437 -0.1430  0.3655  0.0301
 4032SOL    HW112995   4.232   2.240   2.369 -2.0857 -1.1449 -2.1225
 4032SOL    HW212996   4.096   2.319   2.414 -1.0881 -0.4701 -0.1911
 4033SOL     OW12997   2.502   4.486   4.331  0.5565  0.4286 -0.1441
 4033SOL    HW112998   2.594   4.519   4.311  0.7385 -0.0485 -0.1026
 4033SOL    HW212999   2.441   4.507   4.255  0.6533  0.9137 -0.0909
 4034SOL     OW13000   2.750   1.965   4.865  0.1948 -0.2123  0.6901
 4034SOL    HW113001   2.655   1.940   4.885  0.7530 -2.9856  0.3294
 4034SOL    HW213002   2.769   1.949   4.769  0.7699  1.3746  0.5174
 4035SOL     OW13003   3.471   0.413   0.049  0.1399  0.0145 -0.4348
 4035SOL    HW113004   3.512   0.370  -0.031  2.3741 -0.5420  0.9145
 4035SOL    HW213005   3.418   0.345   0.099  1.2458 -0.4583  0.1310
 4036SOL     OW13006   5.239   6.996   2.827  0.0737 -0.2085  0.2469
 4036SOL    HW113007   5.274   7.025   2.916  0.5911 -2.0362  0.6879
 4036SOL    HW213008   5.312   6.999   2.759  0.0242 -0.0808  0.1997
 4037SOL     OW13009   1.086   1.175   4.794  0.1195  0.4998 -0.1442
 4037SOL    HW113010   1.029   1.218   4.724 -1.3659  0.9385  1.2631
 4037SOL    HW213011   1.045   1.089   4.822 -0.1479  1.0652  1.2551
 4038SOL     OW13012   5.347   4.313   6.847 -0.4914  0.2387 -0.1267
 4038SOL    HW113013   5.345   4.382   6.918  1.8630 -0.1306  0.3747
 4038SOL    HW213014   5.436   4.314   6.801 -0.2937 -2.5461  0.0214
 4039SOL     OW13015   0.218   5.154   1.372 -0.2500  0.8747 -0.5619
 4039SOL    HW113016   0.133   5.197   1.401 -0.0938  1.6491 -1.2171
 4039SOL    HW213017   0.225   5.158   1.272 -0.6051 -1.4051 -0.7248
 4040SOL     OW13018   3.413   5.740   4.881  0.0104 -0.0663  0.4049
 4040SOL    HW113019   3.497   5.794   4.878 -1.2657  2.1218  1.6177
 4040SOL    HW213020   3.348   5.775   4.814 -1.1164  0.4025  1.7158
 4041SOL     OW13021   0.002   6.865   3.135  0.4410  0.1901  0.1772
 4041SOL    HW113022  -0.042   6.930   3.073  1.0808  0.5565  0.0957
 4041SOL    HW213023   0.095   6.896   3.154  1.2332 -1.3827 -0.9093
 4042SOL     OW13024   1.357   1.590   3.460  0.5263  0.2791 -0.4386
 4042SOL    HW113025   1.304   1.595   3.375 -1.5228 -1.1135  0.6583
 4042SOL    HW213026   1.371   1.682   3.496 -2.1882  0.7272 -0.2519
 4043SOL     OW13027   3.188   2.321   6.470  0.4566 -0.2662  0.2535
 4043SOL    HW113028   3.260   2.311   6.401  2.0386  1.1304  1.5882
 4043SOL    HW213029   3.229   2.354   6.555 -1.8294  0.8152  1.0004
 4044SOL     OW13030   4.945   4.437   2.108 -0.1592  0.5474  0.1241
 4044SOL    HW113031   5.027   4.420   2.162 -1.5437 -3.3345  1.3244
 4044SOL    HW213032   4.966   4.426   2.010  0.9145  0.4838  0.3531
 4045SOL     OW13033   4.550   2.248   4.585  0.2137  0.1699 -0.1296
 4045SOL    HW113034   4.554   2.208   4.677  1.3240  2.7001  0.9867
 4045SOL    HW213035   4.468   2.305   4.578  0.0213 -0.1820 -0.8161
 4046SOL     OW13036   6.512   6.866   4.252  0.2220  0.2423 -0.2914
 4046SOL    HW113037   6.421   6.908   4.248  0.0438 -0.1148 -0.0602
 4046SOL    HW213038   6.520   6.796   4.181 -0.5565 -1.4131  1.1628
 4047SOL     OW13039   1.152   1.937   5.608 -0.2468 -0.4821  0.3828
 4047SOL    HW113040   1.208   1.998   5.664 -0.5534  1.1494 -0.9872
 4047SOL    HW213041   1.211   1.875   5.556  0.1098 -0.8604  1.2274
 4048SOL     OW13042   6.838   1.601   3.793 -0.6147 -0.4011 -0.6540
 4048SOL    HW113043   6.928   1.561   3.776  0.0621  0.4718  0.7100
 4048SOL    HW213044   6.818   1.670   3.724  0.4211  0.4188 -0.1686
 4049SOL     OW13045   3.282   3.599   2.933  0.1984  0.3322 -0.3865
 4049SOL    HW113046   3.300   3.543   2.852 -1.0917  0.1462 -0.5614
 4049SOL    HW213047   3.364   3.604   2.989  1.0142  0.1951 -1.5423
 4050SOL     OW13048   5.860   2.955   2.934  0.2739  0.9342 -0.4771
 4050SOL    HW113049   5.763   2.964   2.959  0.1297 -0.0505 -0.6419
 4050SOL    HW213050   5.869   2.954   2.834  0.0111 -2.5386 -0.6002
 4051SOL     OW13051   6.218   6.012   3.104  0.1519 -0.2207 -0.2371
 4051SOL    HW113052   6.244   6.038   3.197  1.2489 -0.6683 -0.3969
 4051SOL    HW213053   6.238   6.087   3.041 -0.6250  0.0959 -0.1175
 4052SOL     OW13054   4.726   1.174   0.130 -0.1200 -0.5371 -0.1745
 4052SOL    HW113055   4.810   1.139   0.090 -0.7510  0.2752 -2.3880
 4052SOL    HW213056   4.717   1.142   0.224  2.9106 -0.1616  0.3205
 4053SOL     OW13057   2.315   3.287   1.305 -0.9231  0.0163 -0.2131
 4053SOL    HW113058   2.341   3.234   1.386 -2.6427 -0.3480  0.1304
 4053SOL    HW213059   2.357   3.378   1.311  0.7820 -0.7335 -0.0449
 4054SOL     OW13060   3.573   5.523   0.959  0.5149 -0.3192  0.1123
 4054SOL    HW113061   3.539   5.437   0.997 -0.3982 -0.1444 -0.2584
 4054SOL    HW213062   3.508   5.556   0.889  1.7711 -0.2756 -1.0796
 4055SOL     OW13063   0.204   2.570   1.696  0.3626  0.2497 -0.1959
 4055SOL    HW113064   0.170   2.489   1.743  1.2073 -0.9792 -1.6496
 4055SOL    HW213065   0.260   2.625   1.759 -0.2175 -0.2759  0.7909
 4056SOL     OW13066   5.299   4.702   0.415  0.4811 -0.0327 -0.2119
 4056SOL    HW113067   5.350   4.700   0.330 -0.0782  0.1260 -0.5547
 4056SOL    HW213068   5.242   4.784   0.418  0.8758  0.2239  0.5407
 4057SOL     OW13069   6.696   4.026   5.485 -0.2998 -0.0742 -0.6582
 4057SOL    HW113070   6.674   3.929   5.478  0.7310 -0.4895  1.2193
 4057SOL    HW213071   6.796   4.038   5.484 -0.3873  0.8537  0.0612
 4058SOL     OW13072   3.876   1.575   3.071  0.1576 -0.2239  0.1581
 4058SOL    HW113073   3.885   1.672   3.094  0.1464 -0.5781  1.7667
 4058SOL    HW213074   3.964   1.539   3.040  0.7156 -0.1791  1.6118
 4059SOL     OW13075   6.077   1.433   3.779 -0.3942  0.8016  0.1622
 4059SOL    HW113076   6.126   1.437   3.691 -1.1245 -1.3667 -0.4094
 4059SOL    HW213077   6.073   1.339   3.811 -0.2383  1.5321  2.5277
 4060SOL     OW13078   6.248   6.640   4.013 -0.1520  0.3732  0.1181
 4060SOL    HW113079   6.232   6.642   3.914 -1.7101  0.2301  0.3417
 4060SOL    HW213080   6.214   6.725   4.054 -0.6670 -0.1037  0.6860
 4061SOL     OW13081   1.812   3.595   1.262 -0.0962  0.0837  0.2015
 4061SOL    HW113082   1.835   3.499   1.249 -1.3073 -0.3534  1.0142
 4061SOL    HW213083   1.793   3.611   1.359 -1.8635  0.6478 -0.1878
 4062SOL     OW13084   3.508   3.124   0.108  0.4852  0.0492 -0.0066
 4062SOL    HW113085   3.479   3.115   0.204  2.6132  1.6183  0.8488
 4062SOL    HW213086   3.427   3.130   0.050 -0.8984 -2.3076  1.4805
 4063SOL     OW13087   5.169   1.342   1.617 -0.0701  0.3095 -0.1425
 4063SOL    HW113088   5.138   1.257   1.661 -0.6479 -0.6194 -2.2130
 4063SOL    HW213089   5.101   1.414   1.633  0.5128  0.4764  1.7854
 4064SOL     OW13090   3.823   2.275   5.424  0.7782  0.2260 -0.1743
 4064SOL    HW113091   3.913   2.315   5.440  0.1936  0.8707  1.8222
 4064SOL    HW213092   3.752   2.338   5.456 -0.3914 -0.3626 -1.5081
 4065SOL     OW13093   2.661   1.588   2.445 -0.2222 -0.8300  0.7378
 4065SOL    HW113094   2.578   1.550   2.486 -0.8650  0.3809  0.6113
 4065SOL    HW213095   2.644   1.609   2.349  0.9019 -2.5279  0.1260
 4066SOL     OW13096   0.859   4.736   3.686  0.0180  0.2188 -0.6827
 4066SOL    HW113097   0.782   4.692   3.733  0.2367  1.4345  0.8855
 4066SOL    HW213098   0.829   4.767   3.595 -1.9504  2.2769  0.5608
 4067SOL     OW13099   6.336   3.414   1.629  0.2297  0.0029  0.0341
 4067SOL    HW113100   6.348   3.513   1.628  0.4255  0.0030 -2.2201
 4067SOL    HW213101   6.405   3.371   1.571 -0.3265 -1.3989  0.3643
 4068SOL     OW13102   1.018   1.561   6.869  0.7100 -0.4917 -0.3995
 4068SOL    HW113103   1.018   1.653   6.829  1.0532 -0.2671  0.1026
 4068SOL    HW213104   1.070   1.499   6.810  1.4265 -0.1033 -0.1878
 4069SOL     OW13105   4.121   0.334   6.717 -0.0078  0.0198 -0.6348
 4069SOL    HW113106   4.107   0.432   6.702 -0.3157  0.0867  0.0443
 4069SOL    HW213107   4.191   0.301   6.655  0.6390  0.8319 -0.3600
 4070SOL     OW13108   3.332   3.311   5.544  0.3286  0.0316  0.1354
 4070SOL    HW113109   3.306   3.242   5.611  2.0440 -0.7004  0.1115
 4070SOL    HW213110   3.256   3.327   5.482 -0.4029 -1.2220  0.6567
 4071SOL     OW13111   1.481   2.000   4.585 -0.2339  0.3535 -1.1414
 4071SOL    HW113112   1.433   2.087   4.599  1.7620  1.7823 -2.6150
 4071SOL    HW213113   1.576   2.010   4.612 -0.3167 -1.9041  0.1336
 4072SOL     OW13114   2.333   6.615   0.075  0.1291 -0.1495  0.2077
 4072SOL    HW113115   2.412   6.675   0.061  0.4420 -0.8873 -1.4076
 4072SOL    HW213116   2.348   6.529   0.027 -1.1792 -0.7522  0.8344
 4073SOL     OW13117   5.323   4.987   0.767 -0.3034  0.2007 -0.7809
 4073SOL    HW113118   5.316   4.893   0.798  0.7180 -0.0195 -1.1911
 4073SOL    HW213119   5.352   5.045   0.843  0.7258 -0.0947 -0.9409
 4074SOL     OW13120   1.190   6.619   6.785  0.2250 -0.1307  0.3577
 4074SOL    HW113121   1.283   6.591   6.810  1.5053 -0.6142 -3.9812
 4074SOL    HW213122   1.147   6.547   6.730 -0.7376  1.9405 -1.8142
 4075SOL     OW13123   4.841   0.262   0.797 -0.5433  0.1122 -0.0714
 4075SOL    HW113124   4.899   0.246   0.876 -0.5691  1.1851  0.1835
 4075SOL    HW213125   4.777   0.186   0.785  0.5959 -0.8588 -0.0828
 4076SOL     OW13126   0.415   5.156   4.151 -0.1126  0.5098 -0.2944
 4076SOL    HW113127   0.475   5.135   4.228 -0.5009  2.1818  0.5105
 4076SOL    HW213128   0.459   5.128   4.066  1.2622  0.5535  0.3701
 4077SOL     OW13129   3.841   1.759   1.592 -0.1172  0.2331  0.0896
 4077SOL    HW113130   3.786   1.809   1.525 -0.7078 -2.9980 -2.0810
 4077SOL    HW213131   3.781   1.704   1.650  0.5413  1.5447  2.1475
 4078SOL     OW13132   4.482   4.643   3.313 -0.3807 -0.0103 -0.4248
 4078SOL    HW113133   4.580   4.655   3.325 -0.5512  1.7843 -0.5332
 4078SOL    HW213134   4.442   4.728   3.277 -1.8398 -0.9889 -1.2278
 4079SOL     OW13135   2.026   3.302   3.391 -0.0360 -0.0912 -0.3553
 4079SOL    HW113136   1.942   3.319   3.340  0.1924 -0.3611 -0.8225
 4079SOL    HW213137   2.069   3.219   3.358 -0.4718 -0.9153  1.0408
 4080SOL     OW13138   0.657   1.695   3.318 -0.5118 -0.6835 -0.3268
 4080SOL    HW113139   0.582   1.695   3.384 -0.5000  1.4894 -0.2365
 4080SOL    HW213140   0.741   1.665   3.362 -0.3000  1.5995  0.9761
 4081SOL     OW13141   6.788   2.796   3.114  0.2614  0.5033  0.1191
 4081SOL    HW113142   6.735   2.866   3.161 -0.6210 -0.2854  0.3082
 4081SOL    HW213143   6.819   2.727   3.179  1.9452  1.1760  0.1025
 4082SOL     OW13144   6.525   2.728   1.780  0.2801 -0.1636  0.2034
 4082SOL    HW113145   6.547   2.815   1.826  0.7160  0.5837 -1.3568
 4082SOL    HW213146   6.528   2.654   1.847  0.4929  0.9261  1.4565
 4083SOL     OW13147   6.494   4.641   6.883  0.3160 -0.8766 -0.0716
 4083SOL    HW113148   6.491   4.637   6.784 -2.6185  1.7454 -0.2326
 4083SOL    HW213149   6.550   4.718   6.913  0.7892 -1.3591  0.3052
 4084SOL     OW13150   5.283   0.517   6.106  0.5656  0.3910 -0.2893
 4084SOL    HW113151   5.322   0.583   6.043  1.3172 -0.4846 -0.7733
 4084SOL    HW213152   5.331   0.521   6.193  1.6044 -0.4913 -0.7934
 4085SOL     OW13153   1.959   5.993   5.083 -0.4677 -0.1406  0.1935
 4085SOL    HW113154   1.902   6.074   5.099  1.1040  0.8750  0.9403
 4085SOL    HW213155   2.056   6.019   5.089  0.0825 -2.0619  0.3001
 4086SOL     OW13156   0.770   1.069   2.347 -0.2117  0.0256 -0.3520
 4086SOL    HW113157   0.750   0.988   2.291 -0.8549 -0.8204  1.0415
 4086SOL    HW213158   0.868   1.076   2.362  0.0094  0.4926 -1.8850
 4087SOL     OW13159   6.488   1.395   4.649  0.5307  0.1205  0.0840
 4087SOL    HW113160   6.436   1.480   4.643  1.6614  0.8947  0.6876
 4087SOL    HW213161   6.444   1.324   4.594 -0.1103  1.2677 -0.9256
 4088SOL     OW13162   1.850   5.025   4.943  0.4595  0.6849  0.0305
 4088SOL    HW113163   1.945   5.037   4.974  0.1423 -1.5973  2.1528
 4088SOL    HW213164   1.787   5.051   5.017 -0.4281 -1.4823  0.1029
 4089SOL     OW13165   2.308   3.876   6.492  0.4015  0.2966 -0.3061
 4089SOL    HW113166   2.271   3.787   6.520 -1.1084  1.0873  0.3077
 4089SOL    HW213167   2.238   3.946   6.504  2.1151  1.8906  0.9879
 4090SOL     OW13168   3.881   0.448   0.047 -0.5200  0.2136  0.9378
 4090SOL    HW113169   3.862   0.362  -0.001  1.2314 -0.5375  1.5172
 4090SOL    HW213170   3.873   0.524  -0.017 -2.9787 -0.2268  0.6037
 4091SOL     OW13171   3.788   6.700   0.574 -0.5550  0.1643  0.3370
 4091SOL    HW113172   3.842   6.623   0.607 -1.5917 -0.5562  0.3857
 4091SOL    HW213173   3.838   6.785   0.591  0.5756 -0.4839  0.3301
 4092SOL     OW13174   0.996   2.925   3.487  0.2130  0.3680 -0.1042
 4092SOL    HW113175   0.974   2.832   3.459  0.2543  0.5709 -0.8341
 4092SOL    HW213176   0.919   2.964   3.537  0.0906  0.0449 -0.0357
 4093SOL     OW13177   4.003   6.077   6.101  0.0922  0.0075 -0.6081
 4093SOL    HW113178   3.955   6.137   6.036 -0.7752 -1.6421 -1.5531
 4093SOL    HW213179   3.937   6.039   6.166  0.7656  0.6841  0.5071
 4094SOL     OW13180   3.796   2.270   1.378 -0.0697  0.2305  0.1626
 4094SOL    HW113181   3.742   2.338   1.429 -1.2693  0.3390 -1.1797
 4094SOL    HW213182   3.768   2.178   1.406 -0.2773  0.2897  0.1517
 4095SOL     OW13183   4.482   5.107   5.793 -0.0375  0.0123 -0.5092
 4095SOL    HW113184   4.505   5.064   5.706  0.9370 -1.6485  0.5152
 4095SOL    HW213185   4.420   5.048   5.844 -0.2339  0.7536  0.1261
 4096SOL     OW13186   3.685   6.247   2.628 -0.0681  0.7054 -0.1564
 4096SOL    HW113187   3.611   6.280   2.687  1.3470  1.4570  1.3022
 4096SOL    HW213188   3.686   6.147   2.627  0.4742  0.6465  1.9680
 4097SOL     OW13189   3.212   3.604   4.158  0.2854  0.7692 -0.2177
 4097SOL    HW113190   3.278   3.538   4.121 -1.2477 -0.0409 -1.6138
 4097SOL    HW213191   3.225   3.693   4.114  0.9416  0.8475  0.1090
 4098SOL     OW13192   0.003   1.936   2.414  0.4768  0.4177  0.1684
 4098SOL    HW113193  -0.003   2.004   2.342 -0.5113 -0.7203 -0.8761
 4098SOL    HW213194  -0.051   1.965   2.493 -0.9365  0.3292 -0.7286
 4099SOL     OW13195   3.509   5.511   2.205  0.1585  0.4469 -0.3721
 4099SOL    HW113196   3.470   5.512   2.113  1.1250  1.2954 -0.7866
 4099SOL    HW213197   3.532   5.417   2.231 -0.7020  0.1247 -0.7259
 4100SOL     OW13198   2.425   1.477   2.555  0.0129  0.4529 -0.0430
 4100SOL    HW113199   2.327   1.474   2.534 -0.3706  1.0424  1.5710
 4100SOL    HW213200   2.465   1.388   2.533 -1.2318 -0.3661  0.8402
 4101SOL     OW13201   6.214   0.749   1.037  0.2361  0.2020  0.1756
 4101SOL    HW113202   6.272   0.757   1.119  0.3391  0.2478  0.0991
 4101SOL    HW213203   6.119   0.763   1.062  0.2647  0.1912  0.2929
 4102SOL     OW13204   0.462   2.747   6.282 -0.2820  0.1977  0.2443
 4102SOL    HW113205   0.473   2.769   6.379 -0.3623  1.8350 -0.0911
 4102SOL    HW213206   0.427   2.827   6.234  0.6274 -0.2944 -1.2939
 4103SOL     OW13207   6.277   0.511   2.941 -0.1462  0.0441 -0.5247
 4103SOL    HW113208   6.289   0.439   3.010  0.1352 -0.0341 -0.6531
 4103SOL    HW213209   6.202   0.486   2.880  1.2334 -1.1555 -1.8289
 4104SOL     OW13210   2.898   5.384   2.761 -0.1923  0.0705  0.0742
 4104SOL    HW113211   2.863   5.294   2.735  0.0470 -0.5077  1.6508
 4104SOL    HW213212   2.969   5.374   2.831  0.3715  1.4469 -0.2656
 4105SOL     OW13213   1.336   3.068   0.379 -0.8341  1.1153 -0.4084
 4105SOL    HW113214   1.344   3.143   0.313  0.0304  0.8691 -0.5976
 4105SOL    HW213215   1.395   3.086   0.458 -1.1743  0.9763 -0.1207
 4106SOL     OW13216   0.518   3.913   3.613 -0.4949 -0.0177  0.0928
 4106SOL    HW113217   0.473   3.963   3.539  0.5323  0.8541  0.0390
 4106SOL    HW213218   0.574   3.840   3.574 -0.4074  0.0753  0.0440
 4107SOL     OW13219   6.992   0.795   1.324 -0.6222 -0.1949 -0.0776
 4107SOL    HW113220   6.963   0.797   1.420 -2.9916  0.6037 -0.7381
 4107SOL    HW213221   7.034   0.883   1.301  1.0134 -0.7985  0.4867
 4108SOL     OW13222   0.095   2.870   4.654  0.6378  0.0874  0.3121
 4108SOL    HW113223   0.149   2.786   4.652 -0.3361 -0.6727  2.5112
 4108SOL    HW213224   0.017   2.858   4.717 -2.1719  1.0882 -2.6862
 4109SOL     OW13225   1.791   6.701   3.944 -0.3439  0.5850 -0.3010
 4109SOL    HW113226   1.850   6.664   3.873  1.0708  0.5883  0.8167
 4109SOL    HW213227   1.719   6.757   3.903  0.2203  0.2878 -1.7261
 4110SOL     OW13228   6.759   2.468   4.790 -0.0228 -0.3986  0.6704
 4110SOL    HW113229   6.812   2.434   4.868 -0.7996 -0.3502  1.2360
 4110SOL    HW213230   6.710   2.393   4.746  0.5240 -0.4466  0.1398
 4111SOL     OW13231   4.065   5.147   5.697 -0.5599 -0.0979 -0.2544
 4111SOL    HW113232   4.067   5.079   5.624  1.7603  0.6321 -0.9742
 4111SOL    HW213233   4.120   5.115   5.774 -2.0905 -0.3800  0.7728
 4112SOL     OW13234   3.269   0.004   5.479 -0.0209  0.3936 -0.1042
 4112SOL    HW113235   3.362  -0.033   5.478 -0.4485 -0.7240  0.2771
 4112SOL    HW213236   3.256   0.059   5.561  0.3692  0.7673 -0.2843
 4113SOL     OW13237   4.989   6.907   5.360  0.3432  0.3131  0.2629
 4113SOL    HW113238   4.901   6.945   5.330 -0.7344 -0.0725  2.6744
 4113SOL    HW213239   5.006   6.822   5.311  1.4251  2.2880 -3.1498
 4114SOL     OW13240   3.756   1.944   1.351 -0.4687  0.3325 -0.3260
 4114SOL    HW113241   3.678   1.899   1.307 -0.4333  1.3394 -1.4459
 4114SOL    HW213242   3.839   1.928   1.297  0.0759 -0.4793  0.7025
 4115SOL     OW13243   5.597   4.477   3.160 -0.2336  0.1013  0.2614
 4115SOL    HW113244   5.620   4.568   3.125 -1.7675  1.1510  1.8176
 4115SOL    HW213245   5.533   4.486   3.236 -0.5778 -2.3150  0.3303
 4116SOL     OW13246   3.941   1.139   0.368 -0.1553  0.9569  0.5757
 4116SOL    HW113247   3.948   1.052   0.418  2.3226  0.0209 -1.2217
 4116SOL    HW213248   4.005   1.205   0.408  0.8663  0.6300 -0.4759
 4117SOL     OW13249   0.726   6.980   0.904  0.0940  0.3776  0.1173
 4117SOL    HW113250   0.694   6.898   0.953  0.8907 -0.6773 -1.0767
 4117SOL    HW213251   0.674   7.059   0.936  0.0589 -0.3787  2.1042
 4118SOL     OW13252   1.209   0.401   6.361  0.0934  0.0107  0.4016
 4118SOL    HW113253   1.127   0.454   6.339  0.7059  0.2167 -1.5896
 4118SOL    HW213254   1.277   0.413   6.288  1.5829 -0.8071  1.6048
 4119SOL     OW13255   6.111   0.212   3.072 -0.0536  0.7750  0.2273
 4119SOL    HW113256   6.147   0.119   3.085  2.6055  1.3926 -1.7650
 4119SOL    HW213257   6.180   0.279   3.102 -0.6333  2.0717 -1.2007
 4120SOL     OW13258   4.790   0.441   1.699 -0.2400  0.1273  0.0778
 4120SOL    HW113259   4.724   0.515   1.689 -2.3418 -1.0124  3.5868
 4120SOL    HW213260   4.757   0.359   1.651  0.7947  0.6341 -1.6038
 4121SOL     OW13261   0.019   1.964   4.196 -0.8791 -0.2566  0.0482
 4121SOL    HW113262  -0.034   1.977   4.280 -1.5778 -1.9589 -0.0797
 4121SOL    HW213263   0.020   2.049   4.144 -0.6676  0.7562  1.6362
 4122SOL     OW13264   1.379   5.785   0.896  0.0668 -0.2407  0.4111
 4122SOL    HW113265   1.369   5.708   0.959 -2.1026 -0.5774 -0.2725
 4122SOL    HW213266   1.330   5.864   0.932 -2.3623 -0.8237 -1.3753
 4123SOL     OW13267   2.577   3.555   6.854 -0.2304 -0.1586 -0.0119
 4123SOL    HW113268   2.533   3.505   6.929  1.4387 -0.1968  0.9867
 4123SOL    HW213269   2.660   3.506   6.826 -1.8053 -1.2693 -3.3194
 4124SOL     OW13270   4.499   5.976   4.592  0.3188  0.2640  0.6835
 4124SOL    HW113271   4.442   5.901   4.627 -0.8405  0.3603 -0.8780
 4124SOL    HW213272   4.591   5.942   4.572 -0.3797 -0.9452 -0.6423
 4125SOL     OW13273   4.807   2.979   0.086 -0.0412 -0.6566 -0.1553
 4125SOL    HW113274   4.872   2.914   0.046 -0.0077 -0.3479 -0.6084
 4125SOL    HW213275   4.857   3.058   0.122 -0.0853 -0.8567  0.3524
 4126SOL     OW13276   1.824   4.198   4.509  0.4780 -0.2932  0.2191
 4126SOL    HW113277   1.752   4.134   4.535  0.3606  0.2175  1.2329
 4126SOL    HW213278   1.802   4.240   4.421  0.5107 -1.5572 -0.4110
 4127SOL     OW13279   6.019   3.039   4.213 -0.0951  0.2964  0.6922
 4127SOL    HW113280   5.960   2.989   4.149  1.5490 -0.9779  0.1000
 4127SOL    HW213281   5.973   3.122   4.242 -1.4293  0.2777 -1.1632
 4128SOL     OW13282   6.877   1.535   3.423 -0.2410 -0.0616 -0.1610
 4128SOL    HW113283   6.955   1.556   3.364 -0.0104 -0.5756 -0.0356
 4128SOL    HW213284   6.798   1.590   3.394 -0.8800 -2.1032 -2.5897
 4129SOL     OW13285   1.576   4.551   6.524 -0.5070  0.8136 -0.1801
 4129SOL    HW113286   1.597   4.510   6.435  0.5046  0.7152  0.0939
 4129SOL    HW213287   1.498   4.613   6.514 -0.2897  0.9437 -1.1760
 4130SOL     OW13288   5.235   2.335   3.073  0.8788 -0.4667  0.0573
 4130SOL    HW113289   5.253   2.293   3.162 -0.1875 -2.2361 -0.5122
 4130SOL    HW213290   5.320   2.371   3.035  1.7561 -1.7004  0.8024
 4131SOL     OW13291   0.461   4.044   2.573  0.2024 -0.6942 -0.1085
 4131SOL    HW113292   0.450   4.140   2.546  1.8494 -0.6226 -0.6062
 4131SOL    HW213293   0.446   4.036   2.672 -1.3656 -0.1945 -0.2767
 4132SOL     OW13294   5.641   2.256   4.174 -0.1833 -0.2078  0.1132
 4132SOL    HW113295   5.605   2.223   4.261 -2.4195  0.3545 -0.5432
 4132SOL    HW213296   5.675   2.349   4.184 -1.9965  0.4922  0.0645
 4133SOL     OW13297   2.731   2.864   0.827 -0.0115 -0.0484  0.2478
 4133SOL    HW113298   2.701   2.856   0.922 -1.4341 -2.3045 -0.3105
 4133SOL    HW213299   2.679   2.936   0.782 -0.6675 -0.2067  0.7281
 4134SOL     OW13300   2.304   1.039   6.868  0.5914 -0.8740  0.0343
 4134SOL    HW113301   2.331   1.135   6.866 -0.2537 -0.4557  3.4187
 4134SOL    HW213302   2.227   1.024   6.805 -0.1634  1.0084  0.4567
 4135SOL     OW13303   1.033   1.453   0.441  0.0097 -0.3211  0.0256
 4135SOL    HW113304   0.947   1.448   0.391 -0.4291  1.0728  0.5800
 4135SOL    HW213305   1.092   1.523   0.401 -0.0703  0.3395  1.0117
 4136SOL     OW13306   1.542   2.462   3.417  0.0788 -0.0584  0.6998
 4136SOL    HW113307   1.599   2.433   3.493  0.0928 -1.1066  0.3016
 4136SOL    HW213308   1.600   2.496   3.342  0.0658  0.9491  1.1374
 4137SOL     OW13309   5.557   2.069   4.456  0.4645  0.2994  0.2605
 4137SOL    HW113310   5.555   2.016   4.541 -0.6866  1.1427  0.8023
 4137SOL    HW213311   5.483   2.038   4.396  1.0623 -0.0628 -0.2975
 4138SOL     OW13312   4.910   5.792   0.889  0.1437 -0.1937 -0.0464
 4138SOL    HW113313   4.858   5.775   0.973  1.7721 -0.5584  0.9499
 4138SOL    HW213314   4.910   5.710   0.832 -0.1285 -0.2795  0.0770
 4139SOL     OW13315   5.639   0.585   6.453  0.3163  0.0710 -0.4086
 4139SOL    HW113316   5.728   0.572   6.497  0.6923  0.2684 -1.0945
 4139SOL    HW213317   5.649   0.646   6.375 -0.8337  1.9055  0.8121
 4140SOL     OW13318   5.202   2.269   5.310 -0.0024  0.4894  0.6617
 4140SOL    HW113319   5.194   2.249   5.407  1.8226 -0.1852  0.7161
 4140SOL    HW213320   5.154   2.354   5.289 -2.0406 -0.3173  1.7535
 4141SOL     OW13321   4.710   4.670   1.288 -0.5538  0.0815 -0.1011
 4141SOL    HW113322   4.782   4.693   1.223 -1.7432  1.2747 -1.0485
 4141SOL    HW213323   4.742   4.688   1.381  0.5119  0.1592 -0.4665
 4142SOL     OW13324   0.896   2.958   2.331 -0.4673 -0.3250 -0.8150
 4142SOL    HW113325   0.862   2.877   2.379  1.6975 -0.3325  0.8487
 4142SOL    HW213326   0.857   3.041   2.373 -1.2048 -0.4175 -1.2928
 4143SOL     OW13327   1.815   1.891   2.811 -0.1646  0.0131  0.0168
 4143SOL    HW113328   1.887   1.961   2.817 -0.3651  0.1058  1.6968
 4143SOL    HW213329   1.821   1.845   2.722  0.5977  1.4828 -0.7327
 4144SOL     OW13330   4.718   0.920   2.106 -0.0937  0.5971  0.1726
 4144SOL    HW113331   4.679   0.834   2.137  1.9674 -0.4437  0.0213
 4144SOL    HW213332   4.680   0.995   2.161 -1.4407 -0.4510  0.7307
 4145SOL     OW13333   2.738   6.578   3.763 -0.2199  0.0824 -0.4610
 4145SOL    HW113334   2.719   6.527   3.847 -0.5423 -1.0856 -1.2052
 4145SOL    HW213335   2.696   6.530   3.685 -0.0144  1.1869 -1.2745
 4146SOL     OW13336   4.399   2.718   1.342 -0.0024  0.2875 -0.7463
 4146SOL    HW113337   4.494   2.735   1.368 -0.2263 -0.2249  0.4785
 4146SOL    HW213338   4.374   2.625   1.368 -0.8191  0.3816 -1.1637
 4147SOL     OW13339   3.321   1.887   6.547  0.5840 -0.4312  0.7477
 4147SOL    HW113340   3.338   1.872   6.450  0.8804  1.6911  0.4394
 4147SOL    HW213341   3.396   1.939   6.587 -0.2170 -0.0118  1.7731
 4148SOL     OW13342   5.167   5.119   2.541 -0.4773  0.6552  0.1081
 4148SOL    HW113343   5.112   5.040   2.567 -3.1597  1.9656 -1.2717
 4148SOL    HW213344   5.261   5.089   2.522 -1.2559 -2.0769  0.1452
 4149SOL     OW13345   5.333   4.302   2.134  0.0737  0.1379 -0.3209
 4149SOL    HW113346   5.285   4.220   2.163  2.9474 -1.2200  0.9922
 4149SOL    HW213347   5.309   4.378   2.194  0.6044 -0.8706  1.2244
 4150SOL     OW13348   5.272   1.926   3.295  0.0837  0.3403 -0.7573
 4150SOL    HW113349   5.335   1.888   3.363 -0.7070  0.5141  0.0905
 4150SOL    HW213350   5.244   2.018   3.323 -0.9466  0.0637 -0.8466
 4151SOL     OW13351   6.519   5.740   6.919  0.4448  0.5534 -0.2467
 4151SOL    HW113352   6.593   5.752   6.853  0.8274  0.7162  0.2052
 4151SOL    HW213353   6.534   5.656   6.971 -1.0564 -0.8130 -1.8924
 4152SOL     OW13354   4.505   5.431   1.352  0.1021  0.1752 -0.4243
 4152SOL    HW113355   4.464   5.519   1.326  4.0602  2.6192  0.7657
 4152SOL    HW213356   4.457   5.395   1.432 -0.4462  2.3012  0.2749
 4153SOL     OW13357   5.370   5.499   1.147 -0.4762  0.1516 -0.5187
 4153SOL    HW113358   5.449   5.453   1.107  1.0248 -0.0608  2.4152
 4153SOL    HW213359   5.378   5.597   1.134 -0.8777  0.0035 -2.0746
 4154SOL     OW13360   4.922   2.506   3.975  0.3411 -0.3373 -0.1270
 4154SOL    HW113361   4.849   2.453   4.018  0.4715 -0.6242 -0.2566
 4154SOL    HW213362   4.966   2.451   3.905  0.5233 -0.0784 -0.2182
 4155SOL     OW13363   2.546   2.718   1.789  0.1176 -0.4969 -0.4589
 4155SOL    HW113364   2.618   2.653   1.768  0.5760  0.4963 -2.1588
 4155SOL    HW213365   2.584   2.811   1.788 -0.7696 -0.0919  0.7237
 4156SOL     OW13366   5.920   2.412   4.939 -0.7265  0.0162 -0.3319
 4156SOL    HW113367   5.927   2.350   5.017 -0.2091  0.7903  0.2456
 4156SOL    HW213368   5.823   2.430   4.920 -0.8566  1.0155  1.1100
 4157SOL     OW13369   2.911   1.080   4.942  0.0690 -0.3593  0.1004
 4157SOL    HW113370   2.859   1.004   4.903  2.7359 -1.4972 -1.5154
 4157SOL    HW213371   2.856   1.164   4.937 -0.9440 -1.0482 -3.3659
 4158SOL     OW13372   6.451   0.063   3.529 -0.3937 -0.4297  0.0314
 4158SOL    HW113373   6.545   0.046   3.499 -0.4077 -0.1305 -0.1837
 4158SOL    HW213374   6.389   0.008   3.474 -0.3765 -0.3023 -0.1167
 4159SOL     OW13375   0.565   5.029   0.194  0.1563 -0.2251  0.0215
 4159SOL    HW113376   0.630   5.011   0.268 -1.0897 -1.5542  0.8653
 4159SOL    HW213377   0.534   4.942   0.155 -0.5964  0.3943 -0.8160
 4160SOL     OW13378   6.307   1.040   0.672  0.3837 -0.9160 -0.8557
 4160SOL    HW113379   6.336   0.955   0.717  1.4592 -0.5806 -0.8870
 4160SOL    HW213380   6.355   1.118   0.713 -1.5142 -0.1404  0.0431
 4161SOL     OW13381   5.182   6.651   1.905  0.4866 -0.0317 -0.6843
 4161SOL    HW113382   5.125   6.629   1.826  0.2373 -2.5489  0.0997
 4161SOL    HW213383   5.174   6.748   1.926 -1.8955  0.1010 -1.8462
 4162SOL     OW13384   4.765   1.969   4.148 -0.2830 -0.1261  0.3935
 4162SOL    HW113385   4.677   1.973   4.101  0.8769 -0.8530 -1.9833
 4162SOL    HW213386   4.797   2.061   4.168 -0.8888  0.2028 -0.1394
 4163SOL     OW13387   0.439   1.417   5.744  0.0152 -0.2217  0.2408
 4163SOL    HW113388   0.511   1.454   5.802  1.0012 -1.6061 -0.0314
 4163SOL    HW213389   0.481   1.361   5.672 -1.3176 -0.6500 -0.2220
 4164SOL     OW13390   3.071   6.704   6.472  0.5651 -0.5151  0.5214
 4164SOL    HW113391   3.112   6.745   6.391  2.7041 -1.5072  1.0199
 4164SOL    HW213392   3.110   6.613   6.486  0.9810 -0.0052  3.1806
 4165SOL     OW13393   0.903   6.420   2.002 -0.3516  0.7660  0.2347
 4165SOL    HW113394   0.951   6.494   1.955 -1.2041  0.5597 -0.9997
 4165SOL    HW213395   0.894   6.442   2.099  1.9649  0.9473  0.4673
 4166SOL     OW13396   6.789   1.495   0.332 -0.0199  0.2409 -0.6972
 4166SOL    HW113397   6.721   1.547   0.384 -0.7295  0.8335 -2.1758
 4166SOL    HW213398   6.744   1.417   0.287  0.9588 -1.5162  1.1878
 4167SOL     OW13399   0.884   3.179   0.213 -0.5257  0.1458  0.0657
 4167SOL    HW113400   0.900   3.166   0.311 -0.4921 -0.0240  0.0383
 4167SOL    HW213401   0.820   3.109   0.180 -1.6227  1.0296  0.2493
 4168SOL     OW13402   1.302   0.052   6.568 -0.8974  0.0130  0.2435
 4168SOL    HW113403   1.337   0.048   6.661 -0.7045  0.2472  0.1801
 4168SOL    HW213404   1.207   0.086   6.570 -1.2277 -0.8898  0.4376
 4169SOL     OW13405   5.781   5.173   5.845  0.0331 -0.0393  0.1771
 4169SOL    HW113406   5.777   5.104   5.773  1.4231 -0.4694  0.4840
 4169SOL    HW213407   5.875   5.183   5.877  0.0754  2.7987 -0.5945
 4170SOL     OW13408   4.543   1.279   5.517 -0.0716  0.1242  0.2078
 4170SOL    HW113409   4.457   1.286   5.467  0.1841 -1.8054 -0.5704
 4170SOL    HW213410   4.619   1.269   5.452  0.8289  2.1888  0.8608
 4171SOL     OW13411   6.835   1.570   1.522  0.6152 -0.2319 -0.0567
 4171SOL    HW113412   6.813   1.621   1.440  1.4327 -0.9168 -0.7283
 4171SOL    HW213413   6.753   1.526   1.557  0.1465  0.5395 -0.1625
 4172SOL     OW13414   1.845   6.286   5.176  0.0683  0.2541  0.2870
 4172SOL    HW113415   1.764   6.252   5.225  0.2493 -0.8070 -0.1247
 4172SOL    HW213416   1.868   6.378   5.209 -0.3555 -0.0698  1.5316
 4173SOL     OW13417   5.427   4.490   0.549  0.0906 -0.4931  1.1371
 4173SOL    HW113418   5.389   4.494   0.642 -0.5019  0.3043  0.8694
 4173SOL    HW213419   5.382   4.558   0.492  0.5739 -0.8650  0.3003
 4174SOL     OW13420   3.680   5.734   4.657 -0.5210 -0.4679  0.2184
 4174SOL    HW113421   3.676   5.790   4.574 -1.5079 -2.4147 -1.1079
 4174SOL    HW213422   3.588   5.712   4.687 -0.1517 -1.0705  0.9400
 4175SOL     OW13423   3.672   1.030   3.005 -0.0311 -0.1645 -0.1387
 4175SOL    HW113424   3.766   1.024   2.970  0.3242  1.9970  0.3005
 4175SOL    HW213425   3.608   1.039   2.928 -0.0112 -2.3365 -0.4794
 4176SOL     OW13426   6.260   3.936   1.765  0.1481  0.0377 -0.2556
 4176SOL    HW113427   6.342   3.936   1.821 -0.5276 -0.7557  0.7831
 4176SOL    HW213428   6.216   4.026   1.770  0.4843  0.1956 -0.1219
 4177SOL     OW13429   0.118   5.407   1.171 -0.0816 -0.7712 -0.3990
 4177SOL    HW113430   0.043   5.437   1.230 -0.0719  1.1507 -1.2996
 4177SOL    HW213431   0.101   5.434   1.077  1.7364 -0.2634 -0.6319
 4178SOL     OW13432   3.954   4.636   5.449 -0.4921  0.8069  0.4737
 4178SOL    HW113433   3.998   4.563   5.396 -1.0618  1.5543 -1.0899
 4178SOL    HW213434   4.021   4.707   5.469  0.1607 -0.2638  2.3267
 4179SOL     OW13435   6.193   0.957   5.579  0.4405 -0.2144  0.1824
 4179SOL    HW113436   6.208   0.888   5.649  2.4861 -1.6104 -1.5139
 4179SOL    HW213437   6.123   0.925   5.515  1.4761 -0.8395 -0.6743
 4180SOL     OW13438   6.338   5.533   0.542 -0.4553  0.2969 -0.0391
 4180SOL    HW113439   6.241   5.507   0.534 -0.5538  0.8174 -0.5943
 4180SOL    HW213440   6.366   5.581   0.459  0.9136 -1.8571 -0.9060
 4181SOL     OW13441   6.106   5.398   0.391 -0.2003  0.1405  0.0921
 4181SOL    HW113442   6.016   5.360   0.372 -0.5281  0.0975  1.5910
 4181SOL    HW213443   6.168   5.376   0.316 -1.3208 -0.1889 -0.7649
 4182SOL     OW13444   4.640   2.750   2.942 -0.2548  0.3399  0.1293
 4182SOL    HW113445   4.599   2.670   2.899 -0.5336  0.4647  0.1611
 4182SOL    HW213446   4.669   2.726   3.035  1.1044 -0.1591 -0.3983
 4183SOL     OW13447   0.398   2.096   1.931 -0.1678  0.4479 -0.1333
 4183SOL    HW113448   0.327   2.061   1.870 -0.6513  1.2014 -0.0192
 4183SOL    HW213449   0.376   2.190   1.958  0.1475  0.2069  1.0320
 4184SOL     OW13450   4.293   4.425   6.591 -0.2597  0.0707 -0.0163
 4184SOL    HW113451   4.293   4.433   6.492 -0.9050  0.7808  0.0318
 4184SOL    HW213452   4.285   4.329   6.617 -0.2827 -0.1005 -0.6453
 4185SOL     OW13453   6.571   1.385   4.224 -0.6204 -0.7817  0.3342
 4185SOL    HW113454   6.526   1.473   4.209 -0.0147 -0.2353  1.5777
 4185SOL    HW213455   6.632   1.365   4.147  0.3504  0.6006  0.7063
 4186SOL     OW13456   2.795   3.396   2.041  0.7867  0.5191  0.2966
 4186SOL    HW113457   2.698   3.406   2.064  0.1671  3.6585 -2.8639
 4186SOL    HW213458   2.850   3.403   2.125 -1.5973 -2.7410  2.3708
 4187SOL     OW13459   3.392   6.108   5.746  0.7300 -0.2355 -0.4947
 4187SOL    HW113460   3.295   6.121   5.769  0.4686 -2.0157 -0.4029
 4187SOL    HW213461   3.441   6.194   5.755 -1.0396  0.9360 -1.4972
 4188SOL     OW13462   5.047   5.937   3.050 -0.5476 -0.3548  0.4318
 4188SOL    HW113463   5.092   6.027   3.049 -0.8461 -0.2103 -0.8694
 4188SOL    HW213464   4.978   5.933   2.978 -1.5656 -1.1259  1.4124
 4189SOL     OW13465   1.716   3.566   4.772 -0.1038 -0.6068  0.1345
 4189SOL    HW113466   1.695   3.622   4.691  0.6129 -1.1309 -0.4345
 4189SOL    HW213467   1.661   3.596   4.849 -0.0975  0.5494 -0.2932
 4190SOL     OW13468   3.293   6.208   2.763  0.1545 -0.1805  0.1536
 4190SOL    HW113469   3.352   6.133   2.793  0.4272  0.1213  0.3822
 4190SOL    HW213470   3.210   6.210   2.818 -0.0934 -0.6388 -0.2029
 4191SOL     OW13471   1.488   2.990   2.679  0.2937 -0.3089 -0.0236
 4191SOL    HW113472   1.432   3.067   2.648  1.6965  0.4389 -0.8108
 4191SOL    HW213473   1.584   3.018   2.682  0.9349 -2.2314 -1.0642
 4192SOL     OW13474   5.971   4.055   4.019 -0.0592  0.3517 -0.0404
 4192SOL    HW113475   5.881   4.092   4.045  0.4204  2.3075 -0.9655
 4192SOL    HW213476   6.041   4.095   4.077  0.2891 -0.9129  0.4478
 4193SOL     OW13477   6.815   5.969   4.218  0.0676  0.6634  0.3870
 4193SOL    HW113478   6.805   5.897   4.287 -0.7967  0.8769  0.4994
 4193SOL    HW213479   6.901   5.957   4.170  0.5199  0.2900  1.2559
 4194SOL     OW13480   5.255   1.537   3.249 -0.3332 -0.0210 -0.3434
 4194SOL    HW113481   5.323   1.571   3.314  0.0930 -0.9251 -0.3041
 4194SOL    HW213482   5.274   1.573   3.158  0.7333 -0.9712 -0.5080
 4195SOL     OW13483   4.544   5.457   2.954  0.4082  0.4037  0.8904
 4195SOL    HW113484   4.634   5.413   2.955 -0.0786 -0.6032  1.4892
 4195SOL    HW213485   4.473   5.389   2.972 -0.5097  1.1316  0.1322
 4196SOL     OW13486   4.863   3.660   4.309  0.1637  0.2769  0.1130
 4196SOL    HW113487   4.908   3.634   4.223  0.9299  1.9690 -0.0323
 4196SOL    HW213488   4.853   3.579   4.366  0.6951 -0.6800 -1.0941
 4197SOL     OW13489   6.735   6.102   5.960  0.0036  0.4207 -0.1057
 4197SOL    HW113490   6.773   6.010   5.969  1.5887  0.7328 -2.6064
 4197SOL    HW213491   6.802   6.169   5.992 -0.4134  0.7896  0.0076
 4198SOL     OW13492   4.909   3.091   4.829 -0.0075 -0.0520  0.4012
 4198SOL    HW113493   4.911   3.087   4.929  0.2993  0.8560  0.4319
 4198SOL    HW213494   5.001   3.078   4.793  0.0483  0.6600  0.2791
 4199SOL     OW13495   2.111   5.216   5.822 -0.2023  0.1390 -0.1274
 4199SOL    HW113496   2.097   5.311   5.794 -1.2244 -0.1636 -0.7005
 4199SOL    HW213497   2.116   5.211   5.922 -0.1509  0.7871 -0.0920
 4200SOL     OW13498   2.925   6.423   0.363  0.0126 -0.6381 -0.0271
 4200SOL    HW113499   2.930   6.406   0.265  1.4903  0.9856 -0.2827
 4200SOL    HW213500   2.904   6.519   0.380  2.9775 -0.0579  1.1192
 4201SOL     OW13501   4.196   5.866   6.083 -0.2992 -0.0989  0.2953
 4201SOL    HW113502   4.146   5.949   6.110  0.2120  0.5256 -0.6443
 4201SOL    HW213503   4.150   5.823   6.005 -2.0441 -2.1631  2.3130
 4202SOL     OW13504   6.774   4.333   4.172  0.2715  0.0203  0.0095
 4202SOL    HW113505   6.835   4.316   4.094 -0.6955  0.0954 -0.7856
 4202SOL    HW213506   6.702   4.396   4.144 -0.9578 -1.1232  0.5138
 4203SOL     OW13507   4.334   5.779   5.419  0.2975  0.2134  0.1374
 4203SOL    HW113508   4.328   5.731   5.331 -2.6519  1.3216 -0.3950
 4203SOL    HW213509   4.342   5.878   5.402  0.5505  0.3720  1.1438
 4204SOL     OW13510   0.558   2.595   0.183 -0.2535 -0.6847  0.5139
 4204SOL    HW113511   0.630   2.611   0.115 -1.6778  0.6243 -0.7568
 4204SOL    HW213512   0.551   2.497   0.201  1.9772 -0.8307  0.8601
 4205SOL     OW13513   2.135   6.394   3.232 -0.7323  0.2806 -0.0790
 4205SOL    HW113514   2.039   6.404   3.256 -1.1444 -0.3177 -1.3498
 4205SOL    HW213515   2.190   6.383   3.315 -2.0141 -1.3639  0.6127
 4206SOL     OW13516   6.701   5.347   2.892  0.2880  0.3310 -0.3367
 4206SOL    HW113517   6.741   5.427   2.848 -0.0948  0.7838  0.1325
 4206SOL    HW213518   6.620   5.317   2.840  1.2391 -0.6276 -1.3247
 4207SOL     OW13519   2.271   0.391   0.555  0.2500 -0.0654 -0.3116
 4207SOL    HW113520   2.302   0.304   0.592 -0.8036 -0.6134 -0.6906
 4207SOL    HW213521   2.323   0.414   0.473 -1.9219 -2.2323 -2.4500
 4208SOL     OW13522   2.688   0.883   2.451 -0.6191  0.2763  0.3110
 4208SOL    HW113523   2.747   0.823   2.506 -0.2116 -0.3370 -0.7698
 4208SOL    HW213524   2.604   0.834   2.427  0.0985 -0.2254 -1.3221
 4209SOL     OW13525   1.047   6.789   3.810 -0.0672  0.2379 -0.7517
 4209SOL    HW113526   1.086   6.763   3.899  0.3228  1.0201 -0.6883
 4209SOL    HW213527   0.949   6.769   3.809 -0.3611  1.4879  0.3592
 4210SOL     OW13528   3.821   3.191   6.669 -0.1563  0.2138 -0.0197
 4210SOL    HW113529   3.792   3.098   6.692  1.2572 -0.2837 -0.1706
 4210SOL    HW213530   3.794   3.253   6.742  0.7842 -0.6887  1.1327
 4211SOL     OW13531   0.060   2.122   2.182  0.3985 -0.2960  0.1591
 4211SOL    HW113532  -0.024   2.111   2.130  0.9803 -0.6154 -0.7447
 4211SOL    HW213533   0.089   2.217   2.179 -0.7924  0.1757  1.8873
 4212SOL     OW13534   6.378   6.515   0.297  0.0342  0.0376 -0.0413
 4212SOL    HW113535   6.306   6.583   0.288  0.1861  0.3350  0.9805
 4212SOL    HW213536   6.361   6.458   0.377 -0.0241 -1.0590 -0.8071
 4213SOL     OW13537   1.605   6.734   0.839  0.4223 -0.0028  0.0606
 4213SOL    HW113538   1.681   6.676   0.866 -0.6498 -0.4816  2.2702
 4213SOL    HW213539   1.574   6.789   0.917 -0.1760  1.7584 -1.3260
 4214SOL     OW13540   2.949   5.615   3.690 -0.3170 -0.1540 -0.1886
 4214SOL    HW113541   2.972   5.533   3.743 -0.5099  0.0311  0.1823
 4214SOL    HW213542   3.029   5.643   3.637 -0.7585 -1.6424 -1.7649
 4215SOL     OW13543   3.533   6.169   6.034  0.2096 -0.0016 -0.1852
 4215SOL    HW113544   3.442   6.208   6.023  1.2635  2.1504 -1.9606
 4215SOL    HW213545   3.558   6.117   5.952  0.8201 -0.0715  0.0338
 4216SOL     OW13546   1.559   3.775   4.633  0.1893 -0.0943 -0.2697
 4216SOL    HW113547   1.610   3.852   4.595  1.3454 -0.4709  0.4846
 4216SOL    HW213548   1.485   3.809   4.692  0.7791  0.4360  0.1720
 4217SOL     OW13549   4.796   0.050   5.667 -0.6915  0.0693  0.8896
 4217SOL    HW113550   4.777   0.084   5.759  0.2074  1.9881  0.4221
 4217SOL    HW213551   4.872  -0.015   5.671 -1.6290 -1.0262  1.6549
 4218SOL     OW13552   2.196   5.312   2.255 -0.4829 -0.0104 -0.1374
 4218SOL    HW113553   2.292   5.342   2.260 -0.7439  0.8108  0.2936
 4218SOL    HW213554   2.190   5.214   2.273  0.2818 -0.0723 -0.2019
 4219SOL     OW13555   4.888   1.986   3.728  0.0082 -0.5460 -0.4249
 4219SOL    HW113556   4.884   1.904   3.786  2.3980 -0.5022 -0.0679
 4219SOL    HW213557   4.963   1.976   3.662 -0.2599  0.9718 -0.9982
 4220SOL     OW13558   6.779   4.435   0.773  0.3630 -0.0868  0.3550
 4220SOL    HW113559   6.798   4.351   0.825 -0.1517  1.1165  2.6278
 4220SOL    HW213560   6.856   4.454   0.712  1.5200 -1.0188  1.4455
 4221SOL     OW13561   5.835   5.563   4.839  0.0692  0.2625 -0.1766
 4221SOL    HW113562   5.779   5.579   4.758  0.1489 -0.9178 -0.4848
 4221SOL    HW213563   5.931   5.564   4.814  0.2655  2.5029  0.3902
 4222SOL     OW13564   3.252   3.458   5.251 -0.4785 -0.1575  0.2271
 4222SOL    HW113565   3.197   3.377   5.272  2.3053 -2.6868 -1.5349
 4222SOL    HW213566   3.273   3.460   5.153 -0.2115  2.5978  0.2671
 4223SOL     OW13567   3.813   3.333   1.830 -0.1036  0.5286 -0.1976
 4223SOL    HW113568   3.843   3.426   1.810 -0.8911  0.7446 -0.4107
 4223SOL    HW213569   3.880   3.268   1.793 -0.3123  0.9764 -1.4029
 4224SOL     OW13570   2.872   2.814   5.339 -0.4728  0.1613  0.6810
 4224SOL    HW113571   2.843   2.818   5.434  1.0996 -1.6569  1.3050
 4224SOL    HW213572   2.901   2.721   5.317  0.7194  0.8976 -1.1145
 4225SOL     OW13573   6.176   0.478   4.774 -0.1590 -0.7173 -0.1751
 4225SOL    HW113574   6.188   0.475   4.873  0.8849  0.6480 -0.2266
 4225SOL    HW213575   6.081   0.460   4.751 -0.4315 -0.9653  1.0763
 4226SOL     OW13576   3.106   2.661   1.782  0.0836  0.0073 -0.2992
 4226SOL    HW113577   3.053   2.598   1.837 -0.0558 -0.0610 -0.5120
 4226SOL    HW213578   3.070   2.754   1.793  0.2798  0.0503  0.0019
 4227SOL     OW13579   0.030   1.414   0.370 -0.1848 -0.1618  0.4182
 4227SOL    HW113580  -0.057   1.459   0.349  0.6312  1.0198 -0.6259
 4227SOL    HW213581   0.056   1.354   0.294  0.5690  0.5955  0.0492
 4228SOL     OW13582   4.354   5.029   4.361  0.4023 -0.2481 -0.4164
 4228SOL    HW113583   4.312   4.958   4.418 -0.0775  0.6503  0.3676
 4228SOL    HW213584   4.284   5.091   4.327  0.9577  0.6141 -0.0223
 4229SOL     OW13585   4.316   5.797   6.429  0.5925 -0.1098 -0.1371
 4229SOL    HW113586   4.232   5.812   6.479  0.6920 -0.7376  0.2334
 4229SOL    HW213587   4.299   5.735   6.352  0.9559 -1.2952  0.7084
 4230SOL     OW13588   2.003   1.130   5.548  0.0113 -0.3753 -0.2663
 4230SOL    HW113589   2.081   1.193   5.548  1.3401 -1.9162  0.7405
 4230SOL    HW213590   1.966   1.122   5.455  0.7935  0.6976 -0.6896
 4231SOL     OW13591   2.081   6.923   6.701  0.8101  0.2476  0.2735
 4231SOL    HW113592   2.146   6.994   6.730  2.2200 -1.7168  2.2523
 4231SOL    HW213593   2.114   6.879   6.618  2.4205 -1.0761  1.5353
 4232SOL     OW13594   0.514   2.575   2.292 -0.1674  0.2933  0.1086
 4232SOL    HW113595   0.523   2.672   2.270 -2.6438  0.9143  1.4410
 4232SOL    HW213596   0.594   2.545   2.345  0.4213  1.7308  0.0830
 4233SOL     OW13597   3.923   6.296   2.324  0.0338 -0.0892  0.0728
 4233SOL    HW113598   3.823   6.290   2.330  0.1928 -2.6750  1.4152
 4233SOL    HW213599   3.964   6.244   2.399  2.4181  0.0012 -1.0834
 4234SOL     OW13600   4.875   4.349   0.496 -0.2547 -0.0920  0.1106
 4234SOL    HW113601   4.965   4.392   0.485 -0.0407 -0.1700  1.4533
 4234SOL    HW213602   4.864   4.317   0.590 -1.3909 -0.7764 -0.2337
 4235SOL     OW13603   0.160   2.905   3.521 -0.0276 -0.4427  0.3682
 4235SOL    HW113604   0.212   2.961   3.585 -0.2574  0.3489 -0.1197
 4235SOL    HW213605   0.064   2.933   3.522  0.1139  0.1840 -0.9290
 4236SOL     OW13606   0.247   1.703   3.944 -0.9118  0.1600  0.4100
 4236SOL    HW113607   0.219   1.648   4.023 -1.6709 -0.2722 -0.1430
 4236SOL    HW213608   0.286   1.789   3.976 -0.1872 -0.4708  1.2844
 4237SOL     OW13609   5.533   2.944   5.555 -0.4857  0.1625 -0.0035
 4237SOL    HW113610   5.460   2.882   5.527  0.7405 -0.9200 -0.8951
 4237SOL    HW213611   5.619   2.918   5.511  0.8256  0.4187  2.2358
 4238SOL     OW13612   5.049   3.718   5.075 -0.3235  0.9769 -0.3396
 4238SOL    HW113613   5.122   3.674   5.022  0.4555  0.4260  1.1328
 4238SOL    HW213614   4.963   3.669   5.061 -0.3047  1.2928 -1.6558
 4239SOL     OW13615   5.610   4.530   4.719  0.4178 -0.8133  0.4810
 4239SOL    HW113616   5.647   4.597   4.656  0.0704 -1.2401 -0.1893
 4239SOL    HW213617   5.685   4.475   4.758  0.4957 -2.0080 -1.2509
 4240SOL     OW13618   4.070   4.544   5.888  0.0440  0.1785  0.2254
 4240SOL    HW113619   4.117   4.624   5.851  0.8890 -0.8301 -0.9486
 4240SOL    HW213620   4.094   4.533   5.985  0.5156  0.9002  0.1951
 4241SOL     OW13621   3.499   3.118   5.444 -1.0219  0.2394  0.6700
 4241SOL    HW113622   3.444   3.193   5.479 -0.9926  1.8288 -2.3823
 4241SOL    HW213623   3.588   3.153   5.414 -0.8498 -1.0900 -0.4520
 4242SOL     OW13624   3.884   6.574   2.336 -0.3236  0.4511 -0.1421
 4242SOL    HW113625   3.913   6.480   2.356 -2.4318  0.1081  1.5831
 4242SOL    HW213626   3.936   6.608   2.258  3.0544 -0.8576  1.3376
 4243SOL     OW13627   2.361   2.636   2.968 -0.1384 -0.4685  0.1521
 4243SOL    HW113628   2.308   2.555   2.993  0.9570 -1.6124 -1.1189
 4243SOL    HW213629   2.420   2.615   2.891 -0.0294  1.6450 -0.3958
 4244SOL     OW13630   3.532   6.134   3.214  0.2238 -0.4237  0.1186
 4244SOL    HW113631   3.561   6.198   3.285 -1.0241 -0.5110  0.7513
 4244SOL    HW213632   3.474   6.063   3.255  0.7749 -1.4013 -0.7334
 4245SOL     OW13633   6.629   1.428   2.258 -0.3544  0.9767  0.3521
 4245SOL    HW113634   6.724   1.456   2.242 -0.5488  0.2483 -2.5937
 4245SOL    HW213635   6.628   1.353   2.324  1.0022  1.6556  1.1885
 4246SOL     OW13636   3.510   1.073   4.373 -0.0681 -0.1458  0.6294
 4246SOL    HW113637   3.571   1.132   4.426  0.6057 -1.2203  1.1104
 4246SOL    HW213638   3.525   0.978   4.401 -1.2511 -0.5287  0.0169
 4247SOL     OW13639   2.136   4.080   6.887  0.1111  0.4607  0.1236
 4247SOL    HW113640   2.079   4.144   6.836 -0.6270  0.4171  0.8677
 4247SOL    HW213641   2.121   3.988   6.852 -0.5128  0.4091  0.5146
 4248SOL     OW13642   2.793   6.225   1.558 -0.2419 -0.0790  0.2906
 4248SOL    HW113643   2.811   6.280   1.640 -0.2065  0.6628 -0.2097
 4248SOL    HW213644   2.864   6.154   1.550 -1.3379 -1.4349  1.9636
 4249SOL     OW13645   0.106   0.156   6.888  0.6403  0.1971  0.3207
 4249SOL    HW113646   0.171   0.193   6.821  0.9993 -0.0596  0.5208
 4249SOL    HW213647   0.071   0.231   6.945  0.0747  0.4667 -0.3632
 4250SOL     OW13648   5.913   6.572   5.698 -0.5750  0.1615  0.6864
 4250SOL    HW113649   5.895   6.663   5.661 -1.5550  0.6678  2.3061
 4250SOL    HW213650   5.954   6.515   5.627 -0.2942  1.7362 -0.4752
 4251SOL     OW13651   5.456   1.004   0.355 -0.2031  0.0828  0.6225
 4251SOL    HW113652   5.365   1.015   0.395  0.7844 -0.1966  3.1290
 4251SOL    HW213653   5.503   0.928   0.400  1.5584  0.7083 -0.0881
 4252SOL     OW13654   6.467   5.906   4.837 -0.1684  0.1440  0.1015
 4252SOL    HW113655   6.402   5.950   4.899  0.0883  0.7034 -0.0242
 4252SOL    HW213656   6.474   5.959   4.752 -1.0087 -0.9484 -0.6941
 4253SOL     OW13657   1.871   6.563   1.879  0.2767  0.0663  0.2820
 4253SOL    HW113658   1.929   6.482   1.874 -0.1567 -0.1689 -1.4895
 4253SOL    HW213659   1.898   6.628   1.808 -2.2889 -0.5623 -1.4353
 4254SOL     OW13660   1.844   0.191   5.237 -0.1389 -0.5182  0.1530
 4254SOL    HW113661   1.910   0.259   5.206  0.8476 -0.9054  1.3166
 4254SOL    HW213662   1.783   0.168   5.162  0.0574  0.9895 -0.5191
 4255SOL     OW13663   2.157   3.144   5.777 -0.6263  0.1586 -0.1062
 4255SOL    HW113664   2.137   3.148   5.679 -0.2984  2.1819 -0.1319
 4255SOL    HW213665   2.125   3.227   5.821  3.0956  1.3634  0.7186
 4256SOL     OW13666   5.357   0.142   1.323 -0.0187 -0.2343 -0.0362
 4256SOL    HW113667   5.349   0.238   1.352 -0.5332 -0.4211  0.4550
 4256SOL    HW213668   5.443   0.104   1.357 -0.3453 -0.2793  0.7646
 4257SOL     OW13669   0.429   1.589   3.063 -1.0338 -0.8459  0.0801
 4257SOL    HW113670   0.507   1.568   3.004 -1.6823  0.9411 -1.4979
 4257SOL    HW213671   0.392   1.503   3.100 -0.6527 -2.0747 -2.1795
 4258SOL     OW13672   1.802   0.725   2.671 -0.0755  0.0246 -0.0303
 4258SOL    HW113673   1.837   0.796   2.611 -0.0184  1.0111  1.1398
 4258SOL    HW213674   1.817   0.635   2.628 -0.9380  0.7192 -1.9116
 4259SOL     OW13675   6.834   6.828   6.647 -0.2033  0.5333  0.0899
 4259SOL    HW113676   6.914   6.888   6.637  1.8355 -2.0269  0.0535
 4259SOL    HW213677   6.841   6.752   6.583 -1.7106 -0.8008  1.4175
 4260SOL     OW13678   1.471   0.354   6.199 -0.3793 -0.1126  0.3146
 4260SOL    HW113679   1.436   0.302   6.122 -1.4323  0.6210  0.2777
 4260SOL    HW213680   1.450   0.451   6.186  2.1754  0.4898  0.0061
 4261SOL     OW13681   2.480   0.216   2.386  0.1742 -0.0287  0.3540
 4261SOL    HW113682   2.398   0.273   2.378 -0.0790 -0.2592  1.2504
 4261SOL    HW213683   2.529   0.239   2.470  1.4328  0.6067 -0.5185
 4262SOL     OW13684   0.434   4.795   4.074  0.4652  0.4686  0.7425
 4262SOL    HW113685   0.345   4.816   4.116  0.0492  1.6097 -0.6451
 4262SOL    HW213686   0.507   4.814   4.140 -0.2908 -0.4653  1.8964
 4263SOL     OW13687   3.114   5.883   2.345  0.4280 -0.0737  0.2341
 4263SOL    HW113688   3.132   5.914   2.439  0.7261 -1.0285  0.4954
 4263SOL    HW213689   3.015   5.876   2.332  0.3163  1.6510 -0.0560
 4264SOL     OW13690   4.448   1.423   6.849 -0.6526 -0.5848  0.0285
 4264SOL    HW113691   4.523   1.424   6.916 -0.2356 -2.8347 -0.3424
 4264SOL    HW213692   4.387   1.500   6.868 -0.1868 -0.7433  2.5794
 4265SOL     OW13693   3.358   6.576   6.829  0.1961  0.4170 -0.1690
 4265SOL    HW113694   3.271   6.609   6.865  0.3872  0.8349 -0.0859
 4265SOL    HW213695   3.402   6.517   6.897 -0.3006 -0.2891 -0.4496
 4266SOL     OW13696   1.487   5.389   0.952  0.6815  0.5175  0.4249
 4266SOL    HW113697   1.424   5.419   0.881  0.5440  3.0903  1.5355
 4266SOL    HW213698   1.464   5.295   0.979 -1.3785  0.6748 -0.5745
 4267SOL     OW13699   1.652   2.576   2.270 -0.2852  0.0651 -0.1265
 4267SOL    HW113700   1.720   2.576   2.343 -1.1184  0.9310  0.6773
 4267SOL    HW213701   1.573   2.521   2.297 -1.3754  1.7975  0.4221
 4268SOL     OW13702   1.016   3.673   5.024  0.5073  0.0753 -0.1818
 4268SOL    HW113703   0.936   3.667   5.084 -0.8553 -0.3302 -1.9644
 4268SOL    HW213704   1.050   3.581   5.004  0.8398  0.1965 -0.1826
 4269SOL     OW13705   3.457   2.131   3.799 -0.5100  0.1934  0.0294
 4269SOL    HW113706   3.538   2.138   3.857  0.3812  0.6551 -1.2247
 4269SOL    HW213707   3.377   2.108   3.856  0.5856 -0.8780  1.2108
 4270SOL     OW13708   4.501   3.893   1.684 -0.0026  0.3151 -0.0148
 4270SOL    HW113709   4.402   3.882   1.691  0.1210 -0.7633  0.3746
 4270SOL    HW213710   4.524   3.989   1.672 -1.0639  0.6567  0.5884
 4271SOL     OW13711   6.701   1.127   0.366  0.7010 -0.0496  0.2791
 4271SOL    HW113712   6.614   1.084   0.392  1.1221 -1.0518  0.0470
 4271SOL    HW213713   6.700   1.148   0.268 -0.1464  2.0274  0.6579
 4272SOL     OW13714   5.308   1.807   6.356 -0.4085  0.4489  0.1290
 4272SOL    HW113715   5.335   1.878   6.292 -0.1081  0.0476 -0.1937
 4272SOL    HW213716   5.225   1.761   6.322  0.8856 -1.1275 -1.0389
 4273SOL     OW13717   2.793   0.488   3.494 -0.3360 -0.4060  0.4722
 4273SOL    HW113718   2.801   0.568   3.435  1.5362 -1.5048 -0.8901
 4273SOL    HW213719   2.880   0.473   3.542 -0.5818 -1.7083  0.5578
 4274SOL     OW13720   4.992   0.214   1.024 -0.2485  0.2616  0.0568
 4274SOL    HW113721   4.974   0.120   1.051 -2.3293  0.3844 -0.6886
 4274SOL    HW213722   4.978   0.275   1.102 -1.2703  0.1603 -0.0390
 4275SOL     OW13723   6.457   0.303   2.612  0.2031 -0.4753 -0.1962
 4275SOL    HW113724   6.502   0.222   2.572  0.4450 -1.9548  2.8226
 4275SOL    HW213725   6.520   0.348   2.675 -0.1862  1.7319 -1.2910
 4276SOL     OW13726   1.690   2.209   1.190  0.0584  0.5126  0.8879
 4276SOL    HW113727   1.739   2.224   1.276 -0.0312  1.1243  0.8300
 4276SOL    HW213728   1.595   2.183   1.210  0.2372 -0.0935  0.9853
 4277SOL     OW13729   0.272   6.257   3.074 -0.6262 -0.2469  0.1587
 4277SOL    HW113730   0.350   6.217   3.026 -0.8505  0.3410 -0.7224
 4277SOL    HW213731   0.198   6.276   3.009 -1.8835 -1.6354  1.0968
 4278SOL     OW13732   0.413   0.302   1.395  0.6556  0.5714 -0.3044
 4278SOL    HW113733   0.342   0.335   1.458  0.2261 -1.6319  0.4479
 4278SOL    HW213734   0.501   0.300   1.442  0.7399  0.9180 -0.4455
 4279SOL     OW13735   1.544   4.013   3.314  0.2404  0.4693 -0.0419
 4279SOL    HW113736   1.499   4.102   3.302  0.4102  0.5222 -0.3009
 4279SOL    HW213737   1.584   4.008   3.405 -0.4684  0.3424  0.2654
 4280SOL     OW13738   1.808   6.859   0.137 -0.2757  0.0901  0.4932
 4280SOL    HW113739   1.868   6.854   0.057 -1.1789  1.4337 -0.2968
 4280SOL    HW213740   1.859   6.830   0.218  1.0796  0.0555 -0.3362
 4281SOL     OW13741   0.439   4.695   2.556 -0.7835 -0.1181 -0.3586
 4281SOL    HW113742   0.382   4.755   2.501 -2.4966 -0.8593  0.5322
 4281SOL    HW213743   0.383   4.647   2.623  0.8166 -1.3024  0.2174
 4282SOL     OW13744   5.392   4.780   1.884 -0.1002 -0.6015  0.4912
 4282SOL    HW113745   5.397   4.827   1.972  1.0663  0.4752 -0.1211
 4282SOL    HW213746   5.333   4.832   1.822  2.4538  1.0529 -0.7082
 4283SOL     OW13747   1.617   1.959   5.215  0.0748 -0.0996 -0.0329
 4283SOL    HW113748   1.591   1.865   5.196 -1.8149 -0.1182  2.1674
 4283SOL    HW213749   1.539   2.020   5.198  1.3715  1.1954 -1.8036
 4284SOL     OW13750   6.145   6.924   4.793  0.3314 -0.0176  0.3822
 4284SOL    HW113751   6.109   6.852   4.733  1.5969 -0.8621  0.5962
 4284SOL    HW213752   6.071   6.961   4.849  0.0169 -2.8152  1.9659
 4285SOL     OW13753   2.425   6.556   6.017  0.3115 -0.0006  0.0867
 4285SOL    HW113754   2.520   6.579   6.036 -0.0073 -0.0212  1.9136
 4285SOL    HW213755   2.420   6.480   5.952  1.5756 -0.9248  1.0460
 4286SOL     OW13756   5.334   0.220   6.349  0.3118 -0.0644 -1.0417
 4286SOL    HW113757   5.404   0.153   6.322  0.7514  0.3369 -0.9177
 4286SOL    HW213758   5.374   0.312   6.347  0.3203  0.0126  0.7943
 4287SOL     OW13759   4.088   6.796   1.479  0.1764  0.2517 -0.3086
 4287SOL    HW113760   4.185   6.808   1.459 -0.3692  0.9394 -2.9003
 4287SOL    HW213761   4.038   6.782   1.394 -1.9324 -0.7836  1.0270
 4288SOL     OW13762   6.909   6.613   1.288 -0.1111 -0.1774 -0.7003
 4288SOL    HW113763   6.881   6.603   1.193  1.0482 -1.4587 -0.9434
 4288SOL    HW213764   6.915   6.523   1.331  0.8864  0.2578  0.1230
 4289SOL     OW13765   6.583   4.603   3.149  0.0413 -0.2702  0.5720
 4289SOL    HW113766   6.484   4.603   3.132 -0.0279 -2.6384  0.7094
 4289SOL    HW213767   6.629   4.649   3.073 -1.2262  2.4739  1.3465
 4290SOL     OW13768   0.673   0.967   1.858  0.4949 -0.1554  0.3840
 4290SOL    HW113769   0.752   0.931   1.908  0.4553 -2.1463 -0.8687
 4290SOL    HW213770   0.632   1.042   1.910  0.1402 -2.3895  3.6367
 4291SOL     OW13771   5.256   4.898   4.944 -0.4491 -0.0655  0.0437
 4291SOL    HW113772   5.169   4.925   4.903 -0.7642 -0.9361  0.1260
 4291SOL    HW213773   5.243   4.815   4.998  0.2043  0.4089  0.9633
 4292SOL     OW13774   0.095   1.204   6.154  0.1243 -0.6448 -0.7125
 4292SOL    HW113775   0.099   1.212   6.054  2.1284 -0.8287 -0.6869
 4292SOL    HW213776   0.047   1.284   6.191  0.6861  0.2169 -1.7561
 4293SOL     OW13777   4.758   1.564   0.758 -0.2240 -0.3386  0.1590
 4293SOL    HW113778   4.665   1.547   0.789  0.0938  1.6266  2.5287
 4293SOL    HW213779   4.822   1.542   0.832  0.9164  1.1055 -0.3543
 4294SOL     OW13780   2.672   1.260   0.080 -0.4555  0.1936 -0.0357
 4294SOL    HW113781   2.696   1.261  -0.017 -0.9010 -0.2103 -0.1561
 4294SOL    HW213782   2.622   1.344   0.103 -1.1117 -0.1012 -0.3618
 4295SOL     OW13783   4.406   0.116   2.076  0.2713 -0.1445  0.3550
 4295SOL    HW113784   4.405   0.210   2.042  1.5460 -0.7304 -1.4783
 4295SOL    HW213785   4.493   0.097   2.123  0.2079 -0.5235  0.3280
 4296SOL     OW13786   0.692   4.628   3.144  0.3911 -0.9130 -0.6985
 4296SOL    HW113787   0.694   4.726   3.165 -1.1061 -1.2422  1.2426
 4296SOL    HW213788   0.621   4.610   3.076  1.5563 -0.5289 -2.0645
 4297SOL     OW13789   5.618   4.429   5.753  0.1249 -0.5004 -0.0642
 4297SOL    HW113790   5.612   4.341   5.706 -0.7287 -0.5136  0.0569
 4297SOL    HW213791   5.696   4.428   5.815  0.4804 -0.9531 -0.5015
 4298SOL     OW13792   5.918   0.298   1.543 -0.3480 -0.4958 -0.1274
 4298SOL    HW113793   5.974   0.346   1.611 -2.0965  0.3462  0.7904
 4298SOL    HW213794   5.921   0.347   1.457 -0.4324  0.0862  0.1968
 4299SOL     OW13795   6.988   3.320   0.773  0.2108 -0.7201  0.3383
 4299SOL    HW113796   7.062   3.260   0.741 -0.0752 -1.2317  0.6366
 4299SOL    HW213797   6.900   3.284   0.743 -0.0276 -0.9393  1.2897
 4300SOL     OW13798   3.051   0.478   3.595 -0.0348 -0.1139  0.0686
 4300SOL    HW113799   3.124   0.417   3.566 -0.6155 -1.1261  0.6733
 4300SOL    HW213800   3.088   0.568   3.615  1.0040 -0.5478  0.1383
 4301SOL     OW13801   1.357   5.863   5.219 -0.1037  0.0518 -0.0154
 4301SOL    HW113802   1.365   5.773   5.261  2.2555  0.2220  0.0490
 4301SOL    HW213803   1.403   5.862   5.130  0.1235  1.2276  0.0707
 4302SOL     OW13804   4.272   4.982   5.280  0.2590  0.4167 -0.5045
 4302SOL    HW113805   4.227   4.949   5.197  1.0169  0.7351 -1.0485
 4302SOL    HW213806   4.351   5.037   5.256  0.1653  0.9852  0.4290
 4303SOL     OW13807   4.240   6.173   4.518 -0.3180 -0.1088 -0.5463
 4303SOL    HW113808   4.174   6.229   4.469  0.6086 -0.2570 -2.0321
 4303SOL    HW213809   4.333   6.205   4.498  0.1122  0.3065  1.7327
 4304SOL     OW13810   2.349   4.566   1.457  0.0445 -0.7708  0.1657
 4304SOL    HW113811   2.255   4.595   1.437  0.0239 -1.0106 -0.1077
 4304SOL    HW213812   2.390   4.627   1.524  0.4607  0.7060 -1.3769
 4305SOL     OW13813   3.211   5.720   0.310 -0.0412  0.0393 -0.2937
 4305SOL    HW113814   3.178   5.730   0.217 -2.3668 -0.0225  0.4694
 4305SOL    HW213815   3.189   5.628   0.344  0.7469  0.0670  0.3383
 4306SOL     OW13816   5.751   3.509   4.673 -0.3911 -0.0620 -0.5501
 4306SOL    HW113817   5.741   3.504   4.772 -1.8617 -2.3276 -0.7400
 4306SOL    HW213818   5.843   3.482   4.647 -0.4774 -1.0397  0.1232
 4307SOL     OW13819   6.278   1.050   4.952  0.3159 -0.0666  0.0933
 4307SOL    HW113820   6.254   1.056   5.049  0.0922  0.6218  0.0011
 4307SOL    HW213821   6.328   1.133   4.925  1.4726 -0.8003 -0.0894
 4308SOL     OW13822   3.891   5.600   0.244  0.7438  0.5226  0.5138
 4308SOL    HW113823   3.851   5.546   0.170  1.9403  2.5180 -1.7276
 4308SOL    HW213824   3.968   5.550   0.285  1.4508  0.2473 -1.0871
 4309SOL     OW13825   1.416   2.927   1.066  0.1413  0.6106  0.1526
 4309SOL    HW113826   1.509   2.948   1.097  1.1280 -0.7733 -1.6642
 4309SOL    HW213827   1.385   2.998   1.004 -0.0725  1.1166  0.8249
 4310SOL     OW13828   6.547   2.289   4.375  0.5065  0.7748  0.2664
 4310SOL    HW113829   6.492   2.367   4.405  0.8890  1.5221 -0.8529
 4310SOL    HW213830   6.586   2.310   4.285  2.2599  0.1047  0.8240
 4311SOL     OW13831   0.349   0.446   1.004 -0.6773  0.7077 -0.0832
 4311SOL    HW113832   0.382   0.379   1.070  1.0111  0.1186 -1.4421
 4311SOL    HW213833   0.423   0.511   0.983 -1.3628  1.2370 -0.9370
 4312SOL     OW13834   6.929   2.644   3.293 -0.1924  0.5359 -0.1085
 4312SOL    HW113835   6.907   2.637   3.390  0.4682 -0.8251 -0.0390
 4312SOL    HW213836   7.020   2.683   3.281 -0.2529  0.6556 -0.1932
 4313SOL     OW13837   1.559   3.031   0.051 -0.0365  0.3493  0.0008
 4313SOL    HW113838   1.500   3.108   0.029 -0.9602 -0.2175  0.4671
 4313SOL    HW213839   1.655   3.061   0.050 -0.3909  1.5133  0.2846
 4314SOL     OW13840   4.322   1.846   5.512 -0.5931 -0.0649  0.4339
 4314SOL    HW113841   4.272   1.759   5.512  0.6946 -0.8632  1.7925
 4314SOL    HW213842   4.320   1.887   5.421 -0.6366 -1.8794 -0.4142
 4315SOL     OW13843   3.096   2.733   0.197  0.1133 -0.4613  0.1727
 4315SOL    HW113844   3.125   2.723   0.102 -0.0848 -0.7814  0.1450
 4315SOL    HW213845   3.020   2.797   0.202  0.3296 -0.2027  0.1535
 4316SOL     OW13846   5.231   5.394   0.517 -0.5589  0.5957  0.5295
 4316SOL    HW113847   5.326   5.392   0.549  1.1247  0.4007 -3.7153
 4316SOL    HW213848   5.196   5.300   0.514 -1.3830  0.7577  3.0981
 4317SOL     OW13849   3.711   6.237   1.635 -0.0792  0.1043 -0.8932
 4317SOL    HW113850   3.802   6.244   1.677 -0.7920  0.6769  0.6444
 4317SOL    HW213851   3.704   6.151   1.585  0.9023 -0.5272  0.0127
 4318SOL     OW13852   2.690   6.227   3.474  0.0628  0.2029 -0.8424
 4318SOL    HW113853   2.725   6.150   3.526 -0.8638 -0.0349 -0.5549
 4318SOL    HW213854   2.688   6.203   3.376 -2.3846 -1.0642 -0.5736
 4319SOL     OW13855   2.912   3.612   1.505  0.7440 -0.0808 -0.2669
 4319SOL    HW113856   2.872   3.529   1.545 -0.3231  0.1090 -0.8950
 4319SOL    HW213857   2.871   3.692   1.548 -0.3482  0.1262 -1.6267
 4320SOL     OW13858   4.967   1.161   2.320  0.2072  0.5474  0.5420
 4320SOL    HW113859   4.918   1.209   2.247  0.7743 -0.8231 -0.8135
 4320SOL    HW213860   5.061   1.144   2.290  0.5583  0.2610  1.7576
 4321SOL     OW13861   6.428   5.968   1.330  0.4548 -0.1789 -0.3216
 4321SOL    HW113862   6.516   5.983   1.375  1.1757  0.8517 -1.9978
 4321SOL    HW213863   6.417   6.032   1.255 -2.5377  0.9568  0.9007
 4322SOL     OW13864   2.374   2.598   4.097  0.1763  0.0714 -0.7000
 4322SOL    HW113865   2.304   2.570   4.162 -0.4425  2.2126 -0.4033
 4322SOL    HW213866   2.436   2.664   4.140  0.4110  0.6871 -1.9386
 4323SOL     OW13867   6.052   5.316   6.909 -0.4208  0.2433 -0.1435
 4323SOL    HW113868   5.992   5.392   6.883  1.1040  2.1962  1.6940
 4323SOL    HW213869   6.098   5.281   6.827 -1.4903  0.9994 -1.1086
 4324SOL     OW13870   6.311   3.581   5.475 -0.0914  0.1155  0.5999
 4324SOL    HW113871   6.363   3.632   5.544 -0.9307  1.4487  0.2919
 4324SOL    HW213872   6.283   3.493   5.513  0.1869  0.4691  1.6657
 4325SOL     OW13873   1.227   1.235   0.179 -0.8629 -0.0887 -0.8210
 4325SOL    HW113874   1.298   1.260   0.245 -2.5183 -1.5539  1.6436
 4325SOL    HW213875   1.271   1.196   0.097  1.2723  2.3761 -0.9927
 4326SOL     OW13876   5.142   4.289   2.836  0.1465 -0.0813  1.2409
 4326SOL    HW113877   5.214   4.219   2.841  1.1422  0.7566 -0.4479
 4326SOL    HW213878   5.053   4.247   2.858  0.7913 -1.7334  0.8326
 4327SOL     OW13879   4.381   6.281   3.466 -0.4013 -0.3408 -0.3097
 4327SOL    HW113880   4.473   6.257   3.495 -0.6668 -0.8202  0.1528
 4327SOL    HW213881   4.315   6.219   3.508 -1.0911  1.0187  0.7126
 4328SOL     OW13882   3.100   6.963   2.910  0.3375  0.6359 -0.8942
 4328SOL    HW113883   3.056   6.991   2.825 -0.6796  0.3322 -0.4768
 4328SOL    HW213884   3.032   6.923   2.972  1.3939 -1.0009 -0.7212
 4329SOL     OW13885   6.515   2.579   0.188  0.2990  0.1220  0.0570
 4329SOL    HW113886   6.513   2.497   0.131 -0.6074  0.3287 -0.2309
 4329SOL    HW213887   6.427   2.588   0.235  0.8207  0.2826  1.0270
 4330SOL     OW13888   1.402   1.140   5.285  0.2404  0.3922  0.8606
 4330SOL    HW113889   1.304   1.124   5.286  0.5086 -1.7609 -1.2943
 4330SOL    HW213890   1.421   1.228   5.241 -0.6714  0.6358  0.9358
 4331SOL     OW13891   0.558   2.343   3.409 -0.1628  0.3811  0.2512
 4331SOL    HW113892   0.476   2.319   3.461 -0.4953 -0.6343 -0.7123
 4331SOL    HW213893   0.635   2.356   3.471 -0.7599  0.0744  1.0612
 4332SOL     OW13894   5.184   5.589   1.585  0.1218 -0.5647  0.2198
 4332SOL    HW113895   5.194   5.539   1.499 -0.6938  1.3275 -1.0655
 4332SOL    HW213896   5.253   5.660   1.590 -2.1200  1.8833 -0.8627
 4333SOL     OW13897   4.146   2.649   5.880  0.6863  0.0901 -0.6194
 4333SOL    HW113898   4.148   2.644   5.980 -0.9609  0.3759 -0.5442
 4333SOL    HW213899   4.152   2.557   5.842 -0.8643 -0.2252 -0.1630
 4334SOL     OW13900   5.819   3.107   3.261  0.2222 -0.0812  0.0358
 4334SOL    HW113901   5.881   3.103   3.339 -0.1885  1.3970  0.4868
 4334SOL    HW213902   5.819   3.020   3.212  1.7916 -0.4548  0.6699
 4335SOL     OW13903   3.855   1.485   0.357 -0.0303  0.4452  0.6137
 4335SOL    HW113904   3.840   1.542   0.276  1.7746 -0.4755 -0.4491
 4335SOL    HW213905   3.801   1.521   0.433 -2.2642  1.0092 -1.1077
 4336SOL     OW13906   2.861   5.513   5.717  0.2402 -0.0895  0.3020
 4336SOL    HW113907   2.831   5.576   5.789  0.5889 -0.4541  0.7758
 4336SOL    HW213908   2.788   5.447   5.698  0.0225  0.2128  0.0829
 4337SOL     OW13909   7.015   5.007   3.689 -0.1700 -0.4909 -0.5100
 4337SOL    HW113910   7.074   4.975   3.763  0.2300  1.1987 -0.0568
 4337SOL    HW213911   6.932   5.047   3.727 -1.1385 -1.8261 -1.1066
 4338SOL     OW13912   3.848   2.604   5.461  0.1901  0.1825  0.3556
 4338SOL    HW113913   3.764   2.628   5.412 -0.9619 -0.7589  1.7648
 4338SOL    HW213914   3.826   2.589   5.558  2.0834  0.3655  0.8465
 4339SOL     OW13915   5.430   3.867   5.944  0.0041  0.4542 -0.2326
 4339SOL    HW113916   5.417   3.869   5.844  2.6340 -1.5543 -0.7211
 4339SOL    HW213917   5.381   3.789   5.982 -0.8383  1.1081  0.0382
 4340SOL     OW13918   0.424   5.558   0.525 -0.3858 -0.0622 -0.5659
 4340SOL    HW113919   0.452   5.462   0.524 -0.7770 -0.3000  2.4181
 4340SOL    HW213920   0.327   5.564   0.500 -1.1155 -0.8652  1.7400
 4341SOL     OW13921   6.006   5.587   1.283 -0.1487  0.5267  0.4881
 4341SOL    HW113922   5.945   5.643   1.227 -0.7254 -1.9595 -1.5857
 4341SOL    HW213923   6.099   5.623   1.277 -0.8479  2.6294  1.2726
 4342SOL     OW13924   4.116   4.779   1.794  0.5128 -0.3087 -0.4698
 4342SOL    HW113925   4.135   4.868   1.753  0.5896 -0.3730 -0.5751
 4342SOL    HW213926   4.048   4.730   1.739  0.7806 -0.4860 -0.6487
 4343SOL     OW13927   5.119   5.574   0.215 -0.1801  0.3326 -0.6440
 4343SOL    HW113928   5.185   5.503   0.194 -0.9436  0.0625 -2.2620
 4343SOL    HW213929   5.106   5.580   0.314 -0.2030 -1.8888 -0.4761
 4344SOL     OW13930   1.861   3.624   3.831 -0.8314  0.4748  0.2317
 4344SOL    HW113931   1.833   3.631   3.926 -0.1734 -0.8579  0.5495
 4344SOL    HW213932   1.803   3.556   3.784  0.0903 -0.3224  0.2087
 4345SOL     OW13933   3.652   3.434   1.615 -0.1064  0.0391  0.1150
 4345SOL    HW113934   3.719   3.388   1.673  0.7694  1.5106  0.3370
 4345SOL    HW213935   3.593   3.492   1.672 -2.1099 -1.7975  0.0207
 4346SOL     OW13936   1.928   2.261   1.996 -0.5736  0.0100 -0.3744
 4346SOL    HW113937   2.016   2.291   1.958 -0.7009 -0.3280 -0.9428
 4346SOL    HW213938   1.881   2.339   2.038  0.8056 -0.1298  1.5895
 4347SOL     OW13939   5.092   5.970   0.893  0.2350  0.2424 -0.0696
 4347SOL    HW113940   5.030   5.892   0.879 -1.2397  1.5643 -1.2388
 4347SOL    HW213941   5.077   6.007   0.985  0.2324 -0.2352  0.1279
 4348SOL     OW13942   6.536   3.267   5.413  0.1898 -0.5231 -0.5249
 4348SOL    HW113943   6.535   3.180   5.462  1.5366  0.9551  2.3564
 4348SOL    HW213944   6.443   3.298   5.396 -0.3873 -0.6841  2.0180
 4349SOL     OW13945   0.648   3.098   1.239  0.2775  0.0684  0.1448
 4349SOL    HW113946   0.726   3.049   1.279  0.8961  1.5281  0.7829
 4349SOL    HW213947   0.583   3.121   1.312  1.0423  2.0750  0.2590
 4350SOL     OW13948   4.699   6.991   4.340  0.3392  0.2593  0.3078
 4350SOL    HW113949   4.749   7.069   4.302 -0.3234  0.5629  0.0481
 4350SOL    HW213950   4.748   6.955   4.419  0.8464  0.7020  0.2002
 4351SOL     OW13951   0.501   5.978   1.608  0.3687 -0.4129  0.0237
 4351SOL    HW113952   0.475   5.881   1.611 -0.7876 -0.1353 -0.4461
 4351SOL    HW213953   0.599   5.987   1.622  0.7214 -1.7580 -1.3972
 4352SOL     OW13954   4.643   4.404   1.805  0.4107 -0.7261  0.5234
 4352SOL    HW113955   4.580   4.370   1.876  0.6905 -0.3124  0.9767
 4352SOL    HW213956   4.652   4.335   1.733 -0.9351 -0.5990  0.2082
 4353SOL     OW13957   3.596   3.447   0.222  0.9614  0.2846  0.0574
 4353SOL    HW113958   3.512   3.441   0.169  1.3210 -3.0415 -0.3720
 4353SOL    HW213959   3.578   3.423   0.317  1.0319  2.1551  0.5765
 4354SOL     OW13960   6.593   4.241   1.629 -0.0548  0.5230 -0.0067
 4354SOL    HW113961   6.608   4.268   1.724 -0.0345 -0.1911  0.1977
 4354SOL    HW213962   6.662   4.284   1.571  0.8912 -0.2632  0.5079
 4355SOL     OW13963   1.595   3.682   3.646 -0.6774  0.0013  0.5062
 4355SOL    HW113964   1.653   3.603   3.665 -1.2064 -0.9326 -1.4917
 4355SOL    HW213965   1.551   3.713   3.731 -0.4485 -1.8389  1.3383
 4356SOL     OW13966   5.499   3.697   5.118 -0.2321 -0.6335 -0.0600
 4356SOL    HW113967   5.497   3.767   5.188  2.3825  0.2772 -0.7972
 4356SOL    HW213968   5.437   3.723   5.043  0.1675  0.5280 -0.0010
 4357SOL     OW13969   3.932   6.615   1.922 -0.0714  0.3968  0.4743
 4357SOL    HW113970   3.842   6.655   1.940  0.6713  1.1021  3.0702
 4357SOL    HW213971   3.946   6.537   1.982  0.9545  0.1403 -0.0776
 4358SOL     OW13972   2.596   0.373   3.373 -0.4692  0.3288  0.3273
 4358SOL    HW113973   2.579   0.437   3.298 -1.0556 -0.2629 -0.0570
 4358SOL    HW213974   2.671   0.407   3.429 -0.2380  0.9494 -0.3353
 4359SOL     OW13975   2.904   4.037   1.285 -0.2021 -0.0134  0.3843
 4359SOL    HW113976   2.910   3.954   1.341  1.8195  0.3893  0.8681
 4359SOL    HW213977   2.916   4.117   1.344 -0.4393  0.5330 -0.2994
 4360SOL     OW13978   2.618   5.599   3.662 -0.0540 -0.0221 -0.8187
 4360SOL    HW113979   2.535   5.582   3.609  0.5619 -0.9646 -1.4915
 4360SOL    HW213980   2.631   5.525   3.728  0.0899  0.2833 -0.5021
 4361SOL     OW13981   2.624   0.777   0.013 -0.3504  0.0115 -0.1220
 4361SOL    HW113982   2.650   0.812  -0.077  0.4211 -0.6403 -0.1654
 4361SOL    HW213983   2.579   0.850   0.065 -0.5954  0.4611 -0.9440
 4362SOL     OW13984   4.614   5.555   1.073 -0.2822  0.2480 -0.1670
 4362SOL    HW113985   4.672   5.540   1.153  0.3824 -0.7918 -0.8256
 4362SOL    HW213986   4.547   5.628   1.093 -0.0306  0.1063  1.2670
 4363SOL     OW13987   4.795   0.104   2.620 -0.0869  0.3859 -0.0699
 4363SOL    HW113988   4.788   0.167   2.542  0.5632  0.1666 -0.3100
 4363SOL    HW213989   4.875   0.128   2.675 -0.4157  0.3991  0.4178
 4364SOL     OW13990   3.850   3.996   2.998  0.5075  0.7695 -0.2061
 4364SOL    HW113991   3.872   3.908   2.955  0.4666  0.0850  1.0940
 4364SOL    HW213992   3.911   4.010   3.077 -1.9548 -0.0046  1.9784
 4365SOL     OW13993   3.277   0.876   1.405  0.1657 -0.1435  0.4403
 4365SOL    HW113994   3.190   0.902   1.363 -1.0649 -0.5031  2.6400
 4365SOL    HW213995   3.301   0.942   1.476  0.5873 -1.1975  1.3043
 4366SOL     OW13996   5.169   5.797   4.128  0.1230  0.1553 -0.4791
 4366SOL    HW113997   5.162   5.764   4.222 -1.6810 -1.4497 -1.1073
 4366SOL    HW213998   5.264   5.820   4.107  0.7039 -0.3395  1.4469
 4367SOL     OW13999   1.450   2.366   0.826 -0.5600  0.1055  0.5085
 4367SOL    HW114000   1.455   2.460   0.793 -0.1459 -0.3646 -0.8557
 4367SOL    HW214001   1.382   2.315   0.772  1.2034 -1.0799 -0.7259
 4368SOL     OW14002   3.797   6.808   3.835  0.2292 -0.4941 -0.2558
 4368SOL    HW114003   3.851   6.724   3.832 -1.3178 -1.4798 -1.9940
 4368SOL    HW214004   3.856   6.886   3.812  2.0019 -0.8168  2.6823
 4369SOL     OW14005   6.367   3.883   1.331  0.5179  0.1369 -0.6445
 4369SOL    HW114006   6.284   3.932   1.359  1.4689  1.2772  0.2941
 4369SOL    HW214007   6.404   3.925   1.248  0.5499  0.1037 -0.6470
 4370SOL     OW14008   5.285   4.449   1.175  0.3940  0.4378  0.3389
 4370SOL    HW114009   5.319   4.418   1.264  3.0528 -1.7829 -1.3050
 4370SOL    HW214010   5.199   4.403   1.155  1.5057 -1.7900  0.3589
 4371SOL     OW14011   3.136   6.523   3.610 -0.2076 -0.0234 -0.0520
 4371SOL    HW114012   3.204   6.495   3.677 -0.7787 -1.3963 -0.0127
 4371SOL    HW214013   3.106   6.617   3.630  0.1867 -0.1352  1.1457
 4372SOL     OW14014   2.824   3.787   6.327  0.3304  0.3133  0.2241
 4372SOL    HW114015   2.776   3.873   6.310  1.8431  0.8340 -1.8225
 4372SOL    HW214016   2.783   3.715   6.272  1.1551  0.5384 -0.7365
 4373SOL     OW14017   4.101   0.948   6.193 -0.8952  0.3179 -0.2950
 4373SOL    HW114018   4.120   0.981   6.101 -2.5115  0.0692 -0.7376
 4373SOL    HW214019   4.186   0.949   6.247  0.2552 -0.3362 -2.0116
 4374SOL     OW14020   2.945   4.538   5.609  0.6202  0.2151 -0.2958
 4374SOL    HW114021   3.001   4.613   5.644  0.4103  1.5041 -2.5419
 4374SOL    HW214022   2.998   4.485   5.542 -0.0590 -0.0168 -0.6657
 4375SOL     OW14023   3.702   0.297   4.819 -0.3636 -0.4150 -0.1856
 4375SOL    HW114024   3.647   0.236   4.762  0.0804  1.1219 -2.4249
 4375SOL    HW214025   3.660   0.388   4.821  1.1434  0.3251 -0.4891
 4376SOL     OW14026   2.591   3.744   5.938 -0.0023 -0.5251  0.6862
 4376SOL    HW114027   2.594   3.646   5.954  0.0352 -0.4689  1.0414
 4376SOL    HW214028   2.663   3.789   5.992  0.5860 -0.3939 -0.1798
 4377SOL     OW14029   5.036   6.049   0.138  0.2455 -0.1222  0.3815
 4377SOL    HW114030   5.013   5.973   0.199 -0.2344 -0.4190 -0.1567
 4377SOL    HW214031   4.964   6.059   0.069 -0.7467  2.1405  1.6622
 4378SOL     OW14032   2.303   4.392   0.956  0.5185 -0.2556  0.0048
 4378SOL    HW114033   2.318   4.434   1.046  1.2631 -0.1681 -0.1544
 4378SOL    HW214034   2.237   4.317   0.965 -0.0205  0.2651  0.4778
 4379SOL     OW14035   5.935   0.457   1.332 -0.1452  0.6614  0.1633
 4379SOL    HW114036   5.869   0.448   1.257 -0.0577 -0.4735  0.2053
 4379SOL    HW214037   6.020   0.497   1.296  0.1798 -0.6034 -0.5390
 4380SOL     OW14038   2.481   0.067   5.109 -0.1890  0.4462  0.1823
 4380SOL    HW114039   2.430   0.105   5.033 -1.6355  1.1382  1.4600
 4380SOL    HW214040   2.573   0.043   5.078 -0.5058  1.3555 -1.5933
 4381SOL     OW14041   3.375   6.020   5.001 -0.4807 -0.1682 -0.5582
 4381SOL    HW114042   3.421   5.945   5.050  0.8386  0.8425 -0.1886
 4381SOL    HW214043   3.443   6.073   4.951 -1.0794  1.9179  0.7301
 4382SOL     OW14044   4.970   3.180   4.472 -0.0245 -0.3390 -0.4318
 4382SOL    HW114045   4.895   3.226   4.520  0.3844  1.4482 -1.4088
 4382SOL    HW214046   4.939   3.154   4.380  0.5394  0.4580 -0.8589
 4383SOL     OW14047   2.856   6.709   6.975  0.2034  0.1158 -0.0830
 4383SOL    HW114048   2.846   6.799   7.018  2.4440  1.0160 -1.2915
 4383SOL    HW214049   2.786   6.697   6.905 -1.3608  0.0231  1.4153
 4384SOL     OW14050   2.912   1.065   1.895  0.2723  0.2440 -0.3557
 4384SOL    HW114051   2.882   0.975   1.865  0.7845  0.5936 -2.0067
 4384SOL    HW214052   2.943   1.118   1.817  0.4237  1.7016  0.6482
 4385SOL     OW14053   5.497   3.346   3.407 -0.2271  0.4076  0.0707
 4385SOL    HW114054   5.403   3.317   3.426 -0.6522 -0.1972 -2.5768
 4385SOL    HW214055   5.557   3.318   3.482 -1.7306 -1.5428  0.6103
 4386SOL     OW14056   1.269   4.853   2.111  0.2725  0.0577 -0.3828
 4386SOL    HW114057   1.221   4.897   2.187  1.7808 -0.2558  0.7959
 4386SOL    HW214058   1.249   4.903   2.027 -2.7931 -0.5761 -0.1501
 4387SOL     OW14059   6.800   2.910   6.804 -0.3243  0.2355  0.5337
 4387SOL    HW114060   6.886   2.900   6.855  1.6401  1.2141 -2.3581
 4387SOL    HW214061   6.819   2.941   6.711 -3.6220 -2.3639 -1.2244
 4388SOL     OW14062   3.473   1.157   0.128  0.1161 -0.0234 -0.0883
 4388SOL    HW114063   3.540   1.174   0.201  2.2591 -1.4783 -1.5705
 4388SOL    HW214064   3.494   1.069   0.085 -2.0126  0.0955 -1.4863
 4389SOL     OW14065   2.147   3.307   3.848  0.1228  0.1428  0.0770
 4389SOL    HW114066   2.173   3.285   3.942  1.8348  1.8409  0.0722
 4389SOL    HW214067   2.131   3.406   3.841 -1.4986 -0.1647 -1.1110
 4390SOL     OW14068   5.114   3.548   6.568 -0.0054  0.2982 -0.3433
 4390SOL    HW114069   5.106   3.604   6.485 -1.7987  1.4262  0.5328
 4390SOL    HW214070   5.085   3.454   6.548 -2.9977  1.1422 -0.4795
 4391SOL     OW14071   6.465   6.626   0.586  0.2268 -0.1850 -0.1309
 4391SOL    HW114072   6.549   6.610   0.533 -0.4847 -1.2279 -0.9802
 4391SOL    HW214073   6.433   6.540   0.624  0.2249  0.4099  1.2957
 4392SOL     OW14074   4.124   5.573   5.065  0.3013 -0.2921 -0.0169
 4392SOL    HW114075   4.037   5.526   5.081  1.1430 -1.5533  1.1786
 4392SOL    HW214076   4.111   5.648   5.000 -1.5669 -0.7421 -0.2135
 4393SOL     OW14077   3.912   6.234   3.167 -0.5031  0.3270 -0.4453
 4393SOL    HW114078   3.892   6.284   3.251 -1.5721  0.5432 -0.8185
 4393SOL    HW214079   3.880   6.286   3.088  0.4865  0.1247 -0.9981
 4394SOL     OW14080   5.308   0.873   2.972 -0.3448 -0.4548 -0.4973
 4394SOL    HW114081   5.285   0.827   2.886 -1.1146 -1.0910  0.0329
 4394SOL    HW214082   5.335   0.805   3.040  0.8634  0.0957 -0.4093
 4395SOL     OW14083   5.721   1.359   0.928  0.2946 -0.2144 -0.2667
 4395SOL    HW114084   5.633   1.402   0.946  0.8994  1.0936 -0.2719
 4395SOL    HW214085   5.725   1.269   0.971 -0.5170  0.3070  0.9381
 4396SOL     OW14086   6.769   0.664   2.727  0.2764  0.8735  0.0780
 4396SOL    HW114087   6.853   0.650   2.780 -0.0133 -0.8554  0.1563
 4396SOL    HW214088   6.699   0.600   2.760 -0.4288  0.9001 -1.3154
 4397SOL     OW14089   2.230   2.007   0.216  0.0240  0.2856 -0.4135
 4397SOL    HW114090   2.259   2.095   0.252  3.1666 -0.6631 -0.3079
 4397SOL    HW214091   2.270   1.993   0.125  1.3510 -1.8254  0.4168
 4398SOL     OW14092   5.684   5.599   5.945  0.5297 -0.0378  0.0770
 4398SOL    HW114093   5.739   5.674   5.909  1.6079  0.0135  1.7122
 4398SOL    HW214094   5.622   5.635   6.016 -1.0419 -0.2419 -1.1353
 4399SOL     OW14095   1.526   6.846   2.841  0.3376 -0.4020 -0.6457
 4399SOL    HW114096   1.594   6.827   2.770  1.1923  0.0465  0.0220
 4399SOL    HW214097   1.573   6.856   2.929 -0.7245 -1.2220  0.0302
 4400SOL     OW14098   4.019   5.596   3.354  0.3034 -0.1552  0.7632
 4400SOL    HW114099   3.922   5.571   3.363  0.1201  0.4891  0.6355
 4400SOL    HW214100   4.057   5.552   3.272 -0.7892  2.2101 -1.1509
 4401SOL     OW14101   3.036   6.108   5.848 -0.0135  0.3468  0.4341
 4401SOL    HW114102   2.954   6.050   5.858  0.9586 -0.9113  1.6157
 4401SOL    HW214103   3.021   6.174   5.775 -2.4140  0.7290  1.1680
 4402SOL     OW14104   6.847   0.679   0.400  0.3008  0.8240  0.0777
 4402SOL    HW114105   6.924   0.691   0.463  0.2076  1.2718  0.1105
 4402SOL    HW214106   6.762   0.706   0.446  0.2106  0.9926 -0.1871
 4403SOL     OW14107   0.004   0.318   3.772  0.5743  0.2287  0.5086
 4403SOL    HW114108   0.041   0.410   3.755 -0.4174  0.4442 -0.5986
 4403SOL    HW214109  -0.095   0.318   3.755  0.4636 -0.9187  1.0460
 4404SOL     OW14110   2.121   4.096   1.495 -0.2820  0.4135 -0.5849
 4404SOL    HW114111   2.149   4.149   1.574  0.4412  2.4363 -2.1176
 4404SOL    HW214112   2.190   4.026   1.476 -0.7055 -0.4247  0.8082
 4405SOL     OW14113   2.426   3.263   0.827  0.1642 -0.1992  0.1729
 4405SOL    HW114114   2.333   3.251   0.861  0.9349 -1.9522  1.9139
 4405SOL    HW214115   2.450   3.187   0.768  0.7611 -0.2220  0.4353
 4406SOL     OW14116   5.491   3.131   2.137  0.1626  0.0424 -0.1619
 4406SOL    HW114117   5.470   3.207   2.198  0.1526 -0.3036  0.2716
 4406SOL    HW214118   5.481   3.044   2.186  0.5840 -0.2235 -0.5276
 4407SOL     OW14119   0.001   1.666   0.016 -0.0583  0.0770  0.1768
 4407SOL    HW114120  -0.059   1.715   0.079  1.2732 -0.0198  1.5594
 4407SOL    HW214121   0.094   1.665   0.052  0.1427 -2.7343 -0.2145
 4408SOL     OW14122   4.799   6.225   2.190  0.3089  0.4592  0.2144
 4408SOL    HW114123   4.811   6.132   2.154  0.9921  1.1510 -1.4672
 4408SOL    HW214124   4.728   6.224   2.260 -1.5952 -0.9140 -1.6002
 4409SOL     OW14125   4.434   1.578   2.322 -0.7571 -0.9201  0.5885
 4409SOL    HW114126   4.377   1.658   2.305  0.4124 -0.2270 -0.2174
 4409SOL    HW214127   4.378   1.495   2.318 -1.4809 -0.3896 -1.7395
 4410SOL     OW14128   2.157   6.078   1.178  0.2115 -0.0065  0.6433
 4410SOL    HW114129   2.159   6.044   1.272  0.4502 -2.0907 -0.0720
 4410SOL    HW214130   2.250   6.096   1.147  0.2613 -0.8011  0.3135
 4411SOL     OW14131   4.389   1.302   1.460  0.4977  0.3778  0.0660
 4411SOL    HW114132   4.483   1.313   1.427  0.5418  1.8919  0.5925
 4411SOL    HW214133   4.339   1.389   1.448 -0.6448 -0.2147  0.3625
 4412SOL     OW14134   3.414   6.906   6.579 -0.1521 -0.5482  0.1390
 4412SOL    HW114135   3.357   6.916   6.660  0.2613  0.1336  0.3461
 4412SOL    HW214136   3.414   6.992   6.527  1.3945 -0.2507  0.6043
 4413SOL     OW14137   4.552   0.122   4.693  0.4371  0.7608 -0.3398
 4413SOL    HW114138   4.628   0.104   4.630 -0.7081 -2.1862 -1.0390
 4413SOL    HW214139   4.509   0.036   4.718 -2.1030  2.2649  0.7899
 4414SOL     OW14140   4.481   4.850   1.217 -0.2126  0.2896 -0.3942
 4414SOL    HW114141   4.578   4.829   1.208 -0.1554  0.6760 -0.6901
 4414SOL    HW214142   4.450   4.825   1.309 -0.1918 -1.2382 -0.7889
 4415SOL     OW14143   3.210   0.198   2.310  0.3209  0.8572  0.3683
 4415SOL    HW114144   3.230   0.259   2.233  0.7400  1.7354  1.1538
 4415SOL    HW214145   3.112   0.200   2.329 -0.0099 -0.4568 -1.0208
 4416SOL     OW14146   3.358   1.869   6.276 -0.4675 -0.2667 -0.4512
 4416SOL    HW114147   3.356   1.963   6.243  1.9681  0.5509  1.4380
 4416SOL    HW214148   3.405   1.811   6.210  0.8078  0.5257 -0.2779
 4417SOL     OW14149   4.680   6.849   1.958  0.5495 -0.2768 -0.3033
 4417SOL    HW114150   4.597   6.833   2.011  0.7637  1.9271  0.7908
 4417SOL    HW214151   4.702   6.946   1.957  2.5146 -0.6577 -1.5258
 4418SOL     OW14152   4.893   1.285   4.633 -0.4838 -0.0474  0.2833
 4418SOL    HW114153   4.940   1.368   4.664  1.1756 -1.2163  1.0761
 4418SOL    HW214154   4.828   1.308   4.561 -0.4548  2.0044  0.8535
 4419SOL     OW14155   0.401   5.842   4.648  0.2675 -0.2371  0.6212
 4419SOL    HW114156   0.354   5.815   4.732  0.3211 -0.3273  0.6219
 4419SOL    HW214157   0.348   5.812   4.568  0.1049  0.0379  0.6211
 4420SOL     OW14158   6.739   6.967   1.899  0.0808 -0.6338 -0.6734
 4420SOL    HW114159   6.820   6.918   1.868  1.0028  0.7453 -0.5328
 4420SOL    HW214160   6.728   7.050   1.845 -0.3400 -0.0096  0.3541
 4421SOL     OW14161   0.564   0.354   3.461 -0.0695 -0.2208  0.3660
 4421SOL    HW114162   0.617   0.438   3.466 -0.3026 -0.1095  0.9389
 4421SOL    HW214163   0.603   0.286   3.523 -1.2470  0.2251  1.6442
 4422SOL     OW14164   4.188   3.713   6.142  0.1332  0.2564  0.0603
 4422SOL    HW114165   4.237   3.800   6.134 -0.7341  1.0234  2.2392
 4422SOL    HW214166   4.093   3.732   6.168 -0.6208 -1.3009 -1.3806
 4423SOL     OW14167   1.915   2.245   5.886 -0.0457  0.2651  0.2690
 4423SOL    HW114168   1.862   2.175   5.935  2.1049  0.2291  2.7807
 4423SOL    HW214169   1.878   2.335   5.908 -0.5653  0.1144  0.0218
 4424SOL     OW14170   1.225   6.538   2.560 -0.4579 -0.9135 -0.0990
 4424SOL    HW114171   1.297   6.546   2.629  0.7219  0.6924 -1.4601
 4424SOL    HW214172   1.169   6.457   2.580  0.7644 -1.3370  1.8573
 4425SOL     OW14173   6.040   1.934   1.815  0.2130  0.0554  0.5751
 4425SOL    HW114174   6.094   1.962   1.735 -1.3949 -0.6823 -0.8543
 4425SOL    HW214175   6.034   1.834   1.817 -1.6962  0.1169  0.1982
 4426SOL     OW14176   1.994   5.994   6.893 -0.0425 -0.4039  0.1953
 4426SOL    HW114177   2.046   5.969   6.811 -0.6269 -0.9668 -0.0091
 4426SOL    HW214178   2.037   6.074   6.936  0.1104  0.0793 -0.8145
 4427SOL     OW14179   1.047   4.115   4.317  0.8194 -0.4236 -0.3896
 4427SOL    HW114180   1.016   4.021   4.336  0.3379 -0.5150 -1.5413
 4427SOL    HW214181   0.987   4.179   4.366  1.1713 -0.7027  0.4317
 4428SOL     OW14182   2.459   6.777   1.586 -0.2339 -0.0056 -0.5014
 4428SOL    HW114183   2.524   6.775   1.510  1.2616 -2.2561  0.7401
 4428SOL    HW214184   2.492   6.840   1.656  0.0752 -0.3878 -0.3049
 4429SOL     OW14185   0.342   6.042   2.044 -0.0271 -0.4825  0.1062
 4429SOL    HW114186   0.288   5.997   1.973 -0.1585 -0.3674  0.1324
 4429SOL    HW214187   0.422   5.986   2.066 -0.1971 -0.7127  0.1507
 4430SOL     OW14188   3.672   6.633   3.619  0.0335  0.3244  0.5128
 4430SOL    HW114189   3.703   6.717   3.663  0.7111  0.1973  0.2750
 4430SOL    HW214190   3.721   6.555   3.658 -0.6348  0.0282  0.7754
 4431SOL     OW14191   1.465   2.201   6.709  0.1434  0.1083 -0.4615
 4431SOL    HW114192   1.413   2.163   6.786 -0.5935  2.4565  0.2848
 4431SOL    HW214193   1.530   2.133   6.676 -1.9921 -2.2533 -0.1385
 4432SOL     OW14194   3.148   3.024   4.500  0.2689  0.7710  0.0657
 4432SOL    HW114195   3.181   3.051   4.591  0.6512 -0.6175  0.3604
 4432SOL    HW214196   3.062   2.974   4.510 -0.0860  1.2720 -0.4150
 4433SOL     OW14197   5.647   5.479   1.516  0.3437 -0.4277 -0.2207
 4433SOL    HW114198   5.714   5.439   1.454 -0.7346 -2.9008  0.0951
 4433SOL    HW214199   5.555   5.459   1.483 -0.2690  1.0835  0.4672
 4434SOL     OW14200   6.584   4.201   5.321 -0.2404 -0.0216 -0.4965
 4434SOL    HW114201   6.647   4.140   5.369  1.1786  1.1596 -0.7737
 4434SOL    HW214202   6.510   4.227   5.383 -0.4519 -1.4113 -0.1431
 4435SOL     OW14203   3.413   3.227   2.420  0.0281  0.2239  0.5568
 4435SOL    HW114204   3.440   3.320   2.397  0.0726  0.0205 -0.2421
 4435SOL    HW214205   3.481   3.163   2.386 -0.9827 -0.2322 -0.6714
 4436SOL     OW14206   5.672   0.346   2.527 -0.3453 -0.1637 -0.3045
 4436SOL    HW114207   5.574   0.344   2.547 -0.1272 -0.4523  0.7516
 4436SOL    HW214208   5.723   0.372   2.609  0.3940  1.1327 -1.1217
 4437SOL     OW14209   3.773   5.779   6.118 -0.3448 -0.1021 -0.0764
 4437SOL    HW114210   3.699   5.733   6.069 -1.9248  3.1607 -1.0894
 4437SOL    HW214211   3.756   5.773   6.217 -1.7106  0.1265 -0.2752
 4438SOL     OW14212   3.463   3.775   6.225  0.4263  0.1132  0.3580
 4438SOL    HW114213   3.513   3.859   6.248  0.5393 -0.0212  0.6089
 4438SOL    HW214214   3.365   3.795   6.221  0.3305  0.0104  1.6417
 4439SOL     OW14215   2.186   5.402   3.814 -0.1485 -0.0479 -0.3575
 4439SOL    HW114216   2.104   5.369   3.860 -1.3896  2.2585 -0.7819
 4439SOL    HW214217   2.266   5.351   3.846 -1.5052 -1.1436  1.3858
 4440SOL     OW14218   0.078   1.845   1.052  0.2503 -0.3674  0.2282
 4440SOL    HW114219   0.168   1.889   1.051  1.2608 -2.3615 -0.3603
 4440SOL    HW214220   0.011   1.907   1.094  1.6214  1.6268 -0.4178
 4441SOL     OW14221   5.853   0.143   4.357 -0.1852 -0.2129 -0.2472
 4441SOL    HW114222   5.934   0.201   4.365 -0.7679  0.4340  1.4997
 4441SOL    HW214223   5.876   0.059   4.307  1.8446 -0.5439  1.1430
 4442SOL     OW14224   1.200   4.265   0.279 -0.1098  0.0948  0.2978
 4442SOL    HW114225   1.260   4.225   0.210  0.3037 -1.1612  1.3592
 4442SOL    HW214226   1.223   4.228   0.369  0.2729  2.6755  1.3660
 4443SOL     OW14227   1.656   1.194   1.010  0.2245  0.0911  0.3328
 4443SOL    HW114228   1.651   1.203   0.910 -0.0531 -2.3321  0.0580
 4443SOL    HW214229   1.700   1.274   1.048  0.2006  1.1592 -1.7261
 4444SOL     OW14230   6.494   2.984   1.920 -0.0962 -0.1648 -0.0027
 4444SOL    HW114231   6.482   2.946   2.011 -0.9380 -2.2071 -0.8971
 4444SOL    HW214232   6.417   3.044   1.898  0.4853  0.9284  0.8732
 4445SOL     OW14233   1.153   2.209   4.518  0.2866  0.2740 -0.2427
 4445SOL    HW114234   1.131   2.303   4.492 -1.5326  0.0155  0.2252
 4445SOL    HW214235   1.121   2.146   4.447  2.4837  0.0205 -1.0891
 4446SOL     OW14236   5.434   3.272   5.123 -0.1112 -0.4195 -0.2835
 4446SOL    HW114237   5.532   3.254   5.132  0.0889  0.0179 -1.4307
 4446SOL    HW214238   5.418   3.326   5.040 -1.1671  0.8315  0.7049
 4447SOL     OW14239   5.422   4.195   3.171 -0.4926 -0.1926 -0.5274
 4447SOL    HW114240   5.522   4.191   3.170 -0.5185 -1.6446  0.4929
 4447SOL    HW214241   5.393   4.273   3.226  0.0850 -0.4001  0.0928
 4448SOL     OW14242   4.670   3.169   5.982 -0.1582  0.1657  0.4838
 4448SOL    HW114243   4.677   3.242   6.051 -0.5406  0.7257 -0.0582
 4448SOL    HW214244   4.709   3.085   6.019 -1.1148  0.2245  1.7109
 4449SOL     OW14245   0.689   2.914   6.725  0.2754 -0.1271  0.0527
 4449SOL    HW114246   0.781   2.927   6.689  0.4930 -0.1447  0.5918
 4449SOL    HW214247   0.655   3.000   6.763 -0.2233  0.0605 -0.8036
 4450SOL     OW14248   3.919   3.802   3.869  0.3745  0.1716 -0.3024
 4450SOL    HW114249   3.888   3.875   3.930 -1.3466 -0.6735 -0.0992
 4450SOL    HW214250   3.841   3.768   3.816  1.3321 -0.8664 -1.0992
 4451SOL     OW14251   0.679   6.538   0.658 -0.2797 -0.9976 -0.0838
 4451SOL    HW114252   0.653   6.624   0.614 -0.1622 -1.0106 -0.1781
 4451SOL    HW214253   0.626   6.526   0.742 -0.9178 -1.2519 -0.5198
 4452SOL     OW14254   1.174   5.100   6.055 -0.6597  0.0948  0.3918
 4452SOL    HW114255   1.161   5.071   6.150 -0.4596  1.2262  0.7878
 4452SOL    HW214256   1.271   5.116   6.038 -0.6498 -0.4859 -0.1304
 4453SOL     OW14257   6.671   1.923   0.310 -0.2201  0.2242  0.6821
 4453SOL    HW114258   6.689   1.980   0.390  0.1169 -0.1570  0.8804
 4453SOL    HW214259   6.587   1.871   0.325 -0.9780  1.2459  0.1728
 4454SOL     OW14260   6.623   1.723   2.330  0.5473 -0.0523 -0.0411
 4454SOL    HW114261   6.608   1.628   2.304 -1.6736  0.6033 -1.3568
 4454SOL    HW214262   6.587   1.738   2.423  0.7819 -0.4427  0.1161
 4455SOL     OW14263   5.596   1.578   1.457 -0.3207 -0.0654 -0.0055
 4455SOL    HW114264   5.522   1.511   1.450 -0.5249  0.2342 -0.8597
 4455SOL    HW214265   5.680   1.539   1.422 -0.4711  0.1651 -0.6310
 4456SOL     OW14266   6.859   4.581   1.539 -0.1902 -0.3167  0.0606
 4456SOL    HW114267   6.933   4.585   1.471 -0.4214  0.9663 -0.1432
 4456SOL    HW214268   6.788   4.519   1.506  0.2092 -0.5686 -0.3447
 4457SOL     OW14269   5.527   1.125   5.000  0.0152 -0.0250  0.6367
 4457SOL    HW114270   5.483   1.042   5.035 -0.2378 -0.6367 -1.0773
 4457SOL    HW214271   5.584   1.165   5.072 -0.5614 -1.1786  1.7710
 4458SOL     OW14272   4.222   2.948   0.384  0.1165  0.4617  0.2875
 4458SOL    HW114273   4.313   2.906   0.379  0.2806  0.9268 -0.8150
 4458SOL    HW214274   4.161   2.889   0.438  0.0847 -1.7175 -1.9515
 4459SOL     OW14275   0.597   5.904   5.017 -0.3360  0.7499  0.0514
 4459SOL    HW114276   0.551   5.818   5.039 -1.1419  1.1528 -0.0394
 4459SOL    HW214277   0.685   5.884   4.973 -0.1196 -0.0341  0.8042
 4460SOL     OW14278   1.523   1.054   1.379 -0.2459 -0.0943 -0.1011
 4460SOL    HW114279   1.507   1.083   1.285 -0.7737  2.3205  0.6846
 4460SOL    HW214280   1.612   1.010   1.386  1.7789  3.4955 -1.0196
 4461SOL     OW14281   1.627   0.413   3.748 -0.3592 -0.5723  0.0134
 4461SOL    HW114282   1.593   0.386   3.838  3.8202 -2.5718  1.2432
 4461SOL    HW214283   1.640   0.332   3.692  2.3961 -0.0359 -0.2217
 4462SOL     OW14284   6.294   2.639   0.353 -0.0392  0.1357 -0.2322
 4462SOL    HW114285   6.314   2.597   0.442  0.2290  0.5666 -0.0853
 4462SOL    HW214286   6.197   2.660   0.347 -0.2304 -0.7926 -0.4315
 4463SOL     OW14287   0.081   3.134   0.973  0.2559 -0.1702 -0.1884
 4463SOL    HW114288   0.127   3.149   0.885  0.3798 -0.3914 -0.1624
 4463SOL    HW214289   0.092   3.038   1.001 -1.1574 -0.5233 -0.7196
 4464SOL     OW14290   6.518   2.584   0.904  0.2053 -1.1949  0.3264
 4464SOL    HW114291   6.571   2.541   0.978  0.0485  0.7931  1.6635
 4464SOL    HW214292   6.576   2.594   0.823  1.6072  0.0267  1.4322
 4465SOL     OW14293   5.898   3.068   0.403 -0.4228 -0.1867 -0.0466
 4465SOL    HW114294   5.946   3.023   0.327 -0.9953 -0.3662 -0.3137
 4465SOL    HW214295   5.884   3.003   0.477  1.7676  0.4746  1.0044
 4466SOL     OW14296   6.395   1.828   4.324 -0.0753 -0.1961  0.3467
 4466SOL    HW114297   6.366   1.881   4.404 -2.3485 -1.1977  0.2665
 4466SOL    HW214298   6.493   1.839   4.311 -0.0479  1.9659  1.7922
 4467SOL     OW14299   6.784   6.991   4.219  0.1985 -0.4463 -0.3402
 4467SOL    HW114300   6.752   6.918   4.279 -0.0011 -0.5416 -0.5633
 4467SOL    HW214301   6.787   7.077   4.269 -1.8331 -0.1256 -0.7110
 4468SOL     OW14302   2.056   1.353   6.162  0.4691  0.1248  0.3774
 4468SOL    HW114303   1.963   1.320   6.147  0.7004 -1.5286  2.1365
 4468SOL    HW214304   2.052   1.437   6.217 -0.0070  0.8903 -0.7995
 4469SOL     OW14305   4.476   0.110   0.504 -0.2118 -0.0318 -0.1735
 4469SOL    HW114306   4.415   0.189   0.494 -0.0820  0.3364  1.7304
 4469SOL    HW214307   4.508   0.081   0.413  0.4607  2.6612 -0.8661
 4470SOL     OW14308   5.460   0.022   1.712  0.0433 -0.6880  0.5101
 4470SOL    HW114309   5.537   0.083   1.697 -1.0154  1.5621  3.1693
 4470SOL    HW214310   5.492  -0.073   1.714  2.2472 -0.0459 -0.9494
 4471SOL     OW14311   0.449   2.925   1.538  0.0974 -0.1625 -0.7946
 4471SOL    HW114312   0.373   2.946   1.599  2.4207 -0.2892  2.4315
 4471SOL    HW214313   0.485   3.009   1.498  1.7047  0.7570  2.2732
 4472SOL     OW14314   2.807   4.793   2.145 -0.1617 -0.0566 -0.2455
 4472SOL    HW114315   2.771   4.729   2.078  1.8136  0.7887 -2.2269
 4472SOL    HW214316   2.820   4.883   2.102  0.5753  0.6941  1.4494
 4473SOL     OW14317   0.564   0.044   6.382  0.3152 -0.5787 -0.2679
 4473SOL    HW114318   0.467   0.041   6.355  0.0881  0.5043  0.3761
 4473SOL    HW214319   0.600  -0.049   6.387 -1.2913 -1.1673  1.5619
 4474SOL     OW14320   0.470   1.944   5.609  0.2138  0.2101  0.1588
 4474SOL    HW114321   0.392   1.881   5.613  0.8016 -1.2742 -4.6734
 4474SOL    HW214322   0.445   2.024   5.555  2.1023 -0.8473 -2.5557
 4475SOL     OW14323   1.765   3.363   0.731  0.4775 -0.2869  0.3020
 4475SOL    HW114324   1.752   3.391   0.635  0.2931  1.3178  0.7750
 4475SOL    HW214325   1.831   3.287   0.735  0.4653 -0.3972 -1.0906
 4476SOL     OW14326   3.790   0.477   4.443  0.3275  0.7661 -0.4550
 4476SOL    HW114327   3.693   0.455   4.430  0.6564 -0.8964 -0.3509
 4476SOL    HW214328   3.799   0.571   4.475 -1.2168  1.0934 -0.8916
 4477SOL     OW14329   0.171   0.984   1.205  0.1017 -0.1278 -0.6847
 4477SOL    HW114330   0.210   0.903   1.162  1.0162 -0.6895  1.0915
 4477SOL    HW214331   0.238   1.024   1.267 -0.7432  1.3358 -0.6862
 4478SOL     OW14332   0.541   5.245   0.909 -0.2144  0.0147 -0.1813
 4478SOL    HW114333   0.636   5.250   0.879  0.3817 -1.6621  1.2556
 4478SOL    HW214334   0.494   5.330   0.887  1.7409  1.0554 -0.5002
 4479SOL     OW14335   0.930   6.664   5.620  0.3922  0.5856  0.0937
 4479SOL    HW114336   0.914   6.582   5.676 -1.2316  0.7379 -0.0853
 4479SOL    HW214337   0.916   6.642   5.524 -0.5994  1.1594  0.0861
 4480SOL     OW14338   0.182   3.953   3.028  0.4546  0.2303 -0.3776
 4480SOL    HW114339   0.227   4.042   3.025 -0.1019  0.5388  0.2981
 4480SOL    HW214340   0.233   3.891   3.088 -0.2089  0.7025  0.7086
 4481SOL     OW14341   1.503   2.006   1.796 -0.1906 -0.3065 -0.1593
 4481SOL    HW114342   1.599   2.030   1.811 -1.3904  3.3395  3.5785
 4481SOL    HW214343   1.482   2.015   1.699  2.4043  2.7671 -0.6058
 4482SOL     OW14344   0.555   5.109   1.969 -0.0040  0.3450  0.5407
 4482SOL    HW114345   0.645   5.068   1.985  0.0467  0.9946  2.1345
 4482SOL    HW214346   0.484   5.048   2.002 -0.2570 -0.5525 -1.4887
 4483SOL     OW14347   0.000   5.681   0.734 -0.2159 -0.3716 -0.9984
 4483SOL    HW114348   0.074   5.738   0.771 -0.0318 -0.7798 -0.7294
 4483SOL    HW214349  -0.032   5.618   0.806  0.6181 -1.6647 -1.7192
 4484SOL     OW14350   4.281   3.990   6.101  0.7935 -0.1676 -0.0427
 4484SOL    HW114351   4.378   4.004   6.123  1.0128  1.7049 -1.8825
 4484SOL    HW214352   4.226   4.057   6.151  0.7138  0.3568 -0.8230
 4485SOL     OW14353   4.185   5.595   6.272 -0.3567  0.3500 -0.3636
 4485SOL    HW114354   4.177   5.612   6.174  0.1246  1.8981 -0.1734
 4485SOL    HW214355   4.095   5.607   6.315 -0.4162  0.4812 -0.5204
 4486SOL     OW14356   5.200   1.030   4.479 -0.1504 -0.2552  0.0531
 4486SOL    HW114357   5.253   0.975   4.545  0.6345  2.3833  1.7627
 4486SOL    HW214358   5.103   1.024   4.502 -0.0316 -0.5333  0.5157
 4487SOL     OW14359   6.085   2.532   4.113  0.2147  0.4981 -0.1758
 4487SOL    HW114360   6.071   2.573   4.023  0.5369 -0.3632 -0.6299
 4487SOL    HW214361   6.150   2.588   4.165 -1.5648  2.1779  0.3533
 4488SOL     OW14362   6.407   1.046   6.275  0.0306  0.0493 -0.5624
 4488SOL    HW114363   6.356   0.980   6.218  0.2614 -1.0850  0.5068
 4488SOL    HW214364   6.383   1.031   6.371 -0.1104  1.7302 -0.3159
 4489SOL     OW14365   0.004   4.613   4.465  0.2105 -0.0225  0.3232
 4489SOL    HW114366  -0.029   4.675   4.536 -1.0386  0.9031 -0.9874
 4489SOL    HW214367  -0.047   4.631   4.380 -0.2665 -2.9400 -0.0953
 4490SOL     OW14368   0.557   1.646   3.944  0.6198  0.5790 -0.2630
 4490SOL    HW114369   0.569   1.662   3.846  2.0419  1.1363 -0.0183
 4490SOL    HW214370   0.463   1.617   3.962  0.5831 -0.4584 -1.9078
 4491SOL     OW14371   1.873   3.920   1.195 -0.2636 -0.0383  1.0087
 4491SOL    HW114372   1.910   3.854   1.129 -1.5686 -2.5874  2.6349
 4491SOL    HW214373   1.874   4.012   1.155  2.9319 -0.7398 -0.8694
 4492SOL     OW14374   5.756   3.977   0.312  0.4692  0.2114 -0.2877
 4492SOL    HW114375   5.786   4.016   0.225  1.5556 -0.3272 -0.1713
 4492SOL    HW214376   5.667   3.934   0.299  1.3660 -1.3768 -1.5977
 4493SOL     OW14377   6.448   4.430   2.405  0.1000  0.2285  0.2323
 4493SOL    HW114378   6.505   4.386   2.336 -0.7749 -0.0033 -0.3572
 4493SOL    HW214379   6.475   4.398   2.496  0.4729 -0.3790 -0.0867
 4494SOL     OW14380   5.704   4.320   1.251 -0.3585 -0.1342 -0.1101
 4494SOL    HW114381   5.679   4.414   1.226 -0.4965 -0.4698 -1.3090
 4494SOL    HW214382   5.641   4.287   1.321  0.4800  1.0950  1.2853
 4495SOL     OW14383   4.824   3.791   2.535 -0.3122 -0.2767 -0.1080
 4495SOL    HW114384   4.748   3.728   2.521  0.8672 -1.5384 -1.2037
 4495SOL    HW214385   4.880   3.760   2.612  0.6226 -0.9780 -1.0392
 4496SOL     OW14386   6.135   3.586   0.374  0.5688 -0.0861 -0.9676
 4496SOL    HW114387   6.062   3.559   0.438 -0.6392  1.3437 -1.6612
 4496SOL    HW214388   6.218   3.536   0.395 -0.6081 -1.8043 -0.1352
 4497SOL     OW14389   0.012   6.850   0.603 -0.2401  0.3758 -0.3761
 4497SOL    HW114390   0.029   6.778   0.671  0.0011  1.3321  0.5951
 4497SOL    HW214391   0.094   6.861   0.546  0.0146  0.4402 -0.0002
 4498SOL     OW14392   0.963   4.316   6.863  0.1949  0.0419  0.3461
 4498SOL    HW114393   1.010   4.304   6.776 -0.5806 -0.0400 -0.0756
 4498SOL    HW214394   0.898   4.392   6.856  0.8277  0.6819  1.1662
 4499SOL     OW14395   5.323   4.407   6.510 -0.1993 -0.3506 -0.4072
 4499SOL    HW114396   5.228   4.438   6.519 -0.3971 -1.1411  0.4158
 4499SOL    HW214397   5.385   4.483   6.530 -0.6694 -0.2497  0.7509
 4500SOL     OW14398   2.018   3.760   1.689 -0.0089  0.6704 -0.1679
 4500SOL    HW114399   2.032   3.681   1.748 -1.3986  1.6547  1.5576
 4500SOL    HW214400   1.974   3.730   1.604 -0.2452 -0.4372  0.3210
 4501SOL     OW14401   1.452   4.897   2.728  0.1018  0.2742  0.1860
 4501SOL    HW114402   1.466   4.872   2.824  0.9550  0.3081  0.0769
 4501SOL    HW214403   1.515   4.969   2.702 -1.7783  2.0392  0.2556
 4502SOL     OW14404   0.376   5.046   0.561 -0.1597 -0.2878  0.3189
 4502SOL    HW114405   0.453   5.097   0.523  0.1200  0.5057  1.8436
 4502SOL    HW214406   0.300   5.047   0.497  0.1980  1.1934 -0.1178
 4503SOL     OW14407   2.258   2.151   3.854 -0.5177 -0.1389  0.1509
 4503SOL    HW114408   2.319   2.195   3.788 -0.0465 -1.4649 -0.3300
 4503SOL    HW214409   2.196   2.219   3.892  0.5567  1.0482 -0.1327
 4504SOL     OW14410   4.446   1.668   4.493  0.2155  0.4280  0.3285
 4504SOL    HW114411   4.477   1.682   4.588  2.0965  0.6051 -0.2707
 4504SOL    HW214412   4.440   1.570   4.475  0.7296  0.3790  0.3862
 4505SOL     OW14413   2.072   5.483   0.367 -0.3049 -0.4492  0.0272
 4505SOL    HW114414   2.057   5.511   0.272  0.5117 -0.9086 -0.2450
 4505SOL    HW214415   1.992   5.508   0.422 -1.1577 -0.9635 -0.9534
 4506SOL     OW14416   2.471   5.462   6.335  0.2372  0.3861  0.3017
 4506SOL    HW114417   2.558   5.510   6.346  0.0122  1.1987 -1.2244
 4506SOL    HW214418   2.414   5.476   6.416  0.5352  1.9755  0.2647
 4507SOL     OW14419   0.268   5.729   2.765  0.1800 -0.5452 -0.1326
 4507SOL    HW114420   0.200   5.781   2.816  1.1941  0.5527  0.1346
 4507SOL    HW214421   0.237   5.714   2.671 -0.5105 -0.2474  0.0483
 4508SOL     OW14422   1.811   6.048   0.621  0.2334 -0.3711 -0.4034
 4508SOL    HW114423   1.800   6.088   0.530 -0.7019 -1.0413 -0.5958
 4508SOL    HW214424   1.741   6.083   0.682 -0.2438 -1.2521 -0.4235
 4509SOL     OW14425   0.107   3.094   2.927 -0.1200  0.0208  0.1088
 4509SOL    HW114426   0.060   3.008   2.947  1.2326 -0.6353  0.5443
 4509SOL    HW214427   0.085   3.161   2.998 -1.0426  0.0058 -0.1398
 4510SOL     OW14428   1.994   0.500   1.261  0.6278  0.4134 -0.2982
 4510SOL    HW114429   2.073   0.525   1.205  1.0134  0.8191  0.4168
 4510SOL    HW214430   2.002   0.541   1.352  0.8745 -1.6389  0.6578
 4511SOL     OW14431   0.240   2.914   5.675  0.0449  0.4889  0.6027
 4511SOL    HW114432   0.279   2.880   5.590 -2.6455  1.3080 -1.0880
 4511SOL    HW214433   0.174   2.848   5.711  0.3245  0.6541  1.4551
 4512SOL     OW14434   1.524   1.911   0.987 -0.3659 -0.2223 -0.6493
 4512SOL    HW114435   1.579   1.993   0.975 -0.7598  0.0688 -0.4760
 4512SOL    HW214436   1.575   1.832   0.954  0.6670 -0.1353  0.6364
 4513SOL     OW14437   6.910   2.034   1.962  0.1075 -0.0816 -0.4125
 4513SOL    HW114438   6.830   2.080   2.001 -0.2060  1.3239 -2.5555
 4513SOL    HW214439   6.925   2.066   1.869  2.3139 -1.4311 -0.5975
 4514SOL     OW14440   2.268   0.467   5.501 -0.0774  0.2419  0.3748
 4514SOL    HW114441   2.256   0.417   5.416  1.7084 -0.0362  0.2626
 4514SOL    HW214442   2.362   0.457   5.534  0.0838  2.6802  0.8780
 4515SOL     OW14443   0.390   2.740   1.882 -0.6281 -0.1535  0.0773
 4515SOL    HW114444   0.341   2.685   1.948 -0.8243  0.5705  0.5434
 4515SOL    HW214445   0.473   2.778   1.924 -0.4034 -0.2306 -0.2879
 4516SOL     OW14446   5.083   0.800   4.844  0.7206  0.1863  0.5152
 4516SOL    HW114447   5.065   0.784   4.747 -1.0484  0.8421  0.6938
 4516SOL    HW214448   5.132   0.723   4.882  2.8897  0.5940 -1.2380
 4517SOL     OW14449   2.156   0.937   0.601 -0.1602  0.2292  0.0297
 4517SOL    HW114450   2.221   0.862   0.588  1.4841  1.3162  1.6080
 4517SOL    HW214451   2.135   0.948   0.698 -1.2616  1.1090 -0.2797
 4518SOL     OW14452   0.316   1.612   2.503  0.3414  0.2541 -0.1245
 4518SOL    HW114453   0.262   1.667   2.440  0.3245  0.8267  0.3819
 4518SOL    HW214454   0.353   1.532   2.455  1.1186  1.1780 -1.1006
 4519SOL     OW14455   1.465   2.397   4.539 -0.0711  0.2128  0.8577
 4519SOL    HW114456   1.396   2.333   4.506  0.9979 -2.0368  2.7313
 4519SOL    HW214457   1.425   2.454   4.611 -0.1931 -0.5538  1.4057
 4520SOL     OW14458   6.527   4.523   3.751  0.0718 -0.3583 -0.5813
 4520SOL    HW114459   6.523   4.618   3.722  1.5696 -0.3295 -0.7648
 4520SOL    HW214460   6.556   4.466   3.674  2.3225 -0.5159  0.3079
 4521SOL     OW14461   6.103   1.192   6.441 -0.4570  0.8242  0.2076
 4521SOL    HW114462   6.123   1.214   6.346 -0.5946  1.2895  0.2822
 4521SOL    HW214463   6.147   1.106   6.466 -0.9160  0.3941 -0.4511
 4522SOL     OW14464   4.739   5.395   3.764 -0.2655  0.0700 -0.3047
 4522SOL    HW114465   4.688   5.331   3.706 -4.3057  1.6447  1.1380
 4522SOL    HW214466   4.807   5.443   3.709 -0.5321 -1.9141 -2.5404
 4523SOL     OW14467   4.411   2.722   6.156 -0.6794 -0.2362 -0.3508
 4523SOL    HW114468   4.331   2.680   6.112 -0.7880 -0.4051  0.0052
 4523SOL    HW214469   4.402   2.822   6.152 -0.0246 -0.2004 -1.9368
 4524SOL     OW14470   4.433   2.153   4.254  0.4295  0.2846 -0.2312
 4524SOL    HW114471   4.436   2.085   4.181  1.1533  0.6935 -0.5994
 4524SOL    HW214472   4.464   2.112   4.339  3.9879  0.8497 -1.0773
 4525SOL     OW14473   6.755   6.710   3.621  0.1932 -0.2312 -0.0622
 4525SOL    HW114474   6.821   6.760   3.565 -1.5802  0.0380 -2.0324
 4525SOL    HW214475   6.714   6.772   3.687  0.3496  0.1339 -0.3017
 4526SOL     OW14476   1.331   2.400   6.569  0.0310 -0.4289  0.3090
 4526SOL    HW114477   1.376   2.465   6.508  0.1177 -1.0504 -0.3085
 4526SOL    HW214478   1.398   2.334   6.603 -0.1433 -0.4957  0.5244
 4527SOL     OW14479   4.930   6.032   3.397  0.7090  0.6657  0.1612
 4527SOL    HW114480   4.880   6.103   3.447  0.0483 -0.9343  1.9283
 4527SOL    HW214481   4.891   6.022   3.306 -1.3954  0.3970  1.0173
 4528SOL     OW14482   5.631   0.828   0.505  0.2147 -0.0284 -0.7677
 4528SOL    HW114483   5.636   0.739   0.548  0.3440 -0.3221 -1.3768
 4528SOL    HW214484   5.656   0.899   0.571  2.6585 -0.6253 -0.9481
 4529SOL     OW14485   5.086   6.788   3.526  0.1709  0.1111  0.2400
 4529SOL    HW114486   5.050   6.705   3.570 -0.6007  0.6155  0.5918
 4529SOL    HW214487   5.097   6.771   3.428 -0.5844 -0.2209  0.2042
 4530SOL     OW14488   0.237   1.703   5.318 -0.0396  0.0452  0.3144
 4530SOL    HW114489   0.271   1.621   5.271  1.7338  1.0787 -0.2763
 4530SOL    HW214490   0.263   1.699   5.414 -0.3368 -0.2709  0.3861
 4531SOL     OW14491   0.668   4.557   3.775  0.3590  0.4664 -0.1012
 4531SOL    HW114492   0.626   4.632   3.826  0.9130 -0.3505  1.6214
 4531SOL    HW214493   0.596   4.504   3.729 -0.5101 -0.5048  2.2384
 4532SOL     OW14494   0.543   3.125   0.432  0.3314  0.2042  0.0855
 4532SOL    HW114495   0.549   3.183   0.351  0.7779 -1.0443 -0.8144
 4532SOL    HW214496   0.613   3.053   0.427  1.0057  0.6539  2.0534
 4533SOL     OW14497   5.965   0.264   0.896 -0.0397 -0.2911 -0.3828
 4533SOL    HW114498   6.064   0.259   0.885 -0.0755 -0.5742 -0.5695
 4533SOL    HW214499   5.929   0.175   0.922 -0.2675 -0.2299 -0.4827
 4534SOL     OW14500   0.568   3.798   5.737  0.2877  0.4718 -0.0789
 4534SOL    HW114501   0.642   3.765   5.678 -0.0481  0.2511 -0.3778
 4534SOL    HW214502   0.603   3.870   5.796  0.8162  0.1708 -0.0166
 4535SOL     OW14503   5.859   2.154   3.814 -0.2582  0.4376  0.0800
 4535SOL    HW114504   5.921   2.232   3.808  0.1963  0.0774 -0.0120
 4535SOL    HW214505   5.770   2.184   3.848 -0.4337  1.1950 -0.9861
 4536SOL     OW14506   0.707   0.168   5.388 -0.3777 -0.1744  0.1848
 4536SOL    HW114507   0.668   0.194   5.300 -1.7967 -2.0245  0.2355
 4536SOL    HW214508   0.755   0.247   5.427 -0.1055  0.8113 -2.0049
 4537SOL     OW14509   5.074   3.397   6.195 -0.4722 -0.2099 -0.4875
 4537SOL    HW114510   5.132   3.421   6.118  2.6538  0.3361  1.8432
 4537SOL    HW214511   5.075   3.298   6.210  1.6437 -0.0630  0.7111
 4538SOL     OW14512   2.811   1.339   0.906 -0.4096  0.1627 -0.4015
 4538SOL    HW114513   2.713   1.352   0.888 -0.6504  0.8232  1.2262
 4538SOL    HW214514   2.831   1.364   1.001  1.6381  1.5100 -1.1391
 4539SOL     OW14515   3.128   2.449   0.740  0.2941  0.3524 -0.4452
 4539SOL    HW114516   3.166   2.394   0.815 -0.5395 -0.1604 -0.3870
 4539SOL    HW214517   3.199   2.466   0.672  0.1628 -2.3431 -1.3745
 4540SOL     OW14518   4.132   3.493   4.843 -0.1769 -0.1936  0.0200
 4540SOL    HW114519   4.046   3.462   4.803 -0.3285 -1.4138  1.1903
 4540SOL    HW214520   4.206   3.479   4.778 -0.5814 -1.0496 -0.2684
 4541SOL     OW14521   4.980   6.985   1.112 -0.0359  0.6627 -0.9494
 4541SOL    HW114522   5.070   6.947   1.136  0.4659  2.2618 -0.1570
 4541SOL    HW214523   4.920   6.979   1.192 -0.0950  1.1215 -0.9618
 4542SOL     OW14524   5.788   4.208   2.928 -0.2052 -0.2636 -0.0967
 4542SOL    HW114525   5.724   4.258   2.868  1.2232  1.6876 -0.0901
 4542SOL    HW214526   5.799   4.258   3.014  1.4313 -0.4708 -0.1636
 4543SOL     OW14527   0.200   4.060   2.412  0.2843  0.0127  0.0610
 4543SOL    HW114528   0.264   3.986   2.434  1.0393  0.1637 -1.4777
 4543SOL    HW214529   0.240   4.118   2.342  0.0293  2.3498  1.7502
 4544SOL     OW14530   0.402   4.449   1.573  0.1779 -0.1372 -0.7461
 4544SOL    HW114531   0.488   4.445   1.523  1.7135 -0.8837  1.7199
 4544SOL    HW214532   0.347   4.527   1.542  2.1665  0.9241 -1.7463
 4545SOL     OW14533   3.998   4.556   0.158  0.3814  0.3623 -0.0814
 4545SOL    HW114534   4.075   4.496   0.178 -1.0304 -1.7549 -0.5762
 4545SOL    HW214535   3.921   4.532   0.218  0.1182  2.5336  0.5252
 4546SOL     OW14536   0.984   5.092   0.454 -0.4353 -0.0720 -0.4109
 4546SOL    HW114537   0.981   5.052   0.362 -0.8116  1.0657 -0.9168
 4546SOL    HW214538   1.062   5.154   0.461  1.4333 -2.4572  1.0751
 4547SOL     OW14539   4.674   2.588   3.179 -0.0800 -0.1045 -0.4088
 4547SOL    HW114540   4.742   2.516   3.165 -0.0996 -0.1756 -0.1457
 4547SOL    HW214541   4.586   2.547   3.201 -0.2075 -0.0116 -0.7295
 4548SOL     OW14542   5.983   2.876   4.996  0.1786 -0.0976  0.2214
 4548SOL    HW114543   5.917   2.938   4.954  0.4638  0.2327  0.2552
 4548SOL    HW214544   5.934   2.804   5.045 -0.2391  1.9886  3.0848
 4549SOL     OW14545   6.146   1.135   3.715  0.3270  0.1780  0.1303
 4549SOL    HW114546   6.088   1.058   3.743 -0.5612  1.5209  2.3190
 4549SOL    HW214547   6.219   1.148   3.781  0.7259  0.9527 -0.4415
 4550SOL     OW14548   1.358   4.799   6.277 -0.1010 -0.1277 -0.7251
 4550SOL    HW114549   1.282   4.864   6.279 -0.4088 -0.4818  0.6383
 4550SOL    HW214550   1.405   4.804   6.189 -0.2821  1.7393 -0.7497
 4551SOL     OW14551   6.815   4.373   6.907 -0.1207 -0.5917  0.4549
 4551SOL    HW114552   6.755   4.349   6.831  1.5605 -2.8182 -0.2814
 4551SOL    HW214553   6.818   4.473   6.916 -0.5617 -0.2289 -2.2907
 4552SOL     OW14554   6.240   2.971   3.971  0.3184 -0.0328  0.8185
 4552SOL    HW114555   6.292   3.050   3.938 -0.6572  0.3175  0.0632
 4552SOL    HW214556   6.176   3.000   4.042  1.3650 -0.5257  2.0037
 4553SOL     OW14557   6.050   6.921   1.421  0.3592  0.6079 -0.1881
 4553SOL    HW114558   6.073   6.939   1.517  0.4956 -2.0729  0.3542
 4553SOL    HW214559   5.977   6.983   1.392 -1.2882  0.0061  2.3504
 4554SOL     OW14560   6.281   6.360   5.221 -0.0670 -0.4889  0.5271
 4554SOL    HW114561   6.344   6.407   5.282  0.7549 -1.1634  0.2265
 4554SOL    HW214562   6.234   6.287   5.271  0.6658 -1.0941  0.3542
 4555SOL     OW14563   5.022   1.063   0.819  0.0613  0.2236  0.2270
 4555SOL    HW114564   5.121   1.046   0.816 -0.1720 -1.1338 -0.6856
 4555SOL    HW214565   5.004   1.141   0.878  1.4919 -0.9200  2.3236
 4556SOL     OW14566   3.435   6.400   4.380 -0.1532  0.3882 -0.2667
 4556SOL    HW114567   3.449   6.493   4.346 -0.5191  0.2557 -0.7839
 4556SOL    HW214568   3.337   6.381   4.388 -0.1530  1.0886  2.7394
 4557SOL     OW14569   0.164   0.764   3.413 -0.5897  0.0044  0.2267
 4557SOL    HW114570   0.174   0.710   3.330  0.8143  0.7149 -0.0910
 4557SOL    HW214571   0.209   0.717   3.489  1.6682  1.1839 -0.2911
 4558SOL     OW14572   2.278   5.028   2.150 -0.1180 -0.0331 -0.1384
 4558SOL    HW114573   2.184   4.994   2.152  0.3053 -1.2940  2.4526
 4558SOL    HW214574   2.339   4.955   2.120  0.1901  0.4345 -0.6843
 4559SOL     OW14575   0.631   2.218   2.026 -0.2732  0.0086 -0.1786
 4559SOL    HW114576   0.639   2.215   2.126 -1.5836 -2.3607 -0.0545
 4559SOL    HW214577   0.550   2.165   1.999  1.4850 -1.6083 -2.6280
 4560SOL     OW14578   5.999   2.327   3.290 -0.0661 -0.1958  0.3470
 4560SOL    HW114579   6.063   2.397   3.260  0.3893 -0.1101  1.4620
 4560SOL    HW214580   5.944   2.295   3.212  0.9032  0.1618 -0.4989
 4561SOL     OW14581   2.510   6.619   6.386  0.3387 -0.7987  0.2487
 4561SOL    HW114582   2.479   6.527   6.363 -2.1723 -0.3561  1.5561
 4561SOL    HW214583   2.456   6.687   6.336  0.9106 -0.0003  0.6829
 4562SOL     OW14584   3.636   2.920   6.193  0.1702 -0.6628 -0.2320
 4562SOL    HW114585   3.623   3.009   6.238 -1.5000 -0.4554 -1.0375
 4562SOL    HW214586   3.556   2.862   6.211  1.2893 -2.0862  0.3944
 4563SOL     OW14587   5.438   2.286   0.465  0.2738 -0.3211 -0.4242
 4563SOL    HW114588   5.339   2.288   0.469  0.2904 -0.5934  0.2360
 4563SOL    HW214589   5.469   2.191   0.463  0.6155 -0.3646  2.6331
 4564SOL     OW14590   0.262   4.268   6.260 -0.4439  0.1655  0.2336
 4564SOL    HW114591   0.349   4.309   6.233  0.2930 -0.4033  1.6416
 4564SOL    HW214592   0.250   4.276   6.359 -1.1433 -1.3486  0.3047
 4565SOL     OW14593   4.850   1.197   4.171  0.1354  0.0001 -0.3498
 4565SOL    HW114594   4.859   1.119   4.233 -0.9304 -0.0863 -0.2834
 4565SOL    HW214595   4.930   1.256   4.180  0.8174 -0.9308 -0.1913
 4566SOL     OW14596   2.506   0.926   0.640 -0.0773  0.2115  0.6335
 4566SOL    HW114597   2.474   0.862   0.710  0.8945  0.5317  1.4032
 4566SOL    HW214598   2.533   0.875   0.559  2.9222 -0.6977  2.0505
 4567SOL     OW14599   6.431   1.517   0.257  0.4135  0.6258  0.6366
 4567SOL    HW114600   6.348   1.462   0.248  0.5103  0.5010  0.5164
 4567SOL    HW214601   6.496   1.491   0.186 -0.4373  2.4658 -0.9286
 4568SOL     OW14602   2.763   5.327   3.519 -0.4769 -0.0096  0.2024
 4568SOL    HW114603   2.730   5.271   3.443 -0.5219  1.0257 -0.5637
 4568SOL    HW214604   2.857   5.357   3.499 -1.0885  1.7250 -0.3248
 4569SOL     OW14605   1.926   6.608   2.394  0.0129 -0.0713 -0.2964
 4569SOL    HW114606   2.020   6.628   2.423  0.0238  1.3774 -1.2117
 4569SOL    HW214607   1.906   6.658   2.310 -0.9238 -1.9504 -1.2547
 4570SOL     OW14608   4.588   4.799   4.531  0.2089  0.0168 -0.0015
 4570SOL    HW114609   4.590   4.748   4.617  1.9098 -0.2579 -0.1713
 4570SOL    HW214610   4.647   4.879   4.539 -0.5754  0.6623 -0.5283
 4571SOL     OW14611   3.567   4.170   4.427 -0.4800 -0.2852 -0.0668
 4571SOL    HW114612   3.502   4.205   4.495  0.2516  0.5669  0.2179
 4571SOL    HW214613   3.569   4.070   4.431 -0.5909 -0.2528  1.0338
 4572SOL     OW14614   3.161   3.263   0.573  0.1286 -0.1152  0.1018
 4572SOL    HW114615   3.090   3.194   0.588 -0.4914 -0.1047 -2.2782
 4572SOL    HW214616   3.250   3.219   0.570 -0.1942 -0.7609 -0.7182
 4573SOL     OW14617   3.852   1.716   2.057  0.0588 -0.1035  0.5154
 4573SOL    HW114618   3.904   1.748   1.977  1.7794 -2.0235  0.7813
 4573SOL    HW214619   3.844   1.791   2.123  0.8780  0.7861 -0.3415
 4574SOL     OW14620   7.011   3.706   1.670 -0.1959  0.2892 -0.3293
 4574SOL    HW114621   7.001   3.612   1.702  0.0634  1.1310  2.4422
 4574SOL    HW214622   7.092   3.712   1.611 -1.6275 -1.6453 -2.7367
 4575SOL     OW14623   4.098   6.816   0.830  0.0648 -0.4117 -0.0398
 4575SOL    HW114624   4.091   6.903   0.879  0.1674 -0.1168 -0.5425
 4575SOL    HW214625   4.177   6.819   0.768  0.4277 -1.0815  0.3739
 4576SOL     OW14626   2.871   0.704   4.571  0.2389 -0.0860 -0.0779
 4576SOL    HW114627   2.932   0.783   4.562  0.7640 -0.5923 -0.9818
 4576SOL    HW214628   2.777   0.733   4.553  0.4919  0.2302 -0.9383
 4577SOL     OW14629   1.093   6.100   3.189  0.3399  0.1666 -0.5713
 4577SOL    HW114630   1.172   6.044   3.167  1.2792  0.5686  1.5014
 4577SOL    HW214631   1.015   6.041   3.212  0.7847 -0.2700 -0.1769
 4578SOL     OW14632   6.598   6.629   4.474  0.0274 -0.3765 -0.5567
 4578SOL    HW114633   6.580   6.658   4.568 -2.0194  0.9337 -1.2769
 4578SOL    HW214634   6.634   6.707   4.422  0.4861 -0.8928 -1.0150
 4579SOL     OW14635   4.057   1.470   2.867  0.1336  0.3612 -0.3986
 4579SOL    HW114636   4.148   1.501   2.895 -0.0191  0.3223  0.1613
 4579SOL    HW214637   4.065   1.417   2.782  0.7002 -0.0647 -0.0911
 4580SOL     OW14638   0.231   6.807   0.234  0.1486  0.3718  0.3814
 4580SOL    HW114639   0.142   6.782   0.273  0.3308 -0.4333  0.2996
 4580SOL    HW214640   0.219   6.882   0.169 -0.3425  0.8439  1.0097
 4581SOL     OW14641   2.443   6.121   6.293  0.6863  0.1901 -0.3738
 4581SOL    HW114642   2.413   6.043   6.238  0.5122 -0.0437  0.0473
 4581SOL    HW214643   2.437   6.098   6.390 -0.0645  0.9766 -0.2196
 4582SOL     OW14644   2.863   4.786   2.655  0.6844 -0.1179 -0.2054
 4582SOL    HW114645   2.887   4.741   2.569 -0.8413 -0.3566 -0.5284
 4582SOL    HW214646   2.808   4.867   2.637 -0.5097 -0.7296  0.5623
 4583SOL     OW14647   4.794   0.423   5.131  0.3979 -0.1428  0.2130
 4583SOL    HW114648   4.698   0.420   5.160  0.1224  1.8434 -0.2914
 4583SOL    HW214649   4.852   0.389   5.205 -0.6662 -1.2468  0.5803
 4584SOL     OW14650   6.091   6.461   0.635 -0.2348  0.8525 -0.4132
 4584SOL    HW114651   6.182   6.498   0.656 -0.3205 -0.5832  3.1001
 4584SOL    HW214652   6.099   6.389   0.566  0.9863  1.9837 -1.5064
 4585SOL     OW14653   3.710   5.796   2.901  0.2171 -0.4684  0.0699
 4585SOL    HW114654   3.737   5.706   2.867 -4.0815 -1.6903 -0.8083
 4585SOL    HW214655   3.685   5.789   2.998 -1.4475 -0.6583 -0.3420
 4586SOL     OW14656   0.963   5.157   0.870 -0.0523  0.2915 -0.1387
 4586SOL    HW114657   1.003   5.143   0.960 -0.1760  0.6292 -0.0294
 4586SOL    HW214658   0.999   5.089   0.806  0.1308  0.1318  0.1343
 4587SOL     OW14659   4.435   4.836   1.491 -0.0606  0.2662  0.2565
 4587SOL    HW114660   4.453   4.781   1.572  1.6221  1.2891  0.6231
 4587SOL    HW214661   4.413   4.930   1.518 -3.0525 -0.1654 -0.3483
 4588SOL     OW14662   3.328   3.846   4.052 -0.5887  0.9436 -0.4354
 4588SOL    HW114663   3.401   3.815   3.991 -0.5495  1.0651 -0.4519
 4588SOL    HW214664   3.359   3.929   4.100 -0.7111  0.9876 -0.4330
 4589SOL     OW14665   3.428   1.539   4.276  0.3706  0.0518  0.6203
 4589SOL    HW114666   3.366   1.610   4.242  0.9205 -0.0591 -0.6896
 4589SOL    HW214667   3.405   1.517   4.371 -0.1059  1.6361  0.9031
 4590SOL     OW14668   4.144   5.724   2.398 -0.0112 -0.4625  0.0728
 4590SOL    HW114669   4.114   5.629   2.394  1.2085 -0.9421  1.1759
 4590SOL    HW214670   4.068   5.783   2.426 -0.9990 -0.9666 -1.4589
 4591SOL     OW14671   4.870   4.479   3.707  0.2006  0.1337  0.2480
 4591SOL    HW114672   4.801   4.524   3.762  1.9522  1.3925  1.5138
 4591SOL    HW214673   4.937   4.546   3.675  2.1170 -1.3172  1.0130
 4592SOL     OW14674   2.249   3.174   7.006  0.5131  0.3928  0.2746
 4592SOL    HW114675   2.183   3.114   7.051  0.4137  0.9523  0.8825
 4592SOL    HW214676   2.208   3.265   6.992  0.0411 -0.1211 -2.1700
 4593SOL     OW14677   3.089   6.117   3.456  0.2087 -0.0756  0.0341
 4593SOL    HW114678   3.117   6.211   3.436  0.3557 -0.4668 -1.7667
 4593SOL    HW214679   3.148   6.079   3.527  0.5056  1.0021  0.3782
 4594SOL     OW14680   5.958   3.936   2.756 -0.7127  0.1505  0.5000
 4594SOL    HW114681   5.954   3.910   2.660 -0.2565 -0.2765  0.5971
 4594SOL    HW214682   5.866   3.932   2.796 -0.6438 -1.4100  0.5433
 4595SOL     OW14683   3.765   4.194   5.935  0.2880 -0.5205  0.3106
 4595SOL    HW114684   3.706   4.129   5.887  0.3519 -1.2579  1.2094
 4595SOL    HW214685   3.800   4.152   6.019 -0.2184  0.9000  1.2636
 4596SOL     OW14686   3.560   1.789   1.670  0.1285 -0.0701  0.0635
 4596SOL    HW114687   3.491   1.724   1.640  0.7832  0.1653 -2.0796
 4596SOL    HW214688   3.540   1.879   1.631  0.2675  0.6051  1.4878
 4597SOL     OW14689   6.324   3.919   6.637 -0.0889 -0.1246 -0.2206
 4597SOL    HW114690   6.243   3.865   6.661 -0.0682  0.5544  1.5220
 4597SOL    HW214691   6.297   4.001   6.587 -0.3938 -0.2677 -0.2898
 4598SOL     OW14692   3.295   2.966   0.814  0.1240 -0.8598 -0.2759
 4598SOL    HW114693   3.212   2.943   0.865  0.0509 -0.6438 -0.2940
 4598SOL    HW214694   3.374   2.922   0.856  0.2391  0.3035  0.7660
 4599SOL     OW14695   2.921   5.536   0.884 -0.5102 -0.1099 -0.3144
 4599SOL    HW114696   2.852   5.548   0.955 -0.6766  0.3718 -0.5487
 4599SOL    HW214697   2.989   5.609   0.891  0.0916 -0.6974  0.0413
 4600SOL     OW14698   2.680   2.682   0.112  0.8533  0.2698  0.0634
 4600SOL    HW114699   2.721   2.659   0.024 -1.1108 -0.7411 -0.6252
 4600SOL    HW214700   2.683   2.602   0.172  0.9092  0.5431  0.4337
 4601SOL     OW14701   2.035   5.592   4.199  0.0947  0.4400 -0.6185
 4601SOL    HW114702   2.064   5.497   4.188 -2.7690 -0.5992 -0.1208
 4601SOL    HW214703   1.946   5.595   4.245 -1.0005  3.2388 -2.6120
 4602SOL     OW14704   1.506   1.054   1.844  0.1760  0.4052  0.1025
 4602SOL    HW114705   1.517   0.972   1.901 -0.6991  0.3246  0.1752
 4602SOL    HW214706   1.450   1.121   1.893  1.2182  1.2166  0.2036
 4603SOL     OW14707   2.731   1.217   1.179  0.5195 -0.0349 -0.4361
 4603SOL    HW114708   2.635   1.199   1.162 -0.1848  1.1865  1.8777
 4603SOL    HW214709   2.742   1.311   1.212  2.4764 -0.2423 -0.3705
 4604SOL     OW14710   1.420   5.682   2.773 -0.2394 -0.1564  0.5649
 4604SOL    HW114711   1.416   5.777   2.740  0.5556  0.2024  1.4636
 4604SOL    HW214712   1.459   5.680   2.865 -1.5075 -1.2312  1.1197
 4605SOL     OW14713   5.458   6.156   6.770  0.0938  0.3499  0.4252
 4605SOL    HW114714   5.539   6.209   6.797 -1.7312  2.5909  1.8121
 4605SOL    HW214715   5.431   6.096   6.845  1.3903 -1.7137 -0.6707
 4606SOL     OW14716   6.141   5.752   3.168 -0.1164 -0.0771  0.4348
 4606SOL    HW114717   6.194   5.830   3.134 -0.4999 -0.7154 -1.7854
 4606SOL    HW214718   6.201   5.692   3.221 -0.0225  2.1203  3.0927
 4607SOL     OW14719   3.641   1.194   0.362 -0.5466 -0.1983  0.5325
 4607SOL    HW114720   3.682   1.104   0.343 -0.9244  0.1976 -2.7916
 4607SOL    HW214721   3.712   1.258   0.391  0.2957 -0.8150 -0.1125
 4608SOL     OW14722   6.413   2.995   6.460 -0.1796 -0.4165 -0.3786
 4608SOL    HW114723   6.406   3.095   6.459  0.9030 -0.3227 -1.7150
 4608SOL    HW214724   6.397   2.961   6.553 -0.2555  1.0189  0.1575
 4609SOL     OW14725   4.898   4.972   0.120  0.0436 -0.1502 -0.0133
 4609SOL    HW114726   4.916   5.062   0.160 -0.1352 -0.0298 -0.2025
 4609SOL    HW214727   4.813   4.935   0.157  0.7718 -0.8244  1.0591
 4610SOL     OW14728   5.089   3.364   0.479 -0.2873  0.1456 -0.0657
 4610SOL    HW114729   5.183   3.341   0.456 -0.0654 -0.5580  1.4318
 4610SOL    HW214730   5.065   3.325   0.568 -0.7169  3.5548  1.4902
 4611SOL     OW14731   0.327   3.993   0.119 -0.0765  0.2759  0.1660
 4611SOL    HW114732   0.349   4.091   0.126  0.4019  0.2866 -1.1171
 4611SOL    HW214733   0.359   3.959   0.030 -0.9059 -0.8730  0.2933
 4612SOL     OW14734   1.134   1.569   6.453 -0.3588  0.1372 -0.0451
 4612SOL    HW114735   1.135   1.622   6.368  1.1137  0.4335  0.1404
 4612SOL    HW214736   1.051   1.591   6.504 -0.4174  1.2872 -0.5912
 4613SOL     OW14737   4.955   4.679   0.664 -0.0002  0.1471 -0.3800
 4613SOL    HW114738   4.992   4.631   0.585  1.1282  0.7685 -0.2511
 4613SOL    HW214739   5.024   4.742   0.700 -0.7914  0.4864  0.5882
 4614SOL     OW14740   2.685   3.631   1.112  0.0643 -0.9623 -0.1149
 4614SOL    HW114741   2.660   3.567   1.039  0.6714 -1.2350 -0.0956
 4614SOL    HW214742   2.782   3.619   1.134 -0.0488 -0.6955  0.5519
 4615SOL     OW14743   5.912   3.713   5.172  0.3357  0.1755  0.5639
 4615SOL    HW114744   5.932   3.778   5.245 -2.8921 -0.4920  2.2194
 4615SOL    HW214745   5.841   3.649   5.202  0.2596 -1.3873 -2.5236
 4616SOL     OW14746   3.590   0.553   6.254  0.9038  0.3537 -0.0023
 4616SOL    HW114747   3.670   0.540   6.311  0.3292 -0.4292  0.6449
 4616SOL    HW214748   3.570   0.469   6.203  1.7560  1.2108 -1.8429
 4617SOL     OW14749   0.146   5.421   2.063  0.4015  0.3987  0.2914
 4617SOL    HW114750   0.246   5.424   2.063  0.4515 -0.7749 -0.0294
 4617SOL    HW214751   0.115   5.335   2.022 -0.7707  1.3776 -0.9544
 4618SOL     OW14752   2.854   2.620   1.020 -0.2799  0.0850  0.1592
 4618SOL    HW114753   2.849   2.572   0.932 -2.2360 -0.9074  0.7564
 4618SOL    HW214754   2.766   2.613   1.067  0.2526  1.8971  1.5485
 4619SOL     OW14755   5.201   3.730   3.827 -0.1422 -0.0745 -0.2265
 4619SOL    HW114756   5.213   3.644   3.777 -0.6570  0.7195 -1.8144
 4619SOL    HW214757   5.191   3.805   3.761 -0.3771  1.1072  1.1072
 4620SOL     OW14758   1.736   6.250   1.851 -0.5095 -0.4732 -0.5650
 4620SOL    HW114759   1.829   6.287   1.858 -0.7609  0.4856 -1.9017
 4620SOL    HW214760   1.727   6.172   1.912  0.3084  1.1491  1.7650
 4621SOL     OW14761   6.776   0.956   0.888  0.7855 -0.4847  0.2259
 4621SOL    HW114762   6.823   1.029   0.939  1.0846  0.5883 -1.4923
 4621SOL    HW214763   6.842   0.909   0.829  0.4234 -1.5984  0.6840
 4622SOL     OW14764   0.470   1.980   1.275  0.5973  0.3697 -0.5566
 4622SOL    HW114765   0.517   2.068   1.270  1.7512  0.0119  2.1822
 4622SOL    HW214766   0.504   1.929   1.354 -0.6816 -2.1832 -1.5458
 4623SOL     OW14767   5.925   5.542   3.638  0.0922  0.1650 -0.2980
 4623SOL    HW114768   5.983   5.544   3.556  1.8405 -0.4668  0.8633
 4623SOL    HW214769   5.969   5.593   3.711 -0.5938 -0.7230  0.7648
 4624SOL     OW14770   4.004   5.977   0.978  0.2999  0.5804 -0.6989
 4624SOL    HW114771   4.081   5.972   0.915  1.7023  0.3022  0.9484
 4624SOL    HW214772   3.950   6.059   0.959  2.7011  2.4273 -0.0885
 4625SOL     OW14773   2.397   4.480   1.190  0.2058 -0.1823  0.2929
 4625SOL    HW114774   2.378   4.506   1.285 -2.1015 -1.4256  0.2422
 4625SOL    HW214775   2.486   4.434   1.186  1.5811  2.1972  1.3430
 4626SOL     OW14776   5.948   5.160   0.812  0.0536  0.0435 -0.0457
 4626SOL    HW114777   5.972   5.071   0.772  0.9878 -0.7671  2.1603
 4626SOL    HW214778   6.028   5.197   0.859 -0.9276  1.0272  0.8880
 4627SOL     OW14779   2.808   2.203   3.754  0.6422 -0.1934  0.2652
 4627SOL    HW114780   2.748   2.143   3.807 -0.3460  0.8350  0.3420
 4627SOL    HW214781   2.761   2.233   3.672  1.0392  0.6379  0.3310
 4628SOL     OW14782   6.925   2.199   2.763 -0.9330  0.5919 -0.1869
 4628SOL    HW114783   7.022   2.201   2.787 -1.2813  2.1955  1.2925
 4628SOL    HW214784   6.905   2.270   2.696 -0.9769 -0.1733 -0.9925
 4629SOL     OW14785   3.961   5.881   4.279  0.2637  0.0136 -0.4909
 4629SOL    HW114786   3.967   5.887   4.180 -0.2320 -0.6421 -0.5701
 4629SOL    HW214787   3.887   5.819   4.304  0.4114  0.1415  0.2882
 4630SOL     OW14788   4.276   5.338   0.773 -0.4608  0.0317  0.4443
 4630SOL    HW114789   4.290   5.437   0.782  1.6486 -0.3426  2.0691
 4630SOL    HW214790   4.181   5.315   0.794 -0.7297  1.6048  1.0474
 4631SOL     OW14791   2.072   6.241   2.726  0.4942 -0.0725  0.4599
 4631SOL    HW114792   2.071   6.341   2.730 -1.2521 -0.0787  0.7389
 4631SOL    HW214793   2.166   6.210   2.711  1.2858  1.5458  1.6988
 4632SOL     OW14794   5.951   4.475   3.498 -0.3461  0.1501 -0.1470
 4632SOL    HW114795   6.006   4.527   3.563 -1.4569 -0.6052  1.4551
 4632SOL    HW214796   5.915   4.538   3.428  1.2718  0.8882 -0.3867
 4633SOL     OW14797   5.714   3.503   6.756 -0.2067 -0.7285 -0.2152
 4633SOL    HW114798   5.617   3.524   6.742 -0.5775 -2.1101  0.0681
 4633SOL    HW214799   5.768   3.545   6.684 -0.8420  1.2734  0.4167
 4634SOL     OW14800   1.981   1.242   5.890 -0.1241 -0.1553  0.1049
 4634SOL    HW114801   1.922   1.281   5.960 -0.4540  1.1769 -0.8834
 4634SOL    HW214802   2.046   1.179   5.933 -0.2310  0.7226  1.6235
 4635SOL     OW14803   4.187   2.904   0.805  0.7574  0.5508 -0.0635
 4635SOL    HW114804   4.110   2.935   0.860 -0.0937 -0.0037 -0.9134
 4635SOL    HW214805   4.233   2.829   0.852  0.7050  0.7986  0.3898
 4636SOL     OW14806   6.149   5.657   0.945  0.0717 -0.3615  0.6768
 4636SOL    HW114807   6.235   5.682   0.901 -1.1619  0.6829 -1.2943
 4636SOL    HW214808   6.108   5.738   0.986 -1.9413  0.1535 -2.1000
 4637SOL     OW14809   6.431   0.191   5.267 -0.7131  0.1861  0.2241
 4637SOL    HW114810   6.482   0.215   5.184 -1.6146  0.1101 -0.3713
 4637SOL    HW214811   6.423   0.272   5.326  0.4663  0.0850  0.5427
 4638SOL     OW14812   4.930   0.180   0.022 -0.1514 -0.5103  0.1926
 4638SOL    HW114813   4.913   0.184  -0.076 -0.8002 -3.0403  0.1287
 4638SOL    HW214814   5.020   0.218   0.043  0.4492 -0.9121 -1.5268
 4639SOL     OW14815   0.555   3.256   4.311  0.1172 -0.3237 -0.3288
 4639SOL    HW114816   0.589   3.200   4.386  1.7605 -2.6512 -2.6179
 4639SOL    HW214817   0.541   3.198   4.230  0.6592  2.3748 -2.5007
 4640SOL     OW14818   1.337   6.164   2.371  0.1558  0.0562  0.2003
 4640SOL    HW114819   1.278   6.237   2.335  2.5323  2.4320  0.7884
 4640SOL    HW214820   1.364   6.186   2.464  1.5393 -1.2192  0.1370
 4641SOL     OW14821   3.056   4.920   4.793 -0.0720 -0.4441  0.4593
 4641SOL    HW114822   3.036   5.006   4.747 -0.0034 -1.0815 -0.8422
 4641SOL    HW214823   2.996   4.848   4.757  1.3492 -1.3963 -0.1289
 4642SOL     OW14824   5.194   0.288   0.131 -0.2362 -0.3248  0.3934
 4642SOL    HW114825   5.205   0.253   0.224  1.1790  0.5178  0.5583
 4642SOL    HW214826   5.252   0.368   0.118 -1.8351  0.7071 -0.6446
 4643SOL     OW14827   5.629   3.070   0.777 -0.0344 -0.6404 -0.0192
 4643SOL    HW114828   5.615   3.139   0.706  0.7885  1.6141  1.8876
 4643SOL    HW214829   5.588   2.984   0.748 -0.9987  0.5774 -2.5695
 4644SOL     OW14830   3.103   4.827   3.386 -0.1311  0.8330 -0.0520
 4644SOL    HW114831   3.110   4.758   3.314 -1.6110  0.9600 -0.3516
 4644SOL    HW214832   3.179   4.892   3.378  0.8006 -0.2515 -0.2884
 4645SOL     OW14833   1.233   5.520   5.585 -0.7866  0.1049  0.6280
 4645SOL    HW114834   1.204   5.610   5.619 -2.0645  0.2524 -0.7656
 4645SOL    HW214835   1.181   5.449   5.633 -0.4151  0.1526  1.1050
 4646SOL     OW14836   3.029   1.272   1.163 -0.2017  0.1757 -0.0562
 4646SOL    HW114837   3.104   1.207   1.180 -0.0641  0.8767  2.4504
 4646SOL    HW214838   2.942   1.228   1.186 -0.1514  0.6980  1.1721
 4647SOL     OW14839   5.556   6.733   6.313 -0.0289 -0.4112  1.1522
 4647SOL    HW114840   5.623   6.666   6.344  0.3853 -0.8284 -0.5417
 4647SOL    HW214841   5.466   6.712   6.352 -0.2368 -2.8730 -0.4599
 4648SOL     OW14842   1.284   6.833   4.289  0.5573 -0.0599  0.2491
 4648SOL    HW114843   1.331   6.882   4.362 -0.7345  0.9734  0.4389
 4648SOL    HW214844   1.195   6.876   4.272  0.5041 -0.7477 -1.4197
 4649SOL     OW14845   3.834   6.762   0.102 -0.0447 -0.8849  0.4088
 4649SOL    HW114846   3.902   6.697   0.067 -1.7779 -1.9583 -1.1053
 4649SOL    HW214847   3.804   6.822   0.028  0.8205  1.0744  1.5711
 4650SOL     OW14848   5.633   2.496   0.504  0.2065 -0.0074 -0.4055
 4650SOL    HW114849   5.558   2.435   0.479 -0.2309  0.7174 -0.8637
 4650SOL    HW214850   5.641   2.499   0.604 -0.4949  0.0664 -0.3480
 4651SOL     OW14851   7.012   4.189   6.568  0.1863  0.3232  0.4567
 4651SOL    HW114852   6.953   4.199   6.488  1.0206 -1.2392 -0.3942
 4651SOL    HW214853   7.104   4.224   6.547  0.6076 -0.7506  0.4839
 4652SOL     OW14854   1.509   5.691   5.739 -0.6266  0.0760 -0.6328
 4652SOL    HW114855   1.511   5.618   5.670  0.7048  0.3002 -0.8698
 4652SOL    HW214856   1.468   5.657   5.823  0.7914 -1.2531 -0.4370
 4653SOL     OW14857   2.008   6.084   0.919 -0.5140  0.3242  0.2072
 4653SOL    HW114858   2.059   6.083   1.005  1.0713  0.2980 -0.7055
 4653SOL    HW214859   1.940   6.011   0.921  0.6198 -0.7620  0.8006
 4654SOL     OW14860   3.560   6.025   2.056 -0.2680 -0.0862  0.5002
 4654SOL    HW114861   3.574   6.098   1.989  1.6588 -0.5901  0.3134
 4654SOL    HW214862   3.465   6.028   2.088 -0.8183  1.1356 -1.0813
 4655SOL     OW14863   6.741   4.667   4.839 -0.4954 -0.7427  0.0349
 4655SOL    HW114864   6.701   4.689   4.928  1.1024  1.4216  0.3003
 4655SOL    HW214865   6.796   4.584   4.847 -0.6061 -0.7341  0.9908
 4656SOL     OW14866   0.293   0.383   2.436 -0.2539  0.1074 -0.0889
 4656SOL    HW114867   0.241   0.366   2.520  0.2296 -0.8203  0.0371
 4656SOL    HW214868   0.384   0.342   2.444  1.8080  4.2747  0.9582
 4657SOL     OW14869   5.719   1.744   4.604 -0.0434  0.1925  0.3769
 4657SOL    HW114870   5.734   1.672   4.537 -0.4635  0.0598  0.4198
 4657SOL    HW214871   5.621   1.755   4.619  0.0298  0.5861  0.5739
 4658SOL     OW14872   5.519   5.656   2.359 -0.2108 -0.4081 -0.3876
 4658SOL    HW114873   5.474   5.744   2.349  2.6969  1.2291 -0.0012
 4658SOL    HW214874   5.538   5.618   2.268 -2.0280 -1.0307 -0.5565
 4659SOL     OW14875   2.081   3.257   4.716 -0.4725  0.0320  0.8219
 4659SOL    HW114876   2.143   3.228   4.789  2.1190  2.9751  0.0249
 4659SOL    HW214877   2.057   3.353   4.730 -2.0925 -0.0920 -0.8188
 4660SOL     OW14878   6.332   6.846   6.266 -0.0560  0.6613  0.7028
 4660SOL    HW114879   6.305   6.811   6.177  2.3376 -0.5019  0.3393
 4660SOL    HW214880   6.327   6.946   6.266  0.9643  0.7605 -1.1521
 4661SOL     OW14881   3.109   3.546   3.144  0.8809  0.2595  0.6417
 4661SOL    HW114882   3.195   3.545   3.092  0.0380 -0.8009 -0.8305
 4661SOL    HW214883   3.061   3.631   3.127 -0.0729 -0.6537 -1.6153
 4662SOL     OW14884   6.479   5.288   6.531  0.2812  0.2880 -0.0954
 4662SOL    HW114885   6.492   5.212   6.467 -0.2312  0.4139 -0.3585
 4662SOL    HW214886   6.381   5.300   6.548  0.4630 -2.2074  3.6937
 4663SOL     OW14887   6.137   1.056   2.840 -0.8194 -0.1788  0.3464
 4663SOL    HW114888   6.180   1.066   2.750  2.2663 -0.7535  1.6329
 4663SOL    HW214889   6.107   0.961   2.852  0.3522 -0.5380  0.5382
 4664SOL     OW14890   4.115   5.258   1.915 -0.2527 -0.5709  0.0013
 4664SOL    HW114891   4.109   5.291   1.821 -2.6943  1.5349  0.8105
 4664SOL    HW214892   4.159   5.327   1.973 -1.2041 -0.6734  0.8791
 4665SOL     OW14893   5.986   2.229   5.122 -0.9582 -0.1394  0.3090
 4665SOL    HW114894   5.917   2.207   5.191 -2.2982 -0.3803 -1.0533
 4665SOL    HW214895   6.027   2.144   5.088 -2.9079 -0.3640 -1.7221
 4666SOL     OW14896   1.602   2.102   0.166 -0.8039  0.0357 -0.5463
 4666SOL    HW114897   1.589   2.003   0.167  0.1035 -0.1314 -2.2126
 4666SOL    HW214898   1.513   2.148   0.163 -1.2160 -0.7422 -0.2674
 4667SOL     OW14899   5.579   5.213   2.308 -0.8060  0.5719 -0.1893
 4667SOL    HW114900   5.532   5.187   2.393  2.1797  0.0888  1.4644
 4667SOL    HW214901   5.631   5.297   2.324  0.3927  0.0645 -1.2999
 4668SOL     OW14902   5.537   0.599   5.379 -0.4262  0.4112 -0.2917
 4668SOL    HW114903   5.480   0.517   5.370  0.7635 -0.6478  1.2252
 4668SOL    HW214904   5.496   0.661   5.446  0.3906 -0.5937  1.2011
 4669SOL     OW14905   1.910   2.999   0.988 -0.2781  0.1801  0.3823
 4669SOL    HW114906   1.965   3.018   1.069  1.9259 -0.0914 -0.9538
 4669SOL    HW214907   1.886   2.901   0.986  0.8071 -0.0939  0.0740
 4670SOL     OW14908   3.160   2.105   5.199 -0.1664  0.0981  0.0610
 4670SOL    HW114909   3.217   2.066   5.127  0.2018 -0.7291  0.7893
 4670SOL    HW214910   3.141   2.201   5.178  1.1707  0.2796 -0.3867
 4671SOL     OW14911   1.271   3.183   2.334  0.0437 -0.2959 -0.8198
 4671SOL    HW114912   1.288   3.274   2.370 -0.1867 -1.3122  2.0525
 4671SOL    HW214913   1.350   3.153   2.281  0.9616  0.7788 -0.0885
 4672SOL     OW14914   2.699   2.312   6.941 -0.1061  0.3210  0.5965
 4672SOL    HW114915   2.621   2.278   6.888  0.3115 -1.9857  1.3388
 4672SOL    HW214916   2.689   2.284   7.036  1.2789  0.6474  0.8528
 4673SOL     OW14917   6.056   0.505   2.793 -0.3663 -0.3473 -0.5019
 4673SOL    HW114918   6.033   0.602   2.791  0.4992 -0.1258 -0.3941
 4673SOL    HW214919   6.109   0.482   2.712  2.3261  0.0720  1.0084
 4674SOL     OW14920   3.334   0.149   4.910  0.4767  0.4013 -0.0798
 4674SOL    HW114921   3.251   0.097   4.894 -1.9926  3.2982  2.0865
 4674SOL    HW214922   3.393   0.098   4.973 -0.9508 -0.5851  0.5108
 4675SOL     OW14923   6.217   3.271   5.380 -0.2382 -0.4106 -0.0272
 4675SOL    HW114924   6.242   3.255   5.285  1.0361  1.2026 -0.0110
 4675SOL    HW214925   6.118   3.275   5.389 -0.4444 -2.4880 -0.9303
 4676SOL     OW14926   2.184   3.186   4.094 -0.3917 -0.1328  0.2643
 4676SOL    HW114927   2.208   3.113   4.158 -2.1170 -1.1558 -0.1989
 4676SOL    HW214928   2.175   3.272   4.144 -2.5219 -1.0611  1.6150
 4677SOL     OW14929   1.662   2.590   0.871  0.1000  0.1628 -0.2618
 4677SOL    HW114930   1.702   2.548   0.789 -0.7333 -0.3470 -0.4156
 4677SOL    HW214931   1.575   2.633   0.847 -0.6186 -0.8013  0.5225
 4678SOL     OW14932   6.982   0.560   2.397  0.1300  0.3352 -0.1250
 4678SOL    HW114933   6.890   0.572   2.433  0.7743 -0.0044  1.7455
 4678SOL    HW214934   6.980   0.493   2.322 -1.4244  1.9163 -1.5774
 4679SOL     OW14935   5.496   5.275   2.033 -0.6401  0.0673 -0.5624
 4679SOL    HW114936   5.521   5.371   2.016  1.1729 -0.4483 -1.0633
 4679SOL    HW214937   5.521   5.250   2.126 -0.9447  0.0240 -0.4907
 4680SOL     OW14938   2.825   0.817   1.503 -0.0144  0.4314  0.6684
 4680SOL    HW114939   2.847   0.747   1.435 -1.5509 -0.2476  0.8201
 4680SOL    HW214940   2.801   0.902   1.456  0.1235  0.3315  0.4146
 4681SOL     OW14941   4.276   5.851   2.647  0.7426 -0.1246  0.1700
 4681SOL    HW114942   4.235   5.847   2.738 -0.4131  0.5976 -0.3044
 4681SOL    HW214943   4.214   5.809   2.580  0.2977  1.8214 -0.7093
 4682SOL     OW14944   4.868   3.542   6.249  0.4307 -0.3118 -0.6514
 4682SOL    HW114945   4.901   3.636   6.256  1.2441 -0.7051  1.2752
 4682SOL    HW214946   4.945   3.479   6.245 -0.0879 -0.9216 -2.7386
 4683SOL     OW14947   6.744   4.354   3.170 -0.0196  0.0817 -0.1864
 4683SOL    HW114948   6.682   4.428   3.146  1.1696  0.5185 -2.1420
 4683SOL    HW214949   6.728   4.275   3.110  1.1642  0.1479 -0.6287
 4684SOL     OW14950   5.138   0.734   5.947  0.2564  0.3730  0.3746
 4684SOL    HW114951   5.124   0.761   6.042  0.3346  0.7548  0.2789
 4684SOL    HW214952   5.116   0.810   5.886 -0.5184 -0.1070  0.0409
 4685SOL     OW14953   2.983   2.033   5.668 -0.0496 -0.2686 -0.6863
 4685SOL    HW114954   3.057   2.096   5.643 -0.8350  0.3899 -1.4642
 4685SOL    HW214955   2.981   1.957   5.603  2.1130 -2.2121  1.3602
 4686SOL     OW14956   3.597   0.940   0.832  0.1539 -0.4537 -0.0036
 4686SOL    HW114957   3.592   0.994   0.749 -2.1158  0.6518  0.7850
 4686SOL    HW214958   3.592   0.843   0.810  0.4884 -0.2114 -1.1916
 4687SOL     OW14959   2.604   0.364   2.853  0.5774 -0.0313  0.2984
 4687SOL    HW114960   2.597   0.343   2.950  0.2715 -0.8779  0.0952
 4687SOL    HW214961   2.606   0.464   2.841 -1.9724  0.1556  0.9898
 4688SOL     OW14962   3.769   3.214   5.956  0.1243 -0.0818 -0.2305
 4688SOL    HW114963   3.844   3.238   5.895  1.0497 -0.3431  0.7611
 4688SOL    HW214964   3.724   3.298   5.988  1.0574  0.1946  0.4304
 4689SOL     OW14965   6.012   2.203   0.435 -0.4693 -0.0282  0.0873
 4689SOL    HW114966   6.079   2.250   0.378 -0.3221 -0.5266 -0.1521
 4689SOL    HW214967   6.045   2.203   0.530 -1.0611  1.4489  0.3245
 4690SOL     OW14968   4.036   0.596   6.769 -0.3101 -0.4344 -0.5745
 4690SOL    HW114969   3.947   0.587   6.814  0.7035  0.1784  1.6793
 4690SOL    HW214970   4.077   0.684   6.792  1.4617 -1.2334 -0.4619
 4691SOL     OW14971   5.650   1.812   1.347  0.1657  0.5237  0.4745
 4691SOL    HW114972   5.722   1.852   1.404 -1.3361  1.8112  1.5428
 4691SOL    HW214973   5.626   1.721   1.383  0.4064  0.6093  0.8606
 4692SOL     OW14974   6.465   2.960   2.846  0.3300  0.1074 -0.1285
 4692SOL    HW114975   6.498   2.866   2.842  0.5907  0.1230  1.1564
 4692SOL    HW214976   6.511   3.009   2.920 -0.8199  0.8310  0.1419
 4693SOL     OW14977   6.339   1.153   3.498 -0.0484 -0.2435  0.5778
 4693SOL    HW114978   6.282   1.108   3.567  0.2341 -2.9311 -0.7952
 4693SOL    HW214979   6.436   1.142   3.522  0.0331 -0.7329  0.0569
 4694SOL     OW14980   1.767   5.874   0.251 -0.3368 -0.6416  0.2918
 4694SOL    HW114981   1.748   5.834   0.341  0.1730 -0.0789  0.6554
 4694SOL    HW214982   1.704   5.949   0.233  1.0229  0.7638  1.1944
 4695SOL     OW14983   2.244   5.690   0.435 -0.7433  0.2453 -0.4242
 4695SOL    HW114984   2.204   5.727   0.519 -2.5391  1.8331 -1.8874
 4695SOL    HW214985   2.186   5.617   0.400 -0.0826 -0.2980 -0.4216
 4696SOL     OW14986   0.938   1.094   4.348 -0.3428  0.5017 -0.1004
 4696SOL    HW114987   0.946   1.109   4.250  1.2212 -0.7744 -0.2123
 4696SOL    HW214988   0.872   1.159   4.387 -0.3643  1.5805 -1.8373
 4697SOL     OW14989   4.274   5.881   1.617 -0.0099  0.3272  0.1974
 4697SOL    HW114990   4.181   5.845   1.618  1.0405 -2.6551  0.9248
 4697SOL    HW214991   4.308   5.888   1.710  0.4420  1.6481 -0.0467
 4698SOL     OW14992   5.318   1.653   4.313 -0.4043  0.7153 -0.2294
 4698SOL    HW114993   5.300   1.645   4.411 -0.4220 -2.7414 -0.3877
 4698SOL    HW214994   5.299   1.565   4.269  0.5471  1.8865 -3.1940
 4699SOL     OW14995   1.175   3.014   3.044  0.2887  0.9206 -0.2371
 4699SOL    HW114996   1.131   2.934   3.085  2.3905 -0.7578 -1.0277
 4699SOL    HW214997   1.109   3.063   2.988 -1.2968  0.2874  0.9838
 4700SOL     OW14998   6.887   5.874   3.192  0.0884 -0.5193  0.3597
 4700SOL    HW114999   6.825   5.796   3.204 -1.0874  0.2844 -0.2328
 4700SOL    HW215000   6.928   5.897   3.281 -1.0818 -0.5895  0.9444
 4701SOL     OW15001   1.992   2.105   2.789 -0.3686 -0.3362 -0.3623
 4701SOL    HW115002   2.088   2.129   2.805  0.3341 -0.7381 -3.4627
 4701SOL    HW215003   1.956   2.160   2.715 -2.4478 -0.5456  0.4397
 4702SOL     OW15004   4.903   4.089   0.375  0.0447  0.4501  0.3782
 4702SOL    HW115005   4.877   3.996   0.401 -2.7124  0.6753 -1.1232
 4702SOL    HW215006   4.928   4.141   0.456 -1.5200 -0.7285  1.6944
 4703SOL     OW15007   0.703   5.930   3.930  0.6133  0.1709 -0.1842
 4703SOL    HW115008   0.689   6.027   3.947  1.6292  0.0710  1.4649
 4703SOL    HW215009   0.779   5.897   3.986 -0.9024 -1.9766  0.7750
 4704SOL     OW15010   2.119   4.444   2.242  0.0342 -0.4065 -0.2033
 4704SOL    HW115011   2.090   4.360   2.288 -2.4334  0.0924 -0.7152
 4704SOL    HW215012   2.199   4.425   2.186 -0.6252 -2.5183 -0.5233
 4705SOL     OW15013   3.133   2.878   1.156  0.5834 -0.0260 -0.5409
 4705SOL    HW115014   3.211   2.873   1.218  0.2606  1.7586  0.0578
 4705SOL    HW215015   3.154   2.939   1.080  0.2087 -0.5201 -1.0522
 4706SOL     OW15016   2.230   2.290   0.918 -0.1330  0.2367  0.3332
 4706SOL    HW115017   2.133   2.305   0.898  0.1735  0.1394 -1.4383
 4706SOL    HW215018   2.247   2.307   1.015 -2.0202 -0.3244  0.8182
 4707SOL     OW15019   1.771   5.365   2.959 -0.1914  0.0926  0.0857
 4707SOL    HW115020   1.807   5.391   2.869  1.2471  0.6171  0.7852
 4707SOL    HW215021   1.759   5.266   2.963  2.3009 -0.2574  0.1863
 4708SOL     OW15022   1.198   2.803   4.872 -0.1968 -0.1701 -0.3454
 4708SOL    HW115023   1.174   2.827   4.966 -1.3099 -0.9253 -0.4115
 4708SOL    HW215024   1.230   2.884   4.824  0.0687  0.2936  0.5888
 4709SOL     OW15025   5.540   2.546   5.581 -0.4244 -0.4358  0.2243
 4709SOL    HW115026   5.534   2.492   5.497 -0.2522 -0.3376  0.1478
 4709SOL    HW215027   5.550   2.484   5.659 -0.9438 -0.5401  0.2113
 4710SOL     OW15028   4.967   4.281   6.494  0.0774 -0.1015  0.0367
 4710SOL    HW115029   5.024   4.361   6.473  0.0180 -0.3080 -0.9744
 4710SOL    HW215030   4.876   4.311   6.521 -0.1571  0.1712 -1.0104
 4711SOL     OW15031   4.702   0.078   3.932 -0.1228 -0.3537  0.7813
 4711SOL    HW115032   4.706   0.170   3.892 -0.2555 -0.1114  1.3105
 4711SOL    HW215033   4.607   0.047   3.935  0.0354 -1.0179 -0.5094
 4712SOL     OW15034   3.138   4.912   6.044  0.0449 -0.2132 -0.0087
 4712SOL    HW115035   3.071   4.872   6.106 -1.0728  1.1008 -0.3326
 4712SOL    HW215036   3.229   4.908   6.086 -0.5590 -0.1046  1.3572
 4713SOL     OW15037   5.109   4.021   1.790  0.2534 -0.2479  0.0256
 4713SOL    HW115038   5.026   4.006   1.843  0.2132 -0.4199 -0.0841
 4713SOL    HW215039   5.189   4.020   1.850  0.0410  1.6100  0.3890
 4714SOL     OW15040   4.807   0.777   5.352  0.2779 -0.2822  0.4995
 4714SOL    HW115041   4.728   0.810   5.301 -0.2651 -0.0368  1.4755
 4714SOL    HW215042   4.864   0.720   5.292 -0.9121 -0.9012 -0.0815
 4715SOL     OW15043   6.786   1.796   0.830  0.6130 -0.3680  0.2599
 4715SOL    HW115044   6.877   1.772   0.798  0.1063 -0.6407 -1.0394
 4715SOL    HW215045   6.723   1.720   0.812 -0.3617  0.7016 -1.0724
 4716SOL     OW15046   5.133   2.496   6.904  0.7715  0.3143 -0.2194
 4716SOL    HW115047   5.210   2.437   6.882  1.9468  1.9531 -0.6841
 4716SOL    HW215048   5.154   2.551   6.984 -0.4817 -0.1602  0.4756
 4717SOL     OW15049   0.451   4.324   5.015 -0.0178 -0.0384 -0.6214
 4717SOL    HW115050   0.384   4.398   5.015  0.5665  0.5070 -0.2474
 4717SOL    HW215051   0.500   4.324   4.928 -0.7967 -0.7271 -1.0764
 4718SOL     OW15052   6.143   2.611   1.572 -0.3776 -0.5334 -0.1220
 4718SOL    HW115053   6.222   2.655   1.529 -0.9222 -0.3841 -1.0058
 4718SOL    HW215054   6.059   2.653   1.538 -0.8478 -0.8221  0.6550
 4719SOL     OW15055   6.559   5.047   2.595 -0.0660  0.6353 -0.0599
 4719SOL    HW115056   6.463   5.020   2.595  0.0779  0.0271  1.2120
 4719SOL    HW215057   6.594   5.046   2.501 -1.3407  1.0477 -0.5572
 4720SOL     OW15058   0.463   3.017   0.669  0.5450 -0.6699 -0.2870
 4720SOL    HW115059   0.512   3.069   0.739  0.3719  0.1633 -0.7803
 4720SOL    HW215060   0.469   3.064   0.581 -2.2536  0.2015 -0.1128
 4721SOL     OW15061   0.182   3.142   0.724  0.4531 -0.4753  0.3246
 4721SOL    HW115062   0.261   3.182   0.680  0.1699 -0.3478 -0.0691
 4721SOL    HW215063   0.134   3.081   0.661 -1.7682  2.0982 -0.6878
 4722SOL     OW15064   0.736   0.153   0.012  0.2520 -0.1726 -0.1619
 4722SOL    HW115065   0.706   0.243   0.043  1.6586  0.7433 -1.3267
 4722SOL    HW215066   0.733   0.089   0.088  0.9583  1.3025  1.1723
 4723SOL     OW15067   3.147   5.070   6.462 -0.9545 -0.4406 -0.0566
 4723SOL    HW115068   3.047   5.075   6.462 -1.0088 -1.2468  1.1691
 4723SOL    HW215069   3.180   5.053   6.554  0.2513 -1.5605 -0.6663
 4724SOL     OW15070   1.005   0.150   6.176 -0.1084  0.2024  0.1083
 4724SOL    HW115071   0.941   0.185   6.244 -2.7661 -0.1560 -2.0223
 4724SOL    HW215072   1.048   0.227   6.128  2.0166  0.4586  2.2604
 4725SOL     OW15073   4.727   6.119   1.686 -0.5405  0.3051 -0.0892
 4725SOL    HW115074   4.631   6.121   1.715 -0.8558  1.9169 -1.1497
 4725SOL    HW215075   4.732   6.092   1.590  0.1703 -0.7605  0.2306
 4726SOL     OW15076   1.862   2.405   6.145 -0.1428  0.3738 -0.3593
 4726SOL    HW115077   1.899   2.473   6.208 -0.4204 -1.5689  2.0594
 4726SOL    HW215078   1.918   2.322   6.148 -2.1910 -1.0689  0.1212
 4727SOL     OW15079   6.299   3.875   0.099 -0.1391  0.0196  0.0478
 4727SOL    HW115080   6.342   3.917   0.179  2.3158 -1.4523 -0.4128
 4727SOL    HW215081   6.215   3.828   0.128 -1.1491  2.2844  1.1125
 4728SOL     OW15082   5.582   0.307   5.168  0.4006  1.0019 -0.1441
 4728SOL    HW115083   5.650   0.268   5.230  0.2394  0.9362 -0.0084
 4728SOL    HW215084   5.497   0.255   5.175  1.5427 -1.6997 -3.3389
 4729SOL     OW15085   0.295   6.543   1.958  0.1452 -0.5672 -0.1717
 4729SOL    HW115086   0.288   6.447   1.986 -1.2975 -0.7621 -1.0725
 4729SOL    HW215087   0.389   6.564   1.932  0.3182 -1.9693 -0.7680
 4730SOL     OW15088   1.634   2.815   3.254 -0.4500 -0.2266 -0.6540
 4730SOL    HW115089   1.630   2.776   3.162  0.4711 -0.1783 -0.7230
 4730SOL    HW215090   1.720   2.790   3.297 -1.2055 -0.9207  0.5109
 4731SOL     OW15091   4.085   6.464   4.132 -0.2949  0.5929  0.2991
 4731SOL    HW115092   4.005   6.523   4.128 -0.4978  0.2911 -0.2208
 4731SOL    HW215093   4.139   6.476   4.048  0.2362  0.8357  0.6696
 4732SOL     OW15094   1.459   6.185   4.418  0.1727 -0.3009  0.4211
 4732SOL    HW115095   1.515   6.188   4.335 -0.0925 -0.8062  0.2161
 4732SOL    HW215096   1.377   6.241   4.406  0.6025  0.3904  0.6986
 4733SOL     OW15097   1.939   4.261   2.901 -0.3103  0.4623 -0.3448
 4733SOL    HW115098   1.922   4.339   2.962  0.6191  0.0872  0.4319
 4733SOL    HW215099   1.983   4.292   2.818 -1.7735  1.0115 -0.9451
 4734SOL     OW15100   5.609   5.826   5.735 -0.6890  0.1384 -0.0541
 4734SOL    HW115101   5.551   5.766   5.680 -2.1743  0.8789  0.6385
 4734SOL    HW215102   5.553   5.897   5.778  0.4036 -0.3246  2.3300
 4735SOL     OW15103   0.087   0.595   5.972  0.1054  0.2998  0.1237
 4735SOL    HW115104   0.094   0.640   6.062  1.3831 -0.1879  0.2750
 4735SOL    HW215105   0.113   0.660   5.901  1.3287  0.0169  0.2946
 4736SOL     OW15106   6.047   5.560   3.398 -0.3235 -0.0595 -0.2971
 4736SOL    HW115107   6.138   5.559   3.358  1.0657 -2.7728  2.5317
 4736SOL    HW215108   5.990   5.491   3.353 -0.0171 -0.3870 -0.1900
 4737SOL     OW15109   2.112   5.281   0.569 -0.1745  0.2575  0.5582
 4737SOL    HW115110   2.041   5.320   0.629  1.1724  2.0266  1.0925
 4737SOL    HW215111   2.132   5.347   0.496 -0.7012 -1.2297 -0.9864
 4738SOL     OW15112   6.663   6.250   2.378  0.5510  0.1427  0.3555
 4738SOL    HW115113   6.734   6.182   2.357  1.6929  0.6182  2.3821
 4738SOL    HW215114   6.703   6.342   2.373 -0.6880  0.6342 -1.2539
 4739SOL     OW15115   5.726   0.849   2.509 -0.4620  0.3671  0.0643
 4739SOL    HW115116   5.676   0.771   2.471 -1.6814  0.5719  1.1685
 4739SOL    HW215117   5.711   0.930   2.452  0.7546 -0.1689 -1.0473
 4740SOL     OW15118   2.798   0.285   6.164 -0.0760 -0.0985 -0.2128
 4740SOL    HW115119   2.804   0.228   6.083  0.0902  0.3223 -0.5011
 4740SOL    HW215120   2.854   0.245   6.237  0.9871  0.3031 -0.7864
 4741SOL     OW15121   6.138   3.693   2.374  0.2620  0.1932  0.3928
 4741SOL    HW115122   6.197   3.733   2.304  1.1499 -0.2356  0.8867
 4741SOL    HW215123   6.187   3.620   2.422 -0.7745 -0.3947  0.5984
 4742SOL     OW15124   3.501   5.676   1.531  0.8819 -0.0617  0.8424
 4742SOL    HW115125   3.421   5.736   1.529  1.7410  1.1796  2.1938
 4742SOL    HW215126   3.582   5.728   1.506  1.4095 -1.0937  0.3601
 4743SOL     OW15127   4.234   3.051   6.581 -0.6058 -0.0698 -0.1092
 4743SOL    HW115128   4.159   3.079   6.642 -0.6199 -0.6346  0.1423
 4743SOL    HW215129   4.321   3.058   6.630 -0.6111 -0.4722 -0.0335
 4744SOL     OW15130   3.696   1.505   6.753  0.4801  0.2765  0.4125
 4744SOL    HW115131   3.606   1.499   6.709  0.5332 -0.1646  0.3601
 4744SOL    HW215132   3.704   1.432   6.822  1.2180 -0.3963 -0.3607
 4745SOL     OW15133   4.943   5.654   2.600  0.3035 -0.4502 -0.1413
 4745SOL    HW115134   4.989   5.740   2.579 -0.0534 -0.4999 -1.1411
 4745SOL    HW215135   4.941   5.641   2.699  1.1080  0.2788 -0.0206
 4746SOL     OW15136   6.049   0.532   2.204  0.5643  0.0487  0.1904
 4746SOL    HW115137   6.119   0.548   2.134  0.8916 -1.2596  0.1790
 4746SOL    HW215138   5.996   0.615   2.219  1.7512  0.9002 -0.2152
 4747SOL     OW15139   1.277   4.810   0.556 -0.6222  0.0412 -0.5097
 4747SOL    HW115140   1.291   4.787   0.652  0.3562  0.6996 -0.4833
 4747SOL    HW215141   1.261   4.908   0.546  0.3741  0.1634 -1.1043
 4748SOL     OW15142   6.980   6.490   0.190 -0.1368 -0.0971  0.2623
 4748SOL    HW115143   7.042   6.413   0.205  0.8004  0.5198 -0.3696
 4748SOL    HW215144   6.915   6.467   0.118 -0.8180 -0.8350  1.0895
 4749SOL     OW15145   4.105   1.392   0.220 -0.0714 -0.2779 -0.5169
 4749SOL    HW115146   4.039   1.421   0.289  0.4307  1.4401 -0.7195
 4749SOL    HW215147   4.163   1.320   0.258 -2.2170 -2.0808 -0.4409
 4750SOL     OW15148   0.378   2.823   5.894  0.2050  0.0523 -0.3711
 4750SOL    HW115149   0.333   2.734   5.890 -1.2000  0.7504 -0.9881
 4750SOL    HW215150   0.362   2.871   5.808  1.6825  0.5614 -0.3755
 4751SOL     OW15151   0.636   2.793   5.962 -0.2456 -0.3908 -0.1930
 4751SOL    HW115152   0.669   2.866   6.022  0.4066 -0.8976  0.0836
 4751SOL    HW215153   0.550   2.821   5.919  1.1083  1.4957 -1.8879
 4752SOL     OW15154   2.765   5.577   0.665 -0.6832 -0.1250 -0.2365
 4752SOL    HW115155   2.823   5.568   0.745 -0.2228  0.9954 -0.4205
 4752SOL    HW215156   2.741   5.673   0.652 -0.4408 -0.2374 -1.6495
 4753SOL     OW15157   0.972   1.918   0.377 -0.6468  0.3876 -0.0032
 4753SOL    HW115158   1.009   1.826   0.361 -1.9042 -0.6483  2.4345
 4753SOL    HW215159   1.037   1.971   0.430  0.3415  1.1785 -1.9297
 4754SOL     OW15160   1.609   0.005   6.130  0.2127 -0.1752 -0.5250
 4754SOL    HW115161   1.529   0.025   6.187  0.2839 -1.7421  0.1684
 4754SOL    HW215162   1.677   0.077   6.142 -0.6938  0.6875 -0.3938
 4755SOL     OW15163   1.784   0.424   2.585 -0.0877  0.0262 -0.5285
 4755SOL    HW115164   1.700   0.441   2.636  0.3364 -1.5048  0.7955
 4755SOL    HW215165   1.770   0.348   2.521  0.1556  0.0475 -0.6086
 4756SOL     OW15166   5.400   3.043   0.312 -0.0216 -0.0015 -0.8037
 4756SOL    HW115167   5.493   3.048   0.350 -0.9223  0.8560  1.4426
 4756SOL    HW215168   5.389   3.113   0.242  0.2777  1.6132  0.7223
 4757SOL     OW15169   3.378   0.656   6.134  0.0312 -0.3078 -0.3139
 4757SOL    HW115170   3.289   0.660   6.178  0.1482 -3.3166  0.4041
 4757SOL    HW215171   3.446   0.622   6.199  1.3556  0.3072 -1.3330
 4758SOL     OW15172   1.643   3.208   5.827 -0.5676  0.0657  0.0383
 4758SOL    HW115173   1.627   3.211   5.926  0.3767 -0.7061  0.2306
 4758SOL    HW215174   1.672   3.116   5.801 -0.3679  0.3812 -0.8889
 4759SOL     OW15175   4.437   2.299   0.767 -0.2563 -0.3030 -0.7491
 4759SOL    HW115176   4.502   2.260   0.703  0.9285 -0.3987  0.4716
 4759SOL    HW215177   4.344   2.289   0.730  0.3760 -0.3349 -2.4257
 4760SOL     OW15178   6.210   2.032   1.247  0.2568  0.3294 -0.1451
 4760SOL    HW115179   6.300   1.989   1.256 -0.1202 -0.1336  1.9139
 4760SOL    HW215180   6.141   1.961   1.233  0.0874  0.6049 -0.7256
 4761SOL     OW15181   3.157   5.675   6.168 -0.3264  0.3185 -0.2481
 4761SOL    HW115182   3.174   5.753   6.109 -0.4653 -0.9093 -1.9712
 4761SOL    HW215183   3.244   5.635   6.197 -0.2551  1.0541  0.6244
 4762SOL     OW15184   2.555   0.669   4.892  0.2554 -0.3263 -0.1186
 4762SOL    HW115185   2.535   0.578   4.927 -1.8770 -0.2396 -0.9817
 4762SOL    HW215186   2.585   0.727   4.968  2.1369 -1.8166  0.3631
 4763SOL     OW15187   4.174   4.795   5.814  0.0665 -0.0764  0.3033
 4763SOL    HW115188   4.180   4.890   5.845  1.5298 -0.4993  1.4103
 4763SOL    HW215189   4.243   4.779   5.743 -0.3838 -0.2372 -0.1019
 4764SOL     OW15190   4.106   3.665   4.580 -0.3516 -0.0235 -0.1002
 4764SOL    HW115191   4.085   3.741   4.519 -0.9060 -0.4530 -0.4433
 4764SOL    HW215192   4.106   3.579   4.529 -0.4258 -0.3401  0.4216
 4765SOL     OW15193   6.850   3.475   6.309  0.3155  0.0393  0.2484
 4765SOL    HW115194   6.803   3.555   6.348 -2.7267 -0.8151 -1.3055
 4765SOL    HW215195   6.869   3.492   6.212 -1.2765 -1.4058 -0.3651
 4766SOL     OW15196   4.914   2.252   3.803 -0.0025 -0.0605  0.5075
 4766SOL    HW115197   5.001   2.276   3.760 -1.4273  0.7798 -2.0562
 4766SOL    HW215198   4.897   2.154   3.791 -0.9494  0.3665 -2.0646
 4767SOL     OW15199   3.838   1.065   5.545  0.0577 -0.6229  0.2839
 4767SOL    HW115200   3.760   1.088   5.603  1.1859  0.5402  1.4043
 4767SOL    HW215201   3.848   1.133   5.472  1.5945  0.8860  1.7923
 4768SOL     OW15202   2.025   0.465   5.160  0.0532  0.1356 -0.5350
 4768SOL    HW115203   2.117   0.437   5.189 -0.2418 -0.3900 -0.0770
 4768SOL    HW215204   2.001   0.551   5.205  0.2644  0.1997 -0.5437
 4769SOL     OW15205   4.259   2.060   1.679  0.4814  0.2251  0.5067
 4769SOL    HW115206   4.292   1.965   1.684 -0.3828 -0.1088  0.0996
 4769SOL    HW215207   4.190   2.075   1.750 -0.1987  0.2083 -0.1403
 4770SOL     OW15208   3.050   1.831   3.448  0.3782 -0.0628  0.3571
 4770SOL    HW115209   3.088   1.809   3.358  0.6706 -0.5958  0.6032
 4770SOL    HW215210   3.076   1.924   3.474  0.0188  0.2064 -0.2513
 4771SOL     OW15211   4.087   4.455   6.321 -0.3068 -0.1714  0.2479
 4771SOL    HW115212   4.067   4.553   6.321  0.4930 -0.0040  0.1191
 4771SOL    HW215213   4.049   4.413   6.404 -0.3652  0.3013  0.4606
 4772SOL     OW15214   4.205   1.271   6.678  0.0364  0.1671  0.0274
 4772SOL    HW115215   4.120   1.303   6.719  0.3969 -0.1048  1.0268
 4772SOL    HW215216   4.188   1.238   6.585 -1.4938 -2.4201  1.1059
 4773SOL     OW15217   1.084   5.119   2.785 -0.2730  0.2149 -0.5812
 4773SOL    HW115218   1.001   5.153   2.830  0.8843  0.2034  1.6991
 4773SOL    HW215219   1.145   5.195   2.767 -0.0245  0.0100 -0.6057
 4774SOL     OW15220   3.833   3.301   6.417  0.6231  0.1638 -0.2257
 4774SOL    HW115221   3.816   3.263   6.508  1.8337  1.9551  0.8166
 4774SOL    HW215222   3.928   3.285   6.392  0.3406 -0.1658 -1.1323
 4775SOL     OW15223   2.214   2.437   2.675 -0.6156 -0.0237  0.1239
 4775SOL    HW115224   2.185   2.504   2.606  1.7478 -1.3634 -2.3727
 4775SOL    HW215225   2.297   2.470   2.720 -1.1031 -0.0011  1.0238
 4776SOL     OW15226   4.393   6.007   1.413  0.0225 -0.6887  0.4873
 4776SOL    HW115227   4.348   5.960   1.489 -0.9000 -1.1171 -0.2922
 4776SOL    HW215228   4.325   6.027   1.342  0.5020  1.2871  0.5127
 4777SOL     OW15229   1.936   3.975   2.623 -0.4503 -0.4310  0.3035
 4777SOL    HW115230   1.978   3.921   2.551 -2.8332  0.2056 -1.6999
 4777SOL    HW215231   1.921   3.917   2.704  2.7621 -1.0109  0.5998
 4778SOL     OW15232   6.961   3.772   3.626 -0.3700 -0.1131 -0.4573
 4778SOL    HW115233   6.883   3.829   3.600 -2.4375 -1.3727  2.4500
 4778SOL    HW215234   6.995   3.802   3.716  0.2764 -1.7058 -0.1442
 4779SOL     OW15235   0.323   0.552   4.438 -0.1086  0.4287 -0.2508
 4779SOL    HW115236   0.409   0.522   4.478 -0.0521 -0.7239 -1.1694
 4779SOL    HW215237   0.247   0.507   4.484 -0.0620 -0.6182 -1.1651
 4780SOL     OW15238   0.694   1.911   4.946  0.0930  0.0099 -0.1466
 4780SOL    HW115239   0.595   1.893   4.949 -0.0818  0.9360  0.1997
 4780SOL    HW215240   0.709   2.008   4.925  0.9836 -0.7042 -3.1953
 4781SOL     OW15241   1.286   6.787   2.980 -0.7910  0.0186  0.4430
 4781SOL    HW115242   1.373   6.812   2.937 -1.2392  0.6037 -0.1503
 4781SOL    HW215243   1.211   6.818   2.922 -1.4095 -1.9772  0.0680
 4782SOL     OW15244   6.477   5.724   6.427  0.0760  0.0483  0.3368
 4782SOL    HW115245   6.513   5.655   6.363 -2.9718 -0.3587 -1.1064
 4782SOL    HW215246   6.455   5.680   6.514  0.1922 -0.3216  0.1820
 4783SOL     OW15247   6.977   3.348   2.510 -0.2064 -0.3726  0.2766
 4783SOL    HW115248   7.028   3.407   2.447 -1.5234  0.1167 -0.3590
 4783SOL    HW215249   6.964   3.258   2.468 -2.2455  0.3572 -0.7987
 4784SOL     OW15250   4.469   4.987   4.827 -0.2917  0.1275 -0.1250
 4784SOL    HW115251   4.449   4.895   4.794 -1.5811  0.0294  0.8562
 4784SOL    HW215252   4.511   4.982   4.917 -0.4061  0.5009 -0.0505
 4785SOL     OW15253   6.611   0.771   0.538  0.5589  0.7464  0.3458
 4785SOL    HW115254   6.609   0.839   0.465  1.2542  1.0886  0.6341
 4785SOL    HW215255   6.533   0.785   0.599 -0.8976 -0.4701 -1.1261
 4786SOL     OW15256   1.760   5.382   1.424  0.1088  0.3453  0.1944
 4786SOL    HW115257   1.711   5.445   1.484  0.0861  0.5817 -0.0699
 4786SOL    HW215258   1.738   5.287   1.449  2.4353  0.3118  2.5635
 4787SOL     OW15259   4.642   2.653   3.854  0.0391 -0.3861  0.1302
 4787SOL    HW115260   4.559   2.598   3.861 -1.4202  1.6229 -0.1562
 4787SOL    HW215261   4.677   2.672   3.945 -0.2553 -0.6432  0.2990
 4788SOL     OW15262   2.428   6.351   5.430  0.5495 -0.3741  0.4660
 4788SOL    HW115263   2.395   6.404   5.508  0.5702  0.5410 -0.1306
 4788SOL    HW215264   2.365   6.276   5.412 -1.5801  1.5999 -0.9350
 4789SOL     OW15265   4.556   5.045   0.881 -0.1559 -0.3602 -0.3612
 4789SOL    HW115266   4.624   5.119   0.881 -1.0669  0.4911 -0.5959
 4789SOL    HW215267   4.481   5.069   0.942 -0.3054 -1.2566 -0.1807
 4790SOL     OW15268   0.388   6.115   4.626  0.3295 -0.0475 -0.6046
 4790SOL    HW115269   0.290   6.128   4.642  0.3061  0.4121 -1.1045
 4790SOL    HW215270   0.414   6.022   4.651 -0.3041 -0.2851 -0.8269
 4791SOL     OW15271   5.364   3.620   3.512 -0.1971  0.2336 -0.0560
 4791SOL    HW115272   5.378   3.595   3.608 -1.7970  0.9472  0.3990
 4791SOL    HW215273   5.321   3.543   3.465 -1.3531  0.6155  0.3404
 4792SOL     OW15274   2.266   4.410   5.765  0.4580 -0.1340  0.0563
 4792SOL    HW115275   2.185   4.409   5.823  0.0217  1.0810 -0.4999
 4792SOL    HW215276   2.321   4.490   5.785  0.9554 -0.3704 -0.3318
 4793SOL     OW15277   6.086   1.214   0.628 -0.1963  0.0518  0.2031
 4793SOL    HW115278   6.164   1.152   0.621 -1.0743 -1.0267 -0.4022
 4793SOL    HW215279   6.049   1.211   0.721  0.9582  1.1926  0.7226
 4794SOL     OW15280   6.982   3.657   2.468  0.6663 -0.4848  0.0709
 4794SOL    HW115281   6.912   3.676   2.400  0.6775  0.0362  0.1992
 4794SOL    HW215282   6.944   3.666   2.560  1.1549  0.9006  0.1623
 4795SOL     OW15283   6.653   1.180   4.369 -0.2469  0.3456  0.0254
 4795SOL    HW115284   6.615   1.265   4.332 -0.0085  0.6463  0.4654
 4795SOL    HW215285   6.752   1.189   4.378 -0.1207 -0.2762 -0.6903
 4796SOL     OW15286   4.281   1.756   1.712  0.4229 -0.0083 -0.2124
 4796SOL    HW115287   4.282   1.657   1.725 -1.7990  0.1412  1.7604
 4796SOL    HW215288   4.276   1.802   1.800 -0.8796  1.7651 -1.1379
 4797SOL     OW15289   0.049   5.366   5.755 -0.2183  0.3737  0.3143
 4797SOL    HW115290   0.069   5.424   5.676  2.8157 -1.3844 -0.3678
 4797SOL    HW215291  -0.048   5.373   5.778 -0.7130  2.7691 -2.0326
 4798SOL     OW15292   0.276   0.241   6.676  0.3223 -0.0948 -0.1046
 4798SOL    HW115293   0.289   0.322   6.619 -0.1595  0.9569  1.2186
 4798SOL    HW215294   0.366   0.202   6.699  0.5656  0.1513 -0.6229
 4799SOL     OW15295   5.508   0.661   3.374  0.0239 -0.4455 -0.2152
 4799SOL    HW115296   5.511   0.753   3.412 -1.1958 -0.5904  0.2596
 4799SOL    HW215297   5.500   0.594   3.448 -0.1293 -0.8678 -0.6059
 4800SOL     OW15298   1.096   2.962   5.545 -0.0273  0.0041  0.5896
 4800SOL    HW115299   1.093   3.040   5.608  0.1004  0.2232  0.3292
 4800SOL    HW215300   1.138   2.991   5.459 -1.1788 -0.0095  0.0005
 4801SOL     OW15301   5.980   2.406   1.632  0.3815 -0.4374 -0.0338
 4801SOL    HW115302   5.923   2.427   1.552 -0.1046  0.2489  0.4774
 4801SOL    HW215303   6.061   2.464   1.632  0.0335  0.0631  0.3255
 4802SOL     OW15304   1.053   6.536   0.299  0.2244  0.3490 -0.1021
 4802SOL    HW115305   1.145   6.572   0.313  0.7694 -0.4553 -1.4584
 4802SOL    HW215306   1.037   6.460   0.361  0.7237  0.0705 -0.3073
 4803SOL     OW15307   6.146   4.902   2.763  0.5443 -0.1635  0.1296
 4803SOL    HW115308   6.194   4.905   2.676  1.3551 -2.1975  0.4492
 4803SOL    HW215309   6.211   4.916   2.838  0.3261 -1.0440  0.4952
 4804SOL     OW15310   4.671   4.995   1.818 -0.1413  0.1027 -0.3314
 4804SOL    HW115311   4.575   4.974   1.840  0.0917 -1.2118 -0.5381
 4804SOL    HW215312   4.678   5.024   1.723 -0.4624  1.1732 -0.0455
 4805SOL     OW15313   0.645   0.822   2.284  0.2656  0.0745  0.3831
 4805SOL    HW115314   0.622   0.729   2.256  1.6568  0.1240 -1.1137
 4805SOL    HW215315   0.582   0.886   2.240 -0.4837 -0.1145  1.1506
 4806SOL     OW15316   6.112   4.654   2.625 -0.4195 -0.0116  0.0345
 4806SOL    HW115317   6.101   4.569   2.676 -2.6950 -0.0106 -0.3507
 4806SOL    HW215318   6.099   4.732   2.687 -1.4352 -0.0022 -0.1642
 4807SOL     OW15319   1.440   4.520   2.717  0.1899 -0.2960 -0.5301
 4807SOL    HW115320   1.432   4.542   2.620  0.4007  0.8819 -0.2925
 4807SOL    HW215321   1.469   4.601   2.768 -3.0329  0.0815  0.9719
 4808SOL     OW15322   1.019   0.343   1.938  0.0657  0.2693  0.6158
 4808SOL    HW115323   0.950   0.276   1.968  2.4750 -2.0871  1.2417
 4808SOL    HW215324   1.036   0.407   2.012  0.2531 -0.6224  1.3693
 4809SOL     OW15325   4.384   0.581   0.324 -0.3776 -0.2307  0.1895
 4809SOL    HW115326   4.304   0.594   0.266 -1.6570 -1.6674  1.5283
 4809SOL    HW215327   4.379   0.643   0.402  1.1739  1.4772 -1.0111
 4810SOL     OW15328   0.261   6.834   5.673  0.0489 -0.2678 -0.2043
 4810SOL    HW115329   0.311   6.752   5.700 -0.3667 -0.1933  0.8844
 4810SOL    HW215330   0.198   6.860   5.747  1.5881  2.1755  0.3783
 4811SOL     OW15331   3.848   5.452   3.677  0.0553 -0.0290  0.2837
 4811SOL    HW115332   3.804   5.381   3.623  0.3807 -0.3238  0.4023
 4811SOL    HW215333   3.801   5.462   3.765 -0.3530  0.3150  0.0318
 4812SOL     OW15334   6.722   6.111   3.611  0.1891  0.3354 -0.9447
 4812SOL    HW115335   6.726   6.013   3.589  0.0205  0.3166 -0.8957
 4812SOL    HW215336   6.811   6.152   3.595  0.4092  0.0635 -0.4386
 4813SOL     OW15337   5.813   3.436   1.821 -0.5717 -0.1358 -0.0305
 4813SOL    HW115338   5.781   3.530   1.815  0.8383  0.3349 -0.4591
 4813SOL    HW215339   5.808   3.405   1.915  0.2989  0.8629  0.3590
 4814SOL     OW15340   0.395   0.781   2.682 -0.2041 -0.6429 -0.3846
 4814SOL    HW115341   0.342   0.727   2.617  0.6248 -1.0077 -0.7794
 4814SOL    HW215342   0.486   0.800   2.643 -0.0940  0.0899  0.2082
 4815SOL     OW15343   3.349   2.155   4.516  0.0800  0.5997  0.2658
 4815SOL    HW115344   3.253   2.181   4.526 -0.7033 -2.1046  0.6510
 4815SOL    HW215345   3.359   2.057   4.529  2.7783  0.6029 -0.9217
 4816SOL     OW15346   5.637   2.865   5.217  0.1866 -0.3600  0.1336
 4816SOL    HW115347   5.686   2.801   5.158 -0.5650 -1.9613  1.1476
 4816SOL    HW215348   5.698   2.897   5.290  0.7463  0.6137 -0.7398
 4817SOL     OW15349   3.969   1.620   6.328  0.4316  0.1419 -0.9336
 4817SOL    HW115350   3.906   1.546   6.354  1.6205 -1.1836 -1.6847
 4817SOL    HW215351   4.003   1.665   6.410  0.7803 -1.1064 -0.3622
 4818SOL     OW15352   0.493   0.975   3.510  0.1466  0.5777 -0.2068
 4818SOL    HW115353   0.587   0.998   3.486 -0.5198  2.7092 -1.0561
 4818SOL    HW215354   0.431   1.013   3.441 -1.3476 -0.9014  0.2444
 4819SOL     OW15355   6.746   3.342   0.633 -0.8734 -0.1014  0.7664
 4819SOL    HW115356   6.731   3.386   0.544 -0.4304  0.4276  0.9483
 4819SOL    HW215357   6.691   3.388   0.703 -0.5877  0.0188  0.9139
 4820SOL     OW15358   6.039   2.671   0.243 -0.4868 -0.3051 -0.1390
 4820SOL    HW115359   5.964   2.640   0.302 -0.3658  1.3660  0.9726
 4820SOL    HW215360   6.009   2.752   0.192  0.2498 -0.2074 -0.4230
 4821SOL     OW15361   0.956   0.368   3.149 -0.1460 -0.1006 -0.1010
 4821SOL    HW115362   0.909   0.282   3.129 -0.4496  0.1315 -0.4042
 4821SOL    HW215363   1.012   0.358   3.231  1.1507 -1.0918 -1.0702
 4822SOL     OW15364   1.507   1.040   4.837  0.1413 -0.2280 -0.7566
 4822SOL    HW115365   1.489   0.941   4.840 -0.2378 -0.1697 -1.0785
 4822SOL    HW215366   1.606   1.055   4.828  0.4487 -0.5351  1.5183
 4823SOL     OW15367   0.343   1.785   0.488  0.0261  0.2372  0.5356
 4823SOL    HW115368   0.310   1.709   0.543 -2.5707  0.4607 -0.5864
 4823SOL    HW215369   0.266   1.833   0.447  1.7551  0.2794 -3.0807
 4824SOL     OW15370   1.555   3.143   5.551  0.2688 -0.0955  0.2439
 4824SOL    HW115371   1.595   3.150   5.642 -1.7429 -0.0769  1.1718
 4824SOL    HW215372   1.548   3.047   5.524  1.6657 -0.0690 -0.3026
 4825SOL     OW15373   0.825   5.349   4.939 -0.3439 -0.3786  0.4961
 4825SOL    HW115374   0.754   5.409   4.901 -0.7637 -1.7086 -0.9155
 4825SOL    HW215375   0.793   5.255   4.938  0.7837 -0.7950  1.5163
 4826SOL     OW15376   6.451   1.026   1.541  0.1143 -0.3063  0.4934
 4826SOL    HW115377   6.431   1.051   1.635 -2.4909 -0.9762  0.1913
 4826SOL    HW215378   6.486   1.106   1.492 -0.9000  0.7344  1.4031
 4827SOL     OW15379   5.513   1.050   2.876  0.4588 -0.5998  0.5012
 4827SOL    HW115380   5.536   1.098   2.961  0.6645 -1.7835  1.1371
 4827SOL    HW215381   5.451   0.975   2.896 -1.5880  0.6588 -0.7703
 4828SOL     OW15382   5.810   1.553   5.487  0.4972 -0.8960 -0.6674
 4828SOL    HW115383   5.719   1.569   5.447 -0.0289 -0.5972  0.6255
 4828SOL    HW215384   5.809   1.576   5.584  2.7468  2.0127 -1.1863
 4829SOL     OW15385   5.914   6.717   0.257  0.3330 -0.6687  0.1077
 4829SOL    HW115386   5.885   6.654   0.330 -1.8736  0.9932  0.7723
 4829SOL    HW215387   5.859   6.701   0.175  1.4882 -1.2170 -0.6018
 4830SOL     OW15388   2.101   5.408   2.524  0.7008  0.2861 -0.0311
 4830SOL    HW115389   2.127   5.342   2.453  0.4069 -0.4765  0.5564
 4830SOL    HW215390   2.122   5.501   2.493 -0.6694  0.0830 -1.6851
 4831SOL     OW15391   3.363   4.364   5.391  0.1033  0.1810 -0.2086
 4831SOL    HW115392   3.268   4.337   5.378 -0.4937  1.3174  1.4802
 4831SOL    HW215393   3.419   4.326   5.317 -1.6002 -0.7165 -1.0910
 4832SOL     OW15394   3.942   3.075   2.913  0.1119 -0.7386  1.1744
 4832SOL    HW115395   3.845   3.098   2.913  0.6069  1.6526  0.3938
 4832SOL    HW215396   3.966   3.033   2.825  0.4045  2.1824 -0.2933
 4833SOL     OW15397   5.791   2.046   4.760 -0.1639 -0.7832  0.2283
 4833SOL    HW115398   5.833   2.031   4.671 -0.9316  0.3231 -0.3329
 4833SOL    HW215399   5.724   2.119   4.754 -0.6336 -1.0679  1.5953
 4834SOL     OW15400   1.802   3.426   1.946 -0.0532  0.4942 -0.1354
 4834SOL    HW115401   1.887   3.469   1.915 -0.0929  0.5093 -0.2229
 4834SOL    HW215402   1.774   3.356   1.880  0.4766 -0.2744  0.4280
 4835SOL     OW15403   1.287   3.600   6.537  0.4000  0.6339 -0.6543
 4835SOL    HW115404   1.217   3.581   6.468  0.2150  0.0584 -0.3070
 4835SOL    HW215405   1.332   3.515   6.564  0.1636  0.7948  0.2674
 4836SOL     OW15406   2.573   5.587   0.204  0.5700  0.0371 -0.1640
 4836SOL    HW115407   2.548   5.532   0.284 -0.4047  2.7118  1.4778
 4836SOL    HW215408   2.491   5.628   0.164  1.2380  0.1031 -1.5437
 4837SOL     OW15409   0.979   4.147   4.033 -0.2115  0.3053 -0.5705
 4837SOL    HW115410   0.912   4.219   4.051 -0.8155 -0.2339 -0.6207
 4837SOL    HW215411   1.002   4.101   4.119  0.1905  0.5678 -0.5353
 4838SOL     OW15412   0.743   5.801   6.003 -0.4892 -0.0926 -0.1033
 4838SOL    HW115413   0.675   5.839   5.940  0.0918  0.0951 -0.6227
 4838SOL    HW215414   0.696   5.764   6.083 -1.0943  1.6909  0.4232
 4839SOL     OW15415   3.141   1.041   0.804 -0.5430 -0.2169 -0.4965
 4839SOL    HW115416   3.113   0.992   0.887  2.0800 -1.9789 -0.5281
 4839SOL    HW215417   3.156   1.137   0.826 -0.1261 -0.5994  1.0627
 4840SOL     OW15418   5.066   2.492   5.227 -0.0143 -0.6636  0.0601
 4840SOL    HW115419   5.011   2.473   5.146  0.9106 -0.3936 -0.6548
 4840SOL    HW215420   5.064   2.590   5.247  0.6904 -0.5529 -0.3538
 4841SOL     OW15421   4.232   4.976   3.742  0.1499 -0.3239 -0.5168
 4841SOL    HW115422   4.328   4.954   3.763  0.2433  0.5797  0.0584
 4841SOL    HW215423   4.185   4.894   3.711  1.0372 -0.8446 -0.5160
 4842SOL     OW15424   4.573   4.695   1.696  0.6894  0.1482 -0.1937
 4842SOL    HW115425   4.630   4.697   1.778  0.3460 -0.9939  0.0890
 4842SOL    HW215426   4.514   4.614   1.698  1.0209 -0.1678 -1.8087
 4843SOL     OW15427   0.028   2.687   6.873 -0.1206 -0.2100  0.0134
 4843SOL    HW115428   0.120   2.649   6.867  0.3775  0.7342  1.2066
 4843SOL    HW215429   0.022   2.747   6.953 -2.3558 -1.7962  1.1556
 4844SOL     OW15430   1.294   5.239   5.164  0.3061  0.6689  0.2667
 4844SOL    HW115431   1.380   5.286   5.184 -0.8077  2.2040  1.7971
 4844SOL    HW215432   1.251   5.280   5.084 -0.4662  2.1322  1.3632
 4845SOL     OW15433   6.601   4.693   5.602 -0.3119 -0.0919 -0.6113
 4845SOL    HW115434   6.616   4.688   5.503  3.7859 -0.3918 -0.1446
 4845SOL    HW215435   6.559   4.608   5.634 -0.4331 -0.5555 -1.9532
 4846SOL     OW15436   5.960   2.176   4.270 -0.1138  0.3739 -0.5005
 4846SOL    HW115437   5.931   2.265   4.305  1.2771  0.9015 -0.6068
 4846SOL    HW215438   5.894   2.143   4.202 -2.4499 -0.2998  1.9515
 4847SOL     OW15439   0.355   1.362   6.132 -0.2566 -0.1477  0.0433
 4847SOL    HW115440   0.451   1.366   6.163 -0.3626  2.4288  0.1982
 4847SOL    HW215441   0.297   1.407   6.199 -1.3267  0.0980 -1.0288
 4848SOL     OW15442   5.723   1.487   3.210 -0.4546 -0.3533 -0.2587
 4848SOL    HW115443   5.756   1.438   3.129  0.0748  1.5439 -1.2340
 4848SOL    HW215444   5.796   1.544   3.247 -0.5715 -1.4377  1.8198
 4849SOL     OW15445   2.018   6.287   0.514  0.0905 -0.0932 -0.3085
 4849SOL    HW115446   1.969   6.233   0.582  0.1067  1.1339  0.7132
 4849SOL    HW215447   1.971   6.279   0.426 -0.2033 -1.3285 -0.0551
 4850SOL     OW15448   2.303   6.572   1.711 -0.1677  0.2371 -0.3567
 4850SOL    HW115449   2.276   6.487   1.667 -1.6186  0.7631 -0.5489
 4850SOL    HW215450   2.382   6.611   1.664 -1.1730  0.3623 -2.0154
 4851SOL     OW15451   5.787   5.071   6.579  0.0543  0.2166 -0.1478
 4851SOL    HW115452   5.746   5.001   6.521 -0.6988 -0.1274  0.7814
 4851SOL    HW215453   5.792   5.158   6.529  0.5808 -0.3712 -1.1492
 4852SOL     OW15454   3.209   3.496   5.912 -0.8914 -0.3450 -0.3578
 4852SOL    HW115455   3.303   3.471   5.931 -1.5874 -0.7721  3.0443
 4852SOL    HW215456   3.207   3.568   5.842  1.9600  0.1114 -0.0640
 4853SOL     OW15457   4.765   0.339   3.881  0.5431  0.3606  0.1518
 4853SOL    HW115458   4.851   0.375   3.845 -0.3445  2.1713 -0.2761
 4853SOL    HW215459   4.740   0.388   3.964  0.6643 -1.2261  1.1772
 4854SOL     OW15460   3.243   0.254   2.784 -0.3901  0.0140 -0.4741
 4854SOL    HW115461   3.260   0.235   2.881 -0.7451  0.7104 -0.2737
 4854SOL    HW215462   3.284   0.181   2.729 -0.3045 -0.4626  0.2033
 4855SOL     OW15463   3.869   5.498   4.237  0.0208  0.7800 -0.0082
 4855SOL    HW115464   3.781   5.544   4.252 -0.2524  0.2044  0.1736
 4855SOL    HW215465   3.917   5.489   4.324 -0.2948 -0.0092  0.0908
 4856SOL     OW15466   0.689   4.828   4.434 -0.4559 -0.2164 -0.0302
 4856SOL    HW115467   0.653   4.735   4.423 -0.6850 -0.0320 -0.8941
 4856SOL    HW215468   0.781   4.833   4.395  0.5736 -0.6809  2.1590
 4857SOL     OW15469   3.451   1.985   3.583 -0.0603 -0.1210  1.4475
 4857SOL    HW115470   3.450   2.036   3.669  0.4782 -1.6843  2.4272
 4857SOL    HW215471   3.507   1.903   3.594  0.4530 -0.0741 -0.5818
 4858SOL     OW15472   1.393   4.366   4.446 -0.4522 -1.0376  0.0766
 4858SOL    HW115473   1.407   4.431   4.521  0.5138 -0.1474 -0.8286
 4858SOL    HW215474   1.368   4.277   4.483  0.5683 -0.7749  1.5063
 4859SOL     OW15475   0.357   4.870   1.841 -0.3949 -0.0887  0.4722
 4859SOL    HW115476   0.392   4.851   1.933  1.6612 -0.4722 -0.3361
 4859SOL    HW215477   0.416   4.826   1.773 -0.3404  2.2499 -1.1348
 4860SOL     OW15478   3.791   3.772   5.507  0.1211 -0.5661 -0.0406
 4860SOL    HW115479   3.852   3.776   5.428 -1.0162 -1.4977 -0.9875
 4860SOL    HW215480   3.735   3.855   5.509 -0.8591 -1.1730 -1.0762
 4861SOL     OW15481   3.503   5.171   5.014 -0.0763 -0.0123  0.1271
 4861SOL    HW115482   3.547   5.093   4.969  0.7718  0.9539 -0.7702
 4861SOL    HW215483   3.410   5.181   4.979 -0.7301 -1.4784  1.3228
 4862SOL     OW15484   1.851   3.518   2.989  0.1597 -1.1179  0.4549
 4862SOL    HW115485   1.874   3.462   3.068  0.4586 -1.4080  0.1637
 4862SOL    HW215486   1.934   3.545   2.941  0.0336 -0.2759  0.6873
 4863SOL     OW15487   5.457   1.387   2.099  0.3842 -0.1840 -0.0107
 4863SOL    HW115488   5.429   1.395   2.003 -0.0873 -1.0011  0.0452
 4863SOL    HW215489   5.544   1.434   2.113  1.2042 -1.3059 -1.1742
 4864SOL     OW15490   2.721   1.945   0.864 -0.6876  0.6879  1.1874
 4864SOL    HW115491   2.821   1.947   0.865 -0.6588 -0.1204  0.7944
 4864SOL    HW215492   2.687   2.030   0.825 -0.0926  0.1390 -0.6317
 4865SOL     OW15493   3.879   2.098   4.560  0.3917  0.0306 -0.5641
 4865SOL    HW115494   3.941   2.167   4.523 -0.7239  0.8502 -0.9389
 4865SOL    HW215495   3.932   2.019   4.592  1.6690  0.9476 -0.3523
 4866SOL     OW15496   2.563   5.474   2.050  0.4126  0.1954  0.2297
 4866SOL    HW115497   2.473   5.463   2.009  0.5195  0.2988 -0.0327
 4866SOL    HW215498   2.627   5.407   2.009  1.0632  1.7086 -1.3583
 4867SOL     OW15499   5.746   4.110   0.776 -0.4493 -0.4286  0.3134
 4867SOL    HW115500   5.697   4.176   0.719  0.3419 -0.4513 -0.4050
 4867SOL    HW215501   5.680   4.054   0.826 -1.1724  1.4345  1.6000
 4868SOL     OW15502   3.348   5.186   2.534  0.6675  0.2827  0.1440
 4868SOL    HW115503   3.334   5.100   2.582  0.5719  1.1827  1.8066
 4868SOL    HW215504   3.302   5.260   2.583  0.1887  1.2040 -1.6033
 4869SOL     OW15505   5.977   1.638   1.708 -0.2725 -0.3312 -0.2214
 4869SOL    HW115506   5.971   1.659   1.611 -1.7780 -2.7854 -0.7541
 4869SOL    HW215507   5.898   1.675   1.756  0.1639  0.3598 -0.0216
 4870SOL     OW15508   6.198   2.070   6.729 -0.0768 -0.2074 -0.5316
 4870SOL    HW115509   6.137   1.991   6.734  0.7721 -0.8395  0.0106
 4870SOL    HW215510   6.163   2.134   6.660 -1.0578 -0.7996 -0.6088
 4871SOL     OW15511   1.434   1.859   3.533 -0.0805 -0.4920 -0.0057
 4871SOL    HW115512   1.387   1.866   3.622  1.0040 -0.7064  0.6057
 4871SOL    HW215513   1.520   1.909   3.537 -0.2609 -0.0720 -1.1215
 4872SOL     OW15514   1.014   3.607   3.224 -0.3108  0.1630  0.4725
 4872SOL    HW115515   1.063   3.588   3.308  1.0203  0.6955 -0.1495
 4872SOL    HW215516   0.951   3.683   3.238  0.8048  1.0733  0.6900
 4873SOL     OW15517   1.616   6.918   6.924 -0.4677  0.4941  0.3955
 4873SOL    HW115518   1.636   6.842   6.985 -1.4540 -0.7484 -0.7609
 4873SOL    HW215519   1.702   6.959   6.893  0.2740 -2.0397 -1.2098
 4874SOL     OW15520   6.978   2.776   6.072 -0.4208  0.1480  0.2402
 4874SOL    HW115521   6.966   2.865   6.116 -1.9120 -0.0135  0.1946
 4874SOL    HW215522   7.029   2.716   6.133 -0.0122  0.8109  0.5621
 4875SOL     OW15523   0.045   2.831   1.348  0.1581 -0.2448 -0.3424
 4875SOL    HW115524   0.097   2.839   1.262 -0.9432  0.4001 -0.9811
 4875SOL    HW215525   0.099   2.782   1.415  1.7805  0.7766 -0.8280
 4876SOL     OW15526   0.472   0.574   6.389  0.2298 -0.1614 -0.2550
 4876SOL    HW115527   0.513   0.485   6.367 -0.1784 -0.3521 -0.2660
 4876SOL    HW215528   0.486   0.637   6.313  3.3145  0.8057  0.9949
 4877SOL     OW15529   4.818   2.202   2.430  0.2903  0.1232  0.4221
 4877SOL    HW115530   4.842   2.287   2.383  1.9113 -0.5947 -0.1293
 4877SOL    HW215531   4.751   2.152   2.375 -1.1472  1.2937  1.0498
 4878SOL     OW15532   1.519   3.662   4.160 -0.2018  0.1483 -0.3423
 4878SOL    HW115533   1.564   3.579   4.129  1.8360  0.8444  0.5605
 4878SOL    HW215534   1.509   3.659   4.260 -0.4381  0.8226 -0.3379
 4879SOL     OW15535   3.480   5.980   1.676 -0.1415 -0.3012  0.3483
 4879SOL    HW115536   3.409   5.947   1.614  1.3580  1.2595 -2.3302
 4879SOL    HW215537   3.443   6.054   1.733 -0.2898  1.8501 -2.3575
 4880SOL     OW15538   6.124   2.306   6.596 -0.0846  0.3932  0.5363
 4880SOL    HW115539   6.150   2.373   6.665  0.4513  2.7891 -1.8200
 4880SOL    HW215540   6.024   2.303   6.588 -0.2719 -1.4108  2.7030
 4881SOL     OW15541   3.823   6.405   6.143  0.8606  0.4541 -1.2723
 4881SOL    HW115542   3.750   6.428   6.078  0.0340 -0.6790 -0.7737
 4881SOL    HW215543   3.807   6.314   6.181  1.7646  0.7718 -0.0618
 4882SOL     OW15544   6.580   0.401   6.030 -0.0952  0.5122  0.4199
 4882SOL    HW115545   6.518   0.364   5.961  0.7379  0.4691 -0.3244
 4882SOL    HW215546   6.640   0.328   6.064  4.1502  1.5160 -3.7383
 4883SOL     OW15547   5.898   6.030   0.224 -0.2571  0.2383  0.2938
 4883SOL    HW115548   5.844   6.075   0.295 -0.8577 -0.2863  0.1784
 4883SOL    HW215549   5.994   6.055   0.234 -0.7376  2.9253 -0.7742
 4884SOL     OW15550   4.013   5.913   3.467 -0.3578 -0.2475  0.0858
 4884SOL    HW115551   3.953   5.930   3.389  1.1396  1.0706 -0.8146
 4884SOL    HW215552   4.020   5.814   3.482 -0.4836 -0.5464 -1.6156
 4885SOL     OW15553   0.182   1.703   3.005 -0.5971 -0.4047  0.1602
 4885SOL    HW115554   0.279   1.684   3.023 -0.9237 -1.1882  1.2015
 4885SOL    HW215555   0.132   1.616   2.995 -0.9725 -0.0171 -1.7633
 4886SOL     OW15556   1.015   1.982   6.561 -0.6947 -0.5535  0.7473
 4886SOL    HW115557   1.031   1.948   6.469  0.6747 -0.6478  0.9971
 4886SOL    HW215558   1.028   2.081   6.563 -1.4316 -0.4490  0.7039
 4887SOL     OW15559   0.664   3.069   6.444  0.2728  0.3302 -0.1526
 4887SOL    HW115560   0.674   2.999   6.515 -0.4445 -0.1147 -0.4847
 4887SOL    HW215561   0.590   3.132   6.471  1.0548  1.0939  0.2471
 4888SOL     OW15562   4.679   5.804   1.997 -0.1581 -0.5083 -0.7019
 4888SOL    HW115563   4.732   5.719   2.001  0.4140 -0.1550 -0.6001
 4888SOL    HW215564   4.742   5.882   1.995 -0.6838 -0.0585 -0.0536
 4889SOL     OW15565   0.757   4.030   6.622  0.6050 -0.0344 -0.1453
 4889SOL    HW115566   0.735   4.038   6.719  1.3500  0.2906 -0.0029
 4889SOL    HW215567   0.678   3.990   6.574  0.8655 -1.8782  0.8688
 4890SOL     OW15568   0.937   1.327   4.629  0.1319 -0.7841 -0.2608
 4890SOL    HW115569   0.967   1.420   4.607  1.5509 -1.5830 -2.0145
 4890SOL    HW215570   0.847   1.311   4.588 -0.1236 -0.1904  0.0543
 4891SOL     OW15571   5.711   5.134   0.988 -0.1620  0.2149  0.0119
 4891SOL    HW115572   5.778   5.093   0.925 -0.6680  0.0006 -0.3965
 4891SOL    HW215573   5.622   5.092   0.973 -0.7326  1.5410 -0.5079
 4892SOL     OW15574   2.658   5.102   2.304  0.1272 -0.4927  0.4858
 4892SOL    HW115575   2.708   5.124   2.389 -0.4946  0.1099  0.7023
 4892SOL    HW215576   2.723   5.071   2.235  0.5719 -1.6030  1.3789
 4893SOL     OW15577   4.992   3.829   6.997  0.1432 -0.1640 -0.7678
 4893SOL    HW115578   4.905   3.878   7.006 -0.1574 -1.0539  2.0851
 4893SOL    HW215579   4.974   3.733   6.975  0.3048 -0.5427  0.6544
 4894SOL     OW15580   6.276   6.302   6.109  0.3076 -0.1677  0.1237
 4894SOL    HW115581   6.275   6.286   6.010 -1.1984 -0.4467  0.1648
 4894SOL    HW215582   6.192   6.347   6.137  0.9694  0.4345  1.2146
 4895SOL     OW15583   6.364   2.239   0.913 -0.3936  0.0633  0.1342
 4895SOL    HW115584   6.451   2.257   0.868 -1.5331  1.6410 -1.6264
 4895SOL    HW215585   6.303   2.317   0.900 -2.6859 -1.6645 -0.2728
 4896SOL     OW15586   5.992   1.791   5.508  0.3650  0.4872 -0.3364
 4896SOL    HW115587   6.077   1.777   5.458  1.1072  0.1878  0.9640
 4896SOL    HW215588   5.928   1.718   5.486 -0.0060  1.3031 -2.1695
 4897SOL     OW15589   2.748   3.254   0.042 -0.1636 -0.1333  0.0627
 4897SOL    HW115590   2.654   3.284   0.025  0.6809  1.8046 -1.5441
 4897SOL    HW215591   2.791   3.230  -0.044  1.1367  0.0542  0.6464
 4898SOL     OW15592   5.163   2.629   3.412 -0.2903  0.6755 -1.0555
 4898SOL    HW115593   5.095   2.618   3.484 -0.0985  0.8552 -0.8410
 4898SOL    HW215594   5.189   2.726   3.406  0.5236  0.4973 -0.5937
 4899SOL     OW15595   1.263   4.141   5.344  0.3469  0.1982 -0.1844
 4899SOL    HW115596   1.168   4.126   5.370  0.9318 -2.3496  0.7656
 4899SOL    HW215597   1.307   4.053   5.324  2.7246  1.2022  0.2733
 4900SOL     OW15598   5.858   0.247   5.278  0.1252 -0.7158  0.3503
 4900SOL    HW115599   5.856   0.347   5.281  0.3309 -0.6317 -1.3258
 4900SOL    HW215600   5.952   0.216   5.262  0.3095 -1.2612  2.2669
 4901SOL     OW15601   0.710   4.988   0.946  0.4977  0.6049  0.3806
 4901SOL    HW115602   0.668   4.908   0.988 -1.3594  1.3765  0.0789
 4901SOL    HW215603   0.753   5.044   1.016  1.2037 -0.2783  0.6758
 4902SOL     OW15604   3.620   4.750   7.005 -0.2519  0.2050 -0.4277
 4902SOL    HW115605   3.610   4.843   7.038 -0.1050 -0.1683  0.7033
 4902SOL    HW215606   3.537   4.698   7.027 -0.7151  0.2812 -1.8514
 4903SOL     OW15607   5.202   4.641   6.824 -0.1827  0.1490  0.2228
 4903SOL    HW115608   5.263   4.573   6.865 -0.2699  0.0976  0.2651
 4903SOL    HW215609   5.132   4.668   6.891 -1.3262 -1.1319 -0.4122
 4904SOL     OW15610   2.005   2.213   4.153 -0.5367 -0.0728 -0.4674
 4904SOL    HW115611   2.057   2.276   4.094 -0.7636  0.0047 -0.5860
 4904SOL    HW215612   1.993   2.255   4.243  0.9916 -0.7586  0.0844
 4905SOL     OW15613   6.238   3.798   3.098  0.0170  0.4784  0.6889
 4905SOL    HW115614   6.162   3.731   3.097  1.1188 -0.9084  2.6137
 4905SOL    HW215615   6.322   3.752   3.070  1.0090  0.7127  3.1049
 4906SOL     OW15616   5.735   6.521   1.827  0.3812  0.3392  0.8135
 4906SOL    HW115617   5.681   6.603   1.846  1.1500  1.0015  0.1923
 4906SOL    HW215618   5.690   6.442   1.867 -2.9167  0.2786 -2.4423
 4907SOL     OW15619   3.520   1.538   1.269 -0.0320 -0.0549 -1.0719
 4907SOL    HW115620   3.537   1.504   1.361 -0.8829 -0.4864 -1.0598
 4907SOL    HW215621   3.480   1.630   1.274  0.7879  0.3069 -1.0499
 4908SOL     OW15622   5.094   4.689   5.304  0.5448  0.3989 -0.4481
 4908SOL    HW115623   5.125   4.604   5.260 -1.1888 -1.3714  1.5358
 4908SOL    HW215624   5.160   4.762   5.286  3.5360 -2.0148 -0.0270
 4909SOL     OW15625   6.435   0.242   6.600 -0.0069 -0.1812  0.2317
 4909SOL    HW115626   6.424   0.151   6.639 -0.9959  0.7878  2.4087
 4909SOL    HW215627   6.350   0.294   6.613  0.3434  0.8848 -1.4580
 4910SOL     OW15628   6.818   4.743   6.345  0.1951  0.0866  1.1343
 4910SOL    HW115629   6.769   4.703   6.268 -2.4192 -0.6932  3.0622
 4910SOL    HW215630   6.848   4.835   6.321 -2.5849  0.7816 -0.0850
 4911SOL     OW15631   6.705   2.785   6.037 -0.1301 -0.3479  0.2320
 4911SOL    HW115632   6.803   2.788   6.057 -0.2833  1.4989  0.9321
 4911SOL    HW215633   6.654   2.771   6.122 -0.4794 -2.7866 -0.2975
 4912SOL     OW15634   6.301   2.036   0.507 -0.1311  0.0278  0.0848
 4912SOL    HW115635   6.319   2.042   0.408  2.9403  0.5124  0.5680
 4912SOL    HW215636   6.246   2.114   0.536 -1.0713 -0.1192 -1.2222
 4913SOL     OW15637   3.474   3.470   2.324  0.3235 -0.4598  0.3444
 4913SOL    HW115638   3.484   3.570   2.326 -0.6862 -0.2736 -1.6906
 4913SOL    HW215639   3.380   3.446   2.302  1.0608 -1.8132 -1.5577
 4914SOL     OW15640   2.383   6.953   4.265  0.8754 -0.5388 -0.3110
 4914SOL    HW115641   2.318   6.928   4.192 -2.3787  2.2985  1.3011
 4914SOL    HW215642   2.459   7.004   4.225  0.0898 -0.5387 -1.9017
 4915SOL     OW15643   3.772   6.465   3.901 -0.1688  0.4249 -0.0908
 4915SOL    HW115644   3.677   6.492   3.918 -0.7063 -1.9377  1.0866
 4915SOL    HW215645   3.832   6.542   3.920 -1.6864  1.3246  1.3205
 4916SOL     OW15646   2.064   1.774   1.170  0.2323 -0.0605  0.0513
 4916SOL    HW115647   2.134   1.763   1.099  0.6037  1.5785  0.1332
 4916SOL    HW215648   2.099   1.740   1.257  1.2591  1.3990  0.2565
 4917SOL     OW15649   1.595   5.305   5.393 -0.0803  0.1005 -0.5705
 4917SOL    HW115650   1.545   5.355   5.464 -2.2540  0.8156 -2.4717
 4917SOL    HW215651   1.613   5.212   5.425 -0.0769  0.6900  1.2729
 4918SOL     OW15652   3.149   6.197   3.841 -0.5454 -0.2108 -0.1337
 4918SOL    HW115653   3.205   6.158   3.768 -0.9723 -0.0274 -0.5569
 4918SOL    HW215654   3.056   6.212   3.809  0.0418  3.0187 -0.6609
 4919SOL     OW15655   1.032   1.825   6.767 -0.1688  0.2404 -0.0439
 4919SOL    HW115656   1.033   1.870   6.678  0.4884  3.0624  1.2964
 4919SOL    HW215657   1.066   1.887   6.837  1.7931 -2.7120  1.8713
 4920SOL     OW15658   4.283   0.569   4.293  0.1004 -0.1371  0.2824
 4920SOL    HW115659   4.263   0.635   4.221  0.1332 -1.3484 -0.8730
 4920SOL    HW215660   4.358   0.604   4.350 -0.8671  1.4693  0.6306
 4921SOL     OW15661   6.547   4.586   1.635 -0.2214  0.0952 -0.0820
 4921SOL    HW115662   6.548   4.505   1.576 -1.2325  0.4723 -0.6442
 4921SOL    HW215663   6.511   4.663   1.584 -1.8491  0.2591  1.2531
 4922SOL     OW15664   4.034   3.930   0.362 -0.2357 -0.3745  0.5131
 4922SOL    HW115665   4.007   3.851   0.418 -0.4616 -0.1859  0.6763
 4922SOL    HW215666   4.052   3.900   0.268  1.7947 -0.9667  1.0601
 4923SOL     OW15667   4.481   2.050   6.145  0.1384 -0.0059  0.3778
 4923SOL    HW115668   4.429   1.986   6.202  0.6494 -0.5528  0.2426
 4923SOL    HW215669   4.446   2.143   6.158  0.6410 -0.0115  2.0743
 4924SOL     OW15670   2.619   5.176   0.453 -0.3759  0.3850  0.0787
 4924SOL    HW115671   2.621   5.079   0.477  1.4637  0.3874  0.1225
 4924SOL    HW215672   2.534   5.217   0.486 -0.9842 -1.1075  0.4570
 4925SOL     OW15673   3.552   6.912   5.314 -0.7586 -0.3840 -0.0188
 4925SOL    HW115674   3.595   7.000   5.296 -0.8749 -0.4608 -0.7267
 4925SOL    HW215675   3.575   6.881   5.406 -0.3536  0.1733  0.0712
 4926SOL     OW15676   5.827   3.800   0.722  0.3375 -0.4077 -0.4558
 4926SOL    HW115677   5.757   3.862   0.758 -0.7047 -2.2596  0.8330
 4926SOL    HW215678   5.783   3.730   0.665  1.3360 -0.7702 -0.7966
 4927SOL     OW15679   3.731   3.552   2.181  0.7580  0.2276  0.3764
 4927SOL    HW115680   3.741   3.617   2.106  0.8721 -1.1584 -0.8649
 4927SOL    HW215681   3.661   3.584   2.244  0.5430  1.3638 -0.4123
 4928SOL     OW15682   0.293   2.617   6.888  0.2187 -0.1221  0.5651
 4928SOL    HW115683   0.292   2.656   6.980  0.1162  3.5232 -0.8021
 4928SOL    HW215684   0.386   2.619   6.852  0.2844 -1.6673  0.5955
 4929SOL     OW15685   1.029   4.072   3.185  0.2015  0.1547  0.9267
 4929SOL    HW115686   1.059   4.142   3.119  1.2499  0.8094  2.0565
 4929SOL    HW215687   1.030   4.110   3.277 -0.5913 -0.9501  1.4179
 4930SOL     OW15688   0.303   2.185   1.569  0.3534 -0.3841 -0.7307
 4930SOL    HW115689   0.219   2.197   1.516 -1.1616 -2.6408  1.0140
 4930SOL    HW215690   0.349   2.274   1.579 -0.5850  0.5302 -3.5880
 4931SOL     OW15691   3.658   6.694   3.209  0.0387 -0.6535  0.2160
 4931SOL    HW115692   3.572   6.646   3.192  1.5086 -2.9160 -1.5595
 4931SOL    HW215693   3.679   6.754   3.132  0.1249 -0.2304  0.5654
 4932SOL     OW15694   3.063   1.636   0.775 -0.0972 -0.0439  0.3441
 4932SOL    HW115695   3.089   1.613   0.681 -0.5771  0.5940  0.0417
 4932SOL    HW215696   2.974   1.682   0.774 -0.1586 -0.1349  1.1263
 4933SOL     OW15697   1.082   1.430   4.919  0.1538  0.2536 -0.8591
 4933SOL    HW115698   1.097   1.338   4.881 -1.9519  0.0546 -1.3695
 4933SOL    HW215699   1.168   1.481   4.920  0.6208 -0.1279 -4.9486
 4934SOL     OW15700   1.931   6.909   5.279 -0.4315  0.4247  0.1724
 4934SOL    HW115701   1.906   7.006   5.274  0.2332  0.6032  0.2174
 4934SOL    HW215702   1.855   6.857   5.318 -0.4482  1.0735  1.0387
 4935SOL     OW15703   1.996   3.031   1.253  0.6000  0.0141 -0.7843
 4935SOL    HW115704   2.032   2.943   1.283  0.1198 -0.1696 -0.7307
 4935SOL    HW215705   2.010   3.099   1.325  1.2631  0.0620 -0.9565
 4936SOL     OW15706   5.781   3.948   1.781  0.2903  0.3153  0.2821
 4936SOL    HW115707   5.873   3.914   1.762  0.1222 -0.0489  0.1048
 4936SOL    HW215708   5.718   3.871   1.789 -0.5268  0.6299 -2.3230
 4937SOL     OW15709   2.018   5.006   4.693 -0.4048 -0.0354 -0.5773
 4937SOL    HW115710   1.944   4.986   4.757  1.0673 -1.5089  0.7559
 4937SOL    HW215711   2.008   4.949   4.611 -0.3367 -0.8397 -0.0426
 4938SOL     OW15712   2.023   4.354   0.568 -0.3355  0.3051  0.3474
 4938SOL    HW115713   1.970   4.420   0.514 -0.4169  0.1777  0.2693
 4938SOL    HW215714   1.969   4.270   0.579  0.4500 -0.4257 -1.0707
 4939SOL     OW15715   2.116   0.966   3.600 -0.8138  0.1062 -0.2209
 4939SOL    HW115716   2.158   0.973   3.509  1.6041  1.7354  0.9240
 4939SOL    HW215717   2.021   0.999   3.595 -0.4942  0.8649 -1.9992
 4940SOL     OW15718   1.703   1.830   3.693  0.1402  0.6677  0.3310
 4940SOL    HW115719   1.768   1.905   3.700  2.2774 -1.0110 -0.6050
 4940SOL    HW215720   1.716   1.782   3.607 -1.7731 -0.2645  0.5090
 4941SOL     OW15721   3.403   1.119   0.476 -0.3315 -0.4337  0.0347
 4941SOL    HW115722   3.326   1.174   0.443 -0.5544 -1.1155 -0.6009
 4941SOL    HW215723   3.489   1.167   0.457 -0.4912 -0.5510 -1.0544
 4942SOL     OW15724   0.578   0.305   3.189  0.1335 -0.2936  0.4103
 4942SOL    HW115725   0.591   0.304   3.288 -1.1987 -1.5840  0.6093
 4942SOL    HW215726   0.553   0.397   3.159 -0.3040 -0.0787  1.3993
 4943SOL     OW15727   4.579   2.428   0.236 -0.0840  0.0501 -0.4463
 4943SOL    HW115728   4.569   2.455   0.140 -0.5585  1.3080 -0.0640
 4943SOL    HW215729   4.515   2.354   0.257 -0.8328  0.5852 -0.8042
 4944SOL     OW15730   1.874   4.117   0.543  0.0123  0.0615 -0.5190
 4944SOL    HW115731   1.801   4.155   0.486 -0.2350 -1.2388 -1.1120
 4944SOL    HW215732   1.836   4.052   0.608  0.7433 -1.6803 -1.7505
 4945SOL     OW15733   0.650   2.121   0.437 -0.1270  0.8220  0.6731
 4945SOL    HW115734   0.715   2.178   0.488 -0.6464  5.1708 -2.9468
 4945SOL    HW215735   0.699   2.072   0.365 -0.1370 -1.0384  1.8682
 4946SOL     OW15736   2.056   0.406   6.498 -0.0318 -0.1171 -0.6207
 4946SOL    HW115737   2.074   0.430   6.594 -0.6869  0.3523 -0.6062
 4946SOL    HW215738   1.963   0.434   6.474  0.7872  1.5823 -1.9664
 4947SOL     OW15739   0.400   0.229   0.153 -0.3265 -0.6205 -0.4700
 4947SOL    HW115740   0.388   0.165   0.078 -0.7209 -0.3003 -0.6835
 4947SOL    HW215741   0.319   0.228   0.211 -1.0235  0.8227 -1.3587
 4948SOL     OW15742   0.986   4.531   1.526 -0.0008  0.1008 -0.4519
 4948SOL    HW115743   1.062   4.467   1.540 -0.3128 -0.3394 -0.7442
 4948SOL    HW215744   0.922   4.522   1.602  0.2073  0.4306 -0.2353
 4949SOL     OW15745   6.325   4.903   3.253  0.2144 -0.3065 -0.3728
 4949SOL    HW115746   6.375   4.892   3.167 -3.4959  0.7590 -2.9563
 4949SOL    HW215747   6.359   4.983   3.302  1.2690  0.1581 -1.7885
 4950SOL     OW15748   3.780   3.305   5.045  0.3820  0.7132 -0.2176
 4950SOL    HW115749   3.778   3.363   4.963 -0.2793  1.1740  0.1121
 4950SOL    HW215750   3.821   3.357   5.120  0.1449  0.6174 -0.0225
 4951SOL     OW15751   3.900   5.114   2.671  0.4956 -0.2396  0.8364
 4951SOL    HW115752   3.978   5.146   2.725  0.1417 -0.8000  1.6915
 4951SOL    HW215753   3.864   5.030   2.711  1.0036 -1.3740 -0.9840
 4952SOL     OW15754   6.996   0.333   0.043  0.2980 -0.6546 -0.1534
 4952SOL    HW115755   7.016   0.279   0.125  0.5848 -1.7688 -0.9443
 4952SOL    HW215756   6.944   0.414   0.069  0.2881 -1.0470  1.1190
 4953SOL     OW15757   1.814   0.112   5.909  0.3603 -0.2414  0.5407
 4953SOL    HW115758   1.806   0.161   5.995  0.3835 -2.4321  1.8779
 4953SOL    HW215759   1.726   0.072   5.885  0.2497  0.7119 -0.7106
 4954SOL     OW15760   4.284   4.168   6.696 -0.9640 -0.3680  0.2927
 4954SOL    HW115761   4.348   4.093   6.685  0.4787  0.8308  0.1520
 4954SOL    HW215762   4.190   4.133   6.698 -0.3960 -2.0484 -0.8156
 4955SOL     OW15763   4.444   4.912   6.671 -0.1328  0.0144  0.1762
 4955SOL    HW115764   4.412   4.880   6.582  0.4846  1.9701 -0.7857
 4955SOL    HW215765   4.380   4.881   6.742 -2.3334  0.9633 -1.2968
 4956SOL     OW15766   2.301   6.292   3.459 -0.1035 -0.3827  0.2336
 4956SOL    HW115767   2.375   6.325   3.400  0.5025 -1.8581  0.1066
 4956SOL    HW215768   2.251   6.369   3.497  0.1039  0.6293 -1.4332
 4957SOL     OW15769   0.774   6.444   1.103 -0.2314  0.4438  0.6221
 4957SOL    HW115770   0.807   6.513   1.039 -2.9065  2.4088  1.1805
 4957SOL    HW215771   0.773   6.355   1.059  0.7312  1.2148 -1.0529
 4958SOL     OW15772   3.729   4.947   2.355  0.2199 -0.1916  0.0869
 4958SOL    HW115773   3.793   4.891   2.409  0.4128  0.7147  0.8221
 4958SOL    HW215774   3.743   5.044   2.377 -0.7924  0.0802 -0.4204
 4959SOL     OW15775   0.536   0.850   4.317  0.0727  0.5276  0.0573
 4959SOL    HW115776   0.437   0.834   4.319 -0.0212  0.9520 -0.6969
 4959SOL    HW215777   0.566   0.855   4.222  0.6258  1.5283  0.2719
 4960SOL     OW15778   6.643   3.430   4.279 -0.3905  0.2403  0.0429
 4960SOL    HW115779   6.708   3.361   4.248  0.0132  0.7990 -0.3753
 4960SOL    HW215780   6.678   3.473   4.362 -0.5215  0.1136  0.1633
 4961SOL     OW15781   3.233   3.402   2.229 -0.5826  0.1829  0.0830
 4961SOL    HW115782   3.224   3.464   2.151  0.5057 -0.0332 -0.2422
 4961SOL    HW215783   3.253   3.310   2.195 -0.8058 -0.0592  0.6008
 4962SOL     OW15784   1.963   2.375   0.911  0.1134 -0.5434 -0.0452
 4962SOL    HW115785   1.896   2.302   0.900  0.7488 -0.9520 -1.5422
 4962SOL    HW215786   1.953   2.442   0.837  0.9313 -0.2706  0.0707
 4963SOL     OW15787   1.553   4.330   7.005  0.5638  0.6005  0.2999
 4963SOL    HW115788   1.587   4.364   6.917  0.3739  0.8722  0.3292
 4963SOL    HW215789   1.616   4.260   7.041  0.5063  0.3051 -0.1729
 4964SOL     OW15790   1.325   5.515   2.485  0.6670  0.3142  0.3041
 4964SOL    HW115791   1.267   5.472   2.415  0.4679 -0.2921  0.8275
 4964SOL    HW215792   1.268   5.543   2.562  1.0041  0.1843  0.6018
 4965SOL     OW15793   2.477   6.093   3.127 -0.1935 -0.1409 -0.5909
 4965SOL    HW115794   2.418   6.167   3.092 -1.7238 -0.3989  1.2788
 4965SOL    HW215795   2.425   6.037   3.191  1.8400 -1.0036  0.3808
 4966SOL     OW15796   3.586   0.228   6.858 -0.3841  0.3762  0.2200
 4966SOL    HW115797   3.498   0.249   6.814 -0.5987 -1.7217 -0.4871
 4966SOL    HW215798   3.656   0.292   6.825 -0.8209 -0.2907 -2.2631
 4967SOL     OW15799   4.723   5.475   2.663 -0.0123 -1.0453  0.2352
 4967SOL    HW115800   4.816   5.511   2.653 -0.5278  0.1049 -0.6164
 4967SOL    HW215801   4.678   5.474   2.574 -0.7510 -1.7955  0.6069
 4968SOL     OW15802   6.762   3.410   5.632  0.1854 -0.0798 -0.2748
 4968SOL    HW115803   6.705   3.376   5.557  2.0045 -0.5128 -1.5155
 4968SOL    HW215804   6.749   3.508   5.642 -0.3587 -0.0837 -0.9078
 4969SOL     OW15805   0.639   4.807   3.884  0.3577  0.0115  0.0360
 4969SOL    HW115806   0.676   4.833   3.973  0.5235 -0.9374  0.2554
 4969SOL    HW215807   0.541   4.824   3.882 -0.0931 -2.0456  1.2460
 4970SOL     OW15808   2.819   0.253   1.673  0.1149 -0.0595 -0.1956
 4970SOL    HW115809   2.896   0.291   1.724 -0.2007  0.3146  0.0117
 4970SOL    HW215810   2.828   0.154   1.669  0.8596  0.0131 -0.5948
 4971SOL     OW15811   6.731   6.349   0.332 -0.3824  0.2190 -0.1038
 4971SOL    HW115812   6.811   6.293   0.314 -1.7124 -1.7802 -0.0434
 4971SOL    HW215813   6.648   6.293   0.328 -1.6388  1.7572  1.9048
 4972SOL     OW15814   6.282   4.682   1.499  0.0381 -0.3853  0.3288
 4972SOL    HW115815   6.296   4.627   1.417  0.9810 -1.4546  1.1787
 4972SOL    HW215816   6.209   4.642   1.554 -1.1840  0.8049 -0.3505
 4973SOL     OW15817   3.979   2.529   0.516 -0.4789 -0.2923 -0.4830
 4973SOL    HW115818   4.024   2.526   0.427 -0.3243  2.5766 -0.5930
 4973SOL    HW215819   3.880   2.534   0.504 -0.5338 -1.1629 -0.4323
 4974SOL     OW15820   3.470   0.625   5.858  0.1437 -0.6384 -0.1392
 4974SOL    HW115821   3.406   0.664   5.791  0.7446 -0.4815 -0.6273
 4974SOL    HW215822   3.431   0.634   5.950 -0.8943 -1.2694 -0.5031
 4975SOL     OW15823   6.905   4.503   0.524 -0.4869 -0.0591 -0.4639
 4975SOL    HW115824   7.003   4.522   0.519 -0.1577 -1.3483  0.5421
 4975SOL    HW215825   6.856   4.584   0.555  0.5464 -0.0436  1.2078
 4976SOL     OW15826   3.982   1.883   4.760  0.1095  0.4278 -0.0728
 4976SOL    HW115827   3.969   1.785   4.775 -0.4672  0.1168 -2.2349
 4976SOL    HW215828   3.950   1.934   4.840 -1.1296 -1.0736  0.4368
 4977SOL     OW15829   3.139   4.272   5.275  0.2761  0.1294  0.7542
 4977SOL    HW115830   3.065   4.336   5.254  1.2361  1.6269  1.7166
 4977SOL    HW215831   3.168   4.226   5.191 -1.7403 -0.5529  0.3584
 4978SOL     OW15832   4.778   5.327   2.929 -0.4123 -0.4942 -0.1077
 4978SOL    HW115833   4.809   5.412   2.887  2.0290 -0.7381  1.0492
 4978SOL    HW215834   4.796   5.250   2.867 -1.3899 -0.3522 -0.5949
 4979SOL     OW15835   4.444   4.937   5.502  0.4047 -0.0401 -0.6464
 4979SOL    HW115836   4.385   4.958   5.424  0.3789 -2.5360 -1.3848
 4979SOL    HW215837   4.415   4.851   5.543  1.1975  0.6082  1.3834
 4980SOL     OW15838   4.777   1.837   5.240  0.0196  0.4671  0.6991
 4980SOL    HW115839   4.839   1.916   5.246 -1.5797  1.7287  1.2659
 4980SOL    HW215840   4.740   1.818   5.331 -1.2999  0.4877  0.1848
 4981SOL     OW15841   2.930   0.658   3.310 -0.0606 -0.2696  0.3129
 4981SOL    HW115842   2.885   0.716   3.241 -1.1148 -1.8072 -0.3353
 4981SOL    HW215843   2.967   0.716   3.382  2.4082  1.5895 -2.2138
 4982SOL     OW15844   4.602   2.854   6.300  0.0212  0.5395  0.3007
 4982SOL    HW115845   4.643   2.902   6.223  1.4473 -1.1978 -0.1044
 4982SOL    HW215846   4.527   2.797   6.268 -0.0072  0.5482  0.3516
 4983SOL     OW15847   5.245   3.654   4.118  0.4748 -0.0823  0.5115
 4983SOL    HW115848   5.282   3.715   4.189  0.6914  0.3434  0.0372
 4983SOL    HW215849   5.255   3.697   4.029  1.1372 -1.0592  0.1044
 4984SOL     OW15850   4.571   4.609   5.833  0.7014  0.5725  0.0833
 4984SOL    HW115851   4.513   4.631   5.911  0.5603 -0.4227  0.2696
 4984SOL    HW215852   4.646   4.676   5.828  0.9357  0.4242  1.2969
 4985SOL     OW15853   4.053   0.319   2.930  0.2854  0.5649 -0.2414
 4985SOL    HW115854   3.989   0.245   2.951 -1.4117  1.8207 -0.7677
 4985SOL    HW215855   4.110   0.292   2.852  0.2608 -0.4865  0.0789
 4986SOL     OW15856   0.316   6.058   7.016  0.3151 -0.3702 -0.3784
 4986SOL    HW115857   0.323   6.005   7.101 -0.1049 -2.0054 -1.3195
 4986SOL    HW215858   0.389   6.126   7.013  0.0560  0.0459  1.4920
 4987SOL     OW15859   1.941   3.574   2.602  0.0744 -0.4537 -0.1943
 4987SOL    HW115860   1.898   3.586   2.691  1.3318  0.7783  0.2938
 4987SOL    HW215861   2.027   3.625   2.600  0.3761 -0.9733 -1.9037
 4988SOL     OW15862   7.002   3.732   4.140  0.2026  0.3215  0.2031
 4988SOL    HW115863   6.988   3.716   4.238 -1.4224 -2.2551 -0.3398
 4988SOL    HW215864   7.088   3.689   4.112  0.3881  0.5626  0.3997
 4989SOL     OW15865   6.222   6.453   4.541  0.3412  0.1327 -0.0023
 4989SOL    HW115866   6.297   6.491   4.487  1.6399 -0.4691  1.2705
 4989SOL    HW215867   6.170   6.388   4.486  0.6202  0.7336 -0.9866
 4990SOL     OW15868   4.337   1.716   6.062  0.6620  0.0325  0.3010
 4990SOL    HW115869   4.408   1.648   6.042  0.5001  0.0295 -0.2744
 4990SOL    HW215870   4.355   1.757   6.152  0.5044 -1.0911  0.8723
 4991SOL     OW15871   2.554   5.295   4.785  0.5671  0.3822 -0.1085
 4991SOL    HW115872   2.621   5.223   4.766  0.1817  0.2213 -0.9028
 4991SOL    HW215873   2.470   5.254   4.819  0.3426  0.4541 -0.5740
 4992SOL     OW15874   4.025   2.909   6.940 -0.1868  0.3550  0.0670
 4992SOL    HW115875   4.024   2.970   7.019  0.1236  1.1211 -0.5151
 4992SOL    HW215876   3.957   2.938   6.874  0.8494  0.8774 -0.8019
 4993SOL     OW15877   2.148   5.714   3.554  0.5965 -0.3814 -0.6085
 4993SOL    HW115878   2.133   5.803   3.598 -1.0382 -0.9953  0.1419
 4993SOL    HW215879   2.064   5.659   3.560  1.3837 -1.7502 -1.6043
 4994SOL     OW15880   3.469   4.605   5.473 -0.2648  0.2255 -1.0952
 4994SOL    HW115881   3.435   4.521   5.431 -0.1605  0.0985 -0.9218
 4994SOL    HW215882   3.530   4.583   5.549 -1.4419  0.4366 -0.0538
 4995SOL     OW15883   1.788   2.120   6.369  0.4643 -0.4156  0.0397
 4995SOL    HW115884   1.787   2.201   6.428 -3.2615  1.4151 -2.1730
 4995SOL    HW215885   1.854   2.133   6.295  0.6507  0.1322  0.2979
 4996SOL     OW15886   0.504   3.549   3.679 -0.4842 -0.6080  0.4538
 4996SOL    HW115887   0.410   3.565   3.648 -0.1624 -0.5569 -0.5305
 4996SOL    HW215888   0.526   3.452   3.670  0.7625 -0.1449 -2.9815
 4997SOL     OW15889   4.568   0.631   6.441  0.3842 -0.4299 -0.0392
 4997SOL    HW115890   4.548   0.601   6.348 -0.1095  0.3742 -0.2041
 4997SOL    HW215891   4.530   0.567   6.507 -0.2479 -0.4109 -0.3837
 4998SOL     OW15892   1.187   4.165   5.860  0.5254  0.8160  0.3388
 4998SOL    HW115893   1.252   4.241   5.870  1.7659  0.0389 -1.2512
 4998SOL    HW215894   1.199   4.124   5.769 -3.4196  1.7265 -0.7779
 4999SOL     OW15895   0.360   3.019   3.349  0.0421 -0.8475  0.1148
 4999SOL    HW115896   0.276   2.987   3.391  0.3679  1.1481  2.5104
 4999SOL    HW215897   0.439   2.987   3.402  0.5826  0.2134 -0.0144
 5000SOL     OW15898   1.611   5.489   0.671  0.2484  0.1317 -0.2303
 5000SOL    HW115899   1.629   5.543   0.753 -0.0544 -0.3685  0.1718
 5000SOL    HW215900   1.522   5.445   0.679  0.1631  0.1771 -0.8863
 5001SOL     OW15901   2.346   0.780   4.708 -0.0701  0.3436 -0.4275
 5001SOL    HW115902   2.405   0.730   4.772 -0.4785 -0.4577 -0.6580
 5001SOL    HW215903   2.372   0.877   4.707  0.2649  0.2803  0.5806
 5002SOL     OW15904   2.040   4.891   3.414 -0.1172 -0.3014  0.2552
 5002SOL    HW115905   2.081   4.830   3.482  0.5643 -1.3105 -1.0152
 5002SOL    HW215906   1.943   4.867   3.402 -0.3670  0.1955  1.1880
 5003SOL     OW15907   4.391   0.784   1.374 -0.4895  0.6706  0.1489
 5003SOL    HW115908   4.451   0.823   1.304 -0.7057  2.4089  0.8763
 5003SOL    HW215909   4.328   0.854   1.407 -2.7306 -1.0015 -0.3354
 5004SOL     OW15910   4.458   5.789   1.126 -0.2034 -0.0779  0.0170
 5004SOL    HW115911   4.423   5.765   1.216 -0.2757 -1.4204 -0.3467
 5004SOL    HW215912   4.389   5.769   1.056  0.1509  0.1777 -0.4152
 5005SOL     OW15913   4.549   1.637   1.367 -0.4273 -0.6205 -0.0496
 5005SOL    HW115914   4.608   1.705   1.324  0.3169  0.3271  2.3171
 5005SOL    HW215915   4.594   1.548   1.364  1.6108  0.2112  2.3632
 5006SOL     OW15916   3.935   6.930   5.935  0.3420 -0.4738 -0.2254
 5006SOL    HW115917   3.978   6.871   5.867 -0.0936 -0.2950 -0.6640
 5006SOL    HW215918   3.976   6.913   6.025 -0.0281 -1.6935 -0.2720
 5007SOL     OW15919   6.700   5.580   3.059  0.4985  0.2769  1.3293
 5007SOL    HW115920   6.692   5.482   3.043 -0.2134  0.6377 -0.9620
 5007SOL    HW215921   6.794   5.603   3.084  1.5471 -0.6420 -1.4241
 5008SOL     OW15922   4.271   1.944   3.927 -0.2842  0.1321 -0.3194
 5008SOL    HW115923   4.359   1.977   3.960  0.1993 -0.1517 -1.2986
 5008SOL    HW215924   4.207   2.021   3.921  0.2808  0.5666 -0.8274
 5009SOL     OW15925   1.731   0.732   5.683 -0.2184  0.0611 -0.2804
 5009SOL    HW115926   1.723   0.793   5.604 -0.8643 -0.2076 -0.4299
 5009SOL    HW215927   1.676   0.650   5.668 -0.1510 -0.1080  0.3409
 5010SOL     OW15928   4.388   5.698   1.348  0.1135 -0.3778 -0.2207
 5010SOL    HW115929   4.303   5.685   1.398  0.5845 -1.5868  0.3031
 5010SOL    HW215930   4.447   5.763   1.398  0.0032 -0.4897  0.0543
 5011SOL     OW15931   1.972   2.595   5.728 -0.2350 -0.8051  0.0896
 5011SOL    HW115932   2.018   2.551   5.805  0.3028  1.6693  1.3046
 5011SOL    HW215933   2.005   2.690   5.720 -0.3641 -0.9215 -3.1403
 5012SOL     OW15934   4.594   2.074   6.708  0.5392  0.0068 -0.0237
 5012SOL    HW115935   4.652   2.000   6.743  0.4464 -0.3510 -0.6142
 5012SOL    HW215936   4.629   2.162   6.740 -0.9990 -0.3901  3.1652
 5013SOL     OW15937   5.144   5.972   6.373 -0.4351  0.5524  0.0166
 5013SOL    HW115938   5.217   5.913   6.338 -1.5684  0.3561 -2.2114
 5013SOL    HW215939   5.121   5.944   6.466  3.1283  1.4670  1.3381
 5014SOL     OW15940   6.481   4.300   6.948  0.5935 -0.2361  0.0515
 5014SOL    HW115941   6.547   4.229   6.922  0.0284  0.1329 -2.6857
 5014SOL    HW215942   6.512   4.389   6.912 -1.1184  0.0264 -0.8600
 5015SOL     OW15943   6.072   4.027   2.186  0.3610  0.4785 -0.0000
 5015SOL    HW115944   6.127   3.943   2.189 -0.4265 -0.0970 -0.8622
 5015SOL    HW215945   5.982   4.009   2.226  1.4971  2.0544  3.7073
 5016SOL     OW15946   0.797   1.754   5.171  0.2781  0.5277  0.3866
 5016SOL    HW115947   0.721   1.771   5.234 -0.0093 -1.4892  0.6583
 5016SOL    HW215948   0.769   1.777   5.078 -0.2184  1.0284  0.6556
 5017SOL     OW15949   2.186   2.793   0.572 -0.0197  0.6324 -0.1889
 5017SOL    HW115950   2.185   2.825   0.667 -0.3198  0.0083  0.0244
 5017SOL    HW215951   2.279   2.762   0.549 -0.0901  0.1659  0.1209
 5018SOL     OW15952   1.618   6.842   0.580 -0.3191 -0.6028  0.7981
 5018SOL    HW115953   1.542   6.860   0.517 -0.6539 -1.2058  1.0198
 5018SOL    HW215954   1.583   6.832   0.673 -0.1042 -1.9376  0.7476
 5019SOL     OW15955   1.178   5.230   4.025 -0.6773  0.5677 -0.3221
 5019SOL    HW115956   1.241   5.242   4.102 -2.1853 -0.5587  1.1757
 5019SOL    HW215957   1.230   5.203   3.944  0.7866 -0.3743  0.8611
 5020SOL     OW15958   6.195   5.309   2.599  0.3437 -0.4802 -0.1107
 5020SOL    HW115959   6.120   5.367   2.629  0.3020 -0.6322  0.0816
 5020SOL    HW215960   6.271   5.366   2.568  0.3303 -0.3207  0.1416
 5021SOL     OW15961   3.359   1.547   2.791  0.3090 -0.1822 -0.4685
 5021SOL    HW115962   3.305   1.490   2.853  0.6068 -0.8399 -0.8103
 5021SOL    HW215963   3.297   1.601   2.734  0.0312  0.4297  0.3835
 5022SOL     OW15964   6.505   2.272   1.984  0.1028 -0.0556  0.1372
 5022SOL    HW115965   6.420   2.298   2.029 -0.1774 -0.5193 -0.1087
 5022SOL    HW215966   6.498   2.177   1.952  1.3546 -0.6891  1.6304
 5023SOL     OW15967   1.258   3.149   3.856  0.0193  0.2148 -0.4486
 5023SOL    HW115968   1.206   3.068   3.885 -1.5531  1.1457 -0.5741
 5023SOL    HW215969   1.283   3.202   3.937  1.0279 -0.3560 -0.3687
 5024SOL     OW15970   4.350   4.692   1.045  0.0233 -0.0426 -0.5604
 5024SOL    HW115971   4.281   4.724   0.979 -0.7746 -0.1851  0.1835
 5024SOL    HW215972   4.380   4.769   1.102  0.2925 -0.0348 -0.7098
 5025SOL     OW15973   5.273   0.504   5.277  0.2973  0.2041 -0.0957
 5025SOL    HW115974   5.249   0.566   5.352  1.8464  0.6993  0.0158
 5025SOL    HW215975   5.324   0.554   5.207  0.6114 -0.7011 -0.5318
 5026SOL     OW15976   5.656   5.190   3.436 -0.4098  0.1816 -0.5269
 5026SOL    HW115977   5.622   5.217   3.346 -0.6530  0.5891 -0.3141
 5026SOL    HW215978   5.670   5.271   3.493  0.9081  0.0292 -0.5973
 5027SOL     OW15979   4.753   4.245   2.456  0.5387 -0.7990  0.4447
 5027SOL    HW115980   4.726   4.245   2.360  0.6718  0.8744  0.3783
 5027SOL    HW215981   4.751   4.339   2.491  1.9938 -1.1787  1.6459
 5028SOL     OW15982   6.866   0.905   2.650 -0.2285 -0.0592 -0.0307
 5028SOL    HW115983   6.790   0.969   2.653 -1.5976 -1.6248  1.7133
 5028SOL    HW215984   6.832   0.813   2.669  2.2718 -0.6302  2.2738
 5029SOL     OW15985   5.785   1.749   0.536  0.3179 -0.4382  0.3826
 5029SOL    HW115986   5.716   1.767   0.607 -1.6020  1.3225 -1.7826
 5029SOL    HW215987   5.851   1.824   0.535  0.2704 -0.3999  0.2106
 5030SOL     OW15988   2.822   3.541   1.823  0.1318 -0.0541  0.5120
 5030SOL    HW115989   2.822   3.504   1.915 -1.4578 -0.3437  0.4319
 5030SOL    HW215990   2.802   3.468   1.757 -0.5003  0.4532  0.1223
 5031SOL     OW15991   4.597   0.887   5.188 -0.2101  0.3428  0.3154
 5031SOL    HW115992   4.631   0.974   5.223  0.7181  0.4346 -0.7783
 5031SOL    HW215993   4.567   0.899   5.093 -1.5893 -0.1733  0.6553
 5032SOL     OW15994   2.475   4.316   6.374 -0.3338  0.0814  0.0202
 5032SOL    HW115995   2.556   4.368   6.400  0.7548 -1.9517  0.9548
 5032SOL    HW215996   2.424   4.292   6.457 -0.3814 -0.9619 -0.2972
 5033SOL     OW15997   2.182   0.278   5.735 -0.1152 -0.1576 -0.8149
 5033SOL    HW115998   2.182   0.326   5.648 -0.1378  1.0203 -0.1822
 5033SOL    HW215999   2.276   0.261   5.764 -0.0695  0.8202 -0.3497
 5034SOL     OW16000   3.805   5.511   4.564  0.4026  0.1301  0.2026
 5034SOL    HW116001   3.774   5.601   4.593 -0.7086 -0.6794  1.6229
 5034SOL    HW216002   3.729   5.460   4.525  0.6287 -0.7608  0.8822
 5035SOL     OW16003   1.305   4.008   2.892 -0.6686 -0.1909 -0.0617
 5035SOL    HW116004   1.343   4.099   2.909  0.5085 -0.9398  1.6006
 5035SOL    HW216005   1.303   3.956   2.978 -2.0884 -1.4746 -0.8157
 5036SOL     OW16006   0.028   3.290   3.121  0.2971  0.4873  0.1042
 5036SOL    HW116007  -0.065   3.255   3.131  0.2860  0.6471  0.6048
 5036SOL    HW216008   0.055   3.337   3.205  1.6786 -1.5335  0.8867
 5037SOL     OW16009   0.091   3.872   2.090  0.3370 -0.2439  0.6597
 5037SOL    HW116010   0.049   3.917   2.169 -1.2002 -1.8367  0.8169
 5037SOL    HW216011   0.190   3.865   2.105  0.1285 -0.1653  2.2752
 5038SOL     OW16012   3.050   3.050   3.478  0.4218 -0.9245  0.5355
 5038SOL    HW116013   2.962   3.064   3.523  0.8857 -0.2329  1.2612
 5038SOL    HW216014   3.120   3.105   3.524  1.3481 -1.8838  0.3345
 5039SOL     OW16015   0.834   5.245   6.402  0.5692 -0.1647 -0.0324
 5039SOL    HW116016   0.911   5.194   6.439 -0.2311 -0.3686  1.4457
 5039SOL    HW216017   0.757   5.183   6.386  0.4462  0.1562 -0.7196
 5040SOL     OW16018   1.340   2.254   5.692 -0.2122  0.3768  0.0302
 5040SOL    HW116019   1.305   2.341   5.657  1.6923  0.6535 -1.3076
 5040SOL    HW216020   1.423   2.269   5.744  1.1998 -0.7489 -1.7666
 5041SOL     OW16021   6.893   0.357   0.551  0.7101 -0.1428 -0.0594
 5041SOL    HW116022   6.809   0.319   0.511  0.9899  2.0685 -3.1137
 5041SOL    HW216023   6.869   0.431   0.613  0.3807 -0.1495 -0.1768
 5042SOL     OW16024   6.660   1.806   5.152  0.0184 -0.6094 -0.1776
 5042SOL    HW116025   6.658   1.809   5.052  2.1904 -0.6698 -0.2879
 5042SOL    HW216026   6.755   1.792   5.182 -0.8075 -2.3516  1.8495
 5043SOL     OW16027   1.790   1.017   0.737  0.0022  0.2842  0.0123
 5043SOL    HW116028   1.766   0.935   0.684  1.8586 -0.7006  0.6255
 5043SOL    HW216029   1.721   1.088   0.721  0.2738 -0.0609 -3.4918
 5044SOL     OW16030   6.010   4.455   3.030  0.5005  0.0922  0.5372
 5044SOL    HW116031   6.099   4.446   3.076  0.2572 -0.8817  0.8199
 5044SOL    HW216032   6.006   4.391   2.953 -0.4544 -0.8010  1.3150
 5045SOL     OW16033   5.743   1.994   2.619 -0.6586  0.2761 -0.3476
 5045SOL    HW116034   5.725   2.050   2.700 -0.2142 -0.8415  0.5596
 5045SOL    HW216035   5.750   2.053   2.539 -0.1188  1.5255  0.5805
 5046SOL     OW16036   3.005   3.907   2.663  0.8050  0.4069  0.1044
 5046SOL    HW116037   3.071   3.884   2.735 -0.4914 -2.0311  0.6298
 5046SOL    HW216038   2.912   3.899   2.700  0.1364  0.1242 -1.5726
 5047SOL     OW16039   1.757   5.468   3.904 -0.1724  0.2011  0.5477
 5047SOL    HW116040   1.811   5.394   3.946 -1.5315 -0.9638  0.3199
 5047SOL    HW216041   1.786   5.556   3.942  1.3684 -0.4445  0.9631
 5048SOL     OW16042   1.411   6.050   5.926 -0.1504 -0.2674 -0.4288
 5048SOL    HW116043   1.333   5.987   5.925 -2.3323  2.2526 -0.8146
 5048SOL    HW216044   1.457   6.043   6.014 -1.6277 -0.9326  0.3379
 5049SOL     OW16045   4.747   2.278   6.160 -0.0048  0.7736  1.0175
 5049SOL    HW116046   4.730   2.225   6.243  0.2738 -0.1802  0.4725
 5049SOL    HW216047   4.811   2.352   6.180  0.4827  0.2174  1.5244
 5050SOL     OW16048   0.753   5.518   1.117 -0.3702  0.2655 -0.3460
 5050SOL    HW116049   0.725   5.541   1.024  0.9871 -1.2300 -1.1870
 5050SOL    HW216050   0.686   5.454   1.157 -0.2176 -0.2167 -0.8495
 5051SOL     OW16051   4.112   5.649   1.329 -0.6753 -0.2090  0.0412
 5051SOL    HW116052   4.175   5.617   1.259 -0.3661 -0.1671  0.2954
 5051SOL    HW216053   4.048   5.716   1.290 -0.5940 -0.2895 -0.2281
 5052SOL     OW16054   6.983   4.555   3.512  0.6928  0.2058  0.0461
 5052SOL    HW116055   6.942   4.497   3.582  0.7128 -1.5663 -1.3086
 5052SOL    HW216056   6.959   4.650   3.528 -0.1262 -0.2648  1.8531
 5053SOL     OW16057   1.097   0.618   1.015  0.3437  0.1936 -0.3461
 5053SOL    HW116058   1.002   0.639   0.992  0.3197 -1.2311 -1.7484
 5053SOL    HW216059   1.145   0.587   0.933  1.5891 -0.6007  0.6392
 5054SOL     OW16060   2.725   4.697   3.348  0.3015 -0.3450  0.1509
 5054SOL    HW116061   2.673   4.663   3.426 -0.4216 -1.0952 -0.6382
 5054SOL    HW216062   2.700   4.645   3.266 -0.1339  1.4576 -0.9142
 5055SOL     OW16063   6.405   4.020   4.810  0.1563  0.3253 -0.3057
 5055SOL    HW116064   6.422   4.099   4.751 -0.8942 -0.4161 -1.6363
 5055SOL    HW216065   6.330   4.040   4.873  0.5052  0.7050 -0.0069
 5056SOL     OW16066   0.517   5.630   2.916 -0.5781  1.1221 -0.3514
 5056SOL    HW116067   0.465   5.698   2.865  0.2214  2.5309  0.6324
 5056SOL    HW216068   0.484   5.628   3.011 -0.2390  0.5136 -0.2445
 5057SOL     OW16069   0.926   6.354   1.297 -0.4242  0.2159 -0.5475
 5057SOL    HW116070   0.900   6.401   1.382  0.5926  0.5427 -0.4026
 5057SOL    HW216071   0.875   6.394   1.221 -0.7022  0.5165 -0.2107
 5058SOL     OW16072   3.061   6.090   0.577 -0.2770 -0.3055  0.0386
 5058SOL    HW116073   3.000   6.157   0.619 -1.4079 -2.0523  1.3285
 5058SOL    HW216074   3.011   6.004   0.563  0.1817 -0.1140 -4.3705
 5059SOL     OW16075   0.746   6.601   2.355 -0.0958 -0.0186 -0.2501
 5059SOL    HW116076   0.720   6.694   2.380  0.5374  0.0170  0.2983
 5059SOL    HW216077   0.676   6.562   2.295 -0.6349  0.6181 -0.0471
 5060SOL     OW16078   1.876   1.390   1.474  0.3401  0.2224 -0.5904
 5060SOL    HW116079   1.875   1.304   1.423  1.2720 -0.6495  0.7798
 5060SOL    HW216080   1.820   1.381   1.556  0.1017  1.0781 -0.6497
 5061SOL     OW16081   5.788   2.310   0.977  0.1504  0.1720 -0.0940
 5061SOL    HW116082   5.882   2.309   1.010 -0.0181 -0.9295  0.3966
 5061SOL    HW216083   5.725   2.310   1.054 -0.2830  1.8604 -0.4056
 5062SOL     OW16084   6.123   0.625   6.047 -0.1787 -0.5036 -0.2485
 5062SOL    HW116085   6.208   0.619   5.995 -0.9616  3.0370 -2.2964
 5062SOL    HW216086   6.049   0.584   5.995 -0.1989 -1.1579  0.2857
 5063SOL     OW16087   1.710   0.646   3.577 -0.3155 -0.4647 -0.5764
 5063SOL    HW116088   1.643   0.690   3.636  0.5187 -0.0961  0.1246
 5063SOL    HW216089   1.706   0.547   3.589 -0.3006 -0.4049 -0.0512
 5064SOL     OW16090   4.342   6.130   6.166  0.8563 -0.0075  0.0887
 5064SOL    HW116091   4.414   6.078   6.213  0.3297 -0.3460  0.5236
 5064SOL    HW216092   4.253   6.104   6.202  0.5801  1.1874  0.3015
 5065SOL     OW16093   4.710   6.973   4.995 -0.2741  0.1085 -0.1884
 5065SOL    HW116094   4.728   6.887   4.946 -0.0909  0.1066 -0.1157
 5065SOL    HW216095   4.786   7.036   4.982  0.3074 -0.3068  1.0112
 5066SOL     OW16096   4.018   4.343   6.828 -0.0512 -0.2040 -0.0562
 5066SOL    HW116097   4.042   4.263   6.883 -0.0921  0.7803  1.4517
 5066SOL    HW216098   4.080   4.418   6.850 -0.3430  0.3494 -1.0658
 5067SOL     OW16099   0.135   0.757   6.204  0.1178  0.5772 -0.1910
 5067SOL    HW116100   0.222   0.793   6.237  0.3673  0.7680 -1.0218
 5067SOL    HW216101   0.105   0.682   6.262  1.3105 -0.1094 -0.4348
 5068SOL     OW16102   2.534   6.053   0.422  0.5570 -0.0034 -0.3277
 5068SOL    HW116103   2.599   6.070   0.496  0.5975  0.5877 -0.4926
 5068SOL    HW216104   2.582   6.055   0.334  0.4309 -0.2391 -0.4027
 5069SOL     OW16105   6.043   4.475   0.915 -0.8434  0.0235  0.2309
 5069SOL    HW116106   6.014   4.380   0.904 -0.3683  0.0272 -1.2645
 5069SOL    HW216107   5.964   4.535   0.909 -0.8442 -0.1003 -1.9326
 5070SOL     OW16108   5.201   1.989   2.281 -0.2026 -0.4150  0.7253
 5070SOL    HW116109   5.151   2.009   2.366  0.4737  1.5820  0.7221
 5070SOL    HW216110   5.135   1.978   2.206 -0.7353 -0.2784  1.1637
 5071SOL     OW16111   4.441   6.289   2.042 -0.2122 -0.1094 -0.4459
 5071SOL    HW116112   4.379   6.347   2.095 -0.0579  1.1750 -1.6057
 5071SOL    HW216113   4.536   6.317   2.061 -0.1790  1.6418 -2.6421
 5072SOL     OW16114   0.356   4.884   2.363 -0.1963 -0.0784 -0.2696
 5072SOL    HW116115   0.450   4.913   2.342  1.0350 -2.6851  1.1643
 5072SOL    HW216116   0.306   4.961   2.402  1.4928  1.2611 -0.5935
 5073SOL     OW16117   4.835   2.440   2.270 -0.7677 -0.7857  0.3076
 5073SOL    HW116118   4.763   2.509   2.272  1.4254  1.7565 -1.1706
 5073SOL    HW216119   4.857   2.417   2.175  0.4414 -1.3869  0.7013
 5074SOL     OW16120   3.932   3.313   4.720  0.1882  0.1872 -0.3283
 5074SOL    HW116121   3.841   3.324   4.760  0.3554  1.5310 -0.2679
 5074SOL    HW216122   3.981   3.240   4.769 -0.6756 -0.2278 -0.0535
 5075SOL     OW16123   5.047   0.286   4.140  0.4788  0.0547  0.1817
 5075SOL    HW116124   5.108   0.282   4.060 -0.0059  0.3764 -0.2153
 5075SOL    HW216125   5.098   0.318   4.219  1.0349 -0.5301  0.0701
 5076SOL     OW16126   4.831   6.403   5.764 -0.4581 -0.8157 -0.1523
 5076SOL    HW116127   4.784   6.432   5.847 -0.7371  0.1991 -0.6461
 5076SOL    HW216128   4.900   6.471   5.739 -1.2132 -0.4782 -1.4086
 5077SOL     OW16129   0.298   5.401   2.720  0.1142 -0.2926 -0.0228
 5077SOL    HW116130   0.221   5.362   2.671 -0.6020 -0.3877  1.1424
 5077SOL    HW216131   0.272   5.489   2.759  1.3145  0.7782 -1.5324
 5078SOL     OW16132   0.043   3.143   4.174 -0.2253  0.2075  0.3030
 5078SOL    HW116133  -0.050   3.133   4.139 -0.7210  2.3515  0.8870
 5078SOL    HW216134   0.040   3.188   4.263  1.3898  0.3172  0.3205
 5079SOL     OW16135   6.621   5.096   4.015  0.4747 -0.2459  0.6595
 5079SOL    HW116136   6.710   5.073   3.977  0.8308 -0.8943  1.8476
 5079SOL    HW216137   6.627   5.104   4.115 -0.6468  0.4080  0.7025
 5080SOL     OW16138   4.144   0.410   0.134 -0.0358 -0.3460 -0.5659
 5080SOL    HW116139   4.061   0.383   0.085  0.2123  0.2942 -1.3589
 5080SOL    HW216140   4.156   0.509   0.127  1.0939 -0.4926 -0.9624
 5081SOL     OW16141   3.361   3.150   3.066 -0.0420  0.2535 -0.0401
 5081SOL    HW116142   3.447   3.143   3.116 -0.2444  1.0932  0.4354
 5081SOL    HW216143   3.285   3.122   3.124 -0.3317  1.7066  0.3097
 5082SOL     OW16144   2.094   2.183   5.647 -0.1341 -0.0408  0.3662
 5082SOL    HW116145   2.176   2.239   5.661 -0.7372  0.6639  1.2303
 5082SOL    HW216146   2.029   2.200   5.722 -0.3991 -1.7981  0.5777
 5083SOL     OW16147   2.197   4.007   3.276  0.5211  0.7790  0.5809
 5083SOL    HW116148   2.250   4.079   3.233  0.9153 -0.5428 -1.2587
 5083SOL    HW216149   2.211   4.009   3.375  3.6293  0.8004  0.2236
 5084SOL     OW16150   0.933   5.105   4.075  0.0346 -0.8214 -0.9624
 5084SOL    HW116151   1.025   5.143   4.063 -0.5841  1.1772  0.0721
 5084SOL    HW216152   0.890   5.094   3.985  0.2844  0.9842 -1.3521
 5085SOL     OW16153   5.544   3.198   1.068  0.5690 -0.1261  0.3078
 5085SOL    HW116154   5.593   3.192   1.155  1.8519 -0.2678 -0.3961
 5085SOL    HW216155   5.493   3.114   1.053  0.0004  0.0653  1.1082
 5086SOL     OW16156   5.982   6.000   5.341 -0.3212 -0.2768 -0.7030
 5086SOL    HW116157   6.071   5.964   5.368 -0.1334 -0.0106 -0.9563
 5086SOL    HW216158   5.922   5.924   5.313  0.7275 -0.2853 -3.1718
 5087SOL     OW16159   3.474   5.925   0.891 -0.2229  0.1132  0.0450
 5087SOL    HW116160   3.567   5.893   0.874 -0.3586  0.3623 -1.2195
 5087SOL    HW216161   3.449   5.994   0.823 -0.8342  1.0951  1.2175
 5088SOL     OW16162   4.911   0.975   6.138  0.2858 -0.0800  0.4777
 5088SOL    HW116163   4.922   1.049   6.203  0.2953 -0.3029  0.7306
 5088SOL    HW216164   4.870   1.010   6.054 -0.8437 -0.0063  1.0418
 5089SOL     OW16165   5.041   3.214   2.760 -0.4239 -0.3282  0.5486
 5089SOL    HW116166   4.979   3.135   2.755 -1.2544  0.3817 -0.8462
 5089SOL    HW216167   5.134   3.182   2.783 -0.7017 -1.7325 -0.1883
 5090SOL     OW16168   0.542   4.725   6.610  0.4960  0.0742 -0.2539
 5090SOL    HW116169   0.473   4.731   6.683  1.2977  1.0992  0.4451
 5090SOL    HW216170   0.587   4.635   6.615 -0.6174 -0.5235 -0.5863
 5091SOL     OW16171   0.312   5.559   3.547  0.0189  0.6760  0.2044
 5091SOL    HW116172   0.379   5.520   3.609 -1.2941 -1.0289  0.6300
 5091SOL    HW216173   0.252   5.621   3.597 -0.5957 -0.1489  0.5041
 5092SOL     OW16174   3.821   3.564   6.319  0.1262 -0.4200 -0.5920
 5092SOL    HW116175   3.829   3.470   6.353  1.2828 -0.0875  0.1081
 5092SOL    HW216176   3.883   3.623   6.370 -2.6749  1.3306  1.0693
 5093SOL     OW16177   6.367   5.979   2.611 -0.5397  0.1851 -0.2668
 5093SOL    HW116178   6.460   6.016   2.608  0.8200 -2.6639  1.6657
 5093SOL    HW216179   6.343   5.957   2.706 -2.5343 -0.7111 -0.9173
 5094SOL     OW16180   2.479   6.839   0.004 -0.1929  0.1227  0.0852
 5094SOL    HW116181   2.554   6.875   0.059 -0.3445  0.1035  0.3045
 5094SOL    HW216182   2.396   6.890   0.023 -0.8015 -1.3443  1.5964
 5095SOL     OW16183   3.120   0.670   4.133  0.5099  0.7736 -0.1655
 5095SOL    HW116184   3.085   0.627   4.049 -0.5213  1.6894 -0.2289
 5095SOL    HW216185   3.087   0.618   4.212  0.8934  0.3248 -0.2908
 5096SOL     OW16186   3.178   6.119   4.638 -0.6606  0.3421  0.3365
 5096SOL    HW116187   3.208   6.161   4.552 -0.9990 -0.3765 -0.1452
 5096SOL    HW216188   3.078   6.124   4.644 -0.9181 -1.9921 -0.6358
 5097SOL     OW16189   1.822   2.470   1.527 -0.2212  0.1388  0.9153
 5097SOL    HW116190   1.840   2.550   1.586  0.2991  0.2167  0.6598
 5097SOL    HW216191   1.729   2.438   1.542 -1.0788  1.9040 -0.2920
 5098SOL     OW16192   1.991   1.188   4.034 -0.2071 -0.1774 -0.8534
 5098SOL    HW116193   2.062   1.160   3.970  0.3586 -1.1898  0.1763
 5098SOL    HW216194   1.974   1.115   4.100  0.5589  1.4618  1.3011
 5099SOL     OW16195   6.831   3.049   5.772  0.0993  0.3882  0.0489
 5099SOL    HW116196   6.808   3.050   5.675  0.1010 -0.4321  0.0259
 5099SOL    HW216197   6.917   2.998   5.785  1.3229  2.3999  0.2567
 5100SOL     OW16198   4.843   4.322   5.334 -0.0248 -0.4045 -0.0716
 5100SOL    HW116199   4.815   4.417   5.319  1.3601  0.2148  1.0850
 5100SOL    HW216200   4.774   4.260   5.295 -1.5089  1.0530  0.1478
 5101SOL     OW16201   6.440   5.173   6.231  0.1693 -0.0272  0.0819
 5101SOL    HW116202   6.503   5.210   6.162 -0.8464 -1.2067 -1.5617
 5101SOL    HW216203   6.443   5.073   6.228  0.4811 -0.1212  2.1726
 5102SOL     OW16204   2.485   6.428   3.298  0.0760 -0.3313  0.3755
 5102SOL    HW116205   2.466   6.488   3.220 -0.9121 -0.4224  0.5254
 5102SOL    HW216206   2.572   6.381   3.283 -0.7217 -1.3904 -1.3455
 5103SOL     OW16207   4.062   2.021   2.834  0.3576  0.3454  0.7648
 5103SOL    HW116208   4.018   1.961   2.901  0.6872  1.0049  1.5950
 5103SOL    HW216209   4.160   2.024   2.851  0.5245  0.1070 -0.0995
 5104SOL     OW16210   1.098   6.913   1.611  0.2614  0.0916 -0.3298
 5104SOL    HW116211   1.128   6.901   1.705 -2.5096 -0.3998  0.5738
 5104SOL    HW216212   1.049   7.000   1.603  0.5209  0.1571 -1.3445
 5105SOL     OW16213   1.942   3.882   6.063 -0.3700 -0.7160 -0.2500
 5105SOL    HW116214   1.894   3.857   5.980  1.2595 -2.2043 -0.8159
 5105SOL    HW216215   2.041   3.878   6.047 -0.0051  1.1914  1.1416
 5106SOL     OW16216   0.847   5.557   1.344 -0.2812  0.7079 -0.3688
 5106SOL    HW116217   0.830   5.540   1.247  1.2853 -2.3226 -0.2214
 5106SOL    HW216218   0.764   5.536   1.396 -0.3925 -0.0940 -0.8554
 5107SOL     OW16219   1.463   6.453   5.996 -0.5272  0.3855  0.1077
 5107SOL    HW116220   1.373   6.410   6.001 -0.3980  0.0646 -0.3104
 5107SOL    HW216221   1.472   6.502   5.909  0.1426 -0.5716 -0.3743
 5108SOL     OW16222   3.189   4.102   4.760  0.0234  0.4668 -0.1022
 5108SOL    HW116223   3.223   4.192   4.732 -0.0561  0.3768 -0.4921
 5108SOL    HW216224   3.235   4.031   4.706 -3.0244  0.4654 -3.0127
 5109SOL     OW16225   2.073   3.258   1.417  0.4688  0.0798  0.0535
 5109SOL    HW116226   2.046   3.321   1.490 -1.0138 -0.1524 -0.2604
 5109SOL    HW216227   2.172   3.266   1.401  0.9052 -0.1217  2.2997
 5110SOL     OW16228   1.299   0.265   5.088  0.2273  0.3971  0.0682
 5110SOL    HW116229   1.332   0.332   5.022  0.8065 -0.5312 -0.6046
 5110SOL    HW216230   1.373   0.240   5.151 -0.5055  1.7930  1.5421
 5111SOL     OW16231   6.630   1.978   5.355  0.3936 -0.5410  0.4613
 5111SOL    HW116232   6.644   1.945   5.449  1.5678 -0.7074  0.2456
 5111SOL    HW216233   6.641   1.902   5.292  0.3988 -0.2714  0.1375
 5112SOL     OW16234   1.004   5.524   3.593 -0.2289 -0.1090  0.4431
 5112SOL    HW116235   1.081   5.532   3.530 -0.3538  1.3590  0.4313
 5112SOL    HW216236   1.014   5.592   3.666 -0.1853 -1.6441  1.9255
 5113SOL     OW16237   0.525   2.720   0.691 -0.3647  0.5875  0.5358
 5113SOL    HW116238   0.506   2.818   0.683 -1.7985  0.4322  1.5674
 5113SOL    HW216239   0.618   2.701   0.659 -0.7302  1.9713 -1.5637
 5114SOL     OW16240   6.430   4.260   6.095 -0.2807 -0.7493  0.3995
 5114SOL    HW116241   6.384   4.253   6.007  0.0701 -2.1452  0.3171
 5114SOL    HW216242   6.529   4.261   6.081 -0.1514 -2.8346  0.8453
 5115SOL     OW16243   2.966   4.888   5.518  0.0711 -0.2853 -0.0971
 5115SOL    HW116244   2.929   4.878   5.426 -0.2047 -0.5021  0.0378
 5115SOL    HW216245   3.061   4.919   5.512 -0.4419  1.3175 -0.4273
 5116SOL     OW16246   3.758   4.299   0.661  0.1188  0.2384 -0.6743
 5116SOL    HW116247   3.820   4.317   0.585  2.1076 -0.6390  0.6551
 5116SOL    HW216248   3.811   4.289   0.745 -2.1066  2.6350  1.1542
 5117SOL     OW16249   1.023   0.081   2.221 -0.6719  0.3407  0.3046
 5117SOL    HW116250   1.057   0.071   2.127  0.7382  4.5037  0.1540
 5117SOL    HW216251   1.095   0.056   2.285  0.3246  2.4617  0.0928
 5118SOL     OW16252   4.978   0.505   0.713 -0.4820  0.5907 -0.1780
 5118SOL    HW116253   4.994   0.535   0.807  0.3750 -1.5465  0.4183
 5118SOL    HW216254   4.934   0.415   0.714  1.1366 -0.2778 -1.7911
 5119SOL     OW16255   0.350   0.945   1.830 -0.4434  0.6734  0.6800
 5119SOL    HW116256   0.442   0.949   1.791 -1.4862 -0.4043 -2.1378
 5119SOL    HW216257   0.321   1.037   1.856  0.9675  1.1864  0.5272
 5120SOL     OW16258   3.976   1.408   3.680  0.4761 -0.2863 -0.1298
 5120SOL    HW116259   3.878   1.398   3.662 -0.0215  1.7079  1.1712
 5120SOL    HW216260   4.027   1.394   3.595 -0.6415 -3.9235 -0.3573
 5121SOL     OW16261   1.469   3.728   3.886 -0.0906  0.5786  0.3597
 5121SOL    HW116262   1.485   3.710   3.984 -0.1885 -2.9160 -0.1153
 5121SOL    HW216263   1.382   3.686   3.859  0.9349 -0.4091 -1.6148
 5122SOL     OW16264   2.417   5.318   3.945 -0.2199  0.0066  0.2520
 5122SOL    HW116265   2.500   5.325   3.891  0.3918 -2.9075  0.6528
 5122SOL    HW216266   2.427   5.371   4.029  0.9677  0.2530 -0.0280
 5123SOL     OW16267   5.612   1.681   0.847  0.9799 -0.4161  0.4465
 5123SOL    HW116268   5.652   1.772   0.843  1.2835 -0.5458  0.4367
 5123SOL    HW216269   5.581   1.662   0.940  1.8791 -0.6968  0.7045
 5124SOL     OW16270   4.746   5.024   6.847  0.2277 -0.0618 -0.5538
 5124SOL    HW116271   4.763   5.029   6.946  1.0912 -0.1972 -0.6847
 5124SOL    HW216272   4.771   4.933   6.814 -1.2549 -0.4332 -0.6928
 5125SOL     OW16273   0.910   1.594   0.148  0.0997  0.3830  0.3112
 5125SOL    HW116274   0.879   1.678   0.104  0.1963  0.1402 -0.2297
 5125SOL    HW216275   0.984   1.553   0.095 -0.0303 -0.1080  0.5015
 5126SOL     OW16276   4.442   1.824   1.514  0.2934  0.5972  0.3459
 5126SOL    HW116277   4.385   1.783   1.586  2.2827  0.7530  2.0834
 5126SOL    HW216278   4.488   1.751   1.463  1.1563  0.5285  1.1905
 5127SOL     OW16279   4.506   2.602   0.750  0.0605  0.5774  0.2561
 5127SOL    HW116280   4.521   2.640   0.841  0.0327  0.8621  0.1436
 5127SOL    HW216281   4.487   2.504   0.757  0.8789  0.4251  0.4925
 5128SOL     OW16282   0.401   6.235   0.581 -0.6541 -0.0578  0.1876
 5128SOL    HW116283   0.364   6.165   0.643 -0.6785 -2.4750 -2.3507
 5128SOL    HW216284   0.325   6.282   0.535 -0.6130  0.7459  0.9161
 5129SOL     OW16285   4.949   2.724   2.823 -0.2962  0.3043  0.2696
 5129SOL    HW116286   4.945   2.666   2.741  0.1382  0.3424  0.2233
 5129SOL    HW216287   4.861   2.719   2.870 -0.7074  0.6510 -0.4487
 5130SOL     OW16288   3.145   0.326   5.430 -0.3235 -0.1038  0.1388
 5130SOL    HW116289   3.075   0.296   5.364 -0.2932  0.1741 -0.0194
 5130SOL    HW216290   3.236   0.312   5.391 -0.3260  2.7383 -1.0824
 5131SOL     OW16291   4.862   5.590   4.255  0.2115  0.1937 -0.6305
 5131SOL    HW116292   4.849   5.538   4.170 -0.4447  0.3942 -0.6529
 5131SOL    HW216293   4.780   5.644   4.274  1.0765  1.6641 -0.9057
 5132SOL     OW16294   5.208   0.373   4.330 -0.1790 -0.3549 -0.3443
 5132SOL    HW116295   5.193   0.323   4.415  0.2143 -0.0233 -0.0723
 5132SOL    HW216296   5.291   0.340   4.285 -1.3654 -1.8214 -1.5744
 5133SOL     OW16297   2.841   4.819   5.290  0.9884 -0.0490  0.2051
 5133SOL    HW116298   2.849   4.742   5.226  0.0780  0.2635 -0.2972
 5133SOL    HW216299   2.748   4.824   5.326  0.8654  1.1397 -0.2062
 5134SOL     OW16300   4.483   0.347   3.064 -0.1183  0.7955 -0.3292
 5134SOL    HW116301   4.549   0.390   3.003  0.6346  0.7492  0.4384
 5134SOL    HW216302   4.398   0.400   3.063  0.1975  1.3077 -0.7117
 5135SOL     OW16303   1.186   2.159   2.399  0.1184  0.0324 -0.2411
 5135SOL    HW116304   1.200   2.135   2.495 -0.8497 -0.5751 -0.2400
 5135SOL    HW216305   1.097   2.204   2.388 -1.1659 -2.5592 -1.2552
 5136SOL     OW16306   5.686   0.463   6.951  0.0956  0.4531  0.4141
 5136SOL    HW116307   5.623   0.403   7.002  1.1844 -0.8850  0.2544
 5136SOL    HW216308   5.666   0.455   6.853  0.8299 -0.3741  0.3244
 5137SOL     OW16309   4.135   1.038   3.429 -0.2042 -0.4352  0.2646
 5137SOL    HW116310   4.183   1.042   3.516 -1.0156 -0.6340  0.7412
 5137SOL    HW216311   4.050   0.986   3.441 -0.7260  0.2303 -0.4533
 5138SOL     OW16312   3.266   2.885   2.246  0.3277  0.1217 -0.1285
 5138SOL    HW116313   3.251   2.962   2.309  0.4288 -0.0003  0.0468
 5138SOL    HW216314   3.317   2.813   2.294 -0.5191 -0.4188 -0.0112
 5139SOL     OW16315   5.681   0.557   0.166 -0.2797 -0.1191  0.1871
 5139SOL    HW116316   5.737   0.505   0.231 -0.4234 -0.2732  0.1853
 5139SOL    HW216317   5.704   0.530   0.073  0.9125  1.0707  0.1071
 5140SOL     OW16318   2.440   3.309   5.727  0.1617 -0.3099  0.0501
 5140SOL    HW116319   2.380   3.309   5.647  1.3329  0.5438 -0.8746
 5140SOL    HW216320   2.530   3.277   5.701  1.0648  1.6056  0.5860
 5141SOL     OW16321   6.378   1.495   2.141 -0.1216  0.1441  0.3835
 5141SOL    HW116322   6.347   1.415   2.089 -2.9351  1.2237  0.2085
 5141SOL    HW216323   6.473   1.481   2.169 -0.3008 -2.9773 -0.1260
 5142SOL     OW16324   6.240   6.362   3.401  0.2847 -0.4313 -0.4699
 5142SOL    HW116325   6.166   6.329   3.459 -0.5413  3.0585  0.6722
 5142SOL    HW216326   6.325   6.365   3.454  0.1568  0.1018 -0.2914
 5143SOL     OW16327   5.454   5.489   2.581 -0.0458 -0.1744 -0.5188
 5143SOL    HW116328   5.355   5.475   2.573 -0.4274  1.2017  1.1805
 5143SOL    HW216329   5.485   5.548   2.506 -0.6316 -0.1390 -0.7370
 5144SOL     OW16330   1.579   4.035   6.817  0.1458 -0.6183 -0.3401
 5144SOL    HW116331   1.585   4.072   6.725  2.7560  0.8811  0.3556
 5144SOL    HW216332   1.572   4.110   6.883  0.1047 -1.5949  0.8062
 5145SOL     OW16333   1.569   5.132   4.852 -0.5454  0.0309  0.0620
 5145SOL    HW116334   1.593   5.216   4.901  0.0742 -0.6058  0.8735
 5145SOL    HW216335   1.521   5.155   4.767 -0.1022  1.2163  0.1212
 5146SOL     OW16336   5.382   4.539   7.003 -0.2216 -0.3197  0.3910
 5146SOL    HW116337   5.477   4.533   6.972 -0.3340 -0.0260 -0.0101
 5146SOL    HW216338   5.370   4.622   7.057 -0.0572 -0.7655  1.1261
 5147SOL     OW16339   4.978   0.992   2.996 -0.2784 -0.0999  0.2779
 5147SOL    HW116340   4.944   1.076   2.952  2.2015  0.9235  0.1347
 5147SOL    HW216341   4.942   0.986   3.089  0.9420  2.2187  0.9881
 5148SOL     OW16342   6.248   0.611   2.062 -0.2404 -0.0362  0.1880
 5148SOL    HW116343   6.304   0.603   1.980  0.4378 -0.6716  0.7023
 5148SOL    HW216344   6.231   0.708   2.082 -2.2669  0.1318 -1.9210
 5149SOL     OW16345   2.712   0.269   3.810  0.1396  0.4656  0.1225
 5149SOL    HW116346   2.746   0.356   3.846  1.3613  0.1740 -0.2686
 5149SOL    HW216347   2.649   0.288   3.734  1.9253  1.0500 -1.3089
 5150SOL     OW16348   6.235   6.216   3.851 -0.5299 -0.8040  0.3548
 5150SOL    HW116349   6.241   6.172   3.761  1.5824 -3.9305  1.8203
 5150SOL    HW216350   6.141   6.244   3.868 -1.2597 -1.3721 -2.2691
 5151SOL     OW16351   4.554   4.171   1.631 -0.0232 -0.0151  0.3106
 5151SOL    HW116352   4.520   4.222   1.551 -0.8043 -0.7583  0.1542
 5151SOL    HW216353   4.491   4.186   1.708  0.2221 -0.0418  0.5156
 5152SOL     OW16354   2.008   2.441   1.167  0.2767 -0.0782  0.1991
 5152SOL    HW116355   1.915   2.437   1.203  0.1667 -1.1046 -0.1424
 5152SOL    HW216356   2.008   2.409   1.072  1.1309 -1.2212  0.5556
 5153SOL     OW16357   3.092   0.508   2.258 -0.6424 -0.2312 -0.7136
 5153SOL    HW116358   3.185   0.538   2.238 -0.3813 -0.7432 -0.2777
 5153SOL    HW216359   3.081   0.412   2.233 -0.2183 -0.9940  1.7205
 5154SOL     OW16360   1.914   3.987   6.322 -0.5263 -0.2966  0.2696
 5154SOL    HW116361   1.938   3.931   6.401 -0.0856 -0.7096 -0.1466
 5154SOL    HW216362   1.921   3.932   6.239  3.0816  1.0986 -0.5549
 5155SOL     OW16363   1.768   0.847   1.539 -0.3042  0.1095  0.4390
 5155SOL    HW116364   1.788   0.925   1.600 -0.1013 -0.3946  1.0269
 5155SOL    HW216365   1.718   0.778   1.590  2.4878 -1.6926  0.9745
 5156SOL     OW16366   5.883   3.720   4.878  0.2807 -1.0499 -0.3974
 5156SOL    HW116367   5.813   3.791   4.879 -0.8080 -2.0600 -1.3417
 5156SOL    HW216368   5.922   3.710   4.969  1.2846  1.4993 -0.4612
 5157SOL     OW16369   4.076   0.166   3.342 -0.2304 -0.0474 -0.1590
 5157SOL    HW116370   4.015   0.096   3.380  0.5875 -1.3045 -1.0933
 5157SOL    HW216371   4.022   0.246   3.318 -1.3442 -0.6819  0.1096
 5158SOL     OW16372   0.721   2.619   1.171 -0.5211 -0.1598 -0.8444
 5158SOL    HW116373   0.663   2.566   1.110  0.5990 -0.7296 -1.4413
 5158SOL    HW216374   0.769   2.690   1.120 -0.6864  0.3133 -0.3581
 5159SOL     OW16375   5.849   3.745   5.992 -0.0717 -0.2630 -0.3352
 5159SOL    HW116376   5.769   3.690   6.019 -0.8608  0.9506 -0.1002
 5159SOL    HW216377   5.914   3.747   6.068  1.2114 -2.9372 -1.2260
 5160SOL     OW16378   4.765   2.172   1.528  0.0608  0.0561 -0.1362
 5160SOL    HW116379   4.672   2.139   1.517 -0.1761  0.5860  0.2383
 5160SOL    HW216380   4.766   2.249   1.592  1.0020 -1.1058  1.3233
 5161SOL     OW16381   0.930   1.113   6.194 -0.9363  0.0420  0.0416
 5161SOL    HW116382   0.909   1.015   6.188  1.1549 -0.4378 -0.1119
 5161SOL    HW216383   1.019   1.125   6.237 -0.4870  1.8181 -1.2997
 5162SOL     OW16384   0.487   1.653   1.011  0.1207 -0.3586 -0.4066
 5162SOL    HW116385   0.497   1.618   1.104 -0.2911 -1.8984 -0.9037
 5162SOL    HW216386   0.390   1.659   0.988  0.1787  1.2271 -0.3259
 5163SOL     OW16387   3.577   1.422   0.705 -0.9127 -0.0689  0.2562
 5163SOL    HW116388   3.559   1.394   0.799 -0.0061 -0.0777  0.4330
 5163SOL    HW216389   3.495   1.466   0.667 -1.1934  0.1959  1.1439
 5164SOL     OW16390   1.469   1.867   0.015 -0.2813 -0.9988  0.1621
 5164SOL    HW116391   1.562   1.885  -0.017  0.0691  2.2813  2.5583
 5164SOL    HW216392   1.472   1.830   0.108 -1.3980 -1.8408 -0.1195
 5165SOL     OW16393   1.917   0.211   5.662  0.9536  0.3105  0.1014
 5165SOL    HW116394   1.883   0.187   5.753  0.3619  0.7784  0.0166
 5165SOL    HW216395   2.011   0.180   5.651  1.2218  0.7509  1.0859
 5166SOL     OW16396   1.043   0.748   0.382  0.5081 -0.2639 -0.2712
 5166SOL    HW116397   1.037   0.814   0.457  2.4529  0.6659 -0.8683
 5166SOL    HW216398   1.024   0.794   0.296  0.4181 -0.8335 -0.5586
 5167SOL     OW16399   6.316   3.155   5.997 -0.1621  0.1207 -0.6757
 5167SOL    HW116400   6.330   3.056   5.987 -0.7290 -0.1747  0.9542
 5167SOL    HW216401   6.320   3.199   5.908  0.1961 -1.3650 -1.4286
 5168SOL     OW16402   6.378   0.755   2.780  0.2778 -0.6433 -0.6596
 5168SOL    HW116403   6.325   0.797   2.854 -0.7326 -0.7239 -1.3200
 5168SOL    HW216404   6.420   0.670   2.813 -2.4110 -2.1543 -0.8849
 5169SOL     OW16405   4.090   5.900   3.062 -0.8030 -0.3136 -0.1415
 5169SOL    HW116406   4.116   5.846   3.142 -3.4334 -0.5702  0.6559
 5169SOL    HW216407   4.151   5.979   3.053  0.8535 -1.4173  0.8188
 5170SOL     OW16408   1.509   2.541   6.409  0.1271  0.2667  0.6110
 5170SOL    HW116409   1.512   2.581   6.318 -0.7605 -0.0030  0.4616
 5170SOL    HW216410   1.552   2.605   6.474  0.1483  0.7601  0.1240
 5171SOL     OW16411   2.728   4.711   0.183  0.0173  0.5283 -0.2310
 5171SOL    HW116412   2.769   4.714   0.274  2.0043  3.7350 -1.0644
 5171SOL    HW216413   2.800   4.710   0.114 -1.4416 -0.9003 -1.8228
 5172SOL     OW16414   4.497   5.880   6.063  0.3183  0.1556 -0.6652
 5172SOL    HW116415   4.398   5.874   6.069  0.2043 -1.0439 -2.6870
 5172SOL    HW216416   4.525   5.876   5.967  2.5053 -3.1898 -0.0408
 5173SOL     OW16417   5.143   6.164   3.308  0.2097 -0.3617 -0.6065
 5173SOL    HW116418   5.211   6.171   3.380  0.8685 -1.1054 -1.1447
 5173SOL    HW216419   5.077   6.092   3.330  0.3640 -0.5342 -0.7113
 5174SOL     OW16420   6.105   6.546   2.997  0.5382 -0.1339  0.1152
 5174SOL    HW116421   6.124   6.632   2.951 -2.6382  0.8808  0.4491
 5174SOL    HW216422   6.187   6.515   3.045  2.1388  1.9996 -1.0810
 5175SOL     OW16423   2.836   1.799   6.646  0.3293 -0.9562  0.1553
 5175SOL    HW116424   2.773   1.872   6.621  1.0645  0.6356  2.6457
 5175SOL    HW216425   2.793   1.740   6.715  0.2628 -2.0838 -0.8171
 5176SOL     OW16426   4.652   5.074   4.643  0.1032 -0.1244  0.2260
 5176SOL    HW116427   4.721   5.001   4.636 -0.4970 -0.9548  2.2658
 5176SOL    HW216428   4.582   5.047   4.709 -1.5762  1.2088 -0.9259
 5177SOL     OW16429   4.639   2.729   1.007 -0.2551 -0.2159  1.0300
 5177SOL    HW116430   4.661   2.816   1.052 -0.3831 -0.4054  1.4632
 5177SOL    HW216431   4.542   2.726   0.985  0.1176  0.7141 -1.0849
 5178SOL     OW16432   0.997   5.121   1.945  0.4351 -0.1137 -0.4750
 5178SOL    HW116433   1.051   5.171   2.013  1.9601 -0.4185 -1.4377
 5178SOL    HW216434   0.906   5.102   1.983  0.2073  2.3008  0.3698
 5179SOL     OW16435   3.756   4.968   2.083 -0.1542  0.3355 -0.3225
 5179SOL    HW116436   3.703   4.891   2.048  1.6271 -1.1899  0.1868
 5179SOL    HW216437   3.735   4.981   2.180  2.0385 -1.8453  0.5373
 5180SOL     OW16438   2.867   5.685   2.450  0.7569  0.1539  0.1179
 5180SOL    HW116439   2.900   5.591   2.447  1.0969  0.2777 -0.1259
 5180SOL    HW216440   2.807   5.698   2.529 -1.8664 -1.1173 -1.5214
 5181SOL     OW16441   0.286   1.389   4.579  0.0436 -0.3313 -0.0698
 5181SOL    HW116442   0.302   1.440   4.494 -0.2053  0.7304  0.4969
 5181SOL    HW216443   0.188   1.390   4.601  0.1821  0.0103  0.5795
 5182SOL     OW16444   1.891   0.421   2.991  0.1168  0.3435  0.0881
 5182SOL    HW116445   1.897   0.341   2.932  0.3471 -0.6332  1.3969
 5182SOL    HW216446   1.958   0.415   3.065 -0.6383  1.1643  0.8838
 5183SOL     OW16447   5.369   0.653   3.147  0.2059  0.2082  0.0774
 5183SOL    HW116448   5.424   0.624   3.225  0.7790  1.0854  0.0015
 5183SOL    HW216449   5.272   0.655   3.173  0.0147 -2.4447 -0.1024
 5184SOL     OW16450   3.785   1.808   3.320  0.1407  0.6273 -0.7172
 5184SOL    HW116451   3.827   1.844   3.404 -0.0957 -1.0306  0.1634
 5184SOL    HW216452   3.694   1.847   3.309  0.2506  1.0074 -0.2949
 5185SOL     OW16453   6.907   1.719   2.599 -1.1095  0.1675  0.7009
 5185SOL    HW116454   6.970   1.780   2.552 -1.8048  1.2081  1.0834
 5185SOL    HW216455   6.830   1.697   2.540 -0.9161 -0.2639  0.6026
 5186SOL     OW16456   0.753   2.128   5.957 -0.0546 -0.2318  0.4048
 5186SOL    HW116457   0.835   2.149   5.904 -0.1583 -0.5854  0.1026
 5186SOL    HW216458   0.674   2.174   5.917 -0.0486 -0.0949  0.5481
 5187SOL     OW16459   0.951   6.630   3.264  0.2358  0.2540  0.0312
 5187SOL    HW116460   0.951   6.702   3.334 -2.0345 -1.0921  1.5013
 5187SOL    HW216461   0.857   6.608   3.238  0.9596 -0.8721 -1.8275
 5188SOL     OW16462   0.190   1.156   1.602 -0.2830  0.6360  0.0903
 5188SOL    HW116463   0.158   1.129   1.692  1.5006  0.1441  0.6230
 5188SOL    HW216464   0.117   1.203   1.553 -1.4469  0.4479  1.5809
 5189SOL     OW16465   5.823   4.154   5.448 -0.4901  0.3649  0.5398
 5189SOL    HW116466   5.876   4.157   5.532 -0.6813 -0.5533  0.7027
 5189SOL    HW216467   5.869   4.095   5.382 -0.5478  0.7619  0.1418
 5190SOL     OW16468   0.044   5.056   2.843 -0.3770  0.2744 -0.7719
 5190SOL    HW116469   0.024   5.073   2.940  1.2736 -0.7136 -0.2014
 5190SOL    HW216470   0.008   5.130   2.787 -1.6164  0.7255  0.5661
 5191SOL     OW16471   3.093   3.358   2.477  0.0175 -0.6132  0.6503
 5191SOL    HW116472   3.055   3.266   2.490  0.4404 -0.9851 -0.5561
 5191SOL    HW216473   3.157   3.356   2.400 -2.8362  1.4928 -2.0018
 5192SOL     OW16474   0.885   5.670   3.244 -0.7601 -0.4727 -0.4214
 5192SOL    HW116475   0.879   5.707   3.151 -0.2847 -1.4793 -0.8669
 5192SOL    HW216476   0.815   5.713   3.302 -0.3525  0.9714 -0.9545
 5193SOL     OW16477   3.479   2.239   5.199 -0.1217  1.2907  0.1938
 5193SOL    HW116478   3.515   2.160   5.149 -0.1237  0.7192  1.0622
 5193SOL    HW216479   3.379   2.241   5.189 -0.1073  1.2709  0.0450
 5194SOL     OW16480   6.226   1.016   5.216 -0.0399 -0.4668 -0.3744
 5194SOL    HW116481   6.154   0.959   5.257 -0.7439  1.2536  0.9004
 5194SOL    HW216482   6.283   1.054   5.289  0.7042  0.1058 -1.2341
 5195SOL     OW16483   2.407   2.118   6.507  0.4863  0.0399  0.3545
 5195SOL    HW116484   2.404   2.213   6.539  0.3071  0.0331  0.3581
 5195SOL    HW216485   2.402   2.116   6.407 -3.1414 -0.0858  0.3938
 5196SOL     OW16486   4.078   4.773   3.658 -0.6312 -0.3175 -0.2773
 5196SOL    HW116487   4.129   4.703   3.609 -0.3414 -0.8517  0.7677
 5196SOL    HW216488   3.999   4.801   3.603 -2.5963 -3.7063  0.5619
 5197SOL     OW16489   5.103   4.051   5.599 -0.3128 -0.7941  0.1944
 5197SOL    HW116490   5.185   4.012   5.642 -1.5033 -1.1717  2.2644
 5197SOL    HW216491   5.036   3.978   5.585 -0.7744 -0.2785 -0.2967
 5198SOL     OW16492   6.826   5.518   2.728 -0.7370 -0.3747  0.5419
 5198SOL    HW116493   6.862   5.604   2.764  0.6881 -0.0944 -1.3600
 5198SOL    HW216494   6.754   5.537   2.662 -2.2675 -0.8081  2.0186
 5199SOL     OW16495   0.967   3.426   0.163 -0.3490  0.1571 -0.0256
 5199SOL    HW116496   1.022   3.434   0.081 -1.5446  0.9779 -0.7792
 5199SOL    HW216497   0.916   3.340   0.161  0.0356 -0.0785  0.1344
 5200SOL     OW16498   0.283   4.713   5.702 -0.2448 -0.0428 -0.2540
 5200SOL    HW116499   0.331   4.790   5.659 -0.2707  0.0267 -0.1598
 5200SOL    HW216500   0.289   4.632   5.643  0.5262 -0.2102  0.0539
 5201SOL     OW16501   1.254   6.782   4.989 -0.4277 -0.0960  0.2644
 5201SOL    HW116502   1.279   6.879   4.989 -2.8433  0.6036 -1.1548
 5201SOL    HW216503   1.216   6.757   5.078  2.0917 -0.3682  1.3593
 5202SOL     OW16504   5.482   6.067   0.256 -0.1507  0.4463 -0.3335
 5202SOL    HW116505   5.491   5.971   0.280  0.5425  0.8397  1.0656
 5202SOL    HW216506   5.389   6.084   0.222 -0.7361 -0.4248  0.7942
 5203SOL     OW16507   6.593   2.724   0.425  0.0777  0.3675 -0.6167
 5203SOL    HW116508   6.532   2.667   0.370 -1.1814 -0.7690  1.8060
 5203SOL    HW216509   6.544   2.806   0.454  0.4755  0.5803 -0.5484
 5204SOL     OW16510   6.049   5.514   6.545  0.1205 -0.1997 -0.4251
 5204SOL    HW116511   6.015   5.582   6.480 -3.3965 -0.4517  0.9480
 5204SOL    HW216512   6.085   5.560   6.626 -1.7011  0.1101  0.2474
 5205SOL     OW16513   0.940   4.379   0.243 -0.1433  0.4072  0.4938
 5205SOL    HW116514   0.942   4.478   0.257  0.1859  0.1498  2.6716
 5205SOL    HW216515   1.034   4.345   0.236 -0.2711  0.4564 -2.4984
 5206SOL     OW16516   6.725   4.836   3.888  0.3334 -0.8297  0.1503
 5206SOL    HW116517   6.657   4.779   3.934  1.4105 -0.7882  1.8728
 5206SOL    HW216518   6.685   4.926   3.870 -0.2567 -0.9746  0.6814
 5207SOL     OW16519   0.525   1.318   2.903 -0.8137  0.4384 -0.0658
 5207SOL    HW116520   0.469   1.292   2.824 -0.2593 -0.1404 -0.2711
 5207SOL    HW216521   0.468   1.316   2.985 -1.0236 -0.5120 -0.2178
 5208SOL     OW16522   4.653   0.659   0.649  0.1437 -0.0930  0.1084
 5208SOL    HW116523   4.706   0.701   0.723 -0.8989  1.9006 -0.2284
 5208SOL    HW216524   4.713   0.643   0.571  0.4521  1.4443 -0.0019
 5209SOL     OW16525   5.792   5.665   2.418  0.0869  0.0209  0.3173
 5209SOL    HW116526   5.694   5.684   2.422  0.2882  1.8941 -1.8361
 5209SOL    HW216527   5.807   5.577   2.372 -0.5599 -0.2162  0.5517
 5210SOL     OW16528   5.742   3.495   2.470  0.2290  0.1452 -0.6932
 5210SOL    HW116529   5.692   3.577   2.441 -0.9519 -0.2535  0.1552
 5210SOL    HW216530   5.820   3.522   2.527  1.5394  0.8204 -2.6997
 5211SOL     OW16531   3.929   3.376   1.365 -0.1768  0.5230 -0.4661
 5211SOL    HW116532   3.863   3.442   1.331  0.4748  0.5494 -1.7144
 5211SOL    HW216533   4.008   3.424   1.405  0.5019  0.5281 -1.7720
 5212SOL     OW16534   0.417   0.702   1.954  0.5646 -0.0673  0.2524
 5212SOL    HW116535   0.426   0.799   1.934  0.5194 -0.1436 -0.1614
 5212SOL    HW216536   0.505   0.664   1.980  1.1447 -0.4366 -2.0185
 5213SOL     OW16537   5.341   0.529   6.902  0.7702  0.4254 -0.7225
 5213SOL    HW116538   5.330   0.602   6.835  0.4706 -0.1012 -1.2498
 5213SOL    HW216539   5.303   0.444   6.866 -1.5489  0.6351  1.0130
 5214SOL     OW16540   5.697   0.788   5.048  0.0606  0.2290  0.2970
 5214SOL    HW116541   5.767   0.858   5.062  0.3572  0.0544 -0.2817
 5214SOL    HW216542   5.662   0.794   4.954  0.9457 -1.1661 -0.1345
 5215SOL     OW16543   5.020   6.188   6.590 -0.2976 -0.2218 -0.3329
 5215SOL    HW116544   4.952   6.256   6.564  0.0965  0.5609  0.6216
 5215SOL    HW216545   4.980   6.096   6.584 -2.1226  0.3038  2.0653
 5216SOL     OW16546   1.367   0.626   1.357  0.4336  0.1222  0.1952
 5216SOL    HW116547   1.326   0.536   1.375  0.6934  0.1999  1.2279
 5216SOL    HW216548   1.415   0.624   1.270 -1.9711  0.1043 -1.2178
 5217SOL     OW16549   1.857   4.566   3.348  0.2559 -0.9298  0.4227
 5217SOL    HW116550   1.868   4.529   3.256  0.7319  0.8979 -0.2781
 5217SOL    HW216551   1.785   4.515   3.395 -2.7787  0.4999 -2.3114
 5218SOL     OW16552   0.133   1.697   4.798  1.3082 -0.7612  0.0889
 5218SOL    HW116553   0.181   1.610   4.787 -0.3500 -1.9587  1.5751
 5218SOL    HW216554   0.082   1.695   4.884  1.0255  1.6107  0.0286
 5219SOL     OW16555   3.373   0.769   2.015 -0.2814 -0.2734 -0.2318
 5219SOL    HW116556   3.409   0.678   2.036 -0.7268 -0.3656  0.1395
 5219SOL    HW216557   3.281   0.760   1.978  0.1371 -0.0519 -1.3786
 5220SOL     OW16558   5.860   6.091   1.720  1.2210  0.0258  0.0491
 5220SOL    HW116559   5.821   6.008   1.681 -1.5842  0.3202  1.9919
 5220SOL    HW216560   5.920   6.068   1.797 -0.6577 -0.2201  1.4919
 5221SOL     OW16561   4.965   0.363   1.274  0.3008 -0.2168  0.0458
 5221SOL    HW116562   4.866   0.378   1.279  0.2233 -0.8054  0.4040
 5221SOL    HW216563   5.002   0.358   1.367  0.3267 -2.1220 -0.0457
 5222SOL     OW16564   6.448   5.418   1.329  0.2870 -0.4598  0.2900
 5222SOL    HW116565   6.352   5.398   1.351 -0.4555 -1.9715 -3.4999
 5222SOL    HW216566   6.451   5.495   1.265  1.6418 -0.3385  0.4835
 5223SOL     OW16567   5.544   0.178   0.906 -0.1270 -0.2593 -0.0200
 5223SOL    HW116568   5.449   0.207   0.912  0.0869  0.6653 -0.9481
 5223SOL    HW216569   5.560   0.133   0.818  0.5789  0.7355 -0.4252
 5224SOL     OW16570   5.780   6.083   3.705 -0.4075  0.3602  0.0884
 5224SOL    HW116571   5.723   6.112   3.782 -0.7465  0.3911 -0.1700
 5224SOL    HW216572   5.771   6.149   3.630  0.4561  0.6981  0.2710
 5225SOL     OW16573   5.940   0.266   0.152  0.5145  0.4315  0.3347
 5225SOL    HW116574   5.964   0.220   0.066 -1.5855  1.3838 -0.8209
 5225SOL    HW216575   5.873   0.211   0.201  2.0179 -0.3169  1.6385
 5226SOL     OW16576   4.606   0.900   3.195 -0.1356 -0.1855 -0.1218
 5226SOL    HW116577   4.568   0.992   3.194  2.3652  0.9701  1.1442
 5226SOL    HW216578   4.555   0.843   3.259 -0.5399  0.9098  0.5513
 5227SOL     OW16579   5.722   4.122   4.054  0.3281 -0.0845  0.2161
 5227SOL    HW116580   5.704   4.160   3.964 -1.6760 -1.5528 -0.0836
 5227SOL    HW216581   5.651   4.055   4.077  1.1482 -0.2552  2.6073
 5228SOL     OW16582   3.522   5.507   4.407 -0.7683 -0.1644  0.0493
 5228SOL    HW116583   3.460   5.565   4.459  1.9280  1.5471  1.5694
 5228SOL    HW216584   3.548   5.428   4.463 -1.4942 -0.8603 -0.5715
 5229SOL     OW16585   1.579   3.019   4.150 -0.1111 -0.0211  0.5951
 5229SOL    HW116586   1.592   2.942   4.086  0.1360  0.0413  0.5675
 5229SOL    HW216587   1.600   2.988   4.243 -1.2054 -0.3139  0.7508
 5230SOL     OW16588   0.354   3.973   0.388 -0.5801  0.0800  0.2422
 5230SOL    HW116589   0.437   4.002   0.435 -1.7360  1.1112  1.7623
 5230SOL    HW216590   0.369   3.974   0.290  1.4414 -0.5708  0.5159
 5231SOL     OW16591   3.356   3.918   3.225  0.3961 -0.0824 -0.6051
 5231SOL    HW116592   3.387   3.840   3.171  0.3350  1.2201 -2.6029
 5231SOL    HW216593   3.363   4.002   3.171  1.9514  1.5921  1.9616
 5232SOL     OW16594   6.037   3.089   3.443 -0.1758  0.0376 -0.2139
 5232SOL    HW116595   6.017   3.005   3.493 -0.9946  0.7167  0.6296
 5232SOL    HW216596   6.082   3.154   3.505  1.4603 -0.1451 -1.1356
 5233SOL     OW16597   6.305   6.284   4.128  0.0423 -0.0362  0.3358
 5233SOL    HW116598   6.300   6.277   4.029  1.3443  0.2812  0.2335
 5233SOL    HW216599   6.281   6.197   4.170 -0.8803 -0.0649 -0.2340
 5234SOL     OW16600   3.024   4.794   1.887  0.3507 -0.2323  0.2767
 5234SOL    HW116601   3.111   4.746   1.894  0.3033 -0.3585  0.0083
 5234SOL    HW216602   2.950   4.732   1.916  0.0467 -1.0771 -2.0854
 5235SOL     OW16603   4.991   0.631   3.672  0.0873 -0.1114  0.4794
 5235SOL    HW116604   5.015   0.541   3.710  0.2468 -1.0006 -1.5959
 5235SOL    HW216605   4.905   0.624   3.622  1.0476  0.3649 -1.3434
 5236SOL     OW16606   5.902   2.818   6.604  0.1969 -0.1585 -0.3997
 5236SOL    HW116607   5.974   2.876   6.565  0.9508 -0.1482  0.9428
 5236SOL    HW216608   5.914   2.812   6.703 -0.5821 -1.6340 -0.3652
 5237SOL     OW16609   0.775   1.847   1.999 -0.4263  0.0399 -0.2689
 5237SOL    HW116610   0.715   1.925   2.013  1.2973  1.8982 -2.4678
 5237SOL    HW216611   0.852   1.852   2.062 -0.3538  0.0849 -0.3605
 5238SOL     OW16612   1.724   2.822   1.434 -0.2539  0.2628  0.3583
 5238SOL    HW116613   1.665   2.792   1.359 -0.4375  0.1090  0.5642
 5238SOL    HW216614   1.716   2.922   1.444 -0.5303  0.2345  0.4288
 5239SOL     OW16615   3.578   2.850   4.221 -0.4936 -0.4927 -0.4143
 5239SOL    HW116616   3.495   2.849   4.276 -0.6866  1.2136 -0.6104
 5239SOL    HW216617   3.657   2.839   4.280 -0.8134 -1.1551 -0.1052
 5240SOL     OW16618   4.351   1.890   2.676 -0.2085 -0.3959  0.3324
 5240SOL    HW116619   4.422   1.960   2.678  2.2954 -2.6483 -2.3120
 5240SOL    HW216620   4.343   1.848   2.767  1.2339  0.4572  0.8861
 5241SOL     OW16621   4.883   6.321   4.281  0.0891  0.6203  0.2140
 5241SOL    HW116622   4.877   6.309   4.181 -0.9694 -1.3017  0.4538
 5241SOL    HW216623   4.810   6.382   4.312 -0.4987  0.0687 -0.0532
 5242SOL     OW16624   3.118   6.685   0.982  0.0941 -0.5676 -0.8636
 5242SOL    HW116625   3.053   6.638   0.922 -0.0284 -0.5209 -0.7683
 5242SOL    HW216626   3.069   6.752   1.038  0.0816 -1.1610 -0.1425
 5243SOL     OW16627   0.569   2.839   0.300 -0.0603  0.1065  0.1359
 5243SOL    HW116628   0.565   2.740   0.283  0.0178  0.2267 -0.6065
 5243SOL    HW216629   0.616   2.856   0.386 -0.4264 -0.5238  0.4701
 5244SOL     OW16630   0.019   1.764   6.468 -0.5975  0.1745  0.2885
 5244SOL    HW116631  -0.005   1.708   6.547 -1.8997  1.3820  0.7858
 5244SOL    HW216632  -0.032   1.734   6.388 -1.0826  0.4557  0.4882
 5245SOL     OW16633   1.709   4.376   6.748  0.5380  0.3694 -0.6331
 5245SOL    HW116634   1.745   4.469   6.744  0.1027  0.5246 -0.9517
 5245SOL    HW216635   1.653   4.358   6.667 -0.7418  0.3921  0.2124
 5246SOL     OW16636   1.541   3.539   1.971  0.2168  0.5674  0.0277
 5246SOL    HW116637   1.617   3.474   1.972 -0.3503 -0.0997  0.0750
 5246SOL    HW216638   1.497   3.542   2.061 -1.9031 -1.5709 -0.8348
 5247SOL     OW16639   1.991   5.294   6.890 -0.1199 -0.1755 -0.2870
 5247SOL    HW116640   2.053   5.219   6.865  1.6165  0.2299  2.4254
 5247SOL    HW216641   2.031   5.381   6.860  0.2909  0.0283  0.8300
 5248SOL     OW16642   4.658   1.908   0.426  0.3057 -0.1787 -0.2740
 5248SOL    HW116643   4.560   1.921   0.440  0.5008  1.7621 -0.4949
 5248SOL    HW216644   4.692   1.837   0.488 -1.4254 -1.7496 -1.0148
 5249SOL     OW16645   0.406   5.368   6.246 -0.2108 -0.1941 -0.1621
 5249SOL    HW116646   0.506   5.363   6.244 -0.0949  0.7929  1.6288
 5249SOL    HW216647   0.376   5.460   6.223 -0.4589  0.6045  2.9011
 5250SOL     OW16648   1.739   2.319   0.028 -0.0580  0.0725 -0.4416
 5250SOL    HW116649   1.681   2.286   0.102  1.3365  1.5785  1.4204
 5250SOL    HW216650   1.809   2.251   0.007  1.1163  0.6258  1.4664
 5251SOL     OW16651   1.026   3.826   1.927 -0.0111  0.0123 -0.1509
 5251SOL    HW116652   0.954   3.778   1.977 -3.6924  3.6778 -1.3838
 5251SOL    HW216653   1.017   3.808   1.829  0.1412  1.2230 -0.4013
 5252SOL     OW16654   5.831   6.887   3.119 -0.0397 -0.1012  0.5002
 5252SOL    HW116655   5.885   6.935   3.051  0.3576 -0.0445  0.8516
 5252SOL    HW216656   5.734   6.890   3.094  0.0165  0.6345  0.3710
 5253SOL     OW16657   0.652   3.521   2.896  0.8445 -0.2896  0.2983
 5253SOL    HW116658   0.574   3.483   2.847  1.0871  0.4531 -0.7059
 5253SOL    HW216659   0.729   3.457   2.891  1.9167  1.0570 -3.1512
 5254SOL     OW16660   4.914   6.585   3.675 -0.0107  0.1628  0.8125
 5254SOL    HW116661   4.856   6.664   3.693 -0.5341 -0.1037  0.3173
 5254SOL    HW216662   4.882   6.507   3.729 -1.1819 -0.4567 -0.7128
 5255SOL     OW16663   1.077   4.969   2.261  0.0153 -0.3354  0.1120
 5255SOL    HW116664   1.025   5.012   2.334 -0.4153 -1.9188  0.7931
 5255SOL    HW216665   1.016   4.911   2.206  0.5532 -0.0656 -0.7870
 5256SOL     OW16666   4.973   6.201   1.719 -0.1892 -0.3443 -0.1366
 5256SOL    HW116667   4.885   6.157   1.704  0.2290 -0.9213 -0.9744
 5256SOL    HW216668   5.024   6.202   1.634 -0.0487  1.4829 -0.0736
 5257SOL     OW16669   2.302   0.937   1.623 -0.2320  0.1442 -0.0127
 5257SOL    HW116670   2.261   1.022   1.589  0.8654 -0.6611 -3.8845
 5257SOL    HW216671   2.390   0.956   1.666 -0.4052  1.0335 -0.0388
 5258SOL     OW16672   5.022   2.721   0.396  0.3859 -0.3249  0.0413
 5258SOL    HW116673   5.118   2.740   0.373  0.4200  0.6851  0.9194
 5258SOL    HW216674   4.963   2.769   0.330  0.4915  0.3782  0.4426
 5259SOL     OW16675   4.323   4.512   0.796  0.2243  0.0623  0.5046
 5259SOL    HW116676   4.243   4.561   0.761 -0.9822 -0.9364  1.7724
 5259SOL    HW216677   4.377   4.573   0.853  0.1982  0.6472 -0.0757
 5260SOL     OW16678   4.862   3.724   2.779 -0.1047 -0.2455  0.3465
 5260SOL    HW116679   4.851   3.658   2.854 -0.7332  0.3367  0.7776
 5260SOL    HW216680   4.858   3.817   2.816 -3.0982  0.1303 -0.6911
 5261SOL     OW16681   2.759   3.088   5.286 -0.1193 -0.5257  0.0312
 5261SOL    HW116682   2.664   3.085   5.256 -0.5107  0.4160  1.1106
 5261SOL    HW216683   2.798   2.996   5.283 -0.1142 -0.5369 -3.2306
 5262SOL     OW16684   1.074   2.057   6.974  0.6943  0.0313  0.6683
 5262SOL    HW116685   1.053   2.154   6.970 -0.8755 -0.3202 -0.4570
 5262SOL    HW216686   1.008   2.011   7.034  1.0927 -0.4204  0.7643
 5263SOL     OW16687   1.729   5.263   6.265 -0.3083  0.2931 -0.4272
 5263SOL    HW116688   1.773   5.295   6.181  0.4592  1.2470  0.3242
 5263SOL    HW216689   1.795   5.214   6.321 -0.5052  0.6548  0.1334
 5264SOL     OW16690   1.118   0.031   0.568 -0.1650  0.4028 -0.5047
 5264SOL    HW116691   1.093   0.078   0.483 -1.2011 -0.6743 -0.8333
 5264SOL    HW216692   1.055   0.059   0.641 -0.7214 -0.3553 -0.6762
 5265SOL     OW16693   3.468   5.339   3.166 -0.2985 -0.2969  0.5585
 5265SOL    HW116694   3.436   5.410   3.103  0.9421 -0.4494 -0.2883
 5265SOL    HW216695   3.558   5.307   3.137 -0.0818 -1.0063  1.9277
 5266SOL     OW16696   6.050   4.986   1.943 -0.0408 -0.9013  0.2464
 5266SOL    HW116697   6.046   5.052   2.018  0.1290 -1.9427  1.2075
 5266SOL    HW216698   6.097   4.904   1.974  1.2813 -0.8353 -1.4296
 5267SOL     OW16699   3.830   2.948   3.829  0.0107  0.0475 -0.5356
 5267SOL    HW116700   3.864   3.030   3.782  0.0169  0.3297 -0.0403
 5267SOL    HW216701   3.885   2.931   3.910  0.5213 -0.9144 -1.0632
 5268SOL     OW16702   6.306   4.604   0.750 -0.3251 -0.0396  0.9603
 5268SOL    HW116703   6.370   4.531   0.727 -0.6459  0.1433 -0.6326
 5268SOL    HW216704   6.302   4.670   0.675 -1.4789  0.5947  1.5480
 5269SOL     OW16705   2.648   6.264   6.596 -0.0445 -0.4807 -0.0595
 5269SOL    HW116706   2.615   6.204   6.523  0.1289 -2.1265  1.1754
 5269SOL    HW216707   2.737   6.302   6.569  0.0140 -1.0530 -0.7080
 5270SOL     OW16708   0.902   1.950   3.644  0.3400 -0.3652  0.6166
 5270SOL    HW116709   0.913   2.041   3.605 -1.2708  0.0437  1.0344
 5270SOL    HW216710   0.959   1.940   3.725  1.1900 -0.0526  0.0648
 5271SOL     OW16711   0.129   3.304   2.715 -0.1100 -0.2137 -0.6624
 5271SOL    HW116712   0.087   3.222   2.753 -2.1216  2.2257  2.8856
 5271SOL    HW216713   0.075   3.335   2.636 -1.3074 -0.5193  0.0114
 5272SOL     OW16714   2.493   1.999   4.268 -0.3144 -0.1085 -0.3088
 5272SOL    HW116715   2.398   1.979   4.293 -0.5764  1.5623  0.1470
 5272SOL    HW216716   2.552   1.984   4.348 -0.1518 -1.3197 -0.6422
 5273SOL     OW16717   1.252   0.973   5.976 -0.3843 -0.0996 -0.3059
 5273SOL    HW116718   1.301   1.025   6.047 -0.9228 -0.4930  0.3660
 5273SOL    HW216719   1.319   0.931   5.915  0.1027  0.0146  0.1326
 5274SOL     OW16720   6.068   6.456   5.054 -0.3850 -0.0362  0.1190
 5274SOL    HW116721   6.132   6.436   5.128  0.4873 -0.4161 -0.7154
 5274SOL    HW216722   6.033   6.370   5.017  1.8171 -0.0784 -2.1325
 5275SOL     OW16723   1.873   6.121   5.856  0.7235  0.3762  0.0315
 5275SOL    HW116724   1.882   6.040   5.914 -0.6823  0.6786  0.7120
 5275SOL    HW216725   1.781   6.124   5.818  0.9471  1.3509 -0.4590
 5276SOL     OW16726   0.469   1.969   0.276  0.6726  0.2305 -0.0678
 5276SOL    HW116727   0.446   2.025   0.197 -2.6218  0.2668  0.7818
 5276SOL    HW216728   0.469   1.872   0.249  0.5528  0.2972 -0.3098
 5277SOL     OW16729   5.475   0.329   2.039  0.7470 -0.1775 -0.0962
 5277SOL    HW116730   5.574   0.331   2.034  0.9024  0.1917  2.0635
 5277SOL    HW216731   5.443   0.402   2.101 -0.7781 -1.0227  0.1741
 5278SOL     OW16732   6.466   4.584   6.629  0.3715 -0.3433  0.1791
 5278SOL    HW116733   6.542   4.649   6.638  1.2450 -1.4365  1.0560
 5278SOL    HW216734   6.449   4.566   6.533  0.1992  1.0653 -0.0782
 5279SOL     OW16735   2.459   0.464   1.135 -0.3897  0.8036 -0.0120
 5279SOL    HW116736   2.525   0.531   1.170 -0.0152  0.6245 -0.3698
 5279SOL    HW216737   2.426   0.408   1.211  1.5043 -0.5393 -0.0934
 5280SOL     OW16738   4.524   6.231   0.246 -0.2007  0.1023 -0.2992
 5280SOL    HW116739   4.457   6.306   0.248  1.8297  2.0209 -0.2375
 5280SOL    HW216740   4.566   6.222   0.336 -0.5752 -1.3246 -0.2464
 5281SOL     OW16741   2.978   5.402   5.934 -0.1599 -0.1276 -0.4111
 5281SOL    HW116742   2.965   5.305   5.914  3.1812 -0.2318 -2.9283
 5281SOL    HW216743   2.969   5.455   5.849 -2.6716  1.9608  1.0315
 5282SOL     OW16744   1.751   5.297   0.369 -0.2088  0.1672  0.1530
 5282SOL    HW116745   1.789   5.384   0.400  0.4442  0.0309 -0.2556
 5282SOL    HW216746   1.766   5.288   0.270  1.3345 -1.2186  0.4823
 5283SOL     OW16747   0.623   0.938   4.055 -0.4739 -0.3740  0.0607
 5283SOL    HW116748   0.572   0.999   3.995 -0.8374  0.7292  1.4399
 5283SOL    HW216749   0.715   0.924   4.018 -1.1775 -0.9933 -1.5431
 5284SOL     OW16750   5.036   2.854   2.390 -0.0832 -0.0951 -0.0240
 5284SOL    HW116751   4.973   2.918   2.434  1.0071  0.9948 -0.0377
 5284SOL    HW216752   5.072   2.893   2.306  0.0574 -1.0180 -0.4130
 5285SOL     OW16753   2.396   1.217   3.022  0.4483  0.9647 -0.5077
 5285SOL    HW116754   2.381   1.189   3.116 -4.2125  0.5280 -1.1435
 5285SOL    HW216755   2.392   1.316   3.015 -2.6508  0.9320 -0.4971
 5286SOL     OW16756   6.058   4.640   6.449 -0.2873  0.7996  0.6774
 5286SOL    HW116757   6.067   4.543   6.423  1.5337  1.1504 -0.1784
 5286SOL    HW216758   6.010   4.646   6.536 -2.9265 -0.6833 -0.5376
 5287SOL     OW16759   6.116   5.313   3.714 -0.2938  0.3053 -0.3774
 5287SOL    HW116760   6.028   5.360   3.710  0.2898  1.5100  0.3197
 5287SOL    HW216761   6.141   5.296   3.809  0.9111  1.3927 -0.4567
 5288SOL     OW16762   4.563   0.198   0.770 -0.1375 -0.2594 -0.1508
 5288SOL    HW116763   4.533   0.156   0.684  1.9435 -0.1950 -0.9796
 5288SOL    HW216764   4.496   0.266   0.799 -1.8485 -1.6563 -0.6370
 5289SOL     OW16765   0.825   5.157   1.146  0.2363 -0.4995  0.3429
 5289SOL    HW116766   0.761   5.213   1.199 -1.7387 -2.5660  0.2788
 5289SOL    HW216767   0.916   5.200   1.148 -0.5634  1.3054  2.4275
 5290SOL     OW16768   2.138   2.085   4.527 -0.1043 -0.1990 -0.0569
 5290SOL    HW116769   2.135   1.999   4.578 -0.6977  0.0235  0.2916
 5290SOL    HW216770   2.209   2.145   4.566 -0.6309  0.0138  0.5843
 5291SOL     OW16771   3.803   0.480   4.177  0.2024  0.1532  0.4312
 5291SOL    HW116772   3.712   0.486   4.136 -0.0775 -0.5376  0.9299
 5291SOL    HW216773   3.794   0.462   4.275  0.8768 -0.5872  0.3678
 5292SOL     OW16774   2.745   2.144   5.560 -0.2228 -0.5625 -0.3119
 5292SOL    HW116775   2.828   2.101   5.596 -1.4632 -1.7332  1.3351
 5292SOL    HW216776   2.711   2.210   5.626 -0.4888  0.0666 -1.0759
 5293SOL     OW16777   2.596   6.801   3.674  0.1473 -0.3448 -0.0752
 5293SOL    HW116778   2.665   6.756   3.729 -0.3382  0.6321  1.4042
 5293SOL    HW216779   2.557   6.878   3.725 -0.4910  0.4821 -1.7072
 5294SOL     OW16780   5.109   6.699   6.139 -0.1941 -0.4539 -0.1217
 5294SOL    HW116781   5.061   6.631   6.194 -0.0251 -0.8734 -0.4799
 5294SOL    HW216782   5.142   6.773   6.198 -1.0658 -0.2818  0.1550
 5295SOL     OW16783   0.919   6.926   1.856 -0.0945 -0.0326 -0.0737
 5295SOL    HW116784   0.967   6.860   1.914 -1.8487 -0.1591  1.3070
 5295SOL    HW216785   0.860   6.877   1.791  0.1509  0.1570 -0.4452
 5296SOL     OW16786   5.778   4.725   2.028  0.1621 -0.0283 -0.2317
 5296SOL    HW116787   5.742   4.818   2.022  0.3621  0.4086  3.3080
 5296SOL    HW216788   5.705   4.660   2.005 -0.9202  0.9731  0.2740
 5297SOL     OW16789   3.438   6.106   5.446 -0.0971 -0.4050 -0.0125
 5297SOL    HW116790   3.406   6.095   5.540  1.3648 -2.2846  0.3259
 5297SOL    HW216791   3.514   6.043   5.429 -1.0674 -0.9600 -2.8153
 5298SOL     OW16792   4.107   1.375   6.160  0.2803  0.9870 -0.1125
 5298SOL    HW116793   4.053   1.326   6.092  1.2884  1.5534 -1.3592
 5298SOL    HW216794   4.080   1.471   6.162 -0.6810  0.7336  1.2991
 5299SOL     OW16795   2.552   0.554   0.449 -0.1920  0.3203  0.8612
 5299SOL    HW116796   2.492   0.503   0.387  0.3496  1.3671 -0.5798
 5299SOL    HW216797   2.646   0.550   0.414  0.0056  1.5392  1.2277
 5300SOL     OW16798   1.546   3.320   6.898 -0.4443  0.1597 -0.0747
 5300SOL    HW116799   1.641   3.342   6.874 -0.0191 -0.3057  1.1170
 5300SOL    HW216800   1.506   3.397   6.947 -0.4383  0.0461  0.1057
 5301SOL     OW16801   0.925   6.596   6.914  0.7383  0.1497 -0.2736
 5301SOL    HW116802   1.013   6.554   6.892  0.9219 -0.4663  1.4847
 5301SOL    HW216803   0.917   6.683   6.866  0.3219 -1.7944 -4.0918
 5302SOL     OW16804   4.167   5.221   4.787 -0.3014 -0.2028 -0.0484
 5302SOL    HW116805   4.240   5.259   4.844  1.1272 -1.1263 -1.2061
 5302SOL    HW216806   4.125   5.295   4.733  0.5799  0.1676 -0.2412
 5303SOL     OW16807   1.444   5.353   3.464 -0.0153  0.5915 -0.1692
 5303SOL    HW116808   1.503   5.366   3.544 -0.2983 -1.6245  0.4643
 5303SOL    HW216809   1.498   5.316   3.389 -0.4366 -1.0390  0.2796
 5304SOL     OW16810   0.187   6.797   4.007 -0.2358 -0.4406 -0.6364
 5304SOL    HW116811   0.093   6.817   4.036 -0.8118 -2.5461 -0.9442
 5304SOL    HW216812   0.250   6.822   4.081 -1.0834  0.2428 -0.1132
 5305SOL     OW16813   5.642   0.255   4.895  0.4511  0.6498  0.1044
 5305SOL    HW116814   5.564   0.216   4.846  1.7428 -2.1133  0.0886
 5305SOL    HW216815   5.621   0.259   4.993 -0.4228  1.8958 -0.1037
 5306SOL     OW16816   2.811   3.376   6.808  0.2857 -0.4724 -0.1472
 5306SOL    HW116817   2.906   3.404   6.818  0.7614 -1.9096 -0.3909
 5306SOL    HW216818   2.804   3.307   6.736 -0.8597 -0.7458  0.2102
 5307SOL     OW16819   1.254   0.018   2.314 -0.5401 -0.2092  0.4224
 5307SOL    HW116820   1.293  -0.053   2.255 -2.7052 -0.3777 -0.9232
 5307SOL    HW216821   1.295   0.012   2.405  0.6443 -1.9866 -0.1672
 5308SOL     OW16822   2.816   4.703   2.391  0.4519  0.0234 -0.2261
 5308SOL    HW116823   2.808   4.718   2.293  2.8910  1.3909 -0.2997
 5308SOL    HW216824   2.725   4.696   2.432 -0.6313  1.1516 -2.3223
 5309SOL     OW16825   6.801   5.387   0.675 -0.2056 -0.7132 -0.0728
 5309SOL    HW116826   6.792   5.346   0.766 -1.8279 -0.8219 -0.2492
 5309SOL    HW216827   6.811   5.486   0.684 -1.7999 -0.5538  0.2094
 5310SOL     OW16828   1.142   2.958   4.019 -0.3364  0.1653  0.6201
 5310SOL    HW116829   1.193   2.873   4.011  2.3532  1.3708  3.2533
 5310SOL    HW216830   1.088   2.957   4.103 -0.9055  0.7714  0.2745
 5311SOL     OW16831   5.299   0.010   0.479  0.4908 -0.4844 -0.1595
 5311SOL    HW116832   5.374  -0.048   0.448  0.4765  0.0109 -1.1316
 5311SOL    HW216833   5.256  -0.032   0.559  0.8389 -1.5306 -0.5085
 5312SOL     OW16834   5.727   5.935   0.869 -0.2361  0.4087 -0.2573
 5312SOL    HW116835   5.719   5.853   0.813  0.1631 -0.9667  1.6006
 5312SOL    HW216836   5.643   5.949   0.921 -0.7315  1.8555 -1.4023
 5313SOL     OW16837   3.241   6.235   5.986  0.1502 -0.4148  0.7154
 5313SOL    HW116838   3.248   6.312   5.923 -1.1604  0.5664  1.6996
 5313SOL    HW216839   3.163   6.178   5.961  0.0419 -0.4061  1.0251
 5314SOL     OW16840   0.536   1.763   4.284  0.0136 -0.3252 -0.1320
 5314SOL    HW116841   0.470   1.826   4.242  0.0969 -0.2325 -0.1252
 5314SOL    HW216842   0.611   1.747   4.220 -0.1337 -0.6176 -0.2324
 5315SOL     OW16843   2.893   2.252   4.590  0.0631 -0.3494 -0.0005
 5315SOL    HW116844   2.980   2.238   4.542 -0.6871 -0.1718 -1.4519
 5315SOL    HW216845   2.912   2.268   4.688  1.7977  1.3602 -0.5344
 5316SOL     OW16846   0.277   3.544   5.916  0.0187  0.0578  0.5406
 5316SOL    HW116847   0.323   3.504   5.837 -1.3049 -2.4165  0.9225
 5316SOL    HW216848   0.343   3.595   5.971  1.2560  0.5890 -1.3421
 5317SOL     OW16849   5.305   1.402   6.731  0.4500 -0.5092 -0.6232
 5317SOL    HW116850   5.403   1.422   6.728  0.6192 -1.0862  0.4160
 5317SOL    HW216851   5.259   1.445   6.653  1.1828  1.5959  0.0420
 5318SOL     OW16852   6.900   3.340   5.849 -0.6352  0.0059  0.4792
 5318SOL    HW116853   6.850   3.332   5.763  0.1551  1.4717 -0.1481
 5318SOL    HW216854   6.956   3.258   5.863 -0.3527 -0.0185 -0.6975
 5319SOL     OW16855   2.641   4.722   3.008 -0.0581  0.3182 -0.7088
 5319SOL    HW116856   2.611   4.696   2.916  0.6099 -0.2267 -0.7809
 5319SOL    HW216857   2.618   4.648   3.072  0.1780  0.3526 -0.5821
 5320SOL     OW16858   3.874   0.423   6.241 -0.3144  0.3702  0.2681
 5320SOL    HW116859   3.919   0.502   6.200 -1.6963  1.1678  0.2058
 5320SOL    HW216860   3.925   0.340   6.218 -0.1252  0.9656 -1.7110
 5321SOL     OW16861   0.045   3.501   5.109  0.0319 -0.5341 -0.3511
 5321SOL    HW116862  -0.007   3.581   5.079 -0.4990 -0.7955 -0.1479
 5321SOL    HW216863  -0.010   3.419   5.096 -0.5570 -0.6042  2.0217
 5322SOL     OW16864   4.711   5.241   1.903  0.2582 -0.2072 -0.4794
 5322SOL    HW116865   4.717   5.144   1.880 -1.2512 -0.5804  0.6007
 5322SOL    HW216866   4.750   5.256   1.994  1.1939  0.3542 -0.9522
 5323SOL     OW16867   3.390   1.217   5.065  0.7125  0.0980 -0.3500
 5323SOL    HW116868   3.307   1.164   5.046  0.7471 -0.3496  0.6844
 5323SOL    HW216869   3.463   1.187   5.003  0.2814  0.0376 -0.8306
 5324SOL     OW16870   0.889   6.799   2.086  0.4377 -0.3112  0.5241
 5324SOL    HW116871   0.959   6.762   2.146 -0.7590 -1.8661  1.0225
 5324SOL    HW216872   0.811   6.831   2.140  0.0252 -0.2081 -0.1118
 5325SOL     OW16873   2.159   2.922   5.162  0.1672 -0.3026  0.2090
 5325SOL    HW116874   2.141   2.828   5.136 -0.4983  0.1829 -1.1896
 5325SOL    HW216875   2.248   2.950   5.125  0.6598 -0.5531  1.1623
 5326SOL     OW16876   0.543   1.004   6.911  0.4354  0.5997 -0.0311
 5326SOL    HW116877   0.450   0.978   6.885 -0.0396  1.2563  0.9298
 5326SOL    HW216878   0.555   1.102   6.895  0.5583  0.7550  0.9625
 5327SOL     OW16879   0.762   3.276   5.748  0.4530  0.2305  0.4728
 5327SOL    HW116880   0.704   3.206   5.707  0.9797 -0.4255  0.8090
 5327SOL    HW216881   0.748   3.363   5.702  1.0276 -0.4731 -1.1060
 5328SOL     OW16882   4.106   5.182   6.697 -0.1677  0.3054  0.0826
 5328SOL    HW116883   4.161   5.241   6.757 -2.0661  0.4997  1.7446
 5328SOL    HW216884   4.064   5.110   6.751  1.3867 -2.1526 -1.7818
 5329SOL     OW16885   2.342   0.049   6.616 -0.2761 -0.4380  0.1651
 5329SOL    HW116886   2.410  -0.020   6.591  0.5337 -0.7987  2.9364
 5329SOL    HW216887   2.332   0.116   6.542  2.7680 -0.6286 -0.5273
 5330SOL     OW16888   2.767   6.673   6.712 -0.1335 -0.1789  0.0608
 5330SOL    HW116889   2.759   6.686   6.613  0.6414 -1.2905 -0.1678
 5330SOL    HW216890   2.857   6.635   6.734  0.4943  1.8947  1.4134
 5331SOL     OW16891   0.976   2.350   0.660  0.2671 -0.4407  0.0684
 5331SOL    HW116892   0.948   2.340   0.756 -1.4092 -1.7168 -0.5065
 5331SOL    HW216893   0.932   2.432   0.622 -2.7473 -2.2932 -0.7562
 5332SOL     OW16894   1.736   5.043   2.062 -0.8780 -0.0789  0.2161
 5332SOL    HW116895   1.714   5.085   1.974  1.7639 -2.1998 -1.6119
 5332SOL    HW216896   1.653   5.007   2.104 -2.7046  3.7412  0.2660
 5333SOL     OW16897   0.679   6.099   5.171 -0.0153 -0.7264  0.2527
 5333SOL    HW116898   0.766   6.138   5.143 -0.9920  1.0975 -0.3863
 5333SOL    HW216899   0.650   6.030   5.104 -0.2552  0.4911 -0.9285
 5334SOL     OW16900   5.524   0.354   4.010  0.3785  0.4377 -0.2227
 5334SOL    HW116901   5.589   0.286   3.977 -0.4354  0.6586 -2.3902
 5334SOL    HW216902   5.449   0.309   4.057 -0.0185 -0.1619 -1.4121
 5335SOL     OW16903   6.594   5.904   1.937 -0.0937  0.3554  0.1480
 5335SOL    HW116904   6.517   5.923   1.876 -0.0736 -0.3461 -0.1084
 5335SOL    HW216905   6.641   5.989   1.959  0.5509  0.5126 -1.6755
 5336SOL     OW16906   0.408   3.481   1.007 -0.6225  0.4086 -0.4517
 5336SOL    HW116907   0.375   3.407   1.066  2.9974 -1.3775 -0.3931
 5336SOL    HW216908   0.390   3.569   1.051  1.1372 -0.8062  3.1183
 5337SOL     OW16909   5.192   5.263   0.020  0.4873  0.0887  0.1749
 5337SOL    HW116910   5.267   5.328   0.033 -0.0554  0.6347  0.6807
 5337SOL    HW216911   5.165   5.264  -0.077  1.6036 -0.6649 -0.1631
 5338SOL     OW16912   5.524   1.669   1.127  0.3553 -0.5150 -0.4325
 5338SOL    HW116913   5.504   1.575   1.155  0.8308 -0.3510  0.4881
 5338SOL    HW216914   5.566   1.719   1.203  0.0262  0.4736 -0.8788
 5339SOL     OW16915   6.551   0.260   2.151 -0.3730  0.0912 -0.0989
 5339SOL    HW116916   6.477   0.324   2.171  0.6513  1.3244 -0.1179
 5339SOL    HW216917   6.562   0.252   2.052 -0.1960  0.2772 -0.0970
 5340SOL     OW16918   5.887   2.314   6.867 -0.1654  0.0501  0.4218
 5340SOL    HW116919   5.939   2.274   6.942  1.6155 -4.3438 -2.7260
 5340SOL    HW216920   5.838   2.243   6.817  0.0408  2.3287 -3.5055
 5341SOL     OW16921   2.887   0.810   1.766  0.9316 -0.3019  0.4310
 5341SOL    HW116922   2.926   0.720   1.785 -1.0073 -1.3977 -0.4705
 5341SOL    HW216923   2.870   0.820   1.668  0.7195  0.8824  0.5668
 5342SOL     OW16924   1.130   6.686   5.877 -0.1644  1.0967 -0.2835
 5342SOL    HW116925   1.159   6.735   5.960  0.0184 -1.0056  0.9626
 5342SOL    HW216926   1.044   6.639   5.894  0.4537 -0.3062 -0.8910
 5343SOL     OW16927   3.000   2.987   1.373  0.9248  0.1831 -0.5192
 5343SOL    HW116928   3.043   2.971   1.284  0.8755  0.0900 -0.5264
 5343SOL    HW216929   2.916   3.039   1.361  0.4521 -0.5867 -0.6172
 5344SOL     OW16930   2.184   0.691   1.689  0.6471  0.1823  0.2360
 5344SOL    HW116931   2.239   0.765   1.650  1.9173  0.2652  2.0383
 5344SOL    HW216932   2.113   0.729   1.748 -0.7869  0.0326 -1.3146
 5345SOL     OW16933   4.663   0.553   2.628 -0.5607  0.4694  0.2975
 5345SOL    HW116934   4.569   0.572   2.659 -0.7848 -2.3921  1.6931
 5345SOL    HW216935   4.721   0.538   2.708  0.3126 -0.9982 -0.5805
 5346SOL     OW16936   1.159   2.472   2.674 -0.1150  0.1166 -0.4846
 5346SOL    HW116937   1.129   2.378   2.690  1.0990  0.0505  1.9271
 5346SOL    HW216938   1.128   2.530   2.749 -0.9241  1.7219 -1.9776
 5347SOL     OW16939   5.696   2.526   2.145 -0.0201  0.1111 -0.6165
 5347SOL    HW116940   5.600   2.543   2.122 -0.2332  0.8377  0.6630
 5347SOL    HW216941   5.740   2.612   2.172 -0.0598 -0.6775  2.3451
 5348SOL     OW16942   6.729   1.154   0.657  0.0822 -0.0449 -0.0025
 5348SOL    HW116943   6.796   1.101   0.709  0.9281  1.2361  0.2534
 5348SOL    HW216944   6.734   1.127   0.561 -1.8544 -2.8005  0.5509
 5349SOL     OW16945   3.945   6.401   6.620  0.1963  0.3890  0.2548
 5349SOL    HW116946   3.890   6.411   6.537 -1.7253 -2.3135  1.0635
 5349SOL    HW216947   4.019   6.336   6.604 -1.1439 -1.4043  0.9798
 5350SOL     OW16948   4.648   6.904   1.272 -0.5846 -0.5172 -0.1568
 5350SOL    HW116949   4.588   6.970   1.226 -0.9672 -0.8253 -0.1055
 5350SOL    HW216950   4.640   6.915   1.371  0.4533  0.3382 -0.1502
 5351SOL     OW16951   3.545   2.069   1.490 -0.1812 -0.3653 -0.8443
 5351SOL    HW116952   3.631   2.032   1.525 -0.3743 -0.2412 -0.2375
 5351SOL    HW216953   3.513   2.142   1.550 -1.2370 -1.0869 -0.5118
 5352SOL     OW16954   3.863   1.221   5.150 -0.8073  0.3778 -0.0485
 5352SOL    HW116955   3.928   1.182   5.085 -1.3420 -0.4160 -0.1140
 5352SOL    HW216956   3.778   1.169   5.148 -0.8246  0.3224  1.3161
 5353SOL     OW16957   6.909   1.615   4.341 -0.2542  0.2740 -0.0456
 5353SOL    HW116958   6.983   1.638   4.404 -0.4400  0.6070  0.0544
 5353SOL    HW216959   6.948   1.578   4.256  0.0425  0.6506 -0.0782
 5354SOL     OW16960   0.276   3.261   1.141 -0.0748  0.7857 -0.0122
 5354SOL    HW116961   0.346   3.189   1.136 -0.5353  0.3699 -0.5529
 5354SOL    HW216962   0.204   3.242   1.075  0.3472  2.3289 -0.9594
 5355SOL     OW16963   4.750   1.457   4.438  0.0336  0.0795  0.2814
 5355SOL    HW116964   4.821   1.515   4.399 -0.6872 -0.2191 -1.5892
 5355SOL    HW216965   4.667   1.464   4.382 -1.7046  0.9801  2.7830
 5356SOL     OW16966   5.174   3.296   1.966 -0.1151  0.0403  0.0248
 5356SOL    HW116967   5.074   3.289   1.969 -0.1635  0.1929 -0.9582
 5356SOL    HW216968   5.208   3.315   2.058 -0.9567 -0.3754  0.4416
 5357SOL     OW16969   3.505   6.563   0.660 -0.0861  0.0124 -0.4081
 5357SOL    HW116970   3.492   6.498   0.585 -1.4184 -0.0159 -0.1697
 5357SOL    HW216971   3.574   6.528   0.723  2.1801  0.6869 -2.3128
 5358SOL     OW16972   3.991   5.938   2.487  0.0942  0.6785  0.1609
 5358SOL    HW116973   4.020   6.016   2.542  2.0263  0.4787 -0.4863
 5358SOL    HW216974   3.953   5.971   2.401 -0.3535  0.9226  0.4468
 5359SOL     OW16975   1.163   1.187   6.312  0.0699 -0.3125  0.4864
 5359SOL    HW116976   1.261   1.171   6.297  0.3268  0.1304  1.5501
 5359SOL    HW216977   1.132   1.130   6.388 -0.2734  0.2436  0.7713
 5360SOL     OW16978   3.930   2.347   6.387 -0.0420  0.2542  0.7018
 5360SOL    HW116979   3.948   2.334   6.289 -0.4297  0.0292  0.6588
 5360SOL    HW216980   4.016   2.349   6.437  0.1064 -0.8763  0.5048
 5361SOL     OW16981   1.490   0.106   6.374 -0.2122 -0.1990 -0.4419
 5361SOL    HW116982   1.435   0.176   6.328 -0.3778  0.6106  0.9345
 5361SOL    HW216983   1.440   0.072   6.454  0.8532 -0.1892  0.2443
 5362SOL     OW16984   3.649   5.678   4.233  0.0401  0.1100  0.2657
 5362SOL    HW116985   3.597   5.607   4.280 -1.5595 -0.1230 -1.6982
 5362SOL    HW216986   3.621   5.768   4.268 -0.5692 -0.0863  0.3037
 5363SOL     OW16987   6.133   5.671   3.798 -0.2385 -0.0496  0.1072
 5363SOL    HW116988   6.230   5.681   3.778 -0.1273 -2.0197 -0.5243
 5363SOL    HW216989   6.093   5.761   3.812  1.1586  1.0118 -2.0935
 5364SOL     OW16990   0.732   4.955   0.415  0.4283  0.1617 -0.1810
 5364SOL    HW116991   0.820   4.910   0.402 -0.5604 -1.7825 -0.5920
 5364SOL    HW216992   0.737   5.018   0.492  2.3347  0.5965 -0.6187
 5365SOL     OW16993   4.045   4.094   5.493 -0.0714 -0.2221  0.5792
 5365SOL    HW116994   4.083   4.121   5.405  1.7178  3.7440  2.3207
 5365SOL    HW216995   4.112   4.039   5.543  0.0386 -0.1739  0.4857
 5366SOL     OW16996   3.172   3.455   6.404  0.0823 -0.0479  0.4131
 5366SOL    HW116997   3.215   3.367   6.388 -1.5400 -0.7582 -0.3615
 5366SOL    HW216998   3.186   3.514   6.324  0.0141 -0.1132  0.3527
 5367SOL     OW16999   0.617   2.861   1.957 -0.2617  0.2927 -0.7334
 5367SOL    HW117000   0.680   2.808   2.013 -0.6589 -0.8894 -1.3673
 5367SOL    HW217001   0.661   2.883   1.870  0.3479  2.1078 -0.0116
 5368SOL     OW17002   6.749   0.169   2.322 -0.2590 -0.3172 -0.4065
 5368SOL    HW117003   6.825   0.233   2.332 -1.1668  0.6948  0.3307
 5368SOL    HW217004   6.682   0.208   2.258 -1.0557 -0.2801  0.4352
 5369SOL     OW17005   6.965   4.394   3.297 -0.2056 -0.2511 -0.3614
 5369SOL    HW117006   6.872   4.392   3.261 -0.0199  1.0753 -1.0057
 5369SOL    HW217007   6.967   4.445   3.383  0.0726  0.7315 -0.9271
 5370SOL     OW17008   3.934   2.049   2.049 -0.7108  0.3179 -0.2449
 5370SOL    HW117009   3.840   2.065   2.020 -1.6710  0.2241  2.5561
 5370SOL    HW217010   3.935   1.995   2.133  1.7966  1.2160  0.4028
 5371SOL     OW17011   3.797   4.223   6.358 -0.0364 -0.0772  0.3144
 5371SOL    HW117012   3.863   4.191   6.426  1.5049  1.7268 -0.2129
 5371SOL    HW217013   3.838   4.216   6.267 -1.2382 -0.4408 -0.2195
 5372SOL     OW17014   3.635   6.109   2.970  0.1826  0.1276  0.1467
 5372SOL    HW117015   3.603   6.108   3.065  0.7218 -0.4963  0.3253
 5372SOL    HW217016   3.649   6.203   2.940  1.7348  0.2903  1.2797
 5373SOL     OW17017   3.545   5.539   3.834 -0.0241  0.0689 -0.0394
 5373SOL    HW117018   3.503   5.456   3.797 -0.5707 -0.6553  2.0557
 5373SOL    HW217019   3.633   5.516   3.875  1.1365  1.0680 -1.8699
 5374SOL     OW17020   3.488   1.801   1.239  0.5674 -0.1954 -0.3080
 5374SOL    HW117021   3.466   1.789   1.143  0.1499  0.0845 -0.2502
 5374SOL    HW217022   3.440   1.881   1.275  1.4807  0.2800 -0.1097
 5375SOL     OW17023   1.287   5.051   3.532  0.4432  0.6215  0.2788
 5375SOL    HW117024   1.304   4.954   3.516 -1.2637  0.5199 -1.1479
 5375SOL    HW217025   1.297   5.101   3.446 -2.1491  1.1408  0.2047
 5376SOL     OW17026   3.262   5.594   5.292  0.4835 -0.1160  0.0844
 5376SOL    HW117027   3.344   5.641   5.257 -0.5231 -0.3365 -2.8076
 5376SOL    HW217028   3.241   5.629   5.383  1.7047  2.6205 -0.5667
 5377SOL     OW17029   2.531   1.862   2.403 -0.0595 -0.3921 -0.9089
 5377SOL    HW117030   2.473   1.843   2.324  2.2785 -3.7662 -2.0220
 5377SOL    HW217031   2.493   1.818   2.484 -0.5385 -0.0433 -0.9373
 5378SOL     OW17032   6.087   6.287   0.373 -0.1306  0.2519 -0.5240
 5378SOL    HW117033   5.991   6.280   0.400 -0.3280 -1.6677 -1.5765
 5378SOL    HW217034   6.092   6.315   0.277  0.3492  0.1997 -0.5151
 5379SOL     OW17035   5.848   6.403   0.757 -0.3016  0.1003 -0.2758
 5379SOL    HW117036   5.769   6.454   0.721  0.1056  0.6422 -0.4056
 5379SOL    HW217037   5.932   6.437   0.715 -0.1450 -1.7371 -1.5688
 5380SOL     OW17038   1.355   1.955   3.810 -0.1364 -0.0300  0.4354
 5380SOL    HW117039   1.428   1.894   3.839  0.2082  0.3976  0.4704
 5380SOL    HW217040   1.378   2.049   3.835  0.1660  0.3542 -1.2016
 5381SOL     OW17041   0.824   2.128   2.792  0.4161  0.3433  0.4925
 5381SOL    HW117042   0.756   2.061   2.821 -0.1915  0.8833  0.3332
 5381SOL    HW217043   0.883   2.152   2.868  0.9944 -0.7925  0.4109
 5382SOL     OW17044   1.834   0.014   1.080  0.3155  0.2740 -0.0461
 5382SOL    HW117045   1.811  -0.049   1.154  2.5410  0.5533  0.9826
 5382SOL    HW217046   1.916  -0.019   1.032  1.3747  2.1698  0.3510
 5383SOL     OW17047   3.368   1.390   3.974  0.1216 -0.4468  0.1610
 5383SOL    HW117048   3.397   1.427   4.062  1.2670 -0.5888 -0.1484
 5383SOL    HW217049   3.285   1.335   3.988  0.7190 -1.1102  1.2831
 5384SOL     OW17050   5.901   0.680   5.638  0.4009 -0.6120  0.1583
 5384SOL    HW117051   5.818   0.637   5.672  0.6530  0.0860  1.7265
 5384SOL    HW217052   5.951   0.722   5.714  1.8622 -0.4548 -0.8432
 5385SOL     OW17053   3.111   3.918   1.677 -0.1305  0.1563 -0.2672
 5385SOL    HW117054   3.065   3.909   1.589  0.1624  0.4050 -0.4479
 5385SOL    HW217055   3.205   3.949   1.663 -0.1641  0.4603  0.1522
 5386SOL     OW17056   5.651   5.528   4.648 -0.0410 -0.6673  0.2411
 5386SOL    HW117057   5.574   5.586   4.620 -0.2570 -1.1579 -0.2168
 5386SOL    HW217058   5.721   5.530   4.576  0.6014  0.1592  0.8716
 5387SOL     OW17059   4.187   5.171   0.051  0.0444  0.1342 -0.2768
 5387SOL    HW117060   4.181   5.088  -0.006  3.1155 -0.2473 -0.2110
 5387SOL    HW217061   4.250   5.236   0.008 -0.5215  1.4726  0.8504
 5388SOL     OW17062   6.587   5.480   0.954 -0.3561 -0.0272  0.2902
 5388SOL    HW117063   6.508   5.423   0.932  0.5169 -0.9796 -0.4543
 5388SOL    HW217064   6.669   5.423   0.962  0.0855  0.8000  2.1482
 5389SOL     OW17065   6.769   2.426   0.225  0.0669  0.9872  0.1128
 5389SOL    HW117066   6.716   2.511   0.225  0.5634  1.3067  0.1907
 5389SOL    HW217067   6.832   2.427   0.147 -0.0195  0.6272  0.0363
 5390SOL     OW17068   0.039   4.633   6.271  0.1212 -0.1001  0.3853
 5390SOL    HW117069   0.025   4.535   6.278 -0.7747 -0.1560 -1.5202
 5390SOL    HW217070  -0.040   4.681   6.308 -0.6962 -0.1984 -1.1391
 5391SOL     OW17071   3.674   6.658   0.313  0.0243  0.1835 -0.6311
 5391SOL    HW117072   3.746   6.690   0.251  0.7349 -1.3268 -0.6233
 5391SOL    HW217073   3.711   6.650   0.405 -0.4604  0.4075 -0.4132
 5392SOL     OW17074   1.316   0.984   3.452 -0.5175 -1.1083 -0.5340
 5392SOL    HW117075   1.390   1.002   3.386 -0.0266  0.9211  0.4997
 5392SOL    HW217076   1.301   0.885   3.458  0.9763 -1.4782 -1.9987
 5393SOL     OW17077   0.794   0.357   0.407  0.1449 -0.3899  0.2250
 5393SOL    HW117078   0.807   0.430   0.339 -0.4084  0.4642  1.0116
 5393SOL    HW217079   0.719   0.297   0.377 -0.3032  0.1641  0.2165
 5394SOL     OW17080   2.518   2.086   0.509 -0.2645 -0.0524 -0.0452
 5394SOL    HW117081   2.514   2.085   0.609  3.2961  0.3363  0.2277
 5394SOL    HW217082   2.547   1.996   0.476 -0.0465  0.2213 -0.6112
 5395SOL     OW17083   4.557   1.428   3.891  0.4330  0.7383  0.1106
 5395SOL    HW117084   4.526   1.469   3.805  1.4176 -0.8713 -1.0612
 5395SOL    HW217085   4.632   1.364   3.873  0.3799  0.0327  2.1175
 5396SOL     OW17086   3.773   2.266   0.473  0.3236 -0.3346  0.0174
 5396SOL    HW117087   3.828   2.311   0.403  0.2982 -1.4351 -0.7244
 5396SOL    HW217088   3.790   2.168   0.472 -0.4587 -0.5001  0.8612
 5397SOL     OW17089   2.604   4.057   1.309  0.0055  0.0491  0.5457
 5397SOL    HW117090   2.692   4.047   1.356 -0.1649  1.4338  1.2163
 5397SOL    HW217091   2.539   4.105   1.369 -1.1326 -0.7053 -0.0392
 5398SOL     OW17092   3.762   3.987   2.738  0.5412 -0.4639 -0.4579
 5398SOL    HW117093   3.843   3.931   2.716  0.8952 -0.6607  1.1838
 5398SOL    HW217094   3.780   4.040   2.820 -1.3932 -1.4067  0.6615
 5399SOL     OW17095   0.065   4.430   0.926 -0.4624  0.7947  0.1360
 5399SOL    HW117096   0.065   4.520   0.883  0.9484  0.4600 -0.6154
 5399SOL    HW217097   0.156   4.409   0.960 -1.1687  0.3580  1.8868
 5400SOL     OW17098   0.991   3.308   6.188  0.0549  0.2754 -0.3471
 5400SOL    HW117099   0.985   3.271   6.280 -0.9735 -1.0193 -0.9036
 5400SOL    HW217100   0.901   3.302   6.144  0.5586  0.7563 -1.4820
 5401SOL     OW17101   5.115   1.618   6.258 -0.4510  0.6947  0.7648
 5401SOL    HW117102   5.073   1.695   6.210 -0.4305  0.1076 -0.2249
 5401SOL    HW217103   5.047   1.545   6.271 -0.0056  0.1307  0.0172
 5402SOL     OW17104   6.679   6.490   3.789 -0.3547  0.1079 -0.1770
 5402SOL    HW117105   6.734   6.558   3.742 -1.7701  0.4695 -1.3854
 5402SOL    HW217106   6.596   6.533   3.826  0.2198 -0.3675  1.8044
 5403SOL     OW17107   1.225   3.157   6.703  0.0046 -0.1628 -0.1506
 5403SOL    HW117108   1.169   3.238   6.684 -0.1407 -0.1760  0.2218
 5403SOL    HW217109   1.266   3.164   6.794 -1.3384 -1.2413  0.5824
 5404SOL     OW17110   1.501   2.405   0.374 -0.6675  0.5398 -0.4376
 5404SOL    HW117111   1.557   2.485   0.395  0.7296 -0.7698  1.1504
 5404SOL    HW217112   1.554   2.322   0.391 -3.4804 -0.8639  2.8443
 5405SOL     OW17113   5.807   3.853   4.349  0.1007  0.0868 -0.1812
 5405SOL    HW117114   5.779   3.871   4.443  0.9418  1.4782 -0.1607
 5405SOL    HW217115   5.732   3.874   4.287 -0.5451 -1.0868  0.1779
 5406SOL     OW17116   0.672   6.903   3.013  0.4922  0.0596  0.0423
 5406SOL    HW117117   0.605   6.865   3.076 -0.1756  0.2882 -0.5085
 5406SOL    HW217118   0.695   6.835   2.943 -0.7290  0.6255 -0.9628
 5407SOL     OW17119   5.017   2.198   0.012  0.1370 -0.1221 -0.2325
 5407SOL    HW117120   5.008   2.229  -0.083 -1.1286 -2.5331 -0.9754
 5407SOL    HW217121   4.951   2.246   0.069  0.2463  0.6605 -0.7462
 5408SOL     OW17122   4.984   1.303   0.068  0.6713 -0.1602  0.1565
 5408SOL    HW117123   5.054   1.352   0.017 -0.4444 -0.2737 -1.5916
 5408SOL    HW217124   5.010   1.297   0.165  3.0507 -0.2247 -0.4206
 5409SOL     OW17125   3.492   0.959   1.247  0.1564  0.5069  0.5317
 5409SOL    HW117126   3.418   0.979   1.311 -0.4170 -1.5455  0.5850
 5409SOL    HW217127   3.459   0.972   1.153 -0.0740  0.1963  0.5694
 5410SOL     OW17128   2.334   2.279   2.479  0.1489  0.7125  0.2378
 5410SOL    HW117129   2.312   2.346   2.551  0.1848  1.2869 -0.2770
 5410SOL    HW217130   2.352   2.327   2.393  0.6139  0.0619 -0.0368
 5411SOL     OW17131   2.690   6.681   6.019 -0.0930  0.3599 -0.2529
 5411SOL    HW117132   2.729   6.592   5.995 -0.5827  0.3895 -1.2104
 5411SOL    HW217133   2.760   6.737   6.065 -0.1425 -0.9483  1.4767
 5412SOL     OW17134   6.121   1.384   3.328 -0.4836  0.2845 -0.2237
 5412SOL    HW117135   6.145   1.472   3.370 -0.7176  0.7534 -1.0439
 5412SOL    HW217136   6.107   1.397   3.229  0.3532 -0.8445 -0.5092
 5413SOL     OW17137   0.202   6.299   2.096  0.3180  0.2918  0.5831
 5413SOL    HW117138   0.106   6.275   2.087 -0.1730  2.6515 -1.3673
 5413SOL    HW217139   0.258   6.216   2.090 -1.4706 -0.9024 -0.4456
 5414SOL     OW17140   5.271   4.674   5.627 -0.5648 -0.8659 -0.7138
 5414SOL    HW117141   5.195   4.617   5.593 -0.4653 -0.8950 -0.8914
 5414SOL    HW217142   5.317   4.626   5.701 -1.0865 -0.5913 -0.2034
 5415SOL     OW17143   5.246   3.219   3.490  0.4837 -0.0369 -0.2803
 5415SOL    HW117144   5.173   3.153   3.503  0.6076 -0.4798 -1.6846
 5415SOL    HW217145   5.210   3.300   3.443  0.5631  0.4408  0.4644
 5416SOL     OW17146   3.703   1.229   4.772 -0.2475  0.1624  0.4937
 5416SOL    HW117147   3.728   1.311   4.825  0.8828  0.0540  0.1352
 5416SOL    HW217148   3.720   1.148   4.827 -2.2248  0.1639  1.1988
 5417SOL     OW17149   3.234   6.902   6.826 -0.1391 -0.5104 -0.0558
 5417SOL    HW117150   3.209   6.822   6.879  1.1454 -0.6488  0.3844
 5417SOL    HW217151   3.223   6.985   6.881  2.7056 -0.7706  1.1071
 5418SOL     OW17152   5.043   1.382   4.168  0.5170  0.0417 -0.5330
 5418SOL    HW117153   5.016   1.463   4.219  1.3148  0.6631 -1.0762
 5418SOL    HW217154   5.018   1.393   4.072 -0.5523 -0.9201 -0.3894
 5419SOL     OW17155   2.866   3.641   6.551  0.0299 -0.2008  0.0439
 5419SOL    HW117156   2.891   3.709   6.482 -0.4690  1.4665  1.4478
 5419SOL    HW217157   2.767   3.644   6.567  0.3178  0.5645  1.9273
 5420SOL     OW17158   1.299   1.890   2.361  0.0250 -0.1753 -0.2769
 5420SOL    HW117159   1.390   1.901   2.401 -0.6425 -0.7705  1.5305
 5420SOL    HW217160   1.259   1.981   2.345  0.3437  0.0897  0.3865
 5421SOL     OW17161   3.864   3.183   0.610  0.3058  0.6888 -0.3527
 5421SOL    HW117162   3.841   3.262   0.553  0.7126  0.0136 -1.4878
 5421SOL    HW217163   3.940   3.207   0.670  1.1721  0.8503 -1.4791
 5422SOL     OW17164   6.014   4.392   1.524 -0.0087 -0.4095 -0.0107
 5422SOL    HW117165   5.988   4.307   1.570 -2.0793  0.2406  0.1199
 5422SOL    HW217166   6.014   4.379   1.425  0.9456 -0.8717  0.0388
 5423SOL     OW17167   4.931   2.704   5.340  0.1455  0.4340  0.2897
 5423SOL    HW117168   4.880   2.712   5.254 -1.2619  0.7674  1.1258
 5423SOL    HW217169   4.920   2.788   5.393  1.0494  0.2549  0.7703
 5424SOL     OW17170   6.340   3.518   0.716  0.0066  0.0767  0.7697
 5424SOL    HW117171   6.255   3.554   0.753 -0.4230  0.2980 -0.3759
 5424SOL    HW217172   6.325   3.491   0.620  0.4476 -2.6041  1.3883
 5425SOL     OW17173   5.392   0.612   4.675 -0.3396  0.2065  0.1001
 5425SOL    HW117174   5.347   0.680   4.617  1.5496  0.5939 -0.9883
 5425SOL    HW217175   5.329   0.535   4.691 -1.5016  0.8806 -1.0308
 5426SOL     OW17176   6.567   1.073   3.844  0.6622  0.3737  0.0275
 5426SOL    HW117177   6.544   1.041   3.936  0.3408  3.1653  1.0257
 5426SOL    HW217178   6.665   1.061   3.827  0.9689  0.9997  1.2682
 5427SOL     OW17179   3.559   4.317   0.349 -0.3834  0.2329  0.0427
 5427SOL    HW117180   3.646   4.366   0.339 -1.0270  1.4168  0.1373
 5427SOL    HW217181   3.500   4.366   0.412 -1.8207  0.4262 -1.3921
 5428SOL     OW17182   2.160   6.434   6.147 -0.2549  0.2846 -0.6743
 5428SOL    HW117183   2.237   6.489   6.113 -1.2827  0.7825 -2.2875
 5428SOL    HW217184   2.074   6.477   6.121 -1.2691  1.4437  3.7278
 5429SOL     OW17185   1.281   1.574   4.638 -0.0432  0.5360  0.3572
 5429SOL    HW117186   1.284   1.551   4.736 -0.0299  0.3653  0.3177
 5429SOL    HW217187   1.368   1.551   4.595 -0.2338  0.1060  0.1969
 5430SOL     OW17188   2.334   1.710   5.882  0.2124  0.3759  0.3267
 5430SOL    HW117189   2.320   1.800   5.842  2.4752 -0.3093 -2.3236
 5430SOL    HW217190   2.292   1.641   5.822 -0.6783 -0.4222  1.8271
 5431SOL     OW17191   2.456   4.897   3.405  0.3031 -0.2344  0.2222
 5431SOL    HW117192   2.443   4.930   3.499  0.2043 -3.8729  1.6938
 5431SOL    HW217193   2.545   4.852   3.398  0.2913 -0.0433 -1.4498
 5432SOL     OW17194   6.524   1.851   0.627 -0.0959 -0.0493 -0.0596
 5432SOL    HW117195   6.576   1.934   0.645 -2.2056  1.5727 -1.0593
 5432SOL    HW217196   6.452   1.870   0.561 -2.0262 -2.1367  1.2803
 5433SOL     OW17197   2.742   1.304   2.580 -0.2627  0.2340 -0.1472
 5433SOL    HW117198   2.753   1.395   2.539  0.0394  0.7547  1.0368
 5433SOL    HW217199   2.762   1.234   2.512 -0.9296  1.0422 -1.2069
 5434SOL     OW17200   0.849   6.480   4.841 -0.6134 -0.0226 -0.1307
 5434SOL    HW117201   0.798   6.523   4.766  0.6833 -1.5835 -2.0206
 5434SOL    HW217202   0.862   6.383   4.820  1.5929 -0.0524  1.1123
 5435SOL     OW17203   5.209   2.113   2.817  0.2282 -0.0281 -0.6015
 5435SOL    HW117204   5.118   2.147   2.838 -0.1060 -1.3360  0.1131
 5435SOL    HW217205   5.268   2.124   2.897  1.1995  2.2659 -1.5179
 5436SOL     OW17206   5.604   3.070   3.850 -0.1892  0.0109 -0.3396
 5436SOL    HW117207   5.636   3.158   3.886  0.7353 -0.1080 -0.8422
 5436SOL    HW217208   5.504   3.067   3.854 -0.1600  0.3744  1.3039
 5437SOL     OW17209   3.363   4.254   5.657  1.0210 -0.6125  0.0895
 5437SOL    HW117210   3.305   4.179   5.624  0.3932 -0.5373  0.9650
 5437SOL    HW217211   3.393   4.310   5.580 -2.9031  1.3737 -0.2635
 5438SOL     OW17212   4.295   7.002   1.745 -0.2103  0.1103  0.2017
 5438SOL    HW117213   4.303   7.012   1.844 -0.2428  0.4754  0.1686
 5438SOL    HW217214   4.202   6.974   1.721 -0.0659 -0.4759  0.3106
 5439SOL     OW17215   1.349   2.803   0.487 -0.4452  0.0713 -0.2258
 5439SOL    HW117216   1.256   2.837   0.472 -0.0450  1.6418  0.6452
 5439SOL    HW217217   1.412   2.849   0.425  0.3463  2.3153  2.0586
 5440SOL     OW17218   1.945   1.018   6.927  0.0827 -0.6572 -0.8225
 5440SOL    HW117219   1.970   0.950   6.859 -2.3699 -1.4136 -1.0659
 5440SOL    HW217220   1.966   0.983   7.019  0.3601 -1.0125 -1.0196
 5441SOL     OW17221   2.978   2.318   6.304 -0.1603 -0.0096  0.0098
 5441SOL    HW117222   3.042   2.323   6.382 -1.2363 -1.9125  1.0948
 5441SOL    HW217223   2.910   2.390   6.313  1.2118  1.4176 -0.6179
 5442SOL     OW17224   3.562   1.667   3.134 -0.0436  0.1666 -0.4391
 5442SOL    HW117225   3.468   1.697   3.150  0.4474  0.0712  3.7687
 5442SOL    HW217226   3.570   1.569   3.155  1.1612  0.4044  0.3004
 5443SOL     OW17227   1.110   4.713   4.069  0.3007  0.0946  0.0839
 5443SOL    HW117228   1.101   4.761   3.982  0.4999 -0.2722 -0.1421
 5443SOL    HW217229   1.157   4.626   4.054 -0.9302 -0.6321  0.3359
 5444SOL     OW17230   0.372   0.180   5.479  0.0841  0.0014 -0.2016
 5444SOL    HW117231   0.432   0.115   5.432  0.1296 -0.7872  0.9168
 5444SOL    HW217232   0.278   0.167   5.447 -0.1451 -1.6220  1.0280
 5445SOL     OW17233   6.817   3.966   1.461  0.2619 -0.3786 -0.2240
 5445SOL    HW117234   6.846   4.000   1.550  1.8485  1.7559 -1.4477
 5445SOL    HW217235   6.775   3.876   1.471  1.2082 -0.5949  2.5350
 5446SOL     OW17236   5.408   0.451   0.522 -0.2884  0.2372  0.4895
 5446SOL    HW117237   5.347   0.494   0.456  0.6162  0.2871 -0.3339
 5446SOL    HW217238   5.354   0.402   0.590 -1.2438  0.3775 -0.1479
 5447SOL     OW17239   4.407   2.222   0.313  0.4523 -0.1328 -0.0004
 5447SOL    HW117240   4.327   2.241   0.256  1.0792  1.2188 -0.4517
 5447SOL    HW217241   4.444   2.132   0.289 -0.1122 -0.1790 -0.7287
 5448SOL     OW17242   4.311   0.520   6.869  0.2227 -0.1691 -0.2901
 5448SOL    HW117243   4.350   0.592   6.926  1.4481 -0.5930 -0.5539
 5448SOL    HW217244   4.215   0.541   6.849  0.3880  1.0744  0.1383
 5449SOL     OW17245   2.001   4.197   6.675  0.0960 -0.5312 -0.0758
 5449SOL    HW117246   2.019   4.295   6.688 -0.5410 -0.7154  3.2455
 5449SOL    HW217247   1.906   4.184   6.647  0.0679 -0.1942 -0.1414
 5450SOL     OW17248   2.458   5.069   1.133  0.2120 -0.1110 -1.0168
 5450SOL    HW117249   2.506   5.050   1.048 -0.3227 -0.1533 -1.3119
 5450SOL    HW217250   2.486   5.002   1.203  1.7375  0.7999 -0.7236
 5451SOL     OW17251   1.182   6.657   0.716 -0.0494  0.2500 -0.0921
 5451SOL    HW117252   1.260   6.597   0.700  0.3151  0.2152  1.6215
 5451SOL    HW217253   1.099   6.614   0.679  0.9222  1.1770 -3.7520
 5452SOL     OW17254   2.795   3.949   5.741 -0.3030  0.1214  1.1889
 5452SOL    HW117255   2.697   3.960   5.761 -0.5455  0.1164  0.0499
 5452SOL    HW217256   2.813   3.973   5.646  1.1097  1.8158  1.8246
 5453SOL     OW17257   0.901   4.518   6.060 -0.0154 -0.5147 -0.2875
 5453SOL    HW117258   0.844   4.585   6.108  0.2823  0.5902 -1.4562
 5453SOL    HW217259   0.953   4.465   6.127 -0.9130 -0.1858  0.6940
 5454SOL     OW17260   1.831   3.680   6.248  0.0381 -0.2252  0.2568
 5454SOL    HW117261   1.754   3.742   6.234  0.6575  0.4312 -0.2984
 5454SOL    HW217262   1.870   3.656   6.159  1.2228  0.3993  0.5966
 5455SOL     OW17263   6.371   0.428   2.242 -0.1391 -0.3322  0.5002
 5455SOL    HW117264   6.430   0.478   2.305  0.6671 -1.5877  0.7833
 5455SOL    HW217265   6.316   0.492   2.189 -1.0391  0.7727  2.6436
 5456SOL     OW17266   3.604   0.730   2.989 -0.3883 -0.0361  0.6637
 5456SOL    HW117267   3.643   0.816   3.021 -0.3179  0.4422 -0.6248
 5456SOL    HW217268   3.504   0.736   2.990 -0.4136  0.8254 -1.2050
 5457SOL     OW17269   5.655   1.845   2.260 -0.2836  0.5243 -0.1909
 5457SOL    HW117270   5.651   1.880   2.167 -0.9665  3.4298  0.8185
 5457SOL    HW217271   5.568   1.800   2.282  0.6264 -2.1126 -1.5277
 5458SOL     OW17272   2.211   4.274   6.268 -0.4227 -0.0127 -0.5978
 5458SOL    HW117273   2.305   4.303   6.286 -0.0795 -1.3870 -0.0913
 5458SOL    HW217274   2.204   4.238   6.175 -0.7338  1.1385 -1.0441
 5459SOL     OW17275   0.167   5.268   6.764  0.2374  0.1254  0.5019
 5459SOL    HW117276   0.245   5.322   6.733  0.3889 -0.7874 -0.7622
 5459SOL    HW217277   0.082   5.311   6.733  0.3466 -0.1917 -0.2516
 5460SOL     OW17278   4.970   6.160   5.767 -0.3650  0.0509 -0.0841
 5460SOL    HW117279   4.920   6.073   5.771 -3.1688  1.4892 -1.4227
 5460SOL    HW217280   4.909   6.235   5.790  1.4158  1.8964 -1.0394
 5461SOL     OW17281   1.912   6.568   3.707 -0.2552  0.1598  0.3360
 5461SOL    HW117282   1.929   6.472   3.681 -2.4334 -0.7190  1.8996
 5461SOL    HW217283   1.834   6.603   3.655 -0.7168  0.4184  1.1886
 5462SOL     OW17284   6.983   0.985   2.912 -0.0214 -0.1155 -0.0634
 5462SOL    HW117285   6.950   0.988   2.818  1.1552 -0.5446 -0.5039
 5462SOL    HW217286   6.905   0.976   2.974 -0.8787  1.0030 -0.9255
 5463SOL     OW17287   4.982   1.347   0.922 -0.1488 -0.0242 -0.5261
 5463SOL    HW117288   5.026   1.407   0.855 -0.6449  1.5312  0.4860
 5463SOL    HW217289   5.053   1.294   0.969  0.4011  0.4416 -0.8042
 5464SOL     OW17290   0.989   1.805   4.779 -0.0988 -0.3525 -0.3003
 5464SOL    HW117291   0.959   1.894   4.746 -0.0255  0.2790  1.2591
 5464SOL    HW217292   1.082   1.787   4.747  1.5245  1.9921  2.5348
 5465SOL     OW17293   5.326   6.002   6.964 -0.1435 -0.7677  0.5317
 5465SOL    HW117294   5.262   5.969   7.033  0.2270 -1.3263  0.6096
 5465SOL    HW217295   5.291   5.982   6.872 -1.6233  1.7488  0.4593
 5466SOL     OW17296   5.199   5.628   3.459 -0.6470 -0.0866 -0.2459
 5466SOL    HW117297   5.210   5.702   3.393  0.4361  0.4513  0.5034
 5466SOL    HW217298   5.270   5.559   3.443  1.1829  1.1878  1.7709
 5467SOL     OW17299   5.577   0.470   1.165 -0.0020  0.2280 -0.2955
 5467SOL    HW117300   5.555   0.555   1.213 -0.1432  0.5497 -0.9095
 5467SOL    HW217301   5.497   0.441   1.112  0.5990  0.6711 -1.4844
 5468SOL     OW17302   4.883   2.561   6.780  0.7526 -0.2052 -0.4479
 5468SOL    HW117303   4.965   2.527   6.825 -0.3667 -1.0926  1.0461
 5468SOL    HW217304   4.883   2.661   6.781  0.8876 -0.1974  1.3596
 5469SOL     OW17305   3.899   4.887   0.734  0.3517  0.0480  0.1718
 5469SOL    HW117306   3.941   4.813   0.786 -0.6146  0.9518  2.3270
 5469SOL    HW217307   3.970   4.937   0.684  1.3541 -0.6458  0.8640
 5470SOL     OW17308   1.626   3.801   2.977  0.3101  0.1269 -0.0726
 5470SOL    HW117309   1.580   3.873   3.030 -0.3216  0.3912 -0.9482
 5470SOL    HW217310   1.558   3.749   2.926  0.9118  0.0297 -0.7955
 5471SOL     OW17311   6.568   1.576   1.779 -0.1147 -0.3483 -0.2540
 5471SOL    HW117312   6.637   1.510   1.809 -0.6760 -0.3660  1.1101
 5471SOL    HW217313   6.479   1.530   1.772 -0.4252  0.1481  0.2983
 5472SOL     OW17314   2.652   6.420   3.981 -0.1059  0.1310  0.1291
 5472SOL    HW117315   2.560   6.460   3.987  0.8143  2.2028  2.6519
 5472SOL    HW217316   2.653   6.332   4.029 -0.5824  0.5939  1.0249
 5473SOL     OW17317   1.983   4.675   2.786  0.2868  0.2984  0.3787
 5473SOL    HW117318   1.905   4.614   2.774 -0.3148  1.2437 -0.7200
 5473SOL    HW217319   1.978   4.749   2.719  1.3118  1.2328  1.2932
 5474SOL     OW17320   1.354   5.650   1.802  0.0291  0.1139  0.2822
 5474SOL    HW117321   1.268   5.695   1.827 -0.4920 -0.0058 -1.2179
 5474SOL    HW217322   1.419   5.718   1.770 -0.1732  0.0075 -0.3736
 5475SOL     OW17323   4.098   1.780   3.542  0.5627 -0.6342  0.3408
 5475SOL    HW117324   4.050   1.790   3.629 -0.8102 -0.9440 -0.3400
 5475SOL    HW217325   4.128   1.869   3.509  0.3765 -0.4230  0.7381
 5476SOL     OW17326   3.382   3.450   0.020 -0.3884 -0.3484  0.3010
 5476SOL    HW117327   3.296   3.471   0.067 -1.9197 -0.8391 -2.1373
 5476SOL    HW217328   3.417   3.534  -0.023  1.0181  0.1021  2.1722
 5477SOL     OW17329   2.040   2.034   1.570  0.1819  0.5932  0.0958
 5477SOL    HW117330   2.133   2.062   1.549  0.9042 -0.0974  2.1728
 5477SOL    HW217331   2.040   1.945   1.614 -1.3120  1.1743  1.4165
 5478SOL     OW17332   2.534   5.994   5.046  0.5723  0.1053  0.0316
 5478SOL    HW117333   2.592   5.960   5.121  0.0124 -0.5708  0.1757
 5478SOL    HW217334   2.584   5.989   4.960  1.2454  0.9449  0.3560
 5479SOL     OW17335   4.879   5.896   5.814  0.1122  0.5717  0.2706
 5479SOL    HW117336   4.779   5.903   5.810  0.1660  1.6475  0.5068
 5479SOL    HW217337   4.907   5.856   5.901 -0.1096  0.2441  0.1932
 5480SOL     OW17338   0.086   1.375   5.372 -0.1342 -0.4721 -0.7119
 5480SOL    HW117339   0.078   1.287   5.420 -0.2417 -1.1961 -2.0086
 5480SOL    HW217340   0.044   1.447   5.427 -1.1818 -1.4514 -0.1944
 5481SOL     OW17341   2.827   6.443   2.284  0.0930  0.7791  0.1009
 5481SOL    HW117342   2.812   6.346   2.269 -0.6208  0.5839  1.8059
 5481SOL    HW217343   2.915   6.457   2.329  0.3126  0.9605 -0.3742
 5482SOL     OW17344   0.894   6.037   1.313 -0.6848 -0.1598  0.0182
 5482SOL    HW117345   0.823   6.101   1.343 -1.7191 -0.9398 -0.6866
 5482SOL    HW217346   0.975   6.089   1.283 -0.6311  0.7122  1.5798
 5483SOL     OW17347   1.070   2.999   0.334 -0.5095  0.2095  0.0620
 5483SOL    HW117348   1.079   3.000   0.234 -1.8680  1.1206 -0.0794
 5483SOL    HW217349   1.155   3.033   0.375 -0.4218  1.1505 -0.8405
 5484SOL     OW17350   3.595   6.930   5.664  0.3693  0.0145 -0.3982
 5484SOL    HW117351   3.680   6.922   5.612  1.3698 -0.1058  1.1599
 5484SOL    HW217352   3.603   7.006   5.729 -0.6668 -0.0718 -0.1566
 5485SOL     OW17353   3.349   0.029   5.182  0.1533  0.5573 -0.2374
 5485SOL    HW117354   3.259   0.027   5.227 -0.3423  2.3442 -1.0731
 5485SOL    HW217355   3.408  -0.039   5.225 -0.8646  0.9211  1.8892
 5486SOL     OW17356   2.321   5.509   3.204 -0.0745  0.4918 -0.2926
 5486SOL    HW117357   2.306   5.601   3.167 -0.7877 -0.3051 -2.0789
 5486SOL    HW217358   2.420   5.493   3.214  0.0671  1.3354 -0.2280
 5487SOL     OW17359   3.083   0.586   3.897  0.2035  0.1763  0.2299
 5487SOL    HW117360   3.127   0.497   3.910  1.4354  0.7979  0.4552
 5487SOL    HW217361   3.127   0.635   3.823  2.3066  2.2302  2.6392
 5488SOL     OW17362   4.683   2.697   5.710 -0.2169 -0.6096 -0.0389
 5488SOL    HW117363   4.616   2.771   5.700  0.9328  0.2685 -1.7289
 5488SOL    HW217364   4.710   2.690   5.806 -2.1517 -0.4996  0.5581
 5489SOL     OW17365   6.141   2.083   2.964  0.3670 -0.0241 -0.0835
 5489SOL    HW117366   6.236   2.064   2.985 -0.4145 -2.8404  1.3844
 5489SOL    HW217367   6.135   2.138   2.880  3.2238  0.6895  0.0891
 5490SOL     OW17368   2.919   3.484   1.237  0.4145  0.1888  0.2181
 5490SOL    HW117369   2.951   3.392   1.260 -0.8744 -0.3398  0.0083
 5490SOL    HW217370   2.992   3.550   1.253  1.6915 -0.9792 -0.5458
 5491SOL     OW17371   1.645   5.572   6.305 -0.0612  0.1180  0.5070
 5491SOL    HW117372   1.560   5.601   6.350 -0.7547  0.7688 -1.1225
 5491SOL    HW217373   1.641   5.474   6.285 -0.1849  0.0358  0.9281
 5492SOL     OW17374   2.608   3.022   6.097  0.3209  0.7046 -0.2830
 5492SOL    HW117375   2.626   3.117   6.122  0.4270  0.5270  0.3220
 5492SOL    HW217376   2.587   2.969   6.179  1.5223 -0.0709 -0.4531
 5493SOL     OW17377   4.880   3.858   5.636 -0.4449  0.3090  0.2213
 5493SOL    HW117378   4.876   3.835   5.733  1.0766 -1.0290 -0.0036
 5493SOL    HW217379   4.804   3.813   5.588 -0.1801 -0.4601  0.5164
 5494SOL     OW17380   4.861   2.519   4.776  0.1142  0.4591 -0.0994
 5494SOL    HW117381   4.915   2.604   4.773  1.8793 -0.6290 -1.2765
 5494SOL    HW217382   4.905   2.451   4.718 -1.9028 -0.9182 -0.0686
 5495SOL     OW17383   4.264   0.153   0.123  0.0847 -0.3242 -0.2627
 5495SOL    HW117384   4.238   0.233   0.176  0.4909  0.0782 -0.6585
 5495SOL    HW217385   4.343   0.109   0.166  1.0946  0.6161 -1.0814
 5496SOL     OW17386   5.669   5.083   6.083  0.1793  0.7075 -0.1765
 5496SOL    HW117387   5.701   5.110   5.993  1.8573  1.3645  0.5668
 5496SOL    HW217388   5.595   5.017   6.074 -0.7022  1.8657 -2.0158
 5497SOL     OW17389   0.130   6.286   5.066 -0.3633  0.0059  0.1825
 5497SOL    HW117390   0.202   6.273   4.997 -1.3861  1.2752 -1.1741
 5497SOL    HW217391   0.045   6.311   5.021 -0.8370  1.8578  1.9754
 5498SOL     OW17392   0.924   4.332   2.380 -0.5688  0.2987  0.4097
 5498SOL    HW117393   0.893   4.337   2.475  0.1257  0.9667  0.6024
 5498SOL    HW217394   0.991   4.259   2.370  0.3183  1.0636  0.7095
 5499SOL     OW17395   2.485   6.628   4.926  0.3787 -0.5229 -0.0148
 5499SOL    HW117396   2.480   6.683   4.843 -1.4991  0.5364  0.7387
 5499SOL    HW217397   2.553   6.556   4.914  2.1230  1.2620 -1.4267
 5500SOL     OW17398   0.653   6.496   1.864  0.2122  0.3417  0.3159
 5500SOL    HW117399   0.586   6.426   1.888  0.4480 -0.2274 -0.6361
 5500SOL    HW217400   0.742   6.473   1.903  0.0093  0.7706  1.0502
 5501SOL     OW17401   6.083   2.991   1.833  0.6875  0.1595 -0.5688
 5501SOL    HW117402   5.999   2.980   1.781  0.1957 -2.6919  0.6046
 5501SOL    HW217403   6.160   3.001   1.770 -0.2010 -0.3175 -1.7737
 5502SOL     OW17404   4.588   4.058   6.743 -0.0977 -0.8485 -0.1357
 5502SOL    HW117405   4.677   4.014   6.735  0.0546 -0.4311 -0.7658
 5502SOL    HW217406   4.588   4.118   6.823  0.3511 -0.4777 -0.4076
 5503SOL     OW17407   5.493   3.832   0.429  0.1697  0.0769 -0.3303
 5503SOL    HW117408   5.439   3.807   0.348  0.4649 -2.2185  0.0941
 5503SOL    HW217409   5.444   3.902   0.481 -1.0907  0.0078 -1.3494
 5504SOL     OW17410   4.819   1.975   0.076  0.5868  0.2798 -0.8270
 5504SOL    HW117411   4.894   2.014   0.129  0.0563  1.7363 -1.1006
 5504SOL    HW217412   4.732   2.009   0.112  0.0702 -0.9759 -0.8412
 5505SOL     OW17413   2.450   5.720   4.483 -0.0212 -0.1202  0.1661
 5505SOL    HW117414   2.455   5.815   4.511 -0.1812  0.8904 -2.8894
 5505SOL    HW217415   2.390   5.712   4.403 -0.2370 -2.8387  0.5049
 5506SOL     OW17416   1.901   4.196   5.089  0.1794 -0.6717  0.0497
 5506SOL    HW117417   1.855   4.236   5.010  1.7965 -0.7142 -0.9746
 5506SOL    HW217418   1.914   4.265   5.160 -0.0928 -0.2775 -0.2822
 5507SOL     OW17419   4.292   5.367   6.897  0.0043 -0.6545 -0.6849
 5507SOL    HW117420   4.380   5.375   6.850 -0.4338  1.1277 -1.2930
 5507SOL    HW217421   4.259   5.458   6.923 -1.1467 -1.3712  0.5247
 5508SOL     OW17422   5.717   3.106   5.740 -0.0063  0.1283 -0.1725
 5508SOL    HW117423   5.648   3.084   5.671  0.9249 -1.5357 -0.6155
 5508SOL    HW217424   5.769   3.187   5.711  0.4108 -0.5795 -1.4667
 5509SOL     OW17425   3.378   5.024   0.236 -0.4477 -0.3273 -0.3229
 5509SOL    HW117426   3.357   5.121   0.248 -0.0015 -0.3068  0.3158
 5509SOL    HW217427   3.296   4.970   0.258 -0.8865 -0.0707 -1.2908
 5510SOL     OW17428   6.582   6.468   1.084  0.2911  0.1353 -0.5145
 5510SOL    HW117429   6.604   6.413   1.003 -0.2419 -0.1331 -0.4789
 5510SOL    HW217430   6.483   6.482   1.090  0.1260 -1.3878  1.0727
 5511SOL     OW17431   6.680   3.132   6.002  0.1488 -0.8960 -0.2666
 5511SOL    HW117432   6.681   3.084   6.090  0.8784 -0.5840 -0.0928
 5511SOL    HW217433   6.751   3.094   5.942  0.6280 -0.1593 -0.1819
 5512SOL     OW17434   1.911   5.347   0.752  0.2167 -0.3864  0.0713
 5512SOL    HW117435   1.857   5.413   0.804  0.2139 -0.8673  0.6890
 5512SOL    HW217436   1.854   5.305   0.682  0.6853  1.5964 -1.5864
 5513SOL     OW17437   3.445   5.642   5.586  0.0311  0.7296 -1.1459
 5513SOL    HW117438   3.347   5.660   5.586  0.1662  1.5934  0.1681
 5513SOL    HW217439   3.461   5.546   5.606 -0.5338  1.2101  2.2320
 5514SOL     OW17440   4.544   1.200   0.708  0.1037  0.1166 -0.2848
 5514SOL    HW117441   4.551   1.282   0.651 -1.6328  0.3537 -0.2188
 5514SOL    HW217442   4.634   1.176   0.744  1.0422  0.6673 -2.1280
 5515SOL     OW17443   2.293   4.075   2.061  0.1449  0.1475 -0.4119
 5515SOL    HW117444   2.371   4.052   2.004  0.0259  0.6904 -0.8018
 5515SOL    HW217445   2.220   4.008   2.047  1.0912 -1.2865  1.1275
 5516SOL     OW17446   0.948   0.558   6.984  0.2156 -0.3954 -0.6990
 5516SOL    HW117447   0.856   0.567   6.946 -0.2543  2.4973  0.8401
 5516SOL    HW217448   1.015   0.576   6.912 -0.4974 -0.2907 -1.3603
 5517SOL     OW17449   0.176   2.305   4.324 -0.4020 -0.4369 -0.3323
 5517SOL    HW117450   0.114   2.263   4.390 -3.0568 -0.8480 -2.8656
 5517SOL    HW217451   0.148   2.399   4.307  1.2198  0.1779  0.2085
 5518SOL     OW17452   2.777   3.250   6.199 -0.1506 -1.0135  0.4975
 5518SOL    HW117453   2.822   3.283   6.116  0.8982 -1.4757  0.8635
 5518SOL    HW217454   2.830   3.278   6.279 -1.5390  0.0666  1.0823
 5519SOL     OW17455   5.857   2.044   4.484  0.4914 -0.2747  0.4145
 5519SOL    HW117456   5.910   2.042   4.399  0.0507  0.8978  0.0944
 5519SOL    HW217457   5.759   2.052   4.462  0.2952 -0.8680  1.0255
 5520SOL     OW17458   3.932   6.073   2.019  0.3842 -0.3374  0.0397
 5520SOL    HW117459   3.947   6.037   1.926 -0.1819  1.9365 -0.9857
 5520SOL    HW217460   3.950   6.171   2.020 -0.9845 -0.0641  2.0321
 5521SOL     OW17461   3.113   0.030   2.073 -0.1557 -0.0506 -0.9992
 5521SOL    HW117462   3.133  -0.002   2.166 -0.2007 -0.2567 -1.0613
 5521SOL    HW217463   3.089   0.127   2.077 -0.0616 -0.0334 -0.8073
 5522SOL     OW17464   5.324   6.471   6.375 -0.0956 -0.0679  0.6001
 5522SOL    HW117465   5.315   6.455   6.276  3.8752  2.3797 -0.3734
 5522SOL    HW217466   5.348   6.384   6.420 -1.1186 -1.0678 -0.7024
 5523SOL     OW17467   5.252   1.568   0.190 -0.3674 -0.4525  0.3485
 5523SOL    HW117468   5.221   1.539   0.100 -0.1517 -2.3573  0.8512
 5523SOL    HW217469   5.351   1.556   0.197  0.3888  3.6662 -0.5380
 5524SOL     OW17470   3.661   1.624   2.622  0.0193 -0.4462  0.5385
 5524SOL    HW117471   3.659   1.663   2.714 -1.0168  0.6958  0.0472
 5524SOL    HW217472   3.756   1.604   2.596  0.4767  0.7874  1.2033
 5525SOL     OW17473   0.504   1.744   6.753 -0.3148  0.1191  0.0928
 5525SOL    HW117474   0.545   1.829   6.721  0.2133 -0.2552 -0.2596
 5525SOL    HW217475   0.575   1.686   6.793 -0.4957 -0.5277 -0.5002
 5526SOL     OW17476   3.575   5.018   4.079  0.1869 -0.2210 -0.3388
 5526SOL    HW117477   3.483   5.053   4.066  0.6169  0.4725 -1.6665
 5526SOL    HW217478   3.638   5.094   4.096  0.5498 -0.6819  0.4709
 5527SOL     OW17479   0.351   5.124   2.873  0.2427  0.5162 -0.5534
 5527SOL    HW117480   0.394   5.200   2.922  1.6777 -0.5789 -0.0282
 5527SOL    HW217481   0.252   5.131   2.881  0.3666  1.9600  0.0287
 5528SOL     OW17482   2.738   7.003   0.681  0.3250 -0.1629  0.0228
 5528SOL    HW117483   2.721   7.089   0.634  0.1191 -0.0304  0.3325
 5528SOL    HW217484   2.834   6.978   0.672 -0.0904 -1.1789 -2.1994
 5529SOL     OW17485   4.189   2.013   3.434  1.0353  0.4572  0.1238
 5529SOL    HW117486   4.104   2.052   3.469 -0.6031 -3.6536  1.3081
 5529SOL    HW217487   4.173   1.978   3.341  1.2440 -0.6925  0.5054
 5530SOL     OW17488   7.008   1.675   0.666  0.3201  0.2393  0.4599
 5530SOL    HW117489   6.987   1.679   0.568 -4.0145 -0.5795  1.1545
 5530SOL    HW217490   6.985   1.584   0.701  0.6705  0.8643  2.4375
 5531SOL     OW17491   0.394   4.801   5.449  0.0227 -0.6533 -0.3379
 5531SOL    HW117492   0.352   4.815   5.360 -0.8763 -2.5212 -0.2561
 5531SOL    HW217493   0.392   4.703   5.472 -2.6178 -0.0015  3.0742
 5532SOL     OW17494   0.153   5.375   3.805  0.8398  0.3833 -0.4070
 5532SOL    HW117495   0.151   5.324   3.720  2.3819  1.3148 -1.0334
 5532SOL    HW217496   0.092   5.453   3.799  1.3247  0.7315 -0.8591
 5533SOL     OW17497   4.323   2.213   3.593 -0.2946  0.2575 -0.2215
 5533SOL    HW117498   4.286   2.149   3.525  1.2659  0.4269 -1.2901
 5533SOL    HW217499   4.366   2.290   3.545 -1.2108  1.5962  1.0246
 5534SOL     OW17500   0.190   1.492   4.117  0.0200 -0.8512 -0.5528
 5534SOL    HW117501   0.117   1.425   4.128  1.6869 -2.5678  0.7319
 5534SOL    HW217502   0.254   1.485   4.193  0.5321  1.9308 -0.6268
 5535SOL     OW17503   2.032   0.092   1.814 -0.4694 -0.6394  0.4466
 5535SOL    HW117504   1.998   0.055   1.727  1.0086 -0.7320 -0.1330
 5535SOL    HW217505   2.006   0.188   1.822 -0.5589 -0.6078 -0.1484
 5536SOL     OW17506   5.383   0.121   5.101 -0.3271 -0.0565 -0.6184
 5536SOL    HW117507   5.393   0.031   5.059  1.2005 -0.5365  0.6890
 5536SOL    HW217508   5.324   0.114   5.182  2.2060 -0.6143  1.3237
 5537SOL     OW17509   3.014   2.192   2.388 -0.2596 -0.3398  0.2665
 5537SOL    HW117510   2.971   2.196   2.478 -0.2205  1.9380  0.2327
 5537SOL    HW217511   2.944   2.204   2.317  0.1320  1.6177  0.1566
 5538SOL     OW17512   3.793   6.884   4.106  0.0636 -0.0298 -0.1915
 5538SOL    HW117513   3.711   6.940   4.115 -1.0199 -1.7550  1.4337
 5538SOL    HW217514   3.808   6.862   4.009 -2.5640 -1.2728 -0.3894
 5539SOL     OW17515   0.370   4.298   0.755  0.2174  0.2138  0.1110
 5539SOL    HW117516   0.406   4.270   0.667 -1.3308 -1.6760 -0.0087
 5539SOL    HW217517   0.432   4.269   0.828  0.2104 -0.6409 -0.2173
 5540SOL     OW17518   3.428   5.621   1.226 -0.0281 -0.0104  0.7548
 5540SOL    HW117519   3.500   5.638   1.159 -0.4659 -0.1090  0.2597
 5540SOL    HW217520   3.467   5.570   1.304  0.5382  0.3438  0.7092
 5541SOL     OW17521   4.329   6.641   5.882 -0.2432 -0.0226  0.3735
 5541SOL    HW117522   4.278   6.560   5.911 -0.4286 -0.3366 -0.7621
 5541SOL    HW217523   4.422   6.615   5.856  0.5000  0.5195  2.2601
 5542SOL     OW17524   6.722   4.227   6.096 -0.1407 -0.0901  0.1147
 5542SOL    HW117525   6.759   4.289   6.027 -0.0362 -0.5056 -0.2096
 5542SOL    HW217526   6.753   4.133   6.077  1.2915  0.0022  1.6743
 5543SOL     OW17527   2.601   1.438   3.189 -0.1514 -0.0587 -0.1495
 5543SOL    HW117528   2.571   1.487   3.271  0.2911 -1.0348  0.6099
 5543SOL    HW217529   2.546   1.467   3.111  1.2448  3.0034 -0.1390
 5544SOL     OW17530   5.175   6.422   5.340  0.1888  0.2690  0.0584
 5544SOL    HW117531   5.236   6.490   5.381  1.7523  0.3047 -2.1712
 5544SOL    HW217532   5.172   6.340   5.398  0.7667  1.0128  1.1806
 5545SOL     OW17533   3.694   3.022   1.407  0.7976  0.1051 -0.2338
 5545SOL    HW117534   3.615   2.969   1.439  0.4020  1.3483  0.9628
 5545SOL    HW217535   3.679   3.119   1.428  3.2686  0.2255  1.3370
 5546SOL     OW17536   3.978   6.059   3.908 -0.0177 -0.0759 -0.1846
 5546SOL    HW117537   4.044   6.087   3.838  1.4024  1.7846  1.7732
 5546SOL    HW217538   3.946   6.139   3.958 -0.5475 -1.3608  1.6593
 5547SOL     OW17539   3.707   5.748   3.181 -0.4640  0.2711 -0.5099
 5547SOL    HW117540   3.626   5.739   3.238 -0.9621  0.0063 -1.2552
 5547SOL    HW217541   3.762   5.826   3.214 -2.0606  1.7816 -1.2520
 5548SOL     OW17542   0.179   6.747   4.674 -0.2742 -0.2986  0.0038
 5548SOL    HW117543   0.191   6.716   4.768 -0.5828  2.5451  1.0822
 5548SOL    HW217544   0.266   6.780   4.638 -0.3477 -0.5261 -0.3894
 5549SOL     OW17545   2.952   5.300   3.116 -0.4051 -0.0545 -0.0110
 5549SOL    HW117546   3.002   5.260   3.039 -1.8796 -0.1127 -0.9799
 5549SOL    HW217547   2.996   5.273   3.202 -0.0903 -1.9877 -0.7215
 5550SOL     OW17548   3.335   6.716   0.393 -0.1076 -0.7576 -0.4100
 5550SOL    HW117549   3.263   6.779   0.365 -0.1060 -0.5769 -0.0199
 5550SOL    HW217550   3.381   6.752   0.475  2.3416  0.5871 -2.2457
 5551SOL     OW17551   1.892   0.948   2.557  0.3459 -0.3567 -0.1783
 5551SOL    HW117552   1.805   0.992   2.579  0.2583 -1.4666  1.9101
 5551SOL    HW217553   1.964   0.987   2.613  0.7766 -0.9843 -0.2905
 5552SOL     OW17554   1.152   2.699   2.866  0.3530 -0.1316  0.0310
 5552SOL    HW117555   1.245   2.680   2.898  0.7953 -2.3400 -2.2148
 5552SOL    HW217556   1.156   2.761   2.788 -0.0724 -0.1332  0.0037
 5553SOL     OW17557   4.951   4.876   6.485  0.6066 -0.2653  0.0107
 5553SOL    HW117558   4.990   4.919   6.566  1.3519 -2.6556  1.0349
 5553SOL    HW217559   5.019   4.876   6.411  0.2327  1.1502 -0.3582
 5554SOL     OW17560   3.453   6.983   1.744 -0.2318 -0.3354 -0.9129
 5554SOL    HW117561   3.453   7.011   1.840 -3.4586  1.7286 -1.3667
 5554SOL    HW217562   3.374   6.924   1.727 -0.7552  0.7937 -2.6128
 5555SOL     OW17563   2.099   6.192   1.619 -0.1811  0.0541  0.3660
 5555SOL    HW117564   2.176   6.247   1.588 -0.9313  0.8924 -0.0306
 5555SOL    HW217565   2.118   6.095   1.602  1.2680  0.1443  1.3334
 5556SOL     OW17566   6.869   1.061   5.230  0.3468 -0.4230 -0.0047
 5556SOL    HW117567   6.899   1.010   5.310 -0.0550 -1.7358 -0.6661
 5556SOL    HW217568   6.775   1.093   5.244 -0.9043 -3.3193 -1.1078
 5557SOL     OW17569   3.525   1.548   2.081  0.4394  0.1423  0.0948
 5557SOL    HW117570   3.567   1.601   2.154 -0.9959  0.3179  0.8238
 5557SOL    HW217571   3.470   1.608   2.023  1.7565  0.0516 -1.3262
 5558SOL     OW17572   5.274   1.364   0.564 -0.3908  0.6434 -0.0462
 5558SOL    HW117573   5.369   1.353   0.592 -0.7456 -1.3361  0.4830
 5558SOL    HW217574   5.234   1.275   0.543 -2.2247  1.4060 -0.0010
 5559SOL     OW17575   3.721   1.120   1.240  0.1095 -0.2065 -0.0921
 5559SOL    HW117576   3.758   1.150   1.328  0.6815 -1.2093  0.0301
 5559SOL    HW217577   3.635   1.070   1.255 -0.1624  0.2315 -0.1742
 5560SOL     OW17578   6.568   3.423   6.115 -0.1493  0.1292  0.1406
 5560SOL    HW117579   6.487   3.369   6.092 -0.0004 -1.2275  2.5640
 5560SOL    HW217580   6.650   3.377   6.081 -0.2845  1.3523 -2.0440
 5561SOL     OW17581   1.812   5.473   2.429 -0.2847  0.2950 -0.4867
 5561SOL    HW117582   1.885   5.537   2.452  0.4816 -0.3205 -1.1704
 5561SOL    HW217583   1.723   5.515   2.451  0.2440  1.1816  0.0213
 5562SOL     OW17584   4.457   4.385   0.311  0.2337  0.6951 -0.9723
 5562SOL    HW117585   4.527   4.446   0.347  2.8370 -1.0170 -2.7659
 5562SOL    HW217586   4.420   4.329   0.385 -0.9543  3.0908  0.3811
 5563SOL     OW17587   3.658   4.979   1.350 -0.2528 -0.0139  0.0408
 5563SOL    HW117588   3.602   5.041   1.295 -1.7506  0.9488  2.4458
 5563SOL    HW217589   3.599   4.931   1.416  1.5497  0.0321  1.7864
 5564SOL     OW17590   4.740   0.011   3.620  0.1954  0.3657 -0.2943
 5564SOL    HW117591   4.769  -0.063   3.559 -1.8844  0.3509 -1.3270
 5564SOL    HW217592   4.820   0.047   3.668  1.4716 -1.5402 -0.8756
 5565SOL     OW17593   1.202   3.894   5.707  0.5181 -0.3123 -0.8697
 5565SOL    HW117594   1.226   3.887   5.804 -0.5018 -2.0931 -0.6983
 5565SOL    HW217595   1.282   3.921   5.654  1.2584  0.0210  0.3886
 5566SOL     OW17596   2.682   3.841   0.664 -0.4600 -0.2245  0.1556
 5566SOL    HW117597   2.733   3.885   0.738  2.3996 -2.3885 -0.3764
 5566SOL    HW217598   2.623   3.770   0.703 -0.0108 -0.4247  0.4834
 5567SOL     OW17599   0.541   5.888   3.045 -0.9576 -0.5124 -0.2221
 5567SOL    HW117600   0.620   5.861   2.991 -0.9005  0.3140 -0.5701
 5567SOL    HW217601   0.559   5.873   3.142 -1.7111 -3.6927 -0.4791
 5568SOL     OW17602   4.786   2.581   1.346  0.0937 -0.5006 -0.1815
 5568SOL    HW117603   4.828   2.502   1.302  1.5877 -0.2468  0.7247
 5568SOL    HW217604   4.800   2.662   1.289 -2.2985 -0.9874 -1.6039
 5569SOL     OW17605   4.143   0.575   4.834  0.3845 -0.2408 -0.1193
 5569SOL    HW117606   4.163   0.594   4.738 -1.3655 -1.0622 -0.6870
 5569SOL    HW217607   4.045   0.588   4.851  0.8768  1.4198  1.9518
 5570SOL     OW17608   0.628   1.465   4.645 -0.6907  0.4543  0.1418
 5570SOL    HW117609   0.700   1.499   4.706  0.4702 -1.6349  0.0527
 5570SOL    HW217610   0.577   1.392   4.691 -1.8810  0.9973 -0.2880
 5571SOL     OW17611   2.233   5.511   5.325  0.2123 -0.4005  0.0031
 5571SOL    HW117612   2.138   5.478   5.320  0.4483 -1.0000 -0.7786
 5571SOL    HW217613   2.290   5.456   5.265  0.4386  2.1780 -2.3315
 5572SOL     OW17614   0.736   4.759   2.864  0.5230  0.3851  0.6322
 5572SOL    HW117615   0.662   4.826   2.864  0.3238  0.2060  1.9766
 5572SOL    HW217616   0.708   4.679   2.812 -0.0073  0.5660  0.6274
 5573SOL     OW17617   2.321   4.716   6.731 -0.0082 -0.4155 -0.3275
 5573SOL    HW117618   2.381   4.759   6.663 -0.1627 -1.2934 -1.0334
 5573SOL    HW217619   2.366   4.718   6.820 -0.0550  1.2872 -0.3056
 5574SOL     OW17620   1.727   4.625   4.222  0.1559 -0.3508 -0.6088
 5574SOL    HW117621   1.701   4.593   4.312 -0.9767 -0.9045 -1.1219
 5574SOL    HW217622   1.648   4.625   4.161  0.1535  2.8974 -0.8188
 5575SOL     OW17623   1.956   1.901   1.868  0.4743 -0.0272 -0.0395
 5575SOL    HW117624   2.041   1.949   1.892  1.4105 -0.9569 -1.3588
 5575SOL    HW217625   1.977   1.807   1.840 -1.3303 -1.3363  2.6314
 5576SOL     OW17626   5.944   4.942   0.623 -0.2395 -0.3141 -0.4101
 5576SOL    HW117627   5.877   4.870   0.640 -0.1054 -0.5022 -0.6765
 5576SOL    HW217628   5.918   4.994   0.542 -0.9963  0.7274  0.4652
 5577SOL     OW17629   3.920   5.318   5.501 -0.0092 -0.0837  0.5495
 5577SOL    HW117630   3.965   5.263   5.431  0.0805 -0.5568  0.9749
 5577SOL    HW217631   3.956   5.295   5.591  0.6195  1.2491  0.6725
 5578SOL     OW17632   3.593   1.413   5.922  0.0512  0.5643 -0.5404
 5578SOL    HW117633   3.677   1.382   5.967  1.1371 -0.3128 -3.0053
 5578SOL    HW217634   3.521   1.345   5.936  0.3075  0.3929 -0.0057
 5579SOL     OW17635   6.155   4.477   1.766 -0.4429 -0.3805 -0.3727
 5579SOL    HW117636   6.134   4.453   1.672 -0.3201  1.1933 -0.8278
 5579SOL    HW217637   6.091   4.547   1.798 -1.3937 -1.8983  1.2161
 5580SOL     OW17638   6.189   1.741   2.308 -0.0746 -0.4287  0.2673
 5580SOL    HW117639   6.140   1.824   2.336 -1.1894 -0.7677 -0.6275
 5580SOL    HW217640   6.253   1.764   2.234 -1.5985 -0.6337 -1.1662
 5581SOL     OW17641   3.443   2.462   0.320  0.0627  0.7205 -0.1093
 5581SOL    HW117642   3.481   2.499   0.235  0.6242 -1.2865 -0.7999
 5581SOL    HW217643   3.470   2.366   0.329 -2.6305 -0.0286  0.7478
 5582SOL     OW17644   2.532   3.309   5.355  0.3207 -0.5069  0.4276
 5582SOL    HW117645   2.570   3.274   5.441  3.5983  0.7908 -0.3575
 5582SOL    HW217646   2.525   3.234   5.289  1.3571 -0.8478  0.6860
 5583SOL     OW17647   3.040   0.562   5.967 -0.2978  0.6779  0.0777
 5583SOL    HW117648   2.986   0.567   6.051 -1.1205 -0.6760 -0.3427
 5583SOL    HW217649   2.979   0.544   5.890  0.7135 -0.8034 -0.4191
 5584SOL     OW17650   5.144   3.916   3.591  0.0292  0.2502 -0.0273
 5584SOL    HW117651   5.052   3.910   3.628  0.5838 -0.2452  1.2980
 5584SOL    HW217652   5.163   4.011   3.564 -0.7032  0.4394  0.1126
 5585SOL     OW17653   0.485   0.297   3.834 -0.6875  0.0689 -0.1694
 5585SOL    HW117654   0.420   0.333   3.767 -0.8898 -0.2990 -0.1715
 5585SOL    HW217655   0.444   0.220   3.882  0.4684 -1.4563 -1.5569
 5586SOL     OW17656   2.242   0.439   1.711  0.3247  0.1765 -0.0948
 5586SOL    HW117657   2.341   0.422   1.713  0.2838 -0.4465 -1.6898
 5586SOL    HW217658   2.225   0.536   1.692  0.6110  0.4037  0.7687
 5587SOL     OW17659   2.694   6.939   3.367  0.2388  0.5235 -0.1218
 5587SOL    HW117660   2.755   7.012   3.335 -0.0331  0.4733 -0.7875
 5587SOL    HW217661   2.610   6.980   3.403  0.2993  0.5621 -0.0248
 5588SOL     OW17662   4.126   4.993   0.611 -0.3135  0.0743  0.3125
 5588SOL    HW117663   4.198   5.062   0.626  0.6805 -1.3291  2.4455
 5588SOL    HW217664   4.063   5.027   0.541  1.1538  2.3327 -0.0554
 5589SOL     OW17665   2.466   2.029   5.515  0.0452  0.1139 -0.0202
 5589SOL    HW117666   2.528   2.061   5.586  0.1275  1.2242 -0.5724
 5589SOL    HW217667   2.518   1.991   5.438 -0.0405 -1.0011  0.4517
 5590SOL     OW17668   4.661   6.091   3.764  0.0424  0.0844  0.5593
 5590SOL    HW117669   4.684   6.088   3.667 -0.5257 -1.4571  0.4328
 5590SOL    HW217670   4.647   5.997   3.797 -3.1292  0.6956  1.2895
 5591SOL     OW17671   5.555   0.737   6.244 -0.3064 -0.0507 -0.0880
 5591SOL    HW117672   5.485   0.798   6.206  0.9568  2.5145  1.4714
 5591SOL    HW217673   5.626   0.721   6.176 -0.7084  0.1495 -0.5584
 5592SOL     OW17674   6.876   4.645   4.227 -0.4975 -0.6010 -0.4231
 5592SOL    HW117675   6.788   4.614   4.191 -0.8321 -0.0184 -0.1250
 5592SOL    HW217676   6.940   4.657   4.152 -0.4513 -1.7046 -0.5765
 5593SOL     OW17677   3.664   2.884   4.970 -0.0913  0.3359  0.3388
 5593SOL    HW117678   3.715   2.908   5.053  2.3007 -0.2432 -0.8856
 5593SOL    HW217679   3.648   2.785   4.968 -0.9267  0.4558  0.4855
 5594SOL     OW17680   2.350   1.595   6.186  0.1477 -0.3509 -0.6781
 5594SOL    HW117681   2.353   1.653   6.105  0.2530  1.0375  0.2812
 5594SOL    HW217682   2.255   1.587   6.217 -0.4137 -3.6401 -2.7848
 5595SOL     OW17683   6.944   2.182   0.097 -0.4183 -0.0352  0.0668
 5595SOL    HW117684   7.015   2.144   0.039 -0.9948 -0.2262 -0.5275
 5595SOL    HW217685   6.936   2.281   0.082 -0.8410 -0.1497 -0.4866
 5596SOL     OW17686   5.241   5.233   4.223  0.1498 -0.5413 -0.1312
 5596SOL    HW117687   5.335   5.202   4.215 -0.0036 -1.1309  0.3088
 5596SOL    HW217688   5.210   5.222   4.317 -0.6150 -1.1037 -0.4374
 5597SOL     OW17689   2.135   1.757   5.389 -0.0885 -0.3494  0.1303
 5597SOL    HW117690   2.038   1.754   5.366 -0.2221 -0.9841  0.7580
 5597SOL    HW217691   2.156   1.844   5.433 -0.8065 -1.0194  1.8582
 5598SOL     OW17692   6.769   1.476   5.288  0.4857 -0.7053 -0.4659
 5598SOL    HW117693   6.755   1.416   5.367  0.0691 -1.4662 -1.1035
 5598SOL    HW217694   6.727   1.436   5.208 -0.5459  0.8541 -0.7506
 5599SOL     OW17695   5.396   2.992   1.054  0.2673 -0.0270  0.3881
 5599SOL    HW117696   5.351   2.955   1.135  0.5230  0.9716  0.9981
 5599SOL    HW217697   5.336   2.979   0.974 -1.2805  1.5158  1.2263
 5600SOL     OW17698   2.462   3.717   1.688 -0.5968 -0.1687 -0.0806
 5600SOL    HW117699   2.487   3.621   1.705 -0.3269 -0.5573 -2.3273
 5600SOL    HW217700   2.402   3.749   1.761  1.1954 -1.2815  1.9839
 5601SOL     OW17701   4.457   1.799   0.110  0.5603  0.3797 -0.0374
 5601SOL    HW117702   4.505   1.778   0.024  0.7888  0.5224  0.0560
 5601SOL    HW217703   4.471   1.724   0.175  0.2734  0.2064 -0.1694
 5602SOL     OW17704   4.465   6.148   1.791 -0.4376  0.4551  0.0454
 5602SOL    HW117705   4.395   6.077   1.787 -0.1429  0.1524  0.1947
 5602SOL    HW217706   4.465   6.190   1.881  1.6779 -1.7310  1.1880
 5603SOL     OW17707   1.822   0.805   1.036 -0.1700 -0.2171 -0.2198
 5603SOL    HW117708   1.827   0.721   0.981  0.0231 -0.8170  0.6915
 5603SOL    HW217709   1.773   0.876   0.984 -1.2414 -1.2024 -0.6075
 5604SOL     OW17710   2.239   5.660   4.931  0.0769  0.0900  0.6211
 5604SOL    HW117711   2.320   5.620   4.887  0.4859  0.9219  0.5894
 5604SOL    HW217712   2.259   5.677   5.027  0.8214  2.5325  0.0931
 5605SOL     OW17713   5.434   1.458   3.650 -0.1596  0.2927  0.0432
 5605SOL    HW117714   5.448   1.360   3.637 -0.0298  0.0214  1.9985
 5605SOL    HW217715   5.466   1.507   3.569  1.5022 -1.1405 -0.2189
 5606SOL     OW17716   3.434   4.837   6.377  0.0764  0.4531  0.8848
 5606SOL    HW117717   3.505   4.880   6.322  0.9720 -0.3278  1.3972
 5606SOL    HW217718   3.462   4.837   6.473  0.2005 -1.3874  0.8966
 5607SOL     OW17719   6.424   1.161   1.797  0.5392 -0.0558  0.1366
 5607SOL    HW117720   6.503   1.179   1.856 -1.3034  0.3954  2.6160
 5607SOL    HW217721   6.376   1.246   1.778  0.0305 -0.4651 -0.4752
 5608SOL     OW17722   6.882   5.247   2.486 -0.3048 -0.2807  0.1407
 5608SOL    HW117723   6.801   5.300   2.462 -0.4013  0.6935  2.3493
 5608SOL    HW217724   6.877   5.156   2.443 -2.3879 -0.1160 -0.0601
 5609SOL     OW17725   5.357   0.662   2.518  0.2204  0.5538 -0.2527
 5609SOL    HW117726   5.305   0.682   2.601  1.3679  1.2003  0.3308
 5609SOL    HW217727   5.455   0.665   2.538  0.5088 -0.5207 -1.3548
 5610SOL     OW17728   5.901   1.014   5.616 -0.8617  0.4519  0.4493
 5610SOL    HW117729   5.824   0.954   5.596  0.2319 -0.4467 -1.2769
 5610SOL    HW217730   5.957   0.974   5.689 -2.0413  1.1633  1.7830
 5611SOL     OW17731   6.780   1.657   1.249  0.1119 -0.1421 -0.2656
 5611SOL    HW117732   6.694   1.632   1.204  0.4626  0.8482 -1.5628
 5611SOL    HW217733   6.853   1.595   1.219 -0.1722 -1.1313  1.0179
 5612SOL     OW17734   5.050   0.982   2.688 -0.1432  0.0138  0.0347
 5612SOL    HW117735   5.038   1.012   2.783  1.3906  2.2038 -0.3795
 5612SOL    HW217736   5.053   1.061   2.628 -0.7767 -1.3129 -1.8439
 5613SOL     OW17737   6.673   5.554   4.704 -0.0603  0.5808 -0.3021
 5613SOL    HW117738   6.751   5.501   4.672  0.3112  0.2387  1.1032
 5613SOL    HW217739   6.599   5.549   4.637  0.5735 -0.3602 -0.9454
 5614SOL     OW17740   6.109   2.321   5.897 -0.2570  0.3514 -0.1618
 5614SOL    HW117741   6.032   2.259   5.912  1.2195 -1.3540  0.7388
 5614SOL    HW217742   6.138   2.315   5.801 -1.0515  0.8060 -0.4409
 5615SOL     OW17743   1.163   5.478   2.024 -0.4146 -0.0878  0.2692
 5615SOL    HW117744   1.145   5.466   1.926 -0.2879 -0.7274  0.3210
 5615SOL    HW217745   1.220   5.403   2.057  2.7750  2.0230  0.0279
 5616SOL     OW17746   0.981   3.264   1.022 -0.4069  0.4497  0.0039
 5616SOL    HW117747   1.007   3.168   1.025  1.0446  0.7991 -0.5076
 5616SOL    HW217748   1.002   3.302   0.931 -1.5717  1.1018 -0.0213
 5617SOL     OW17749   2.057   5.585   6.841 -0.0902  0.4187 -0.3283
 5617SOL    HW117750   2.154   5.573   6.823  0.2449  1.6216  0.5623
 5617SOL    HW217751   2.017   5.645   6.771 -0.7095 -1.7789 -1.9661
 5618SOL     OW17752   6.534   1.938   4.732  0.1523 -0.1239  0.5540
 5618SOL    HW117753   6.475   1.869   4.774  0.7944 -0.8836  0.2338
 5618SOL    HW217754   6.494   1.967   4.645  1.1884 -2.1011 -0.6445
 5619SOL     OW17755   3.240   3.709   3.523 -0.1957  0.2096 -0.0778
 5619SOL    HW117756   3.181   3.743   3.596 -0.8574 -2.4583  0.7498
 5619SOL    HW217757   3.184   3.683   3.444  0.2931  1.0762 -0.7226
 5620SOL     OW17758   4.474   4.491   3.732  0.0427  0.0910 -0.1010
 5620SOL    HW117759   4.540   4.541   3.676  0.5136  1.3493  1.5029
 5620SOL    HW217760   4.381   4.517   3.706  0.2528  0.4492 -0.5015
 5621SOL     OW17761   2.495   4.853   0.374  0.0140 -0.3690  1.1758
 5621SOL    HW117762   2.500   4.809   0.463  1.2266 -0.6634  0.9796
 5621SOL    HW217763   2.531   4.791   0.304 -1.1632 -0.2497  0.4293
 5622SOL     OW17764   5.816   3.967   2.211 -0.0427 -0.1871  0.1011
 5622SOL    HW117765   5.741   3.962   2.276 -0.3334 -0.6939 -0.2658
 5622SOL    HW217766   5.800   3.903   2.136 -0.2135  1.0731 -0.9831
 5623SOL     OW17767   5.974   5.856   4.795 -0.0850 -0.5127 -0.2778
 5623SOL    HW117768   5.913   5.806   4.733 -2.3267  0.0425  1.3671
 5623SOL    HW217769   6.069   5.830   4.775 -0.9649 -3.5490 -1.1437
 5624SOL     OW17770   3.986   4.861   2.457 -0.4488 -0.2580 -0.7450
 5624SOL    HW117771   4.003   4.764   2.441  0.6212 -0.6707  2.3581
 5624SOL    HW217772   4.067   4.913   2.430 -0.0469 -0.5252 -0.0702
 5625SOL     OW17773   3.712   4.688   0.588  0.0421 -0.0061 -0.8170
 5625SOL    HW117774   3.747   4.767   0.637 -0.7780 -0.2155  0.1352
 5625SOL    HW217775   3.764   4.676   0.503 -0.0951  1.7945 -1.2011
 5626SOL     OW17776   3.788   4.458   6.035  0.2707 -0.0947  0.1651
 5626SOL    HW117777   3.884   4.485   6.031  0.1387  0.3376 -0.0828
 5626SOL    HW217778   3.774   4.374   5.983  0.1825  0.8000 -1.2908
 5627SOL     OW17779   6.941   4.491   1.181  0.2342  0.0009  0.5546
 5627SOL    HW117780   6.958   4.449   1.091  0.5195 -1.6541  1.3302
 5627SOL    HW217781   7.020   4.473   1.241 -0.4997 -0.0617  1.5249
 5628SOL     OW17782   6.964   2.404   2.076  0.0447 -0.3413 -0.2479
 5628SOL    HW117783   6.940   2.419   2.172 -0.9400 -1.2908 -0.3314
 5628SOL    HW217784   6.921   2.475   2.020 -0.1024 -0.2945 -0.0787
 5629SOL     OW17785   2.311   2.768   5.559  0.0440  0.0059  0.5271
 5629SOL    HW117786   2.320   2.827   5.640  0.6013 -0.6767  0.9835
 5629SOL    HW217787   2.374   2.799   5.488  0.4702 -0.1301  0.8351
 5630SOL     OW17788   1.023   3.355   6.661  0.3194 -0.0191  0.6233
 5630SOL    HW117789   1.010   3.454   6.670 -0.0201 -0.0917  0.9704
 5630SOL    HW217790   0.938   3.308   6.686  0.6447 -0.4190  0.9866
 5631SOL     OW17791   1.772   0.511   4.031 -0.0036  0.5100  0.6869
 5631SOL    HW117792   1.773   0.522   4.131 -0.6365 -0.2899  0.7927
 5631SOL    HW217793   1.839   0.441   4.005  1.3024  1.8352  0.3846
 5632SOL     OW17794   2.322   5.315   6.950  0.0577 -0.2218 -0.4756
 5632SOL    HW117795   2.336   5.306   7.049 -1.0308 -0.3041 -0.3184
 5632SOL    HW217796   2.326   5.225   6.907 -1.5149 -0.4549 -0.2015
 5633SOL     OW17797   2.424   5.049   3.623  0.2152 -0.4967 -0.1951
 5633SOL    HW117798   2.417   5.135   3.572 -0.3607 -1.6576 -2.1631
 5633SOL    HW217799   2.386   5.062   3.715 -0.0582  1.2798 -0.5139
 5634SOL     OW17800   0.457   1.399   1.753 -0.1356  0.0024  0.8677
 5634SOL    HW117801   0.419   1.474   1.808  1.0476  0.4756  1.0694
 5634SOL    HW217802   0.411   1.397   1.664 -0.7353  0.4490  1.1557
 5635SOL     OW17803   3.380   1.475   4.783 -0.0059 -0.3378  0.2906
 5635SOL    HW117804   3.381   1.382   4.747 -1.1561  0.0459 -0.7921
 5635SOL    HW217805   3.299   1.488   4.840  0.8137 -0.3583  1.5105
 5636SOL     OW17806   5.283   6.233   0.125  0.2615  0.3069 -0.2062
 5636SOL    HW117807   5.315   6.204   0.035  1.4413 -0.3833  0.4196
 5636SOL    HW217808   5.193   6.194   0.142  0.3724 -0.2040 -0.7646
 5637SOL     OW17809   4.117   5.767   5.818  0.1702 -0.5474 -0.8609
 5637SOL    HW117810   4.137   5.706   5.741  0.7360 -1.5932  0.0927
 5637SOL    HW217811   4.056   5.721   5.883  0.3645  0.0075 -0.2733
 5638SOL     OW17812   2.418   0.193   0.658 -0.7444  0.2310  0.1075
 5638SOL    HW117813   2.514   0.218   0.644 -0.8881  1.4011  1.0531
 5638SOL    HW217814   2.408   0.148   0.747 -0.9225 -0.8256 -0.4341
 5639SOL     OW17815   3.448   0.079   2.657 -0.0499  0.3673 -0.0215
 5639SOL    HW117816   3.537   0.055   2.694 -0.0789 -1.1418 -0.8279
 5639SOL    HW217817   3.432   0.027   2.573 -1.5317  0.8855 -0.0881
 5640SOL     OW17818   5.614   6.033   5.110  0.6464 -0.0035  0.6881
 5640SOL    HW117819   5.596   5.983   5.025  0.5283 -0.9340  1.2535
 5640SOL    HW217820   5.611   5.970   5.187  1.8032  0.6490  1.2815
 5641SOL     OW17821   0.324   6.782   1.797  0.4545  0.0446  0.3593
 5641SOL    HW117822   0.415   6.801   1.834  0.3802  1.5660 -0.1673
 5641SOL    HW217823   0.273   6.726   1.862  1.7187 -0.7297  0.7148
 5642SOL     OW17824   2.221   0.970   0.177 -0.1105 -0.4928  0.6410
 5642SOL    HW117825   2.173   0.898   0.227  0.3981  0.0504  1.9545
 5642SOL    HW217826   2.206   0.958   0.079 -1.6962 -1.1994  0.9321
 5643SOL     OW17827   4.918   3.345   3.485 -0.4306 -0.1450 -0.4011
 5643SOL    HW117828   4.860   3.394   3.550  0.1046  0.8483 -0.6522
 5643SOL    HW217829   4.968   3.273   3.533  2.3855  2.5607  1.0680
 5644SOL     OW17830   2.361   2.958   5.762  0.2400 -0.1001 -0.3550
 5644SOL    HW117831   2.424   3.021   5.718 -0.8129  1.4491  0.2796
 5644SOL    HW217832   2.277   3.006   5.788 -0.8144 -1.8653 -0.2692
 5645SOL     OW17833   6.705   3.793   4.688 -0.3308 -0.0311  0.3551
 5645SOL    HW117834   6.731   3.860   4.618  0.0526 -0.6124 -0.0643
 5645SOL    HW217835   6.644   3.837   4.754 -1.2850  0.3550 -0.7353
 5646SOL     OW17836   6.641   1.819   1.831 -0.1608 -0.2667 -0.3856
 5646SOL    HW117837   6.618   1.724   1.812 -1.4528 -0.2326  0.8074
 5646SOL    HW217838   6.662   1.829   1.928 -2.0835  1.0039 -0.0597
 5647SOL     OW17839   4.284   3.816   5.377 -0.5701 -0.2493 -0.3990
 5647SOL    HW117840   4.213   3.846   5.313  0.5287  0.6357 -1.2428
 5647SOL    HW217841   4.271   3.862   5.465 -0.7050  0.3602 -0.7317
 5648SOL     OW17842   1.900   3.065   4.583 -0.0808  0.3127  0.5302
 5648SOL    HW117843   1.855   3.129   4.522  1.6418 -1.1608 -2.5449
 5648SOL    HW217844   1.983   3.107   4.622 -0.2261  0.6970  0.4234
 5649SOL     OW17845   6.459   0.854   4.817 -0.1168  0.1528 -0.8462
 5649SOL    HW117846   6.424   0.937   4.860 -0.5001 -0.0559 -0.7571
 5649SOL    HW217847   6.414   0.839   4.729  0.6597  0.5733 -1.3254
 5650SOL     OW17848   4.738   6.191   6.003  0.0370  0.4348  0.0194
 5650SOL    HW117849   4.716   6.109   6.057  1.5717 -0.9180 -1.3196
 5650SOL    HW217850   4.820   6.234   6.039 -0.3302  0.9628  0.2421
 5651SOL     OW17851   4.553   6.640   3.828  0.1090 -0.0347  0.3069
 5651SOL    HW117852   4.579   6.581   3.751 -0.7992 -0.8966  0.6387
 5651SOL    HW217853   4.633   6.689   3.862  0.9779 -1.4157  0.3101
 5652SOL     OW17854   2.907   4.321   6.017 -0.6557  0.4309 -0.0128
 5652SOL    HW117855   2.981   4.303   5.952  0.1069  0.8141  0.7385
 5652SOL    HW217856   2.823   4.341   5.966 -0.3473 -0.3847 -0.8677
 5653SOL     OW17857   2.860   0.043   5.982 -0.5483 -0.1568 -0.2702
 5653SOL    HW117858   2.837  -0.019   6.057  0.6102 -1.6344 -1.0761
 5653SOL    HW217859   2.959   0.050   5.974 -0.6619  1.0839 -0.8141
 5654SOL     OW17860   3.669   5.996   5.866 -0.0240  0.2754 -0.4897
 5654SOL    HW117861   3.712   5.946   5.941 -1.8922  1.2948  1.3674
 5654SOL    HW217862   3.600   5.937   5.823 -0.3329  0.3389 -0.0881
 5655SOL     OW17863   5.517   4.351   1.651 -0.4596  0.3856 -0.2519
 5655SOL    HW117864   5.613   4.371   1.673  0.3812 -1.3818 -1.9565
 5655SOL    HW217865   5.463   4.349   1.735  1.4180 -0.5801  0.9997
 5656SOL     OW17866   3.295   5.585   0.029 -0.0780 -0.6162  0.1329
 5656SOL    HW117867   3.235   5.665   0.031 -0.7528 -1.0792  2.9311
 5656SOL    HW217868   3.265   5.523  -0.044  0.3411  1.5105 -1.9612
 5657SOL     OW17869   4.624   6.189   2.908 -0.1372  0.0803 -1.0276
 5657SOL    HW117870   4.584   6.100   2.884 -1.7473  0.2964  0.6554
 5657SOL    HW217871   4.560   6.262   2.884  0.3256  0.6457 -0.5732
 5658SOL     OW17872   4.859   0.698   5.856 -0.0745 -0.3364  0.5077
 5658SOL    HW117873   4.831   0.712   5.761 -0.0970  0.4223  0.6168
 5658SOL    HW217874   4.924   0.769   5.883 -1.2489  0.4196  1.5128
 5659SOL     OW17875   3.085   3.674   1.871 -0.8625  0.1140  0.1502
 5659SOL    HW117876   3.112   3.763   1.834 -0.9218 -0.2151 -0.7106
 5659SOL    HW217877   3.001   3.644   1.827 -0.1824 -0.9301 -0.4969
 5660SOL     OW17878   0.620   5.400   1.905 -0.1626  0.0180 -0.8660
 5660SOL    HW117879   0.622   5.318   1.963 -0.7482  1.6598  1.6211
 5660SOL    HW217880   0.526   5.422   1.881 -0.0376  0.1837 -1.2097
 5661SOL     OW17881   4.942   3.922   6.012  0.3279 -0.3066  0.8792
 5661SOL    HW117882   4.959   4.017   5.986 -0.4407  0.4580  2.9670
 5661SOL    HW217883   5.029   3.879   6.039  0.6112 -0.0763  0.3550
 5662SOL     OW17884   0.458   2.307   0.172 -0.5251  0.5725  0.4535
 5662SOL    HW117885   0.360   2.316   0.192 -0.5199 -0.5086  1.0309
 5662SOL    HW217886   0.474   2.221   0.124  0.2219  0.4564  0.8941
 5663SOL     OW17887   3.669   4.000   5.540 -0.5313 -0.5110  0.0837
 5663SOL    HW117888   3.653   4.000   5.639 -0.3134  0.6381  0.1376
 5663SOL    HW217889   3.705   4.089   5.512 -0.5515 -0.8334 -1.0303
 5664SOL     OW17890   6.677   6.513   3.386 -0.2311 -0.5714 -0.1700
 5664SOL    HW117891   6.676   6.583   3.458  0.2290 -1.0134  0.2716
 5664SOL    HW217892   6.765   6.466   3.387  0.3429  0.3894 -1.9685
 5665SOL     OW17893   1.467   0.543   4.643  0.2921  0.5807  0.3554
 5665SOL    HW117894   1.564   0.547   4.619  0.1825 -0.3559 -0.2853
 5665SOL    HW217895   1.412   0.563   4.561 -0.0601 -0.0984  0.4192
 5666SOL     OW17896   5.697   5.889   6.768 -0.0180 -0.6650  0.6627
 5666SOL    HW117897   5.654   5.929   6.849  0.9300  0.7931  0.4907
 5666SOL    HW217898   5.769   5.950   6.736 -0.9419 -0.7773 -1.8155
 5667SOL     OW17899   5.419   5.183   3.801  0.1663  0.0832  0.1323
 5667SOL    HW117900   5.333   5.209   3.757  0.2005  0.5420  0.3253
 5667SOL    HW217901   5.407   5.098   3.852  0.0200 -0.2333 -0.4287
 5668SOL     OW17902   6.836   2.649   6.470  0.1653 -0.2582  0.3311
 5668SOL    HW117903   6.749   2.625   6.513 -0.0088 -0.0373  0.1054
 5668SOL    HW217904   6.874   2.730   6.514  0.3191 -0.4255  0.5103
 5669SOL     OW17905   1.772   2.049   5.005 -0.0182 -0.5245 -0.2320
 5669SOL    HW117906   1.727   2.012   5.086 -0.7838  1.3993  0.2735
 5669SOL    HW217907   1.869   2.024   5.007  0.1991  0.2496  1.8058
 5670SOL     OW17908   1.238   3.139   2.593 -0.6012 -0.1266  0.0454
 5670SOL    HW117909   1.290   3.209   2.642  0.3287 -1.9313  1.7906
 5670SOL    HW217910   1.253   3.149   2.494 -0.5631  2.1216  0.2316
 5671SOL     OW17911   5.789   1.224   5.179 -0.9185 -0.7920 -0.4013
 5671SOL    HW117912   5.826   1.306   5.134 -1.1540 -1.2244 -1.3934
 5671SOL    HW217913   5.807   1.230   5.278  0.5776 -0.3431 -0.6719
 5672SOL     OW17914   4.913   4.502   5.712  0.0571 -0.0904 -0.3861
 5672SOL    HW117915   4.823   4.460   5.723 -0.3229  1.0436  1.3902
 5672SOL    HW217916   4.907   4.575   5.644 -0.4380  0.1270 -0.1169
 5673SOL     OW17917   1.174   6.909   0.788  0.5105  0.5331  0.3114
 5673SOL    HW117918   1.168   6.959   0.701 -0.0938  0.1083  0.1029
 5673SOL    HW217919   1.170   6.811   0.770 -1.8538  0.4499  0.9406
 5674SOL     OW17920   1.257   3.868   6.521 -0.1064  0.1033  0.6822
 5674SOL    HW117921   1.164   3.894   6.548 -0.1942  0.1618  0.3262
 5674SOL    HW217922   1.266   3.769   6.520 -0.6900  0.0496 -1.0271
 5675SOL     OW17923   2.926   1.779   6.094 -0.5055 -0.3529  0.3349
 5675SOL    HW117924   2.992   1.811   6.162 -0.0498 -1.2442  0.3257
 5675SOL    HW217925   2.906   1.853   6.029 -0.0833  0.1493  0.7721
 5676SOL     OW17926   1.893   6.383   1.460 -0.5745 -0.1012  0.7425
 5676SOL    HW117927   1.942   6.365   1.375 -1.5824 -1.3997  0.4070
 5676SOL    HW217928   1.957   6.377   1.537  0.5358  1.9664  0.0611
 5677SOL     OW17929   6.682   1.109   2.699 -0.0741  0.3360  0.6349
 5677SOL    HW117930   6.702   1.187   2.640 -0.0655 -0.5220 -0.5313
 5677SOL    HW217931   6.585   1.084   2.689 -0.2253  0.5687  1.4678
 5678SOL     OW17932   0.706   0.697   1.172 -0.0079  0.0769 -0.8497
 5678SOL    HW117933   0.801   0.729   1.174  0.2317 -0.6469  0.7016
 5678SOL    HW217934   0.700   0.605   1.209 -1.1338 -0.4842 -2.3201
 5679SOL     OW17935   4.441   6.248   6.503  0.2988 -0.3229 -0.6036
 5679SOL    HW117936   4.412   6.343   6.497 -0.3845 -0.4490  0.3790
 5679SOL    HW217937   4.516   6.240   6.568  0.1365 -0.5007 -0.4379
 5680SOL     OW17938   1.854   0.141   0.171  0.0955  0.2017 -0.3539
 5680SOL    HW117939   1.809   0.101   0.251  2.0475 -1.6119 -0.0720
 5680SOL    HW217940   1.805   0.112   0.088 -1.5103  1.5044  0.0816
 5681SOL     OW17941   2.924   2.558   0.327 -0.0138 -0.3550  0.0231
 5681SOL    HW117942   2.915   2.625   0.401  1.9602  1.3129 -1.1413
 5681SOL    HW217943   2.992   2.590   0.261 -0.3377 -2.6818 -1.5614
 5682SOL     OW17944   1.187   6.250   3.736 -0.5901  0.2296  0.4607
 5682SOL    HW117945   1.180   6.167   3.792 -1.3324  0.2180  0.3623
 5682SOL    HW217946   1.179   6.226   3.639 -1.2155  0.4542  0.4517
 5683SOL     OW17947   3.813   4.130   1.789  0.5680  0.6638  0.2792
 5683SOL    HW117948   3.820   4.212   1.732  0.1424  0.7767  0.3898
 5683SOL    HW217949   3.722   4.125   1.829 -1.3581 -2.5897 -3.8158
 5684SOL     OW17950   4.086   3.278   3.355 -0.4561  0.1647  0.0669
 5684SOL    HW117951   4.163   3.255   3.295 -1.5554  0.3981 -1.4796
 5684SOL    HW217952   4.005   3.227   3.325 -0.8129 -0.4743  1.9865
 5685SOL     OW17953   0.268   1.317   3.076 -0.7006 -0.2198  0.8745
 5685SOL    HW117954   0.273   1.219   3.057 -0.1432  0.2516 -2.0153
 5685SOL    HW217955   0.191   1.357   3.025 -0.1149  1.0335  0.9267
 5686SOL     OW17956   4.780   3.881   6.648  0.3942  0.0096  0.0874
 5686SOL    HW117957   4.874   3.911   6.631  0.4708 -0.9779 -1.4019
 5686SOL    HW217958   4.776   3.831   6.735  2.1389 -3.4476 -1.6561
 5687SOL     OW17959   5.058   1.512   5.935 -0.4138 -0.3209  0.5648
 5687SOL    HW117960   5.043   1.440   5.866 -0.9284 -1.0824  1.4381
 5687SOL    HW217961   5.119   1.582   5.898  0.1977 -1.2700 -0.2779
 5688SOL     OW17962   4.729   0.075   3.270  0.0062 -0.5213  0.3241
 5688SOL    HW117963   4.812   0.129   3.282 -0.3898  0.0898  0.3948
 5688SOL    HW217964   4.655   0.117   3.324 -0.3785 -0.9733  0.1510
 5689SOL     OW17965   3.330   2.899   4.330 -0.0456 -0.2083 -0.6289
 5689SOL    HW117966   3.253   2.923   4.390  1.6626  1.8656  0.9088
 5689SOL    HW217967   3.305   2.915   4.235 -1.3076  1.1168 -0.1080
 5690SOL     OW17968   1.522   1.111   3.215  0.3176 -0.6914  0.0729
 5690SOL    HW117969   1.545   1.207   3.196  0.8267 -0.4642  1.6877
 5690SOL    HW217970   1.605   1.057   3.219  0.0989 -1.0328  0.0212
 5691SOL     OW17971   4.662   6.531   4.948  0.2003  0.0785 -0.0441
 5691SOL    HW117972   4.635   6.584   5.028  1.1321 -1.0334  1.0442
 5691SOL    HW217973   4.587   6.529   4.882 -1.6290 -1.2135  1.9568
 5692SOL     OW17974   5.144   3.052   2.221 -0.4050 -0.3788 -0.3615
 5692SOL    HW117975   5.097   3.128   2.175  2.3540  1.0284 -1.0858
 5692SOL    HW217976   5.153   3.074   2.318 -0.0874 -0.0365 -0.4671
 5693SOL     OW17977   6.980   1.638   3.170 -0.0025  0.0035 -0.1707
 5693SOL    HW117978   6.980   1.556   3.113  0.0232 -0.8356  0.9955
 5693SOL    HW217979   7.065   1.688   3.157 -0.3073  0.2370 -1.4141
 5694SOL     OW17980   0.072   0.945   4.544 -0.1787 -0.0050  0.3312
 5694SOL    HW117981   0.011   0.866   4.539 -0.9427  0.6171 -0.6491
 5694SOL    HW217982   0.035   1.019   4.487  2.2500 -0.1227 -1.5686
 5695SOL     OW17983   2.031   3.491   1.815 -0.1532  0.0668  0.0699
 5695SOL    HW117984   2.087   3.486   1.732 -0.1226 -0.3332  0.1102
 5695SOL    HW217985   2.091   3.491   1.895 -0.2019 -0.1498  0.1071
 5696SOL     OW17986   2.070   1.613   6.303 -0.4518 -1.0597  0.2121
 5696SOL    HW117987   2.106   1.696   6.346 -0.2404 -0.2896 -1.3877
 5696SOL    HW217988   1.979   1.631   6.267 -0.4916 -1.5898  0.0456
 5697SOL     OW17989   5.387   1.996   0.148  0.3717 -0.5535 -0.5126
 5697SOL    HW117990   5.378   1.989   0.248  1.6596 -2.1110 -0.4835
 5697SOL    HW217991   5.473   2.041   0.126  1.1615 -2.2013 -0.9114
 5698SOL     OW17992   0.742   4.817   3.447 -0.3243 -0.1523 -0.2200
 5698SOL    HW117993   0.650   4.836   3.413 -1.0727 -1.5111  0.9132
 5698SOL    HW217994   0.810   4.851   3.382 -1.6164  0.9323 -1.0434
 5699SOL     OW17995   1.220   4.379   6.638 -0.0150 -0.0414 -0.6550
 5699SOL    HW117996   1.277   4.300   6.612 -0.5784 -0.3017 -1.1409
 5699SOL    HW217997   1.197   4.431   6.556 -1.2377 -0.4701 -0.6097
 5700SOL     OW17998   2.258   5.723   4.256  0.4375 -0.0027  0.0031
 5700SOL    HW117999   2.183   5.663   4.229  0.2860  0.8322 -1.5906
 5700SOL    HW218000   2.235   5.768   4.342 -1.7935  1.6081 -1.3128
 5701SOL     OW18001   5.122   1.595   2.008  0.4478 -0.0710  0.4609
 5701SOL    HW118002   5.165   1.610   1.919  1.0503  1.7523  1.0190
 5701SOL    HW218003   5.191   1.570   2.075 -0.0405 -1.7109  0.3953
 5702SOL     OW18004   4.718   1.087   6.788  0.5159 -0.4487 -0.5039
 5702SOL    HW118005   4.734   0.990   6.809  0.1912 -0.1039  1.5022
 5702SOL    HW218006   4.802   1.139   6.807  0.5661 -0.2745 -1.1944
 5703SOL     OW18007   4.865   4.152   3.136  0.3318 -0.8898  0.0305
 5703SOL    HW118008   4.959   4.168   3.107  0.2923  0.8231  0.6803
 5703SOL    HW218009   4.858   4.064   3.182  2.1320 -0.1360  1.9208
 5704SOL     OW18010   4.882   4.251   2.820  0.3347  0.5643 -0.4021
 5704SOL    HW118011   4.845   4.208   2.738 -0.0764  0.9786 -0.4398
 5704SOL    HW218012   4.814   4.312   2.860 -0.5773 -1.7250  1.8648
 5705SOL     OW18013   0.364   2.186   5.502 -0.0584  0.1580  0.3132
 5705SOL    HW118014   0.400   2.202   5.410 -0.4674  1.8796  0.4141
 5705SOL    HW218015   0.266   2.166   5.497  0.1423 -0.8651  0.3069
 5706SOL     OW18016   3.333   1.244   5.886 -0.6619 -0.6972 -0.2817
 5706SOL    HW118017   3.314   1.204   5.796 -2.9705 -1.2577  0.4053
 5706SOL    HW218018   3.284   1.194   5.956  0.1104  0.5145  1.1751
 5707SOL     OW18019   4.197   6.603   3.311 -0.2275 -0.2737  0.2536
 5707SOL    HW118020   4.107   6.574   3.341 -0.3468 -1.9283 -1.5042
 5707SOL    HW218021   4.253   6.523   3.290  1.6506  0.7190  1.2158
 5708SOL     OW18022   1.824   1.328   0.339 -0.0353 -0.0323 -0.1665
 5708SOL    HW118023   1.749   1.262   0.335  0.2376 -0.3720  0.2551
 5708SOL    HW218024   1.885   1.305   0.414  1.3153 -0.6398 -1.4061
 5709SOL     OW18025   6.963   2.066   1.186  0.1845 -0.2594 -0.1560
 5709SOL    HW118026   7.050   2.112   1.207  0.0961  0.0490 -0.4387
 5709SOL    HW218027   6.940   2.001   1.258  0.4283 -0.0169  0.1412
 5710SOL     OW18028   2.431   5.086   6.362 -0.5068  0.5852  0.4884
 5710SOL    HW118029   2.392   5.039   6.283 -1.2802 -1.0292  1.7747
 5710SOL    HW218030   2.528   5.104   6.345 -0.3485 -0.8736 -0.3693
 5711SOL     OW18031   0.004   1.315   1.447  0.4701  0.1667 -0.2663
 5711SOL    HW118032   0.058   1.363   1.378 -2.1237 -0.3283 -2.8354
 5711SOL    HW218033  -0.069   1.376   1.480  0.5411 -0.2280  0.6237
 5712SOL     OW18034   5.470   6.067   5.934  0.8917  0.0627 -0.4258
 5712SOL    HW118035   5.371   6.051   5.933  0.8663 -0.5405  2.1689
 5712SOL    HW218036   5.489   6.165   5.930  0.0279  0.3190  0.9413
 5713SOL     OW18037   6.578   3.488   2.254 -0.0965 -0.0400 -0.4473
 5713SOL    HW118038   6.538   3.409   2.301  0.0410 -0.7444 -1.4841
 5713SOL    HW218039   6.666   3.463   2.214 -0.7393  0.1793 -2.0823
 5714SOL     OW18040   2.172   0.855   1.123 -0.1527  0.1335  0.0825
 5714SOL    HW118041   2.219   0.785   1.178 -1.3300 -1.2721 -0.6105
 5714SOL    HW218042   2.126   0.810   1.046 -0.0533  1.8388 -1.0087
 5715SOL     OW18043   0.050   5.276   4.789 -0.0100  0.0355  0.0172
 5715SOL    HW118044   0.046   5.332   4.706  1.1554 -0.5780 -0.4754
 5715SOL    HW218045   0.051   5.336   4.869  1.0092  0.7355 -0.4943
 5716SOL     OW18046   0.776   3.336   3.147  0.1324  0.4876  0.0075
 5716SOL    HW118047   0.696   3.279   3.168  1.3385 -0.9763  0.8501
 5716SOL    HW218048   0.800   3.324   3.051  0.1108 -0.1077  0.0689
 5717SOL     OW18049   6.274   3.995   6.036 -0.3266  0.1154 -0.3860
 5717SOL    HW118050   6.239   4.067   5.976  0.3457  0.9287  0.1711
 5717SOL    HW218051   6.218   3.989   6.119 -1.8726 -1.6885 -1.4749
 5718SOL     OW18052   1.816   4.481   0.122 -0.2472  0.2900  0.1515
 5718SOL    HW118053   1.865   4.394   0.114 -0.1540  0.3159  0.4651
 5718SOL    HW218054   1.720   4.462   0.142 -0.0703  0.2783  1.0050
 5719SOL     OW18055   0.584   1.642   0.762  0.3778 -0.8416  0.0247
 5719SOL    HW118056   0.677   1.679   0.767  0.9706 -2.3959  3.2254
 5719SOL    HW218057   0.546   1.634   0.854 -2.4174 -1.5949 -1.0805
 5720SOL     OW18058   2.486   6.356   4.215  0.3616  0.0868  0.1756
 5720SOL    HW118059   2.508   6.386   4.308 -0.0807  0.6478  0.1069
 5720SOL    HW218060   2.446   6.433   4.164 -0.3232 -0.4816 -0.1661
 5721SOL     OW18061   4.848   5.677   0.237 -0.1161 -0.5332  0.0958
 5721SOL    HW118062   4.923   5.614   0.216  1.0893  0.6345  0.7379
 5721SOL    HW218063   4.886   5.767   0.260 -1.8290  1.1059 -2.8545
 5722SOL     OW18064   4.321   6.338   1.489  0.2590  1.0366 -0.1511
 5722SOL    HW118065   4.411   6.344   1.446  0.0031 -0.6172 -0.9978
 5722SOL    HW218066   4.319   6.259   1.550 -0.3292  1.6387  0.6371
 5723SOL     OW18067   6.369   6.377   0.670  0.3193  0.0601 -0.0949
 5723SOL    HW118068   6.343   6.290   0.627 -2.3498 -0.7442  2.7427
 5723SOL    HW218069   6.405   6.358   0.762  1.9705  1.8685 -0.3279
 5724SOL     OW18070   4.823   3.251   5.751 -0.5277 -0.9709  0.2311
 5724SOL    HW118071   4.768   3.218   5.827  0.3743 -0.2410  1.2264
 5724SOL    HW218072   4.767   3.250   5.667 -1.9858 -0.4865  1.1487
 5725SOL     OW18073   1.065   0.203   6.618 -0.0335 -0.4333  0.4313
 5725SOL    HW118074   1.080   0.209   6.717 -1.6219 -2.4320  0.8738
 5725SOL    HW218075   1.096   0.287   6.575 -1.7828  1.6905  2.9744
 5726SOL     OW18076   4.741   0.473   4.847  0.0027 -0.4606  0.3594
 5726SOL    HW118077   4.763   0.454   4.942 -0.0228  1.8645  0.8748
 5726SOL    HW218078   4.694   0.561   4.840 -0.1631 -0.6616 -1.7941
 5727SOL     OW18079   6.077   1.517   4.456  0.1448  0.1618 -0.2666
 5727SOL    HW118080   6.097   1.611   4.426  0.3676  0.1499 -0.1591
 5727SOL    HW218081   6.130   1.453   4.401  2.5401  0.2425  1.7402
 5728SOL     OW18082   5.109   1.236   5.148  0.0554  0.2354  0.1651
 5728SOL    HW118083   5.075   1.158   5.095 -0.3147  0.7737 -0.3975
 5728SOL    HW218084   5.202   1.216   5.180 -0.7554 -1.2722  1.7701
 5729SOL     OW18085   4.660   1.533   4.138  0.1501  0.0822  0.7795
 5729SOL    HW118086   4.637   1.483   4.055  3.0059 -0.5543  0.2470
 5729SOL    HW218087   4.718   1.612   4.115 -2.6298  2.6170  1.8013
 5730SOL     OW18088   5.135   3.557   6.853  0.1161  0.4377  0.1542
 5730SOL    HW118089   5.117   3.568   6.755  0.8017  1.5031  0.1282
 5730SOL    HW218090   5.205   3.623   6.881 -0.0038  0.0739  1.3408
 5731SOL     OW18091   4.010   0.982   5.269 -0.2579  0.0964 -0.1812
 5731SOL    HW118092   3.976   1.054   5.329 -1.4408  0.5585 -1.3448
 5731SOL    HW218093   4.048   1.024   5.186  1.2037 -0.5303  0.1552
 5732SOL     OW18094   4.800   2.837   5.137  0.2292  0.2105 -0.6834
 5732SOL    HW118095   4.897   2.853   5.120 -0.0338  2.6499 -0.1459
 5732SOL    HW218096   4.757   2.920   5.171 -1.8899 -1.0640 -0.0354
 5733SOL     OW18097   1.768   2.469   2.055 -0.0194 -0.4682  0.1526
 5733SOL    HW118098   1.731   2.509   2.139  2.4540 -0.2853  1.2308
 5733SOL    HW218099   1.714   2.500   1.977 -2.8839 -1.2698  1.6842
 5734SOL     OW18100   1.927   5.833   0.754  0.0287 -0.4957 -0.5110
 5734SOL    HW118101   1.900   5.918   0.710  0.9715  0.5343  0.8175
 5734SOL    HW218102   1.848   5.794   0.802 -0.0183  0.5175  0.2575
 5735SOL     OW18103   4.847   1.869   2.774 -0.2802  0.0532  0.2959
 5735SOL    HW118104   4.916   1.855   2.703  0.5253 -0.9966  1.2558
 5735SOL    HW218105   4.859   1.802   2.847 -1.5195  0.6680  1.1127
 5736SOL     OW18106   4.152   2.320   6.552  0.0931 -0.4553 -0.0227
 5736SOL    HW118107   4.181   2.238   6.602  0.4536 -1.2999 -1.5592
 5736SOL    HW218108   4.230   2.383   6.545  0.3198 -0.7681 -0.3501
 5737SOL     OW18109   4.755   5.903   4.058  0.0485 -0.5345 -0.3109
 5737SOL    HW118110   4.845   5.887   4.019  0.4419  1.9343 -0.5474
 5737SOL    HW218111   4.746   5.850   4.143  2.5500  0.6999  0.8411
 5738SOL     OW18112   3.639   1.687   3.574 -0.2408 -0.3997 -0.4596
 5738SOL    HW118113   3.686   1.701   3.661 -0.6938 -2.3082  0.1381
 5738SOL    HW218114   3.680   1.610   3.525 -2.0035 -1.4328 -0.4207
 5739SOL     OW18115   2.088   3.180   6.758 -0.6994  0.3122  0.3677
 5739SOL    HW118116   2.138   3.232   6.688 -0.4606  0.8916  0.9614
 5739SOL    HW218117   2.154   3.133   6.817 -0.8073  1.4766  1.4620
 5740SOL     OW18118   5.395   1.758   2.300  0.5705 -0.8325  0.4023
 5740SOL    HW118119   5.346   1.841   2.275  0.3425 -0.6721  1.3357
 5740SOL    HW218120   5.332   1.680   2.295  0.4680 -0.7688  0.6740
 5741SOL     OW18121   1.110   4.137   2.259  0.4994  0.3816 -0.8626
 5741SOL    HW118122   1.138   4.179   2.173  2.3857 -1.3017 -1.1277
 5741SOL    HW218123   1.174   4.064   2.284 -0.8363 -0.1763  1.2181
 5742SOL     OW18124   0.245   4.546   2.226 -0.6368  0.0460 -0.2072
 5742SOL    HW118125   0.213   4.639   2.244 -0.2838 -0.0580  1.0203
 5742SOL    HW218126   0.169   4.482   2.236 -0.7942  0.1525 -0.6793
 5743SOL     OW18127   2.499   6.832   6.566 -0.3774 -0.1220  0.1980
 5743SOL    HW118128   2.497   6.743   6.519  1.8200 -0.7460  1.1474
 5743SOL    HW218129   2.453   6.824   6.654 -1.5995  0.1406 -0.4076
 5744SOL     OW18130   5.536   5.613   4.233 -0.6107  0.2940  0.2029
 5744SOL    HW118131   5.633   5.589   4.235 -1.0092 -1.3802  1.3257
 5744SOL    HW218132   5.485   5.541   4.186 -1.5618  0.0941  1.4931
 5745SOL     OW18133   1.641   3.408   2.242 -0.1327 -0.6946 -0.8797
 5745SOL    HW118134   1.557   3.459   2.259  0.4731 -0.0431  0.3154
 5745SOL    HW218135   1.716   3.449   2.295  0.6904 -1.9543 -1.0268
 5746SOL     OW18136   4.467   0.969   4.759  0.1712 -0.7004 -0.0584
 5746SOL    HW118137   4.465   1.067   4.777 -2.4674 -0.6558 -0.1482
 5746SOL    HW218138   4.406   0.923   4.824  0.4514 -2.1341 -0.7836
 5747SOL     OW18139   0.040   6.806   2.548  0.4253  0.4518  0.4462
 5747SOL    HW118140  -0.048   6.848   2.566  0.9583  1.5497  0.5362
 5747SOL    HW218141   0.074   6.835   2.459  0.6960  0.0194  0.4028
 5748SOL     OW18142   4.175   0.237   5.387  0.0632  0.4205  0.1999
 5748SOL    HW118143   4.258   0.187   5.361 -0.3796  0.1699 -0.7769
 5748SOL    HW218144   4.196   0.298   5.463  0.9090 -0.3503  0.6043
 5749SOL     OW18145   1.808   6.195   6.300  0.2556  0.0259 -0.0266
 5749SOL    HW118146   1.862   6.132   6.245 -0.0497 -0.6681  0.4485
 5749SOL    HW218147   1.797   6.281   6.252 -0.5227 -0.7670 -1.3237
 5750SOL     OW18148   4.702   2.455   3.471 -0.1810  0.3557 -0.0650
 5750SOL    HW118149   4.737   2.408   3.390  0.8516  1.2892 -0.1902
 5750SOL    HW218150   4.698   2.390   3.547  0.2098 -0.1906 -0.4943
 5751SOL     OW18151   6.543   4.094   3.396 -0.3912  0.3169  0.0942
 5751SOL    HW118152   6.585   4.168   3.449  1.1529 -1.6198  1.7211
 5751SOL    HW218153   6.612   4.052   3.337 -0.7644 -1.0002  0.5660
 5752SOL     OW18154   6.006   3.210   5.802 -0.0228  0.7412  0.2803
 5752SOL    HW118155   6.050   3.131   5.758  0.3867 -0.2652  2.3897
 5752SOL    HW218156   6.061   3.291   5.787 -0.5693  0.7575 -2.1423
 5753SOL     OW18157   3.166   3.492   4.921 -0.0772 -0.6024 -0.0880
 5753SOL    HW118158   3.106   3.521   4.995 -1.5190 -2.0660 -0.6160
 5753SOL    HW218159   3.156   3.393   4.907  0.3170 -0.4029 -2.0968
 5754SOL     OW18160   6.777   1.066   1.290 -0.0057  0.4017  0.2140
 5754SOL    HW118161   6.687   1.027   1.268  0.6826 -1.9979  1.2932
 5754SOL    HW218162   6.826   1.087   1.205 -0.4069 -1.2124 -0.4538
 5755SOL     OW18163   1.933   3.151   6.316  0.2514 -0.1712  0.3462
 5755SOL    HW118164   1.904   3.208   6.392 -0.3346  0.1093 -0.0779
 5755SOL    HW218165   1.933   3.205   6.232  1.5063 -0.3040  0.2383
 5756SOL     OW18166   4.482   6.807   3.369  0.5128 -0.4269 -0.2846
 5756SOL    HW118167   4.582   6.815   3.379  0.3967 -0.6509  1.3463
 5756SOL    HW218168   4.459   6.715   3.337  0.7416 -1.0500  1.2774
 5757SOL     OW18169   2.094   3.297   5.185  0.1130  0.6571  0.0882
 5757SOL    HW118170   2.163   3.370   5.183  0.0255  0.7504  0.3825
 5757SOL    HW218171   2.116   3.232   5.258  0.2354  0.3420 -0.2283
 5758SOL     OW18172   6.482   5.825   3.437 -0.1279  0.5853 -0.1653
 5758SOL    HW118173   6.502   5.743   3.383 -0.8286 -1.4003  2.3794
 5758SOL    HW218174   6.383   5.840   3.439 -0.2710 -0.3473  1.7806
 5759SOL     OW18175   2.601   5.508   3.305 -0.3199 -0.5791 -0.0826
 5759SOL    HW118176   2.639   5.453   3.230  0.1093  0.0011 -0.2996
 5759SOL    HW218177   2.652   5.492   3.388 -0.7247 -1.1387  0.0635
 5760SOL     OW18178   0.897   2.631   6.264 -0.4835  0.0507 -0.0323
 5760SOL    HW118179   0.810   2.603   6.304 -0.7252  0.7618 -0.0504
 5760SOL    HW218180   0.928   2.561   6.199 -0.6043 -0.6126  0.6110
 5761SOL     OW18181   6.031   0.862   5.391  0.1127  0.1627 -0.0664
 5761SOL    HW118182   5.986   0.802   5.324  0.1854  1.1852 -1.0556
 5761SOL    HW218183   5.965   0.928   5.426  0.2252  0.0189  0.4171
 5762SOL     OW18184   6.810   0.532   0.169  0.0430  0.2272  0.7685
 5762SOL    HW118185   6.843   0.569   0.256  0.8817  0.0517  0.5413
 5762SOL    HW218186   6.713   0.511   0.176 -0.2865  1.7774  1.1312
 5763SOL     OW18187   6.212   1.086   0.162 -0.1997 -0.4425 -0.5508
 5763SOL    HW118188   6.142   1.088   0.234  0.4373  1.1900  0.0999
 5763SOL    HW218189   6.247   0.993   0.151  0.7639 -0.5468  2.3925
 5764SOL     OW18190   3.323   1.778   5.260  0.4279 -0.0545 -0.1691
 5764SOL    HW118191   3.320   1.862   5.206 -2.0905  0.2638  0.3532
 5764SOL    HW218192   3.309   1.699   5.200 -0.9038  0.1925 -0.2058
 5765SOL     OW18193   4.867   5.765   3.252  0.4335 -0.5240 -0.2334
 5765SOL    HW118194   4.789   5.710   3.224 -2.1070  2.5653  0.1835
 5765SOL    HW218195   4.886   5.835   3.183 -0.3472  1.7490  1.7104
 5766SOL     OW18196   4.666   0.322   5.551  0.0698 -0.3411  0.0109
 5766SOL    HW118197   4.608   0.241   5.549 -1.5482  0.7495  0.4538
 5766SOL    HW218198   4.685   0.347   5.646  0.5898 -0.2118 -0.1220
 5767SOL     OW18199   1.087   0.313   5.984 -0.0951 -0.4788 -0.6056
 5767SOL    HW118200   1.149   0.377   5.937  1.0853  1.4318  3.1554
 5767SOL    HW218201   0.993   0.333   5.957  0.3893  1.6893 -0.9070
 5768SOL     OW18202   2.105   0.828   6.165 -0.2459 -0.7572  0.0226
 5768SOL    HW118203   2.179   0.765   6.140  0.1037 -0.4419  0.2390
 5768SOL    HW218204   2.087   0.890   6.088 -2.0835 -2.4783 -1.0310
 5769SOL     OW18205   2.534   2.178   6.263 -0.0327  0.8591  0.2719
 5769SOL    HW118206   2.598   2.233   6.316  0.3738  2.2561 -1.5720
 5769SOL    HW218207   2.585   2.126   6.194 -0.5796 -0.6463  0.9754
 5770SOL     OW18208   1.024   2.869   1.638 -0.2974  0.5159 -0.1580
 5770SOL    HW118209   1.025   2.961   1.598  2.0724  0.5987 -0.0296
 5770SOL    HW218210   1.115   2.829   1.632 -0.9749 -1.3282  0.9921
 5771SOL     OW18211   2.818   0.782   4.869 -0.3628 -0.1173 -0.5176
 5771SOL    HW118212   2.868   0.751   4.789 -0.9010 -2.9908  0.1603
 5771SOL    HW218213   2.722   0.755   4.861 -0.6992  0.6821  0.5278
 5772SOL     OW18214   3.124   2.154   3.211 -0.3072 -0.0478 -0.3009
 5772SOL    HW118215   3.104   2.057   3.195 -0.0984 -0.0862 -0.3357
 5772SOL    HW218216   3.191   2.162   3.285  0.1627  0.0352 -0.7267
 5773SOL     OW18217   6.349   0.615   3.345  0.1301  0.4410 -0.3886
 5773SOL    HW118218   6.383   0.692   3.290  1.5214  0.9478  1.0833
 5773SOL    HW218219   6.400   0.612   3.431 -0.5341 -1.6091 -0.0309
 5774SOL     OW18220   1.062   5.834   2.996 -0.8105  0.1827 -0.2427
 5774SOL    HW118221   1.130   5.862   3.064 -0.7326 -1.8217  0.5754
 5774SOL    HW218222   1.101   5.763   2.937 -1.2748  1.0605 -1.6599
 5775SOL     OW18223   5.942   3.559   2.659  0.7495 -0.5252 -0.3015
 5775SOL    HW118224   6.023   3.597   2.702  0.9793  1.5441 -2.3656
 5775SOL    HW218225   5.920   3.471   2.701  2.6360 -0.0424  1.8976
 5776SOL     OW18226   3.933   2.999   6.345 -0.0240  0.5064  0.2889
 5776SOL    HW118227   3.980   3.084   6.370  1.0783  0.3357 -1.0782
 5776SOL    HW218228   3.916   2.999   6.247 -2.3502  0.2543  0.6482
 5777SOL     OW18229   6.639   1.606   0.668  0.2995  0.3320 -0.2491
 5777SOL    HW118230   6.581   1.535   0.706  0.2376 -0.2581 -1.3924
 5777SOL    HW218231   6.585   1.690   0.655  0.6851  1.0670  2.3183
 5778SOL     OW18232   5.501   1.721   6.094 -0.4651  0.3976 -0.1943
 5778SOL    HW118233   5.503   1.661   6.014  0.0425  0.0180  0.0995
 5778SOL    HW218234   5.472   1.669   6.174  0.3282  0.4446  0.1378
 5779SOL     OW18235   6.418   3.632   6.255 -0.3279  0.3857 -0.2270
 5779SOL    HW118236   6.495   3.568   6.253 -0.0370  0.6819  0.6854
 5779SOL    HW218237   6.450   3.721   6.287 -1.0720  0.4792  0.2927
 5780SOL     OW18238   5.689   3.934   2.891  0.4084  0.3815 -0.1517
 5780SOL    HW118239   5.716   4.030   2.886  0.9693  0.3135  1.2443
 5780SOL    HW218240   5.595   3.927   2.924  1.2814  0.4047  2.5252
 5781SOL     OW18241   2.627   5.953   4.785 -0.3383  0.4547 -0.1803
 5781SOL    HW118242   2.560   5.945   4.711  0.7155  1.2417 -1.2480
 5781SOL    HW218243   2.717   5.923   4.752 -0.1427 -0.6876  1.2589
 5782SOL     OW18244   4.362   1.342   2.610 -0.2212 -0.5714 -0.1037
 5782SOL    HW118245   4.438   1.278   2.598 -0.2507 -0.2625 -2.6286
 5782SOL    HW218246   4.382   1.427   2.561 -1.7391 -0.0679  0.0817
 5783SOL     OW18247   1.302   2.726   0.184 -0.0109 -0.7101 -0.1656
 5783SOL    HW118248   1.342   2.651   0.132  1.0588 -0.3887  0.1704
 5783SOL    HW218249   1.375   2.781   0.224 -0.7341  1.0212 -1.1088
 5784SOL     OW18250   1.451   1.041   0.084 -0.7929  0.1619  0.2266
 5784SOL    HW118251   1.543   1.025   0.049 -0.6706  0.4524  0.4081
 5784SOL    HW218252   1.442   1.003   0.176 -0.6266  0.7653  0.4966
 5785SOL     OW18253   1.408   1.197   3.948 -0.1679  0.0712 -0.3290
 5785SOL    HW118254   1.405   1.153   3.858 -0.4969 -2.0021  0.6364
 5785SOL    HW218255   1.503   1.201   3.980 -0.0143  1.1123 -0.8935
 5786SOL     OW18256   5.387   5.768   1.586 -0.2204  0.0201  0.4233
 5786SOL    HW118257   5.460   5.792   1.522  0.4787 -0.0556  1.1640
 5786SOL    HW218258   5.394   5.828   1.667 -1.1281  0.1650  0.3979
 5787SOL     OW18259   1.831   2.220   5.407  0.4980  0.4877  0.4838
 5787SOL    HW118260   1.768   2.205   5.483 -1.7357  2.3772 -0.8519
 5787SOL    HW218261   1.884   2.303   5.423  1.5664 -0.2489  0.8836
 5788SOL     OW18262   2.933   1.458   4.800  0.2737  0.5275  0.0611
 5788SOL    HW118263   2.954   1.534   4.862 -2.0544  2.2140 -1.0503
 5788SOL    HW218264   2.938   1.490   4.705 -2.4416 -0.1507 -0.3982
 5789SOL     OW18265   2.996   3.893   4.401 -0.6494 -0.0106 -0.3593
 5789SOL    HW118266   3.077   3.839   4.423 -1.3482 -0.2743  1.7661
 5789SOL    HW218267   2.916   3.834   4.397 -1.0530  0.5310 -0.4189
 5790SOL     OW18268   1.755   3.847   4.283 -0.2864 -0.5091  0.1033
 5790SOL    HW118269   1.795   3.762   4.248  0.6363  0.2692 -0.8054
 5790SOL    HW218270   1.706   3.894   4.209  1.5090  1.0653 -0.1605
 5791SOL     OW18271   1.240   6.691   1.140  0.2425 -0.2798 -0.3302
 5791SOL    HW118272   1.284   6.754   1.076  0.6648 -0.2192  0.0111
 5791SOL    HW218273   1.307   6.661   1.208 -0.2177 -0.2744  0.1376
 5792SOL     OW18274   0.815   0.870   4.474  0.4896 -0.0758 -0.3961
 5792SOL    HW118275   0.845   0.957   4.435  0.7659 -0.6847 -1.5891
 5792SOL    HW218276   0.730   0.841   4.430  0.3279 -0.3440  0.0891
 5793SOL     OW18277   5.813   2.458   6.123  0.5184  0.4054 -0.0397
 5793SOL    HW118278   5.858   2.469   6.212 -0.7684  1.2210  0.5436
 5793SOL    HW218279   5.837   2.534   6.064 -0.0482  0.8222  0.2593
 5794SOL     OW18280   0.694   3.425   1.934  0.0043  0.4921 -0.6129
 5794SOL    HW118281   0.748   3.341   1.942 -1.0598 -0.0508  1.5493
 5794SOL    HW218282   0.604   3.412   1.977 -0.9773  2.1200 -2.0053
 5795SOL     OW18283   5.493   4.361   6.036  0.0117 -0.0631 -0.1788
 5795SOL    HW118284   5.564   4.346   5.967 -0.8258  0.5772 -1.2011
 5795SOL    HW218285   5.451   4.273   6.060 -0.1165 -0.2189 -0.9543
 5796SOL     OW18286   2.539   1.478   6.368 -0.2093  0.6240  0.1749
 5796SOL    HW118287   2.464   1.522   6.317 -1.5610 -1.4538  0.2609
 5796SOL    HW218288   2.623   1.482   6.314 -1.6157 -1.6482 -2.4456
 5797SOL     OW18289   3.125   3.283   5.744  0.7282 -0.6338  0.0511
 5797SOL    HW118290   3.095   3.339   5.667 -1.9187 -1.8395  0.1149
 5797SOL    HW218291   3.141   3.341   5.823 -2.6196  0.1176  0.3263
 5798SOL     OW18292   6.726   3.486   3.190  0.2635 -0.6257  0.0996
 5798SOL    HW118293   6.754   3.526   3.277 -0.4598  0.7103 -0.2502
 5798SOL    HW218294   6.782   3.524   3.116 -0.5678 -0.0691 -0.2629
 5799SOL     OW18295   6.695   0.874   4.404  0.3268  0.5328  0.3350
 5799SOL    HW118296   6.647   0.962   4.400 -0.2002  0.2732  0.7556
 5799SOL    HW218297   6.689   0.829   4.315  0.4688  0.8508  0.1613
 5800SOL     OW18298   5.811   4.420   4.857  0.4804 -0.5805  0.6060
 5800SOL    HW118299   5.872   4.347   4.826  0.8059 -0.0500 -0.0278
 5800SOL    HW218300   5.865   4.487   4.909  0.2406 -0.6342  0.9252
 5801SOL     OW18301   1.573   1.444   3.345  0.5725  0.1334 -0.2110
 5801SOL    HW118302   1.504   1.501   3.389 -0.4708 -1.1345 -0.1450
 5801SOL    HW218303   1.549   1.431   3.248  1.1967  0.4022 -0.4048
 5802SOL     OW18304   1.337   4.376   5.924 -0.1822  0.3155  0.4788
 5802SOL    HW118305   1.333   4.476   5.913 -2.0803  0.1580 -0.7383
 5802SOL    HW218306   1.428   4.344   5.899  0.6337  1.7801  1.4030
 5803SOL     OW18307   2.351   5.137   0.532 -0.4788  0.0718 -0.3377
 5803SOL    HW118308   2.270   5.194   0.523  0.3021  1.1933 -0.4951
 5803SOL    HW218309   2.344   5.080   0.614 -1.7305 -0.3865 -0.7472
 5804SOL     OW18310   2.810   2.666   5.819 -0.3439 -0.3409 -0.0166
 5804SOL    HW118311   2.860   2.601   5.763  0.2257  0.3522 -0.3333
 5804SOL    HW218312   2.849   2.667   5.911  0.7085  0.6728 -0.4359
 5805SOL     OW18313   4.379   4.705   5.648  1.1116  0.2013  0.6885
 5805SOL    HW118314   4.456   4.671   5.702 -0.6720 -2.2938  1.8754
 5805SOL    HW218315   4.346   4.632   5.589 -2.1305  0.1046  2.3961
 5806SOL     OW18316   5.046   5.637   6.524  0.0841 -0.4197  0.2646
 5806SOL    HW118317   4.955   5.623   6.565 -1.7043  0.6671 -2.9799
 5806SOL    HW218318   5.076   5.552   6.481 -1.9817  0.3653 -3.1303
 5807SOL     OW18319   3.241   4.395   1.675 -0.1172  0.0240  0.4533
 5807SOL    HW118320   3.157   4.447   1.690 -0.0273  0.5173 -0.6543
 5807SOL    HW218321   3.232   4.339   1.593  1.3440  1.6759 -0.9129
 5808SOL     OW18322   1.650   3.174   2.087 -0.0122  0.7287 -0.1299
 5808SOL    HW118323   1.656   3.260   2.138 -1.1837 -0.1538  1.5959
 5808SOL    HW218324   1.597   3.190   2.003 -1.0708  1.5176  0.6501
 5809SOL     OW18325   1.770   2.648   4.326 -0.1650  0.2612  0.1209
 5809SOL    HW118326   1.821   2.660   4.412 -1.3478 -0.3394  0.9289
 5809SOL    HW218327   1.672   2.659   4.344 -0.3677  0.9615 -1.3244
 5810SOL     OW18328   3.596   1.955   0.937 -0.5262 -0.0127 -0.1264
 5810SOL    HW118329   3.605   2.055   0.939 -0.3028 -0.0252 -0.3238
 5810SOL    HW218330   3.500   1.930   0.929 -0.4997  0.2219 -1.4198
 5811SOL     OW18331   3.340   0.659   1.216 -0.1960 -0.0562 -0.3785
 5811SOL    HW118332   3.408   0.611   1.272  1.8051  1.8763 -0.9800
 5811SOL    HW218333   3.304   0.737   1.267  0.3199  0.6817 -1.1243
 5812SOL     OW18334   5.332   6.719   5.212 -0.5480 -0.0513  0.2482
 5812SOL    HW118335   5.403   6.651   5.230  0.9288  1.4535  0.4800
 5812SOL    HW218336   5.242   6.676   5.212  0.4019 -2.1681 -0.7518
 5813SOL     OW18337   1.058   2.299   4.973  0.3737  0.1978  0.1245
 5813SOL    HW118338   1.083   2.266   5.063  1.0833 -0.4396 -0.2974
 5813SOL    HW218339   1.044   2.398   4.977  0.2562  0.1538  0.9563
 5814SOL     OW18340   0.211   5.245   0.301  0.6134  0.2127  0.5426
 5814SOL    HW118341   0.200   5.162   0.356 -1.0870  0.5754  0.8013
 5814SOL    HW218342   0.177   5.324   0.353  0.5122  0.7976 -0.3956
 5815SOL     OW18343   4.930   1.348   5.706 -0.5782 -0.8621  0.0453
 5815SOL    HW118344   4.932   1.430   5.650 -0.8026 -0.9057 -0.0278
 5815SOL    HW218345   4.992   1.279   5.667 -0.7234 -0.8876 -0.1435
 5816SOL     OW18346   5.580   0.388   6.113  0.8043 -0.4374 -0.0008
 5816SOL    HW118347   5.529   0.429   6.037  0.2297 -0.8941  0.1335
 5816SOL    HW218348   5.559   0.437   6.198  1.1086 -0.2031 -0.0600
 5817SOL     OW18349   5.347   2.553   0.185 -0.1859 -0.9865 -0.2993
 5817SOL    HW118350   5.291   2.471   0.188 -1.3039 -0.2004  1.1469
 5817SOL    HW218351   5.319   2.609   0.107 -2.2614 -0.0708  1.0200
 5818SOL     OW18352   0.800   0.853   6.853  0.8376 -0.3642  0.7367
 5818SOL    HW118353   0.785   0.759   6.881  0.2200 -0.2653  0.7451
 5818SOL    HW218354   0.727   0.911   6.890  2.1925  0.4368  2.2949
 5819SOL     OW18355   4.435   6.766   2.104  0.1094  0.0701 -0.2724
 5819SOL    HW118356   4.349   6.782   2.055  0.0455  0.5715 -0.0073
 5819SOL    HW218357   4.420   6.779   2.202  0.4910  0.1928 -0.2297
 5820SOL     OW18358   5.042   4.286   2.499  0.1672 -0.6700  0.1826
 5820SOL    HW118359   5.053   4.319   2.593 -0.6095  2.3622 -0.7063
 5820SOL    HW218360   4.948   4.254   2.486  0.2443 -0.9867  0.3777
 5821SOL     OW18361   3.756   0.200   3.522 -0.3924  0.1763  0.3884
 5821SOL    HW118362   3.794   0.275   3.576  0.3870 -0.9106  1.3985
 5821SOL    HW218363   3.822   0.125   3.518 -1.1601 -0.4740 -0.5865
 5822SOL     OW18364   0.843   0.801   5.432  0.1399  0.0659 -0.2699
 5822SOL    HW118365   0.932   0.846   5.435  0.1892 -0.0675  1.5724
 5822SOL    HW218366   0.782   0.843   5.500 -1.3742  0.4419 -1.7799
 5823SOL     OW18367   0.544   1.728   4.563  0.4882  0.1337  0.2048
 5823SOL    HW118368   0.573   1.636   4.591 -0.7645  0.0122  1.1757
 5823SOL    HW218369   0.538   1.732   4.463 -1.7550 -1.6132  0.1891
 5824SOL     OW18370   0.035   1.263   5.130 -0.2238 -0.5855  0.0564
 5824SOL    HW118371  -0.039   1.200   5.155 -0.5215  0.2623  1.4249
 5824SOL    HW218372   0.067   1.311   5.212  0.6504  0.3458 -0.8027
 5825SOL     OW18373   3.534   1.351   3.117  0.1929  0.5970 -0.4295
 5825SOL    HW118374   3.583   1.371   3.032 -0.9970 -1.5455 -1.7271
 5825SOL    HW218375   3.550   1.255   3.142  0.3525  1.1245  1.6990
 5826SOL     OW18376   5.987   4.745   2.953 -0.1773 -0.3784 -0.5791
 5826SOL    HW118377   6.048   4.779   2.881  1.4910 -0.6313  0.6628
 5826SOL    HW218378   5.995   4.645   2.959  0.5730 -0.2570  0.6992
 5827SOL     OW18379   3.013   4.733   0.057  0.2550 -0.2603  0.5928
 5827SOL    HW118380   3.052   4.679  -0.017  1.6819  0.8969  0.4654
 5827SOL    HW218381   3.032   4.689   0.145 -0.2569 -0.9215  0.3838
 5828SOL     OW18382   0.307   2.264   0.980 -0.5631  0.6706 -0.2850
 5828SOL    HW118383   0.292   2.308   0.891  0.6269 -0.7133 -1.2187
 5828SOL    HW218384   0.400   2.283   1.011  0.9963 -3.0874 -1.9815
 5829SOL     OW18385   2.774   2.172   1.605 -0.3653  0.2410 -0.1046
 5829SOL    HW118386   2.847   2.240   1.610 -1.3945  1.4702 -1.3105
 5829SOL    HW218387   2.738   2.166   1.512 -1.2561 -0.9501  0.2738
 5830SOL     OW18388   1.668   6.833   4.801 -0.0007 -0.2191  0.7095
 5830SOL    HW118389   1.637   6.814   4.895 -0.4752 -0.2883  0.5407
 5830SOL    HW218390   1.630   6.921   4.771  0.3612 -0.0750  0.6747
 5831SOL     OW18391   5.218   5.217   2.812 -0.1857 -0.0112  0.8455
 5831SOL    HW118392   5.188   5.176   2.726 -0.0842 -0.8747  1.2136
 5831SOL    HW218393   5.172   5.172   2.889  1.5977 -1.0010  1.3921
 5832SOL     OW18394   3.483   3.182   3.929 -0.3456 -0.3765 -0.4574
 5832SOL    HW118395   3.527   3.235   3.856 -2.0539  0.0995 -1.1801
 5832SOL    HW218396   3.496   3.084   3.912 -0.9410 -0.2803 -1.5704
 5833SOL     OW18397   3.632   3.652   4.387  0.3782  0.5487 -0.2648
 5833SOL    HW118398   3.621   3.555   4.367 -1.4171  0.8359 -0.8193
 5833SOL    HW218399   3.581   3.675   4.470 -0.3110  1.2508 -0.8653
 5834SOL     OW18400   5.025   1.708   0.275 -0.3334  0.0698 -0.1875
 5834SOL    HW118401   5.010   1.784   0.211 -0.3620  0.2287  0.0085
 5834SOL    HW218402   5.120   1.677   0.269 -0.1739  0.4912  0.1380
 5835SOL     OW18403   6.551   3.053   4.538  0.2827  0.0305  0.0714
 5835SOL    HW118404   6.550   3.014   4.446 -0.7250 -2.7727  1.1778
 5835SOL    HW218405   6.475   3.015   4.591  1.1902  1.1251  2.2754
 5836SOL     OW18406   3.996   0.603   2.736 -0.5218 -0.5436  0.4627
 5836SOL    HW118407   4.040   0.514   2.722 -0.2072 -0.4326  0.7341
 5836SOL    HW218408   3.929   0.595   2.810 -0.7467 -0.6429  0.2465
 5837SOL     OW18409   4.802   6.347   6.702 -0.1394 -0.4426 -0.0305
 5837SOL    HW118410   4.878   6.375   6.760 -1.9527  0.0498  2.2441
 5837SOL    HW218411   4.782   6.420   6.636 -0.2203  0.4923  1.0101
 5838SOL     OW18412   0.939   2.448   6.076 -0.3879 -0.4608  0.0740
 5838SOL    HW118413   0.960   2.509   5.999 -0.2739 -1.4210 -0.6732
 5838SOL    HW218414   0.953   2.353   6.048  0.2386 -0.8010  1.4705
 5839SOL     OW18415   1.230   2.409   0.286 -0.1827 -0.0947 -0.2503
 5839SOL    HW118416   1.300   2.414   0.357 -1.3824  1.2628  0.9219
 5839SOL    HW218417   1.223   2.498   0.240 -0.3392 -0.5710 -1.1732
 5840SOL     OW18418   2.068   3.739   0.654 -0.3991 -0.4925 -0.1401
 5840SOL    HW118419   2.096   3.833   0.668 -0.4297 -0.5498  0.3043
 5840SOL    HW218420   2.112   3.680   0.722  1.2452 -1.1034 -1.6582
 5841SOL     OW18421   6.255   2.979   3.225 -0.0408  0.7467  0.5564
 5841SOL    HW118422   6.214   2.983   3.134 -0.9723 -1.4249  0.8235
 5841SOL    HW218423   6.200   3.032   3.290 -1.3833 -0.5142  0.5073
 5842SOL     OW18424   3.775   0.698   2.036 -0.1830 -0.1767 -0.2887
 5842SOL    HW118425   3.756   0.665   2.129  1.3516 -0.5453 -0.0818
 5842SOL    HW218426   3.771   0.798   2.036 -0.8612 -0.1960  0.0105
 5843SOL     OW18427   6.909   2.352   0.441  0.0455 -0.4526  0.1824
 5843SOL    HW118428   6.994   2.317   0.401 -0.4966 -1.9682  0.2657
 5843SOL    HW218429   6.851   2.389   0.368  0.2345 -0.6232 -0.0588
 5844SOL     OW18430   2.801   6.692   0.390  0.1711 -0.0738 -0.3614
 5844SOL    HW118431   2.815   6.707   0.292  1.4796  0.5103 -0.1135
 5844SOL    HW218432   2.718   6.739   0.419 -0.3936 -0.5039 -1.2405
 5845SOL     OW18433   2.047   2.014   3.351 -0.4745  0.1245 -0.2320
 5845SOL    HW118434   2.137   1.971   3.359 -0.8704 -0.9901 -1.3611
 5845SOL    HW218435   2.001   2.013   3.439 -0.7519 -2.4833 -0.3228
 5846SOL     OW18436   0.484   3.329   0.271  0.4163  0.2366  1.1929
 5846SOL    HW118437   0.466   3.358   0.365  0.5703  1.8263  0.7729
 5846SOL    HW218438   0.423   3.379   0.209  1.4784  0.4916  0.3230
 5847SOL     OW18439   1.847   1.595   4.018  0.7399 -0.4430 -0.3023
 5847SOL    HW118440   1.802   1.564   3.934  0.2327 -0.6595  0.0461
 5847SOL    HW218441   1.858   1.517   4.081  0.9142 -0.2388 -0.0780
 5848SOL     OW18442   6.958   3.883   3.287 -0.2127 -0.9040 -0.5315
 5848SOL    HW118443   7.014   3.954   3.330 -0.9012 -0.8937  0.3759
 5848SOL    HW218444   6.971   3.886   3.188  0.4952 -0.1417 -0.4283
 5849SOL     OW18445   0.914   5.730   2.489  0.4525  0.1382 -0.5448
 5849SOL    HW118446   0.961   5.757   2.404  0.6446  0.7942 -0.2362
 5849SOL    HW218447   0.881   5.812   2.536 -2.4623 -0.3426 -1.5594
 5850SOL     OW18448   0.152   0.266   3.412 -0.1532 -0.4332  0.2408
 5850SOL    HW118449   0.067   0.218   3.393  0.5958 -0.7458 -2.9038
 5850SOL    HW218450   0.174   0.327   3.337  2.7517 -0.9111  0.5504
 5851SOL     OW18451   5.389   0.886   2.104  0.0052  0.2161  0.6969
 5851SOL    HW118452   5.314   0.860   2.165  1.3295 -1.8457  1.5337
 5851SOL    HW218453   5.442   0.960   2.146 -0.9414  0.9931  0.5538
 5852SOL     OW18454   3.724   5.901   1.707  0.2161 -0.0334  0.0749
 5852SOL    HW118455   3.735   5.890   1.806  0.0399  2.0396  0.3867
 5852SOL    HW218456   3.628   5.919   1.687  0.6285  2.5549 -0.0278
 5853SOL     OW18457   5.585   4.629   3.867  0.8790  0.1836  0.1005
 5853SOL    HW118458   5.552   4.693   3.797  1.6032  0.5474  0.0821
 5853SOL    HW218459   5.685   4.622   3.861  0.9067 -0.0945  0.8352
 5854SOL     OW18460   2.381   1.275   5.683  0.2997 -0.0967 -0.3939
 5854SOL    HW118461   2.477   1.272   5.655  0.8126 -1.0566  1.3072
 5854SOL    HW218462   2.365   1.207   5.755 -1.2567  1.2036  0.5545
 5855SOL     OW18463   2.233   3.092   4.543  0.2634  0.2377 -0.2774
 5855SOL    HW118464   2.276   3.121   4.457  0.7666 -0.6319 -0.3326
 5855SOL    HW218465   2.182   3.169   4.582  3.6887  2.0681  0.9553
 5856SOL     OW18466   1.022   6.609   4.580 -0.3846 -0.2741  0.5540
 5856SOL    HW118467   0.958   6.543   4.620  0.9972 -0.8886  1.7969
 5856SOL    HW218468   1.084   6.643   4.650  0.6317  0.3578 -0.6085
 5857SOL     OW18469   0.842   1.575   4.790  0.2555  0.4201  0.1300
 5857SOL    HW118470   0.902   1.496   4.803 -1.0619 -0.5763  0.4200
 5857SOL    HW218471   0.896   1.659   4.793  1.7968 -0.4790 -0.8177
 5858SOL     OW18472   3.148   0.046   3.697 -0.3009 -0.5017 -0.1359
 5858SOL    HW118473   3.181   0.033   3.603  0.8347  0.9670  0.0242
 5858SOL    HW218474   3.071   0.110   3.696 -0.6297 -0.8906 -0.1031
 5859SOL     OW18475   4.675   4.706   0.569 -0.3448  0.1948 -0.1607
 5859SOL    HW118476   4.614   4.712   0.648 -1.1234 -4.1464 -0.1926
 5859SOL    HW218477   4.770   4.714   0.599 -0.6855  0.1587  0.9633
 5860SOL     OW18478   0.062   6.238   0.308  0.0183 -0.3477 -0.2381
 5860SOL    HW118479   0.147   6.242   0.256  0.8438 -0.1972  1.0879
 5860SOL    HW218480  -0.001   6.173   0.263  1.6180 -2.0667 -0.1203
 5861SOL     OW18481   0.302   4.181   3.015 -0.3491  0.2249 -0.2950
 5861SOL    HW118482   0.391   4.215   2.984  1.2526 -1.9096  1.6740
 5861SOL    HW218483   0.285   4.210   3.109 -0.4143 -1.6591  0.3116
 5862SOL     OW18484   0.529   5.501   4.179  0.3743 -0.1301  0.0224
 5862SOL    HW118485   0.574   5.535   4.261  0.9704 -1.9085  0.4725
 5862SOL    HW218486   0.506   5.404   4.191  0.4430 -0.4234 -1.8877
 5863SOL     OW18487   2.161   1.873   6.382 -0.1670 -0.2267 -0.2827
 5863SOL    HW118488   2.180   1.933   6.305 -1.3341  0.8277  0.2151
 5863SOL    HW218489   2.246   1.849   6.428  0.3466  0.8121 -0.6763
 5864SOL     OW18490   3.863   6.633   6.796 -0.7180 -0.1039  0.4525
 5864SOL    HW118491   3.858   6.547   6.745 -1.9989 -0.4139  1.0375
 5864SOL    HW218492   3.942   6.631   6.858 -0.2145 -0.4735 -0.1941
 5865SOL     OW18493   3.940   0.405   3.307 -0.3762  0.3729 -0.3600
 5865SOL    HW118494   3.927   0.504   3.301 -0.0613  0.4397  0.0157
 5865SOL    HW218495   3.925   0.375   3.401  0.5143  0.2155 -0.2553
 5866SOL     OW18496   2.427   1.028   6.468  0.4216  0.2094 -0.4092
 5866SOL    HW118497   2.446   1.075   6.554 -0.8227  0.8734 -0.4702
 5866SOL    HW218498   2.472   1.075   6.393  3.1617 -1.4756  0.0271
 5867SOL     OW18499   6.709   0.574   2.466  0.0219  0.0585  0.3055
 5867SOL    HW118500   6.612   0.595   2.452 -0.5905 -2.8767 -0.5910
 5867SOL    HW218501   6.727   0.561   2.563 -1.0327 -1.4106  0.3414
 5868SOL     OW18502   6.172   6.097   0.120 -0.1687 -0.4308  0.1288
 5868SOL    HW118503   6.248   6.161   0.109 -1.9580  2.0193  0.9035
 5868SOL    HW218504   6.114   6.100   0.038 -1.7225  1.1475  1.1977
 5869SOL     OW18505   3.088   5.452   4.888  0.0176 -0.2872  0.0690
 5869SOL    HW118506   3.170   5.476   4.837 -0.6241 -2.0887 -1.9961
 5869SOL    HW218507   3.009   5.501   4.850  0.0952  1.7064  2.2611
 5870SOL     OW18508   5.407   5.454   3.434 -0.1466  0.0264  0.5829
 5870SOL    HW118509   5.473   5.504   3.490  0.3230 -0.0423  0.0945
 5870SOL    HW218510   5.436   5.359   3.425  0.9391  0.4962 -1.5175
 5871SOL     OW18511   3.139   3.863   6.122  0.0760  0.3158 -0.5587
 5871SOL    HW118512   3.080   3.864   6.041 -2.5660 -0.1053  1.2217
 5871SOL    HW218513   3.134   3.951   6.168  0.6119  0.1773 -0.2332
 5872SOL     OW18514   1.945   5.181   3.383  0.9777 -0.4505  1.0604
 5872SOL    HW118515   1.981   5.223   3.299  1.8046 -2.0892  0.5475
 5872SOL    HW218516   1.982   5.227   3.463  0.2919  1.0467  0.5483
 5873SOL     OW18517   6.593   3.796   0.271 -0.0389 -0.2161 -0.2958
 5873SOL    HW118518   6.558   3.836   0.356 -1.8248  1.0833 -1.5505
 5873SOL    HW218519   6.534   3.720   0.244  0.8958 -1.0333 -0.0640
 5874SOL     OW18520   6.299   3.505   6.803 -0.2544 -0.0845  0.2624
 5874SOL    HW118521   6.391   3.466   6.809 -0.1516  0.2666  1.0071
 5874SOL    HW218522   6.273   3.543   6.891 -1.4179 -0.8500  0.2702
 5875SOL     OW18523   4.851   1.712   1.625  0.1336 -0.4352 -0.3810
 5875SOL    HW118524   4.799   1.797   1.637 -0.9690 -1.1503  0.0089
 5875SOL    HW218525   4.867   1.698   1.527 -1.7879 -0.9819 -0.6635
 5876SOL     OW18526   4.618   3.659   5.524 -0.2634  0.2766  0.6170
 5876SOL    HW118527   4.656   3.688   5.436  1.2143  0.7985  1.3871
 5876SOL    HW218528   4.576   3.737   5.570  0.8571  0.5175  1.2780
 5877SOL     OW18529   0.365   4.732   1.523  0.0530 -0.4992 -0.4407
 5877SOL    HW118530   0.326   4.720   1.432  0.8333  1.1939 -1.0480
 5877SOL    HW218531   0.392   4.828   1.535 -0.3707 -0.6109  1.7213
 5878SOL     OW18532   4.938   5.024   1.960 -0.1739  0.1561 -0.4698
 5878SOL    HW118533   4.870   5.052   1.892  0.3111 -0.0244 -1.0334
 5878SOL    HW218534   4.891   4.997   2.044 -0.8628 -0.8458 -1.1599
 5879SOL     OW18535   3.513   4.193   4.723  0.4570 -0.5567 -0.0029
 5879SOL    HW118536   3.461   4.278   4.728 -0.7271 -1.3126  0.9886
 5879SOL    HW218537   3.597   4.203   4.777 -0.2331 -0.3840  1.0643
 5880SOL     OW18538   5.381   1.186   0.112 -0.0243 -0.1860  0.0945
 5880SOL    HW118539   5.397   1.096   0.070  2.7584  0.8075 -1.2778
 5880SOL    HW218540   5.453   1.204   0.179 -1.0845  0.6556  1.0250
 5881SOL     OW18541   1.287   0.605   3.943  0.1292 -0.4481 -0.5209
 5881SOL    HW118542   1.332   0.544   4.008 -0.5572  0.4300  0.8393
 5881SOL    HW218543   1.288   0.698   3.980 -1.7980 -0.2206 -0.9692
 5882SOL     OW18544   1.048   4.875   4.667  0.3646 -0.1833  0.1141
 5882SOL    HW118545   1.037   4.958   4.721  1.7745 -0.1912  0.4488
 5882SOL    HW218546   1.123   4.887   4.602 -0.4816 -0.6293 -0.9767
 5883SOL     OW18547   1.537   6.303   5.421 -0.4008 -0.3796 -0.3814
 5883SOL    HW118548   1.569   6.208   5.432  0.1707 -0.4012 -1.9377
 5883SOL    HW218549   1.588   6.362   5.483  0.8529 -0.8004 -0.9669
 5884SOL     OW18550   1.528   0.119   2.923 -0.1486  0.1080 -0.1412
 5884SOL    HW118551   1.554   0.136   3.018 -1.0976 -0.3102  0.2100
 5884SOL    HW218552   1.560   0.029   2.894 -2.3558 -1.0393  0.7652
 5885SOL     OW18553   6.858   6.032   1.631 -0.1646 -0.3319 -0.6630
 5885SOL    HW118554   6.863   6.116   1.684  0.3928 -0.3097 -0.7427
 5885SOL    HW218555   6.888   5.955   1.687  1.9679 -0.0922 -1.3836
 5886SOL     OW18556   2.125   2.872   0.823 -0.4606  0.6538 -0.2345
 5886SOL    HW118557   2.031   2.855   0.852 -0.7029  1.2807 -0.6287
 5886SOL    HW218558   2.187   2.814   0.875 -1.2331 -1.4134 -1.5040
 5887SOL     OW18559   4.905   3.312   2.399  0.1244 -0.4042  0.2269
 5887SOL    HW118560   4.917   3.393   2.342  0.8856 -1.3160 -0.9554
 5887SOL    HW218561   4.924   3.335   2.495  0.3196  0.7968 -0.0871
 5888SOL     OW18562   3.270   6.999   0.947 -0.2065  0.1333  0.3375
 5888SOL    HW118563   3.202   6.979   1.018 -1.3256  0.8747 -0.4933
 5888SOL    HW218564   3.251   6.945   0.866  1.3724 -1.0869  0.7174
 5889SOL     OW18565   5.624   0.634   2.419 -0.1789  0.6174  0.2524
 5889SOL    HW118566   5.678   0.557   2.383 -1.0241 -0.0458  0.3774
 5889SOL    HW218567   5.537   0.639   2.370 -1.5049 -0.4951  2.3613
 5890SOL     OW18568   1.494   3.672   1.352 -0.5301 -0.0799  0.0012
 5890SOL    HW118569   1.479   3.575   1.373 -1.5844  0.0986  0.1167
 5890SOL    HW218570   1.558   3.680   1.275 -0.0122 -0.8476  0.3371
 5891SOL     OW18571   2.245   1.934   6.075 -0.2890 -0.3109 -0.4014
 5891SOL    HW118572   2.308   1.857   6.063  0.1905 -0.1028  0.6098
 5891SOL    HW218573   2.151   1.903   6.064 -0.0376 -0.6672 -1.7592
 5892SOL     OW18574   2.449   2.449   1.509 -0.3209 -0.2801  0.0632
 5892SOL    HW118575   2.469   2.506   1.589 -0.5527  0.9054 -0.7027
 5892SOL    HW218576   2.351   2.436   1.500 -0.2132 -2.6085  1.4258
 5893SOL     OW18577   6.756   0.242   1.526 -0.2045 -0.8917  0.3262
 5893SOL    HW118578   6.789   0.333   1.501 -1.3700 -0.9252 -1.4724
 5893SOL    HW218579   6.828   0.175   1.509  0.0872 -0.5138  0.0563
 5894SOL     OW18580   5.246   5.723   6.685 -0.5516 -0.0394 -0.4142
 5894SOL    HW118581   5.168   5.696   6.629 -0.9415 -0.1460  0.1659
 5894SOL    HW218582   5.234   5.818   6.714 -0.3086  0.0425 -0.5859
 5895SOL     OW18583   0.507   4.418   3.572 -0.1486  0.2078 -0.1324
 5895SOL    HW118584   0.542   4.345   3.514  0.3956  0.3638 -0.0009
 5895SOL    HW218585   0.425   4.386   3.620 -1.5300  0.5572 -2.1264
 5896SOL     OW18586   5.237   0.956   1.468  0.7284 -0.1412  0.1957
 5896SOL    HW118587   5.199   1.004   1.389  0.3118  1.1177  1.1370
 5896SOL    HW218588   5.207   0.860   1.467 -0.7117  0.2981 -0.2365
 5897SOL     OW18589   2.887   4.465   0.070  0.1736 -0.4296 -0.1594
 5897SOL    HW118590   2.825   4.445   0.146 -1.4282  1.4570 -0.8798
 5897SOL    HW218591   2.842   4.440  -0.016  0.1801  1.3770 -0.7187
 5898SOL     OW18592   2.018   0.694   6.541  0.3627 -0.2001  0.1860
 5898SOL    HW118593   2.081   0.618   6.553  0.9106  0.0594 -0.9456
 5898SOL    HW218594   2.064   0.769   6.493 -0.9685 -0.2380 -1.2414
 5899SOL     OW18595   5.576   1.005   5.739  0.0619 -0.0073 -0.2117
 5899SOL    HW118596   5.594   0.983   5.643  0.2672  2.8277 -0.9136
 5899SOL    HW218597   5.663   1.010   5.789  0.0924  0.0919 -0.2739
 5900SOL     OW18598   5.872   0.107   2.439 -0.7496 -0.1675 -0.0458
 5900SOL    HW118599   5.810   0.184   2.426  0.2038  0.3250 -2.3138
 5900SOL    HW218600   5.965   0.135   2.415 -0.2918 -1.8685 -0.4282
 5901SOL     OW18601   1.435   6.779   3.627 -0.2401  0.3601 -0.5399
 5901SOL    HW118602   1.364   6.714   3.597 -0.4691  0.4286 -0.1554
 5901SOL    HW218603   1.396   6.871   3.633 -0.7960  0.0326  1.9794
 5902SOL     OW18604   4.124   3.871   5.172  0.1640 -0.0283  0.3716
 5902SOL    HW118605   4.056   3.914   5.112 -0.8854  1.2697  2.3939
 5902SOL    HW218606   4.161   3.789   5.127 -0.8924  0.6253 -1.8171
 5903SOL     OW18607   4.831   1.121   0.576  0.2226  0.1439 -0.0711
 5903SOL    HW118608   4.863   1.212   0.551 -1.2356  0.6588 -0.1780
 5903SOL    HW218609   4.887   1.085   0.650  1.0263  0.9866 -0.2521
 5904SOL     OW18610   0.858   5.485   1.669  0.1334 -0.3711  0.1020
 5904SOL    HW118611   0.826   5.451   1.758 -0.5559 -1.6315 -0.5883
 5904SOL    HW218612   0.785   5.473   1.601  0.6172  0.6613 -0.6220
 5905SOL     OW18613   6.754   3.784   6.386  0.9393 -0.1625 -0.0975
 5905SOL    HW118614   6.673   3.823   6.429  0.8437  2.1963 -2.1680
 5905SOL    HW218615   6.785   3.844   6.311  3.9258 -1.5417 -0.1457
 5906SOL     OW18616   6.720   2.322   6.083  0.4872 -0.0481  0.5965
 5906SOL    HW118617   6.760   2.240   6.125  2.2245 -0.1713 -1.1561
 5906SOL    HW218618   6.642   2.353   6.138 -0.7571 -3.3066  0.9154
 5907SOL     OW18619   1.386   5.136   6.849 -0.1648 -0.0909  0.4632
 5907SOL    HW118620   1.431   5.223   6.869  0.6840 -0.5759  0.6828
 5907SOL    HW218621   1.313   5.151   6.782  0.9194  0.5733 -0.6174
 5908SOL     OW18622   5.596   2.457   0.185  0.1598 -0.3024 -0.0359
 5908SOL    HW118623   5.505   2.497   0.198 -0.1346 -1.1178  0.4717
 5908SOL    HW218624   5.660   2.499   0.249 -0.1453 -0.6174  0.4850
 5909SOL     OW18625   6.503   4.306   2.630  0.1005  0.2608  0.0480
 5909SOL    HW118626   6.456   4.363   2.696  1.3732  0.5467  0.7390
 5909SOL    HW218627   6.510   4.212   2.665 -0.8685 -0.0423 -0.5272
 5910SOL     OW18628   0.335   4.290   2.587  0.3395 -0.7340  0.2043
 5910SOL    HW118629   0.288   4.277   2.500 -0.9446  0.6991  0.6481
 5910SOL    HW218630   0.269   4.315   2.658  1.7295  1.6269  0.7887
 5911SOL     OW18631   6.912   2.549   5.237 -0.5627  0.7221  0.2140
 5911SOL    HW118632   6.816   2.539   5.262 -0.6955  1.2632 -0.0544
 5911SOL    HW218633   6.926   2.510   5.145 -0.2280 -0.6005  0.7993
 5912SOL     OW18634   6.399   5.554   6.651  0.0972 -0.7672 -0.2078
 5912SOL    HW118635   6.407   5.457   6.632 -0.0731 -0.6219 -1.0315
 5912SOL    HW218636   6.331   5.569   6.723  2.5320 -1.5267  2.4717
 5913SOL     OW18637   2.495   2.849   5.343  0.0984 -0.2851  0.5498
 5913SOL    HW118638   2.528   2.772   5.289 -1.3038  0.0046 -0.8037
 5913SOL    HW218639   2.499   2.932   5.287 -0.8918  0.1198  1.0586
 5914SOL     OW18640   0.889   5.525   6.489  0.6112  0.3085 -0.2352
 5914SOL    HW118641   0.861   5.436   6.527  0.0935  0.0900 -1.1158
 5914SOL    HW218642   0.810   5.586   6.486  0.6844  0.3720 -0.8385
 5915SOL     OW18643   5.146   4.449   3.923 -0.3825 -0.0651  0.1036
 5915SOL    HW118644   5.215   4.473   3.855 -0.3580 -0.0629  0.1293
 5915SOL    HW218645   5.116   4.355   3.907  0.2493 -0.3627  0.6158
 5916SOL     OW18646   1.509   6.831   5.668 -0.6484  0.0076 -0.4979
 5916SOL    HW118647   1.541   6.897   5.600 -0.9257  0.4860 -0.1717
 5916SOL    HW218648   1.427   6.785   5.633 -0.6989  0.1369 -0.5501
 5917SOL     OW18649   3.271   3.039   1.446 -0.2642 -0.1366  1.0007
 5917SOL    HW118650   3.316   2.963   1.398 -0.5520  0.4971 -0.3170
 5917SOL    HW218651   3.172   3.025   1.444 -0.3199  0.2824  0.7206
 5918SOL     OW18652   1.959   1.689   4.326 -0.2097 -0.8804 -0.3449
 5918SOL    HW118653   2.001   1.650   4.245  1.7918  1.7109 -0.6712
 5918SOL    HW218654   1.900   1.765   4.300 -0.5632 -0.8263  0.5621
 5919SOL     OW18655   4.588   1.012   5.693  0.3295  0.2449  0.3639
 5919SOL    HW118656   4.580   1.096   5.638  0.2216 -0.0129 -0.0182
 5919SOL    HW218657   4.496   0.982   5.720  0.3215 -0.1146 -0.0571
 5920SOL     OW18658   0.811   4.574   6.850 -0.6681 -0.0849 -0.2763
 5920SOL    HW118659   0.767   4.561   6.761 -2.3733  1.3200  0.3023
 5920SOL    HW218660   0.855   4.664   6.853 -0.2807 -0.2827  0.1817
 5921SOL     OW18661   3.556   0.057   3.219  0.2178 -0.1134  0.0345
 5921SOL    HW118662   3.595   0.052   3.311  0.5728  0.2115 -0.0976
 5921SOL    HW218663   3.470   0.006   3.217  0.4898 -0.5998  0.4016
 5922SOL     OW18664   0.323   4.992   3.629  0.3264 -0.0377 -0.2480
 5922SOL    HW118665   0.290   4.985   3.535 -0.4501 -2.8254  0.1434
 5922SOL    HW218666   0.328   4.901   3.670 -0.0224  1.1217  2.6578
 5923SOL     OW18667   2.018   0.289   4.116 -0.0555 -0.8471  0.4058
 5923SOL    HW118668   1.978   0.284   4.025 -1.1169 -0.1825  0.8206
 5923SOL    HW218669   1.960   0.241   4.181 -0.3108  0.2897  1.0512
 5924SOL     OW18670   6.433   2.500   3.314 -0.3630  0.2824 -0.1274
 5924SOL    HW118671   6.363   2.443   3.272 -1.6523  0.9349  1.0763
 5924SOL    HW218672   6.408   2.596   3.305 -0.4216  0.4649  1.6507
 5925SOL     OW18673   5.388   4.060   1.825  0.1386 -0.8394  0.2702
 5925SOL    HW118674   5.424   4.054   1.918 -2.0075 -0.9810  1.1519
 5925SOL    HW218675   5.415   4.148   1.785  1.4526 -0.9564  0.8474
 5926SOL     OW18676   2.573   6.800   2.346  0.3960 -0.4104  0.2450
 5926SOL    HW118677   2.529   6.711   2.356  0.9823 -0.6818  0.4977
 5926SOL    HW218678   2.524   6.868   2.400 -0.2526 -0.5067 -0.2183
 5927SOL     OW18679   1.458   5.557   0.001  0.0019  0.3750 -0.2472
 5927SOL    HW118680   1.411   5.635   0.043 -1.2961  0.1046 -1.1489
 5927SOL    HW218681   1.446   5.476   0.059  2.4613  1.0618  1.3772
 5928SOL     OW18682   5.006   0.347   1.532 -0.5021  0.2384  0.1351
 5928SOL    HW118683   5.091   0.336   1.584 -0.1224  0.1624 -0.4863
 5928SOL    HW218684   4.937   0.393   1.589  0.6122  2.2046 -0.0079
 5929SOL     OW18685   1.427   1.166   1.133  0.3686 -0.0397 -0.1351
 5929SOL    HW118686   1.400   1.254   1.171 -0.8448  0.6821 -2.5271
 5929SOL    HW218687   1.508   1.178   1.076  0.6441 -0.6241  0.1259
 5930SOL     OW18688   6.877   3.102   3.360 -0.2648  0.4867 -0.1478
 5930SOL    HW118689   6.913   3.052   3.438 -0.3186  0.1187 -0.3562
 5930SOL    HW218690   6.832   3.038   3.298 -1.6959  0.9796  0.3394
 5931SOL     OW18691   6.074   5.103   6.666 -0.2330  0.8441  0.0192
 5931SOL    HW118692   6.126   5.031   6.712  0.3854  1.2821  0.0269
 5931SOL    HW218693   5.977   5.091   6.685 -0.1107  0.1889  0.2637
 5932SOL     OW18694   2.125   1.228   0.196 -0.6674  0.4790  0.4469
 5932SOL    HW118695   2.053   1.252   0.262 -2.0666 -0.6826 -0.5726
 5932SOL    HW218696   2.152   1.133   0.211 -1.3062  0.0667 -0.8751
 5933SOL     OW18697   6.126   2.383   1.966  0.1347 -0.7895  0.1682
 5933SOL    HW118698   6.187   2.399   1.888 -1.5537 -1.6535 -1.3919
 5933SOL    HW218699   6.116   2.284   1.980 -0.9639 -0.6664  0.3251
 5934SOL     OW18700   5.359   3.056   1.906 -0.0842 -0.2823  0.0886
 5934SOL    HW118701   5.275   3.110   1.914  1.5336  2.4603 -0.1495
 5934SOL    HW218702   5.392   3.032   1.997  1.5033  3.1865  0.5840
 5935SOL     OW18703   2.941   3.777   3.117 -0.3166  0.1356 -0.3787
 5935SOL    HW118704   2.973   3.870   3.098  0.4434 -0.1455 -0.5223
 5935SOL    HW218705   2.927   3.728   3.031 -1.6332  0.4022 -0.3382
 5936SOL     OW18706   0.975   6.203   5.887  0.0493  0.3446  0.3378
 5936SOL    HW118707   0.906   6.167   5.949 -0.3025  1.5374  0.6679
 5936SOL    HW218708   0.973   6.151   5.801 -0.9817  0.1064  0.4901
 5937SOL     OW18709   1.023   3.140   1.508  0.0034  0.1274  0.0961
 5937SOL    HW118710   0.946   3.154   1.445 -0.0367 -1.4777 -0.2422
 5937SOL    HW218711   1.107   3.175   1.467  0.0336 -1.1667 -1.0047
 5938SOL     OW18712   4.203   4.593   1.534  0.1951  0.0273 -0.2480
 5938SOL    HW118713   4.118   4.551   1.565  1.3889 -0.3486  2.8270
 5938SOL    HW218714   4.280   4.557   1.586  2.0010  1.9913 -1.3554
 5939SOL     OW18715   0.578   0.069   2.664  0.2602 -0.4401  0.5929
 5939SOL    HW118716   0.504   0.045   2.727  0.2598  0.7095  1.0631
 5939SOL    HW218717   0.661   0.086   2.716  0.8423 -1.5947  0.0771
 5940SOL     OW18718   5.340   4.540   2.975 -0.1611 -0.2201  0.7218
 5940SOL    HW118719   5.258   4.566   3.026 -0.8278 -0.6129 -0.1149
 5940SOL    HW218720   5.359   4.443   2.990 -0.2830 -0.3051  0.3277
 5941SOL     OW18721   5.910   2.781   1.935  0.3897 -0.3870  0.1688
 5941SOL    HW118722   5.964   2.862   1.911  0.1320  0.4301  2.0794
 5941SOL    HW218723   5.965   2.720   1.991  0.1105 -0.7892  0.0036
 5942SOL     OW18724   1.600   2.097   5.568 -0.1143 -0.0947  0.4663
 5942SOL    HW118725   1.556   2.102   5.658 -2.4079  1.0458 -0.6266
 5942SOL    HW218726   1.530   2.086   5.497  1.5112  0.4262 -1.3168
 5943SOL     OW18727   1.987   5.185   0.224  0.3667 -0.0621  0.0418
 5943SOL    HW118728   1.931   5.229   0.153  0.3862 -1.1454 -0.6770
 5943SOL    HW218729   2.081   5.218   0.218  0.6457 -0.9927 -1.2509
 5944SOL     OW18730   5.681   1.943   0.735  0.4725  0.4845  0.1534
 5944SOL    HW118731   5.603   1.974   0.788  0.1624 -0.0617  0.0258
 5944SOL    HW218732   5.765   1.977   0.776  0.2322  0.1119  0.9693
 5945SOL     OW18733   6.779   6.713   4.706 -0.1079 -0.1437 -0.2170
 5945SOL    HW118734   6.859   6.740   4.761  1.8531 -0.6888 -2.6672
 5945SOL    HW218735   6.769   6.614   4.708  0.8748 -0.3134 -1.9131
 5946SOL     OW18736   5.071   2.810   6.075 -0.5639 -0.0631  0.0065
 5946SOL    HW118737   5.104   2.779   6.164 -2.5671 -0.6254  0.6171
 5946SOL    HW218738   5.121   2.764   6.002  1.9955  1.3509  0.7517
 5947SOL     OW18739   4.882   4.550   3.232 -0.2614 -0.0986  0.3221
 5947SOL    HW118740   4.849   4.536   3.139  1.8964 -1.5335 -0.2834
 5947SOL    HW218741   4.835   4.630   3.272 -3.2365 -1.0464 -0.9570
 5948SOL     OW18742   3.516   0.446   4.421  0.2307 -0.2001 -0.0683
 5948SOL    HW118743   3.477   0.410   4.505  0.4778 -2.1109 -0.7289
 5948SOL    HW218744   3.447   0.501   4.373 -0.4826 -0.5918  0.4950
 5949SOL     OW18745   5.149   2.277   1.629 -0.3386  0.4458  0.1587
 5949SOL    HW118746   5.163   2.354   1.567 -1.0146  0.4874  0.0488
 5949SOL    HW218747   5.150   2.310   1.723  0.8184  0.3639  0.1972
 5950SOL     OW18748   1.235   1.889   4.903  0.0834 -0.4959 -0.0818
 5950SOL    HW118749   1.191   1.904   4.814  1.8867  2.2488 -0.6481
 5950SOL    HW218750   1.169   1.905   4.976 -1.0095 -1.1614 -0.8976
 5951SOL     OW18751   3.587   0.628   3.810 -0.3160  0.1992  0.2979
 5951SOL    HW118752   3.595   0.725   3.835 -0.0429  0.3911 -0.5178
 5951SOL    HW218753   3.540   0.620   3.722 -1.1214 -0.4622  0.7741
 5952SOL     OW18754   6.204   6.646   5.512 -0.5731 -0.3838 -0.0460
 5952SOL    HW118755   6.162   6.699   5.438 -0.7671 -0.7223 -0.1799
 5952SOL    HW218756   6.140   6.576   5.543 -0.1610 -0.8026 -0.1403
 5953SOL     OW18757   0.601   3.803   6.306  0.0216 -0.1453 -0.0461
 5953SOL    HW118758   0.631   3.749   6.385  1.4129 -0.2115 -0.5810
 5953SOL    HW218759   0.597   3.899   6.331 -1.2436 -0.3424  0.5680
 5954SOL     OW18760   1.661   4.248   5.858 -0.3248 -0.0660  0.7550
 5954SOL    HW118761   1.611   4.234   5.772 -0.3923 -0.2266  0.8196
 5954SOL    HW218762   1.737   4.311   5.843 -1.1201  0.9328  0.8672
 5955SOL     OW18763   2.440   4.860   2.035  0.3420  0.0360  0.0225
 5955SOL    HW118764   2.515   4.924   2.019  1.4639 -1.6893 -2.2022
 5955SOL    HW218765   2.474   4.766   2.029 -2.0198 -0.8286 -1.4646
 5956SOL     OW18766   1.870   0.610   2.228  0.2012 -0.1878 -0.3178
 5956SOL    HW118767   1.771   0.598   2.217  0.0145  0.2685  0.7194
 5956SOL    HW218768   1.890   0.708   2.238  0.4698 -0.4291  1.8193
 5957SOL     OW18769   3.449   6.824   1.092  0.3240  0.6192  0.5934
 5957SOL    HW118770   3.448   6.921   1.067  0.1783  1.1520  2.4718
 5957SOL    HW218771   3.378   6.776   1.040  0.0977  1.6103 -0.0502
 5958SOL     OW18772   4.746   4.633   1.918  0.6859 -0.8030 -0.0525
 5958SOL    HW118773   4.719   4.547   1.875  1.9300 -1.8891  1.2318
 5958SOL    HW218774   4.674   4.664   1.980  0.3629 -1.0924 -0.2823
 5959SOL     OW18775   6.814   6.741   5.355  0.2019 -0.1325 -0.8030
 5959SOL    HW118776   6.880   6.668   5.373 -0.1916 -0.7770 -1.9199
 5959SOL    HW218777   6.859   6.830   5.370  0.8775 -0.5776 -0.0969
 5960SOL     OW18778   2.738   4.495   5.359 -0.2940 -0.1014  0.0114
 5960SOL    HW118779   2.823   4.489   5.308 -1.5526 -0.5677 -2.1722
 5960SOL    HW218780   2.756   4.530   5.451  2.1972 -0.0774 -0.4293
 5961SOL     OW18781   2.812   0.456   0.009 -0.1165  0.3286 -0.4251
 5961SOL    HW118782   2.791   0.488  -0.084  0.7405 -1.5631 -1.3227
 5961SOL    HW218783   2.908   0.475   0.029 -0.5211  1.5412  0.4587
 5962SOL     OW18784   5.197   5.459   2.210  0.9943  0.0253  0.0165
 5962SOL    HW118785   5.208   5.439   2.307 -0.2463  0.5623  0.2907
 5962SOL    HW218786   5.190   5.558   2.197 -1.3896 -0.1119 -0.2683
 5963SOL     OW18787   5.259   3.560   1.306 -0.2096  0.0282 -0.6452
 5963SOL    HW118788   5.249   3.647   1.355  0.9363  0.7567 -1.6280
 5963SOL    HW218789   5.267   3.485   1.371 -1.7078  0.5660  0.2257
 5964SOL     OW18790   0.494   4.564   5.862  0.2795  0.1417 -0.2522
 5964SOL    HW118791   0.405   4.552   5.817  0.3258  0.8781 -0.5658
 5964SOL    HW218792   0.511   4.662   5.875  1.5205  0.0722 -1.1765
 5965SOL     OW18793   1.367   3.425   5.166  0.0267  0.3829 -0.1889
 5965SOL    HW118794   1.435   3.412   5.239  0.5591  1.6487 -0.4474
 5965SOL    HW218795   1.413   3.448   5.081 -0.4078 -3.1941 -1.5746
 5966SOL     OW18796   2.954   5.536   5.480  0.3407 -0.0380  0.0320
 5966SOL    HW118797   2.922   5.541   5.575  2.3810  1.9081  0.7217
 5966SOL    HW218798   2.981   5.442   5.459 -2.5022 -1.0564  0.4516
 5967SOL     OW18799   5.931   6.440   1.045 -0.4392  0.0046 -0.5343
 5967SOL    HW118800   5.872   6.476   0.973 -0.5453 -0.1571 -0.5293
 5967SOL    HW218801   5.983   6.515   1.087 -0.7154  0.1628 -0.4731
 5968SOL     OW18802   0.908   0.663   4.043  0.5181 -0.2582  0.3312
 5968SOL    HW118803   0.954   0.693   4.127  0.7987 -1.5148  0.6448
 5968SOL    HW218804   0.956   0.584   4.005 -1.1680 -1.4382  0.5027
 5969SOL     OW18805   0.395   3.114   4.814  0.2989 -0.5519  0.0314
 5969SOL    HW118806   0.343   3.160   4.885  1.1847  2.4790 -1.1087
 5969SOL    HW218807   0.485   3.157   4.805  0.5146 -1.3359 -2.3549
 5970SOL     OW18808   2.409   4.776   3.700 -0.2580  0.3560 -0.0152
 5970SOL    HW118809   2.423   4.871   3.672  0.3788 -0.1913 -1.6821
 5970SOL    HW218810   2.396   4.772   3.799  3.2117  1.8169  0.6295
 5971SOL     OW18811   2.051   6.622   2.089  0.0448  0.0817  0.1408
 5971SOL    HW118812   2.092   6.699   2.040 -2.0035  0.7510 -0.6049
 5971SOL    HW218813   1.965   6.597   2.047 -0.8541 -0.6087  2.2403
 5972SOL     OW18814   3.796   6.190   6.836  0.2394 -0.3645  0.6431
 5972SOL    HW118815   3.704   6.151   6.840 -0.4313  1.0761 -0.0634
 5972SOL    HW218816   3.820   6.211   6.742  1.1770 -0.4227  0.8540
 5973SOL     OW18817   0.953   4.731   2.121 -0.4033 -0.6646 -0.5016
 5973SOL    HW118818   0.944   4.695   2.214  1.8619  0.1415  0.0980
 5973SOL    HW218819   1.007   4.668   2.066 -1.3439 -0.9147 -1.1588
 5974SOL     OW18820   0.607   3.335   0.801  0.2549  0.0848 -0.5922
 5974SOL    HW118821   0.643   3.253   0.845 -1.1993 -0.9285 -1.2196
 5974SOL    HW218822   0.579   3.401   0.871 -0.2784 -0.7286 -0.0215
 5975SOL     OW18823   1.239   2.074   6.109  0.0811 -0.0824 -0.0526
 5975SOL    HW118824   1.248   2.173   6.119  1.3008 -0.2136  0.4279
 5975SOL    HW218825   1.203   2.035   6.193  0.0762 -0.0919 -0.0591
 5976SOL     OW18826   3.885   3.434   5.268 -0.4678 -0.3282  0.4467
 5976SOL    HW118827   3.966   3.378   5.282 -1.1750 -1.3455  0.6152
 5976SOL    HW218828   3.912   3.527   5.242  0.7307 -0.7666  0.0614
 5977SOL     OW18829   5.679   2.870   1.617  0.4849 -0.2556  0.3480
 5977SOL    HW118830   5.734   2.940   1.664  0.1437  0.3001 -0.0841
 5977SOL    HW218831   5.662   2.898   1.523  0.6040 -1.0680  0.0773
 5978SOL     OW18832   5.661   3.586   0.883 -0.3874 -0.4143  0.4681
 5978SOL    HW118833   5.737   3.645   0.856  0.0459 -1.3507 -0.4521
 5978SOL    HW218834   5.697   3.495   0.907 -1.1809 -0.7519  0.3940
 5979SOL     OW18835   1.752   0.946   1.303 -0.7999 -0.0856  0.0981
 5979SOL    HW118836   1.772   0.894   1.386  0.1748 -0.4213 -0.3215
 5979SOL    HW218837   1.760   0.886   1.223 -0.8793  0.4236 -0.3018
 5980SOL     OW18838   5.339   4.761   0.120 -0.3197  0.5058  0.2899
 5980SOL    HW118839   5.391   4.845   0.137 -0.6330  0.8763 -0.5121
 5980SOL    HW218840   5.246   4.785   0.090  0.0582 -0.0966 -1.4424
 5981SOL     OW18841   3.232   1.386   0.965  0.4401 -0.1649 -0.0124
 5981SOL    HW118842   3.171   1.363   0.889  2.4877 -2.2235 -1.1333
 5981SOL    HW218843   3.191   1.355   1.051 -1.8641  2.1184 -0.1442
 5982SOL     OW18844   6.033   3.853   6.712 -0.4085  0.0353  0.1672
 5982SOL    HW118845   5.944   3.890   6.684 -0.0624  0.6580 -0.1141
 5982SOL    HW218846   6.051   3.768   6.663 -0.0561  0.8252 -1.0892
 5983SOL     OW18847   6.303   0.382   3.197 -0.1229 -0.0280 -0.7254
 5983SOL    HW118848   6.390   0.345   3.230  2.0157  2.4355 -3.1030
 5983SOL    HW218849   6.293   0.475   3.231 -1.0090  0.2851 -1.8210
 5984SOL     OW18850   1.270   6.689   5.651 -0.1935  0.5187 -0.1141
 5984SOL    HW118851   1.201   6.711   5.582 -1.9323  0.5545  1.5786
 5984SOL    HW218852   1.231   6.697   5.742  2.0073  0.3286  0.9217
 5985SOL     OW18853   6.673   2.013   3.144 -0.1055  0.2965  0.1336
 5985SOL    HW118854   6.640   2.068   3.222  2.0456  2.8750 -0.6063
 5985SOL    HW218855   6.687   2.073   3.066  3.2653 -1.1041 -0.4988
 5986SOL     OW18856   3.823   2.892   2.284  0.0153 -0.0154  0.3997
 5986SOL    HW118857   3.821   2.846   2.374  1.4467 -1.2895 -0.1776
 5986SOL    HW218858   3.731   2.888   2.243 -1.2129  2.3886  2.6062
 5987SOL     OW18859   4.761   0.813   5.621  0.2880 -0.1044  0.1294
 5987SOL    HW118860   4.763   0.779   5.527  1.1790 -4.3994  1.5031
 5987SOL    HW218861   4.674   0.858   5.638 -0.2999 -0.1032 -2.4447
 5988SOL     OW18862   3.989   6.788   5.045 -0.0951  0.1227 -0.1915
 5988SOL    HW118863   4.012   6.885   5.034 -1.0086  0.4494  0.6523
 5988SOL    HW218864   3.893   6.778   5.069 -0.2045 -1.0576 -1.0134
 5989SOL     OW18865   3.417   6.654   1.607  0.4845  0.2254  0.1104
 5989SOL    HW118866   3.335   6.629   1.556  1.2222 -1.1543 -0.4770
 5989SOL    HW218867   3.466   6.726   1.559  0.2172  0.2385 -0.1436
 5990SOL     OW18868   3.445   5.980   2.801  0.3840 -0.0154 -0.2199
 5990SOL    HW118869   3.534   5.984   2.847 -0.3422 -1.3731  1.4384
 5990SOL    HW218870   3.457   5.952   2.706  1.8761  1.9682 -0.6843
 5991SOL     OW18871   3.174   4.881   3.751  0.5068 -0.4295 -0.3913
 5991SOL    HW118872   3.123   4.858   3.834  1.0424 -2.4644 -0.5668
 5991SOL    HW218873   3.110   4.901   3.677 -0.0051 -0.5970 -0.0013
 5992SOL     OW18874   5.437   2.592   4.456 -0.4742  0.2700  0.4161
 5992SOL    HW118875   5.524   2.641   4.463 -0.9421  1.2458 -0.2379
 5992SOL    HW218876   5.425   2.560   4.362  0.6236 -2.7231  1.1730
 5993SOL     OW18877   3.133   6.321   5.692  0.0156  0.3533  0.6666
 5993SOL    HW118878   3.201   6.394   5.695  1.1216 -0.6377  0.3897
 5993SOL    HW218879   3.129   6.283   5.599  0.7785 -1.1445  1.2303
 5994SOL     OW18880   1.360   0.989   1.612 -0.1367  0.0399 -0.7657
 5994SOL    HW118881   1.412   1.027   1.535 -0.0405 -0.3732 -0.9069
 5994SOL    HW218882   1.405   1.015   1.698 -0.4347  0.7895 -0.8259
 5995SOL     OW18883   0.881   4.440   0.846  0.5253  0.2821 -0.5579
 5995SOL    HW118884   0.951   4.386   0.893  0.4186  1.0100  0.4722
 5995SOL    HW218885   0.844   4.508   0.909 -0.9262  0.0894 -1.1738
 5996SOL     OW18886   6.559   6.806   6.690 -0.0034  0.1185  0.4465
 5996SOL    HW118887   6.531   6.710   6.683  0.1623  0.1494 -0.9439
 5996SOL    HW218888   6.654   6.815   6.659 -0.4252  0.8995 -0.7079
 5997SOL     OW18889   0.592   6.327   6.459 -0.4925 -0.3873  0.1281
 5997SOL    HW118890   0.587   6.426   6.449 -0.2085 -0.2316  1.4220
 5997SOL    HW218891   0.653   6.304   6.535 -1.4166 -1.5152  0.5554
 5998SOL     OW18892   5.891   1.706   3.202 -0.0396  0.0730  0.3146
 5998SOL    HW118893   5.901   1.759   3.118 -1.2301  0.4341  0.3914
 5998SOL    HW218894   5.907   1.764   3.281  1.0331 -0.2563  0.3588
 5999SOL     OW18895   1.820   4.202   3.512  0.1876 -0.1067  0.3017
 5999SOL    HW118896   1.762   4.267   3.463  2.2045  1.1784 -0.4989
 5999SOL    HW218897   1.764   4.149   3.575 -1.8585  0.9683 -0.5087
 6000SOL     OW18898   5.423   1.193   3.501 -0.0859 -0.3102 -0.1263
 6000SOL    HW118899   5.508   1.213   3.452  0.5510 -3.9104 -0.7778
 6000SOL    HW218900   5.345   1.210   3.440  0.2555  1.0614 -0.2145
 6001SOL     OW18901   3.670   0.658   0.824 -0.1247 -0.3781  0.0487
 6001SOL    HW118902   3.587   0.647   0.878 -1.3248  2.4672 -0.9814
 6001SOL    HW218903   3.743   0.694   0.882  0.7816 -3.6741  1.1521
 6002SOL     OW18904   0.747   0.449   1.331  0.1716 -0.3545  0.4970
 6002SOL    HW118905   0.842   0.478   1.339  0.9360 -2.1556 -1.1495
 6002SOL    HW218906   0.726   0.380   1.400 -0.0063  0.1574  0.9615
 6003SOL     OW18907   5.853   5.895   4.204 -0.3775  0.4659  0.3351
 6003SOL    HW118908   5.767   5.933   4.170 -0.5301  0.8633  1.1546
 6003SOL    HW218909   5.930   5.939   4.157 -0.6074 -0.0771 -0.5903
 6004SOL     OW18910   0.453   5.347   3.063 -0.6133 -0.1751  0.7995
 6004SOL    HW118911   0.551   5.327   3.067 -0.9035 -2.0280 -0.2869
 6004SOL    HW218912   0.436   5.438   3.100  1.6230  0.5664  0.1414
 6005SOL     OW18913   1.802   6.143   2.733  0.1174 -0.3101  0.2448
 6005SOL    HW118914   1.783   6.077   2.807  1.0676  1.0779  1.7982
 6005SOL    HW218915   1.894   6.180   2.745  0.2565  0.0331 -1.6273
 6006SOL     OW18916   0.427   1.395   2.387 -0.5286 -0.0309 -0.4803
 6006SOL    HW118917   0.362   1.320   2.372 -1.2043  0.4218  0.0909
 6006SOL    HW218918   0.520   1.364   2.368 -0.8033 -1.0110 -0.2309
 6007SOL     OW18919   4.861   3.321   4.677  0.0479  0.2363  0.4311
 6007SOL    HW118920   4.771   3.358   4.654  0.5294  0.8232 -0.5813
 6007SOL    HW218921   4.851   3.251   4.747 -1.4980 -1.4485 -1.3536
 6008SOL     OW18922   6.949   5.657   0.476  0.6659 -0.0235  0.3848
 6008SOL    HW118923   6.922   5.749   0.449 -3.0095 -0.8626  0.6317
 6008SOL    HW218924   6.965   5.654   0.574 -2.7810 -0.1561  1.0915
 6009SOL     OW18925   4.481   1.385   5.786 -0.2337 -0.1176 -0.0535
 6009SOL    HW118926   4.479   1.335   5.699 -2.3635 -1.0961  0.5001
 6009SOL    HW218927   4.557   1.351   5.841 -0.8385 -1.8569 -0.2328
 6010SOL     OW18928   2.024   5.799   4.006  0.8032 -0.6317 -0.4086
 6010SOL    HW118929   2.010   5.890   4.045  0.8998 -1.3540  1.3937
 6010SOL    HW218930   2.035   5.732   4.080 -0.6166 -2.3315 -1.6656
 6011SOL     OW18931   6.358   1.804   1.795  0.4488 -0.0892  0.7427
 6011SOL    HW118932   6.458   1.798   1.800  0.4623  0.1890  0.8092
 6011SOL    HW218933   6.319   1.778   1.883  0.5379  1.4539  1.2580
 6012SOL     OW18934   2.312   2.372   0.663 -0.2759 -0.3489  0.0643
 6012SOL    HW118935   2.289   2.356   0.759  1.2528 -0.6405  0.4088
 6012SOL    HW218936   2.407   2.405   0.656 -0.5206  0.1458 -1.3082
 6013SOL     OW18937   4.790   2.529   1.664 -1.0810 -0.1180  0.3018
 6013SOL    HW118938   4.768   2.602   1.729  0.7223  0.0943  0.7208
 6013SOL    HW218939   4.804   2.568   1.573 -1.3904 -0.1145  0.2556
 6014SOL     OW18940   6.496   1.776   6.460 -0.3352  0.6666  0.3453
 6014SOL    HW118941   6.417   1.715   6.469  0.7523 -0.5769  1.8889
 6014SOL    HW218942   6.486   1.853   6.523  0.5033 -0.4617  1.9137
 6015SOL     OW18943   6.451   5.293   2.772  0.5370  0.0083 -0.5438
 6015SOL    HW118944   6.424   5.381   2.733  0.2575 -0.0966 -0.5880
 6015SOL    HW218945   6.486   5.233   2.700  0.7759  0.1012 -0.5057
 6016SOL     OW18946   1.773   0.451   6.734  0.1660 -0.1756 -0.1843
 6016SOL    HW118947   1.686   0.473   6.689 -0.2463 -1.0389  0.1570
 6016SOL    HW218948   1.800   0.358   6.711  1.7064  0.5197 -1.3481
 6017SOL     OW18949   0.212   4.528   3.663 -0.5605  0.2208  1.0860
 6017SOL    HW118950   0.223   4.434   3.695 -1.6050  0.2144  1.4885
 6017SOL    HW218951   0.127   4.535   3.610  0.9603  0.3122 -1.4481
 6018SOL     OW18952   1.971   5.268   2.040 -0.1355 -0.0149 -0.4507
 6018SOL    HW118953   2.002   5.246   2.132 -1.0892 -2.7576 -0.6863
 6018SOL    HW218954   2.050   5.269   1.978  0.3297  0.3304  0.1457
 6019SOL     OW18955   5.887   4.040   3.199 -0.1272  0.0783  0.1276
 6019SOL    HW118956   5.842   4.129   3.209 -0.9689 -0.3323  0.0160
 6019SOL    HW218957   5.981   4.054   3.167 -0.8991  0.8431 -1.9883
 6020SOL     OW18958   2.035   0.070   3.615  0.0741 -0.4309 -0.3266
 6020SOL    HW118959   2.107   0.002   3.603 -0.4802 -1.5788  2.2658
 6020SOL    HW218960   2.060   0.153   3.565  2.9692 -0.9404  0.0767
 6021SOL     OW18961   2.003   0.663   1.481  0.1347  0.4592  0.0365
 6021SOL    HW118962   1.949   0.747   1.482 -1.3740 -0.3972  3.1268
 6021SOL    HW218963   2.084   0.674   1.538  0.5433  0.1482 -0.4723
 6022SOL     OW18964   4.235   2.426   5.789  0.0015 -0.8843 -0.2249
 6022SOL    HW118965   4.192   2.356   5.732 -0.2760 -2.0223  1.3365
 6022SOL    HW218966   4.334   2.425   5.774 -0.0865 -1.0373 -0.8139
 6023SOL     OW18967   0.245   2.873   5.159 -0.2926 -0.1464 -0.6178
 6023SOL    HW118968   0.242   2.777   5.184  0.4966 -0.2497 -0.8878
 6023SOL    HW218969   0.333   2.913   5.187 -1.5862  1.1856  1.8735
 6024SOL     OW18970   5.540   4.207   1.423 -0.7814 -0.1797  0.1358
 6024SOL    HW118971   5.559   4.250   1.511  0.5566 -1.8289  0.7099
 6024SOL    HW218972   5.441   4.208   1.406 -1.0330  0.4590  1.5043
 6025SOL     OW18973   5.311   2.026   1.117 -0.2314  0.4111 -0.0854
 6025SOL    HW118974   5.279   1.931   1.111 -0.1237  0.4592 -1.9889
 6025SOL    HW218975   5.385   2.031   1.184 -1.8541 -0.3398  1.8818
 6026SOL     OW18976   6.434   4.290   6.372 -0.0572 -0.2297 -0.1380
 6026SOL    HW118977   6.437   4.310   6.274  0.4526  1.1839  0.1408
 6026SOL    HW218978   6.497   4.216   6.393  1.7632  1.1242 -0.5427
 6027SOL     OW18979   2.645   4.573   1.006 -0.5238  0.0142 -0.0268
 6027SOL    HW118980   2.585   4.539   0.934 -2.8804  0.7612  1.4662
 6027SOL    HW218981   2.627   4.523   1.091  2.3211 -0.9855  0.0816
 6028SOL     OW18982   0.633   4.784   5.619  0.1662 -0.2090 -0.2105
 6028SOL    HW118983   0.594   4.821   5.704  0.0976 -1.4656  0.3371
 6028SOL    HW218984   0.570   4.801   5.543  0.4672  1.4006 -0.1375
 6029SOL     OW18985   2.747   6.361   1.097  0.6017 -0.2938  0.5479
 6029SOL    HW118986   2.672   6.327   1.040  0.5512  0.0537  0.4033
 6029SOL    HW218987   2.834   6.326   1.062  0.5216 -0.5777  0.6272
 6030SOL     OW18988   2.030   5.138   2.629 -0.5776  0.2719  0.2282
 6030SOL    HW118989   2.068   5.231   2.625 -0.5290  0.3303  1.6052
 6030SOL    HW218990   2.086   5.077   2.573 -0.5976  1.0566 -0.6818
 6031SOL     OW18991   4.859   5.614   3.488  0.0090  0.2700 -0.3359
 6031SOL    HW118992   4.916   5.532   3.487 -1.4806 -0.8028 -0.1514
 6031SOL    HW218993   4.877   5.668   3.406  0.9331 -0.2822 -0.5148
 6032SOL     OW18994   2.075   4.033   3.533  0.5330  0.4906  0.3044
 6032SOL    HW118995   1.995   4.089   3.512 -0.0248  1.0625  3.4295
 6032SOL    HW218996   2.049   3.959   3.595  2.1225 -0.4693 -0.0951
 6033SOL     OW18997   6.704   6.192   5.262 -0.1354  0.1309 -0.0236
 6033SOL    HW118998   6.712   6.204   5.361  0.5938  0.3229 -0.0987
 6033SOL    HW218999   6.632   6.252   5.228 -0.1862  0.2882  0.3504
 6034SOL     OW19000   3.096   4.819   3.087 -0.0382  0.7370  0.4617
 6034SOL    HW119001   3.004   4.854   3.107 -0.4904  0.5682 -1.1627
 6034SOL    HW219002   3.106   4.807   2.988  2.2449  2.1241  0.4630
 6035SOL     OW19003   5.921   6.818   3.869 -0.2187 -0.0996  0.0420
 6035SOL    HW119004   6.014   6.786   3.851 -0.7807 -2.3137  0.7642
 6035SOL    HW219005   5.886   6.867   3.788  0.9871 -0.6748 -0.8512
 6036SOL     OW19006   5.760   1.855   3.850  0.3706 -0.2605  0.0302
 6036SOL    HW119007   5.773   1.948   3.887  0.1557 -0.9384  1.9318
 6036SOL    HW219008   5.662   1.835   3.846  0.3408  0.0535 -1.6940
 6037SOL     OW19009   6.264   4.056   5.039  0.2172 -0.2245 -0.3169
 6037SOL    HW119010   6.326   4.028   5.112  0.5888  1.0022 -0.1415
 6037SOL    HW219011   6.175   4.081   5.078  1.1265  2.8112  0.1356
 6038SOL     OW19012   1.203   5.040   6.316 -0.5781 -0.4118  0.2501
 6038SOL    HW119013   1.290   5.078   6.349 -1.1009  0.7113  0.3788
 6038SOL    HW219014   1.128   5.073   6.373 -1.0984 -1.3611  0.1274
 6039SOL     OW19015   3.643   3.295   4.761 -0.1113  0.0436 -0.0351
 6039SOL    HW119016   3.579   3.348   4.705 -0.1922 -0.6644 -0.6287
 6039SOL    HW219017   3.593   3.227   4.814  0.1588 -0.8171 -0.8417
 6040SOL     OW19018   1.463   1.426   6.920 -0.3470  0.6899  0.2184
 6040SOL    HW119019   1.474   1.389   6.827  2.3036  0.9365  0.3576
 6040SOL    HW219020   1.427   1.520   6.914 -1.5299  0.2118 -0.4575
 6041SOL     OW19021   6.467   3.524   0.178 -0.0057 -0.2717 -0.0024
 6041SOL    HW119022   6.531   3.526   0.102  1.2717 -3.5525  0.8148
 6041SOL    HW219023   6.378   3.492   0.146  0.3493 -1.0190 -0.2774
 6042SOL     OW19024   5.281   5.073   6.124  0.6146  0.8461 -0.1835
 6042SOL    HW119025   5.218   5.072   6.046  1.1191  0.8637 -0.6037
 6042SOL    HW219026   5.353   5.004   6.109 -0.4836 -0.7026  1.3011
 6043SOL     OW19027   6.446   4.190   2.988  0.2002 -0.2334 -0.4682
 6043SOL    HW119028   6.522   4.171   3.051  0.3093  0.0463 -0.5148
 6043SOL    HW219029   6.423   4.106   2.939 -1.3789 -1.0743  1.5341
 6044SOL     OW19030   0.247   1.849   2.317  0.0758  0.2110  0.1460
 6044SOL    HW119031   0.237   1.921   2.248 -0.0005  1.7235  1.6659
 6044SOL    HW219032   0.181   1.863   2.390  0.7624 -0.7941  1.0015
 6045SOL     OW19033   0.686   2.591   6.449  0.2132  0.2417 -0.0474
 6045SOL    HW119034   0.636   2.513   6.486  1.5021 -1.4411 -1.6125
 6045SOL    HW219035   0.623   2.651   6.399 -0.5728 -0.5755 -0.0562
 6046SOL     OW19036   0.313   2.883   2.336  0.0172 -0.2459  0.0372
 6046SOL    HW119037   0.272   2.955   2.392  2.3184  0.2947  1.1756
 6046SOL    HW219038   0.408   2.870   2.364  0.1522 -2.6125 -1.2691
 6047SOL     OW19039   6.678   1.122   4.750  0.1771  0.6561  0.3763
 6047SOL    HW119040   6.652   1.175   4.669 -1.0025  0.0194  0.3128
 6047SOL    HW219041   6.774   1.095   4.743 -0.0799  0.0420 -1.1383
 6048SOL     OW19042   6.368   0.407   5.408  0.5268  0.2078 -0.3261
 6048SOL    HW119043   6.276   0.445   5.416  0.1578 -0.7221 -0.0050
 6048SOL    HW219044   6.426   0.470   5.356  0.0715  1.4226  0.5906
 6049SOL     OW19045   5.797   5.204   0.557 -0.2734 -0.0163  0.1457
 6049SOL    HW119046   5.833   5.175   0.646  0.0484  3.2997  1.2176
 6049SOL    HW219047   5.857   5.170   0.485  1.4195  0.0463  1.4535
 6050SOL     OW19048   4.344   5.471   4.583  0.3233  0.4941  0.0694
 6050SOL    HW119049   4.393   5.395   4.626 -0.3601 -0.0013 -0.0183
 6050SOL    HW219050   4.310   5.533   4.653 -0.5681 -0.1769  0.2436
 6051SOL     OW19051   3.891   1.672   4.134  0.2093 -0.0217  0.3897
 6051SOL    HW119052   3.828   1.614   4.185 -1.2782  0.9706 -0.2320
 6051SOL    HW219053   3.937   1.618   4.064  0.1984 -0.8071  0.9736
 6052SOL     OW19054   1.047   2.458   1.776 -0.0905  0.1840  0.2056
 6052SOL    HW119055   1.073   2.534   1.837 -0.9069  0.9901 -0.4327
 6052SOL    HW219056   0.978   2.489   1.711  0.0443 -0.9411 -0.5023
 6053SOL     OW19057   1.075   1.688   6.200 -0.3834  0.1294  0.1364
 6053SOL    HW119058   1.100   1.730   6.113  1.7828 -1.4492 -0.0729
 6053SOL    HW219059   1.066   1.589   6.189 -2.3079  0.1157  1.2823
 6054SOL     OW19060   6.923   4.052   3.006  0.4620  0.1603  0.3953
 6054SOL    HW119061   6.903   4.058   2.908  3.3901 -0.4621 -0.3336
 6054SOL    HW219062   7.010   4.006   3.019 -0.0865 -0.2141  3.3712
 6055SOL     OW19063   5.126   1.092   1.694 -0.0536  0.8968 -0.5093
 6055SOL    HW119064   5.159   1.077   1.788 -2.4419  0.6002  0.3588
 6055SOL    HW219065   5.178   1.035   1.631  0.3015 -0.4165  0.9037
 6056SOL     OW19066   5.418   1.881   0.471 -0.0523  0.3654 -0.0391
 6056SOL    HW119067   5.458   1.950   0.530 -0.2171 -0.8316  1.5341
 6056SOL    HW219068   5.489   1.844   0.410  0.0512  1.8150 -0.8401
 6057SOL     OW19069   4.135   2.178   0.194  0.3828  0.2648 -0.0221
 6057SOL    HW119070   4.181   2.188   0.106 -0.6075  1.1864 -0.4580
 6057SOL    HW219071   4.127   2.081   0.216  0.0680 -0.0137 -1.2750
 6058SOL     OW19072   4.626   4.353   5.953  0.2816  0.3874 -0.4428
 6058SOL    HW119073   4.662   4.300   5.876 -4.0429 -0.6975 -2.0078
 6058SOL    HW219074   4.611   4.447   5.925 -2.7290 -0.3461 -1.6423
 6059SOL     OW19075   0.502   6.786   0.307  0.3234 -0.2835  0.4073
 6059SOL    HW119076   0.408   6.805   0.278  0.7507  0.2406 -0.6894
 6059SOL    HW219077   0.532   6.698   0.269  0.9344  0.4723 -0.9139
 6060SOL     OW19078   2.461   6.487   6.730  0.0457  0.1402  0.0993
 6060SOL    HW119079   2.429   6.582   6.733  0.4854  0.3356 -1.0217
 6060SOL    HW219080   2.561   6.485   6.724  0.0989 -0.4199  0.9469
 6061SOL     OW19081   2.951   0.149   6.356  0.1391 -0.0328  0.6280
 6061SOL    HW119082   3.034   0.168   6.304 -1.3298  0.2389 -1.7525
 6061SOL    HW219083   2.959   0.061   6.402  1.2996 -0.5528 -0.5222
 6062SOL     OW19084   2.251   5.758   3.045  0.1065 -0.7443  0.1059
 6062SOL    HW119085   2.157   5.727   3.028 -0.2220  0.3132 -0.0563
 6062SOL    HW219086   2.263   5.850   3.008 -0.7063  1.8935  5.4891
 6063SOL     OW19087   6.806   6.636   6.877  0.4928  0.2184  0.2225
 6063SOL    HW119088   6.752   6.686   6.810 -1.0465 -2.0607 -0.3768
 6063SOL    HW219089   6.746   6.605   6.951  0.7092 -2.8330 -0.7245
 6064SOL     OW19090   1.498   6.074   2.187 -0.0107  0.6858  0.0770
 6064SOL    HW119091   1.431   6.057   2.115 -0.8421 -0.8465  1.1462
 6064SOL    HW219092   1.450   6.104   2.270  0.7004  0.2144  0.6707
 6065SOL     OW19093   4.296   1.538   1.351  0.4669  0.1757  0.0836
 6065SOL    HW119094   4.371   1.599   1.376  0.6711 -0.5872  1.4146
 6065SOL    HW219095   4.212   1.566   1.399  0.4898 -0.3991  0.4667
 6066SOL     OW19096   3.963   1.037   6.939  0.2129  0.4163  0.0128
 6066SOL    HW119097   3.891   1.009   6.876  1.2895 -2.5251 -0.0371
 6066SOL    HW219098   3.940   1.005   7.031  0.8683  0.6034  0.2452
 6067SOL     OW19099   6.160   0.330   6.573 -0.0112 -0.6287  0.5534
 6067SOL    HW119100   6.108   0.415   6.577  0.6250 -0.1361 -0.9385
 6067SOL    HW219101   6.133   0.271   6.649 -0.2090  1.0330  1.8412
 6068SOL     OW19102   6.487   0.024   3.863  0.0838 -0.2779 -0.4158
 6068SOL    HW119103   6.537   0.041   3.948 -0.1377 -1.1397 -0.1045
 6068SOL    HW219104   6.389   0.019   3.882 -0.1019  0.9198 -0.9499
 6069SOL     OW19105   1.448   5.135   4.258  0.3602  0.6950  0.5195
 6069SOL    HW119106   1.486   5.182   4.178 -0.3909  0.3374 -0.0593
 6069SOL    HW219107   1.439   5.037   4.238  0.0472  0.6249  0.9880
 6070SOL     OW19108   3.647   4.408   0.019 -0.7381  0.1785  0.3817
 6070SOL    HW119109   3.627   4.317   0.056 -0.5974  0.4600  1.1697
 6070SOL    HW219110   3.698   4.399  -0.066 -1.3284 -0.4895  0.0856
 6071SOL     OW19111   0.153   3.754   5.736  1.0706  0.6547  0.3775
 6071SOL    HW119112   0.252   3.756   5.721  1.2691  0.7345  1.6460
 6071SOL    HW219113   0.120   3.659   5.731  1.5907  0.3446  2.1817
 6072SOL     OW19114   6.097   1.455   3.045  0.0829 -0.1126 -0.3160
 6072SOL    HW119115   6.070   1.376   2.990  1.9053 -0.4441 -0.8044
 6072SOL    HW219116   6.098   1.537   2.988 -1.4190  0.2106  0.0947
 6073SOL     OW19117   4.259   6.650   2.361  0.7878  0.5129 -0.0897
 6073SOL    HW119118   4.341   6.689   2.404  1.5125  0.8986 -1.7592
 6073SOL    HW219119   4.179   6.703   2.387  1.6054  2.5165 -1.4815
 6074SOL     OW19120   0.185   0.870   3.881  0.1247 -0.0952 -1.1321
 6074SOL    HW119121   0.278   0.835   3.890  0.4300  0.2434 -2.7224
 6074SOL    HW219122   0.185   0.950   3.821 -0.7617  1.8580  1.2632
 6075SOL     OW19123   4.815   4.098   5.510 -0.6240  0.4115  0.0502
 6075SOL    HW119124   4.876   4.158   5.459 -0.7892  1.2383  0.8037
 6075SOL    HW219125   4.864   4.013   5.533  0.0276  0.7866  0.0705
 6076SOL     OW19126   1.199   1.092   4.487 -0.6345  0.1409 -0.3138
 6076SOL    HW119127   1.210   1.044   4.573  0.9900 -0.6378 -0.9116
 6076SOL    HW219128   1.105   1.081   4.454 -1.5451  1.1929  1.7316
 6077SOL     OW19129   6.615   6.478   2.663  0.5235  0.2794 -0.6153
 6077SOL    HW119130   6.527   6.433   2.650  0.4552 -0.3413  1.5505
 6077SOL    HW219131   6.685   6.430   2.610 -0.2261  0.0683 -1.4347
 6078SOL     OW19132   2.252   5.890   4.771  0.0583 -0.9078 -0.2817
 6078SOL    HW119133   2.184   5.961   4.788  0.8677 -0.3693  0.8924
 6078SOL    HW219134   2.237   5.814   4.834 -0.1617 -1.3036 -0.8131
 6079SOL     OW19135   4.260   2.081   6.653 -0.1288  0.4878 -0.1679
 6079SOL    HW119136   4.224   1.996   6.614 -2.5376  1.5009 -0.3160
 6079SOL    HW219137   4.359   2.071   6.668 -0.0184 -1.6920 -1.7866
 6080SOL     OW19138   5.519   2.523   2.968  0.7739  0.1285 -0.2400
 6080SOL    HW119139   5.576   2.457   2.919  0.7325 -0.7422  0.8564
 6080SOL    HW219140   5.447   2.557   2.906 -0.8214 -2.8040 -0.1498
 6081SOL     OW19141   6.818   4.410   4.930 -0.0033  0.6847 -0.0238
 6081SOL    HW119142   6.742   4.428   4.992 -0.6974 -0.1384 -0.6097
 6081SOL    HW219143   6.810   4.318   4.892  1.5282  0.4169  0.2198
 6082SOL     OW19144   4.681   1.543   5.539  0.2096  0.6240  0.6185
 6082SOL    HW119145   4.600   1.489   5.563 -0.4328  1.1904 -0.2359
 6082SOL    HW219146   4.662   1.640   5.556  1.0660  0.6801  1.3503
 6083SOL     OW19147   1.460   6.073   0.539  0.3782 -0.2227 -0.6143
 6083SOL    HW119148   1.554   6.061   0.508  0.2142  0.0109 -1.2277
 6083SOL    HW219149   1.426   5.988   0.578  1.2503  0.0425  0.7693
 6084SOL     OW19150   6.882   3.845   5.168 -0.1717 -0.5224  0.4662
 6084SOL    HW119151   6.881   3.797   5.081  0.9517  1.0190 -0.4645
 6084SOL    HW219152   6.841   3.936   5.156  0.6728 -0.0091  1.3491
 6085SOL     OW19153   5.326   4.589   1.691  0.5901 -0.2046 -0.6427
 6085SOL    HW119154   5.291   4.527   1.761  1.0132 -0.7192 -0.8773
 6085SOL    HW219155   5.398   4.647   1.730  0.9035 -0.5677 -0.6707
 6086SOL     OW19156   3.096   2.182   1.629  0.1901  0.1252  0.1914
 6086SOL    HW119157   3.050   2.270   1.623 -0.3518 -0.2505 -1.7453
 6086SOL    HW219158   3.180   2.184   1.575 -0.2767 -0.7934 -0.6027
 6087SOL     OW19159   4.861   0.787   0.799 -0.8622  0.3102  0.1836
 6087SOL    HW119160   4.879   0.702   0.849 -0.1127 -1.1832 -2.3823
 6087SOL    HW219161   4.945   0.841   0.793 -0.6746 -0.0246 -0.2999
 6088SOL     OW19162   1.242   0.987   5.026  0.1978  0.0580 -0.0688
 6088SOL    HW119163   1.284   1.066   4.981 -1.4559  0.7678 -0.4527
 6088SOL    HW219164   1.215   1.013   5.119  1.1837 -0.6024  0.4226
 6089SOL     OW19165   0.119   4.134   0.809  0.2399  0.3478  0.0453
 6089SOL    HW119166   0.117   4.096   0.716 -1.4359  0.5054 -0.0079
 6089SOL    HW219167   0.193   4.201   0.816  1.2362 -0.6108 -0.7703
 6090SOL     OW19168   5.490   6.793   5.577 -0.3776  0.1855  0.1435
 6090SOL    HW119169   5.545   6.740   5.642  0.5825 -0.5331 -1.2175
 6090SOL    HW219170   5.474   6.885   5.614  0.1208 -0.2135  1.3950
 6091SOL     OW19171   5.076   2.781   1.488 -0.6145 -0.3079  0.2866
 6091SOL    HW119172   5.024   2.813   1.410 -1.4055  0.1048  0.9707
 6091SOL    HW219173   5.019   2.782   1.570  0.2278 -0.6185  0.9010
 6092SOL     OW19174   6.710   2.071   0.591 -0.0195 -0.3943 -0.4309
 6092SOL    HW119175   6.710   2.133   0.669 -1.4142 -1.5731  0.5706
 6092SOL    HW219176   6.804   2.043   0.570  0.2989 -1.0939  1.7200
 6093SOL     OW19177   1.107   3.874   0.766  0.6675  0.0904  0.0833
 6093SOL    HW119178   1.196   3.919   0.781  0.4169  0.6746 -0.1413
 6093SOL    HW219179   1.081   3.823   0.848  0.8670  0.5214  0.4204
 6094SOL     OW19180   6.717   1.474   3.013 -0.8621  0.1154  0.2253
 6094SOL    HW119181   6.689   1.562   3.051 -0.8215  0.2262  0.0018
 6094SOL    HW219182   6.699   1.401   3.079  1.1935  0.5601  1.3536
 6095SOL     OW19183   1.112   3.822   4.344  0.3270  0.2614 -0.3362
 6095SOL    HW119184   1.107   3.743   4.405 -0.2709 -0.0285 -0.7609
 6095SOL    HW219185   1.029   3.828   4.290  0.7052  0.7300 -0.8741
 6096SOL     OW19186   4.849   2.305   0.183  0.4657 -0.4492  0.1967
 6096SOL    HW119187   4.841   2.226   0.243  0.3845 -0.5071  0.1111
 6096SOL    HW219188   4.779   2.372   0.207  0.7866 -0.2307  0.5253
 6097SOL     OW19189   4.205   1.164   4.114  0.0983  0.3752 -0.5815
 6097SOL    HW119190   4.218   1.246   4.058  3.5036 -0.5360 -1.3603
 6097SOL    HW219191   4.168   1.190   4.203  2.7105  3.0581 -0.1178
 6098SOL     OW19192   0.545   1.254   6.800  0.0316  0.4264  0.4451
 6098SOL    HW119193   0.633   1.302   6.804 -0.1076  0.6454  0.9768
 6098SOL    HW219194   0.472   1.317   6.829 -0.3491  0.3668 -0.3755
 6099SOL     OW19195   6.008   2.532   1.235  0.7653  0.7680  0.0644
 6099SOL    HW119196   6.078   2.463   1.218 -1.6723 -1.2800 -2.6932
 6099SOL    HW219197   5.941   2.496   1.300 -0.0566  0.8701 -0.7097
 6100SOL     OW19198   6.751   3.122   2.408 -0.1493 -0.0941  0.2219
 6100SOL    HW119199   6.811   3.140   2.331 -0.1482  0.2982  0.3106
 6100SOL    HW219200   6.796   3.060   2.472  0.8520  1.4407  1.0854
 6101SOL     OW19201   5.831   5.163   3.051  0.5052  0.7324 -0.3316
 6101SOL    HW119202   5.807   5.092   3.118 -1.5016  0.7753 -0.9229
 6101SOL    HW219203   5.784   5.143   2.964 -0.7819  3.1706 -0.2785
 6102SOL     OW19204   3.440   5.856   6.362 -0.2499 -0.0560  0.4785
 6102SOL    HW119205   3.413   5.771   6.317 -0.9078 -0.9913  2.5094
 6102SOL    HW219206   3.387   5.932   6.324  0.1791 -0.5678 -1.2052
 6103SOL     OW19207   6.379   1.792   4.886  0.3016 -0.2402 -0.5281
 6103SOL    HW119208   6.363   1.851   4.966  1.6702 -0.7838  0.1638
 6103SOL    HW219209   6.314   1.716   4.887  1.3281 -1.1535  0.9988
 6104SOL     OW19210   3.701   2.998   6.845 -0.0914 -0.1845 -0.3808
 6104SOL    HW119211   3.725   3.020   6.940  1.6201  0.2858 -0.8976
 6104SOL    HW219212   3.611   3.035   6.824 -0.5542 -0.3997  1.0846
 6105SOL     OW19213   2.251   4.370   3.554  0.1451 -0.6769 -0.3756
 6105SOL    HW119214   2.160   4.370   3.512  0.2993  0.1823 -0.7165
 6105SOL    HW219215   2.243   4.341   3.649 -0.9006  1.9431  0.4334
 6106SOL     OW19216   1.595   6.185   5.768 -0.2577  0.3555  0.4564
 6106SOL    HW119217   1.527   6.115   5.792 -1.3482  0.5097 -1.8574
 6106SOL    HW219218   1.548   6.271   5.749  1.1343  2.1978  4.3515
 6107SOL     OW19219   1.163   5.821   5.474 -0.7439  0.1357 -0.0495
 6107SOL    HW119220   1.146   5.781   5.564 -3.1624  0.2594 -0.3773
 6107SOL    HW219221   1.256   5.857   5.471 -0.7751  0.6576  2.5890
 6108SOL     OW19222   5.709   1.318   4.066 -0.1830  0.2351  0.2981
 6108SOL    HW119223   5.691   1.407   4.023 -0.5721 -0.7904 -1.8134
 6108SOL    HW219224   5.625   1.265   4.069  0.1373 -0.2378  1.1343
 6109SOL     OW19225   6.496   3.655   2.058  0.0445  0.0475  0.7321
 6109SOL    HW119226   6.547   3.627   1.976  0.1035  0.5654  0.5869
 6109SOL    HW219227   6.530   3.605   2.137  2.8239  2.4153  1.1883
 6110SOL     OW19228   4.953   6.725   4.408 -0.2763  0.4146 -0.1554
 6110SOL    HW119229   4.912   6.639   4.441 -1.3111  1.0833  0.3455
 6110SOL    HW219230   4.944   6.795   4.479  1.0047  0.8155 -0.3709
 6111SOL     OW19231   0.177   5.578   3.295 -0.0690 -0.4218  0.3441
 6111SOL    HW119232   0.114   5.654   3.279  0.6991  0.2312  0.3605
 6111SOL    HW219233   0.225   5.592   3.382 -0.9841 -1.6825  1.0738
 6112SOL     OW19234   0.934   2.220   1.711 -0.5082  0.4523  0.4518
 6112SOL    HW119235   0.979   2.180   1.631 -0.5565  2.5672 -0.7065
 6112SOL    HW219236   0.995   2.287   1.754 -1.1842  0.6692  1.0995
 6113SOL     OW19237   0.800   4.451   4.618  0.2456 -0.1744  0.3807
 6113SOL    HW119238   0.786   4.514   4.694  1.0156  0.5787 -0.0867
 6113SOL    HW219239   0.863   4.379   4.646 -0.3420 -0.5354  0.7969
 6114SOL     OW19240   4.143   5.073   1.377 -0.0395 -0.1570 -0.8522
 6114SOL    HW119241   4.054   5.072   1.423  0.3328 -1.7805 -0.1061
 6114SOL    HW219242   4.175   4.979   1.364  1.4514  0.3932 -1.3496
 6115SOL     OW19243   5.977   3.733   1.417 -0.2613  0.3001  0.4080
 6115SOL    HW119244   6.015   3.788   1.343 -0.5962 -0.0235 -0.0093
 6115SOL    HW219245   6.023   3.644   1.419 -0.5227  0.1634  0.3405
 6116SOL     OW19246   4.901   1.409   2.469  0.0496  0.1595  0.3578
 6116SOL    HW119247   4.832   1.386   2.538  0.3987 -1.1127  0.3108
 6116SOL    HW219248   4.934   1.325   2.425  0.6485  0.8561 -0.5786
 6117SOL     OW19249   5.675   4.957   2.402  0.7024  0.4832 -0.5783
 6117SOL    HW119250   5.673   4.873   2.348  1.6886  0.2499 -0.2759
 6117SOL    HW219251   5.647   5.034   2.345  0.7905  0.1012 -1.1466
 6118SOL     OW19252   0.088   0.886   2.473  0.3762  0.3239  0.5500
 6118SOL    HW119253   0.112   0.790   2.484  0.3936  0.3279  0.5459
 6118SOL    HW219254  -0.008   0.899   2.501 -0.6421 -0.2692 -2.3056
 6119SOL     OW19255   5.220   4.145   4.626  0.1150  0.3126  0.3240
 6119SOL    HW119256   5.259   4.186   4.709  1.3822 -1.7079  0.8081
 6119SOL    HW219257   5.271   4.177   4.546 -0.6319  1.6974  0.3824
 6120SOL     OW19258   1.410   0.489   4.165 -0.8096 -0.1903  0.7195
 6120SOL    HW119259   1.440   0.570   4.214 -0.5188 -0.2218  0.5912
 6120SOL    HW219260   1.350   0.434   4.225 -1.4166  0.3698  0.6349
 6121SOL     OW19261   5.975   0.416   3.882 -0.1323  0.3664  0.4059
 6121SOL    HW119262   5.886   0.461   3.891 -0.4047 -0.2787  0.9067
 6121SOL    HW219263   6.037   0.478   3.833 -1.1766  0.3765 -0.9961
 6122SOL     OW19264   4.467   5.982   4.041  0.2652  0.1613  0.5786
 6122SOL    HW119265   4.470   5.956   3.945 -0.9096  1.7979  0.0376
 6122SOL    HW219266   4.559   5.977   4.080  0.8728  0.0786 -0.8023
 6123SOL     OW19267   0.059   3.101   1.667  0.5111  0.7116  0.2632
 6123SOL    HW119268  -0.014   3.068   1.728  0.3690 -1.2902 -0.9115
 6123SOL    HW219269   0.144   3.053   1.687 -0.0808 -1.8192 -2.5539
 6124SOL     OW19270   3.373   1.290   6.235 -0.1043 -0.1245  0.1690
 6124SOL    HW119271   3.337   1.321   6.148  0.0286  1.8298  0.7643
 6124SOL    HW219272   3.446   1.352   6.265 -0.5496 -0.4045  1.9418
 6125SOL     OW19273   1.337   4.107   4.013  0.6635 -0.5162  0.9032
 6125SOL    HW119274   1.321   4.017   4.054 -0.4809 -0.3000  0.9401
 6125SOL    HW219275   1.312   4.179   4.078  1.5944 -0.1539  0.8844
 6126SOL     OW19276   2.622   5.966   2.911 -0.3212 -0.4215 -0.4446
 6126SOL    HW119277   2.576   6.019   2.982 -0.8890 -1.0707 -0.3186
 6126SOL    HW219278   2.699   6.018   2.876 -1.2414  0.7786 -0.7718
 6127SOL     OW19279   0.614   4.544   1.412  0.5126  0.5810 -0.4070
 6127SOL    HW119280   0.698   4.565   1.462 -1.3073  2.0354  2.2547
 6127SOL    HW219281   0.557   4.627   1.407 -0.8120 -0.3664 -2.1165
 6128SOL     OW19282   4.845   3.833   0.430 -0.1071 -0.0385 -0.5199
 6128SOL    HW119283   4.805   3.772   0.362 -1.4790 -1.1301  1.1756
 6128SOL    HW219284   4.936   3.799   0.456 -1.3812 -2.3029  1.3929
 6129SOL     OW19285   6.303   1.744   2.050  0.2496 -0.6746  0.4706
 6129SOL    HW119286   6.370   1.804   2.094  0.9234 -0.7207 -0.4665
 6129SOL    HW219287   6.329   1.649   2.064  0.7393 -0.6837 -0.4043
 6130SOL     OW19288   6.262   2.712   2.671  0.3979 -0.5340  0.6043
 6130SOL    HW119289   6.212   2.798   2.676  1.2871 -0.0377  1.1717
 6130SOL    HW219290   6.201   2.640   2.636  0.0583  0.6099 -1.2684
 6131SOL     OW19291   1.489   1.772   4.990  0.1512 -0.2294  0.1953
 6131SOL    HW119292   1.554   1.777   4.914 -1.3023 -0.3429 -1.1103
 6131SOL    HW219293   1.400   1.805   4.960 -0.3602  0.1403  2.0072
 6132SOL     OW19294   5.743   4.836   6.469 -0.1287  0.0391 -0.4351
 6132SOL    HW119295   5.810   4.813   6.539 -1.7556  0.0050  1.1709
 6132SOL    HW219296   5.782   4.818   6.378  1.7035 -0.7571  0.4645
 6133SOL     OW19297   2.761   5.090   2.772 -0.2703  0.4014 -0.0170
 6133SOL    HW119298   2.670   5.119   2.803 -0.2451 -0.4503  0.8915
 6133SOL    HW219299   2.818   5.066   2.851  0.4542  0.0877 -0.6203
 6134SOL     OW19300   4.726   4.353   6.606 -0.2726  0.0975 -0.1097
 6134SOL    HW119301   4.742   4.313   6.696  0.3951  2.0692  0.7029
 6134SOL    HW219302   4.658   4.425   6.613  0.0299  0.4982 -1.1275
 6135SOL     OW19303   0.235   0.407   1.596 -0.7970  0.0817  0.5460
 6135SOL    HW119304   0.217   0.384   1.692 -0.4532  1.3338  0.9334
 6135SOL    HW219305   0.250   0.506   1.588 -0.0691 -0.1053 -0.6829
 6136SOL     OW19306   2.202   2.435   3.140 -0.7370  0.5266  0.0226
 6136SOL    HW119307   2.273   2.463   3.205 -1.0250  0.9987  0.1346
 6136SOL    HW219308   2.112   2.463   3.174 -0.7989  1.7414 -1.0805
 6137SOL     OW19309   2.080   6.095   4.769 -0.3888 -0.2895  0.5795
 6137SOL    HW119310   2.152   6.156   4.804 -0.3079 -0.0952  0.0835
 6137SOL    HW219311   1.992   6.122   4.808 -0.3830  0.2749  0.2103
 6138SOL     OW19312   5.328   6.345   5.669 -0.0154 -0.0961 -0.7173
 6138SOL    HW119313   5.337   6.433   5.623  0.4042  0.2361 -0.0152
 6138SOL    HW219314   5.390   6.342   5.748 -0.7430 -0.6357 -0.1543
 6139SOL     OW19315   1.467   5.697   3.965  0.1964  0.3536  0.6192
 6139SOL    HW119316   1.412   5.621   3.930 -0.0174  0.6621  0.2756
 6139SOL    HW219317   1.559   5.693   3.927 -0.1431  0.8961 -0.2732
 6140SOL     OW19318   0.957   6.557   0.601 -0.4269  0.0724 -0.7418
 6140SOL    HW119319   0.971   6.646   0.557  0.3369  0.4847  0.2801
 6140SOL    HW219320   0.862   6.529   0.591 -0.3313  0.2629 -2.4106
 6141SOL     OW19321   1.729   5.608   4.958 -0.0765  0.3498  0.2862
 6141SOL    HW119322   1.759   5.583   5.050  0.8654 -0.3705 -0.1989
 6141SOL    HW219323   1.808   5.616   4.899 -0.7760 -0.9631 -0.8898
 6142SOL     OW19324   0.958   3.705   2.626  0.4805 -0.5506  0.0172
 6142SOL    HW119325   1.021   3.771   2.668  1.2500 -1.9326  1.1148
 6142SOL    HW219326   0.866   3.720   2.661  0.3877  0.7052 -0.6814
 6143SOL     OW19327   1.052   5.128   6.520  0.4917  0.3613  0.1518
 6143SOL    HW119328   0.996   5.057   6.561  0.8602  0.1005  0.2062
 6143SOL    HW219329   1.094   5.183   6.592  1.1594 -0.1127  0.1341
 6144SOL     OW19330   6.464   0.252   4.825 -0.2908 -0.1997 -0.3468
 6144SOL    HW119331   6.455   0.154   4.843 -1.9714 -0.0564 -0.2486
 6144SOL    HW219332   6.408   0.277   4.746  0.9154  0.5291 -1.0074
 6145SOL     OW19333   4.866   6.134   2.566  0.1194 -0.1054  0.2867
 6145SOL    HW119334   4.829   6.043   2.547 -0.0604  0.2432 -1.2022
 6145SOL    HW219335   4.804   6.203   2.528  1.6143  0.5281 -1.1279
 6146SOL     OW19336   6.039   0.861   4.135  0.0505  0.2141 -0.4482
 6146SOL    HW119337   6.066   0.937   4.076  1.3204 -0.3794 -0.6587
 6146SOL    HW219338   6.047   0.889   4.231  0.0207  0.4962 -0.5256
 6147SOL     OW19339   1.475   5.780   3.444 -0.5025  0.2399  0.2288
 6147SOL    HW119340   1.525   5.850   3.394 -0.2773 -0.4147 -0.4858
 6147SOL    HW219341   1.478   5.800   3.542  1.6576 -0.0703  0.2817
 6148SOL     OW19342   5.159   6.945   3.984  0.0785 -0.0241  0.0047
 6148SOL    HW119343   5.130   6.947   4.079  0.4091  2.4159  0.1153
 6148SOL    HW219344   5.124   6.862   3.940 -1.7188 -0.2468  1.7316
 6149SOL     OW19345   0.322   5.094   5.495 -0.4039 -0.1018 -0.1840
 6149SOL    HW119346   0.320   4.995   5.485  4.0123 -0.1985 -2.6224
 6149SOL    HW219347   0.270   5.137   5.422  0.6175 -0.7017 -1.2897
 6150SOL     OW19348   3.168   0.221   6.241 -0.2564  0.6087 -0.0657
 6150SOL    HW119349   3.178   0.260   6.333  0.7473  1.0059 -0.3261
 6150SOL    HW219350   3.154   0.295   6.175 -0.1632  0.3854 -0.3367
 6151SOL     OW19351   3.802   0.364   6.769  0.2596  0.1825  0.2145
 6151SOL    HW119352   3.876   0.329   6.712 -0.3326 -1.3233  0.3333
 6151SOL    HW219353   3.772   0.453   6.734  1.8795  0.6593 -0.0303
 6152SOL     OW19354   5.162   2.258   0.446  0.8012  0.0674  0.1078
 6152SOL    HW119355   5.119   2.185   0.500 -0.8654 -1.1362 -2.6095
 6152SOL    HW219356   5.116   2.344   0.466  0.5531 -0.2430  0.9595
 6153SOL     OW19357   3.635   6.714   4.563  0.2763  0.9423 -0.1287
 6153SOL    HW119358   3.672   6.793   4.513  0.2616  2.3583  1.9702
 6153SOL    HW219359   3.688   6.700   4.647 -0.9691 -0.0514  0.5201
 6154SOL     OW19360   5.338   2.951   4.284  0.2311  0.3153 -0.1319
 6154SOL    HW119361   5.358   2.992   4.373 -0.3022  1.5437 -0.5495
 6154SOL    HW219362   5.422   2.946   4.230  0.1952  1.5828 -0.3416
 6155SOL     OW19363   3.672   5.957   5.403  0.1345 -0.0321 -0.0127
 6155SOL    HW119364   3.689   5.938   5.306 -1.1694 -0.7863 -0.1262
 6155SOL    HW219365   3.694   5.876   5.457 -0.7119 -0.1901  0.1081
 6156SOL     OW19366   4.971   0.641   5.155  0.4679 -0.6839  0.0413
 6156SOL    HW119367   5.022   0.669   5.074  0.9504  0.6801  0.7895
 6156SOL    HW219368   4.902   0.573   5.129 -0.0911  0.4703 -1.6934
 6157SOL     OW19369   0.174   0.929   4.162  0.1453  0.6686 -0.1082
 6157SOL    HW119370   0.212   0.869   4.233  1.3707  1.9149  0.3511
 6157SOL    HW219371   0.177   0.883   4.074  0.3413 -0.2189  0.3458
 6158SOL     OW19372   5.459   6.653   1.879 -0.6977  0.1918  0.4491
 6158SOL    HW119373   5.361   6.644   1.898 -0.7164  0.6501  0.5855
 6158SOL    HW219374   5.498   6.563   1.860 -0.9198 -0.1446  1.5260
 6159SOL     OW19375   4.000   3.422   6.012  0.3443 -0.4458 -0.5375
 6159SOL    HW119376   3.962   3.508   6.046  0.3688 -1.1442  1.3805
 6159SOL    HW219377   3.967   3.405   5.919 -0.1186  1.3230 -0.7327
 6160SOL     OW19378   5.314   4.395   1.437  0.0377  0.6306 -0.5637
 6160SOL    HW119379   5.364   4.395   1.524  0.0140  0.3519 -0.5472
 6160SOL    HW219380   5.222   4.433   1.452  0.1315  0.8453 -0.5271
 6161SOL     OW19381   3.660   6.723   6.387 -0.9124 -0.3528  0.4678
 6161SOL    HW119382   3.696   6.784   6.458  0.5370  1.6928 -1.8924
 6161SOL    HW219383   3.580   6.766   6.344  1.4640  1.2384 -2.7818
 6162SOL     OW19384   4.454   5.666   3.370 -0.3291 -0.4455 -0.4215
 6162SOL    HW119385   4.534   5.691   3.316  1.0110 -1.0478  1.2160
 6162SOL    HW219386   4.457   5.712   3.458 -3.1836  1.6229 -1.2172
 6163SOL     OW19387   6.407   3.331   4.081 -0.2479 -0.0674 -0.6308
 6163SOL    HW119388   6.442   3.421   4.108 -3.1254  0.9326  0.0239
 6163SOL    HW219389   6.402   3.272   4.161 -1.0820  0.1836 -0.4869
 6164SOL     OW19390   4.571   4.618   6.892  0.5532  0.2356  0.6702
 6164SOL    HW119391   4.572   4.705   6.942 -0.2629  0.4481  0.3370
 6164SOL    HW219392   4.630   4.552   6.939  0.9520  0.8793  1.0879
 6165SOL     OW19393   3.001   6.542   0.775 -0.3097 -0.2674 -0.2229
 6165SOL    HW119394   2.942   6.564   0.697  1.9498 -0.6394 -2.1199
 6165SOL    HW219395   2.992   6.445   0.797 -0.5452 -0.2751 -0.3454
 6166SOL     OW19396   3.522   1.063   2.796 -0.2285 -0.3687  0.1535
 6166SOL    HW119397   3.592   1.107   2.739  0.1541 -0.2249  0.7270
 6166SOL    HW219398   3.449   1.027   2.737 -0.4354  0.8130 -0.3557
 6167SOL     OW19399   1.259   5.915   2.287 -0.1901 -0.5271 -0.5528
 6167SOL    HW119400   1.314   5.856   2.228 -1.3945 -1.8142 -0.4190
 6167SOL    HW219401   1.290   6.010   2.276  0.2536 -0.8517 -2.5229
 6168SOL     OW19402   6.881   2.687   0.310 -0.2352 -0.4307  0.5545
 6168SOL    HW119403   6.794   2.694   0.360  0.5391  0.3825  1.8529
 6168SOL    HW219404   6.943   2.758   0.343  1.0088 -1.1462 -0.2036
 6169SOL     OW19405   3.157   5.651   1.211 -0.1048  0.1162 -0.2712
 6169SOL    HW119406   3.161   5.670   1.113  0.7368  0.0115 -0.2597
 6169SOL    HW219407   3.249   5.651   1.249 -0.4953  1.1997  0.7275
 6170SOL     OW19408   0.371   1.397   5.386 -0.5528  0.4739 -0.2141
 6170SOL    HW119409   0.277   1.363   5.379 -0.4207 -0.0182  0.2851
 6170SOL    HW219410   0.410   1.407   5.295 -0.4038 -1.2919 -0.3766
 6171SOL     OW19411   0.936   2.993   6.652  0.1893  0.7876 -0.0802
 6171SOL    HW119412   1.028   2.955   6.667 -0.0741 -0.3230 -1.1136
 6171SOL    HW219413   0.937   3.091   6.670  1.6514  0.8422 -0.3548
 6172SOL     OW19414   1.322   4.189   3.445 -0.1166 -0.1782  0.5737
 6172SOL    HW119415   1.359   4.109   3.492  0.7130 -1.4567 -2.0502
 6172SOL    HW219416   1.222   4.186   3.448 -0.1125 -1.5856  0.1558
 6173SOL     OW19417   6.307   3.539   3.442  0.3448  0.4855 -0.2669
 6173SOL    HW119418   6.242   3.601   3.486 -0.3980  0.6839 -1.5792
 6173SOL    HW219419   6.389   3.590   3.417  0.1608  0.7091 -0.4231
 6174SOL     OW19420   6.161   0.813   4.880  0.5316 -0.5361  0.3366
 6174SOL    HW119421   6.169   0.911   4.901  2.2295 -0.2707 -1.2521
 6174SOL    HW219422   6.219   0.792   4.801 -2.3349 -2.2179 -1.4536
 6175SOL     OW19423   3.103   6.861   6.211  0.1659  0.1514  0.0066
 6175SOL    HW119424   3.199   6.888   6.225 -0.4770  2.3357  0.5067
 6175SOL    HW219425   3.066   6.907   6.131 -0.5349 -0.5510 -0.0891
 6176SOL     OW19426   2.113   4.429   5.503 -0.1132 -0.3415 -0.1620
 6176SOL    HW119427   2.166   4.352   5.470  0.1763 -0.4357  0.5093
 6176SOL    HW219428   2.129   4.442   5.601 -0.0500  0.6545 -0.2899
 6177SOL     OW19429   5.605   5.650   6.857  0.7244  0.7755  0.2487
 6177SOL    HW119430   5.659   5.720   6.810  1.2417 -0.4079 -0.9695
 6177SOL    HW219431   5.530   5.694   6.907  1.8083  2.2989  0.6050
 6178SOL     OW19432   4.710   4.636   2.302  0.1832  0.0591 -0.6459
 6178SOL    HW119433   4.632   4.675   2.253  0.3174 -0.3116 -1.1592
 6178SOL    HW219434   4.793   4.647   2.249  0.2909 -0.5543 -0.6125
 6179SOL     OW19435   3.923   5.767   3.988 -0.2498 -0.1744  0.0825
 6179SOL    HW119436   3.929   5.865   3.970 -0.4848 -0.4028 -1.3339
 6179SOL    HW219437   4.004   5.737   4.039 -0.6453  0.9181  1.4006
 6180SOL     OW19438   2.264   4.863   5.501 -0.7024  0.2315 -0.0964
 6180SOL    HW119439   2.283   4.915   5.418 -0.9532  0.0796 -0.2472
 6180SOL    HW219440   2.282   4.766   5.486 -1.5547  0.0854 -0.2340
 6181SOL     OW19441   1.588   0.442   0.541  0.0777  0.0684 -0.7413
 6181SOL    HW119442   1.645   0.429   0.461 -0.6910 -1.4860 -1.0711
 6181SOL    HW219443   1.574   0.355   0.588 -0.0866  0.8201  0.6791
 6182SOL     OW19444   2.660   2.622   5.453  0.3802  0.5086  0.0686
 6182SOL    HW119445   2.682   2.720   5.464 -0.4361  0.9525 -1.8867
 6182SOL    HW219446   2.602   2.593   5.529 -1.2018  2.1505 -0.4226
 6183SOL     OW19447   0.322   0.682   0.111  0.2291  0.1336  0.2428
 6183SOL    HW119448   0.244   0.734   0.145  0.6282 -0.2746  1.8674
 6183SOL    HW219449   0.297   0.638   0.024 -0.0975  2.9650 -1.2166
 6184SOL     OW19450   3.863   6.881   5.480 -0.3123 -0.4603  0.3934
 6184SOL    HW119451   3.916   6.928   5.410  0.2712 -1.1350  0.3870
 6184SOL    HW219452   3.816   6.803   5.440 -0.5138 -0.4546  0.6153
 6185SOL     OW19453   3.100   3.251   3.986 -0.2815  0.3129 -0.0385
 6185SOL    HW119454   3.103   3.175   4.052  2.1250  1.2491  1.0542
 6185SOL    HW219455   3.049   3.327   4.026 -0.5710  0.1519 -0.1008
 6186SOL     OW19456   1.621   1.514   3.730  0.2450  0.5195  0.7202
 6186SOL    HW119457   1.636   1.578   3.654  1.4686 -1.3805 -0.7442
 6186SOL    HW219458   1.696   1.448   3.733 -1.1762 -1.1285  1.8413
 6187SOL     OW19459   4.076   1.645   6.079 -0.0342  0.2888 -0.1688
 6187SOL    HW119460   4.164   1.686   6.056  1.4102 -2.6409 -0.3608
 6187SOL    HW219461   4.059   1.656   6.177  1.6487 -0.8620  0.3055
 6188SOL     OW19462   2.971   1.218   5.405  0.6207 -0.4707 -0.6736
 6188SOL    HW119463   2.939   1.283   5.474 -0.6763 -2.6981  0.9802
 6188SOL    HW219464   2.907   1.216   5.328  1.3924  1.1062 -1.3949
 6189SOL     OW19465   6.738   3.055   1.804  0.3761  0.0235 -0.3345
 6189SOL    HW119466   6.648   3.041   1.846 -0.1425  0.3273 -1.3052
 6189SOL    HW219467   6.733   3.029   1.707  1.4781 -0.4405 -0.2741
 6190SOL     OW19468   6.896   2.819   4.852 -0.7835 -0.4719 -0.3443
 6190SOL    HW119469   6.867   2.915   4.848 -0.6288 -0.4252 -0.3368
 6190SOL    HW219470   6.948   2.803   4.936 -0.1856 -0.3883 -0.6922
 6191SOL     OW19471   2.099   6.293   6.782 -0.2659  0.5134 -0.5919
 6191SOL    HW119472   2.013   6.336   6.756  0.1709  0.9292 -1.3839
 6191SOL    HW219473   2.166   6.306   6.710  0.0668 -0.9708 -0.5833
 6192SOL     OW19474   3.303   1.977   2.154 -0.2496  0.1299  0.3118
 6192SOL    HW119475   3.251   2.049   2.108 -0.9546  1.4119  2.9204
 6192SOL    HW219476   3.242   1.924   2.213  0.8916 -0.2165  1.2242
 6193SOL     OW19477   6.451   4.863   6.263  0.2600  0.0797 -0.1438
 6193SOL    HW119478   6.353   4.846   6.251  0.0984  0.6857  0.2745
 6193SOL    HW219479   6.469   4.892   6.357  0.7690  0.4626 -0.3540
 6194SOL     OW19480   4.183   0.055   5.897  0.1817  0.2622  0.1464
 6194SOL    HW119481   4.252  -0.011   5.926  0.2311  1.0428  1.9476
 6194SOL    HW219482   4.094   0.030   5.936 -0.2003  0.1923 -0.7604
 6195SOL     OW19483   3.928   6.667   6.248 -0.0839  0.3252 -0.3555
 6195SOL    HW119484   3.925   6.574   6.210 -0.3661  0.6958 -1.2802
 6195SOL    HW219485   3.845   6.685   6.300  1.1457 -0.8655  2.1596
 6196SOL     OW19486   0.854   4.273   2.890  0.1578  0.8547  0.2795
 6196SOL    HW119487   0.921   4.291   2.961  0.2239  0.9831  0.1862
 6196SOL    HW219488   0.877   4.188   2.842 -0.3178  0.3601  0.9120
 6197SOL     OW19489   6.727   6.245   0.644  0.1505 -0.1289  0.4062
 6197SOL    HW119490   6.732   6.276   0.739  1.5851  0.3149  0.2137
 6197SOL    HW219491   6.700   6.321   0.586 -2.2808 -0.7801  0.6059
 6198SOL     OW19492   6.363   1.407   6.529 -0.6024  0.1933 -0.1209
 6198SOL    HW119493   6.325   1.485   6.480 -0.2908  1.0624  0.9672
 6198SOL    HW219494   6.299   1.330   6.525 -1.0116  0.5739 -1.0243
 6199SOL     OW19495   4.618   0.096   1.077 -0.0101 -0.2669  0.1874
 6199SOL    HW119496   4.709   0.076   1.042 -0.9736 -0.6898 -2.2883
 6199SOL    HW219497   4.568   0.151   1.010 -1.4565  0.2834  1.6582
 6200SOL     OW19498   2.793   0.928   1.180  0.9388  0.1612  0.1664
 6200SOL    HW119499   2.782   0.889   1.088 -1.0943 -0.0035  0.4254
 6200SOL    HW219500   2.742   1.014   1.186  2.5510  1.1204  0.6354
 6201SOL     OW19501   2.308   6.353   1.505  0.5994  0.1864 -0.2985
 6201SOL    HW119502   2.366   6.375   1.426  1.1487  0.0220  0.0499
 6201SOL    HW219503   2.363   6.307   1.575 -0.2380 -1.1919 -0.4972
 6202SOL     OW19504   4.964   2.167   4.857  0.0239 -0.3917  0.6043
 6202SOL    HW119505   4.941   2.231   4.783 -2.9907 -0.5464  1.2471
 6202SOL    HW219506   4.982   2.219   4.940 -1.2409 -0.3055  0.8416
 6203SOL     OW19507   0.716   0.712   3.859 -0.0087  0.1570 -0.2068
 6203SOL    HW119508   0.767   0.680   3.939  0.7796 -1.4405 -1.2869
 6203SOL    HW219509   0.778   0.761   3.797 -0.0675 -0.5845 -0.8734
 6204SOL     OW19510   1.990   0.731   5.259  0.1059  0.2143 -0.0122
 6204SOL    HW119511   2.020   0.712   5.352 -0.0815 -0.1044 -0.0131
 6204SOL    HW219512   1.899   0.772   5.261 -0.1360 -0.3078 -0.0740
 6205SOL     OW19513   6.351   5.294   3.190 -0.1928 -0.0193  1.0379
 6205SOL    HW119514   6.322   5.228   3.259 -2.8914 -0.3353 -0.2751
 6205SOL    HW219515   6.350   5.250   3.100  2.3778  0.6331  0.5887
 6206SOL     OW19516   4.109   2.230   4.419  0.3464 -0.3961 -0.4867
 6206SOL    HW119517   4.137   2.140   4.452 -0.0101  0.0413  1.0673
 6206SOL    HW219518   4.117   2.233   4.319  1.5221 -1.7440 -0.4617
 6207SOL     OW19519   6.805   5.327   0.940  0.4222  0.2141 -0.2947
 6207SOL    HW119520   6.862   5.245   0.940 -0.8858 -0.7340  0.6202
 6207SOL    HW219521   6.768   5.342   1.032 -0.0132  1.3721 -0.6363
 6208SOL     OW19522   4.543   4.032   6.156 -0.2459 -0.1549  0.7665
 6208SOL    HW119523   4.610   4.065   6.222  0.5167 -1.1151  0.4913
 6208SOL    HW219524   4.590   3.987   6.080 -1.1689 -0.1193  0.1592
 6209SOL     OW19525   3.378   1.679   3.538 -0.2097 -0.5720 -0.0042
 6209SOL    HW119526   3.344   1.770   3.558  1.3101 -0.4753  2.6453
 6209SOL    HW219527   3.478   1.681   3.532 -0.2508 -1.7109 -2.3334
 6210SOL     OW19528   5.728   5.940   4.597 -0.0080  0.4595 -0.1176
 6210SOL    HW119529   5.821   5.930   4.562 -0.1276 -0.4100 -0.2093
 6210SOL    HW219530   5.665   5.958   4.521 -0.4336 -2.5153 -0.5680
 6211SOL     OW19531   5.104   2.656   5.634 -0.6931  0.1433  0.3131
 6211SOL    HW119532   5.077   2.602   5.554  0.2288 -0.7086  0.5551
 6211SOL    HW219533   5.083   2.604   5.717 -1.0834  0.7652  0.6121
 6212SOL     OW19534   6.248   2.358   5.652 -0.5284 -0.3440  0.2747
 6212SOL    HW119535   6.337   2.314   5.643 -1.5006 -2.2272 -0.7828
 6212SOL    HW219536   6.256   2.454   5.626  1.1837 -0.4705  0.1913
 6213SOL     OW19537   4.830   6.415   0.973  0.1610 -0.1618  0.1032
 6213SOL    HW119538   4.737   6.453   0.972  0.5205  0.7705  1.0153
 6213SOL    HW219539   4.892   6.474   0.922  0.5912  0.1527  0.9685
 6214SOL     OW19540   6.846   1.398   6.677 -0.4007 -0.0389 -0.2576
 6214SOL    HW119541   6.794   1.483   6.663  1.5398  1.0020 -1.5859
 6214SOL    HW219542   6.909   1.384   6.600  2.0332 -0.6670  1.7165
 6215SOL     OW19543   5.310   3.199   0.127 -0.1513 -0.1338 -0.1542
 6215SOL    HW119544   5.379   3.219   0.057  1.3311  1.2753  1.5890
 6215SOL    HW219545   5.258   3.282   0.148  0.2088 -0.2073  1.1694
 6216SOL     OW19546   6.166   2.665   6.376  0.3053  0.4321 -0.3644
 6216SOL    HW119547   6.214   2.663   6.463  0.5392  0.5743 -0.4885
 6216SOL    HW219548   6.186   2.751   6.329 -1.3965  1.2468  0.3204
 6217SOL     OW19549   6.663   4.301   1.879  1.0056  0.1459  0.0060
 6217SOL    HW119550   6.663   4.400   1.864 -0.8158  0.0934 -0.6243
 6217SOL    HW219551   6.696   4.281   1.971  1.0507  1.3742  0.2723
 6218SOL     OW19552   5.163   0.602   6.437  0.3987  0.7696  0.2177
 6218SOL    HW119553   5.078   0.555   6.411 -0.2676  2.2553 -0.4096
 6218SOL    HW219554   5.144   0.667   6.511  1.2093  0.3891  0.7709
 6219SOL     OW19555   3.516   0.275   1.149  0.1279 -0.1220 -0.4506
 6219SOL    HW119556   3.555   0.359   1.112  0.2312 -0.0971 -0.2877
 6219SOL    HW219557   3.430   0.296   1.197 -0.6593 -0.3295 -1.7421
 6220SOL     OW19558   3.041   0.948   4.038 -0.4823 -0.2007  0.4290
 6220SOL    HW119559   3.076   0.865   4.082  0.0653  0.6001  1.5405
 6220SOL    HW219560   3.008   0.925   3.947  0.9812 -1.3978  0.1510
 6221SOL     OW19561   4.867   6.680   5.504 -0.3324  0.2583  0.3929
 6221SOL    HW119562   4.902   6.689   5.410  2.0760 -0.5910  1.1375
 6221SOL    HW219563   4.767   6.679   5.502 -0.4069  2.4387 -1.9357
 6222SOL     OW19564   6.952   6.188   2.092 -0.4239 -0.1573  0.3287
 6222SOL    HW119565   6.853   6.182   2.079 -0.3332 -0.6103 -0.2045
 6222SOL    HW219566   6.986   6.102   2.129 -0.4360  0.5350  2.0463
 6223SOL     OW19567   3.494   5.688   3.320 -0.0591  0.2987  0.0070
 6223SOL    HW119568   3.411   5.633   3.333  0.5461 -0.9299 -1.1200
 6223SOL    HW219569   3.508   5.745   3.401 -1.2022 -0.5378  0.8435
 6224SOL     OW19570   3.612   0.653   2.636 -0.4433 -0.3492  0.1295
 6224SOL    HW119571   3.646   0.593   2.708 -1.5910 -1.5279 -0.2708
 6224SOL    HW219572   3.655   0.743   2.644 -0.6611 -0.3886  2.3938
 6225SOL     OW19573   6.054   3.503   5.064  0.3952 -0.1695  0.2846
 6225SOL    HW119574   6.026   3.588   5.107 -0.0236 -0.3585  0.3900
 6225SOL    HW219575   5.984   3.474   4.998  0.8891 -0.0343 -0.3154
 6226SOL     OW19576   0.890   1.727   4.473 -0.1509  0.2098  0.5651
 6226SOL    HW119577   0.816   1.674   4.432  1.2933 -2.8792  1.6236
 6226SOL    HW219578   0.853   1.786   4.546 -1.7829  0.3726 -0.3523
 6227SOL     OW19579   2.732   4.841   6.637 -0.2398  0.5469  0.1467
 6227SOL    HW119580   2.752   4.746   6.615 -0.7050  0.5541 -0.3532
 6227SOL    HW219581   2.638   4.848   6.670  0.0903  0.7051  1.0660
 6228SOL     OW19582   1.407   4.218   4.740 -0.3021 -0.1382  0.1616
 6228SOL    HW119583   1.311   4.205   4.765  0.0569  0.6451  2.1905
 6228SOL    HW219584   1.458   4.134   4.758 -0.7872 -0.9676 -2.1110
 6229SOL     OW19585   6.194   5.443   4.529 -0.3500 -0.4528 -0.1517
 6229SOL    HW119586   6.186   5.343   4.526 -0.5881 -0.4212 -0.5455
 6229SOL    HW219587   6.147   5.477   4.611  0.8188 -0.7627  0.6866
 6230SOL     OW19588   1.818   6.574   0.876 -0.3669 -0.1381  0.1292
 6230SOL    HW119589   1.875   6.647   0.914 -0.3323 -0.7014  1.2166
 6230SOL    HW219590   1.843   6.487   0.919 -0.1042 -0.8812 -1.4576
 6231SOL     OW19591   2.495   5.782   6.562 -0.3499  0.2145  0.3911
 6231SOL    HW119592   2.507   5.770   6.660  2.4672  1.6581  0.3400
 6231SOL    HW219593   2.566   5.731   6.513  0.0747  1.7749 -0.7077
 6232SOL     OW19594   2.404   0.428   6.549  0.1462  1.0282 -0.0816
 6232SOL    HW119595   2.322   0.426   6.606  0.0685  0.3481 -0.2148
 6232SOL    HW219596   2.388   0.487   6.470 -0.6758 -0.1142 -0.7931
 6233SOL     OW19597   6.852   4.817   0.296  0.0527  0.0582 -0.6028
 6233SOL    HW119598   6.897   4.861   0.218  1.1817  1.8199  0.9714
 6233SOL    HW219599   6.791   4.744   0.262  1.4683 -0.1150 -3.0190
 6234SOL     OW19600   5.743   4.979   3.219  0.2668 -0.4703 -0.2823
 6234SOL    HW119601   5.729   5.013   3.312  4.0142  1.3127 -0.1987
 6234SOL    HW219602   5.738   4.879   3.218  0.8136 -0.5589  1.9748
 6235SOL     OW19603   0.672   0.682   1.764 -0.0824 -0.5591  0.1842
 6235SOL    HW119604   0.686   0.623   1.844  3.1384  1.1224  1.0296
 6235SOL    HW219605   0.670   0.778   1.794 -1.7192  0.0038 -1.5271
 6236SOL     OW19606   5.537   5.846   1.392 -0.2055  0.1906  0.0555
 6236SOL    HW119607   5.619   5.791   1.380 -1.0734 -1.0855 -0.2633
 6236SOL    HW219608   5.547   5.933   1.344  0.9003  0.0009 -0.0668
 6237SOL     OW19609   2.250   1.081   4.796  0.1291  0.3602  0.1361
 6237SOL    HW119610   2.293   1.075   4.705  0.7329 -2.0161  0.5014
 6237SOL    HW219611   2.193   1.000   4.811 -0.2900  0.9183  1.7342
 6238SOL     OW19612   2.013   0.050   3.284  0.0448  0.3563 -0.0372
 6238SOL    HW119613   2.098   0.095   3.256  1.0042 -0.1303  1.8377
 6238SOL    HW219614   1.986   0.084   3.375 -1.4871  0.1090 -0.3729
 6239SOL     OW19615   6.904   6.810   4.015 -0.1739  0.1388  0.0700
 6239SOL    HW119616   6.829   6.812   3.949 -0.1406  0.4860  0.0389
 6239SOL    HW219617   6.879   6.867   4.094  0.2158  0.5772 -0.1190
 6240SOL     OW19618   3.624   2.911   3.219  0.0385 -0.3704  0.1733
 6240SOL    HW119619   3.704   2.897   3.278  0.1647  1.9998  0.6417
 6240SOL    HW219620   3.647   2.883   3.125  1.5765  0.6196  0.2131
 6241SOL     OW19621   2.835   1.304   3.466 -0.6245  0.1881  0.5224
 6241SOL    HW119622   2.911   1.239   3.466 -1.3516 -0.6700  0.6794
 6241SOL    HW219623   2.815   1.332   3.372 -0.3096  0.2053  0.4577
 6242SOL     OW19624   3.576   2.005   3.315 -0.0144 -0.2648  0.3098
 6242SOL    HW119625   3.546   2.035   3.405 -0.3037 -1.4421  0.6217
 6242SOL    HW219626   3.497   1.976   3.261  0.0856  0.9873 -0.5643
 6243SOL     OW19627   2.548   1.274   6.562 -0.2080 -0.2802  0.0566
 6243SOL    HW119628   2.494   1.306   6.639  0.2413 -0.9090  0.6442
 6243SOL    HW219629   2.534   1.335   6.484  0.8135  1.5014  1.1877
 6244SOL     OW19630   6.190   1.785   0.743 -0.3019  0.2139 -0.4482
 6244SOL    HW119631   6.253   1.846   0.791 -1.7048  0.5615  1.0254
 6244SOL    HW219632   6.213   1.690   0.762 -0.8258  0.3490  0.9333
 6245SOL     OW19633   0.102   5.859   0.195 -0.0090 -1.1632 -0.1994
 6245SOL    HW119634   0.196   5.872   0.228 -0.4787 -2.1019  1.6604
 6245SOL    HW219635   0.087   5.916   0.114  0.3086  4.0608  2.9333
 6246SOL     OW19636   0.538   0.815   6.636 -0.5794  0.1872  0.7907
 6246SOL    HW119637   0.574   0.846   6.548 -0.8167 -1.9158 -0.0885
 6246SOL    HW219638   0.581   0.868   6.710  1.0724  0.6650 -0.4598
 6247SOL     OW19639   4.907   5.230   2.483  0.4305 -0.0092 -0.3670
 6247SOL    HW119640   5.003   5.201   2.482 -0.1859 -2.3263  1.0251
 6247SOL    HW219641   4.888   5.280   2.567  0.5139  0.9931 -0.9216
 6248SOL     OW19642   4.946   1.650   4.746  0.9530 -0.6466 -0.1773
 6248SOL    HW119643   4.901   1.688   4.666  1.3247  0.2741  0.0459
 6248SOL    HW219644   4.999   1.721   4.793 -1.2489 -0.4905  2.3167
 6249SOL     OW19645   5.904   2.552   4.660 -0.2667 -0.3093  0.3450
 6249SOL    HW119646   5.892   2.453   4.656  0.4935 -0.3771 -1.9724
 6249SOL    HW219647   5.980   2.578   4.600  2.4782  1.3031  4.1156
 6250SOL     OW19648   4.544   5.934   5.032 -0.1477 -0.0338 -0.0115
 6250SOL    HW119649   4.567   6.020   4.986  3.0582 -1.3207 -1.1217
 6250SOL    HW219650   4.571   5.940   5.128 -2.1997  0.9535  0.5503
 6251SOL     OW19651   3.716   1.800   3.836  0.0768 -0.4904  0.2262
 6251SOL    HW119652   3.693   1.828   3.929 -0.8306 -5.7963  1.9792
 6251SOL    HW219653   3.805   1.838   3.810  0.4452  1.0607  3.3389
 6252SOL     OW19654   0.969   3.695   6.435 -0.4508  0.1397  0.2441
 6252SOL    HW119655   1.009   3.675   6.346 -1.1024 -1.9314  0.3684
 6252SOL    HW219656   0.969   3.794   6.450  1.4585  0.4081 -1.1839
 6253SOL     OW19657   5.311   5.656   3.797  0.3747 -0.0608  0.1983
 6253SOL    HW119658   5.388   5.656   3.861  0.7998  1.7510 -0.2481
 6253SOL    HW219659   5.340   5.695   3.710 -0.4774 -1.5230 -0.7652
 6254SOL     OW19660   6.576   7.008   1.424 -0.2874  0.4547 -0.4423
 6254SOL    HW119661   6.494   6.954   1.444 -0.8892  1.2456 -0.7032
 6254SOL    HW219662   6.600   7.063   1.504 -0.9852  1.4379 -0.8802
 6255SOL     OW19663   2.838   1.251   3.153  0.0135 -0.8117 -0.0515
 6255SOL    HW119664   2.774   1.325   3.132  0.6238 -0.1802  0.2418
 6255SOL    HW219665   2.885   1.223   3.069 -2.0491 -2.6750 -0.6596
 6256SOL     OW19666   6.855   4.779   2.071 -0.1624  0.0606  0.2166
 6256SOL    HW119667   6.868   4.685   2.103  5.3641  0.2218 -0.6049
 6256SOL    HW219668   6.857   4.841   2.149  3.9545 -0.2079  0.5737
 6257SOL     OW19669   3.621   2.489   6.690  0.2444 -0.4840 -0.1812
 6257SOL    HW119670   3.604   2.436   6.773  1.2356 -1.8845 -0.8267
 6257SOL    HW219671   3.682   2.565   6.711  0.6065 -0.9125  0.3677
 6258SOL     OW19672   4.046   5.123   3.605  0.3607  0.2405 -0.0722
 6258SOL    HW119673   4.059   5.132   3.506  0.7578  0.6791  0.0157
 6258SOL    HW219674   4.108   5.053   3.640 -2.0565 -2.3754 -0.6091
 6259SOL     OW19675   5.213   5.448   5.185 -0.2034 -0.1850  0.3406
 6259SOL    HW119676   5.222   5.395   5.100 -0.5973 -2.1218  1.4375
 6259SOL    HW219677   5.167   5.534   5.166  0.4815 -0.1916 -1.5443
 6260SOL     OW19678   6.007   1.156   0.912 -0.3716  0.5205 -0.4055
 6260SOL    HW119679   6.005   1.070   0.964  2.4851 -0.2953 -1.4762
 6260SOL    HW219680   6.054   1.226   0.966 -0.8076  0.8075 -0.3916
 6261SOL     OW19681   3.265   1.006   1.668  0.0772  0.4684  0.0441
 6261SOL    HW119682   3.293   0.953   1.748  2.1561  1.4402  0.0228
 6261SOL    HW219683   3.211   1.085   1.698 -0.5681 -0.0778  0.3321
 6262SOL     OW19684   0.402   3.710   4.535 -0.2517  0.1265 -0.0086
 6262SOL    HW119685   0.462   3.629   4.534 -0.0938  0.2271  0.8988
 6262SOL    HW219686   0.314   3.686   4.496  0.3530 -0.0393 -1.3302
 6263SOL     OW19687   0.199   6.529   3.950 -0.1948 -0.4810 -0.3631
 6263SOL    HW119688   0.131   6.477   3.897 -0.0293 -0.1667 -0.8987
 6263SOL    HW219689   0.162   6.620   3.971  0.7573  0.4184 -2.3375
 6264SOL     OW19690   2.825   1.034   0.847 -0.1473 -0.7595 -0.2935
 6264SOL    HW119691   2.805   1.128   0.874  0.6801 -0.7603  0.3807
 6264SOL    HW219692   2.923   1.024   0.829  0.0047 -1.7807  0.9252
 6265SOL     OW19693   4.800   4.767   6.794 -0.6459 -0.3412  0.5993
 6265SOL    HW119694   4.851   4.696   6.842 -1.6813  0.0943  2.4139
 6265SOL    HW219695   4.706   4.737   6.778 -0.3177 -0.4990 -1.2785
 6266SOL     OW19696   2.972   6.363   4.680  0.2156 -0.5515  0.3614
 6266SOL    HW119697   2.924   6.395   4.598  2.4001  0.2395 -0.6909
 6266SOL    HW219698   2.942   6.270   4.702 -0.9930 -0.4877 -0.8452
 6267SOL     OW19699   0.356   6.733   6.885 -0.2505 -0.4901 -0.3137
 6267SOL    HW119700   0.280   6.680   6.922  0.1651 -0.8654  0.0047
 6267SOL    HW219701   0.356   6.824   6.925  0.0333 -0.8033  0.4015
 6268SOL     OW19702   3.256   0.372   1.215 -0.1140 -0.0346 -0.1292
 6268SOL    HW119703   3.259   0.468   1.245 -1.2572  0.4281 -1.3961
 6268SOL    HW219704   3.200   0.365   1.133 -0.8896 -1.9594  0.5201
 6269SOL     OW19705   6.932   4.100   1.674 -0.5413 -0.1512  0.4460
 6269SOL    HW119706   6.993   4.171   1.639  0.9181 -1.4318  0.2673
 6269SOL    HW219707   6.983   4.041   1.737 -2.1392 -0.1154  1.8330
 6270SOL     OW19708   1.459   4.511   0.864 -0.1262  0.3845 -0.0533
 6270SOL    HW119709   1.457   4.506   0.964 -0.7217 -1.3783 -0.1158
 6270SOL    HW219710   1.406   4.434   0.826  1.3064  0.1760 -1.7247
 6271SOL     OW19711   5.990   3.264   6.076 -0.6117 -0.0941 -0.0051
 6271SOL    HW119712   6.083   3.282   6.106 -0.8654 -0.2222  0.8815
 6271SOL    HW219713   5.991   3.238   5.979  0.0725  1.6881 -0.5228
 6272SOL     OW19714   1.821   0.225   1.271  0.1419 -0.5692 -0.0677
 6272SOL    HW119715   1.894   0.293   1.282 -0.6344  0.1257  1.0710
 6272SOL    HW219716   1.860   0.137   1.244  1.3085  0.0039 -0.2807
 6273SOL     OW19717   2.886   5.274   1.517  0.6758  0.2355 -0.1948
 6273SOL    HW119718   2.928   5.195   1.561  0.4188 -1.2845 -2.4904
 6273SOL    HW219719   2.951   5.315   1.452 -0.1682  0.0129 -1.2169
 6274SOL     OW19720   3.117   6.010   4.907  0.5300  0.4657  0.9514
 6274SOL    HW119721   3.205   5.992   4.952  1.1271  1.0041  0.0176
 6274SOL    HW219722   3.132   6.030   4.811 -0.5764  1.0721  0.8877
 6275SOL     OW19723   4.902   4.982   1.058 -0.0497  0.3509 -0.2561
 6275SOL    HW119724   4.952   4.997   0.973  0.3111  2.5412  0.2820
 6275SOL    HW219725   4.840   5.059   1.074 -1.4278 -0.8765  0.5986
 6276SOL     OW19726   2.008   6.375   1.217 -0.3059  0.1821 -0.0735
 6276SOL    HW119727   2.066   6.452   1.190 -0.7813  0.0275 -1.6321
 6276SOL    HW219728   2.041   6.291   1.174 -1.2434 -0.0337 -0.3960
 6277SOL     OW19729   4.506   1.502   0.877 -0.5702 -0.3916  0.3110
 6277SOL    HW119730   4.447   1.556   0.936  0.7005  0.8555  0.5111
 6277SOL    HW219731   4.518   1.411   0.915 -1.8532 -0.4580  0.5784
 6278SOL     OW19732   3.046   2.738   1.496  0.1252  0.3253  0.2405
 6278SOL    HW119733   3.009   2.831   1.492 -0.2590  0.1867  0.4812
 6278SOL    HW219734   3.063   2.712   1.591  0.0118  0.0685  0.1945
 6279SOL     OW19735   0.227   5.722   6.539 -0.9833  0.3089  0.3428
 6279SOL    HW119736   0.177   5.641   6.507 -0.9084 -0.1083  1.2451
 6279SOL    HW219737   0.238   5.786   6.464 -2.2726  0.1058 -0.0428
 6280SOL     OW19738   3.903   1.547   6.596 -0.0541 -0.1446  0.8575
 6280SOL    HW119739   3.902   1.451   6.568 -0.4110  0.6761 -2.2737
 6280SOL    HW219740   3.818   1.567   6.646 -1.1507 -0.9021 -0.6278
 6281SOL     OW19741   5.405   4.037   6.882  0.4082  0.1955 -0.0060
 6281SOL    HW119742   5.372   4.015   6.974 -1.6879 -0.9148 -0.9485
 6281SOL    HW219743   5.362   4.121   6.850  0.7512  0.3126 -0.1666
 6282SOL     OW19744   6.682   4.448   5.430  0.2305  0.1428 -0.9903
 6282SOL    HW119745   6.693   4.359   5.386 -0.0048  0.2555 -1.2827
 6282SOL    HW219746   6.635   4.510   5.367 -0.6166  0.1384 -0.3752
 6283SOL     OW19747   2.221   0.559   4.919  0.4105 -0.1881 -0.4382
 6283SOL    HW119748   2.314   0.525   4.930  0.1964 -0.5790  0.1981
 6283SOL    HW219749   2.159   0.509   4.979  0.0711  1.2359  0.4331
 6284SOL     OW19750   6.787   5.495   4.984 -0.1480 -0.0216  0.3125
 6284SOL    HW119751   6.761   5.571   5.044 -0.5332  0.4756 -0.4770
 6284SOL    HW219752   6.726   5.493   4.905 -1.0663 -2.0258  1.0042
 6285SOL     OW19753   1.437   4.115   3.768  0.5675 -0.1009  0.3991
 6285SOL    HW119754   1.410   4.032   3.719  1.7186 -0.5015  0.4064
 6285SOL    HW219755   1.393   4.116   3.858 -1.2334  0.4321 -0.4401
 6286SOL     OW19756   1.033   2.316   6.977  0.0906 -0.7577  0.4580
 6286SOL    HW119757   0.981   2.380   7.033  0.8185 -2.4212  3.2056
 6286SOL    HW219758   1.100   2.367   6.923 -1.6448  1.0428 -0.1524
 6287SOL     OW19759   2.916   4.878   4.422  0.3188  0.0827  0.0633
 6287SOL    HW119760   2.860   4.931   4.358  0.2100  0.4665  0.4660
 6287SOL    HW219761   2.880   4.890   4.515  0.6105 -0.2842  0.2235
 6288SOL     OW19762   2.905   5.281   4.366 -0.2737  0.1625 -0.2317
 6288SOL    HW119763   2.862   5.278   4.456  0.1014  0.3762 -0.0426
 6288SOL    HW219764   2.995   5.324   4.373 -0.1367 -0.0397 -0.6654
 6289SOL     OW19765   4.123   0.151   4.645 -0.2602 -0.5066  0.0926
 6289SOL    HW119766   4.139   0.174   4.741  0.6898  2.5660 -0.6779
 6289SOL    HW219767   4.063   0.221   4.605 -0.2157 -1.4525 -1.6910
 6290SOL     OW19768   1.087   0.001   4.268  0.3523 -0.0950 -0.2241
 6290SOL    HW119769   1.086   0.004   4.168  1.7483  1.7653 -0.2365
 6290SOL    HW219770   1.025   0.072   4.303 -0.5285 -1.0840  0.2547
 6291SOL     OW19771   3.685   3.241   2.610  0.2301  0.0105 -0.4747
 6291SOL    HW119772   3.688   3.338   2.587  1.2445 -0.5013 -2.8189
 6291SOL    HW219773   3.600   3.201   2.576 -0.9166  0.3229  1.8566
 6292SOL     OW19774   1.450   4.339   5.059  0.3223  0.5802 -0.2127
 6292SOL    HW119775   1.381   4.388   5.007 -3.1551 -0.7412  2.7535
 6292SOL    HW219776   1.466   4.249   5.017 -0.1379  0.6918 -0.6394
 6293SOL     OW19777   2.697   1.245   6.816 -0.0444  0.1227 -0.4299
 6293SOL    HW119778   2.665   1.230   6.723 -0.1453  0.4348 -0.4441
 6293SOL    HW219779   2.764   1.174   6.840  0.3937  0.3610 -0.9291
 6294SOL     OW19780   5.849   5.841   1.861 -0.2318  0.0013  0.0803
 6294SOL    HW119781   5.935   5.869   1.905 -1.3259  0.6139  1.9694
 6294SOL    HW219782   5.825   5.749   1.891 -0.8655  0.3326  0.6369
 6295SOL     OW19783   6.267   4.505   6.198 -0.4951 -0.6000  0.0264
 6295SOL    HW119784   6.352   4.510   6.250 -0.7889 -0.4721  0.4976
 6295SOL    HW219785   6.286   4.468   6.107 -0.0307 -1.1821  0.3512
 6296SOL     OW19786   5.378   4.176   6.353  0.2986  0.1922 -0.2096
 6296SOL    HW119787   5.403   4.268   6.381  0.3216  0.4107 -0.9348
 6296SOL    HW219788   5.280   4.173   6.331  0.2923  0.0342 -0.1660
 6297SOL     OW19789   0.678   2.991   6.187 -0.1504  0.0163 -0.1179
 6297SOL    HW119790   0.664   3.024   6.280  1.6645  3.4742 -0.8729
 6297SOL    HW219791   0.769   2.951   6.179  1.4600  3.4165 -1.0452
 6298SOL     OW19792   0.042   1.829   5.561  0.4377 -0.0003 -0.3792
 6298SOL    HW119793   0.092   1.862   5.642 -0.4270 -0.2933  0.2915
 6298SOL    HW219794   0.063   1.887   5.483  1.1773  0.3811  0.0897
 6299SOL     OW19795   3.936   2.086   3.504 -0.1768  0.3565 -0.4520
 6299SOL    HW119796   3.886   2.142   3.438 -1.2556  1.3920  1.1513
 6299SOL    HW219797   3.904   2.109   3.596  1.5655 -0.7294  0.4586
 6300SOL     OW19798   2.259   6.976   1.873  0.8162  0.2465  0.3680
 6300SOL    HW119799   2.257   6.951   1.970  0.5647 -3.1909 -0.3991
 6300SOL    HW219800   2.175   7.023   1.849 -0.3030 -1.1519  1.3505
 6301SOL     OW19801   5.362   4.489   5.814  0.2810 -0.4530  0.2416
 6301SOL    HW119802   5.455   4.461   5.789  0.5998  0.1383  0.7113
 6301SOL    HW219803   5.297   4.419   5.785  0.7160 -0.2362 -1.3531
 6302SOL     OW19804   1.381   1.662   6.833  0.5049 -0.0561  0.1730
 6302SOL    HW119805   1.318   1.701   6.766 -1.0293  0.0928  1.6546
 6302SOL    HW219806   1.405   1.732   6.901  1.0748 -0.5349  0.4801
 6303SOL     OW19807   4.986   5.885   3.912  0.3132  0.3950 -0.3458
 6303SOL    HW119808   4.966   5.843   3.823 -1.7929 -0.4771  0.4714
 6303SOL    HW219809   5.068   5.842   3.951  0.2469 -0.4495 -1.0998
 6304SOL     OW19810   0.903   3.389   3.413  1.0521 -0.2756 -0.1628
 6304SOL    HW119811   0.965   3.311   3.417  0.8608 -0.4264 -0.1553
 6304SOL    HW219812   0.874   3.404   3.319  0.4841 -0.6883 -0.0587
 6305SOL     OW19813   0.942   6.923   5.756 -0.1457 -0.0684 -0.0014
 6305SOL    HW119814   0.902   6.982   5.686  4.7387  0.7974 -2.4718
 6305SOL    HW219815   0.936   6.827   5.727 -0.4938  0.0331 -0.2663
 6306SOL     OW19816   0.974   3.240   4.854 -0.2782  0.0003  0.1807
 6306SOL    HW119817   0.964   3.165   4.788  2.1678 -0.6876  0.4917
 6306SOL    HW219818   0.925   3.218   4.938 -1.0019 -0.4453 -0.3473
 6307SOL     OW19819   3.898   3.971   2.259  0.3757 -0.5156  0.0801
 6307SOL    HW119820   3.814   4.018   2.232  1.5452  0.2471 -2.6390
 6307SOL    HW219821   3.881   3.913   2.339 -2.2541  0.9436  0.6801
 6308SOL     OW19822   0.207   1.611   1.007  0.2279 -0.0344  0.1125
 6308SOL    HW119823   0.154   1.696   1.006 -0.7633 -0.5790  2.0443
 6308SOL    HW219824   0.182   1.555   0.928  0.4560  1.1779 -0.8587
 6309SOL     OW19825   1.514   5.453   4.573  0.2911  0.4220 -0.5687
 6309SOL    HW119826   1.513   5.553   4.573 -4.7068  0.6869  1.5080
 6309SOL    HW219827   1.472   5.420   4.488 -1.4553  0.4040  0.2449
 6310SOL     OW19828   6.653   5.199   1.169  1.1399 -0.1948 -0.5964
 6310SOL    HW119829   6.666   5.240   1.259  0.3677  0.6430 -0.8569
 6310SOL    HW219830   6.555   5.185   1.153  1.3358 -1.4100 -0.8421
 6311SOL     OW19831   5.254   1.551   6.505  0.2098  0.2799 -0.3823
 6311SOL    HW119832   5.309   1.634   6.511 -0.3734  0.6167  0.5008
 6311SOL    HW219833   5.216   1.543   6.413  1.7951 -0.0152 -1.0380
 6312SOL     OW19834   3.623   4.700   1.104 -0.4573  0.3101 -0.9948
 6312SOL    HW119835   3.693   4.633   1.080 -0.9350 -0.7609  0.4969
 6312SOL    HW219836   3.657   4.792   1.086  0.3534 -0.2850 -2.7174
 6313SOL     OW19837   5.448   5.092   2.585  0.1068  0.5185 -0.0834
 6313SOL    HW119838   5.421   5.139   2.669  0.7431  0.8033 -0.0297
 6313SOL    HW219839   5.513   5.020   2.607  1.7755  1.8342 -0.5050
 6314SOL     OW19840   0.843   4.449   3.333  0.3028 -0.4514  0.0378
 6314SOL    HW119841   0.782   4.501   3.274  0.1289 -0.0920  0.5265
 6314SOL    HW219842   0.894   4.511   3.393  2.1604 -0.6346 -1.2688
 6315SOL     OW19843   1.417   3.679   4.413 -0.0037  0.3389  0.5715
 6315SOL    HW119844   1.491   3.690   4.479 -0.1119 -0.1612  0.7756
 6315SOL    HW219845   1.344   3.624   4.453  0.7917 -1.6795 -0.6313
 6316SOL     OW19846   4.901   0.784   0.236  0.0485  0.1993  0.5411
 6316SOL    HW119847   4.958   0.859   0.270  1.9334 -0.9187 -0.0114
 6316SOL    HW219848   4.948   0.697   0.249 -2.2082 -0.9791  1.4182
 6317SOL     OW19849   3.472   5.352   5.633  0.3374  0.0202  0.4336
 6317SOL    HW119850   3.463   5.256   5.660  0.2001 -0.3218 -0.7987
 6317SOL    HW219851   3.511   5.358   5.542 -0.7803  1.0945 -0.0077
 6318SOL     OW19852   6.049   0.074   6.988 -0.9247  0.3864  0.2512
 6318SOL    HW119853   6.094   0.009   7.049 -0.8919  0.0927 -0.0784
 6318SOL    HW219854   6.064   0.046   6.893  1.2655  2.2545 -0.0501
 6319SOL     OW19855   5.754   2.094   2.311 -0.1898  0.0445 -0.2827
 6319SOL    HW119856   5.668   2.138   2.338  0.6258  1.4101  0.1606
 6319SOL    HW219857   5.741   1.995   2.309 -1.8760  0.2448 -0.5871
 6320SOL     OW19858   6.360   1.836   0.000 -0.3462 -0.5178  0.2621
 6320SOL    HW119859   6.293   1.770   0.034 -0.7282  0.3744  1.2922
 6320SOL    HW219860   6.330   1.872  -0.088 -0.9296 -0.5472  0.4495
 6321SOL     OW19861   6.297   3.142   1.376  0.3015  0.0978  0.4991
 6321SOL    HW119862   6.277   3.154   1.473  1.1934 -0.4043  0.7597
 6321SOL    HW219863   6.217   3.101   1.330  0.2518 -0.6684  1.2400
 6322SOL     OW19864   4.186   6.778   4.416 -0.0911 -0.6267 -0.2861
 6322SOL    HW119865   4.155   6.820   4.330 -0.0778 -1.4041 -0.6735
 6322SOL    HW219866   4.225   6.849   4.475  2.9604 -0.5064 -2.2378
 6323SOL     OW19867   2.762   0.507   6.706 -0.1000 -0.1084 -0.0153
 6323SOL    HW119868   2.687   0.444   6.686 -0.5457  0.8651 -1.5636
 6323SOL    HW219869   2.766   0.578   6.636  2.9880 -0.7502 -0.6259
 6324SOL     OW19870   5.627   2.642   1.357  0.2637 -0.0126 -0.7018
 6324SOL    HW119871   5.603   2.738   1.372  0.7931 -0.0244  0.2621
 6324SOL    HW219872   5.599   2.587   1.436  1.3986 -0.3953 -0.5492
 6325SOL     OW19873   2.025   3.835   3.726  0.3462  0.3326  0.9109
 6325SOL    HW119874   1.954   3.767   3.748  0.7416 -0.1212  0.7973
 6325SOL    HW219875   2.114   3.790   3.724  0.4417  0.5161 -0.7328
 6326SOL     OW19876   5.419   5.690   4.901  0.5837 -0.0933  0.3866
 6326SOL    HW119877   5.345   5.718   4.962 -0.1645 -0.7771 -0.1912
 6326SOL    HW219878   5.455   5.601   4.930  1.0029  0.1105  0.5049
 6327SOL     OW19879   0.732   0.156   1.742 -0.0690 -0.5559  0.6687
 6327SOL    HW119880   0.675   0.085   1.700  0.6175 -0.6542 -0.1199
 6327SOL    HW219881   0.828   0.132   1.729  0.1732  0.6240  0.2320
 6328SOL     OW19882   3.698   4.164   4.179  0.1498  0.1302 -0.1887
 6328SOL    HW119883   3.756   4.084   4.167 -2.5573 -1.8990 -0.8310
 6328SOL    HW219884   3.675   4.174   4.276 -1.3520 -1.3778 -0.3429
 6329SOL     OW19885   0.266   3.692   3.608  0.5779 -0.0879 -0.1513
 6329SOL    HW119886   0.240   3.782   3.644 -0.9440 -0.1137 -1.0852
 6329SOL    HW219887   0.198   3.624   3.637  0.4364 -0.4831 -1.3597
 6330SOL     OW19888   4.417   1.261   4.779 -0.6334 -0.5589  0.5962
 6330SOL    HW119889   4.330   1.293   4.742 -0.7393 -0.6183  0.7914
 6330SOL    HW219890   4.482   1.337   4.781 -0.7109 -0.4908  0.5378
 6331SOL     OW19891   0.905   2.265   4.177 -0.1171  0.1251 -0.0417
 6331SOL    HW119892   0.906   2.174   4.136  1.1362 -0.9899  2.2157
 6331SOL    HW219893   0.981   2.319   4.142  1.3750 -1.0658  1.2040
 6332SOL     OW19894   4.593   1.226   6.143 -0.1830  0.5461 -0.1919
 6332SOL    HW119895   4.607   1.136   6.184 -0.1352  0.4312 -0.4540
 6332SOL    HW219896   4.650   1.234   6.061 -0.5272  0.6448 -0.4220
 6333SOL     OW19897   5.316   3.706   0.219 -0.3461  0.3571 -0.4879
 6333SOL    HW119898   5.350   3.661   0.136 -0.6786  0.8870 -0.9117
 6333SOL    HW219899   5.241   3.652   0.258  1.5162 -1.3605  0.9969
 6334SOL     OW19900   3.277   0.488   1.817 -0.0366  0.4371 -0.0357
 6334SOL    HW119901   3.292   0.560   1.749  0.3077  0.2558 -0.1517
 6334SOL    HW219902   3.362   0.470   1.866 -0.5151  1.3155  1.1907
 6335SOL     OW19903   6.714   2.244   5.810  0.1719 -0.3893 -0.1267
 6335SOL    HW119904   6.712   2.298   5.895 -0.5638 -0.2663 -0.2154
 6335SOL    HW219905   6.759   2.298   5.739 -3.4371  1.5886 -1.1513
 6336SOL     OW19906   0.538   5.651   5.087 -0.0736  0.5936  0.4530
 6336SOL    HW119907   0.443   5.629   5.109  0.1005 -0.8163 -0.0993
 6336SOL    HW219908   0.597   5.625   5.164  0.1878 -1.4799 -0.3825
 6337SOL     OW19909   0.426   1.905   6.070  0.1800  0.1416 -0.5632
 6337SOL    HW119910   0.354   1.966   6.036  0.1438  0.3801 -0.0695
 6337SOL    HW219911   0.442   1.923   6.167 -0.5945 -1.3867 -0.1229
 6338SOL     OW19912   3.416   0.579   2.460  0.2003 -0.0709  0.1374
 6338SOL    HW119913   3.460   0.617   2.542  2.7091 -0.2869 -1.0021
 6338SOL    HW219914   3.368   0.494   2.483  2.0708 -0.8988  1.1862
 6339SOL     OW19915   7.016   5.222   4.262 -0.1552  0.6605  0.6640
 6339SOL    HW119916   7.038   5.132   4.298 -0.5111  0.9324  1.5836
 6339SOL    HW219917   7.101   5.270   4.240  0.0483  0.2694  0.5879
 6340SOL     OW19918   2.238   1.639   0.064 -0.0245  0.1905 -0.5805
 6340SOL    HW119919   2.217   1.685  -0.022 -0.7361  0.0251 -0.5042
 6340SOL    HW219920   2.164   1.575   0.086  0.0895  0.3204  0.2144
 6341SOL     OW19921   6.623   4.528   4.016  0.2969  0.1041 -0.2713
 6341SOL    HW119922   6.562   4.570   4.082  0.7713  0.1870  0.1230
 6341SOL    HW219923   6.573   4.506   3.932 -0.2088  0.3932 -0.0450
 6342SOL     OW19924   0.865   2.622   1.608  0.3413 -0.7715 -0.7011
 6342SOL    HW119925   0.913   2.710   1.614 -1.6602  0.3103  0.9399
 6342SOL    HW219926   0.777   2.635   1.562 -0.5639 -1.5910  0.7174
 6343SOL     OW19927   2.468   4.059   6.674 -0.2848  0.0888  0.0887
 6343SOL    HW119928   2.393   4.081   6.612  0.3447 -0.3953 -0.8766
 6343SOL    HW219929   2.491   3.962   6.664 -0.4522 -0.1078  1.4139
 6344SOL     OW19930   3.097   6.637   3.949 -0.0526  0.2670 -0.6150
 6344SOL    HW119931   3.174   6.698   3.930 -0.7128  1.7991  1.3599
 6344SOL    HW219932   3.013   6.679   3.915 -0.2403 -0.7016 -1.3914
 6345SOL     OW19933   0.215   3.622   4.072 -0.2499 -0.1234 -0.2966
 6345SOL    HW119934   0.307   3.584   4.086  0.4205  1.1152 -1.1257
 6345SOL    HW219935   0.191   3.615   3.975 -0.7846  0.0875 -0.1808
 6346SOL     OW19936   1.781   5.006   3.026 -0.3022 -0.5636 -0.3411
 6346SOL    HW119937   1.828   4.918   3.016 -0.0230 -0.3110 -1.3630
 6346SOL    HW219938   1.764   5.024   3.123  1.4478 -0.7923  0.0366
 6347SOL     OW19939   1.563   1.845   1.266  0.0696 -0.5262 -0.4695
 6347SOL    HW119940   1.570   1.859   1.167  0.7034  1.5713 -0.1657
 6347SOL    HW219941   1.651   1.864   1.309 -0.7904  1.0266  0.7192
 6348SOL     OW19942   1.855   1.783   4.746  0.3035  0.0236 -0.1419
 6348SOL    HW119943   1.821   1.871   4.714  1.9760  0.5338 -0.6328
 6348SOL    HW219944   1.835   1.773   4.844 -0.6327  0.5713 -0.2724
 6349SOL     OW19945   6.815   6.941   0.175  0.7319  0.4969 -0.8496
 6349SOL    HW119946   6.791   6.905   0.085  2.5577 -0.5880 -0.9634
 6349SOL    HW219947   6.870   6.873   0.224 -0.9995  0.6548  1.4982
 6350SOL     OW19948   0.975   6.728   1.440  1.0469 -0.2851 -0.5621
 6350SOL    HW119949   1.016   6.786   1.510  0.7987  0.5256 -1.0748
 6350SOL    HW219950   0.997   6.765   1.349 -0.4962 -0.0395 -0.8616
 6351SOL     OW19951   0.732   1.580   2.082  0.2386  0.6994 -0.0114
 6351SOL    HW119952   0.635   1.588   2.107  0.2897 -0.1989  0.5296
 6351SOL    HW219953   0.766   1.669   2.052 -0.6703  1.0976  0.0904
 6352SOL     OW19954   2.800   1.813   4.639 -0.1403 -0.1658  0.2941
 6352SOL    HW119955   2.877   1.750   4.627 -1.2215 -1.2740 -1.0741
 6352SOL    HW219956   2.721   1.763   4.674 -1.1829  0.3010 -1.3148
 6353SOL     OW19957   4.058   6.320   4.404  0.3162 -0.6298 -0.8747
 6353SOL    HW119958   4.091   6.360   4.318  0.9051  1.2869  0.1773
 6353SOL    HW219959   3.958   6.316   4.402  0.1075  2.2333 -0.5716
 6354SOL     OW19960   6.972   5.610   3.054 -0.3037  0.2969  0.6331
 6354SOL    HW119961   6.955   5.673   2.978 -2.1415 -1.4196 -0.4879
 6354SOL    HW219962   7.069   5.585   3.055 -0.1474  0.7070 -0.8903
 6355SOL     OW19963   4.993   6.545   6.733  0.0410  0.2792 -0.0371
 6355SOL    HW119964   4.920   6.597   6.778  0.6932  1.0966  0.1259
 6355SOL    HW219965   5.072   6.541   6.795 -0.1027 -1.1886  0.0699
 6356SOL     OW19966   6.499   2.237   5.655  0.2985  0.0035 -0.8931
 6356SOL    HW119967   6.553   2.228   5.739  0.7776 -0.6663 -1.2594
 6356SOL    HW219968   6.560   2.251   5.577 -0.1085  0.0725 -1.2053
 6357SOL     OW19969   5.302   1.482   2.580 -0.1122 -0.2286  0.1841
 6357SOL    HW119970   5.387   1.522   2.544  0.0562 -0.9578 -0.2503
 6357SOL    HW219971   5.224   1.519   2.530 -0.1249  0.9641  1.0372
 6358SOL     OW19972   2.019   6.649   4.602  0.1867 -0.3322 -0.0813
 6358SOL    HW119973   2.023   6.702   4.517  0.8573  1.2635  0.9066
 6358SOL    HW219974   1.976   6.560   4.583 -0.4616  0.3136 -1.9055
 6359SOL     OW19975   1.390   5.572   6.387  0.1515  0.0090 -0.1507
 6359SOL    HW119976   1.300   5.544   6.420 -0.0987  1.6065  0.6109
 6359SOL    HW219977   1.382   5.659   6.338  1.4644  0.9251  1.1863
 6360SOL     OW19978   2.358   2.364   6.651 -0.4294  0.0995  0.0414
 6360SOL    HW119979   2.379   2.404   6.740  3.1815  0.1632 -0.6914
 6360SOL    HW219980   2.267   2.393   6.622 -1.1369  1.2287  3.0316
 6361SOL     OW19981   0.471   3.065   4.110 -0.0205 -0.3141 -0.1283
 6361SOL    HW119982   0.492   3.030   4.018  1.8833  0.7007 -0.1347
 6361SOL    HW219983   0.397   3.011   4.150 -1.0410 -0.6556 -2.3248
 6362SOL     OW19984   0.509   6.105   1.006 -0.2820 -0.1956  0.0619
 6362SOL    HW119985   0.602   6.141   1.010 -0.8911  1.4062  3.2054
 6362SOL    HW219986   0.509   6.009   1.034  0.7164 -1.3387 -3.3352
 6363SOL     OW19987   0.818   1.206   1.732  0.6014 -0.3688  0.5584
 6363SOL    HW119988   0.871   1.122   1.740  0.3274 -0.6811 -0.6558
 6363SOL    HW219989   0.759   1.201   1.651  0.2020  0.7817  0.7536
 6364SOL     OW19990   6.463   0.844   3.601 -0.9546  0.0352  0.0878
 6364SOL    HW119991   6.502   0.891   3.522  1.0932  0.3932  1.2399
 6364SOL    HW219992   6.465   0.745   3.584  3.0149 -0.2106  1.0220
 6365SOL     OW19993   6.867   0.225   3.093 -0.2973  0.8010 -0.3874
 6365SOL    HW119994   6.918   0.287   3.033 -0.2341  1.9958  0.8653
 6365SOL    HW219995   6.888   0.246   3.189 -0.6668 -0.8326  0.0913
 6366SOL     OW19996   1.508   2.637   4.371  0.3781  0.1320 -0.2585
 6366SOL    HW119997   1.487   2.597   4.282 -0.2560  1.4257 -0.7229
 6366SOL    HW219998   1.482   2.574   4.444  0.0179 -0.5570 -0.9747
 6367SOL     OW19999   1.357   3.825   4.815  0.0320  0.5986  0.4273
 6367SOL    HW120000   1.301   3.825   4.898 -0.0282  1.3430  0.3956
 6367SOL    HW220001   1.313   3.881   4.745  0.4900  0.6442  0.1732
 6368SOL     OW20002   4.613   2.262   3.937  0.2016 -0.2944  0.1851
 6368SOL    HW120003   4.577   2.353   3.916 -0.6538 -0.7579 -0.4119
 6368SOL    HW220004   4.663   2.265   4.023  0.9074  0.9229 -0.2500
 6369SOL     OW20005   2.945   6.562   2.802  0.6447 -0.2052 -0.7003
 6369SOL    HW120006   2.998   6.549   2.886  0.6701  0.2651 -0.6408
 6369SOL    HW220007   3.008   6.569   2.724  0.6162 -0.7492 -0.7751
 6370SOL     OW20008   5.391   3.313   3.716  0.2610  0.0784 -0.0954
 6370SOL    HW120009   5.369   3.248   3.644 -1.4401  0.1379  0.3363
 6370SOL    HW220010   5.491   3.318   3.728  0.4493 -2.1093 -0.4334
 6371SOL     OW20011   0.282   5.726   6.836 -0.1051 -0.1575  1.0457
 6371SOL    HW120012   0.189   5.749   6.865 -0.3164  0.5924 -0.1587
 6371SOL    HW220013   0.281   5.693   6.742  0.6119 -2.1895  1.6860
 6372SOL     OW20014   5.993   0.987   0.346  0.1458 -0.3915  0.1171
 6372SOL    HW120015   5.936   0.928   0.288  0.4034 -1.1531  0.6276
 6372SOL    HW220016   6.026   0.935   0.424  1.4468  0.0704 -0.0996
 6373SOL     OW20017   5.098   1.038   1.252  0.5516  0.2522 -0.1966
 6373SOL    HW120018   5.102   1.138   1.260 -1.1464  0.3766 -0.4126
 6373SOL    HW220019   5.013   1.013   1.205  0.4992 -1.3354  0.6932
 6374SOL     OW20020   4.060   4.164   7.016 -0.4348 -0.1247 -0.2080
 6374SOL    HW120021   4.142   4.205   7.057 -0.7969 -0.5893  1.0268
 6374SOL    HW220022   3.981   4.186   7.073 -0.8484 -1.4009 -0.2737
 6375SOL     OW20023   4.868   0.956   3.238  0.6612  0.1629  0.2777
 6375SOL    HW120024   4.913   0.917   3.319  0.9202  0.2615  0.1834
 6375SOL    HW220025   4.774   0.921   3.232  0.6279  0.1856  0.6401
 6376SOL     OW20026   2.235   6.082   0.087 -0.2735 -0.0145  0.3862
 6376SOL    HW120027   2.177   6.110   0.163  0.4371 -0.8827  1.2778
 6376SOL    HW220028   2.331   6.103   0.109  0.0018 -0.8083 -0.0113
 6377SOL     OW20029   0.477   2.078   0.018 -0.1649  0.1184  0.6701
 6377SOL    HW120030   0.546   2.099  -0.050 -1.1377 -0.2459 -0.4544
 6377SOL    HW220031   0.430   1.993  -0.006 -0.7707  0.1638  1.6081
 6378SOL     OW20032   0.839   3.996   2.254 -0.3871  0.8438 -0.7373
 6378SOL    HW120033   0.934   4.027   2.246 -0.3318  1.1545  0.7347
 6378SOL    HW220034   0.777   4.070   2.227 -0.2152  0.4715 -2.1809
 6379SOL     OW20035   2.445   3.586   0.124 -0.4294  0.0995  0.8891
 6379SOL    HW120036   2.409   3.599   0.216 -0.7128  0.0224  0.7931
 6379SOL    HW220037   2.522   3.647   0.109  1.9668 -2.3360  2.4153
 6380SOL     OW20038   1.561   1.700   2.768  0.2715 -0.3557 -0.4505
 6380SOL    HW120039   1.648   1.736   2.735 -0.0167  0.5426 -0.2650
 6380SOL    HW220040   1.561   1.700   2.868 -0.0238 -0.1449 -0.4504
 6381SOL     OW20041   3.711   5.615   1.938 -0.5081 -0.0264 -0.0421
 6381SOL    HW120042   3.625   5.597   1.889  0.0560  1.3571 -1.6388
 6381SOL    HW220043   3.716   5.712   1.961 -0.7268 -0.6304  2.8337
 6382SOL     OW20044   2.109   1.187   1.843  0.1194  0.3327  0.4251
 6382SOL    HW120045   2.029   1.245   1.857 -1.2199 -0.7418 -1.9934
 6382SOL    HW220046   2.105   1.147   1.751  1.8225 -2.2346  1.3521
 6383SOL     OW20047   2.919   0.895   2.752  0.0467 -0.1276 -0.0698
 6383SOL    HW120048   2.989   0.860   2.815 -0.0647  0.1309  0.1950
 6383SOL    HW220049   2.902   0.826   2.681 -0.1807 -0.6269  0.4562
 6384SOL     OW20050   6.504   0.902   0.974 -0.7529  0.3620 -0.0944
 6384SOL    HW120051   6.597   0.885   0.941 -1.2619  0.2513 -1.5443
 6384SOL    HW220052   6.506   0.918   1.073  0.7977  0.3459 -0.0995
 6385SOL     OW20053   2.268   3.844   1.794  0.1247  0.0958 -0.5553
 6385SOL    HW120054   2.235   3.858   1.887 -0.2447 -1.8333 -0.3584
 6385SOL    HW220055   2.190   3.829   1.733  0.4282 -0.1664 -0.8871
 6386SOL     OW20056   2.604   3.903   0.336  0.4492 -0.4942  0.0502
 6386SOL    HW120057   2.534   3.864   0.395 -2.5453  2.4549 -1.2193
 6386SOL    HW220058   2.626   3.996   0.366  1.6880 -0.3291 -1.2412
 6387SOL     OW20059   4.545   3.281   5.766  0.2793 -0.5206 -0.0084
 6387SOL    HW120060   4.562   3.222   5.845  0.8991 -0.2834  0.0399
 6387SOL    HW220061   4.581   3.373   5.785  0.6227 -0.5217 -0.6425
 6388SOL     OW20062   4.569   6.379   1.379  0.2378  0.2891 -0.0271
 6388SOL    HW120063   4.637   6.306   1.393  0.0009 -0.0878 -0.8029
 6388SOL    HW220064   4.604   6.464   1.417 -0.0355 -0.4947  2.1324
 6389SOL     OW20065   0.965   0.796   1.221  0.0879 -0.3745 -0.1383
 6389SOL    HW120066   1.034   0.859   1.255  0.0790 -0.7919  0.6853
 6389SOL    HW220067   0.977   0.707   1.265  1.1849 -1.4836 -2.5271
 6390SOL     OW20068   2.328   5.532   6.795  0.4709 -0.0770  0.6560
 6390SOL    HW120069   2.340   5.458   6.862  2.0334  1.6844  2.4453
 6390SOL    HW220070   2.395   5.604   6.813  0.9597  0.5285 -2.8533
 6391SOL     OW20071   1.132   1.785   5.870 -0.1187 -0.2702  0.4058
 6391SOL    HW120072   1.095   1.874   5.843 -3.0540 -0.4913  3.0283
 6391SOL    HW220073   1.078   1.712   5.827 -1.8775 -0.6188  2.9794
 6392SOL     OW20074   6.940   4.549   5.229 -0.1981 -0.3873 -0.6832
 6392SOL    HW120075   7.032   4.508   5.230 -0.7765 -1.7445 -0.4038
 6392SOL    HW220076   6.887   4.508   5.155 -0.5674  0.4214 -0.8698
 6393SOL     OW20077   1.592   2.350   6.221 -0.1516 -0.1632 -0.2837
 6393SOL    HW120078   1.564   2.417   6.290 -1.1565 -2.5361  1.7706
 6393SOL    HW220079   1.689   2.362   6.201 -0.5314  2.5907 -0.8818
 6394SOL     OW20080   0.826   3.714   3.658 -0.0511  0.5759 -0.1901
 6394SOL    HW120081   0.803   3.802   3.700 -0.8790  0.6521 -0.7859
 6394SOL    HW220082   0.758   3.691   3.588  0.5332 -0.2148 -0.5183
 6395SOL     OW20083   1.246   3.951   4.581 -0.2879 -0.3256  0.1434
 6395SOL    HW120084   1.181   4.019   4.615 -1.1244 -0.6963 -0.6560
 6395SOL    HW220085   1.217   3.920   4.490  1.5335  0.1722 -0.6532
 6396SOL     OW20086   1.896   4.092   4.190 -0.4912 -0.6826 -0.7113
 6396SOL    HW120087   1.863   4.003   4.221 -2.2309 -0.0906 -0.7220
 6396SOL    HW220088   1.894   4.096   4.090 -1.7975 -0.1814 -0.6867
 6397SOL     OW20089   0.997   5.044   5.065  0.1287  0.4033 -0.2591
 6397SOL    HW120090   0.910   5.065   5.021  0.5681  0.3143 -1.2102
 6397SOL    HW220091   1.055   5.126   5.066  0.5325  0.1311 -0.8404
 6398SOL     OW20092   6.567   0.748   3.019  0.5038 -0.3731  0.1308
 6398SOL    HW120093   6.475   0.773   3.047  0.3544 -1.5185  0.7154
 6398SOL    HW220094   6.589   0.657   3.053  1.5844 -0.4184 -0.6257
 6399SOL     OW20095   2.702   6.416   5.706 -0.0563 -0.8928 -0.2674
 6399SOL    HW120096   2.684   6.322   5.677 -1.3772  0.0925 -3.0048
 6399SOL    HW220097   2.615   6.466   5.713  0.6456  0.2488  0.7767
 6400SOL     OW20098   2.175   5.724   0.686 -0.0746 -0.3097  0.2819
 6400SOL    HW120099   2.103   5.790   0.707  0.2227 -0.5627  2.3184
 6400SOL    HW220100   2.184   5.659   0.762  1.4560 -1.0470 -0.4836
 6401SOL     OW20101   3.479   4.035   0.380  0.6187  0.0725 -0.0156
 6401SOL    HW120102   3.483   3.995   0.472 -2.8123  0.6846  0.5414
 6401SOL    HW220103   3.513   4.129   0.383 -0.5916  0.5016  0.9532
 6402SOL     OW20104   3.170   3.334   1.344 -0.3216 -0.7070  0.0797
 6402SOL    HW120105   3.199   3.238   1.350 -0.7975 -0.7805  1.6517
 6402SOL    HW220106   3.228   3.390   1.403 -1.3267 -0.3683  0.7805
 6403SOL     OW20107   4.079   6.036   5.715 -0.3530 -0.4460 -0.3232
 6403SOL    HW120108   4.091   5.946   5.758 -1.3896 -0.4109  0.0771
 6403SOL    HW220109   4.168   6.076   5.696  0.1248 -1.8219 -1.0789
 6404SOL     OW20110   3.673   7.006   0.476  0.3515  0.1008  0.0697
 6404SOL    HW120111   3.678   7.053   0.563  2.4112 -0.0118  0.0635
 6404SOL    HW220112   3.762   7.012   0.429  0.3556 -2.6797 -0.4807
 6405SOL     OW20113   3.854   1.755   5.019  0.1225 -0.2704 -0.8064
 6405SOL    HW120114   3.914   1.675   5.027 -0.2801 -0.5225 -0.2224
 6405SOL    HW220115   3.906   1.838   5.035  0.2303 -0.5166  0.2076
 6406SOL     OW20116   6.726   5.220   0.116  0.6790  0.0356  0.3529
 6406SOL    HW120117   6.788   5.203   0.040  0.2399 -0.2621  0.0537
 6406SOL    HW220118   6.777   5.218   0.202  1.2838  0.9358  0.0340
 6407SOL     OW20119   0.163   0.585   2.575  0.5918 -0.6305  0.6297
 6407SOL    HW120120   0.077   0.566   2.527  1.5262 -0.2152 -1.3203
 6407SOL    HW220121   0.239   0.545   2.524  1.8794  1.8218  0.4795
 6408SOL     OW20122   0.344   1.696   5.584 -0.1817 -0.0119  0.0142
 6408SOL    HW120123   0.413   1.645   5.636 -0.0973 -1.3210 -1.3305
 6408SOL    HW220124   0.256   1.648   5.591 -0.2807  0.0695 -0.6306
 6409SOL     OW20125   5.605   4.325   2.784  0.3147  0.2543  0.0097
 6409SOL    HW120126   5.515   4.354   2.817 -1.4636 -2.4184 -2.0245
 6409SOL    HW220127   5.624   4.370   2.696 -0.2756 -1.0770 -0.8257
 6410SOL     OW20128   1.690   0.078   0.855 -0.1035 -0.0975  0.5055
 6410SOL    HW120129   1.591   0.083   0.865 -0.2206 -0.4193 -0.3867
 6410SOL    HW220130   1.731   0.052   0.943 -0.8775 -0.7394  0.6910
 6411SOL     OW20131   6.754   2.192   5.128 -0.1205  0.1900 -0.0627
 6411SOL    HW120132   6.720   2.133   5.055 -1.0599 -1.4568  1.6187
 6411SOL    HW220133   6.778   2.136   5.207  2.4249  1.7524  0.3703
 6412SOL     OW20134   3.212   6.474   6.609 -0.0759 -0.2765  0.3853
 6412SOL    HW120135   3.256   6.407   6.549  1.1084 -0.3131  1.2497
 6412SOL    HW220136   3.279   6.508   6.676 -1.2658 -0.0131  1.4897
 6413SOL     OW20137   5.251   6.037   5.065 -0.0409 -0.2364 -0.1390
 6413SOL    HW120138   5.297   6.052   4.977  0.8791 -1.2513  0.1569
 6413SOL    HW220139   5.159   6.078   5.061  1.1938  2.7162 -0.3865
 6414SOL     OW20140   3.808   4.638   6.483  0.0520 -0.2528 -0.6601
 6414SOL    HW120141   3.751   4.597   6.412 -1.0905  1.0882 -0.5582
 6414SOL    HW220142   3.751   4.668   6.559  1.0099  0.2695 -0.1250
 6415SOL     OW20143   6.362   2.468   4.475 -0.0199  0.1621  1.3270
 6415SOL    HW120144   6.438   2.505   4.528 -1.0521  0.3768  2.7171
 6415SOL    HW220145   6.284   2.450   4.536 -1.2590  0.3968 -0.1191
 6416SOL     OW20146   2.876   5.007   6.422  0.1274  0.1672  0.1331
 6416SOL    HW120147   2.810   4.955   6.476 -0.6706  2.3617  1.3782
 6416SOL    HW220148   2.828   5.061   6.353  0.6112  1.5758  0.8665
 6417SOL     OW20149   4.679   2.211   5.332  0.0086 -0.0602  0.0952
 6417SOL    HW120150   4.667   2.166   5.244  2.0359  1.0590 -0.8111
 6417SOL    HW220151   4.752   2.166   5.384  0.8209  1.0357 -0.0611
 6418SOL     OW20152   3.916   6.114   5.504 -0.4716 -0.8297 -0.1755
 6418SOL    HW120153   3.957   6.081   5.589 -0.5308 -1.1765 -0.2784
 6418SOL    HW220154   3.875   6.037   5.455 -1.4199 -0.4678  0.0198
 6419SOL     OW20155   3.099   0.860   1.017  0.2132 -0.7571  0.6176
 6419SOL    HW120156   3.096   0.860   1.117 -0.1558 -0.0084  0.6096
 6419SOL    HW220157   3.029   0.797   0.982  0.0401 -0.6800  0.8249
 6420SOL     OW20158   2.463   5.371   4.223 -0.0278 -0.4978 -0.1613
 6420SOL    HW120159   2.474   5.409   4.315  0.5803  1.6509 -1.0449
 6420SOL    HW220160   2.460   5.271   4.228  0.2559 -0.4510  2.1440
 6421SOL     OW20161   3.765   5.571   2.543  0.3570 -0.2138  0.4671
 6421SOL    HW120162   3.677   5.526   2.557 -0.7370  2.6082  4.2079
 6421SOL    HW220163   3.760   5.629   2.462 -0.8986 -0.7308  0.1412
 6422SOL     OW20164   1.957   0.154   4.824  0.6480 -0.0168 -0.1112
 6422SOL    HW120165   1.955   0.054   4.825 -1.0693 -0.0333  1.6355
 6422SOL    HW220166   1.931   0.187   4.734 -0.3073 -1.1694 -0.2870
 6423SOL     OW20167   0.976   3.919   3.538  0.0327  0.2287 -0.4105
 6423SOL    HW120168   0.982   3.820   3.533 -0.3432  0.2571 -1.7002
 6423SOL    HW220169   0.941   3.946   3.628  1.4707 -0.7183  0.4700
 6424SOL     OW20170   5.413   3.391   4.865  0.2475 -0.3564 -0.0932
 6424SOL    HW120171   5.501   3.436   4.875 -0.3087  1.1218 -1.4420
 6424SOL    HW220172   5.426   3.295   4.844  1.5137 -0.2944  0.3423
 6425SOL     OW20173   0.484   0.531   5.141 -0.7291  0.3068  0.1919
 6425SOL    HW120174   0.553   0.556   5.072  0.2144  2.4355  1.8073
 6425SOL    HW220175   0.523   0.462   5.203 -0.8278 -0.0507 -0.1383
 6426SOL     OW20176   2.845   6.412   4.444  0.3324  0.4284  0.1445
 6426SOL    HW120177   2.787   6.331   4.435 -0.6117  0.9562  1.2154
 6426SOL    HW220178   2.900   6.423   4.361  0.9862 -1.6719  0.2428
 6427SOL     OW20179   3.505   3.749   3.071 -0.3760 -0.2679 -0.9461
 6427SOL    HW120180   3.524   3.783   2.979 -0.1982  0.9341 -0.4835
 6427SOL    HW220181   3.590   3.751   3.125 -0.5642 -0.5869 -0.6324
 6428SOL     OW20182   6.359   2.038   1.492  0.3600  0.4415  0.3276
 6428SOL    HW120183   6.431   2.105   1.471  0.2823  0.0517 -1.3695
 6428SOL    HW220184   6.275   2.085   1.517 -0.0868  1.0965 -2.1354
 6429SOL     OW20185   3.307   2.060   4.240 -0.1860 -0.3608  0.0879
 6429SOL    HW120186   3.347   2.129   4.300 -0.0224 -0.6495  0.3104
 6429SOL    HW220187   3.296   2.099   4.148  1.6939 -0.6187 -0.2920
 6430SOL     OW20188   6.145   1.636   4.858 -0.2887  0.1672  0.3867
 6430SOL    HW120189   6.141   1.536   4.861  1.4753  0.0710  2.9539
 6430SOL    HW220190   6.063   1.673   4.902 -0.3639 -0.1897  0.5598
 6431SOL     OW20191   3.402   5.832   4.445  0.1958 -0.2245 -0.4170
 6431SOL    HW120192   3.487   5.884   4.446 -1.3511  2.4902  0.8410
 6431SOL    HW220193   3.359   5.841   4.355  0.2656  0.0844 -0.4193
 6432SOL     OW20194   3.374   3.110   0.591 -0.2232 -0.2330  0.1669
 6432SOL    HW120195   3.423   3.048   0.530 -1.8439 -1.0638 -0.3585
 6432SOL    HW220196   3.330   3.058   0.664 -1.1001  0.3440  0.0748
 6433SOL     OW20197   4.767   5.085   6.448  0.1336  0.1579  0.4788
 6433SOL    HW120198   4.819   5.005   6.478  0.9461  0.2998 -0.4896
 6433SOL    HW220199   4.799   5.113   6.358 -2.7358 -0.7249 -0.9100
 6434SOL     OW20200   3.758   6.250   0.631 -0.3874 -0.0040 -1.0351
 6434SOL    HW120201   3.725   6.334   0.675  0.4514  0.7340 -1.7555
 6434SOL    HW220202   3.714   6.171   0.672  0.1674  0.6662  0.9540
 6435SOL     OW20203   5.257   1.950   6.590 -0.3317  0.1748  0.2368
 6435SOL    HW120204   5.276   1.892   6.511  0.8580  0.2113  0.4866
 6435SOL    HW220205   5.183   1.909   6.644  0.6766 -1.2668  0.5610
 6436SOL     OW20206   0.009   1.815   2.828  0.0869 -0.5192  0.5839
 6436SOL    HW120207  -0.039   1.739   2.784  1.0511 -0.9046  0.1629
 6436SOL    HW220208   0.086   1.780   2.881  1.3255  0.2212 -0.6383
 6437SOL     OW20209   0.933   0.953   0.994 -0.1218  0.2435  0.5396
 6437SOL    HW120210   0.965   0.892   1.067 -0.3185 -0.4428  0.0675
 6437SOL    HW220211   0.976   1.042   1.004  0.2737 -0.0093  1.1742
 6438SOL     OW20212   5.797   5.811   1.579 -0.7106  0.1322 -0.4953
 6438SOL    HW120213   5.840   5.786   1.666 -0.5307  1.6688 -0.1191
 6438SOL    HW220214   5.779   5.728   1.526 -2.5066 -1.0639  1.7597
 6439SOL     OW20215   5.682   6.180   4.393  0.2557  0.1871  0.2702
 6439SOL    HW120216   5.600   6.238   4.385  0.7225  0.7444 -0.7118
 6439SOL    HW220217   5.731   6.203   4.477  0.3087  1.0775  0.0135
 6440SOL     OW20218   2.211   1.426   4.496  0.3170  0.3555  0.2668
 6440SOL    HW120219   2.182   1.426   4.400  0.9121 -0.2128  0.0788
 6440SOL    HW220220   2.224   1.520   4.527  0.1740  0.5388 -0.2271
 6441SOL     OW20221   2.247   1.856   1.727 -0.2376  0.0535 -0.5839
 6441SOL    HW120222   2.336   1.832   1.766  0.5875  1.8389 -1.2324
 6441SOL    HW220223   2.179   1.789   1.755  1.3610 -1.5278 -0.3105
 6442SOL     OW20224   3.192   2.062   3.493 -0.1136  0.7784  0.2112
 6442SOL    HW120225   3.172   2.119   3.572  1.2622  1.9930 -0.2771
 6442SOL    HW220226   3.282   2.020   3.504 -1.2898 -1.8350  0.8171
 6443SOL     OW20227   0.177   1.924   0.048  0.0441  0.2612  0.1085
 6443SOL    HW120228   0.164   2.015   0.009 -0.0265  0.0898 -0.2753
 6443SOL    HW220229   0.184   1.857  -0.026 -0.5109 -0.1282  0.4017
 6444SOL     OW20230   6.492   5.949   5.528  0.0379  0.6292 -0.3996
 6444SOL    HW120231   6.448   6.035   5.505  0.1292  0.3458 -1.6767
 6444SOL    HW220232   6.459   5.877   5.467 -0.3157 -0.3351  0.8793
 6445SOL     OW20233   4.082   3.787   4.825 -0.0213 -0.3041  0.1185
 6445SOL    HW120234   4.130   3.725   4.886  1.3891 -0.8104 -1.4227
 6445SOL    HW220235   4.077   3.746   4.734  0.2696  1.5131 -0.7555
 6446SOL     OW20236   5.710   0.442   2.046  0.2422 -0.3516 -0.7854
 6446SOL    HW120237   5.788   0.390   2.013  2.4104  0.7157  2.2302
 6446SOL    HW220238   5.726   0.471   2.141 -2.4109  2.6757 -1.0681
 6447SOL     OW20239   1.850   3.050   2.996 -0.0421  0.2999  0.2809
 6447SOL    HW120240   1.813   3.062   2.904  0.1722 -0.7139  0.0478
 6447SOL    HW220241   1.781   3.075   3.064 -0.2586  0.8895 -0.1537
 6448SOL     OW20242   3.813   4.486   1.068  0.2537 -0.2764 -0.7505
 6448SOL    HW120243   3.888   4.425   1.095 -1.9204 -3.2701 -0.9225
 6448SOL    HW220244   3.726   4.440   1.083 -1.5728  2.6463 -1.5346
 6449SOL     OW20245   4.888   5.594   0.700  0.5449 -0.1043 -0.3459
 6449SOL    HW120246   4.944   5.515   0.727 -0.2977  0.7156  5.0367
 6449SOL    HW220247   4.792   5.574   0.716  0.2412  1.6795  0.3018
 6450SOL     OW20248   4.078   4.617   0.684 -1.1109  0.0873 -0.4016
 6450SOL    HW120249   4.048   4.612   0.588 -2.4599 -0.7006  0.0374
 6450SOL    HW220250   3.998   4.611   0.744 -0.1411 -1.0511  0.8177
 6451SOL     OW20251   4.375   3.754   0.820  0.1334  0.9430  0.3455
 6451SOL    HW120252   4.414   3.664   0.839  0.3338  0.9916  0.1704
 6451SOL    HW220253   4.307   3.747   0.747 -0.3015  0.8334  0.7538
 6452SOL     OW20254   5.987   1.307   4.624  0.4954 -0.6394 -0.6634
 6452SOL    HW120255   6.018   1.389   4.577  1.9057 -0.3690  0.6188
 6452SOL    HW220256   5.942   1.245   4.560 -1.1697  1.3799 -1.5303
 6453SOL     OW20257   3.159   6.374   3.398 -0.2155  0.3952 -0.1850
 6453SOL    HW120258   3.152   6.427   3.482 -2.2855 -0.9528  0.5822
 6453SOL    HW220259   3.237   6.406   3.344 -0.0279  2.6228  1.2819
 6454SOL     OW20260   3.962   5.173   6.337 -0.1886 -0.1792 -0.4721
 6454SOL    HW120261   3.943   5.075   6.345  1.0874 -0.3686  0.7315
 6454SOL    HW220262   3.901   5.224   6.397 -3.5181  0.2326 -3.8167
 6455SOL     OW20263   6.121   2.062   3.301  0.4033 -0.3681 -0.1184
 6455SOL    HW120264   6.087   2.008   3.224  1.3587 -0.5921 -0.4048
 6455SOL    HW220265   6.103   2.159   3.284 -0.6177 -0.5166  0.0318
 6456SOL     OW20266   5.856   2.990   3.986 -0.1146 -0.0658  0.6591
 6456SOL    HW120267   5.766   3.001   3.945  0.0618  3.1842  0.8860
 6456SOL    HW220268   5.914   2.935   3.926 -1.4972 -0.0902 -0.7041
 6457SOL     OW20269   1.732   4.024   1.446  0.0623  0.0287 -0.1700
 6457SOL    HW120270   1.798   4.098   1.454  1.3358 -1.1805  1.2790
 6457SOL    HW220271   1.740   3.982   1.356  2.0631 -0.7415  0.3106
 6458SOL     OW20272   1.626   0.679   4.963 -0.0928  0.0932  0.4162
 6458SOL    HW120273   1.692   0.753   4.948  1.7982 -1.6790 -0.5732
 6458SOL    HW220274   1.542   0.697   4.912  0.5874  1.2300 -0.3344
 6459SOL     OW20275   0.479   2.885   3.554  0.0287 -0.6151 -0.1720
 6459SOL    HW120276   0.435   2.821   3.617  0.7598 -0.8086  0.1454
 6459SOL    HW220277   0.536   2.834   3.489 -0.5753 -0.4047 -0.8881
 6460SOL     OW20278   1.806   6.742   6.642  0.0474  0.5178 -0.3328
 6460SOL    HW120279   1.832   6.821   6.586 -1.2955  2.4122  1.5382
 6460SOL    HW220280   1.846   6.752   6.733 -1.4811 -0.1158  0.4352
 6461SOL     OW20281   5.687   0.189   1.644  0.0224 -0.9456 -0.1188
 6461SOL    HW120282   5.651   0.275   1.680  2.0763 -0.5157  1.1099
 6461SOL    HW220283   5.774   0.206   1.598 -0.2611 -2.1953 -1.1817
 6462SOL     OW20284   3.893   3.977   4.697  0.7372 -0.4437  0.0820
 6462SOL    HW120285   3.966   3.924   4.740  1.4514 -0.4403 -1.1058
 6462SOL    HW220286   3.904   3.976   4.598 -1.2133 -0.9311 -0.1665
 6463SOL     OW20287   4.391   4.977   2.172  0.6740  0.2368  0.1290
 6463SOL    HW120288   4.310   4.961   2.228  1.6069 -2.3269  0.8604
 6463SOL    HW220289   4.457   5.033   2.223  1.4300 -1.8982  1.6139
 6464SOL     OW20290   2.417   5.139   3.259  0.3134 -0.3646 -0.4455
 6464SOL    HW120291   2.406   5.198   3.339  0.3430  0.3782 -0.9701
 6464SOL    HW220292   2.416   5.043   3.287  1.5510 -0.0991  0.6037
 6465SOL     OW20293   4.254   1.363   2.340  0.3846  0.2890  0.2700
 6465SOL    HW120294   4.286   1.317   2.257  1.3671  2.4287 -0.6001
 6465SOL    HW220295   4.225   1.294   2.407 -1.8164 -1.5327 -2.3104
 6466SOL     OW20296   5.988   4.172   0.660  0.0812  1.0844  0.6501
 6466SOL    HW120297   5.896   4.142   0.686  0.6162 -2.0273 -0.5536
 6466SOL    HW220298   6.055   4.114   0.706  1.2909  0.9392 -1.2229
 6467SOL     OW20299   2.677   1.964   5.369  0.4236  0.0861  0.1902
 6467SOL    HW120300   2.719   1.987   5.281 -0.9658  0.0868 -0.5002
 6467SOL    HW220301   2.705   2.030   5.438  0.6969  0.7074 -0.5025
 6468SOL     OW20302   0.339   0.862   6.336  0.0944 -0.5417 -0.2503
 6468SOL    HW120303   0.266   0.840   6.400 -0.8664  0.6586 -0.8834
 6468SOL    HW220304   0.420   0.892   6.387  0.1164 -1.7081  0.4497
 6469SOL     OW20305   4.489   1.125   0.007  0.4333 -0.2785 -0.5421
 6469SOL    HW120306   4.580   1.155   0.036 -0.1929  0.7904  0.4069
 6469SOL    HW220307   4.460   1.047   0.062  0.3700  0.0160 -0.1543
 6470SOL     OW20308   6.182   6.708   0.319  0.3075  0.3370  0.2482
 6470SOL    HW120309   6.221   6.753   0.400  1.2188 -0.5473  0.3054
 6470SOL    HW220310   6.082   6.715   0.324  0.3168 -0.1430  1.7157
 6471SOL     OW20311   6.788   5.344   5.780 -0.3591  0.4856 -0.1307
 6471SOL    HW120312   6.813   5.247   5.786 -0.1659  0.5340 -0.1397
 6471SOL    HW220313   6.720   5.356   5.708  0.6803  0.5588 -1.1291
 6472SOL     OW20314   1.958   1.212   0.552 -0.0866 -0.4832 -0.4451
 6472SOL    HW120315   1.900   1.243   0.627  2.9926  1.3056  1.4462
 6472SOL    HW220316   2.013   1.134   0.584 -0.4495 -1.2930 -1.7315
 6473SOL     OW20317   2.848   2.023   2.901 -0.6144 -0.1073 -0.2081
 6473SOL    HW120318   2.856   2.097   2.967  0.7374  0.4971 -1.0117
 6473SOL    HW220319   2.936   1.977   2.892 -1.6235 -2.5018  0.9969
 6474SOL     OW20320   5.945   1.543   4.019 -0.0885  0.0795  0.2604
 6474SOL    HW120321   6.022   1.516   3.962 -1.1888  1.0693 -1.8120
 6474SOL    HW220322   5.897   1.462   4.052  0.3085 -0.5289 -0.6182
 6475SOL     OW20323   5.527   4.094   2.639 -0.0558 -0.0672 -0.7899
 6475SOL    HW120324   5.536   4.177   2.694  0.7548  1.4053 -2.9776
 6475SOL    HW220325   5.617   4.054   2.625  0.1140  0.8841 -2.8161
 6476SOL     OW20326   4.864   2.701   2.068  0.2808  0.5478 -0.4819
 6476SOL    HW120327   4.930   2.658   2.005  0.2167 -0.2554 -0.0117
 6476SOL    HW220328   4.857   2.798   2.046  1.5711  0.6419 -0.5984
 6477SOL     OW20329   0.278   6.589   1.010 -0.4618 -0.0966  0.5461
 6477SOL    HW120330   0.296   6.660   1.078  1.4983 -0.4886  0.4974
 6477SOL    HW220331   0.273   6.499   1.055  0.2280 -0.2873  0.2508
 6478SOL     OW20332   2.043   0.171   2.478 -0.6653 -0.0985  0.6326
 6478SOL    HW120333   1.953   0.176   2.436 -0.2734  1.4897 -0.0815
 6478SOL    HW220334   2.100   0.247   2.446  0.3459 -0.0222  2.4572
 6479SOL     OW20335   6.206   3.186   4.872 -0.1289 -0.0015  0.2897
 6479SOL    HW120336   6.284   3.127   4.895  0.4753  0.9992  0.9248
 6479SOL    HW220337   6.240   3.269   4.827 -0.9878 -0.2736 -0.8915
 6480SOL     OW20338   1.851   6.408   4.014 -0.2337  0.2096  0.1368
 6480SOL    HW120339   1.927   6.388   3.952 -0.2280  0.4275  0.0718
 6480SOL    HW220340   1.813   6.498   3.992 -1.0647 -0.2599 -0.3861
 6481SOL     OW20341   3.495   3.566   1.210  0.7173  0.6746 -0.5444
 6481SOL    HW120342   3.543   3.572   1.122  2.2545 -1.0790  0.1139
 6481SOL    HW220343   3.559   3.583   1.285 -0.2362  0.6653  0.2913
 6482SOL     OW20344   4.792   2.935   3.454 -0.8974  0.6519  0.0326
 6482SOL    HW120345   4.713   2.962   3.399 -1.7462 -0.9748  0.3757
 6482SOL    HW220346   4.764   2.865   3.520  0.3857  1.5804  1.6407
 6483SOL     OW20347   2.553   0.124   2.697  0.1361 -0.6038 -0.2479
 6483SOL    HW120348   2.573   0.200   2.759  2.3825 -1.2458 -0.0799
 6483SOL    HW220349   2.515   0.048   2.749 -0.8933 -0.0760 -0.2034
 6484SOL     OW20350   1.897   5.625   3.586 -0.1867  0.5053  0.1431
 6484SOL    HW120351   1.823   5.569   3.625  0.0856  0.1878  0.2138
 6484SOL    HW220352   1.901   5.610   3.488 -0.9790  1.4306 -0.0429
 6485SOL     OW20353   0.274   5.972   6.406 -0.5657  0.6049  0.0982
 6485SOL    HW120354   0.336   6.046   6.381  0.2296 -0.2128 -0.4028
 6485SOL    HW220355   0.270   5.964   6.506  1.6372 -0.5194  0.1551
 6486SOL     OW20356   5.809   4.076   2.509  0.6959  0.0928 -0.2361
 6486SOL    HW120357   5.859   3.991   2.489  1.4648  0.3567  0.4958
 6486SOL    HW220358   5.820   4.140   2.433  1.0392 -0.0537 -0.3115
 6487SOL     OW20359   5.629   6.362   5.538  0.3418  0.4214 -0.2572
 6487SOL    HW120360   5.620   6.378   5.636 -1.0386 -0.1571 -0.2629
 6487SOL    HW220361   5.665   6.270   5.522 -2.4194 -0.7751 -0.2458
 6488SOL     OW20362   5.495   5.096   2.863  0.0436 -0.0238  0.3037
 6488SOL    HW120363   5.589   5.127   2.847  0.1002 -0.3562 -0.0136
 6488SOL    HW220364   5.438   5.175   2.887  0.3630  0.2054  0.3284
 6489SOL     OW20365   0.742   4.342   3.926 -0.5102  0.1117 -0.0879
 6489SOL    HW120366   0.751   4.436   3.892 -2.7033 -0.1292 -1.6047
 6489SOL    HW220367   0.725   4.281   3.849 -0.1883 -1.3729  0.9799
 6490SOL     OW20368   2.358   3.801   5.352  0.3490 -0.2527 -0.3022
 6490SOL    HW120369   2.447   3.823   5.391  0.4003  0.8622 -0.9877
 6490SOL    HW220370   2.335   3.869   5.282 -0.2390 -1.5344 -1.4046
 6491SOL     OW20371   6.912   6.399   1.467 -0.0385  0.0718  0.0721
 6491SOL    HW120372   7.000   6.354   1.486  0.0907  0.4534  0.3949
 6491SOL    HW220373   6.885   6.453   1.547  0.2780  1.3195 -0.6429
 6492SOL     OW20374   3.936   3.079   2.121 -0.6924 -0.4112  0.1079
 6492SOL    HW120375   3.883   3.162   2.109 -0.9240 -0.7544 -1.4058
 6492SOL    HW220376   3.884   3.014   2.176 -1.2226 -0.1958 -0.1305
 6493SOL     OW20377   1.436   4.763   2.978 -0.8837  0.3066 -0.9331
 6493SOL    HW120378   1.371   4.804   3.042 -0.8958 -0.5175 -0.3994
 6493SOL    HW220379   1.523   4.748   3.024 -1.1629 -1.1228 -0.8201
 6494SOL     OW20380   6.087   5.931   1.952 -0.1100  0.3044  0.2079
 6494SOL    HW120381   6.097   6.013   2.008 -2.0405  0.4811  0.3763
 6494SOL    HW220382   6.139   5.856   1.991 -1.5183  0.3812  2.3721
 6495SOL     OW20383   1.210   0.368   4.583 -0.5126  0.4245  0.6218
 6495SOL    HW120384   1.266   0.431   4.637  1.1703 -0.5949  0.1485
 6495SOL    HW220385   1.169   0.300   4.643 -0.5975  0.7164  0.8940
 6496SOL     OW20386   4.262   1.841   1.295 -0.2410  0.7569  0.2819
 6496SOL    HW120387   4.195   1.788   1.347  1.4286 -1.8349 -0.0239
 6496SOL    HW220388   4.338   1.866   1.354 -0.2604  1.4092  0.0348
 6497SOL     OW20389   4.824   1.762   0.593 -0.2166  0.3417  0.3077
 6497SOL    HW120390   4.923   1.777   0.595  0.0112 -0.9455  2.2622
 6497SOL    HW220391   4.803   1.678   0.643 -2.2556  0.2213 -0.6702
 6498SOL     OW20392   2.486   6.565   2.653  0.2950  0.1924  0.4670
 6498SOL    HW120393   2.534   6.645   2.689  1.8838 -0.9093  0.8918
 6498SOL    HW220394   2.529   6.481   2.687 -0.6105 -0.8764 -0.8700
 6499SOL     OW20395   4.043   0.700   2.475  0.3770 -0.2034  0.2114
 6499SOL    HW120396   4.017   0.668   2.566 -0.9598  0.6352  0.1483
 6499SOL    HW220397   4.122   0.648   2.443  0.1751 -1.2792  1.3792
 6500SOL     OW20398   1.434   4.230   1.453 -0.1635  0.3087 -0.2328
 6500SOL    HW120399   1.532   4.249   1.444 -0.3085  0.4259 -1.7407
 6500SOL    HW220400   1.389   4.244   1.365 -1.5749  0.4213  0.4894
 6501SOL     OW20401   0.069   0.476   2.048  0.2373  0.3068  0.2198
 6501SOL    HW120402   0.019   0.490   1.963  1.5985 -0.9598 -0.8508
 6501SOL    HW220403   0.041   0.388   2.089  3.0065 -1.5856 -1.5812
 6502SOL     OW20404   1.081   1.582   2.646 -0.3155 -0.0269 -0.2741
 6502SOL    HW120405   1.035   1.670   2.653  1.5490  0.9102  0.8605
 6502SOL    HW220406   1.040   1.529   2.572 -0.0939  2.6429 -2.4793
 6503SOL     OW20407   6.735   2.671   5.600  0.5305 -0.0285  0.1236
 6503SOL    HW120408   6.763   2.578   5.621  1.3367  0.0294 -0.6436
 6503SOL    HW220409   6.670   2.703   5.669 -1.6764 -2.0254 -0.8829
 6504SOL     OW20410   4.214   5.928   4.387 -0.9290  0.0715 -0.8247
 6504SOL    HW120411   4.223   6.003   4.453 -0.7336 -1.2596  0.7284
 6504SOL    HW220412   4.118   5.916   4.363 -1.3059 -0.8842  1.0294
 6505SOL     OW20413   1.249   1.090   0.925  0.3810 -0.0157  0.0378
 6505SOL    HW120414   1.308   1.100   1.005  0.2596  0.7819  0.0373
 6505SOL    HW220415   1.167   1.146   0.938  1.1657  1.5790 -1.3827
 6506SOL     OW20416   2.554   5.373   0.939 -0.6243  0.8150 -0.1758
 6506SOL    HW120417   2.490   5.403   1.010  3.2017  1.7992  3.2439
 6506SOL    HW220418   2.536   5.277   0.916 -2.2452  0.5504  1.9345
 6507SOL     OW20419   5.563   6.238   0.468 -0.0013 -0.3935 -0.7040
 6507SOL    HW120420   5.478   6.243   0.521  0.5044  1.6302  0.0151
 6507SOL    HW220421   5.552   6.172   0.394 -1.5999 -1.4351  0.3995
 6508SOL     OW20422   5.974   1.188   3.472  0.1294  0.2495  0.1226
 6508SOL    HW120423   6.027   1.153   3.549 -0.2199  0.4786  0.4740
 6508SOL    HW220424   6.035   1.237   3.410  0.4639 -0.1899  0.0964
 6509SOL     OW20425   3.077   0.455   0.119  0.3568 -0.9556 -0.2402
 6509SOL    HW120426   3.067   0.493   0.211 -0.3174  0.5765 -0.9107
 6509SOL    HW220427   3.165   0.408   0.111  0.6124 -0.7217  1.0450
 6510SOL     OW20428   4.379   5.790   4.218  0.0771 -0.2750 -0.1412
 6510SOL    HW120429   4.402   5.846   4.138 -3.7891 -1.3526 -2.2696
 6510SOL    HW220430   4.311   5.838   4.274  0.0304 -1.0127  0.4514
 6511SOL     OW20431   4.301   3.535   5.982  0.2338 -0.2490 -0.3441
 6511SOL    HW120432   4.329   3.580   5.897  0.3737 -0.6361 -0.5003
 6511SOL    HW220433   4.259   3.603   6.043 -1.2386 -0.2303 -1.3240
 6512SOL     OW20434   6.943   1.012   1.999  0.0428 -0.4521 -0.1220
 6512SOL    HW120435   6.944   0.945   2.073 -0.1914 -0.2604  0.0563
 6512SOL    HW220436   6.858   1.004   1.948 -1.1167  1.2960  1.3790
 6513SOL     OW20437   2.276   4.441   0.524 -0.1218 -0.2943 -0.1807
 6513SOL    HW120438   2.190   4.405   0.559  0.0560 -0.0665  0.5069
 6513SOL    HW220439   2.345   4.368   0.521  0.1722 -0.0866  0.9913
 6514SOL     OW20440   4.827   5.104   6.155  0.5203  0.1273 -0.0251
 6514SOL    HW120441   4.738   5.135   6.123 -0.7049  0.5124  3.3919
 6514SOL    HW220442   4.861   5.031   6.095 -2.0912 -0.0545 -1.3938
 6515SOL     OW20443   1.584   3.866   2.065 -0.3374  0.0510 -0.4115
 6515SOL    HW120444   1.601   3.928   1.988 -1.8568 -0.3720 -1.1146
 6515SOL    HW220445   1.489   3.875   2.094  0.0566 -0.2624  1.0259
 6516SOL     OW20446   5.685   1.890   4.161 -0.2755  0.1498  0.0982
 6516SOL    HW120447   5.610   1.946   4.128 -0.9560  0.1537  1.5755
 6516SOL    HW220448   5.651   1.799   4.187  1.0496 -1.6677 -3.7762
 6517SOL     OW20449   6.321   6.328   0.076  0.2224 -0.4553  0.4918
 6517SOL    HW120450   6.377   6.332  -0.007  1.0550 -1.6135  0.9840
 6517SOL    HW220451   6.352   6.398   0.141 -1.1842  1.2750 -0.5685
 6518SOL     OW20452   0.800   1.529   3.632  0.1796 -0.4890  0.0465
 6518SOL    HW120453   0.747   1.600   3.678  0.2766 -0.7807  0.6163
 6518SOL    HW220454   0.859   1.570   3.563 -0.0732 -0.0634  0.0845
 6519SOL     OW20455   2.371   1.659   3.271 -0.4344 -0.7534  0.3999
 6519SOL    HW120456   2.416   1.626   3.189 -3.0622 -4.2741  0.1704
 6519SOL    HW220457   2.358   1.758   3.264 -1.7866 -1.0367 -4.1043
 6520SOL     OW20458   4.954   5.900   0.389 -0.1958  0.2893  0.8602
 6520SOL    HW120459   5.038   5.854   0.417 -0.1857 -0.3011 -0.0970
 6520SOL    HW220460   4.950   5.990   0.431  2.3299  1.5331 -1.3057
 6521SOL     OW20461   2.019   4.690   3.960  0.1374 -0.5550 -0.3112
 6521SOL    HW120462   1.997   4.757   3.889 -1.7432 -0.8040 -0.0170
 6521SOL    HW220463   1.986   4.600   3.933  2.2489 -1.3362 -0.4971
 6522SOL     OW20464   1.519   2.930   6.815 -0.0852  0.7081 -0.0057
 6522SOL    HW120465   1.496   2.833   6.816  2.7463 -0.0535  0.0234
 6522SOL    HW220466   1.513   2.966   6.909  0.8287  0.0080  0.3372
 6523SOL     OW20467   3.429   6.153   0.148  0.4715  0.0622  0.5796
 6523SOL    HW120468   3.453   6.056   0.139 -0.0054  0.0817 -1.2657
 6523SOL    HW220469   3.505   6.202   0.192  1.8583 -0.7065 -0.8661
 6524SOL     OW20470   3.723   1.587   1.819 -0.0336 -0.3634  0.2880
 6524SOL    HW120471   3.787   1.641   1.874  2.4587 -1.2155 -1.5742
 6524SOL    HW220472   3.662   1.648   1.769  1.7864  0.7350 -0.7093
 6525SOL     OW20473   3.421   5.319   3.726  0.0159 -0.0862  0.1080
 6525SOL    HW120474   3.336   5.276   3.755 -0.3249  0.8028  0.4479
 6525SOL    HW220475   3.429   5.312   3.626 -0.1825 -0.6485  0.1260
 6526SOL     OW20476   5.802   5.156   6.835  0.4212  0.2332 -0.5767
 6526SOL    HW120477   5.848   5.243   6.851  2.5703 -0.1721 -3.6317
 6526SOL    HW220478   5.778   5.148   6.738 -0.4014 -2.2745 -0.2475
 6527SOL     OW20479   6.199   1.200   6.923 -0.0539  0.7417  0.3672
 6527SOL    HW120480   6.196   1.159   7.014  1.0085  0.1161  0.1244
 6527SOL    HW220481   6.135   1.152   6.863  1.4274 -0.8275 -0.0100
 6528SOL     OW20482   4.468   0.525   6.217 -0.1234 -0.3918  0.4872
 6528SOL    HW120483   4.429   0.433   6.205  2.5163 -1.3271 -2.0376
 6528SOL    HW220484   4.493   0.562   6.128  0.1427  2.2836  1.5815
 6529SOL     OW20485   3.074   6.009   1.683  0.1010 -0.0725  0.5104
 6529SOL    HW120486   3.103   6.098   1.648 -1.9519  1.0806  1.5538
 6529SOL    HW220487   3.015   5.965   1.616  0.4972 -0.3162  0.3169
 6530SOL     OW20488   1.551   4.348   3.731 -0.2372  0.3764  0.2022
 6530SOL    HW120489   1.494   4.266   3.726  1.5872 -0.8726 -2.1922
 6530SOL    HW220490   1.581   4.361   3.826 -1.0069 -1.3916  0.7505
 6531SOL     OW20491   4.045   3.858   2.069  0.5436 -0.1839 -0.3798
 6531SOL    HW120492   4.067   3.766   2.100 -1.5187 -0.4569  0.4651
 6531SOL    HW220493   4.011   3.912   2.146 -1.1570  0.2968 -1.4137
 6532SOL     OW20494   0.998   6.267   5.386 -0.3794  0.1364 -0.0009
 6532SOL    HW120495   0.983   6.243   5.289 -0.1787 -0.6344  0.1504
 6532SOL    HW220496   0.928   6.221   5.442 -0.1181  0.0813  0.2782
 6533SOL     OW20497   2.073   5.815   6.204 -0.1844  0.6124 -0.2117
 6533SOL    HW120498   2.140   5.778   6.268 -0.9894 -1.8668 -0.6964
 6533SOL    HW220499   2.055   5.911   6.226  1.0898  0.4119  1.9438
 6534SOL     OW20500   5.184   2.926   5.686 -0.1874  0.4391 -0.0821
 6534SOL    HW120501   5.156   2.835   5.656  0.7512  1.0143 -2.9955
 6534SOL    HW220502   5.278   2.922   5.721 -0.3686  0.2132  0.3943
 6535SOL     OW20503   6.557   3.388   6.845  0.3487 -0.2365 -0.1683
 6535SOL    HW120504   6.599   3.416   6.931 -1.5435  1.2220  0.3520
 6535SOL    HW220505   6.545   3.289   6.844 -0.1481 -0.2231  1.5277
 6536SOL     OW20506   6.843   6.577   6.212  0.1662 -0.0537 -0.3836
 6536SOL    HW120507   6.927   6.553   6.259 -1.4288  0.2876  2.9530
 6536SOL    HW220508   6.773   6.508   6.230 -0.9482  0.8570 -1.0405
 6537SOL     OW20509   1.090   4.588   3.476 -0.3197 -0.5741  0.3094
 6537SOL    HW120510   1.144   4.522   3.527 -0.0201  0.5626  1.5192
 6537SOL    HW220511   1.076   4.670   3.532  0.3020  0.8707 -1.5405
 6538SOL     OW20512   2.322   5.218   4.912 -0.5544 -0.5526 -0.1184
 6538SOL    HW120513   2.280   5.240   5.000 -1.0872  0.1499 -0.5405
 6538SOL    HW220514   2.361   5.126   4.916  0.3029 -0.1733  1.1674
 6539SOL     OW20515   6.334   6.844   5.908 -0.0542 -0.3714  0.2585
 6539SOL    HW120516   6.276   6.876   5.833  0.9975 -1.3884 -1.0251
 6539SOL    HW220517   6.276   6.807   5.981 -1.0540 -0.6882 -0.6734
 6540SOL     OW20518   1.033   4.012   5.165 -0.2356  0.4216 -0.2815
 6540SOL    HW120519   0.994   4.036   5.076 -2.1213 -0.3908  0.2704
 6540SOL    HW220520   1.028   4.090   5.227  0.7897  0.8902 -0.7608
 6541SOL     OW20521   2.063   0.786   0.359  0.3840 -0.1331 -0.5617
 6541SOL    HW120522   2.045   0.689   0.377  1.2761 -0.3338 -0.6932
 6541SOL    HW220523   2.110   0.826   0.438  1.5556 -0.2494 -1.1766
 6542SOL     OW20524   1.987   5.286   3.991  0.2964 -0.2130  0.2022
 6542SOL    HW120525   1.937   5.202   4.014  0.4470 -0.6208 -0.9359
 6542SOL    HW220526   2.073   5.289   4.043 -0.0721 -0.3723  0.8299
 6543SOL     OW20527   4.428   2.402   3.419 -0.2041 -0.2137  0.1869
 6543SOL    HW120528   4.443   2.399   3.320 -0.0481 -0.4056  0.2138
 6543SOL    HW220529   4.509   2.441   3.463  0.2051 -1.1859  0.3287
 6544SOL     OW20530   6.875   1.911   1.376  0.1382 -0.0364  0.2491
 6544SOL    HW120531   6.844   1.830   1.326 -0.0764  1.6244 -2.4456
 6544SOL    HW220532   6.808   1.934   1.446 -0.2317 -1.6306  0.4708
 6545SOL     OW20533   5.591   3.878   0.799 -0.3102  0.1849  0.1950
 6545SOL    HW120534   5.552   3.826   0.723 -0.7372 -0.5787  0.9124
 6545SOL    HW220535   5.535   3.863   0.881  0.3415  0.7099  0.7425
 6546SOL     OW20536   5.011   6.861   5.701 -0.1976  0.0769 -0.1974
 6546SOL    HW120537   5.111   6.856   5.698 -0.2270 -0.4502 -0.2877
 6546SOL    HW220538   4.972   6.797   5.635 -0.6350 -1.7461  1.7219
 6547SOL     OW20539   0.847   6.867   4.097  0.3248 -0.5335 -0.1745
 6547SOL    HW120540   0.835   6.769   4.086  0.0072 -0.4345 -0.8079
 6547SOL    HW220541   0.924   6.886   4.157 -0.2994 -1.1774  0.8489
 6548SOL     OW20542   2.204   0.858   6.429  0.0921  0.0619 -0.0164
 6548SOL    HW120543   2.159   0.885   6.344 -0.9272  0.0521  0.5085
 6548SOL    HW220544   2.280   0.920   6.447  0.4571 -0.0628 -1.0371
 6549SOL     OW20545   2.475   2.044   0.778 -0.3259  0.4166  0.1202
 6549SOL    HW120546   2.434   2.043   0.869  2.0369  0.3325  1.2468
 6549SOL    HW220547   2.508   1.952   0.755  0.3814  0.7423 -0.1967
 6550SOL     OW20548   6.404   5.525   2.575 -0.4731 -0.7539 -0.3466
 6550SOL    HW120549   6.326   5.572   2.535 -0.6417  0.0269  0.8399
 6550SOL    HW220550   6.482   5.588   2.580 -0.9109 -0.2928  1.9035
 6551SOL     OW20551   2.409   5.165   1.966 -0.3134 -0.1009  0.3115
 6551SOL    HW120552   2.376   5.258   1.951  2.6749  1.1957  0.9880
 6551SOL    HW220553   2.369   5.128   2.049  0.2055  1.5412  1.3302
 6552SOL     OW20554   2.158   2.325   6.408 -0.5127  0.0196  0.2414
 6552SOL    HW120555   2.186   2.250   6.347  1.0739 -0.3879  1.4191
 6552SOL    HW220556   2.213   2.406   6.388 -0.0426 -0.0909  1.0453
 6553SOL     OW20557   1.640   2.310   2.668 -0.2488  0.2697  0.3493
 6553SOL    HW120558   1.656   2.278   2.761 -1.4662 -1.0264  0.1442
 6553SOL    HW220559   1.556   2.365   2.667 -0.7299 -0.4579 -0.1182
 6554SOL     OW20560   3.074   2.139   4.443 -0.3224 -0.1359 -0.2153
 6554SOL    HW120561   2.986   2.091   4.445 -1.0638  1.1995  0.1926
 6554SOL    HW220562   3.128   2.104   4.366 -0.2327 -2.6042  0.8800
 6555SOL     OW20563   3.248   3.605   1.456 -0.0981  0.4468 -0.2887
 6555SOL    HW120564   3.286   3.654   1.377  0.4815 -0.3626 -0.5303
 6555SOL    HW220565   3.177   3.660   1.499  0.4487  1.4360 -0.6298
 6556SOL     OW20566   6.150   2.242   2.725 -0.5215 -0.1058 -0.1262
 6556SOL    HW120567   6.099   2.214   2.644 -1.6407  0.1810  0.4615
 6556SOL    HW220568   6.248   2.238   2.706 -0.7555 -0.6690 -1.2761
 6557SOL     OW20569   1.230   1.909   1.604 -0.1396 -0.0876 -0.6425
 6557SOL    HW120570   1.228   1.940   1.699 -0.8724 -0.6814 -0.4592
 6557SOL    HW220571   1.268   1.817   1.599  1.9755  0.7480 -1.1812
 6558SOL     OW20572   5.618   5.755   6.170 -0.2196 -0.2256  1.0410
 6558SOL    HW120573   5.547   5.805   6.220 -0.5282  0.0766  0.3225
 6558SOL    HW220574   5.657   5.814   6.100  1.0461 -0.2543  1.6926
 6559SOL     OW20575   0.012   1.663   5.048 -0.7845 -0.2821  0.2934
 6559SOL    HW120576   0.033   1.704   5.136  1.6852 -0.9174  0.0551
 6559SOL    HW220577  -0.049   1.584   5.062 -0.8451 -0.0538  1.3676
 6560SOL     OW20578   6.133   4.169   5.872 -0.0446  0.2572  0.4450
 6560SOL    HW120579   6.072   4.098   5.836  0.3549  0.4485 -0.6494
 6560SOL    HW220580   6.089   4.214   5.949 -0.4367 -0.9590  0.9677
 6561SOL     OW20581   2.286   4.806   6.382  0.0911 -0.6718 -0.2957
 6561SOL    HW120582   2.211   4.817   6.447  2.0281 -2.1014  2.3934
 6561SOL    HW220583   2.373   4.822   6.428  1.6537 -2.7107 -2.2815
 6562SOL     OW20584   4.068   3.810   0.113  0.5051  1.1015  0.1941
 6562SOL    HW120585   4.119   3.724   0.111 -0.6829  0.3287  1.6501
 6562SOL    HW220586   3.996   3.808   0.043 -0.5713  0.1955  1.2829
 6563SOL     OW20587   3.734   4.418   6.780  0.4652  0.3491 -0.4952
 6563SOL    HW120588   3.821   4.372   6.796 -0.8824 -1.4360  2.6605
 6563SOL    HW220589   3.676   4.361   6.723  0.3058  0.0549 -0.0506
 6564SOL     OW20590   4.950   4.724   1.147  0.0838 -0.4122 -0.1358
 6564SOL    HW120591   4.946   4.822   1.130 -0.8295 -0.5637 -0.9300
 6564SOL    HW220592   4.922   4.675   1.064  0.7992 -1.3496  0.1607
 6565SOL     OW20593   5.387   3.766   1.470 -0.1924  0.5342 -0.5147
 6565SOL    HW120594   5.403   3.730   1.562 -0.8576  0.9010 -0.2499
 6565SOL    HW220595   5.335   3.851   1.475 -1.3740 -0.1175 -1.2916
 6566SOL     OW20596   5.883   5.287   5.548  0.2548  0.2985  0.3655
 6566SOL    HW120597   5.893   5.198   5.593  0.8573  0.0306 -0.2772
 6566SOL    HW220598   5.797   5.329   5.575  0.2570 -0.1991  1.1662
 6567SOL     OW20599   0.707   0.166   2.259  0.2176  0.1242 -0.1115
 6567SOL    HW120600   0.786   0.211   2.300  1.1968 -0.5223 -1.2472
 6567SOL    HW220601   0.692   0.202   2.167 -1.5496  1.0801  0.4959
 6568SOL     OW20602   4.385   0.499   2.641 -0.0734 -0.1660  0.5145
 6568SOL    HW120603   4.426   0.452   2.563  0.9878  0.3212  0.7675
 6568SOL    HW220604   4.337   0.432   2.698 -1.2191 -0.4776 -0.7449
 6569SOL     OW20605   1.111   3.164   3.439  0.0504  0.1792  0.8881
 6569SOL    HW120606   1.187   3.157   3.504  0.6120  0.2073  0.2376
 6569SOL    HW220607   1.070   3.074   3.427  0.4871  0.0096  0.6416
 6570SOL     OW20608   4.927   1.027   1.963  0.1858 -0.3703 -0.6430
 6570SOL    HW120609   4.872   0.978   2.031  0.9915  0.9101  1.0296
 6570SOL    HW220610   4.903   0.996   1.871 -0.5232 -2.6178  0.2403
 6571SOL     OW20611   1.069   0.430   1.682 -0.1463 -0.3219 -0.3781
 6571SOL    HW120612   1.041   0.525   1.668 -0.9220 -0.4957 -0.0619
 6571SOL    HW220613   1.038   0.398   1.771 -0.5387 -1.1005 -0.7768
 6572SOL     OW20614   6.085   6.015   2.566 -0.0820 -0.0260 -0.0075
 6572SOL    HW120615   6.184   6.002   2.569  0.1031  1.1285  3.3915
 6572SOL    HW220616   6.040   5.930   2.593  0.1045  0.0113  0.4403
 6573SOL     OW20617   6.706   1.719   4.026  0.5232  0.4979 -0.1979
 6573SOL    HW120618   6.801   1.723   4.059  0.9177 -0.1377 -1.2173
 6573SOL    HW220619   6.701   1.659   3.946 -0.6376  0.9918 -0.5147
 6574SOL     OW20620   3.057   5.740   1.495 -0.0020 -0.1146 -0.1023
 6574SOL    HW120621   2.980   5.689   1.533 -0.6670  0.4181 -0.6996
 6574SOL    HW220622   3.078   5.704   1.404 -0.4616  0.6360 -0.5178
 6575SOL     OW20623   0.492   0.741   6.145  0.1832  0.1531 -0.6879
 6575SOL    HW120624   0.455   0.751   6.052 -1.0230  1.0660 -0.1382
 6575SOL    HW220625   0.454   0.812   6.204  1.3560 -0.0839  0.3901
 6576SOL     OW20626   5.259   0.279   3.950  0.3627 -0.1249  0.1435
 6576SOL    HW120627   5.310   0.211   3.898 -1.1362 -0.1165 -1.4154
 6576SOL    HW220628   5.293   0.370   3.928  0.8783 -0.2270  0.5101
 6577SOL     OW20629   3.528   6.181   6.801  0.3018  0.1820 -0.1376
 6577SOL    HW120630   3.533   6.185   6.701 -0.6645 -0.5273 -0.2240
 6577SOL    HW220631   3.514   6.273   6.837  2.0560  0.6508 -0.5486
 6578SOL     OW20632   2.394   6.829   6.252  0.3507 -0.1166 -0.1103
 6578SOL    HW120633   2.348   6.795   6.170  1.4974 -1.3190 -0.2927
 6578SOL    HW220634   2.407   6.928   6.244 -0.8037  0.0059 -0.7314
 6579SOL     OW20635   5.213   2.779   3.852  0.3212 -0.5449 -0.1132
 6579SOL    HW120636   5.288   2.715   3.869  0.8799 -0.3732 -1.7548
 6579SOL    HW220637   5.250   2.872   3.849 -0.0491 -0.4048 -0.3720
 6580SOL     OW20638   4.139   2.594   6.146 -0.2429 -0.3153  0.0721
 6580SOL    HW120639   4.129   2.641   6.234 -1.8492  1.3731 -0.9284
 6580SOL    HW220640   4.144   2.495   6.161 -1.4074 -0.1258  2.0128
 6581SOL     OW20641   1.085   2.857   2.135 -0.1241 -0.0891  0.1219
 6581SOL    HW120642   1.018   2.812   2.076  0.5906 -1.4603  0.3350
 6581SOL    HW220643   1.038   2.913   2.203 -1.0977 -1.5321  0.6808
 6582SOL     OW20644   1.988   5.677   2.951 -0.7284 -0.1675 -0.2325
 6582SOL    HW120645   1.907   5.732   2.931 -0.9387 -0.1642  0.5904
 6582SOL    HW220646   1.960   5.589   2.988 -0.4049 -1.0001 -1.8575
 6583SOL     OW20647   1.501   3.233   1.062 -0.1941 -0.3043 -0.5080
 6583SOL    HW120648   1.545   3.147   1.087 -0.0450 -0.8638 -2.5716
 6583SOL    HW220649   1.414   3.242   1.111  0.6849 -0.6768  1.1971
 6584SOL     OW20650   6.227   4.349   6.891 -0.4245 -0.3275 -0.5422
 6584SOL    HW120651   6.317   4.324   6.926 -1.1923  0.5593  2.4209
 6584SOL    HW220652   6.163   4.360   6.968 -1.6274  4.6835 -1.8334
 6585SOL     OW20653   4.230   6.342   1.879  0.0323  0.0645  0.0826
 6585SOL    HW120654   4.311   6.287   1.901  0.5538  0.6575 -0.2883
 6585SOL    HW220655   4.257   6.418   1.820 -0.7572  0.4269  0.1700
 6586SOL     OW20656   0.076   3.854   0.236 -0.4479  0.4700 -0.0366
 6586SOL    HW120657   0.094   3.922   0.165 -0.3873  0.8059  0.3034
 6586SOL    HW220658   0.141   3.778   0.227  1.3595  1.7824  1.3471
 6587SOL     OW20659   2.867   3.605   4.800  0.1264  0.0808 -0.5945
 6587SOL    HW120660   2.934   3.674   4.771  0.0634 -0.1059 -1.2084
 6587SOL    HW220661   2.856   3.537   4.727 -1.4197  0.6276 -0.9045
 6588SOL     OW20662   0.717   2.054   6.836 -0.2834  0.7341 -0.2864
 6588SOL    HW120663   0.657   2.078   6.760 -1.6146 -1.3411  0.0296
 6588SOL    HW220664   0.811   2.083   6.815 -0.7828  1.0371 -2.2911
 6589SOL     OW20665   5.640   0.595   0.650  0.5675 -0.3629  0.6153
 6589SOL    HW120666   5.589   0.531   0.592  1.2584  1.5186 -2.2713
 6589SOL    HW220667   5.722   0.551   0.685  0.1716 -1.5539  0.0816
 6590SOL     OW20668   6.316   4.997   5.467 -0.5509 -0.4398  0.7303
 6590SOL    HW120669   6.268   4.932   5.409  0.3875 -0.5596  0.0664
 6590SOL    HW220670   6.272   5.001   5.557 -1.0644 -1.4195  0.5307
 6591SOL     OW20671   4.699   1.870   2.526  0.0516  0.1946  0.2546
 6591SOL    HW120672   4.730   1.884   2.432 -1.0424  0.5219 -0.0699
 6591SOL    HW220673   4.760   1.805   2.571  0.3326 -0.3113 -0.8141
 6592SOL     OW20674   6.737   0.331   5.128 -0.7336  0.2465 -0.6484
 6592SOL    HW120675   6.836   0.341   5.137 -0.7032 -0.7615  0.3402
 6592SOL    HW220676   6.714   0.234   5.128 -1.9108  0.4708  1.4721
 6593SOL     OW20677   6.764   5.800   4.479  0.5242  1.3116 -0.3877
 6593SOL    HW120678   6.837   5.733   4.474  0.6919  1.1249  2.5370
 6593SOL    HW220679   6.795   5.880   4.531 -1.0631  1.5446  0.2913
 6594SOL     OW20680   4.368   6.839   5.388 -0.0868  0.0968  0.4941
 6594SOL    HW120681   4.325   6.819   5.476  0.4696 -1.7393  0.4006
 6594SOL    HW220682   4.459   6.798   5.385  1.4240  3.2242  0.3741
 6595SOL     OW20683   0.790   4.831   4.736  0.6096  0.2138  0.8399
 6595SOL    HW120684   0.770   4.735   4.716 -1.5175  0.9610 -1.1808
 6595SOL    HW220685   0.885   4.851   4.713  1.3235 -1.5359  2.0383
 6596SOL     OW20686   4.210   5.785   3.264  0.2331 -0.2744  0.4008
 6596SOL    HW120687   4.211   5.860   3.329 -1.1060 -1.0620  1.3670
 6596SOL    HW220688   4.283   5.720   3.287  1.1921  0.5295 -0.2518
 6597SOL     OW20689   1.350   5.693   2.116 -0.1581  0.2696 -0.1136
 6597SOL    HW120690   1.423   5.630   2.091 -0.0388 -0.1528  1.2112
 6597SOL    HW220691   1.269   5.673   2.062  1.4902  2.7171 -3.9257
 6598SOL     OW20692   1.097   6.890   1.227  0.6847 -0.2457  0.2524
 6598SOL    HW120693   1.160   6.814   1.211  1.2200  0.4985 -1.4591
 6598SOL    HW220694   1.049   6.913   1.142  0.5989  1.3728  0.6879
 6599SOL     OW20695   6.423   6.534   6.681 -0.1057  0.7614 -0.1699
 6599SOL    HW120696   6.352   6.575   6.624  0.6747  0.9221 -1.0518
 6599SOL    HW220697   6.446   6.443   6.646 -0.0143  0.6321  0.2215
 6600SOL     OW20698   5.320   1.490   3.888 -0.1128  0.0296  0.3025
 6600SOL    HW120699   5.356   1.461   3.800 -1.9621 -0.2626 -0.4031
 6600SOL    HW220700   5.250   1.560   3.874 -0.3698  0.0519  1.5448
 6601SOL     OW20701   6.113   1.072   4.007 -0.0170 -0.7801 -0.0669
 6601SOL    HW120702   6.184   1.123   3.958 -0.2521  0.0672  0.4473
 6601SOL    HW220703   6.025   1.119   3.997  0.1580  0.1787  2.2290
 6602SOL     OW20704   0.027   0.218   6.540 -0.2856 -0.7295  0.6945
 6602SOL    HW120705   0.039   0.250   6.446 -0.5349  0.1296  0.9470
 6602SOL    HW220706   0.115   0.219   6.587 -0.2359 -0.7371  0.6023
 6603SOL     OW20707   0.620   3.770   2.279  0.1546 -0.7520  0.3013
 6603SOL    HW120708   0.580   3.786   2.370 -0.3510  0.8064 -0.1507
 6603SOL    HW220709   0.688   3.841   2.261 -0.3741 -0.5285 -0.8714
 6604SOL     OW20710   2.682   5.296   3.787 -0.0536 -0.4274  0.4157
 6604SOL    HW120711   2.768   5.266   3.827  0.7961 -0.6000 -1.4413
 6604SOL    HW220712   2.696   5.319   3.691 -1.5001  2.1134  0.7098
 6605SOL     OW20713   2.043   6.129   0.271  0.2164 -0.0552 -0.6915
 6605SOL    HW120714   2.104   6.095   0.343  1.8143  2.8177 -0.5009
 6605SOL    HW220715   1.948   6.123   0.301  0.7589 -0.1804  1.1231
 6606SOL     OW20716   1.089   4.750   3.201 -0.5341  0.0488  0.6062
 6606SOL    HW120717   1.003   4.785   3.240 -0.6408  0.9513 -0.3814
 6606SOL    HW220718   1.068   4.691   3.123 -0.2995 -1.1481  1.4236
 6607SOL     OW20719   0.829   3.547   4.471 -0.3744  0.2749  0.4273
 6607SOL    HW120720   0.813   3.636   4.514  0.7045  1.1957 -1.0119
 6607SOL    HW220721   0.819   3.555   4.372 -1.1910 -1.4331  0.3494
 6608SOL     OW20722   0.937   0.635   5.678  0.2418 -0.0987  0.7572
 6608SOL    HW120723   0.882   0.572   5.733 -0.1397 -0.2898  0.1649
 6608SOL    HW220724   0.916   0.729   5.704 -1.8100 -0.0871 -0.7708
 6609SOL     OW20725   3.131   0.821   1.934  0.0286  0.1842 -0.6351
 6609SOL    HW120726   3.065   0.793   1.864 -2.7888 -0.0650  1.9299
 6609SOL    HW220727   3.083   0.840   2.020  3.2870  0.5199  1.2767
 6610SOL     OW20728   3.281   5.863   0.574  0.2420 -0.1616  0.2057
 6610SOL    HW120729   3.244   5.824   0.489  1.7376  0.8742 -0.9860
 6610SOL    HW220730   3.224   5.940   0.602  1.3309  1.4042 -1.5962
 6611SOL     OW20731   3.572   0.878   5.640 -0.0845  0.4593 -0.3592
 6611SOL    HW120732   3.475   0.863   5.620  0.0282  0.2306 -0.7538
 6611SOL    HW220733   3.627   0.850   5.561  0.3984 -0.7438  0.3708
 6612SOL     OW20734   4.920   0.654   1.843  0.0011  0.1807  0.4841
 6612SOL    HW120735   4.895   0.743   1.804  0.4759  0.1492  0.1046
 6612SOL    HW220736   4.905   0.582   1.776  1.7184  0.2312 -0.0198
 6613SOL     OW20737   6.336   0.513   1.002 -0.3504  0.7131 -0.6041
 6613SOL    HW120738   6.266   0.459   1.049 -2.0733  0.2851 -3.4270
 6613SOL    HW220739   6.332   0.608   1.034 -1.1031  0.3601  0.4077
 6614SOL     OW20740   3.620   5.008   0.069 -0.1762  0.4106  0.2809
 6614SOL    HW120741   3.673   5.092   0.057  0.4061  0.1951  1.1822
 6614SOL    HW220742   3.536   5.029   0.119 -0.6890  0.6686 -0.6824
 6615SOL     OW20743   1.841   6.535   5.335  0.0088  0.4574 -0.4562
 6615SOL    HW120744   1.822   6.617   5.389 -0.1526 -0.4383  0.8857
 6615SOL    HW220745   1.872   6.461   5.395 -0.0584 -0.5445 -1.6061
 6616SOL     OW20746   4.605   3.393   5.353  0.1826  0.2436 -0.1128
 6616SOL    HW120747   4.613   3.459   5.278 -1.4008  1.6803  0.9070
 6616SOL    HW220748   4.625   3.439   5.439  0.7691 -1.0871  0.4865
 6617SOL     OW20749   4.875   3.020   3.931 -0.0611 -0.5501  0.1643
 6617SOL    HW120750   4.822   3.093   3.889  2.3057  1.4028  0.3515
 6617SOL    HW220751   4.861   3.021   4.030 -0.5408 -0.7958  0.1006
 6618SOL     OW20752   6.051   2.775   3.872  0.6083 -0.2779  0.1525
 6618SOL    HW120753   6.087   2.685   3.847  0.7717 -0.5012  1.1747
 6618SOL    HW220754   6.121   2.827   3.920  1.1172  1.0936 -1.9232
 6619SOL     OW20755   5.689   3.174   2.801 -0.4095 -0.3005 -0.5194
 6619SOL    HW120756   5.742   3.108   2.748 -3.1134 -0.8290 -2.8473
 6619SOL    HW220757   5.733   3.263   2.798  1.0123 -0.9960 -1.1469
 6620SOL     OW20758   0.637   0.619   4.928  0.0485 -0.5617 -0.3138
 6620SOL    HW120759   0.630   0.682   4.851  1.0479 -0.4947 -0.3596
 6620SOL    HW220760   0.727   0.574   4.927  0.6718  0.5312  1.6209
 6621SOL     OW20761   3.848   2.994   3.408  0.0925  0.0122 -0.1635
 6621SOL    HW120762   3.931   2.960   3.453 -0.4372  0.1247  0.9569
 6621SOL    HW220763   3.870   3.030   3.318  1.4729  1.1831  0.6066
 6622SOL     OW20764   6.272   4.121   1.177 -0.7959 -0.2961 -0.4510
 6622SOL    HW120765   6.258   4.084   1.085  0.3751 -2.5762  0.2340
 6622SOL    HW220766   6.363   4.162   1.183 -1.2051  0.6665 -0.5188
 6623SOL     OW20767   2.982   3.731   3.881 -0.2385 -0.1220 -0.0722
 6623SOL    HW120768   2.956   3.827   3.891 -1.1073  0.0286 -2.9740
 6623SOL    HW220769   3.078   3.725   3.854  0.4235 -0.2620  2.0561
 6624SOL     OW20770   3.100   1.914   2.865 -0.0516  0.2234 -0.5309
 6624SOL    HW120771   3.168   1.847   2.895 -0.3333 -0.1546 -0.7279
 6624SOL    HW220772   3.144   1.984   2.809  0.1465 -0.1098 -0.7921
 6625SOL     OW20773   0.089   4.852   6.636 -0.1415 -0.2392  0.1380
 6625SOL    HW120774   0.030   4.924   6.600  2.1308  2.0147  0.6178
 6625SOL    HW220775   0.079   4.846   6.735 -0.3609 -0.6382  0.0945
 6626SOL     OW20776   2.693   0.213   5.831  0.2459 -0.0452  0.9136
 6626SOL    HW120777   2.757   0.154   5.881  1.0696  1.7772  2.1252
 6626SOL    HW220778   2.743   0.270   5.766 -0.3172  0.3546  0.8188
 6627SOL     OW20779   2.820   1.405   3.923 -0.3037  0.1472  0.0180
 6627SOL    HW120780   2.736   1.459   3.917 -0.2071  0.4994  1.4591
 6627SOL    HW220781   2.867   1.425   4.009  2.2364  1.3344 -1.5226
 6628SOL     OW20782   4.713   2.712   3.587 -0.9976 -0.3882 -0.2050
 6628SOL    HW120783   4.690   2.629   3.537  1.4684 -0.5834 -1.1460
 6628SOL    HW220784   4.692   2.699   3.684 -2.0918 -1.5097 -0.5633
 6629SOL     OW20785   0.141   5.856   6.194 -0.1881  0.5309 -0.3480
 6629SOL    HW120786   0.074   5.787   6.218 -1.8257  2.0970 -0.1815
 6629SOL    HW220787   0.175   5.901   6.277 -0.7072  1.3117 -0.5460
 6630SOL     OW20788   3.539   1.844   0.307  0.4085 -0.3256 -0.2496
 6630SOL    HW120789   3.528   1.747   0.329 -0.0563 -0.0340  0.8456
 6630SOL    HW220790   3.466   1.897   0.349  1.3272  0.6502  0.1645
 6631SOL     OW20791   1.147   0.710   4.980 -0.0803  0.1515 -0.6323
 6631SOL    HW120792   1.177   0.798   5.017 -0.1603  0.4641 -1.3031
 6631SOL    HW220793   1.143   0.642   5.054 -0.0001  0.7032 -0.1176
 6632SOL     OW20794   6.982   0.102   0.732  0.7083  0.1393 -0.3052
 6632SOL    HW120795   6.978   0.178   0.667 -0.3199  0.3110 -0.0564
 6632SOL    HW220796   6.955   0.017   0.686 -0.7705  0.3882  0.0605
 6633SOL     OW20797   6.068   5.015   5.223 -0.1309 -0.2010  0.2429
 6633SOL    HW120798   6.060   5.114   5.210 -0.7742 -0.3057 -0.2074
 6633SOL    HW220799   5.981   4.977   5.254  0.1098 -0.6302  0.4125
 6634SOL     OW20800   3.429   2.156   2.913  0.0671 -0.8254  0.2356
 6634SOL    HW120801   3.456   2.237   2.965 -4.6425  0.0574  1.7713
 6634SOL    HW220802   3.437   2.075   2.971  0.0419 -0.7052  0.4074
 6635SOL     OW20803   4.384   5.200   0.283 -0.1146  0.0903 -0.2547
 6635SOL    HW120804   4.452   5.131   0.310 -1.3329 -1.1519 -0.2723
 6635SOL    HW220805   4.311   5.156   0.230 -1.0659  1.3630 -0.0371
 6636SOL     OW20806   5.713   0.935   1.682  0.0546  0.0199 -0.0935
 6636SOL    HW120807   5.651   0.941   1.604 -0.6259 -2.4947  0.1778
 6636SOL    HW220808   5.663   0.901   1.761  1.5094 -0.8381  0.4842
 6637SOL     OW20809   0.384   3.752   5.530  0.1365 -0.7129  0.0391
 6637SOL    HW120810   0.448   3.794   5.595  0.2520 -2.0495  0.8181
 6637SOL    HW220811   0.409   3.656   5.516 -0.2524 -0.6107 -1.5387
 6638SOL     OW20812   3.037   3.063   6.011 -0.4146 -0.5168  0.5619
 6638SOL    HW120813   3.005   3.152   5.977 -1.2995 -0.3805  1.6945
 6638SOL    HW220814   2.967   2.994   5.996  0.3312 -1.0914 -0.4513
 6639SOL     OW20815   5.966   1.242   1.252 -0.7368  0.4342 -0.3962
 6639SOL    HW120816   6.063   1.221   1.236 -0.4584  0.7605  0.7228
 6639SOL    HW220817   5.918   1.159   1.280 -0.9163  0.1577 -1.4797
 6640SOL     OW20818   1.140   3.435   4.964  0.6353 -0.1338  0.2153
 6640SOL    HW120819   1.111   3.361   4.903 -0.3039  0.5464 -0.1886
 6640SOL    HW220820   1.186   3.396   5.044  1.2885 -1.0784 -0.5950
 6641SOL     OW20821   6.393   2.017   2.126  0.7941 -0.1069  0.0919
 6641SOL    HW120822   6.375   2.010   2.224 -0.8929 -0.3425 -0.2109
 6641SOL    HW220823   6.489   1.993   2.108  1.4929  1.2213  1.8058
 6642SOL     OW20824   6.970   3.963   6.725  0.0315  0.1131 -0.1906
 6642SOL    HW120825   7.013   3.969   6.815  0.6080 -2.1208 -0.2584
 6642SOL    HW220826   6.977   4.051   6.679  3.1838  0.3165  0.4251
 6643SOL     OW20827   6.765   5.894   5.504  0.9949 -0.4758  0.1627
 6643SOL    HW120828   6.822   5.976   5.501  1.6676 -0.7850  2.2539
 6643SOL    HW220829   6.669   5.920   5.513  0.9100  0.0473 -1.8739
 6644SOL     OW20830   3.300   6.093   3.643  0.7962  0.3255  0.0269
 6644SOL    HW120831   3.383   6.148   3.651  0.4834  1.4981 -3.4195
 6644SOL    HW220832   3.322   5.997   3.657  2.4193  0.7456  0.5669
 6645SOL     OW20833   5.084   1.993   5.331  0.0126  0.1960  0.0983
 6645SOL    HW120834   5.108   2.090   5.341 -0.5324  0.1661  2.2810
 6645SOL    HW220835   5.151   1.938   5.381  0.8462 -0.6750 -1.8838
 6646SOL     OW20836   3.716   6.314   5.516 -0.6239  0.1477  0.4065
 6646SOL    HW120837   3.648   6.271   5.457 -0.5450 -3.1454  2.4566
 6646SOL    HW220838   3.798   6.257   5.520  0.4894  1.7298  1.5257
 6647SOL     OW20839   1.930   4.951   1.517  0.0830  0.2182 -0.0584
 6647SOL    HW120840   1.967   4.958   1.609 -1.5666  0.9185  0.5902
 6647SOL    HW220841   1.845   4.899   1.519  0.7191 -0.9440 -1.4229
 6648SOL     OW20842   2.895   5.765   3.916  0.1720 -0.0112 -0.3135
 6648SOL    HW120843   2.942   5.701   3.855  0.1736 -0.9259  0.6289
 6648SOL    HW220844   2.827   5.817   3.863 -0.3419 -1.2975 -0.9656
 6649SOL     OW20845   6.361   1.312   5.597  0.1392  0.0833  0.0465
 6649SOL    HW120846   6.266   1.306   5.630 -0.2560 -1.5122 -1.2572
 6649SOL    HW220847   6.422   1.322   5.675 -0.9130 -1.5609  1.1521
 6650SOL     OW20848   1.539   2.453   4.893 -0.5070 -0.0125  0.5726
 6650SOL    HW120849   1.457   2.407   4.859  0.7343 -0.8588 -1.5180
 6650SOL    HW220850   1.537   2.549   4.868 -1.1112  0.1033  1.0491
 6651SOL     OW20851   6.615   2.282   3.707  0.6736 -0.1786  0.6569
 6651SOL    HW120852   6.552   2.338   3.653  2.3554 -0.7819 -2.1478
 6651SOL    HW220853   6.599   2.185   3.686 -0.5204 -0.6985  3.5333
 6652SOL     OW20854   6.227   3.749   4.153  0.5189 -0.1174 -0.0833
 6652SOL    HW120855   6.128   3.738   4.144  0.6889 -0.9750 -1.0551
 6652SOL    HW220856   6.250   3.846   4.156 -0.3894  0.0909  0.6962
 6653SOL     OW20857   5.634   3.175   0.397  0.4557 -0.2710 -0.2064
 6653SOL    HW120858   5.726   3.146   0.423  0.4169  0.0143  0.2528
 6653SOL    HW220859   5.632   3.194   0.299  0.3245 -2.4101 -0.6647
 6654SOL     OW20860   5.996   1.146   3.145 -0.6063 -0.3827 -0.0323
 6654SOL    HW120861   5.952   1.164   3.233  1.0215 -1.4379  1.0585
 6654SOL    HW220862   5.951   1.200   3.073 -1.2952  1.3396  1.6003
 6655SOL     OW20863   5.688   4.432   0.877  0.5475 -1.1119  0.1869
 6655SOL    HW120864   5.688   4.378   0.961  0.8464 -1.7019 -0.1873
 6655SOL    HW220865   5.705   4.372   0.798  2.9509 -0.2234 -0.0613
 6656SOL     OW20866   3.769   2.640   1.223  0.2682 -0.0326 -0.6235
 6656SOL    HW120867   3.864   2.624   1.251  0.6063 -0.0996 -1.7698
 6656SOL    HW220868   3.760   2.734   1.189  0.1216 -0.2832 -1.2857
 6657SOL     OW20869   5.933   0.656   3.263  0.3675  0.1178  0.3644
 6657SOL    HW120870   5.928   0.559   3.286 -1.2548 -0.6788 -2.8703
 6657SOL    HW220871   5.850   0.684   3.216  1.9554  2.3786 -1.3299
 6658SOL     OW20872   6.908   5.264   4.017  0.4808  0.1184  0.2559
 6658SOL    HW120873   6.956   5.347   3.990 -0.4454  1.3814  2.2386
 6658SOL    HW220874   6.933   5.239   4.111 -0.7024 -0.7146  0.3883
 6659SOL     OW20875   2.332   5.695   0.101  0.4201 -0.0961  0.5756
 6659SOL    HW120876   2.248   5.641   0.111 -0.7127  1.5259  0.2406
 6659SOL    HW220877   2.322   5.781   0.151  1.3039  0.7541 -0.6573
 6660SOL     OW20878   1.543   1.561   2.538 -0.2510 -0.2988  0.3988
 6660SOL    HW120879   1.563   1.466   2.559  0.0559 -0.3011  0.1135
 6660SOL    HW220880   1.552   1.616   2.621  1.8004 -0.1663  0.1599
 6661SOL     OW20881   4.093   5.689   2.874  0.0173  0.3848 -0.0931
 6661SOL    HW120882   4.116   5.742   2.955 -0.1577  1.9369 -1.0245
 6661SOL    HW220883   3.993   5.679   2.868 -0.0446  1.3272 -0.7497
 6662SOL     OW20884   4.204   3.359   0.655 -0.4397 -0.5870 -0.4274
 6662SOL    HW120885   4.267   3.284   0.673 -1.5670 -1.2166  1.0707
 6662SOL    HW220886   4.133   3.361   0.726  1.1490  3.6360  1.3871
 6663SOL     OW20887   1.645   6.062   4.909  1.0150  0.7850 -0.0787
 6663SOL    HW120888   1.690   5.998   4.847  1.1255 -0.5832  1.3478
 6663SOL    HW220889   1.619   6.014   4.993  1.5105  2.7257  1.2493
 6664SOL     OW20890   4.400   6.056   2.183 -0.0922 -0.0802 -0.1836
 6664SOL    HW120891   4.432   6.143   2.146 -0.5161 -0.0176 -0.4120
 6664SOL    HW220892   4.405   6.059   2.283  2.0407 -0.6296 -0.2208
 6665SOL     OW20893   3.191   0.744   0.101  0.5543  0.0812 -0.5073
 6665SOL    HW120894   3.191   0.813   0.173  2.0326 -1.2126  0.8087
 6665SOL    HW220895   3.114   0.681   0.115  0.1706  0.4939 -0.7451
 6666SOL     OW20896   2.532   0.564   2.277 -0.0188 -0.5010  0.1764
 6666SOL    HW120897   2.484   0.639   2.323 -1.1494 -0.5299 -0.9118
 6666SOL    HW220898   2.466   0.494   2.251  1.0074 -1.8438  1.0550
 6667SOL     OW20899   2.819   3.899   7.001  1.0704 -0.1241 -0.2067
 6667SOL    HW120900   2.830   3.982   7.055 -2.6660  0.7156 -0.4908
 6667SOL    HW220901   2.876   3.905   6.919  2.4449  1.1636  0.7869
 6668SOL     OW20902   4.613   2.736   6.673  0.0984 -0.6868 -0.4483
 6668SOL    HW120903   4.583   2.753   6.767  2.0420  0.4356  0.0191
 6668SOL    HW220904   4.673   2.810   6.643  2.7664 -2.9802 -1.1450
 6669SOL     OW20905   0.963   3.243   2.653  0.8358 -0.1744 -0.2596
 6669SOL    HW120906   0.966   3.323   2.593 -0.3561  0.4171  0.4193
 6669SOL    HW220907   1.051   3.196   2.651  1.7129  1.4005 -0.3478
 6670SOL     OW20908   1.860   2.194   1.418  0.1002 -0.0858  0.4255
 6670SOL    HW120909   1.867   2.291   1.444 -1.5350 -0.3698  2.1129
 6670SOL    HW220910   1.924   2.140   1.473 -0.2179 -0.1672  0.7156
 6671SOL     OW20911   5.788   6.963   0.275  0.3447  0.1590  0.4259
 6671SOL    HW120912   5.787   6.897   0.199 -0.2686 -0.0856  0.6414
 6671SOL    HW220913   5.871   6.949   0.330  0.8169  0.3687 -0.2162
 6672SOL     OW20914   0.732   1.496   1.617 -0.2388 -0.1920  0.3191
 6672SOL    HW120915   0.760   1.424   1.554  1.4224  0.5239  0.1781
 6672SOL    HW220916   0.646   1.470   1.662 -2.8628  0.2487 -3.8971
 6673SOL     OW20917   6.502   4.710   4.187  0.8332 -0.0542 -0.1962
 6673SOL    HW120918   6.504   4.739   4.283 -1.1325 -1.7438  0.4242
 6673SOL    HW220919   6.430   4.760   4.139  0.5116 -0.5948 -0.2822
 6674SOL     OW20920   6.852   0.620   0.698  0.6964  0.5829  0.2276
 6674SOL    HW120921   6.763   0.666   0.704  0.4086  0.1298 -0.4718
 6674SOL    HW220922   6.917   0.680   0.651  0.4734  0.5109 -0.1808
 6675SOL     OW20923   5.262   1.518   2.244  0.4042 -0.1641 -0.1733
 6675SOL    HW120924   5.326   1.447   2.216  0.4971 -0.2642  0.2815
 6675SOL    HW220925   5.185   1.477   2.292  0.5582  0.0590  0.2702
 6676SOL     OW20926   0.336   3.565   5.081 -0.0124 -0.2225 -0.1727
 6676SOL    HW120927   0.357   3.616   4.998 -0.5171  1.4445  0.6870
 6676SOL    HW220928   0.237   3.556   5.091  0.0450 -0.4767  0.2206
 6677SOL     OW20929   1.367   1.442   1.282  0.7249 -0.2078  0.0675
 6677SOL    HW120930   1.293   1.497   1.319  0.8600  1.0314 -1.4055
 6677SOL    HW220931   1.454   1.475   1.316  0.6328 -2.3713  2.6983
 6678SOL     OW20932   3.524   2.886   6.522  0.1633  0.2048  0.1538
 6678SOL    HW120933   3.599   2.846   6.468 -1.5724 -0.9881 -1.5214
 6678SOL    HW220934   3.562   2.946   6.592  2.5965  1.3653 -1.9804
 6679SOL     OW20935   1.345   5.267   2.118  0.6898  0.1232 -0.3263
 6679SOL    HW120936   1.331   5.204   2.194 -0.5426  0.7471 -0.0097
 6679SOL    HW220937   1.442   5.292   2.112  0.8255 -0.0597  0.9305
 6680SOL     OW20938   5.985   4.157   0.966  0.0966 -0.0149  0.7048
 6680SOL    HW120939   5.925   4.147   0.886 -0.6493  1.7104  0.9916
 6680SOL    HW220940   5.980   4.075   1.022 -0.3406 -0.7511 -0.3715
 6681SOL     OW20941   4.180   6.153   3.105  0.6027  0.5197 -0.3662
 6681SOL    HW120942   4.223   6.238   3.133 -1.9270  1.5469  0.6237
 6681SOL    HW220943   4.083   6.155   3.126  0.6050 -3.0981  0.7972
 6682SOL     OW20944   1.352   5.844   0.643 -0.0597  0.2740  0.3014
 6682SOL    HW120945   1.350   5.828   0.742 -0.4881  0.7267  0.3738
 6682SOL    HW220946   1.309   5.768   0.596  1.8817 -0.8933  0.3119
 6683SOL     OW20947   4.981   7.015   0.425 -0.1404  0.2829 -0.2640
 6683SOL    HW120948   5.071   7.039   0.461  0.3173  0.1051 -1.2621
 6683SOL    HW220949   4.915   7.086   0.449 -0.3152 -0.7020  2.5453
 6684SOL     OW20950   3.397   6.609   5.435 -0.0498 -0.0837  0.1703
 6684SOL    HW120951   3.402   6.601   5.336  3.2885  1.0312  0.1344
 6684SOL    HW220952   3.318   6.558   5.469  0.2460 -2.8121 -2.8193
 6685SOL     OW20953   4.253   1.834   0.941 -0.2385 -0.5827  0.2211
 6685SOL    HW120954   4.165   1.793   0.967 -0.8585  0.4262 -0.2030
 6685SOL    HW220955   4.237   1.925   0.902  1.1554  0.5089  2.0405
 6686SOL     OW20956   2.471   3.377   6.595  0.1359  0.2728  0.5427
 6686SOL    HW120957   2.508   3.332   6.514 -1.9334  1.9234 -1.4438
 6686SOL    HW220958   2.519   3.463   6.610  1.0040 -0.3608  1.5810
 6687SOL     OW20959   5.493   1.902   2.975 -0.5202  0.0017  0.1178
 6687SOL    HW120960   5.539   1.833   3.030 -0.9100 -1.7365 -1.6342
 6687SOL    HW220961   5.456   1.860   2.892 -0.4978  2.3724 -1.1882
 6688SOL     OW20962   6.730   4.707   6.621  0.0555  0.1947 -0.1035
 6688SOL    HW120963   6.795   4.725   6.695  0.7915 -1.9913 -0.1185
 6688SOL    HW220964   6.771   4.735   6.534  0.9812 -1.0524 -0.0981
 6689SOL     OW20965   2.683   5.438   6.675  0.3286 -0.0172  0.1052
 6689SOL    HW120966   2.759   5.383   6.642 -0.8606 -0.7298 -1.6393
 6689SOL    HW220967   2.711   5.490   6.756  2.1701 -1.4054  0.4162
 6690SOL     OW20968   0.587   0.566   2.292 -0.5237 -0.4252  0.1946
 6690SOL    HW120969   0.641   0.491   2.329  0.2159  0.3492  0.7278
 6690SOL    HW220970   0.503   0.530   2.253  0.7750 -1.7903 -1.5290
 6691SOL     OW20971   1.221   2.122   0.424  0.0694  0.6100  0.5153
 6691SOL    HW120972   1.276   2.134   0.342  0.4525 -1.5118  0.4168
 6691SOL    HW220973   1.167   2.205   0.440 -0.6618  0.8098 -2.3484
 6692SOL     OW20974   2.884   6.896   2.247 -0.6215 -0.0797 -0.2244
 6692SOL    HW120975   2.820   6.876   2.172 -2.0425  0.6470  0.7407
 6692SOL    HW220976   2.865   6.834   2.323  0.7246 -0.7195 -0.3848
 6693SOL     OW20977   4.330   1.871   6.877 -0.3241  0.2021  0.0313
 6693SOL    HW120978   4.327   1.881   6.976 -0.6920  0.0609  0.0351
 6693SOL    HW220979   4.408   1.922   6.841  0.0676 -0.1012  0.4325
 6694SOL     OW20980   5.963   4.705   1.176  0.4707  0.1368  0.4920
 6694SOL    HW120981   5.959   4.605   1.187 -0.9050  0.0051 -0.9365
 6694SOL    HW220982   6.034   4.728   1.109 -0.1195  0.0092 -0.1858
 6695SOL     OW20983   3.462   3.064   6.738  0.1342  0.3437 -0.0499
 6695SOL    HW120984   3.469   3.138   6.670  1.9040  0.1238 -0.1414
 6695SOL    HW220985   3.393   3.089   6.806 -0.7506  1.1575 -1.1946
 6696SOL     OW20986   3.867   3.657   5.999 -0.1193  0.5267  0.3397
 6696SOL    HW120987   3.767   3.654   5.992 -0.1072  0.9058 -0.0326
 6696SOL    HW220988   3.906   3.681   5.910  0.3070  0.2961  0.4648
 6697SOL     OW20989   4.546   0.393   4.611  0.2215  0.0020 -0.4592
 6697SOL    HW120990   4.628   0.420   4.662 -1.5784  3.1694  0.9887
 6697SOL    HW220991   4.520   0.300   4.637  1.3664  0.2257  1.7202
 6698SOL     OW20992   0.159   4.147   1.408  0.0249  0.4379 -0.4037
 6698SOL    HW120993   0.115   4.096   1.335 -3.1981  0.3233  1.4489
 6698SOL    HW220994   0.223   4.088   1.457 -0.3598 -0.4886 -1.0080
 6699SOL     OW20995   2.890   3.160   5.528  0.1415 -0.2565  0.5036
 6699SOL    HW120996   2.846   3.161   5.438  0.6351  2.5915  0.1851
 6699SOL    HW220997   2.833   3.210   5.593 -0.4836 -2.7666  1.9885
 6700SOL     OW20998   3.849   5.939   1.292 -0.3856 -0.1973 -0.0013
 6700SOL    HW120999   3.754   5.953   1.265 -0.5114 -2.0719 -0.7264
 6700SOL    HW221000   3.909   5.980   1.223 -0.6418  1.1434  0.5488
 6701SOL     OW21001   6.149   6.834   1.954  0.6371  0.1590  0.1589
 6701SOL    HW121002   6.210   6.827   2.034  1.3780 -0.8997 -0.4761
 6701SOL    HW221003   6.188   6.782   1.878 -0.7712 -0.0156 -0.4654
 6702SOL     OW21004   3.970   3.030   1.446 -0.0133 -0.0951 -0.1727
 6702SOL    HW121005   3.998   2.979   1.365 -0.2886 -1.2119  0.4241
 6702SOL    HW221006   3.871   3.043   1.444 -0.0970 -0.6529  0.2827
 6703SOL     OW21007   5.755   1.441   2.310  0.0032 -0.2247 -0.4391
 6703SOL    HW121008   5.845   1.479   2.290  1.2771 -2.3891  0.8314
 6703SOL    HW221009   5.735   1.366   2.247  0.1105 -1.2207  0.6776
 6704SOL     OW21010   1.063   4.525   1.912  0.0697  0.4892  0.6162
 6704SOL    HW121011   1.145   4.524   1.970 -0.6574  0.4162  1.6522
 6704SOL    HW221012   1.078   4.587   1.834  1.4217 -0.1686  0.3262
 6705SOL     OW21013   2.705   2.946   1.712  0.2661  0.0223  0.2143
 6705SOL    HW121014   2.731   3.041   1.732 -1.4864  0.6289 -0.1769
 6705SOL    HW221015   2.684   2.938   1.614 -2.7562  0.1031  0.7695
 6706SOL     OW21016   5.843   5.540   0.355 -0.6791  0.2408 -0.1701
 6706SOL    HW121017   5.852   5.526   0.256  2.1698 -0.5474  0.1084
 6706SOL    HW221018   5.894   5.622   0.381  2.5547 -1.9232  1.0676
 6707SOL     OW21019   6.481   0.975   2.114  0.3972 -0.2660 -0.2156
 6707SOL    HW121020   6.514   0.885   2.083  1.4824 -0.2144  0.7117
 6707SOL    HW221021   6.479   1.038   2.036  0.6642 -0.8031 -0.6673
 6708SOL     OW21022   6.248   3.782   2.147 -0.0337 -0.5541  0.4198
 6708SOL    HW121023   6.327   3.730   2.115 -0.1573 -0.8497  0.5881
 6708SOL    HW221024   6.183   3.794   2.071  0.2891 -0.0774  0.2094
 6709SOL     OW21025   1.248   4.735   4.350 -0.2816  0.9973  0.0820
 6709SOL    HW121026   1.223   4.648   4.393  1.3805  0.9232  1.0012
 6709SOL    HW221027   1.209   4.739   4.258 -0.1676 -0.8505 -0.0937
 6710SOL     OW21028   5.340   2.975   1.654 -0.6628 -0.7229 -0.3973
 6710SOL    HW121029   5.242   2.963   1.634 -0.5973 -0.8701 -0.6334
 6710SOL    HW221030   5.350   3.015   1.745 -0.9862  0.5773 -0.9091
 6711SOL     OW21031   4.798   4.089   6.296  0.5646  0.1979  0.2043
 6711SOL    HW121032   4.832   4.103   6.389  1.3392 -0.7930  0.0892
 6711SOL    HW221033   4.858   4.025   6.248  0.6428  1.3052 -1.2472
 6712SOL     OW21034   1.114   2.194   2.688 -0.6330  0.2873  0.7587
 6712SOL    HW121035   1.051   2.186   2.764  0.7795  1.2303  2.0807
 6712SOL    HW221036   1.191   2.131   2.702 -0.5604  0.1744 -0.0949
 6713SOL     OW21037   1.582   2.977   5.106 -0.3776 -0.2471  0.7095
 6713SOL    HW121038   1.631   3.058   5.139  0.4661  0.0224 -1.0822
 6713SOL    HW221039   1.642   2.897   5.114 -1.4609 -0.9057  3.1639
 6714SOL     OW21040   0.934   1.773   1.422  0.2303 -0.5671  0.5982
 6714SOL    HW121041   0.842   1.736   1.416  0.1423 -0.2800  0.0505
 6714SOL    HW221042   0.957   1.793   1.517 -0.1270 -0.9984  0.7760
 6715SOL     OW21043   1.463   0.004   4.027  0.2130 -0.8239 -0.3518
 6715SOL    HW121044   1.426  -0.044   4.107  2.1434  0.3520  1.3403
 6715SOL    HW221045   1.506  -0.062   3.965 -1.9997 -1.8462 -0.8867
 6716SOL     OW21046   1.791   4.291   2.034  0.2177  0.1902  0.3954
 6716SOL    HW121047   1.769   4.387   2.017 -0.5560 -0.0282  0.1243
 6716SOL    HW221048   1.789   4.274   2.133  0.2502  0.4238  0.4371
 6717SOL     OW21049   5.801   4.430   5.366 -0.1704  0.0542  0.4372
 6717SOL    HW121050   5.786   4.334   5.391  0.5515  0.1101  1.1111
 6717SOL    HW221051   5.736   4.488   5.415  0.6617  0.0820  1.5209
 6718SOL     OW21052   3.274   2.102   6.120  0.4345  0.5270 -0.1565
 6718SOL    HW121053   3.300   2.177   6.181  0.5729  0.3495  0.0055
 6718SOL    HW221054   3.241   2.139   6.033  0.2622  0.7814  0.0155
 6719SOL     OW21055   1.005   0.185   0.756  0.4495  0.3618  0.4026
 6719SOL    HW121056   1.025   0.274   0.714  2.2043 -0.5613 -0.8473
 6719SOL    HW221057   0.915   0.188   0.799 -0.2129  2.2564 -0.9807
 6720SOL     OW21058   0.363   1.568   5.109  0.4474  0.1406 -0.4008
 6720SOL    HW121059   0.367   1.664   5.082  1.4478  0.2767  0.1793
 6720SOL    HW221060   0.444   1.520   5.075 -1.0323 -1.0174 -2.4933
 6721SOL     OW21061   1.264   0.311   0.425 -0.1655 -0.2214 -0.4843
 6721SOL    HW121062   1.318   0.280   0.503 -1.3388 -0.1570  0.3791
 6721SOL    HW221063   1.295   0.403   0.397  0.3915 -0.3303 -0.2394
 6722SOL     OW21064   6.118   3.000   0.641  0.0075  0.3560  0.2939
 6722SOL    HW121065   6.031   2.951   0.649  1.0474 -1.4927  0.7533
 6722SOL    HW221066   6.183   2.944   0.590  1.8873  0.3525  2.5582
 6723SOL     OW21067   1.084   4.332   3.827 -0.3295 -0.4131 -0.5571
 6723SOL    HW121068   1.074   4.252   3.886 -1.8546  0.5742  0.6491
 6723SOL    HW221069   0.999   4.346   3.775 -0.1888  0.5268 -0.5629
 6724SOL     OW21070   3.608   4.009   6.258 -0.0953  1.0834 -0.3369
 6724SOL    HW121071   3.559   4.069   6.195  1.1685  1.0155 -1.4269
 6724SOL    HW221072   3.703   4.039   6.266 -0.0987  0.7731  1.1445
 6725SOL     OW21073   5.488   2.143   3.078  0.2935 -0.1896  0.3236
 6725SOL    HW121074   5.507   2.122   3.173 -2.0358  0.1680  0.9272
 6725SOL    HW221075   5.461   2.059   3.030  0.8748 -0.2648  0.1200
 6726SOL     OW21076   0.504   0.556   1.590 -0.3391  0.1980  0.2412
 6726SOL    HW121077   0.406   0.579   1.595 -0.1742  0.9243  0.2891
 6726SOL    HW221078   0.554   0.614   1.654 -0.0438 -1.2107  1.3453
 6727SOL     OW21079   0.681   6.647   4.992 -0.3776 -0.0678 -0.2544
 6727SOL    HW121080   0.738   6.565   4.983  0.1663  0.0969  1.3945
 6727SOL    HW221081   0.613   6.632   5.064 -0.7627  0.6732 -0.4558
 6728SOL     OW21082   4.674   0.826   0.980 -0.2753  0.4226  0.3355
 6728SOL    HW121083   4.722   0.820   0.892 -0.8923  0.9513 -0.0502
 6728SOL    HW221084   4.586   0.872   0.966 -1.1238 -0.9599  0.9248
 6729SOL     OW21085   4.219   7.012   2.322  0.5595  0.1024  0.2102
 6729SOL    HW121086   4.313   7.038   2.344  1.5999 -1.5957 -1.9365
 6729SOL    HW221087   4.208   7.008   2.223 -1.2951 -1.4072  0.4335
 6730SOL     OW21088   0.544   2.123   3.213  0.6395  0.1964  0.2623
 6730SOL    HW121089   0.509   2.199   3.267 -0.6349 -2.1311  2.9978
 6730SOL    HW221090   0.637   2.101   3.242  0.4051 -0.2593  0.7128
 6731SOL     OW21091   5.186   6.321   6.845 -0.1483 -0.6456 -0.4025
 6731SOL    HW121092   5.280   6.294   6.822  0.0703  1.2599 -2.0144
 6731SOL    HW221093   5.129   6.314   6.763 -0.8389  0.4872 -0.0382
 6732SOL     OW21094   0.747   3.261   6.679 -0.0854  0.1894  0.1650
 6732SOL    HW121095   0.709   3.303   6.761 -0.5789  1.8992 -0.9044
 6732SOL    HW221096   0.685   3.275   6.602  1.0801 -0.0356 -0.8455
 6733SOL     OW21097   4.049   5.563   6.715 -0.4882 -0.1474 -0.0177
 6733SOL    HW121098   3.950   5.574   6.723 -0.4051 -0.1245  1.0508
 6733SOL    HW221099   4.091   5.564   6.805  0.9108  3.7275 -0.4992
 6734SOL     OW21100   5.234   2.920   4.901  0.0975  0.8171  0.7370
 6734SOL    HW121101   5.320   2.928   4.951  1.1169  3.4978 -1.2422
 6734SOL    HW221102   5.242   2.964   4.812 -2.8416 -0.3540 -0.2498
 6735SOL     OW21103   4.682   0.412   4.133  0.1987 -0.3034 -0.0719
 6735SOL    HW121104   4.708   0.494   4.183 -1.1423  0.6478 -0.8706
 6735SOL    HW221105   4.709   0.331   4.185  0.3473  0.6322  1.3610
 6736SOL     OW21106   4.282   2.448   1.800 -0.2682 -0.2334 -0.0713
 6736SOL    HW121107   4.195   2.403   1.782  0.6770 -1.6771 -1.1992
 6736SOL    HW221108   4.329   2.465   1.714  0.4431  0.8325  0.5073
 6737SOL     OW21109   5.416   3.821   1.025  0.5356 -0.1011 -0.2914
 6737SOL    HW121110   5.449   3.859   1.112  0.1154  1.0209 -0.6053
 6737SOL    HW221111   5.317   3.829   1.021  0.5038 -0.6794 -0.6348
 6738SOL     OW21112   2.929   0.048   3.256  0.1011 -0.7637 -0.4597
 6738SOL    HW121113   2.943   0.115   3.184 -0.3359 -0.1610  0.0029
 6738SOL    HW221114   3.006   0.051   3.320 -0.0615 -0.4816 -0.2735
 6739SOL     OW21115   2.585   6.191   5.589 -0.2708  0.2513 -0.0368
 6739SOL    HW121116   2.651   6.129   5.548 -1.3620 -0.2615 -1.0857
 6739SOL    HW221117   2.543   6.247   5.517  0.4069  1.9621  0.8335
 6740SOL     OW21118   1.396   1.642   0.656 -0.2368 -0.0533  0.0952
 6740SOL    HW121119   1.321   1.705   0.635  1.3879  1.6350 -0.9727
 6740SOL    HW221120   1.424   1.593   0.574  0.3038 -0.1013  0.2977
 6741SOL     OW21121   4.677   2.742   0.580  0.3382  0.1978  0.0698
 6741SOL    HW121122   4.617   2.705   0.651  1.5689  0.6995  1.4288
 6741SOL    HW221123   4.772   2.734   0.610  0.8308  1.2786 -1.1249
 6742SOL     OW21124   6.571   4.313   2.210 -0.1334 -0.6821  0.4452
 6742SOL    HW121125   6.491   4.286   2.156 -0.1583 -1.5880  0.9236
 6742SOL    HW221126   6.644   4.246   2.196  0.4391 -0.0245  0.2523
 6743SOL     OW21127   4.975   0.498   0.224  0.0945 -0.1062 -0.0528
 6743SOL    HW121128   4.976   0.413   0.172 -1.3871  0.6206 -1.3633
 6743SOL    HW221129   4.896   0.498   0.286  0.4584  0.0540  0.4168
 6744SOL     OW21130   6.156   5.662   6.793 -0.2759 -0.0142  0.4315
 6744SOL    HW121131   6.109   5.645   6.880  1.7995 -1.0077  1.4563
 6744SOL    HW221132   6.199   5.752   6.796 -0.2187 -0.0412  0.4544
 6745SOL     OW21133   0.026   4.983   4.750 -0.3002 -0.4529  0.5262
 6745SOL    HW121134   0.033   5.078   4.778 -4.3960 -0.3383  1.8493
 6745SOL    HW221135   0.052   4.923   4.825 -0.3139 -0.3223  0.6346
 6746SOL     OW21136   1.115   3.919   2.691  0.4904  0.5783  0.3865
 6746SOL    HW121137   1.191   3.925   2.756  0.3645 -0.3469  0.6425
 6746SOL    HW221138   1.038   3.974   2.723  0.7877  0.9176  0.5143
 6747SOL     OW21139   0.932   6.389   4.335 -0.1075  0.2591 -0.1747
 6747SOL    HW121140   0.984   6.360   4.415  0.5989 -0.9313 -1.0315
 6747SOL    HW221141   0.936   6.318   4.264  0.6705  1.9523 -1.9259
 6748SOL     OW21142   1.415   4.049   4.383 -0.3799 -0.4336 -0.0019
 6748SOL    HW121143   1.354   4.033   4.461 -1.5634  3.1547  0.0009
 6748SOL    HW221144   1.374   4.011   4.300 -2.1449  0.8587  0.2118
 6749SOL     OW21145   2.188   5.227   4.675  0.2769  0.1206 -0.1206
 6749SOL    HW121146   2.111   5.166   4.692 -0.1446  1.1165  1.7537
 6749SOL    HW221147   2.247   5.230   4.756  0.6557  1.6603 -0.4225
 6750SOL     OW21148   5.466   6.879   4.468 -0.2448  0.1131  0.7226
 6750SOL    HW121149   5.511   6.967   4.483  1.7240 -0.9017  1.1264
 6750SOL    HW221150   5.424   6.877   4.377  0.1081  1.2813  0.5221
 6751SOL     OW21151   5.159   3.170   5.539  0.2024 -0.6046  0.2044
 6751SOL    HW121152   5.070   3.211   5.523 -0.6804 -1.8806  1.5846
 6751SOL    HW221153   5.150   3.094   5.604  2.4013 -0.2789  0.9996
 6752SOL     OW21154   2.021   5.184   2.950  0.7326  0.3733 -0.2055
 6752SOL    HW121155   1.967   5.140   2.878 -0.3659  1.8055 -0.3073
 6752SOL    HW221156   2.037   5.119   3.024 -1.5764 -0.0113  0.0518
 6753SOL     OW21157   2.256   4.521   0.233 -0.2502 -0.4231 -0.3064
 6753SOL    HW121158   2.295   4.521   0.325 -0.7531  0.4508 -0.0790
 6753SOL    HW221159   2.327   4.497   0.166 -0.0607 -1.8508  0.3634
 6754SOL     OW21160   5.715   6.871   1.701 -0.4703 -0.2201 -0.0506
 6754SOL    HW121161   5.676   6.884   1.792  0.4231 -0.6797  0.4189
 6754SOL    HW221162   5.775   6.948   1.679 -1.5193  0.4315 -0.7237
 6755SOL     OW21163   3.313   6.703   4.549  0.0649  0.0076  0.8627
 6755SOL    HW121164   3.392   6.742   4.596 -0.7801  1.5337  1.1054
 6755SOL    HW221165   3.241   6.773   4.541 -0.4193 -0.6528 -1.3351
 6756SOL     OW21166   4.569   3.766   6.516 -0.7417 -0.1509 -0.5385
 6756SOL    HW121167   4.595   3.670   6.509 -1.6709 -0.3622 -1.2955
 6756SOL    HW221168   4.649   3.820   6.542 -0.1459 -1.0875 -0.3764
 6757SOL     OW21169   2.936   6.161   2.589  0.4509 -0.1704  0.2043
 6757SOL    HW121170   2.885   6.147   2.504  0.8184  0.0021 -0.0455
 6757SOL    HW221171   2.936   6.258   2.613  0.6238 -0.1757  0.2262
 6758SOL     OW21172   6.149   2.948   2.214  0.2529  0.4468  0.5609
 6758SOL    HW121173   6.159   2.984   2.306  0.5349  0.1551  0.6425
 6758SOL    HW221174   6.184   3.015   2.148 -0.8710  1.0932  0.5910
 6759SOL     OW21175   6.853   2.265   2.356 -0.1914 -0.3008 -0.0866
 6759SOL    HW121176   6.907   2.350   2.362  1.0994 -1.1334  0.7828
 6759SOL    HW221177   6.773   2.272   2.416 -0.6624  0.6805 -0.8138
 6760SOL     OW21178   5.761   1.044   6.662 -1.1423  0.1561 -0.3339
 6760SOL    HW121179   5.743   0.998   6.749  0.2203  1.5288  0.7140
 6760SOL    HW221180   5.675   1.055   6.612 -2.2487  0.8722  1.6183
 6761SOL     OW21181   3.676   1.985   4.792 -0.2643  0.1895  0.3019
 6761SOL    HW121182   3.750   2.041   4.756 -0.8090  1.9391  1.7419
 6761SOL    HW221183   3.709   1.891   4.806  0.8173  0.2133 -1.6853
 6762SOL     OW21184   5.365   4.901   3.461  0.2423 -0.6721  0.3190
 6762SOL    HW121185   5.399   4.904   3.367  2.0250  0.0264  0.9334
 6762SOL    HW221186   5.265   4.902   3.461  0.2065  0.5592 -1.5463
 6763SOL     OW21187   5.307   3.257   4.393 -0.1866  0.6052  0.6186
 6763SOL    HW121188   5.261   3.252   4.304  0.7749 -2.1364  0.1787
 6763SOL    HW221189   5.250   3.309   4.457 -3.0010 -1.0143 -0.3901
 6764SOL     OW21190   0.118   5.108   0.674  0.3156  0.2653 -0.4337
 6764SOL    HW121191   0.060   5.064   0.606 -0.0109 -0.9183  0.5715
 6764SOL    HW221192   0.212   5.077   0.662  0.3954  0.6503 -0.8196
 6765SOL     OW21193   1.286   4.981   1.249  0.4213  0.0644 -0.2850
 6765SOL    HW121194   1.289   4.885   1.222 -0.4607 -0.0161 -0.1364
 6765SOL    HW221195   1.243   4.990   1.338  1.4394  0.5189  0.1744
 6766SOL     OW21196   5.598   6.514   2.841  0.5995 -0.1708  0.2709
 6766SOL    HW121197   5.682   6.463   2.860  1.2166 -0.0675 -1.9471
 6766SOL    HW221198   5.622   6.603   2.801 -0.5437  0.6779  1.3822
 6767SOL     OW21199   2.078   5.015   1.760  0.2807  0.0470 -0.7628
 6767SOL    HW121200   2.172   4.997   1.733  0.3412 -0.3306 -0.2961
 6767SOL    HW221201   2.069   5.006   1.859 -0.4729 -0.9331 -0.9160
 6768SOL     OW21202   3.094   6.773   1.912  0.2284  0.1865 -0.8379
 6768SOL    HW121203   3.105   6.703   1.983 -2.0786 -0.6427 -1.1866
 6768SOL    HW221204   3.092   6.864   1.955  0.6820 -0.1658 -0.0581
 6769SOL     OW21205   5.496   0.815   5.903 -0.3559  0.0945 -0.7904
 6769SOL    HW121206   5.521   0.888   5.839  1.6421  0.2983  0.1318
 6769SOL    HW221207   5.445   0.855   5.980 -0.6462  0.2366 -1.0509
 6770SOL     OW21208   2.066   1.668   1.747  0.0017 -0.0281  0.2468
 6770SOL    HW121209   2.039   1.673   1.651  1.2452  0.3250 -0.0933
 6770SOL    HW221210   2.112   1.581   1.765  1.0918  0.5178  0.1626
 6771SOL     OW21211   3.168   0.886   6.052  0.8215  0.8277  0.2100
 6771SOL    HW121212   3.151   0.861   6.147 -1.2200 -0.8540 -0.4996
 6771SOL    HW221213   3.188   0.803   5.999 -2.5146  0.9927 -1.5679
 6772SOL     OW21214   3.759   2.175   5.151  0.3839 -0.8458  1.0712
 6772SOL    HW121215   3.817   2.207   5.226  0.3701  0.1493  0.6699
 6772SOL    HW221216   3.668   2.215   5.160  0.6684  0.1067 -0.0151
 6773SOL     OW21217   0.522   3.754   3.847  0.0453  0.0212 -0.0382
 6773SOL    HW121218   0.510   3.682   3.778  2.1461  0.6180 -1.0947
 6773SOL    HW221219   0.521   3.844   3.803 -2.1768  0.6921  1.2226
 6774SOL     OW21220   6.707   2.231   5.452  0.2362 -0.1612 -0.3072
 6774SOL    HW121221   6.710   2.291   5.372 -0.5559  0.4404  0.0966
 6774SOL    HW221222   6.671   2.142   5.426 -2.7143  0.8747 -0.1799
 6775SOL     OW21223   6.597   3.262   1.056  0.0229  0.1323 -0.2779
 6775SOL    HW121224   6.679   3.217   1.091  0.4686 -0.1757 -1.6515
 6775SOL    HW221225   6.537   3.285   1.132  0.8174 -0.7456  0.6514
 6776SOL     OW21226   6.948   6.949   6.327  0.0959  0.3523  0.0413
 6776SOL    HW121227   6.849   6.941   6.343 -0.2686  0.5466 -1.9364
 6776SOL    HW221228   6.969   7.041   6.294  0.3353 -0.7345 -3.1344
 6777SOL     OW21229   2.667   4.415   5.911 -0.0117 -0.4226 -0.4432
 6777SOL    HW121230   2.656   4.479   5.835  2.8231  1.9609  0.9525
 6777SOL    HW221231   2.577   4.390   5.946 -1.2991  1.4156 -2.1619
 6778SOL     OW21232   0.086   5.955   2.738  0.2582 -0.2266  0.9528
 6778SOL    HW121233   0.175   6.000   2.730  0.5736 -0.8401  0.9910
 6778SOL    HW221234   0.014   6.023   2.724  0.7280  0.0294 -0.3475
 6779SOL     OW21235   4.968   3.218   6.615  0.7106  0.0606  0.5101
 6779SOL    HW121236   4.879   3.260   6.599 -0.6329 -2.7671 -0.0592
 6779SOL    HW221237   4.987   3.215   6.713 -0.4494 -0.4679  0.7318
 6780SOL     OW21238   0.864   0.706   0.904  0.8107  0.1461 -0.0787
 6780SOL    HW121239   0.789   0.714   0.837  0.7999 -0.0121 -0.0855
 6780SOL    HW221240   0.892   0.798   0.933  0.8994  0.2182 -0.3930
 6781SOL     OW21241   6.611   5.707   6.075  0.0104  0.2874 -0.2754
 6781SOL    HW121242   6.558   5.786   6.106  0.3748 -0.1457  1.5562
 6781SOL    HW221243   6.561   5.661   6.001 -0.5179  1.8157 -0.9227
 6782SOL     OW21244   6.204   1.057   4.622 -0.4167 -0.2081 -0.0154
 6782SOL    HW121245   6.114   1.097   4.607 -0.6636 -0.0452  1.6611
 6782SOL    HW221246   6.272   1.106   4.567 -1.5535 -1.5019 -2.7184
 6783SOL     OW21247   1.651   6.483   5.601  0.0615  0.3273 -0.7661
 6783SOL    HW121248   1.561   6.452   5.631 -0.0406  1.0654 -0.2672
 6783SOL    HW221249   1.687   6.549   5.668  0.3854  1.0514 -1.6400
 6784SOL     OW21250   1.460   3.966   0.502  0.3142  0.0017 -0.1697
 6784SOL    HW121251   1.383   3.976   0.566 -2.0660 -0.4166 -2.7872
 6784SOL    HW221252   1.481   4.056   0.462  2.2805  0.4016  1.5855
 6785SOL     OW21253   5.582   6.872   1.961  0.1772 -0.9042  0.1998
 6785SOL    HW121254   5.527   6.795   1.928  0.4890 -1.2590  0.4987
 6785SOL    HW221255   5.523   6.938   2.008 -0.3692 -0.1295 -1.4850
 6786SOL     OW21256   3.254   3.877   4.623 -0.0491  0.7613  0.3271
 6786SOL    HW121257   3.243   3.815   4.545 -1.0338  0.1312  0.9505
 6786SOL    HW221258   3.303   3.829   4.696  0.2904  1.1387  0.3500
 6787SOL     OW21259   0.753   3.939   2.549  0.4460 -0.2283  0.5730
 6787SOL    HW121260   0.783   3.941   2.453 -1.3278 -0.0055 -0.0040
 6787SOL    HW221261   0.654   3.951   2.553  0.5989  0.6594  2.5031
 6788SOL     OW21262   2.004   2.807   1.408 -1.0225 -0.5392  0.3572
 6788SOL    HW121263   1.907   2.783   1.400 -1.1777  0.3666 -0.8089
 6788SOL    HW221264   2.028   2.818   1.504 -1.9999 -1.0614  0.6759
 6789SOL     OW21265   2.052   4.234   2.389  0.0953 -0.2289  0.2052
 6789SOL    HW121266   2.113   4.157   2.374  1.3279  0.6865  0.3069
 6789SOL    HW221267   2.082   4.284   2.471 -0.1491  0.8461 -0.3462
 6790SOL     OW21268   1.690   4.135   0.088 -0.1164 -0.2858  0.4438
 6790SOL    HW121269   1.659   4.048   0.127  0.9373 -0.4690  0.9278
 6790SOL    HW221270   1.790   4.132   0.078 -0.1569  0.5789 -0.2739
 6791SOL     OW21271   2.893   3.429   4.581  0.1381  0.2721 -0.3922
 6791SOL    HW121272   2.923   3.339   4.612 -1.0359 -0.3444 -0.9597
 6791SOL    HW221273   2.881   3.427   4.482 -0.9568  0.7150 -0.2792
 6792SOL     OW21274   0.727   6.404   6.884  0.4900  0.0407  0.8163
 6792SOL    HW121275   0.737   6.353   6.798 -1.4149 -0.3182  0.7687
 6792SOL    HW221276   0.796   6.476   6.887  1.0343 -0.3632 -0.7038
 6793SOL     OW21277   6.725   0.482   6.626  0.1776  0.2928  0.3131
 6793SOL    HW121278   6.782   0.405   6.656  1.9217  1.1298 -0.6774
 6793SOL    HW221279   6.675   0.457   6.543  0.6931  0.1917  0.0296
 6794SOL     OW21280   2.888   2.242   4.858  0.2619  0.4234  0.4079
 6794SOL    HW121281   2.958   2.297   4.903  0.9512 -0.2749  0.2074
 6794SOL    HW221282   2.899   2.146   4.882 -0.2333  0.2197 -0.1281
 6795SOL     OW21283   3.521   6.436   0.408  0.0835  0.1080 -0.2846
 6795SOL    HW121284   3.421   6.429   0.401  0.0852 -0.5442  0.1997
 6795SOL    HW221285   3.553   6.514   0.356 -0.7336  0.5939 -0.0733
 6796SOL     OW21286   4.911   3.531   2.989  0.0941  0.8319 -0.6291
 6796SOL    HW121287   4.878   3.506   3.080 -1.2297  1.4637 -0.9100
 6796SOL    HW221288   5.000   3.575   2.996  0.1210  0.6334  0.3269
 6797SOL     OW21289   0.162   2.301   2.467  0.1580 -0.4235  0.3437
 6797SOL    HW121290   0.150   2.392   2.427 -0.2528 -0.7568 -0.3085
 6797SOL    HW221291   0.098   2.238   2.424 -0.4096 -0.7570  1.6565
 6798SOL     OW21292   5.127   5.888   3.536 -0.0461  0.5285 -0.0659
 6798SOL    HW121293   5.156   5.793   3.535 -0.8258  0.2790  0.5271
 6798SOL    HW221294   5.066   5.906   3.459 -0.4078  0.3813  0.1840
 6799SOL     OW21295   4.353   5.226   3.549  0.3239 -0.0789 -0.4727
 6799SOL    HW121296   4.261   5.186   3.556 -0.3059  0.8979 -2.3489
 6799SOL    HW221297   4.348   5.310   3.495  1.9882  1.2705  1.3487
 6800SOL     OW21298   4.041   3.671   6.486 -0.0214  0.1492  0.1618
 6800SOL    HW121299   4.057   3.574   6.501  0.0826  0.2263  0.5611
 6800SOL    HW221300   4.129   3.719   6.483  0.2534 -0.2590 -3.7138
 6801SOL     OW21301   1.132   0.920   3.192 -0.6344 -0.7078  0.1147
 6801SOL    HW121302   1.136   0.835   3.244  1.7078 -1.3777 -1.0227
 6801SOL    HW221303   1.217   0.931   3.140 -1.6573  1.4073 -1.2339
 6802SOL     OW21304   3.679   5.293   2.782  0.1575 -0.2236 -0.5766
 6802SOL    HW121305   3.621   5.218   2.813  0.0428  1.0703  2.7280
 6802SOL    HW221306   3.764   5.256   2.744 -0.5604 -2.0166 -0.5417
 6803SOL     OW21307   5.470   2.036   0.896  0.6731  0.3426  0.2089
 6803SOL    HW121308   5.383   2.019   0.944 -0.1986 -0.5240 -1.5817
 6803SOL    HW221309   5.476   2.134   0.874  0.6955  0.6051  1.3069
 6804SOL     OW21310   1.755   4.618   2.962 -0.2471  0.2354  0.3883
 6804SOL    HW121311   1.820   4.672   3.016 -0.1879  0.2747  0.2787
 6804SOL    HW221312   1.744   4.528   3.003 -1.1758  0.6983  1.2067
 6805SOL     OW21313   5.857   1.389   6.418 -0.3151 -0.4938 -0.8852
 6805SOL    HW121314   5.935   1.327   6.406 -1.3898 -1.8853 -0.8280
 6805SOL    HW221315   5.841   1.403   6.515 -1.4167 -1.8882 -0.8491
 6806SOL     OW21316   3.750   5.116   6.011  0.2892  0.0071 -0.5309
 6806SOL    HW121317   3.660   5.078   6.031  0.0689  1.0037  0.5010
 6806SOL    HW221318   3.805   5.048   5.964  0.0073 -1.6659  1.4227
 6807SOL     OW21319   4.552   4.877   6.359 -0.0715 -0.1430  0.0261
 6807SOL    HW121320   4.632   4.853   6.415 -0.6827 -1.1817  0.4747
 6807SOL    HW221321   4.539   4.976   6.361  0.7890 -0.0272  0.5203
 6808SOL     OW21322   3.088   5.137   3.301 -0.0306 -0.0180 -0.2967
 6808SOL    HW121323   3.166   5.094   3.347 -0.7327  0.6203  1.5778
 6808SOL    HW221324   3.032   5.066   3.259  1.6810 -0.4691 -1.9876
 6809SOL     OW21325   3.090   2.929   6.887  0.5721 -0.0913  0.7823
 6809SOL    HW121326   3.070   2.932   6.985  0.6882 -1.1587  0.8491
 6809SOL    HW221327   3.114   3.021   6.855 -1.0225  0.5855  1.4190
 6810SOL     OW21328   0.054   2.601   3.866 -0.1142  0.4033  0.1473
 6810SOL    HW121329   0.075   2.698   3.883 -1.6835  1.1320 -1.6023
 6810SOL    HW221330   0.109   2.568   3.789 -1.4441  0.7513 -0.9990
 6811SOL     OW21331   3.484   6.673   2.703 -0.2404 -0.2622 -0.1455
 6811SOL    HW121332   3.584   6.680   2.705 -0.0921 -2.0230  0.8348
 6811SOL    HW221333   3.444   6.760   2.731  0.9453  1.0623 -2.3093
 6812SOL     OW21334   3.260   3.932   3.728 -0.3218  0.0483 -0.1482
 6812SOL    HW121335   3.164   3.939   3.699 -0.0991 -0.0811 -0.9303
 6812SOL    HW221336   3.320   3.960   3.653  0.2578  0.1202  0.3332
 6813SOL     OW21337   5.638   2.180   0.091  0.2348 -0.3188 -0.6756
 6813SOL    HW121338   5.703   2.130   0.148  1.1404 -0.3857 -1.7543
 6813SOL    HW221339   5.635   2.276   0.120 -1.9736 -1.0129  1.8232
 6814SOL     OW21340   2.034   2.952   0.390  0.1355  0.2496 -0.0129
 6814SOL    HW121341   2.095   2.909   0.457  1.3272 -0.3802 -1.4537
 6814SOL    HW221342   2.051   3.050   0.388 -0.2288  0.3396  0.9123
 6815SOL     OW21343   1.749   6.352   6.686  0.2323 -0.5617 -0.3178
 6815SOL    HW121344   1.787   6.268   6.648 -0.2327 -1.6071  1.3779
 6815SOL    HW221345   1.764   6.428   6.623  0.1790 -2.0086 -2.1605
 6816SOL     OW21346   6.159   3.637   6.612  0.3812  0.7078 -0.0797
 6816SOL    HW121347   6.202   3.577   6.680 -0.6962 -0.4477 -0.4015
 6816SOL    HW221348   6.184   3.608   6.520  0.1037  0.9486 -0.2348
 6817SOL     OW21349   3.808   0.732   4.508 -0.3697  0.0516  0.1123
 6817SOL    HW121350   3.878   0.782   4.457  0.1779 -0.8535 -0.0464
 6817SOL    HW221351   3.717   0.765   4.482 -0.0457  0.4421 -0.5379
 6818SOL     OW21352   4.488   5.179   3.220  0.1718 -0.4903 -0.2104
 6818SOL    HW121353   4.436   5.249   3.268  0.9895 -0.6671  0.9844
 6818SOL    HW221354   4.581   5.177   3.256  0.4569 -1.4865 -0.9678
 6819SOL     OW21355   2.142   0.773   4.249  0.1460  0.1679  0.2861
 6819SOL    HW121356   2.111   0.678   4.245 -1.0747  0.5235  0.6621
 6819SOL    HW221357   2.152   0.800   4.345  1.3942  0.1578  0.1737
 6820SOL     OW21358   1.101   4.561   5.116  0.7411 -0.1145  0.2168
 6820SOL    HW121359   1.076   4.642   5.063 -0.0126  0.3893  1.3252
 6820SOL    HW221360   1.171   4.586   5.183  1.0224 -0.5496  0.0919
 6821SOL     OW21361   2.118   1.881   2.963 -0.1074  0.4550 -0.5107
 6821SOL    HW121362   2.165   1.969   2.961 -0.7906  0.8256 -0.3801
 6821SOL    HW221363   2.038   1.886   3.022 -0.0370 -0.3170 -0.3335
 6822SOL     OW21364   5.919   2.173   6.287 -0.0350 -0.5757 -0.5493
 6822SOL    HW121365   5.918   2.268   6.319 -0.0244 -1.4230  2.2623
 6822SOL    HW221366   6.008   2.152   6.248  0.7255  0.0328  0.7652
 6823SOL     OW21367   4.400   3.023   1.462 -0.4559  0.4057 -0.2900
 6823SOL    HW121368   4.392   3.030   1.561 -1.2071  0.0716 -0.3240
 6823SOL    HW221369   4.494   2.997   1.438 -0.3501  0.1911  0.3514
 6824SOL     OW21370   1.969   5.475   4.596 -0.2544 -0.4058 -0.3751
 6824SOL    HW121371   1.915   5.402   4.639 -0.2585 -0.6141 -0.7308
 6824SOL    HW221372   2.063   5.444   4.583 -0.2398 -0.3242 -0.4672
 6825SOL     OW21373   6.999   6.108   5.214 -0.1708  0.0804  0.0660
 6825SOL    HW121374   7.066   6.160   5.161  0.1232 -0.6348 -0.2715
 6825SOL    HW221375   6.909   6.152   5.207 -0.0860  0.1221 -0.8437
 6826SOL     OW21376   0.852   3.210   1.701  0.0025  0.2013  0.3214
 6826SOL    HW121377   0.838   3.308   1.711  0.7749  0.5057 -1.3351
 6826SOL    HW221378   0.916   3.192   1.627 -1.1381 -1.6030 -0.2972
 6827SOL     OW21379   2.383   6.862   5.705 -0.4226  0.1783  0.1188
 6827SOL    HW121380   2.450   6.871   5.778 -1.3670 -1.1833  1.2174
 6827SOL    HW221381   2.293   6.892   5.738 -0.9541 -0.8802 -0.3156
 6828SOL     OW21382   2.947   2.400   1.603  0.4536 -0.5944  0.4288
 6828SOL    HW121383   2.941   2.437   1.695  0.1709  0.2539  0.0845
 6828SOL    HW221384   2.893   2.457   1.541  1.9551 -0.1951 -0.5580
 6829SOL     OW21385   0.181   2.230   2.748  0.0782 -0.1750  0.3353
 6829SOL    HW121386   0.188   2.234   2.648  0.2094 -0.4314  0.3322
 6829SOL    HW221387   0.271   2.209   2.786  0.1908  0.6624  0.5565
 6830SOL     OW21388   4.889   1.723   2.993 -0.1138  0.1999 -0.1560
 6830SOL    HW121389   4.883   1.632   3.034 -0.2197 -0.1486 -0.9302
 6830SOL    HW221390   4.966   1.772   3.033 -0.3127 -0.0659  0.5724
 6831SOL     OW21391   0.722   1.639   6.893 -0.4796  0.0841  0.0200
 6831SOL    HW121392   0.783   1.571   6.934  0.7022  0.3754 -1.1554
 6831SOL    HW221393   0.776   1.716   6.858 -1.6074  0.7354 -0.3536
 6832SOL     OW21394   2.677   4.406   1.227  0.7541  0.0813  0.0692
 6832SOL    HW121395   2.725   4.478   1.277 -1.1916  0.8576  0.9302
 6832SOL    HW221396   2.639   4.340   1.291  0.3963 -0.3243 -0.5490
 6833SOL     OW21397   4.377   6.181   6.900 -0.0978  0.1477  0.0398
 6833SOL    HW121398   4.457   6.187   6.840 -0.2401  0.4387 -0.1227
 6833SOL    HW221399   4.316   6.258   6.882 -1.9326 -1.6183 -2.0146
 6834SOL     OW21400   0.955   4.779   6.893 -0.1901  0.3775 -0.3495
 6834SOL    HW121401   0.997   4.782   6.803 -2.9836 -0.8429 -1.8311
 6834SOL    HW221402   1.025   4.790   6.963  2.5084 -1.2160 -2.5836
 6835SOL     OW21403   2.815   0.474   3.900 -0.1009 -0.1598 -0.4162
 6835SOL    HW121404   2.773   0.564   3.913  0.2341 -0.0913  0.2021
 6835SOL    HW221405   2.911   0.486   3.875  0.3083 -0.3611  1.0017
 6836SOL     OW21406   3.888   4.786   0.018  0.0632 -0.2981 -0.2328
 6836SOL    HW121407   3.925   4.704   0.062  0.0302  0.7144  1.7959
 6836SOL    HW221408   3.796   4.767  -0.016  1.2692 -2.0334 -2.8852
 6837SOL     OW21409   1.204   2.040   3.358  0.3097 -0.2600  0.2115
 6837SOL    HW121410   1.128   2.103   3.364 -0.5072 -1.0776 -1.1572
 6837SOL    HW221411   1.205   1.981   3.439 -0.8803 -0.6169 -0.0107
 6838SOL     OW21412   1.383   1.375   6.164 -0.4488  0.4355 -0.3232
 6838SOL    HW121413   1.427   1.382   6.075 -0.5571 -0.4017 -0.4504
 6838SOL    HW221414   1.293   1.418   6.161  0.0709  1.5506 -0.2508
 6839SOL     OW21415   5.792   6.610   5.327 -0.2555 -0.5442  0.6901
 6839SOL    HW121416   5.821   6.531   5.382  0.5410  0.3168  1.5237
 6839SOL    HW221417   5.695   6.601   5.306 -0.2936 -1.4974  1.1982
 6840SOL     OW21418   5.906   6.849   5.604 -0.8228  0.1397 -0.1866
 6840SOL    HW121419   5.961   6.854   5.521 -2.7534 -1.9952 -1.7131
 6840SOL    HW221420   5.831   6.915   5.599 -0.1229  1.0148  0.5595
 6841SOL     OW21421   5.444   4.668   4.881  0.4215  0.3069 -0.3524
 6841SOL    HW121422   5.389   4.590   4.910 -0.1002  1.3663  1.6969
 6841SOL    HW221423   5.510   4.639   4.812  0.0447 -1.8712  0.1511
 6842SOL     OW21424   0.976   3.754   1.627 -0.0789  0.3627  0.3903
 6842SOL    HW121425   1.060   3.806   1.608  0.7868 -1.0498  0.2504
 6842SOL    HW221426   0.938   3.719   1.541 -0.8421  1.0000  0.4509
 6843SOL     OW21427   2.672   0.222   0.531  0.3316  0.0832 -0.4550
 6843SOL    HW121428   2.678   0.312   0.575  2.0981  0.2938 -1.0477
 6843SOL    HW221429   2.713   0.226   0.440 -0.4301 -1.1138 -0.8836
 6844SOL     OW21430   0.236   0.295   4.928  0.4121  0.5509 -0.4892
 6844SOL    HW121431   0.258   0.201   4.952 -0.2726  0.0376 -1.7876
 6844SOL    HW221432   0.141   0.314   4.953 -0.4164 -0.0914 -2.9290
 6845SOL     OW21433   5.126   2.941   2.826  0.1331  0.1307 -0.4270
 6845SOL    HW121434   5.183   2.892   2.760  0.9781 -2.1929  1.8475
 6845SOL    HW221435   5.045   2.886   2.847 -1.3227  1.9104 -1.1939
 6846SOL     OW21436   1.354   2.916   2.090  0.6616  0.2217 -0.0077
 6846SOL    HW121437   1.398   2.830   2.067  1.0759 -0.6553  3.4251
 6846SOL    HW221438   1.263   2.898   2.126  0.9100  1.1259  1.1351
 6847SOL     OW21439   2.010   4.410   4.407  0.4195 -0.3648  0.4047
 6847SOL    HW121440   2.065   4.479   4.359  1.0569 -1.0532  0.1375
 6847SOL    HW221441   1.923   4.452   4.435 -0.7936 -0.3133 -2.8737
 6848SOL     OW21442   6.581   4.251   4.734  0.0815  0.4717  0.1385
 6848SOL    HW121443   6.670   4.213   4.759  0.3529 -1.0529 -2.6343
 6848SOL    HW221444   6.595   4.337   4.685  0.0638  0.2753 -0.2206
 6849SOL     OW21445   3.178   4.814   0.402 -1.0692  0.1566  0.5975
 6849SOL    HW121446   3.162   4.719   0.376 -2.0846  0.3505  0.4694
 6849SOL    HW221447   3.231   4.817   0.487  1.0008 -0.4947 -0.5942
 6850SOL     OW21448   6.701   5.805   3.600  0.3580  0.6268  0.1924
 6850SOL    HW121449   6.682   5.798   3.698 -0.5335 -0.7885 -0.0539
 6850SOL    HW221450   6.614   5.818   3.551  0.4411 -1.4851 -0.6135
 6851SOL     OW21451   2.183   5.352   4.186  0.4211 -0.0965 -0.5857
 6851SOL    HW121452   2.162   5.289   4.261 -1.2373 -0.2278 -1.1192
 6851SOL    HW221453   2.276   5.385   4.196  0.3789 -0.4210  1.3109
 6852SOL     OW21454   5.832   2.519   6.651 -0.1057  0.8853 -0.2391
 6852SOL    HW121455   5.873   2.479   6.732 -0.3298  1.9769  0.4352
 6852SOL    HW221456   5.865   2.613   6.639  1.5184  0.0934 -2.5849
 6853SOL     OW21457   5.311   6.299   0.559 -0.0564  0.4558  0.1632
 6853SOL    HW121458   5.296   6.337   0.468  1.2547  1.0211  0.1501
 6853SOL    HW221459   5.231   6.247   0.587 -0.6068  0.5285 -1.1774
 6854SOL     OW21460   4.236   5.065   5.947  0.8358  0.4487 -0.1716
 6854SOL    HW121461   4.236   5.017   6.035 -0.6184  0.5467 -0.0930
 6854SOL    HW221462   4.246   5.163   5.963 -2.2050  0.7892  0.1537
 6855SOL     OW21463   4.068   6.163   2.643  0.2688 -0.0710 -0.1108
 6855SOL    HW121464   4.165   6.186   2.650  0.4678 -1.0641  0.5758
 6855SOL    HW221465   4.036   6.129   2.732 -1.2214  2.1634  0.2850
 6856SOL     OW21466   0.448   2.519   1.113  0.0549 -0.1170 -0.0411
 6856SOL    HW121467   0.444   2.534   1.014  1.1497 -0.8574 -0.2132
 6856SOL    HW221468   0.427   2.604   1.161 -0.4704  0.2496 -0.9112
 6857SOL     OW21469   2.385   4.266   5.543 -0.4529  1.1400 -0.5221
 6857SOL    HW121470   2.480   4.295   5.556 -0.5822  0.9847  0.8728
 6857SOL    HW221471   2.333   4.281   5.627 -1.6036  0.9590 -1.1787
 6858SOL     OW21472   0.214   3.719   0.453  0.4363 -0.4545  0.0817
 6858SOL    HW121473   0.205   3.765   0.542  1.1073  0.3514 -0.2504
 6858SOL    HW221474   0.257   3.782   0.388 -0.3331 -0.9305 -0.9049
 6859SOL     OW21475   3.390   0.975   1.000 -0.2978  0.1126  0.1732
 6859SOL    HW121476   3.467   0.963   0.938  0.9869 -0.0680  1.7265
 6859SOL    HW221477   3.328   0.897   0.991 -1.1370  0.9655 -2.1413
 6860SOL     OW21478   0.962   0.506   6.362  0.0162  0.2578  0.6491
 6860SOL    HW121479   0.910   0.424   6.340  0.4210  0.6438 -2.0102
 6860SOL    HW221480   0.900   0.577   6.396 -1.2939  0.6826 -2.3574
 6861SOL     OW21481   6.085   3.919   0.709  0.3249 -0.1405 -0.0997
 6861SOL    HW121482   5.992   3.886   0.723  0.3011  0.2460  0.6913
 6861SOL    HW221483   6.104   3.925   0.611  0.5330 -3.0387 -0.3425
 6862SOL     OW21484   0.146   5.998   2.451  0.1945 -0.0565  0.2150
 6862SOL    HW121485   0.231   6.043   2.478 -0.1072 -0.6261  2.3457
 6862SOL    HW221486   0.112   5.943   2.528 -1.3755 -0.9551 -1.0555
 6863SOL     OW21487   4.914   2.384   5.452 -0.0444  0.2485  0.4921
 6863SOL    HW121488   4.818   2.408   5.465 -0.3975 -0.9252  0.2290
 6863SOL    HW221489   4.949   2.427   5.369 -1.1278 -1.3414 -0.8746
 6864SOL     OW21490   2.182   3.501   6.571  0.1143  0.3216  0.6773
 6864SOL    HW121491   2.218   3.409   6.555  1.4598  1.0577 -0.8692
 6864SOL    HW221492   2.226   3.540   6.653  2.7030  1.0241 -0.9101
 6865SOL     OW21493   3.843   0.167   2.702  0.0087 -0.1316 -0.1952
 6865SOL    HW121494   3.781   0.232   2.745  0.2824 -0.2320  0.3680
 6865SOL    HW221495   3.899   0.123   2.772 -0.6768 -1.5203 -0.4881
 6866SOL     OW21496   1.717   4.612   6.036 -0.5477 -0.6484 -0.0467
 6866SOL    HW121497   1.793   4.623   6.100 -1.5338 -0.2392  1.0936
 6866SOL    HW221498   1.749   4.562   5.955  0.5155 -2.0969  1.1964
 6867SOL     OW21499   1.085   2.240   6.514  0.0814  0.1300 -0.4782
 6867SOL    HW121500   1.040   2.265   6.429  0.1647  0.6739 -0.3648
 6867SOL    HW221501   1.159   2.305   6.534 -0.0257  0.0902  0.0817
 6868SOL     OW21502   2.097   4.992   3.995 -0.0360  0.3509  0.4285
 6868SOL    HW121503   2.150   4.960   4.074  0.5662 -0.9258 -0.4552
 6868SOL    HW221504   2.003   5.008   4.023  0.3022  0.5110  1.5383
 6869SOL     OW21505   0.738   2.112   5.338 -0.6664  0.1595  0.6710
 6869SOL    HW121506   0.659   2.168   5.312 -0.1474  0.2897 -0.7126
 6869SOL    HW221507   0.784   2.079   5.255  0.5570 -0.1636  1.4557
 6870SOL     OW21508   6.810   3.131   4.747 -0.1843 -0.0321 -0.2725
 6870SOL    HW121509   6.770   3.215   4.783  2.0353  0.7544  0.5169
 6870SOL    HW221510   6.754   3.097   4.672 -1.6232  1.6354 -0.0122
 6871SOL     OW21511   5.050   2.570   2.380 -0.0300 -0.5049  0.5116
 6871SOL    HW121512   4.984   2.515   2.329  1.5130 -1.4477 -0.5316
 6871SOL    HW221513   5.035   2.667   2.360  0.1819 -0.8215 -1.3073
 6872SOL     OW21514   2.193   6.561   1.162  0.0045 -0.2337 -0.1721
 6872SOL    HW121515   2.228   6.651   1.191 -0.6698 -0.3962  1.1888
 6872SOL    HW221516   2.199   6.555   1.062 -1.6450  2.0628 -0.4886
 6873SOL     OW21517   1.324   3.918   3.171  0.2569 -0.2061 -0.0904
 6873SOL    HW121518   1.265   3.976   3.226  0.8932  0.4620 -0.0966
 6873SOL    HW221519   1.415   3.915   3.211  0.7930  0.4637 -1.2015
 6874SOL     OW21520   3.159   5.616   2.495  0.5592 -0.2619 -0.0308
 6874SOL    HW121521   3.117   5.697   2.454  2.1247  1.2421  1.2038
 6874SOL    HW221522   3.101   5.536   2.478  0.0755  0.6428 -3.2583
 6875SOL     OW21523   4.453   6.446   5.471  0.5263 -0.2290  0.3458
 6875SOL    HW121524   4.452   6.349   5.449 -0.3388 -0.1584  0.0257
 6875SOL    HW221525   4.379   6.467   5.535 -0.3040  0.4612 -0.7803
 6876SOL     OW21526   5.823   4.571   1.589  0.0498 -0.7559  0.3361
 6876SOL    HW121527   5.859   4.610   1.674  0.1381 -2.0522  0.9145
 6876SOL    HW221528   5.891   4.509   1.549  0.8116  1.2800 -1.7447
 6877SOL     OW21529   1.199   4.543   0.301 -0.3133 -0.3702 -0.1369
 6877SOL    HW121530   1.275   4.562   0.239  0.0704  1.2136  0.7683
 6877SOL    HW221531   1.213   4.455   0.345 -0.5133 -1.4635 -2.1222
 6878SOL     OW21532   1.280   5.932   3.160 -0.2497 -0.0562 -0.0019
 6878SOL    HW121533   1.344   5.992   3.111  0.2013 -1.0065 -0.6082
 6878SOL    HW221534   1.323   5.844   3.178 -0.2568  0.3820  2.5316
 6879SOL     OW21535   0.644   0.328   1.548 -0.2526 -0.1446 -0.1564
 6879SOL    HW121536   0.660   0.285   1.636 -1.0902 -0.8092 -0.3151
 6879SOL    HW221537   0.621   0.424   1.561 -0.1889 -0.1963  0.3353
 6880SOL     OW21538   2.004   0.152   6.903  0.3784 -0.0338  0.2233
 6880SOL    HW121539   1.904   0.157   6.900  0.4345  0.7767 -1.2118
 6880SOL    HW221540   2.041   0.238   6.938  0.5703 -0.7142  1.7748
 6881SOL     OW21541   4.767   5.427   1.352  0.2422  0.7313  0.3097
 6881SOL    HW121542   4.667   5.425   1.345  0.2071  1.2871  0.6072
 6881SOL    HW221543   4.794   5.400   1.444  0.3247  1.3643  0.4766
 6882SOL     OW21544   3.590   4.649   6.007  0.2185 -0.4157  0.2917
 6882SOL    HW121545   3.509   4.592   5.989 -0.6192  1.0582 -0.8531
 6882SOL    HW221546   3.671   4.591   6.013 -0.4056 -1.6566 -2.0660
 6883SOL     OW21547   4.573   6.504   0.937  0.0021  0.1160 -0.2715
 6883SOL    HW121548   4.524   6.446   1.001  0.5782  1.0236  1.0294
 6883SOL    HW221549   4.521   6.588   0.920 -0.2420 -0.2031 -1.1672
 6884SOL     OW21550   1.535   5.257   3.207  0.8904  0.3441 -0.1187
 6884SOL    HW121551   1.493   5.253   3.116  1.4506 -1.3152 -0.3318
 6884SOL    HW221552   1.595   5.178   3.220 -0.2492 -0.2325  2.2105
 6885SOL     OW21553   4.954   4.173   4.934 -0.5025  0.1502  0.0210
 6885SOL    HW121554   4.887   4.202   4.866  0.4858 -0.6260 -1.3419
 6885SOL    HW221555   5.012   4.102   4.894 -0.5395 -1.0681  2.0275
 6886SOL     OW21556   4.830   3.048   2.474 -0.0892 -0.0484  0.0788
 6886SOL    HW121557   4.861   3.115   2.407  1.1591 -0.2857  0.4056
 6886SOL    HW221558   4.825   3.091   2.565  0.7519 -0.3988  0.2961
 6887SOL     OW21559   4.747   5.351   5.655  0.2185  0.0114  0.2714
 6887SOL    HW121560   4.687   5.421   5.693 -0.9951 -0.9412  0.1790
 6887SOL    HW221561   4.692   5.283   5.606  1.5445  0.0224 -1.3039
 6888SOL     OW21562   0.335   5.216   1.803  0.4244 -0.1207 -0.0562
 6888SOL    HW121563   0.411   5.168   1.846 -0.9809 -3.1126 -0.6826
 6888SOL    HW221564   0.249   5.186   1.843 -0.5710  2.4199 -0.0663
 6889SOL     OW21565   0.174   2.960   6.299 -0.6151  0.5812 -0.4289
 6889SOL    HW121566   0.098   2.988   6.241  0.5675  0.1986 -2.2402
 6889SOL    HW221567   0.260   2.967   6.248  0.3345 -1.1528  0.8115
 6890SOL     OW21568   5.498   3.603   4.422 -0.3120  0.0430  0.5261
 6890SOL    HW121569   5.586   3.634   4.386 -0.6205 -0.6287 -0.8672
 6890SOL    HW221570   5.477   3.512   4.386 -2.2665  0.8095 -0.4294
 6891SOL     OW21571   1.819   2.794   6.809 -0.3994  0.0840  0.3176
 6891SOL    HW121572   1.853   2.875   6.762 -0.8068  0.7528  1.1477
 6891SOL    HW221573   1.720   2.788   6.797 -0.3942 -0.2014  0.4084
 6892SOL     OW21574   1.239   0.896   4.282 -0.5254 -0.1983  0.5344
 6892SOL    HW121575   1.143   0.865   4.283 -0.5162 -0.2392  1.8092
 6892SOL    HW221576   1.247   0.982   4.332  0.1577 -0.3655  0.7266
 6893SOL     OW21577   5.284   1.711   0.743 -0.4116  1.2730 -0.0815
 6893SOL    HW121578   5.369   1.682   0.700 -2.2452 -0.9357 -2.5746
 6893SOL    HW221579   5.232   1.768   0.679 -0.8201  2.7521  1.4627
 6894SOL     OW21580   5.669   6.621   0.662 -0.0359 -0.1770  0.1862
 6894SOL    HW121581   5.573   6.592   0.666  0.1662 -1.0190 -0.6846
 6894SOL    HW221582   5.684   6.694   0.728 -0.6851 -1.7227  2.1472
 6895SOL     OW21583   0.791   5.860   0.981 -0.3730 -0.6637  0.6614
 6895SOL    HW121584   0.808   5.772   0.936 -1.1267 -0.9023  0.8231
 6895SOL    HW221585   0.776   5.844   1.079  0.7446 -0.2088  0.9280
 6896SOL     OW21586   5.475   0.539   5.904 -0.6001 -0.2259  0.1684
 6896SOL    HW121587   5.495   0.637   5.900  1.4208 -0.5719  0.6389
 6896SOL    HW221588   5.387   0.521   5.859 -0.9700  1.7696 -0.0083
 6897SOL     OW21589   3.577   0.623   5.346  0.4640  0.1849  0.2654
 6897SOL    HW121590   3.646   0.692   5.368  0.3995 -0.0593  1.2645
 6897SOL    HW221591   3.509   0.619   5.418  0.6430 -1.1406  0.3930
 6898SOL     OW21592   0.413   5.491   0.847  0.2389  0.4543 -0.8357
 6898SOL    HW121593   0.481   5.547   0.801 -1.3244  1.8778 -1.5447
 6898SOL    HW221594   0.344   5.461   0.780  0.6646 -1.7935 -0.3383
 6899SOL     OW21595   1.448   4.382   3.274  0.1382 -0.2421  0.2526
 6899SOL    HW121596   1.402   4.306   3.320  0.1779 -0.3709  0.0805
 6899SOL    HW221597   1.385   4.424   3.210 -0.4609  0.9799  1.5881
 6900SOL     OW21598   1.351   4.765   3.284  0.2070  0.0072  0.2546
 6900SOL    HW121599   1.266   4.799   3.242  1.5203  0.4462 -2.2635
 6900SOL    HW221600   1.335   4.674   3.321 -1.8488  0.8685  1.7337
 6901SOL     OW21601   0.925   5.190   6.060  0.3689  0.6314 -0.0017
 6901SOL    HW121602   1.007   5.132   6.058  1.3159  1.9329  0.0765
 6901SOL    HW221603   0.846   5.136   6.033  1.1880 -0.7532  0.2483
 6902SOL     OW21604   6.520   6.204   5.786 -0.2346 -0.8821  0.7144
 6902SOL    HW121605   6.578   6.227   5.708 -0.8225 -1.3477  0.1355
 6902SOL    HW221606   6.576   6.164   5.859  0.0595 -2.1550 -0.1808
 6903SOL     OW21607   6.820   5.673   5.321 -0.3197 -0.6077 -0.6053
 6903SOL    HW121608   6.864   5.726   5.249  1.9355 -0.2223  0.9430
 6903SOL    HW221609   6.786   5.734   5.393  1.5441 -1.0875  0.7850
 6904SOL     OW21610   0.879   1.002   0.465  0.0568 -0.2873  0.1173
 6904SOL    HW121611   0.948   1.060   0.424  0.6969 -0.1822  1.3038
 6904SOL    HW221612   0.879   1.015   0.564 -2.3659  0.4890  0.0851
 6905SOL     OW21613   4.101   6.166   5.307 -0.8102  0.3870  0.0447
 6905SOL    HW121614   4.053   6.143   5.392  0.1303  0.3887  0.6064
 6905SOL    HW221615   4.189   6.118   5.305 -0.9207  0.2107 -1.0470
 6906SOL     OW21616   2.889   2.002   4.194 -0.3049  0.4277  0.2716
 6906SOL    HW121617   2.899   1.927   4.129  1.5069  0.6341  0.2572
 6906SOL    HW221618   2.853   2.082   4.146  0.0626  0.2819 -0.2646
 6907SOL     OW21619   4.945   1.631   6.538  0.5237 -0.3812 -0.0046
 6907SOL    HW121620   4.942   1.602   6.442 -2.1195 -0.3117 -0.0021
 6907SOL    HW221621   4.940   1.551   6.597  1.5483 -0.3790  0.1126
 6908SOL     OW21622   1.911   2.335   6.529 -0.0486  0.3276  0.2940
 6908SOL    HW121623   1.998   2.328   6.479  0.8961 -1.2082  2.0304
 6908SOL    HW221624   1.903   2.427   6.568  2.9255 -0.5719  3.5435
 6909SOL     OW21625   5.039   5.888   2.495 -0.6436 -0.3104  0.0832
 6909SOL    HW121626   5.075   5.980   2.511  1.7897 -1.1829  0.0798
 6909SOL    HW221627   4.990   5.885   2.408  0.3225  0.7131 -0.5146
 6910SOL     OW21628   1.592   2.341   1.609 -0.2671  0.1442  0.5197
 6910SOL    HW121629   1.643   2.257   1.625 -2.0954 -0.5933  3.0963
 6910SOL    HW221630   1.507   2.321   1.562  0.5859  1.0231 -1.4997
 6911SOL     OW21631   3.011   0.105   5.702  0.1150  0.1914 -0.1467
 6911SOL    HW121632   3.014   0.092   5.801 -0.5580 -0.2497 -0.1793
 6911SOL    HW221633   3.091   0.158   5.673  0.7745 -0.4236  0.5169
 6912SOL     OW21634   2.629   3.804   6.720 -0.2277 -0.3871  0.8028
 6912SOL    HW121635   2.720   3.845   6.709  0.6692 -2.6136 -1.0228
 6912SOL    HW221636   2.618   3.773   6.815 -0.4956  2.8195  1.9181
 6913SOL     OW21637   2.210   4.789   0.523 -0.2018 -0.0314  0.5400
 6913SOL    HW121638   2.300   4.825   0.498  0.1839  0.2476  2.2233
 6913SOL    HW221639   2.220   4.704   0.574 -1.0509 -1.6435 -1.7719
 6914SOL     OW21640   1.447   3.597   3.457 -0.4513 -0.3710  0.0833
 6914SOL    HW121641   1.493   3.605   3.368 -1.0851  0.4880 -0.1826
 6914SOL    HW221642   1.503   3.640   3.528 -0.1149 -0.7279  0.0341
 6915SOL     OW21643   5.243   1.611   4.582  0.4720 -1.1645 -0.4284
 6915SOL    HW121644   5.163   1.605   4.643 -0.2108 -0.0416 -1.1872
 6915SOL    HW221645   5.315   1.550   4.616  0.3480 -0.1464  1.8445
 6916SOL     OW21646   3.978   0.236   6.031  0.1491 -0.1317  0.2765
 6916SOL    HW121647   4.058   0.233   5.971 -1.2870 -2.2995 -1.7281
 6916SOL    HW221648   3.910   0.299   5.994 -0.5292 -1.0823 -0.1613
 6917SOL     OW21649   3.664   6.221   2.354  0.3250 -0.2082 -0.0476
 6917SOL    HW121650   3.667   6.259   2.447  1.4215 -0.6544  0.1157
 6917SOL    HW221651   3.574   6.180   2.338 -0.6531  1.7804  0.0114
 6918SOL     OW21652   0.763   3.550   0.667 -0.2863 -0.7407 -0.5503
 6918SOL    HW121653   0.707   3.480   0.712 -0.2713 -1.4250 -1.5610
 6918SOL    HW221654   0.722   3.573   0.579 -0.2967  0.5513 -0.2196
 6919SOL     OW21655   0.168   6.138   3.540 -0.4045  0.1811  0.2377
 6919SOL    HW121656   0.210   6.153   3.450  0.4106  1.6705  0.8270
 6919SOL    HW221657   0.218   6.066   3.588 -0.9592 -0.7527 -0.5544
 6920SOL     OW21658   0.450   4.270   0.008  0.9759  0.3764 -0.2503
 6920SOL    HW121659   0.522   4.217   0.052  0.9655 -1.3661 -2.1459
 6920SOL    HW221660   0.476   4.367   0.006  1.5551  0.3251  2.2592
 6921SOL     OW21661   3.399   1.208   6.668 -0.3836  0.1979  0.1007
 6921SOL    HW121662   3.374   1.191   6.763 -0.6429 -1.0694 -0.1695
 6921SOL    HW221663   3.449   1.294   6.661 -0.6911  0.4907  1.3215
 6922SOL     OW21664   3.702   3.358   6.864  0.3869 -0.2472  0.1103
 6922SOL    HW121665   3.729   3.452   6.844  2.0588 -1.0808 -1.9218
 6922SOL    HW221666   3.609   3.357   6.899  0.4773  2.1746  0.6208
 6923SOL     OW21667   4.274   1.037   3.684 -0.5565  0.6466 -0.2444
 6923SOL    HW121668   4.212   1.026   3.762 -1.3923  0.6641 -0.8886
 6923SOL    HW221669   4.305   1.132   3.678  0.2286  0.4476  0.5897
 6924SOL     OW21670   2.875   4.796   1.586  0.8069 -0.3709 -0.4128
 6924SOL    HW121671   2.933   4.861   1.636 -2.6679  2.2756  0.5094
 6924SOL    HW221672   2.857   4.830   1.494  1.1558 -1.5123 -0.9297
 6925SOL     OW21673   6.566   2.024   6.022  0.6123 -0.1956  0.4211
 6925SOL    HW121674   6.479   1.987   5.990  0.9641  0.0684 -0.8971
 6925SOL    HW221675   6.549   2.096   6.089 -0.3645  1.9722 -1.9828
 6926SOL     OW21676   2.746   1.627   0.200 -0.1652  0.3083  0.2813
 6926SOL    HW121677   2.793   1.693   0.259  0.2826 -0.4812  0.8300
 6926SOL    HW221678   2.804   1.605   0.122  0.2430 -0.4064  0.7783
 6927SOL     OW21679   4.415   1.032   6.690  0.1276  0.0129  0.0368
 6927SOL    HW121680   4.364   0.961   6.642  0.1404 -0.4321  0.6758
 6927SOL    HW221681   4.510   1.003   6.700  0.9602  1.5037 -2.5579
 6928SOL     OW21682   3.181   0.759   2.389 -0.1642  0.5457  0.2612
 6928SOL    HW121683   3.140   0.677   2.350 -0.4018  0.2094  1.2086
 6928SOL    HW221684   3.269   0.736   2.431 -0.9853  0.4301  1.9963
 6929SOL     OW21685   2.789   4.910   4.060 -0.0920  0.6135  0.4784
 6929SOL    HW121686   2.875   4.860   4.050  0.8822  2.2828  0.2277
 6929SOL    HW221687   2.746   4.921   3.970 -0.8280 -0.5833  0.6505
 6930SOL     OW21688   6.756   2.914   1.293 -0.0972  0.0404  0.6363
 6930SOL    HW121689   6.833   2.863   1.332  0.7638  0.0573 -0.9807
 6930SOL    HW221690   6.690   2.850   1.254  1.3761  0.0785 -2.1286
 6931SOL     OW21691   5.420   3.241   6.104  1.1143  0.5654 -0.0791
 6931SOL    HW121692   5.508   3.206   6.070  0.9070 -1.3615  1.2669
 6931SOL    HW221693   5.347   3.178   6.079  0.5865  0.4751  1.6287
 6932SOL     OW21694   3.435   6.581   6.209  0.0858 -0.3372 -0.1163
 6932SOL    HW121695   3.508   6.577   6.141 -0.0668 -1.1509 -0.2508
 6932SOL    HW221696   3.407   6.676   6.223  1.5388  0.0517  0.3493
 6933SOL     OW21697   2.982   5.163   4.098  0.0692 -0.3496 -0.0229
 6933SOL    HW121698   3.074   5.188   4.067  0.4530 -2.4839 -0.7421
 6933SOL    HW221699   2.978   5.165   4.198  1.1056 -0.8593  0.0375
 6934SOL     OW21700   4.251   5.951   0.811  0.0611 -0.6624 -0.3647
 6934SOL    HW121701   4.213   5.917   0.724 -0.5762  0.1517 -0.4136
 6934SOL    HW221702   4.273   6.048   0.803  0.1657 -0.6211  0.3335
 6935SOL     OW21703   4.374   5.904   1.880  0.4714 -0.1234 -0.8361
 6935SOL    HW121704   4.466   5.865   1.881  0.8368  0.7201 -0.4817
 6935SOL    HW221705   4.358   5.953   1.966 -0.4244 -0.5109 -0.7659
 6936SOL     OW21706   0.229   1.906   6.559  0.4161  0.0554 -0.2038
 6936SOL    HW121707   0.253   1.886   6.654  0.7760 -1.0010 -0.5031
 6936SOL    HW221708   0.149   1.853   6.532  0.4506  0.1797 -0.5590
 6937SOL     OW21709   0.105   4.321   0.161  0.1684 -0.1665  0.4402
 6937SOL    HW121710   0.107   4.245   0.096 -1.8920 -2.3157  2.6701
 6937SOL    HW221711   0.177   4.307   0.230  0.8044  0.8171 -0.0012
 6938SOL     OW21712   2.500   5.756   0.570 -0.0724  0.5352  0.5905
 6938SOL    HW121713   2.463   5.669   0.602 -1.0750  0.4014 -0.8976
 6938SOL    HW221714   2.435   5.800   0.509  2.4330 -0.0993 -2.8298
 6939SOL     OW21715   5.951   3.342   0.319  0.6341 -0.0289 -1.1913
 6939SOL    HW121716   5.872   3.349   0.258  0.9437 -1.1523 -1.7400
 6939SOL    HW221717   5.948   3.256   0.369  1.0739  0.3022 -0.5801
 6940SOL     OW21718   0.238   6.021   6.676 -0.2127  0.4896 -0.2084
 6940SOL    HW121719   0.181   6.103   6.681 -0.1743  0.4446  1.2787
 6940SOL    HW221720   0.324   6.036   6.724  0.8376  0.3569 -1.9474
 6941SOL     OW21721   3.619   2.447   1.482  0.7077 -0.4413  0.0589
 6941SOL    HW121722   3.544   2.438   1.547  1.3918 -1.3413  0.7560
 6941SOL    HW221723   3.583   2.472   1.392 -0.0091  4.3726  1.4470
 6942SOL     OW21724   6.059   4.832   3.946  0.2460  0.0539 -0.1717
 6942SOL    HW121725   6.030   4.767   4.017 -1.7001  0.0211 -0.9356
 6942SOL    HW221726   6.084   4.919   3.988  1.1661 -0.6175  0.7121
 6943SOL     OW21727   3.535   5.079   2.833 -0.1273  0.5204  0.0581
 6943SOL    HW121728   3.449   5.126   2.852  0.2030  0.8914  0.6825
 6943SOL    HW221729   3.519   4.981   2.825 -0.4209  0.4124  1.5939
 6944SOL     OW21730   0.472   5.368   4.473  0.1473 -0.1808 -0.4999
 6944SOL    HW121731   0.545   5.431   4.499 -0.1483  0.2716 -0.7543
 6944SOL    HW221732   0.511   5.280   4.448  0.5991  0.0353 -0.5603
 6945SOL     OW21733   3.211   2.274   0.975 -0.0766  0.0336  0.0025
 6945SOL    HW121734   3.244   2.357   1.020  2.4565 -0.2763 -1.1364
 6945SOL    HW221735   3.168   2.214   1.042 -0.8889  1.6979  1.0528
 6946SOL     OW21736   0.797   5.846   2.943  0.0673 -0.2176  0.5166
 6946SOL    HW121737   0.892   5.872   2.963  0.4055 -1.5617  0.7039
 6946SOL    HW221738   0.792   5.748   2.925 -1.7004 -0.7535  3.2894
 6947SOL     OW21739   6.504   5.962   6.066  0.5485  0.3079 -0.1676
 6947SOL    HW121740   6.473   5.941   5.973  3.0809 -0.3120 -0.9415
 6947SOL    HW221741   6.555   6.048   6.065 -0.6539  1.0737  0.9803
 6948SOL     OW21742   0.755   6.323   6.102 -0.9982  0.5724  0.1225
 6948SOL    HW121743   0.727   6.414   6.069 -0.2110 -0.1986 -3.0520
 6948SOL    HW221744   0.851   6.326   6.129 -1.4115  1.0041  1.6577
 6949SOL     OW21745   1.973   2.390   3.723 -0.0646 -0.2086 -0.0434
 6949SOL    HW121746   1.965   2.347   3.633 -1.1237 -1.5491  0.6631
 6949SOL    HW221747   1.949   2.487   3.716 -1.5855 -0.6213 -0.9536
 6950SOL     OW21748   1.779   1.486   4.458 -0.1997  0.6613  0.6816
 6950SOL    HW121749   1.854   1.551   4.454  0.9940 -0.6672  0.7342
 6950SOL    HW221750   1.792   1.424   4.535 -0.8185 -0.2235  0.0943
 6951SOL     OW21751   2.358   2.778   0.963  0.0489  0.4562  0.1118
 6951SOL    HW121752   2.353   2.693   1.015 -1.5226  0.4812  0.0746
 6951SOL    HW221753   2.452   2.812   0.963  0.6182 -1.0257  0.5108
 6952SOL     OW21754   5.200   3.542   3.072 -0.1183  0.2398  0.3579
 6952SOL    HW121755   5.241   3.576   2.987  2.0187 -0.1385  1.1707
 6952SOL    HW221756   5.160   3.452   3.056  0.2655  0.1712 -0.2561
 6953SOL     OW21757   0.638   0.543   2.005 -0.1314 -0.4126 -0.1071
 6953SOL    HW121758   0.652   0.579   2.098  0.4834 -1.1507  0.0961
 6953SOL    HW221759   0.628   0.444   2.009 -1.6305 -0.3045 -0.6792
 6954SOL     OW21760   0.027   5.391   5.035  0.1367  0.9320  0.1781
 6954SOL    HW121761   0.025   5.396   5.135 -2.6028 -1.0389  0.3322
 6954SOL    HW221762  -0.059   5.426   4.999  0.6498  0.5968 -1.4435
 6955SOL     OW21763   2.805   5.852   4.290 -0.3729  0.0279 -0.0814
 6955SOL    HW121764   2.731   5.827   4.228 -0.6946 -2.0656  1.0624
 6955SOL    HW221765   2.884   5.885   4.237 -0.7696 -1.3356 -1.5807
 6956SOL     OW21766   6.345   4.440   2.820 -0.3495 -0.4586  0.0318
 6956SOL    HW121767   6.264   4.411   2.769  1.6964 -1.6416 -2.7583
 6956SOL    HW221768   6.357   4.381   2.900 -2.6578  0.3300  1.0607
 6957SOL     OW21769   5.308   4.132   5.404  0.5538 -0.4133 -0.0845
 6957SOL    HW121770   5.247   4.115   5.482  0.3954 -0.5594 -0.2384
 6957SOL    HW221771   5.288   4.066   5.331  0.3805  0.0299 -0.4380
 6958SOL     OW21772   4.702   3.099   1.654  0.1757 -1.1886 -0.9809
 6958SOL    HW121773   4.663   3.052   1.734  0.7163  1.3143  0.8620
 6958SOL    HW221774   4.792   3.136   1.678 -0.0426  0.4155 -2.4634
 6959SOL     OW21775   5.609   2.495   3.383 -0.6217 -0.3078 -0.5380
 6959SOL    HW121776   5.652   2.405   3.395 -0.7325 -0.6392 -2.3983
 6959SOL    HW221777   5.664   2.549   3.320 -0.4200  1.0681  0.7587
 6960SOL     OW21778   4.312   5.354   2.310  0.6777  0.7855  0.1039
 6960SOL    HW121779   4.278   5.320   2.398 -1.9342 -2.3857 -1.9424
 6960SOL    HW221780   4.401   5.312   2.290  0.6341  0.4435  0.6110
 6961SOL     OW21781   4.512   4.465   3.086 -0.3734 -0.2038 -0.3353
 6961SOL    HW121782   4.471   4.504   3.004  1.8477  0.2367 -1.3352
 6961SOL    HW221783   4.500   4.527   3.163 -1.0831  0.1378 -0.7133
 6962SOL     OW21784   2.261   6.297   1.998  0.1651  0.5035 -0.5669
 6962SOL    HW121785   2.285   6.383   2.043 -0.3026  1.1955 -1.6093
 6962SOL    HW221786   2.342   6.261   1.951  0.2860  0.5367 -0.3835
 6963SOL     OW21787   0.021   6.651   5.536 -0.5191  0.3219 -0.1799
 6963SOL    HW121788   0.089   6.719   5.507 -0.6058 -0.4407 -2.3352
 6963SOL    HW221789  -0.032   6.689   5.612  0.2650  2.1608 -0.4758
 6964SOL     OW21790   3.754   2.186   5.920  0.2149  0.0301  0.3651
 6964SOL    HW121791   3.662   2.226   5.923 -0.3542 -1.2636  1.8782
 6964SOL    HW221792   3.763   2.129   5.838  0.0794  1.0090 -0.3548
 6965SOL     OW21793   2.095   1.407   6.702 -0.5320  0.2569  0.1100
 6965SOL    HW121794   2.060   1.494   6.669  1.8183  1.7035  1.2146
 6965SOL    HW221795   2.054   1.386   6.791 -0.4553  0.6667  0.2431
 6966SOL     OW21796   1.097   6.361   0.031 -0.4439  0.1344 -0.1615
 6966SOL    HW121797   1.077   6.408   0.117  1.8898 -0.4690  0.8011
 6966SOL    HW221798   1.133   6.428  -0.035 -3.3740  0.8370 -1.2082
 6967SOL     OW21799   5.782   0.290   6.499 -0.1661  0.5434  0.5307
 6967SOL    HW121800   5.809   0.386   6.503 -1.0250  0.9986 -2.6068
 6967SOL    HW221801   5.769   0.262   6.404  0.1515 -2.7509  1.3276
 6968SOL     OW21802   3.415   6.635   3.642 -0.2248 -0.1478  0.9963
 6968SOL    HW121803   3.390   6.576   3.718 -0.4956 -2.2459 -0.6327
 6968SOL    HW221804   3.514   6.637   3.631 -0.2562 -2.7913 -0.6796
 6969SOL     OW21805   2.254   1.321   1.263 -0.2123  0.3534  0.3677
 6969SOL    HW121806   2.218   1.229   1.276  0.2498  0.5185  3.7774
 6969SOL    HW221807   2.333   1.318   1.202 -1.5497 -1.1008 -1.3992
 6970SOL     OW21808   4.187   0.260   4.893  0.2976 -0.1438 -0.0345
 6970SOL    HW121809   4.286   0.272   4.886  0.0552  1.0601 -2.8676
 6970SOL    HW221810   4.142   0.346   4.872 -1.4037 -0.5890  1.5500
 6971SOL     OW21811   6.612   4.061   5.763 -0.0484 -0.4071  0.1184
 6971SOL    HW121812   6.681   4.093   5.828  0.0925 -2.9142  1.2922
 6971SOL    HW221813   6.649   4.067   5.670  1.4189 -0.8919  0.6447
 6972SOL     OW21814   4.977   3.441   2.627 -0.7383  0.2833 -0.2485
 6972SOL    HW121815   4.926   3.517   2.667 -0.6861  0.3579 -0.3235
 6972SOL    HW221816   5.001   3.376   2.699 -1.7298 -0.2149 -0.3444
 6973SOL     OW21817   6.735   1.767   3.061  0.3312  0.0933  0.3048
 6973SOL    HW121818   6.723   1.863   3.087 -2.6373 -0.5643  1.9343
 6973SOL    HW221819   6.826   1.736   3.088  1.1391  2.2637  0.2851
 6974SOL     OW21820   4.067   4.001   1.826 -0.9098 -0.3645  0.0477
 6974SOL    HW121821   4.058   3.946   1.909 -0.8652  0.4696  0.6210
 6974SOL    HW221822   3.982   4.052   1.811  0.1838  2.1057  1.5204
 6975SOL     OW21823   2.427   5.084   5.588  1.0508 -0.2846 -0.1389
 6975SOL    HW121824   2.524   5.067   5.603  1.0257 -0.0847  0.2745
 6975SOL    HW221825   2.377   4.998   5.595  1.1157 -0.2862  0.3377
 6976SOL     OW21826   4.312   4.664   4.530 -0.3252 -0.0518 -0.4020
 6976SOL    HW121827   4.385   4.732   4.542  0.1261 -0.1970 -2.0157
 6976SOL    HW221828   4.335   4.580   4.579 -0.3775  0.5647  0.7227
 6977SOL     OW21829   5.008   4.673   4.038 -0.0936 -0.1512  0.5110
 6977SOL    HW121830   5.054   4.592   4.002 -0.2548  0.5114 -1.2647
 6977SOL    HW221831   4.912   4.650   4.056 -0.3078 -0.1749 -0.6419
 6978SOL     OW21832   0.174   1.066   2.688  0.6898  0.1518 -0.1268
 6978SOL    HW121833   0.126   1.034   2.770 -1.4132  1.2416 -0.8512
 6978SOL    HW221834   0.188   0.989   2.625  2.4733 -0.7248  1.2570
 6979SOL     OW21835   2.090   3.499   2.217 -0.3773  0.1408 -0.0482
 6979SOL    HW121836   2.103   3.403   2.240  0.1846  0.1106 -0.4708
 6979SOL    HW221837   2.154   3.525   2.145 -1.9495  0.2967 -1.4406
 6980SOL     OW21838   1.427   4.138   1.765  0.4117  0.4414  0.5848
 6980SOL    HW121839   1.450   4.225   1.721  2.4336  0.8336  2.2300
 6980SOL    HW221840   1.492   4.120   1.839  1.4524 -3.5702 -1.0633
 6981SOL     OW21841   3.919   3.024   6.068  0.6372  0.4734 -0.5831
 6981SOL    HW121842   3.854   2.948   6.073  1.3518 -0.2292 -1.5557
 6981SOL    HW221843   3.878   3.101   6.020 -0.2131  0.8578  0.7101
 6982SOL     OW21844   0.729   0.013   0.645 -0.2203  0.5004  0.9820
 6982SOL    HW121845   0.690   0.097   0.607 -0.5413  0.2772  0.8220
 6982SOL    HW221846   0.725   0.018   0.745 -0.1525  0.7149  0.9762
 6983SOL     OW21847   0.328   0.808   2.976 -0.2903 -0.0461 -0.2424
 6983SOL    HW121848   0.412   0.846   3.016 -0.6100  1.0243 -0.5355
 6983SOL    HW221849   0.332   0.817   2.876 -0.6945 -0.0946 -0.2634
 6984SOL     OW21850   1.694   4.328   3.987 -0.0431 -0.0853  0.5381
 6984SOL    HW121851   1.655   4.322   4.079  3.1233 -1.8900  1.9357
 6984SOL    HW221852   1.761   4.254   3.974 -0.0513  0.3587 -3.1039
 6985SOL     OW21853   4.619   3.960   1.376  0.1668 -0.2606  0.0130
 6985SOL    HW121854   4.528   3.929   1.404 -0.6140  1.0728 -0.9244
 6985SOL    HW221855   4.610   4.037   1.313  1.9178 -0.9683 -1.1854
 6986SOL     OW21856   4.477   6.339   3.906  0.2538  0.3430 -0.4652
 6986SOL    HW121857   4.502   6.356   4.001 -1.2881  1.1714 -0.1687
 6986SOL    HW221858   4.546   6.282   3.862  0.7748 -0.4061  1.2741
 6987SOL     OW21859   0.657   3.328   5.443 -0.3377  0.2105  0.4073
 6987SOL    HW121860   0.676   3.232   5.422 -0.8692 -0.1796  1.6215
 6987SOL    HW221861   0.594   3.365   5.375  0.2496 -0.1432 -0.3502
 6988SOL     OW21862   0.629   0.803   4.707 -0.0605  0.0215  0.8593
 6988SOL    HW121863   0.577   0.886   4.683  0.1678 -0.1083 -0.1419
 6988SOL    HW221864   0.722   0.812   4.673 -0.0257 -0.6271  0.7804
 6989SOL     OW21865   6.392   2.960   4.256 -0.1059 -0.1572  0.6706
 6989SOL    HW121866   6.358   2.906   4.178  1.0092 -0.0392  0.0868
 6989SOL    HW221867   6.315   2.983   4.316 -1.0354  0.0016 -0.5425
 6990SOL     OW21868   1.813   5.513   5.209  0.5365 -0.0473 -0.2726
 6990SOL    HW121869   1.860   5.441   5.259 -0.4183 -0.4335  0.0728
 6990SOL    HW221870   1.827   5.601   5.255 -1.5960 -0.6055  1.6165
 6991SOL     OW21871   5.123   5.671   4.729  0.6641 -0.1234 -0.0160
 6991SOL    HW121872   5.127   5.599   4.660  0.2333 -0.7340  0.5859
 6991SOL    HW221873   5.184   5.648   4.805 -0.3744 -0.4606  0.7328
 6992SOL     OW21874   1.161   4.484   6.925  0.6498 -0.3959  0.5432
 6992SOL    HW121875   1.200   4.480   6.833  2.2238  0.9382  1.1001
 6992SOL    HW221876   1.080   4.426   6.929  0.3605 -0.2712 -1.7618
 6993SOL     OW21877   4.307   1.778   2.940  0.4398  0.1936 -0.0984
 6993SOL    HW121878   4.307   1.679   2.949  0.3079  0.1803 -0.2617
 6993SOL    HW221879   4.400   1.812   2.952  0.4346  0.0811  0.2991
 6994SOL     OW21880   2.321   0.369   3.078 -0.2027  0.1387  0.4967
 6994SOL    HW121881   2.411   0.326   3.065 -0.7645 -1.2348  0.9591
 6994SOL    HW221882   2.272   0.371   2.990  0.1236  0.5441  0.3203
 6995SOL     OW21883   0.904   5.873   6.717  0.1618  0.3500 -0.0405
 6995SOL    HW121884   0.878   5.795   6.774  1.0127  0.4859  0.5429
 6995SOL    HW221885   0.935   5.839   6.628  1.9912 -0.1240  0.7261
 6996SOL     OW21886   2.748   1.112   0.554 -0.0547  0.4306  0.0717
 6996SOL    HW121887   2.754   1.110   0.654 -0.1822  1.4609  0.1052
 6996SOL    HW221888   2.677   1.177   0.526 -0.0351  0.1347 -0.6931
 6997SOL     OW21889   5.894   5.993   6.441 -0.4655  1.3732 -0.0902
 6997SOL    HW121890   5.889   6.030   6.533  0.3876  2.3139 -0.4072
 6997SOL    HW221891   5.963   6.043   6.388  1.0719 -0.9432 -0.4087
 6998SOL     OW21892   5.571   1.670   5.371  0.3031  0.3183 -0.1169
 6998SOL    HW121893   5.472   1.664   5.385  0.4648 -1.3907  0.6106
 6998SOL    HW221894   5.590   1.731   5.295 -1.4648 -0.9120 -1.6498
 6999SOL     OW21895   6.516   2.026   1.043  0.1869  0.0414  0.1901
 6999SOL    HW121896   6.475   2.114   1.020 -0.3063 -0.7611 -2.3617
 6999SOL    HW221897   6.615   2.036   1.050  0.2111  0.6958 -0.8235
 7000SOL     OW21898   0.373   4.600   4.545 -0.5627  0.0007 -0.0137
 7000SOL    HW121899   0.457   4.573   4.497 -1.6802 -0.1276 -1.9892
 7000SOL    HW221900   0.364   4.700   4.542  0.2294  0.1461  1.5059
 7001SOL     OW21901   6.386   1.910   5.170 -0.2332  0.0156  0.5705
 7001SOL    HW121902   6.483   1.916   5.194 -0.0211 -0.7760 -0.0478
 7001SOL    HW221903   6.336   1.860   5.241  0.1939 -1.3616 -0.0659
 7002SOL     OW21904   0.902   5.102   2.474 -0.5086  0.1243 -0.3212
 7002SOL    HW121905   0.947   5.174   2.525  1.9953 -1.2380 -0.4726
 7002SOL    HW221906   0.869   5.031   2.537 -1.1680  0.4120 -0.3290
 7003SOL     OW21907   0.633   4.640   0.629  0.1504  0.3039 -0.8625
 7003SOL    HW121908   0.686   4.565   0.589 -0.3951  0.4624 -1.9176
 7003SOL    HW221909   0.543   4.605   0.658  0.5610  0.1773  0.3164
 7004SOL     OW21910   1.071   1.069   1.910  0.5854 -0.0550  0.3476
 7004SOL    HW121911   1.066   1.167   1.892  2.3774  0.1123  0.6572
 7004SOL    HW221912   1.145   1.050   1.975  0.6255 -1.6749 -0.1250
 7005SOL     OW21913   1.274   5.438   0.216 -0.4467 -0.2462 -0.5169
 7005SOL    HW121914   1.251   5.528   0.181  0.6005  0.5124  0.6799
 7005SOL    HW221915   1.218   5.369   0.170 -0.2018  0.8410 -2.5188
 7006SOL     OW21916   3.556   0.147   3.869  0.5085 -0.0304  0.5320
 7006SOL    HW121917   3.560   0.096   3.955 -0.4891 -0.0053  0.5997
 7006SOL    HW221918   3.531   0.085   3.794 -0.8152  0.3711  0.6331
 7007SOL     OW21919   2.078   6.379   6.401  0.1802  0.4530 -0.0958
 7007SOL    HW121920   2.116   6.397   6.309 -0.2181 -0.0730 -0.3662
 7007SOL    HW221921   2.151   6.388   6.469  0.4509  0.9793 -0.4465
 7008SOL     OW21922   6.756   4.156   2.120  0.2677  0.6781 -0.2894
 7008SOL    HW121923   6.760   4.063   2.156 -2.6638  0.1099 -1.2325
 7008SOL    HW221924   6.838   4.173   2.065  1.3093 -0.9610  0.6582
 7009SOL     OW21925   6.751   5.672   1.172 -0.0910  0.0815  0.3962
 7009SOL    HW121926   6.657   5.674   1.140 -0.2959 -1.7765  0.7323
 7009SOL    HW221927   6.795   5.760   1.155 -1.4835  0.5511 -0.9663
 7010SOL     OW21928   0.198   2.625   2.024 -0.6057  0.4093 -0.2315
 7010SOL    HW121929   0.161   2.583   2.107 -1.0200  0.0793 -0.5806
 7010SOL    HW221930   0.141   2.702   1.996  1.0421  2.3094  1.3305
 7011SOL     OW21931   1.105   5.255   0.120 -0.7341 -0.3204  0.1271
 7011SOL    HW121932   1.029   5.247   0.056 -1.8135  1.4811  1.1137
 7011SOL    HW221933   1.157   5.169   0.121 -2.6781 -1.5602 -0.6542
 7012SOL     OW21934   1.679   4.175   6.128 -0.1869 -0.7277 -0.5875
 7012SOL    HW121935   1.651   4.209   6.038  0.8409  2.7879  0.2681
 7012SOL    HW221936   1.778   4.186   6.138 -0.1382 -2.0099  0.6728
 7013SOL     OW21937   3.327   0.543   6.440 -0.8746  0.3495 -0.4307
 7013SOL    HW121938   3.420   0.543   6.403 -1.1833  0.3744 -1.2176
 7013SOL    HW221939   3.327   0.584   6.531  0.1979 -1.2925  0.3571
 7014SOL     OW21940   0.329   3.563   1.845  0.4177  0.3705  0.1781
 7014SOL    HW121941   0.326   3.537   1.749 -2.8992  2.8075 -0.5364
 7014SOL    HW221942   0.359   3.658   1.854  2.4936 -0.3523  1.8025
 7015SOL     OW21943   5.167   0.108   3.138 -0.6005  0.0785  0.3776
 7015SOL    HW121944   5.210   0.017   3.142 -1.0967 -0.1286  1.6113
 7015SOL    HW221945   5.238   0.178   3.135 -0.1392 -0.2739  2.0677
 7016SOL     OW21946   1.316   4.267   0.804  0.1793  0.0252  0.1094
 7016SOL    HW121947   1.254   4.287   0.879  0.6008  0.3846  0.3733
 7016SOL    HW221948   1.355   4.175   0.816  0.1917  0.0538  0.2945
 7017SOL     OW21949   4.929   2.952   0.854  0.2510  0.5768 -0.6061
 7017SOL    HW121950   4.908   2.881   0.787  0.5199 -0.2766  0.1783
 7017SOL    HW221951   5.027   2.968   0.856  0.5086 -0.8313  0.9070
 7018SOL     OW21952   0.234   3.252   4.011 -0.2605 -0.6876 -0.3840
 7018SOL    HW121953   0.330   3.249   4.038 -0.4299  1.0080  0.5432
 7018SOL    HW221954   0.178   3.207   4.081 -0.3322  0.2451  0.1685
 7019SOL     OW21955   1.737   5.479   0.954  0.1722 -0.4018 -0.2779
 7019SOL    HW121956   1.779   5.437   1.035 -0.8735  1.0462  1.0950
 7019SOL    HW221957   1.644   5.444   0.942 -0.2828  0.5969  0.1841
 7020SOL     OW21958   0.418   6.590   6.196  0.1104  0.1516 -0.1619
 7020SOL    HW121959   0.466   6.586   6.284 -0.8818  0.7432  0.4329
 7020SOL    HW221960   0.439   6.677   6.151 -1.2517  0.9411  0.6422
 7021SOL     OW21961   0.391   2.725   3.768  0.1549  0.2762 -0.1387
 7021SOL    HW121962   0.334   2.649   3.738  1.9704 -0.7587 -1.1388
 7021SOL    HW221963   0.487   2.702   3.755  0.9014  1.4979  2.6046
 7022SOL     OW21964   0.780   3.599   0.008 -0.0194 -0.0755 -0.5041
 7022SOL    HW121965   0.845   3.529   0.038  2.3802  3.4521  3.7894
 7022SOL    HW221966   0.825   3.659  -0.059 -0.8026 -0.4830 -1.4274
 7023SOL     OW21967   0.064   6.991   6.628  0.7344  0.7497 -0.4735
 7023SOL    HW121968   0.020   7.059   6.570 -0.3310  0.1819 -0.3503
 7023SOL    HW221969   0.099   7.035   6.711 -0.7160  1.0169  0.0131
 7024SOL     OW21970   3.341   5.811   3.691 -0.4267  0.2900 -0.6195
 7024SOL    HW121971   3.429   5.772   3.663 -0.7092 -0.2908 -0.7298
 7024SOL    HW221972   3.267   5.759   3.648 -0.8154  1.0909 -0.9319
 7025SOL     OW21973   4.247   0.748   6.552 -0.2506  0.1708  0.6424
 7025SOL    HW121974   4.193   0.686   6.496 -0.6884  0.9156  0.2309
 7025SOL    HW221975   4.327   0.699   6.588 -1.1193 -0.9163  1.1726
 7026SOL     OW21976   3.372   1.562   1.668 -0.2163  0.0358  0.3373
 7026SOL    HW121977   3.274   1.558   1.684 -0.3132 -1.9385 -0.4884
 7026SOL    HW221978   3.420   1.504   1.734  0.2952  0.1679  0.0950
 7027SOL     OW21979   3.397   2.819   6.290 -0.0350 -0.4388  0.3538
 7027SOL    HW121980   3.411   2.866   6.377  1.6296  0.3222 -0.2991
 7027SOL    HW221981   3.301   2.828   6.262 -0.1866  0.8377  1.2341
 7028SOL     OW21982   4.300   6.653   3.660 -0.1818 -0.2268  0.2198
 7028SOL    HW121983   4.325   6.667   3.756  0.5618  2.9360 -0.2999
 7028SOL    HW221984   4.252   6.735   3.627  2.0060  0.0005 -2.7888
 7029SOL     OW21985   2.916   3.355   4.319 -0.3782  0.2158  0.2515
 7029SOL    HW121986   2.900   3.411   4.237  0.2010  2.5004  1.6156
 7029SOL    HW221987   2.991   3.291   4.301 -1.2139 -0.3442 -1.4398
 7030SOL     OW21988   6.802   5.298   6.508 -0.8532  0.3944  0.2522
 7030SOL    HW121989   6.835   5.362   6.438 -0.6834 -0.4955 -0.5040
 7030SOL    HW221990   6.705   5.315   6.525 -1.0721  0.1932 -0.7097
 7031SOL     OW21991   6.719   3.815   1.708  0.5305 -0.1146 -0.2690
 7031SOL    HW121992   6.812   3.781   1.698  1.5271  2.5671 -0.9441
 7031SOL    HW221993   6.671   3.808   1.620  1.7314  2.7366 -1.2568
 7032SOL     OW21994   2.463   5.095   4.316 -1.1533  0.1446 -0.4705
 7032SOL    HW121995   2.560   5.073   4.317 -1.2470 -0.3324  0.7934
 7032SOL    HW221996   2.445   5.166   4.385 -1.2814  2.3218 -2.6258
 7033SOL     OW21997   1.973   2.263   4.863  0.2982  0.1755  0.1913
 7033SOL    HW121998   1.971   2.164   4.881  1.0444 -0.1230 -1.2248
 7033SOL    HW221999   1.886   2.290   4.820  0.5035 -0.0840 -0.4040
 7034SOL     OW22000   4.819   3.011   2.757 -0.0741 -0.0949 -0.0993
 7034SOL    HW122001   4.846   2.985   2.850 -0.4971  0.3638  0.1604
 7034SOL    HW222002   4.769   2.935   2.715  0.2948 -0.3812 -0.0308
 7035SOL     OW22003   3.801   1.258   0.769 -0.0811 -0.2732 -0.7838
 7035SOL    HW122004   3.777   1.284   0.862  0.2411  0.2838 -0.8565
 7035SOL    HW222005   3.736   1.300   0.705  0.8122  0.8787 -0.9478
 7036SOL     OW22006   6.799   0.694   1.103 -0.3833  0.4757  0.4900
 7036SOL    HW122007   6.847   0.722   1.186  0.1893  1.6458 -0.2018
 7036SOL    HW222008   6.861   0.700   1.025 -0.4962 -2.0163  0.1540
 7037SOL     OW22009   0.929   2.676   3.996  0.2475 -0.5656  0.6554
 7037SOL    HW122010   0.960   2.730   3.918  0.3890 -0.5724  0.7076
 7037SOL    HW222011   0.921   2.736   4.076 -1.7048 -0.1410  0.2013
 7038SOL     OW22012   2.592   3.630   6.502  0.1336  0.5005  0.0728
 7038SOL    HW122013   2.601   3.675   6.591  0.2950 -0.1436  0.3842
 7038SOL    HW222014   2.566   3.698   6.433 -0.8320  0.8532  0.7654
 7039SOL     OW22015   6.641   1.466   2.583  0.0357  0.0425 -0.7714
 7039SOL    HW122016   6.581   1.407   2.636 -0.2672  0.2082 -0.9250
 7039SOL    HW222017   6.698   1.409   2.523  0.7196 -0.1681  0.0757
 7040SOL     OW22018   4.343   2.394   4.499  0.2380 -0.5470  0.5421
 7040SOL    HW122019   4.368   2.440   4.414 -0.2337 -0.6054  0.3670
 7040SOL    HW222020   4.245   2.374   4.498 -0.3303  1.7084  2.1464
 7041SOL     OW22021   6.756   6.424   1.945  0.2466  0.1004 -0.4598
 7041SOL    HW122022   6.809   6.503   1.975 -0.1843  0.2768 -0.1518
 7041SOL    HW222023   6.683   6.455   1.883  0.8245 -0.2004 -1.3160
 7042SOL     OW22024   5.097   5.019   5.918  0.1550  0.2071  0.2307
 7042SOL    HW122025   5.045   4.979   5.993  0.3922 -0.9583 -0.2134
 7042SOL    HW222026   5.034   5.067   5.856 -0.2035  0.0830  0.4980
 7043SOL     OW22027   1.693   0.193   6.931 -0.5846 -0.7337  0.4920
 7043SOL    HW122028   1.636   0.241   6.864  0.5309  1.5235  1.0691
 7043SOL    HW222029   1.641   0.180   7.016 -0.5724  0.5128  0.7101
 7044SOL     OW22030   4.203   0.883   4.188  0.2069 -0.4063 -0.4934
 7044SOL    HW122031   4.223   0.974   4.150 -1.1794  0.0436 -0.1883
 7044SOL    HW222032   4.217   0.814   4.117 -2.1522  0.4054 -1.8755
 7045SOL     OW22033   3.613   2.068   2.539  0.2409 -0.3593 -0.3310
 7045SOL    HW122034   3.603   2.065   2.440  1.6759  0.3258 -0.5138
 7045SOL    HW222035   3.691   2.126   2.564 -0.0970 -0.5055  1.1998
 7046SOL     OW22036   0.963   6.885   2.409  0.1109  0.5553  0.0436
 7046SOL    HW122037   1.032   6.828   2.364  1.4971  1.3621  1.0711
 7046SOL    HW222038   0.937   6.960   2.349  0.8689  0.8016  0.0110
 7047SOL     OW22039   0.604   6.950   1.326  0.1658  0.1383  0.3052
 7047SOL    HW122040   0.598   6.883   1.400 -0.3973  0.2510  0.3629
 7047SOL    HW222041   0.697   6.986   1.322  0.0222  0.6796  1.4527
 7048SOL     OW22042   2.690   5.123   6.253  0.1186  0.9359 -0.2363
 7048SOL    HW122043   2.685   5.216   6.214 -1.9620  0.8539 -0.2989
 7048SOL    HW222044   2.707   5.057   6.180  0.9140  1.1876 -0.2901
 7049SOL     OW22045   2.110   1.342   4.234 -0.3569  0.0836 -0.4387
 7049SOL    HW122046   2.079   1.295   4.152 -0.7260  0.4965 -0.5380
 7049SOL    HW222047   2.210   1.345   4.235 -0.3611  1.4559 -1.6690
 7050SOL     OW22048   4.050   5.810   0.170  0.2249 -0.2118 -0.0773
 7050SOL    HW122049   3.992   5.865   0.110  1.3009 -0.3390 -1.2772
 7050SOL    HW222050   3.994   5.742   0.217 -0.6830  0.0747 -0.7150
 7051SOL     OW22051   0.619   1.538   2.605 -0.3393 -0.0631 -0.2460
 7051SOL    HW122052   0.648   1.634   2.599  2.1048 -0.7824 -1.2688
 7051SOL    HW222053   0.545   1.521   2.540 -1.1187  1.2126  0.2771
 7052SOL     OW22054   6.892   1.898   3.797 -0.1351  0.3607  0.3451
 7052SOL    HW122055   6.929   1.858   3.713 -1.5342  0.1973 -0.2134
 7052SOL    HW222056   6.911   1.836   3.874  1.1806  0.5253  0.1891
 7053SOL     OW22057   0.560   4.495   2.942  0.0656 -0.0514 -0.2524
 7053SOL    HW122058   0.574   4.503   2.843 -0.7966 -1.0489 -0.4791
 7053SOL    HW222059   0.591   4.405   2.972 -1.3245 -0.4406  0.0590
 7054SOL     OW22060   4.317   6.502   6.599 -0.4999 -0.0255  0.4420
 7054SOL    HW122061   4.378   6.559   6.654  0.7057 -0.6587 -0.1810
 7054SOL    HW222062   4.242   6.468   6.656  0.0475  0.3035  1.3786
 7055SOL     OW22063   2.936   0.703   2.123 -0.0189 -0.1730 -0.4756
 7055SOL    HW122064   2.996   0.629   2.154  2.4394  0.8866 -2.3985
 7055SOL    HW222065   2.937   0.777   2.190 -1.2135 -1.1432  0.6749
 7056SOL     OW22066   6.673   0.299   1.125 -0.0053  0.2195 -0.0707
 7056SOL    HW122067   6.711   0.211   1.154  0.1812 -0.5170 -2.3534
 7056SOL    HW222068   6.662   0.299   1.026 -1.7064  2.1243  0.0623
 7057SOL     OW22069   2.515   5.333   5.439  0.4729 -0.4553  0.2285
 7057SOL    HW122070   2.433   5.352   5.492 -0.1389 -2.5570  0.1166
 7057SOL    HW222071   2.503   5.367   5.345 -0.6357 -1.5154 -0.0309
 7058SOL     OW22072   4.427   3.236   5.526 -0.6590  0.0768  1.0072
 7058SOL    HW122073   4.464   3.304   5.463 -2.0577 -0.4384 -0.4486
 7058SOL    HW222074   4.480   3.236   5.610  2.3115 -0.3154 -0.7331
 7059SOL     OW22075   1.368   1.164   2.411 -0.4971 -0.3257  0.1382
 7059SOL    HW122076   1.318   1.242   2.449 -2.0636 -1.0657 -0.3247
 7059SOL    HW222077   1.433   1.196   2.342  0.5389  0.7685  1.5633
 7060SOL     OW22078   3.391   3.288   1.539 -0.1250 -0.3348 -0.3481
 7060SOL    HW122079   3.350   3.204   1.503  2.2396 -0.9640 -1.8339
 7060SOL    HW222080   3.486   3.294   1.508  0.0454  2.4788  0.4720
 7061SOL     OW22081   6.532   5.821   2.449  0.3346 -0.1765  0.1179
 7061SOL    HW122082   6.515   5.846   2.354  1.4299  4.1005  0.8361
 7061SOL    HW222083   6.450   5.841   2.504  0.3138 -0.8872  0.3572
 7062SOL     OW22084   3.366   0.081   5.903  0.4901 -0.3796 -0.3560
 7062SOL    HW122085   3.395   0.155   5.841  0.7790 -0.4040 -0.2546
 7062SOL    HW222086   3.447   0.032   5.936  0.5072  0.8138  1.5243
 7063SOL     OW22087   0.989   1.210   1.013  0.3314  0.0892 -0.3528
 7063SOL    HW122088   0.937   1.261   0.945 -2.0533 -0.3980  1.0168
 7063SOL    HW222089   1.016   1.272   1.087 -1.0309 -0.2299  0.4417
 7064SOL     OW22090   2.781   2.850   5.590  0.1203 -0.5206 -0.1756
 7064SOL    HW122091   2.856   2.908   5.621 -2.1316  2.3303  0.4626
 7064SOL    HW222092   2.758   2.783   5.660  0.6704  0.0743  0.5861
 7065SOL     OW22093   4.006   1.198   1.857  0.4224  0.5103 -0.3237
 7065SOL    HW122094   3.960   1.110   1.849  1.4171 -0.2511  1.5872
 7065SOL    HW222095   3.937   1.270   1.868 -0.4035  0.0222 -2.0241
 7066SOL     OW22096   5.248   2.816   0.293 -0.3674  0.0711  0.3505
 7066SOL    HW122097   5.324   2.764   0.333 -0.9655 -1.4906 -0.4479
 7066SOL    HW222098   5.282   2.904   0.258  1.3582 -1.0939 -1.0961
 7067SOL     OW22099   2.361   5.049   6.086  0.1843 -0.0001 -0.1556
 7067SOL    HW122100   2.382   5.147   6.084 -1.7196  0.4509 -0.6111
 7067SOL    HW222101   2.325   5.022   5.996 -0.3823 -0.8409  0.3139
 7068SOL     OW22102   4.441   5.301   1.690  0.0910 -0.6525 -0.8937
 7068SOL    HW122103   4.471   5.250   1.770 -1.7889 -1.3351 -0.5749
 7068SOL    HW222104   4.489   5.389   1.686  1.2528 -1.2111  0.1606
 7069SOL     OW22105   4.337   1.209   5.972  0.3418 -0.8165  0.1748
 7069SOL    HW122106   4.430   1.237   5.996  0.9175 -2.2414 -0.2642
 7069SOL    HW222107   4.271   1.264   6.022  1.2874  2.8652 -2.2198
 7070SOL     OW22108   5.756   2.492   4.146  0.1861  0.1541  0.6533
 7070SOL    HW122109   5.773   2.568   4.082 -0.1542  0.0763  0.4688
 7070SOL    HW222110   5.814   2.502   4.226 -1.1919  1.6570  1.5206
 7071SOL     OW22111   4.145   5.513   0.362 -0.3421  0.7121  0.0416
 7071SOL    HW122112   4.163   5.475   0.453 -0.3617  0.2998 -0.1207
 7071SOL    HW222113   4.228   5.509   0.307 -0.9414 -1.6204 -0.8617
 7072SOL     OW22114   1.865   5.107   5.791  0.2270  0.3356  0.0608
 7072SOL    HW122115   1.957   5.148   5.794  0.7987 -0.9468  0.3856
 7072SOL    HW222116   1.859   5.046   5.712 -0.3730  0.4660  0.0057
 7073SOL     OW22117   4.785   6.745   6.781 -0.6408  0.3934  0.0462
 7073SOL    HW122118   4.784   6.803   6.862 -1.2475  1.3664 -0.6488
 7073SOL    HW222119   4.691   6.722   6.755 -0.4571  0.2200 -0.4787
 7074SOL     OW22120   6.392   3.096   2.622  0.5966  0.4682  0.4381
 7074SOL    HW122121   6.407   3.055   2.712  1.2809  0.2770  0.2500
 7074SOL    HW222122   6.372   3.025   2.556 -1.2071  0.7161  0.6653
 7075SOL     OW22123   2.791   5.201   0.887  0.3715 -0.3398 -0.5159
 7075SOL    HW122124   2.797   5.294   0.925  1.7936 -0.0813 -1.3050
 7075SOL    HW222125   2.879   5.175   0.847  0.3317 -2.4635  0.6369
 7076SOL     OW22126   6.498   0.729   6.494 -0.5118 -0.1864 -0.4733
 7076SOL    HW122127   6.577   0.776   6.455 -1.1307  0.5166 -0.9116
 7076SOL    HW222128   6.445   0.685   6.422  0.3831 -2.1116 -0.0060
 7077SOL     OW22129   3.736   5.946   2.656  0.1422 -0.5540 -0.1224
 7077SOL    HW122130   3.752   5.967   2.752  0.1638 -0.1138 -0.2197
 7077SOL    HW222131   3.821   5.914   2.614  0.0415 -1.1293  0.0951
 7078SOL     OW22132   0.056   2.019   6.111  0.0317 -0.3237 -0.1576
 7078SOL    HW122133  -0.036   1.993   6.081 -0.0791 -0.1593  0.0381
 7078SOL    HW222134   0.054   2.045   6.207  0.0223  0.9253 -0.4697
 7079SOL     OW22135   3.056   6.343   6.341  0.4624 -0.1712 -0.5094
 7079SOL    HW122136   3.153   6.342   6.363  0.5453 -0.6309 -0.8761
 7079SOL    HW222137   3.039   6.404   6.264  0.3707  0.3766 -0.0586
 7080SOL     OW22138   3.257   2.228   0.151 -0.1548  0.5464  0.8784
 7080SOL    HW122139   3.330   2.195   0.211 -0.2004 -1.0271  0.0969
 7080SOL    HW222140   3.288   2.310   0.103  2.3329 -1.7177 -1.7371
 7081SOL     OW22141   3.170   5.185   0.043  0.0003  0.5017 -0.0274
 7081SOL    HW122142   3.176   5.098  -0.008 -0.4695  0.9683 -0.9065
 7081SOL    HW222143   3.118   5.170   0.127 -3.7246  0.6871 -2.0776
 7082SOL     OW22144   3.241   5.892   1.884  0.0288  0.0264  0.3430
 7082SOL    HW122145   3.300   5.907   1.805  0.1802  1.0241  0.6348
 7082SOL    HW222146   3.148   5.918   1.861  0.0253  0.0815  0.4208
 7083SOL     OW22147   5.069   2.117   2.496  0.4845 -0.3536 -0.0944
 7083SOL    HW122148   4.983   2.160   2.470  0.4398 -1.1250 -1.2885
 7083SOL    HW222149   5.121   2.179   2.553 -0.7012  0.2675  0.3472
 7084SOL     OW22150   0.825   4.455   0.585 -0.7775  0.3259 -0.2078
 7084SOL    HW122151   0.916   4.469   0.543 -0.3965  0.2229  0.5736
 7084SOL    HW222152   0.835   4.448   0.684 -1.6736  0.5126 -0.1011
 7085SOL     OW22153   6.623   3.342   1.559  0.2118  0.0760 -1.2719
 7085SOL    HW122154   6.655   3.368   1.650 -2.1067  0.1696 -0.3963
 7085SOL    HW222155   6.698   3.302   1.507  1.8050  0.7780  0.3689
 7086SOL     OW22156   4.477   6.373   4.180 -0.2057 -0.7435  0.0079
 7086SOL    HW122157   4.466   6.288   4.232 -0.8028 -0.1803  0.8124
 7086SOL    HW222158   4.437   6.449   4.231 -0.6315 -0.1462 -1.1928
 7087SOL     OW22159   5.514   3.606   3.746 -0.4067 -0.2348 -0.0006
 7087SOL    HW122160   5.612   3.613   3.765 -0.3062  0.9768 -0.8226
 7087SOL    HW222161   5.462   3.649   3.820 -0.1759  1.4827 -0.7964
 7088SOL     OW22162   5.800   3.317   4.413 -0.0400 -0.3056 -0.0327
 7088SOL    HW122163   5.881   3.315   4.472  0.8636  0.4472 -1.1788
 7088SOL    HW222164   5.730   3.256   4.449  0.8353 -0.5647  1.2862
 7089SOL     OW22165   3.174   6.604   1.486  0.1818  0.0110  0.3705
 7089SOL    HW122166   3.098   6.579   1.546 -0.9644 -0.1789 -1.1089
 7089SOL    HW222167   3.160   6.565   1.396  1.2989  1.2092 -0.3675
 7090SOL     OW22168   4.367   2.717   1.002  0.0107  0.2455 -0.0118
 7090SOL    HW122169   4.352   2.790   1.068 -2.2159 -0.4891  0.3725
 7090SOL    HW222170   4.334   2.630   1.040 -0.2167 -0.4067 -1.6247
 7091SOL     OW22171   6.747   6.965   6.892  0.0050 -0.1233  0.2719
 7091SOL    HW122172   6.741   7.060   6.863 -0.0703 -0.1544  0.1830
 7091SOL    HW222173   6.784   6.910   6.817  0.1574 -0.1446  0.3629
 7092SOL     OW22174   3.077   0.921   5.756 -0.0007  1.1648 -0.1255
 7092SOL    HW122175   3.023   0.928   5.840 -0.3361 -0.7465 -0.1211
 7092SOL    HW222176   3.120   1.008   5.736  0.6227  1.5029  2.3918
 7093SOL     OW22177   3.100   3.036   0.111  0.1665 -0.0487  0.4247
 7093SOL    HW122178   3.022   3.078   0.157  0.3484  0.3529  0.3705
 7093SOL    HW222179   3.173   3.018   0.177  0.7415  1.2630  0.1770
 7094SOL     OW22180   4.881   2.374   5.034 -0.0497 -1.3761 -0.0000
 7094SOL    HW122181   4.805   2.322   5.074 -0.2577 -0.4501  0.8377
 7094SOL    HW222182   4.845   2.441   4.970 -0.0928  0.0258  1.4399
 7095SOL     OW22183   4.564   4.689   4.806  0.3425  0.1358 -0.1464
 7095SOL    HW122184   4.511   4.655   4.884 -3.8784 -1.0681 -3.1925
 7095SOL    HW222185   4.610   4.612   4.762  2.6952  0.8099  0.9389
 7096SOL     OW22186   0.859   4.926   6.466 -0.2855 -0.2938 -0.1910
 7096SOL    HW122187   0.953   4.902   6.489  0.2401 -0.0250 -1.9588
 7096SOL    HW222188   0.799   4.900   6.542  0.9372 -2.3494  0.1526
 7097SOL     OW22189   5.489   2.654   3.886  0.0168  0.2650 -0.5155
 7097SOL    HW122190   5.563   2.645   3.819 -1.1381  0.7371 -1.8833
 7097SOL    HW222191   5.513   2.602   3.968  1.9010  0.4781 -0.8837
 7098SOL     OW22192   0.081   6.355   2.919 -0.1975 -0.1213  0.1868
 7098SOL    HW122193   0.069   6.339   2.820 -2.9282  1.6444  0.1427
 7098SOL    HW222194   0.099   6.451   2.935 -1.3429 -0.1103  1.5068
 7099SOL     OW22195   4.580   0.687   4.845 -0.3051  0.5327  0.1111
 7099SOL    HW122196   4.638   0.755   4.889 -1.5464  2.6790 -1.3897
 7099SOL    HW222197   4.516   0.732   4.783 -1.2280 -2.0227 -0.9545
 7100SOL     OW22198   0.386   6.547   0.488  0.2134 -0.0561 -0.0468
 7100SOL    HW122199   0.388   6.644   0.512 -0.9675  0.5202 -2.0891
 7100SOL    HW222200   0.470   6.524   0.439 -0.4090  0.4671 -1.3886
 7101SOL     OW22201   3.176   0.736   3.674  0.0413 -0.1023  0.5246
 7101SOL    HW122202   3.267   0.753   3.636  0.3654  1.0569  1.7285
 7101SOL    HW222203   3.108   0.787   3.622 -0.0063 -1.2854 -0.6298
 7102SOL     OW22204   3.988   0.525   1.893 -0.1398  0.1333 -0.1498
 7102SOL    HW122205   3.904   0.575   1.916 -1.0545 -0.5796 -1.7572
 7102SOL    HW222206   4.048   0.524   1.972 -2.3529 -0.7443  1.6345
 7103SOL     OW22207   6.921   2.938   3.565  0.3055  0.0565 -0.4497
 7103SOL    HW122208   6.937   2.968   3.659 -0.6195  0.2238 -0.3357
 7103SOL    HW222209   6.915   2.838   3.562 -1.1941  0.1098 -0.0587
 7104SOL     OW22210   4.416   2.374   6.493  0.1049  0.2358 -0.5901
 7104SOL    HW122211   4.374   2.390   6.404 -2.7927  0.6833  0.7364
 7104SOL    HW222212   4.489   2.440   6.508 -0.6305  1.3901 -1.8629
 7105SOL     OW22213   2.337   5.036   1.704  0.2561  0.3419 -0.7786
 7105SOL    HW122214   2.385   5.084   1.631  0.9563 -0.5303 -0.9149
 7105SOL    HW222215   2.357   5.080   1.791 -1.0084  1.7093 -1.1449
 7106SOL     OW22216   1.712   2.038   2.365 -0.2835  0.4318  0.0417
 7106SOL    HW122217   1.801   1.998   2.385  0.1509  1.8723  1.1369
 7106SOL    HW222218   1.698   2.040   2.266  1.9364  2.3079 -0.3163
 7107SOL     OW22219   4.121   0.212   1.809 -0.2062  0.3140  0.2506
 7107SOL    HW122220   4.027   0.229   1.841 -0.5925  0.8117 -1.0537
 7107SOL    HW222221   4.119   0.188   1.712  0.9645 -0.4819  0.4038
 7108SOL     OW22222   2.363   5.410   1.141 -0.1248  0.2561  0.0009
 7108SOL    HW122223   2.266   5.396   1.160 -0.3151  1.3880 -0.0602
 7108SOL    HW222224   2.418   5.365   1.212 -0.6406 -1.4415 -0.6265
 7109SOL     OW22225   2.482   5.258   6.669 -0.3931  0.4907  0.3256
 7109SOL    HW122226   2.407   5.305   6.623  0.3728  0.8470 -0.5814
 7109SOL    HW222227   2.564   5.315   6.668  0.0238 -0.0807  0.8953
 7110SOL     OW22228   2.819   5.329   6.950 -0.3502  0.5116 -0.4142
 7110SOL    HW122229   2.748   5.313   6.882 -1.2502  0.1785  0.5836
 7110SOL    HW222230   2.902   5.279   6.924 -0.9505 -0.2811 -0.8416
 7111SOL     OW22231   0.226   3.124   3.686  0.3245  0.3347  0.4478
 7111SOL    HW122232   0.183   3.204   3.643  1.3543  0.4170 -0.4675
 7111SOL    HW222233   0.206   3.125   3.784  0.9325  2.1495  0.6041
 7112SOL     OW22234   6.332   3.367   1.983 -0.1331 -0.3578 -0.3215
 7112SOL    HW122235   6.407   3.432   1.968 -1.6785  2.6535  3.4312
 7112SOL    HW222236   6.250   3.400   1.937 -0.2358 -1.2520 -0.7863
 7113SOL     OW22237   4.007   6.754   5.661 -0.7738  0.2499  0.0142
 7113SOL    HW122238   3.961   6.666   5.653 -2.6067  1.2448 -1.0095
 7113SOL    HW222239   3.954   6.824   5.613  0.1343  2.0994  1.5657
 7114SOL     OW22240   6.584   2.570   2.016  0.0963 -0.0209 -0.8093
 7114SOL    HW122241   6.570   2.471   2.022  1.1385 -0.1236  0.2645
 7114SOL    HW222242   6.681   2.589   2.005  0.1550  0.9174  0.9635
 7115SOL     OW22243   3.628   3.183   6.283 -0.2712 -0.4927 -0.1279
 7115SOL    HW122244   3.564   3.251   6.246 -0.9552 -0.7827  0.4892
 7115SOL    HW222245   3.710   3.229   6.316 -0.4122 -0.0459 -0.3918
 7116SOL     OW22246   6.426   4.867   4.917 -0.3261  0.0150 -0.2223
 7116SOL    HW122247   6.330   4.892   4.926 -0.6691 -1.3402  0.0349
 7116SOL    HW222248   6.436   4.795   4.848  0.0238 -2.2908  2.0794
 7117SOL     OW22249   4.371   1.229   2.130 -0.3505  0.2937 -0.0161
 7117SOL    HW122250   4.440   1.288   2.087 -1.7092  2.3056  0.4467
 7117SOL    HW222251   4.329   1.172   2.060  1.3875 -0.6154 -0.3857
 7118SOL     OW22252   6.188   5.442   5.883  0.8384 -0.1096  0.1938
 7118SOL    HW122253   6.179   5.343   5.880  2.1491 -0.2113 -1.4521
 7118SOL    HW222254   6.139   5.483   5.806 -0.4299  0.6223  1.3395
 7119SOL     OW22255   1.834   6.251   4.898 -0.6849  0.1235  0.2292
 7119SOL    HW122256   1.841   6.284   4.992  0.4684  0.2158  0.1292
 7119SOL    HW222257   1.762   6.182   4.891 -0.7875  0.1318  1.1713
 7120SOL     OW22258   5.061   0.739   3.033 -0.7667 -0.3907  0.7331
 7120SOL    HW122259   5.083   0.751   3.130 -1.0229 -1.5843  0.9545
 7120SOL    HW222260   5.029   0.826   2.995  0.2950  0.3445  1.4498
 7121SOL     OW22261   6.789   5.416   1.918 -0.3656  0.3637 -0.2016
 7121SOL    HW122262   6.874   5.369   1.897 -0.9540 -0.4852 -0.7196
 7121SOL    HW222263   6.802   5.473   2.000 -0.2060 -2.3502  1.7944
 7122SOL     OW22264   3.906   0.358   0.993  0.6285  0.0132 -0.2180
 7122SOL    HW122265   4.003   0.354   0.970  0.5624 -0.9537 -0.3870
 7122SOL    HW222266   3.896   0.374   1.091  1.0830 -3.5778  0.5768
 7123SOL     OW22267   6.025   3.127   5.104 -0.6968  0.5681 -0.2883
 7123SOL    HW122268   6.011   3.039   5.061 -1.5609  0.2272  0.6497
 7123SOL    HW222269   6.120   3.155   5.093 -0.4547 -0.4054 -0.7315
 7124SOL     OW22270   3.584   2.757   5.613 -0.3043 -0.4224  1.1294
 7124SOL    HW122271   3.546   2.729   5.701 -0.3431 -0.3821  1.1257
 7124SOL    HW222272   3.656   2.826   5.628 -2.0011  1.4703  1.0074
 7125SOL     OW22273   1.122   5.647   0.684  0.2821  0.2065  0.5317
 7125SOL    HW122274   1.053   5.673   0.750  0.3052  1.4811  0.0736
 7125SOL    HW222275   1.109   5.697   0.599  0.3684 -1.2575 -0.3896
 7126SOL     OW22276   4.601   3.662   1.588  0.0137  0.5516  0.7847
 7126SOL    HW122277   4.694   3.676   1.554  0.0616  0.0330  0.6935
 7126SOL    HW222278   4.571   3.744   1.637  1.1781  0.0944  2.3666
 7127SOL     OW22279   3.091   1.342   3.828  0.3596  0.0890  0.0559
 7127SOL    HW122280   3.081   1.298   3.916  0.1882 -2.5544 -1.1958
 7127SOL    HW222281   3.002   1.375   3.796 -0.2181 -1.8815 -0.5077
 7128SOL     OW22282   5.016   3.194   0.115 -0.3303 -0.4269  0.1678
 7128SOL    HW122283   4.981   3.261   0.180  0.5579  0.8064 -0.5870
 7128SOL    HW222284   5.085   3.137   0.159 -0.1200  0.0459  0.4435
 7129SOL     OW22285   6.570   1.566   5.572 -0.7331  0.3850 -0.7279
 7129SOL    HW122286   6.484   1.583   5.524 -0.4004  1.7892 -0.8632
 7129SOL    HW222287   6.646   1.583   5.510 -0.3326 -1.5681 -0.8348
 7130SOL     OW22288   3.645   6.926   3.441 -0.0549 -0.0295 -0.0369
 7130SOL    HW122289   3.739   6.920   3.476 -0.0370  1.3379  0.1835
 7130SOL    HW222290   3.625   6.844   3.387 -0.2941 -2.6357  3.6360
 7131SOL     OW22291   3.807   0.570   2.912 -0.0258 -0.1648  0.0060
 7131SOL    HW122292   3.728   0.624   2.943 -0.8941 -0.4231 -1.6621
 7131SOL    HW222293   3.786   0.473   2.917  0.8033 -0.3173  1.0620
 7132SOL     OW22294   5.817   3.959   1.078 -0.3914  0.1596 -0.0414
 7132SOL    HW122295   5.788   4.006   1.162  1.1491  0.4058  0.3823
 7132SOL    HW222296   5.786   3.864   1.081  1.3000 -0.4166  1.7764
 7133SOL     OW22297   2.976   0.344   2.796 -0.0582  0.0013 -0.4598
 7133SOL    HW122298   3.063   0.307   2.763 -0.1160  0.9778 -1.8157
 7133SOL    HW222299   2.987   0.442   2.815 -0.6028 -0.0941  0.3823
 7134SOL     OW22300   5.698   5.133   0.083 -0.0334  0.2252 -0.3820
 7134SOL    HW122301   5.691   5.127  -0.017 -1.2785 -0.3744 -0.2866
 7134SOL    HW222302   5.792   5.151   0.109  0.5854 -1.0506 -1.6105
 7135SOL     OW22303   1.515   5.883   1.840  0.6361  0.0315 -0.2723
 7135SOL    HW122304   1.465   5.944   1.902 -0.7239 -1.2678 -0.0358
 7135SOL    HW222305   1.591   5.840   1.889  1.7172  1.6144 -0.4888
 7136SOL     OW22306   1.432   2.487   2.622 -0.0314  0.4139  0.3381
 7136SOL    HW122307   1.460   2.574   2.581  1.0576 -0.7670 -1.5458
 7136SOL    HW222308   1.332   2.483   2.624 -0.1018  1.3334 -0.4096
 7137SOL     OW22309   1.433   0.716   2.400 -0.1360 -0.5027  0.1141
 7137SOL    HW122310   1.477   0.787   2.456 -2.8075  0.6121  0.9606
 7137SOL    HW222311   1.503   0.665   2.350  1.9758  2.2726 -0.0043
 7138SOL     OW22312   5.653   5.410   1.074 -0.2970  1.3693  0.3459
 7138SOL    HW122313   5.745   5.449   1.077 -0.7410  2.6706 -1.0366
 7138SOL    HW222314   5.645   5.350   0.994  0.6459 -2.5126  2.9305
 7139SOL     OW22315   5.821   5.335   6.500  0.7361  0.0720 -0.3160
 7139SOL    HW122316   5.882   5.380   6.565 -1.2481  1.4992  0.6266
 7139SOL    HW222317   5.784   5.402   6.436  0.2397 -0.7832 -0.9486
 7140SOL     OW22318   5.928   4.034   0.102  0.1472 -0.4481  0.7844
 7140SOL    HW122319   5.987   4.075   0.032 -0.7461 -2.0469 -1.0141
 7140SOL    HW222320   5.968   3.948   0.133 -0.3783 -0.6710  0.8539
 7141SOL     OW22321   3.030   1.337   0.780  0.1458  0.0874 -0.0558
 7141SOL    HW122322   2.944   1.322   0.827  2.1436 -0.8117  3.6784
 7141SOL    HW222323   3.039   1.434   0.758 -1.3516  0.3627  0.4321
 7142SOL     OW22324   3.030   5.501   0.381  0.2591  0.8881  0.7271
 7142SOL    HW122325   3.008   5.552   0.298  2.0447  0.3889 -0.1010
 7142SOL    HW222326   2.959   5.433   0.398 -0.6467  1.6782  0.1865
 7143SOL     OW22327   2.741   3.930   6.093  0.0648  0.0594  0.3038
 7143SOL    HW122328   2.818   3.968   6.042  0.6094 -0.0679  1.0150
 7143SOL    HW222329   2.701   4.002   6.149 -0.1310  0.0446  0.1838
 7144SOL     OW22330   6.436   1.819   0.905 -0.3604 -0.4796  0.1119
 7144SOL    HW122331   6.464   1.892   0.968 -0.9303  0.6417 -0.9073
 7144SOL    HW222332   6.489   1.825   0.821 -1.5435 -0.1732 -0.6444
 7145SOL     OW22333   1.029   3.636   6.708  0.1403  0.6213  0.3614
 7145SOL    HW122334   0.980   3.703   6.763 -1.7195 -0.3802  0.0052
 7145SOL    HW222335   1.023   3.662   6.611 -0.9977 -0.2689  0.1748
 7146SOL     OW22336   1.065   3.254   4.451  0.1852  0.4067  0.1098
 7146SOL    HW122337   1.061   3.349   4.419  2.0412  0.3678 -0.3326
 7146SOL    HW222338   1.061   3.192   4.373 -0.4580  0.1211  0.3601
 7147SOL     OW22339   0.114   0.857   0.233 -0.2613 -0.1894  0.1318
 7147SOL    HW122340   0.045   0.865   0.305  0.6221 -1.0559  1.1249
 7147SOL    HW222341   0.070   0.859   0.143 -1.6006 -0.9120  0.7419
 7148SOL     OW22342   6.229   6.382   1.297  0.4328  0.4883  0.2893
 7148SOL    HW122343   6.136   6.345   1.295 -0.5976  2.9033 -0.4866
 7148SOL    HW222344   6.274   6.353   1.382 -1.1609 -0.4162  0.8776
 7149SOL     OW22345   6.669   4.302   0.291  0.2301  0.4194  0.5407
 7149SOL    HW122346   6.739   4.249   0.340 -0.7479 -0.1962  1.2959
 7149SOL    HW222347   6.612   4.240   0.237  1.0242  1.0408 -1.1030
 7150SOL     OW22348   2.948   1.320   0.443 -0.0614  0.4151  0.2088
 7150SOL    HW122349   2.937   1.227   0.478  0.7177  0.7040  1.2867
 7150SOL    HW222350   2.863   1.371   0.455 -0.6926 -0.3321 -0.9693
 7151SOL     OW22351   6.526   3.500   6.592 -0.4762 -0.0488  0.0647
 7151SOL    HW122352   6.612   3.492   6.541 -2.3003  0.4037 -3.3707
 7151SOL    HW222353   6.544   3.485   6.689  3.2958 -0.8922 -0.5898
 7152SOL     OW22354   5.844   0.424   4.520  0.0243 -0.3303 -0.2889
 7152SOL    HW122355   5.803   0.485   4.452 -0.4217 -0.2752  0.0224
 7152SOL    HW222356   5.916   0.369   4.477 -1.3807 -1.5287 -1.2388
 7153SOL     OW22357   5.707   4.294   6.492  0.0515 -0.1185 -0.0584
 7153SOL    HW122358   5.668   4.290   6.584  0.4621 -0.9262  0.0908
 7153SOL    HW222359   5.690   4.384   6.452  2.1365  1.2000  1.7889
 7154SOL     OW22360   3.788   6.398   2.965  0.1515  0.3545 -0.5869
 7154SOL    HW122361   3.701   6.398   2.916 -1.1346  0.2264  1.5618
 7154SOL    HW222362   3.818   6.493   2.980  0.7546  0.3849 -1.9214
 7155SOL     OW22363   1.017   1.437   1.197  0.1979  0.2199 -0.1314
 7155SOL    HW122364   1.108   1.474   1.216  0.3149  0.2036 -0.6439
 7155SOL    HW222365   0.962   1.505   1.150 -0.5083  0.7061  1.3218
 7156SOL     OW22366   0.323   3.687   6.778 -0.4723 -0.3052 -0.5014
 7156SOL    HW122367   0.260   3.701   6.855 -2.5647 -1.2880 -1.9408
 7156SOL    HW222368   0.275   3.638   6.705  2.1020 -1.3812 -1.5628
 7157SOL     OW22369   5.162   3.484   3.730 -0.0401  0.0536  0.0782
 7157SOL    HW122370   5.131   3.512   3.638 -0.1394 -0.5702 -0.0790
 7157SOL    HW222371   5.245   3.430   3.722  0.4300  0.7107  0.4221
 7158SOL     OW22372   4.108   5.535   4.440  0.1672 -0.0492  0.0220
 7158SOL    HW122373   4.029   5.567   4.493 -1.0426 -1.7396 -0.6636
 7158SOL    HW222374   4.180   5.505   4.503  0.2248  1.3596  0.6587
 7159SOL     OW22375   0.529   6.490   4.809 -0.1617  0.3871 -0.1496
 7159SOL    HW122376   0.524   6.501   4.709 -2.2671  1.3903  0.0164
 7159SOL    HW222377   0.579   6.567   4.849  2.9748 -1.2662 -0.5362
 7160SOL     OW22378   5.145   6.295   2.797 -0.0198  0.2627  0.2739
 7160SOL    HW122379   5.047   6.315   2.795  0.1810  1.5269  1.4689
 7160SOL    HW222380   5.164   6.232   2.872  0.0728 -0.0896 -0.0423
 7161SOL     OW22381   4.098   2.065   0.951 -0.0649 -0.3228  0.3254
 7161SOL    HW122382   4.032   1.991   0.964 -1.0929  0.1793 -1.6629
 7161SOL    HW222383   4.070   2.122   0.874  1.4232  1.3659  0.9574
 7162SOL     OW22384   0.912   0.681   1.616  0.0434  0.3925  0.4227
 7162SOL    HW122385   0.856   0.646   1.691 -0.2398  0.4638  0.2456
 7162SOL    HW222386   0.926   0.779   1.628  1.1071  0.1738  1.0937
 7163SOL     OW22387   5.194   5.368   6.636 -0.1089 -0.5287 -0.2922
 7163SOL    HW122388   5.123   5.312   6.592 -1.0433 -0.8338  1.5250
 7163SOL    HW222389   5.279   5.360   6.584 -0.5615 -2.6438 -0.8072
 7164SOL     OW22390   1.954   0.156   4.521  0.8547  0.0024  0.0330
 7164SOL    HW122391   1.937   0.107   4.436 -0.2795 -0.2013  0.3638
 7164SOL    HW222392   2.051   0.177   4.528  1.1635 -1.1193 -0.6892
 7165SOL     OW22393   4.887   2.467   6.532  0.3682 -0.1763  0.0187
 7165SOL    HW122394   4.865   2.373   6.557  3.1271 -1.2057 -1.0453
 7165SOL    HW222395   4.894   2.523   6.615  0.1080 -1.2354  0.7695
 7166SOL     OW22396   0.816   5.812   5.551  0.6157  0.1339  0.1644
 7166SOL    HW122397   0.784   5.743   5.616  1.2784 -2.1845 -1.8478
 7166SOL    HW222398   0.884   5.772   5.490 -0.6370  1.8990 -2.5681
 7167SOL     OW22399   0.262   3.233   4.553  0.7336 -0.4306  0.1466
 7167SOL    HW122400   0.297   3.189   4.635 -0.5338  0.0055  0.9442
 7167SOL    HW222401   0.283   3.176   4.473  3.0086 -0.2973  0.5939
 7168SOL     OW22402   6.663   0.040   3.165 -0.4537 -0.1640  0.3042
 7168SOL    HW122403   6.643  -0.028   3.094  1.5451 -1.9048  1.3068
 7168SOL    HW222404   6.728   0.107   3.128 -0.3587 -0.3443  0.1433
 7169SOL     OW22405   2.668   5.915   6.930  0.7362  1.0224 -0.5649
 7169SOL    HW122406   2.656   5.931   7.028 -0.8515  0.0313 -0.5589
 7169SOL    HW222407   2.765   5.899   6.910  1.0816  1.2818  0.8298
 7170SOL     OW22408   5.839   2.983   2.622 -0.0624 -0.7840 -0.2768
 7170SOL    HW122409   5.759   2.924   2.631 -0.2822 -0.3449  0.9115
 7170SOL    HW222410   5.819   3.058   2.559 -0.9389 -0.1608  0.6921
 7171SOL     OW22411   6.273   5.160   1.975  0.0585  0.5107  0.0753
 7171SOL    HW122412   6.207   5.093   1.941  0.8460 -0.2470  0.0146
 7171SOL    HW222413   6.361   5.147   1.929 -0.0270  2.2075 -0.6342
 7172SOL     OW22414   6.173   1.650   3.433 -0.2175  0.2172  0.4395
 7172SOL    HW122415   6.075   1.664   3.446 -0.3995  0.7547 -1.2554
 7172SOL    HW222416   6.218   1.739   3.426  0.0523 -0.0175 -0.9619
 7173SOL     OW22417   3.726   5.452   5.844  0.0341  0.3020  0.5680
 7173SOL    HW122418   3.658   5.477   5.775 -0.8781  0.2303  1.4029
 7173SOL    HW222419   3.817   5.456   5.805 -0.3160  1.9465 -0.1631
 7174SOL     OW22420   6.636   3.747   2.342 -0.5508 -0.3010  0.2430
 7174SOL    HW122421   6.572   3.807   2.389 -3.3636  0.6912 -4.2666
 7174SOL    HW222422   6.603   3.652   2.348  0.5661 -0.6227  2.2440
 7175SOL     OW22423   6.054   4.319   0.097  0.4445  0.0003  0.0816
 7175SOL    HW122424   5.960   4.296   0.120 -0.0051  1.9638  0.3840
 7175SOL    HW222425   6.111   4.315   0.179  0.5820 -0.9020 -0.0475
 7176SOL     OW22426   6.857   3.334   6.699 -0.0369  0.3062  0.1101
 7176SOL    HW122427   6.818   3.328   6.791 -0.0364  1.1060  0.1690
 7176SOL    HW222428   6.835   3.423   6.660  1.3199  0.5894 -0.0402
 7177SOL     OW22429   0.096   5.733   3.987 -0.1069 -0.4473 -0.0955
 7177SOL    HW122430   0.185   5.695   4.013  2.1090  3.3951 -1.1711
 7177SOL    HW222431   0.078   5.815   4.042 -1.9623  0.0822 -1.3978
 7178SOL     OW22432   0.193   0.291   5.762 -0.0543  0.5517  0.3149
 7178SOL    HW122433   0.111   0.265   5.814  0.3210 -0.1861  0.5590
 7178SOL    HW222434   0.242   0.208   5.734  2.3666  0.9079  2.9783
 7179SOL     OW22435   4.609   4.297   4.454  0.6036 -0.4620 -0.0822
 7179SOL    HW122436   4.664   4.214   4.456  0.9679 -0.2085  0.9517
 7179SOL    HW222437   4.594   4.330   4.547 -2.7466 -1.4529 -0.1390
 7180SOL     OW22438   0.928   1.629   1.739  0.1051 -0.0963  0.4899
 7180SOL    HW122439   0.850   1.591   1.688 -0.0678  1.2726 -0.3215
 7180SOL    HW222440   0.908   1.723   1.764  0.6902 -0.3591  2.0906
 7181SOL     OW22441   4.592   1.097   2.268  0.8949 -0.3426  0.0425
 7181SOL    HW122442   4.529   1.169   2.241  0.6513 -0.3444  0.5874
 7181SOL    HW222443   4.553   1.046   2.345  2.4163  0.9209  1.7280
 7182SOL     OW22444   4.248   1.198   2.821 -0.1117  0.1168 -0.1561
 7182SOL    HW122445   4.155   1.172   2.796 -0.1389  0.2075 -0.1530
 7182SOL    HW222446   4.292   1.243   2.743  0.7212 -1.9324 -0.9317
 7183SOL     OW22447   2.874   0.753   0.135  0.5510  0.3435 -0.1706
 7183SOL    HW122448   2.780   0.742   0.101  0.4742 -0.4360  0.2667
 7183SOL    HW222449   2.883   0.841   0.181  0.5682  1.2853 -1.9140
 7184SOL     OW22450   5.155   1.377   4.785 -0.0248  0.7609  0.2289
 7184SOL    HW122451   5.180   1.372   4.882 -2.0681 -0.1905  0.7656
 7184SOL    HW222452   5.207   1.310   4.734 -1.0292 -0.8257  1.2094
 7185SOL     OW22453   2.268   0.017   3.794 -0.1950  0.4982  0.1332
 7185SOL    HW122454   2.365   0.027   3.817 -0.4679  1.2647  1.0601
 7185SOL    HW222455   2.239  -0.077   3.810  0.4718  0.1861 -0.4716
 7186SOL     OW22456   0.498   3.864   2.796 -0.3757  0.6325  0.2272
 7186SOL    HW122457   0.598   3.854   2.794 -0.4192 -0.0537  1.0548
 7186SOL    HW222458   0.463   3.837   2.886 -1.2951  1.0407  0.0042
 7187SOL     OW22459   3.573   4.039   2.576  0.1687 -0.4331  0.0285
 7187SOL    HW122460   3.586   4.095   2.495 -1.6320 -0.7212 -0.5080
 7187SOL    HW222461   3.656   4.041   2.632  1.0212  0.7151 -1.2161
 7188SOL     OW22462   6.293   4.538   5.891  0.4669 -0.0976  0.2803
 7188SOL    HW122463   6.364   4.579   5.948  1.3648 -0.4901 -0.5206
 7188SOL    HW222464   6.324   4.448   5.860 -0.8471 -0.7391  0.8084
 7189SOL     OW22465   6.948   2.959   4.445  0.1602 -0.5880 -0.0440
 7189SOL    HW122466   7.020   2.931   4.509 -0.2842 -1.3370  0.1375
 7189SOL    HW222467   6.956   3.057   4.426  0.6066 -0.4673  0.7555
 7190SOL     OW22468   4.656   6.632   1.388  0.2229 -0.3449 -0.5332
 7190SOL    HW122469   4.656   6.720   1.341 -0.7835  0.6095  1.1426
 7190SOL    HW222470   4.693   6.643   1.480 -1.2762 -1.3372  0.2291
 7191SOL     OW22471   6.765   4.264   2.543  0.1951 -0.6376  0.0197
 7191SOL    HW122472   6.676   4.288   2.583  0.8019  1.2669  0.3699
 7191SOL    HW222473   6.838   4.298   2.602  1.1866 -2.3748 -0.1457
 7192SOL     OW22474   3.995   5.627   6.010  0.1329 -0.7678  0.5399
 7192SOL    HW122475   3.977   5.529   6.017  0.5137 -0.8300  0.6884
 7192SOL    HW222476   3.927   5.677   6.064 -0.0629 -0.9482  0.4622
 7193SOL     OW22477   4.441   2.423   4.203  0.0979  0.8780  0.1103
 7193SOL    HW122478   4.430   2.326   4.222  0.4988  0.7607 -0.2229
 7193SOL    HW222479   4.523   2.457   4.249  0.5523  0.8066 -0.6244
 7194SOL     OW22480   3.604   3.966   5.842 -0.3368  0.1999  0.4180
 7194SOL    HW122481   3.507   3.976   5.863 -0.2916  0.9680  0.3018
 7194SOL    HW222482   3.626   3.869   5.829 -1.3191  0.0987 -0.6148
 7195SOL     OW22483   6.276   4.170   3.900  0.0508  0.5932  0.1056
 7195SOL    HW122484   6.374   4.149   3.907 -0.1436  0.1538  1.9676
 7195SOL    HW222485   6.258   4.258   3.944 -0.3327  0.9704 -0.7669
 7196SOL     OW22486   3.259   3.777   1.191  0.1313 -0.2135 -0.5146
 7196SOL    HW122487   3.262   3.854   1.127  3.1031  1.5674  1.5098
 7196SOL    HW222488   3.328   3.710   1.165  1.9234  0.9045  1.1169
 7197SOL     OW22489   6.239   5.404   0.137 -0.7337  0.4107  0.5675
 7197SOL    HW122490   6.197   5.367   0.054 -0.6771 -0.1619  0.7889
 7197SOL    HW222491   6.334   5.375   0.142  0.1396  2.8648 -0.6446
 7198SOL     OW22492   1.614   5.831   0.473 -0.0230  0.1156 -0.1568
 7198SOL    HW122493   1.666   5.865   0.551  2.8416 -1.6748 -1.1248
 7198SOL    HW222494   1.554   5.757   0.504  0.7168 -0.2513  0.4514
 7199SOL     OW22495   6.441   0.998   2.633 -0.7516 -0.2137 -0.3743
 7199SOL    HW122496   6.421   0.919   2.690 -1.8017  0.7341  0.6003
 7199SOL    HW222497   6.439   0.971   2.537  1.1362 -1.8543 -0.0355
 7200SOL     OW22498   5.962   3.980   5.274  0.2167  0.2584 -1.3889
 7200SOL    HW122499   6.050   3.971   5.321 -0.1475 -0.2280 -0.8060
 7200SOL    HW222500   5.978   4.022   5.184  1.0320  0.2620 -1.2542
 7201SOL     OW22501   0.471   6.452   3.923 -0.5699  0.3379 -0.2147
 7201SOL    HW122502   0.375   6.470   3.946 -0.4482  0.9020 -0.1237
 7201SOL    HW222503   0.520   6.423   4.006  0.0923  3.3097  0.5896
 7202SOL     OW22504   3.259   5.358   1.128  0.1572  0.3108  0.0779
 7202SOL    HW122505   3.290   5.448   1.160 -0.5377  0.6755 -0.2368
 7202SOL    HW222506   3.248   5.361   1.029 -0.6641  0.1267  0.1622
 7203SOL     OW22507   2.254   2.841   3.151  0.1179  0.3898 -0.1111
 7203SOL    HW122508   2.168   2.853   3.100  0.1642 -1.0694 -0.5787
 7203SOL    HW222509   2.310   2.773   3.105  0.9944  0.4217  0.8841
 7204SOL     OW22510   5.216   0.954   3.603 -0.0281  0.8145 -0.0683
 7204SOL    HW122511   5.297   0.966   3.546 -0.3542 -0.7493 -0.9200
 7204SOL    HW222512   5.196   1.039   3.651  2.3488  1.1289  0.4949
 7205SOL     OW22513   3.983   0.995   3.121  0.3286  0.1422 -0.2005
 7205SOL    HW122514   3.961   0.900   3.102 -1.4429  0.5486 -0.3575
 7205SOL    HW222515   4.061   1.000   3.183  1.3552 -1.3556 -1.3052
 7206SOL     OW22516   1.871   4.717   4.944  0.0248  0.0226  0.7177
 7206SOL    HW122517   1.859   4.816   4.937  0.1671  0.1047  1.5795
 7206SOL    HW222518   1.916   4.694   5.030 -1.7742 -0.9376  1.4626
 7207SOL     OW22519   2.050   0.951   2.817 -0.3556 -0.0134  0.0408
 7207SOL    HW122520   1.953   0.969   2.833 -0.3373 -0.4281  0.6171
 7207SOL    HW222521   2.073   0.859   2.848  0.2817  0.1773  0.1516
 7208SOL     OW22522   2.728   0.947   4.276 -0.1131 -0.1842 -0.2498
 7208SOL    HW122523   2.629   0.958   4.264 -0.0191 -0.1739 -1.0215
 7208SOL    HW222524   2.764   0.886   4.206  0.3835 -0.4518  0.2268
 7209SOL     OW22525   5.325   6.274   3.650 -0.8615  0.9004  0.3605
 7209SOL    HW122526   5.280   6.188   3.671 -1.4046  1.0259 -0.2895
 7209SOL    HW222527   5.364   6.271   3.558  4.2089 -0.8064  2.2074
 7210SOL     OW22528   3.636   2.122   4.458  0.6277  0.1929 -0.7666
 7210SOL    HW122529   3.574   2.196   4.486  1.3605  0.8589 -0.8740
 7210SOL    HW222530   3.721   2.129   4.509  0.4327 -1.0414 -0.2329
 7211SOL     OW22531   0.212   6.848   5.978 -0.8867  0.0184  0.4134
 7211SOL    HW122532   0.238   6.754   5.957 -0.1406  0.5085 -0.9950
 7211SOL    HW222533   0.207   6.861   6.077 -0.9960 -1.4906  0.6192
 7212SOL     OW22534   6.688   6.546   5.574 -0.1483 -0.3477 -0.1712
 7212SOL    HW122535   6.717   6.616   5.508 -1.2151  1.0473  0.7877
 7212SOL    HW222536   6.676   6.588   5.663  0.1446 -1.9878  0.6820
 7213SOL     OW22537   5.702   3.217   5.159 -0.5704  0.9473 -0.2981
 7213SOL    HW122538   5.753   3.137   5.126 -1.7242 -0.0628  0.2888
 7213SOL    HW222539   5.764   3.277   5.210  0.2126  0.1784 -0.3132
 7214SOL     OW22540   5.973   1.594   6.263 -0.3880 -0.1407 -0.0344
 7214SOL    HW122541   5.924   1.562   6.344  0.6599 -0.4925  0.4808
 7214SOL    HW222542   6.045   1.528   6.240 -0.5164  0.0843 -1.1047
 7215SOL     OW22543   0.562   3.154   2.792  0.0014 -0.1286  0.0844
 7215SOL    HW122544   0.597   3.120   2.879  1.9756 -0.8523 -0.9296
 7215SOL    HW222545   0.631   3.140   2.721  0.4237  4.5962 -0.7862
 7216SOL     OW22546   5.406   4.892   3.189  0.5745  0.2802  0.3228
 7216SOL    HW122547   5.418   4.856   3.096  2.9679 -0.3612  0.7922
 7216SOL    HW222548   5.401   4.992   3.186 -0.7719  0.2108 -0.5731
 7217SOL     OW22549   1.943   4.755   2.230 -0.2235 -0.0157 -0.5431
 7217SOL    HW122550   1.982   4.712   2.311 -1.0432  0.1658 -0.0369
 7217SOL    HW222551   1.913   4.684   2.166  0.5870 -0.1582 -0.7837
 7218SOL     OW22552   6.251   1.805   6.195  0.5276 -0.5671 -0.4286
 7218SOL    HW122553   6.227   1.846   6.107  0.3060 -0.1512 -0.1775
 7218SOL    HW222554   6.226   1.868   6.268  0.6655 -0.9349 -0.0656
 7219SOL     OW22555   2.696   5.103   1.406  0.0920  0.3451  0.2365
 7219SOL    HW122556   2.616   5.115   1.465  0.3418 -1.4584  1.0008
 7219SOL    HW222557   2.770   5.162   1.438 -0.3097  0.5984  0.7139
 7220SOL     OW22558   0.719   2.510   4.183  0.2687  0.2032  0.0985
 7220SOL    HW122559   0.637   2.494   4.128  0.6868  0.8109 -0.7105
 7220SOL    HW222560   0.789   2.442   4.160  1.8575  2.6802 -2.9694
 7221SOL     OW22561   4.638   5.935   5.279 -0.0175  0.3291 -0.8126
 7221SOL    HW122562   4.614   6.014   5.335 -1.1992 -0.2571 -0.4577
 7221SOL    HW222563   4.715   5.887   5.321  0.4385  1.0408 -0.8121
 7222SOL     OW22564   5.931   3.834   2.475 -0.2102  0.2717  0.6273
 7222SOL    HW122565   5.858   3.815   2.409 -0.5371  0.1622  1.0121
 7222SOL    HW222566   6.015   3.786   2.447  0.2692  1.8644 -0.8239
 7223SOL     OW22567   5.706   6.110   2.208  0.1706  0.3459  0.3792
 7223SOL    HW122568   5.781   6.086   2.270 -0.9563  0.1495  1.7097
 7223SOL    HW222569   5.655   6.187   2.246  0.5620  1.4407 -1.2469
 7224SOL     OW22570   1.355   2.287   2.229 -0.2851 -0.3546 -0.2320
 7224SOL    HW122571   1.443   2.285   2.276  0.6221  0.1411 -1.8241
 7224SOL    HW222572   1.286   2.243   2.286  0.4352  1.3077  2.1125
 7225SOL     OW22573   0.674   5.437   6.267 -0.0266  0.1106 -0.2248
 7225SOL    HW122574   0.739   5.391   6.328 -1.3550 -1.5915 -0.0493
 7225SOL    HW222575   0.638   5.518   6.313 -0.5934 -0.8415  1.0688
 7226SOL     OW22576   6.736   1.043   2.268 -0.0124 -0.0276 -0.2936
 7226SOL    HW122577   6.658   1.023   2.208 -2.7715  0.7369  2.7531
 7226SOL    HW222578   6.807   0.975   2.253 -1.1187 -0.7179 -3.3181
 7227SOL     OW22579   0.338   6.965   2.075 -0.5967 -0.5022 -0.0325
 7227SOL    HW122580   0.380   6.962   2.166 -1.5665 -0.3030  0.4332
 7227SOL    HW222581   0.359   7.053   2.032 -1.6352  0.1583  0.7559
 7228SOL     OW22582   0.008   4.404   2.184  0.0048 -0.1873  0.2163
 7228SOL    HW122583  -0.087   4.435   2.185 -0.7722 -2.2208  2.8364
 7228SOL    HW222584   0.019   4.331   2.117  0.3655  1.5129 -1.6821
 7229SOL     OW22585   4.485   6.016   6.385 -0.2927 -0.2167  0.0416
 7229SOL    HW122586   4.446   6.096   6.428  0.0912 -0.7009  1.3228
 7229SOL    HW222587   4.425   5.937   6.400  0.1687 -0.5293  0.2573
 7230SOL     OW22588   2.485   4.048   5.802 -0.1341 -0.2163 -0.2989
 7230SOL    HW122589   2.480   3.977   5.873 -0.9961 -1.5458 -1.6175
 7230SOL    HW222590   2.446   4.012   5.717  2.4852  0.6497 -2.0035
 7231SOL     OW22591   3.855   3.347   0.192 -0.3931 -0.5459 -0.3486
 7231SOL    HW122592   3.918   3.337   0.115  1.0965  0.6143  0.6560
 7231SOL    HW222593   3.767   3.381   0.159 -0.8991 -3.1107 -1.9130
 7232SOL     OW22594   5.244   0.021   3.583  0.0411  0.3296  0.1415
 7232SOL    HW122595   5.296   0.007   3.667  3.2245 -0.0532 -1.7065
 7232SOL    HW222596   5.219  -0.067   3.544  0.2561  0.4355 -0.2437
 7233SOL     OW22597   0.242   1.519   0.485  0.1858 -0.3225 -0.6301
 7233SOL    HW122598   0.313   1.453   0.461 -0.1768 -0.9276 -0.0634
 7233SOL    HW222599   0.155   1.493   0.443 -0.2115 -0.8196  0.4550
 7234SOL     OW22600   4.613   5.293   4.956  0.4939  0.3277 -0.1185
 7234SOL    HW122601   4.557   5.280   4.874  0.5155  1.7852 -0.3899
 7234SOL    HW222602   4.554   5.319   5.033  0.5772 -0.1854  0.1267
 7235SOL     OW22603   6.904   0.089   1.130 -0.3387 -0.7129 -0.4990
 7235SOL    HW122604   6.910   0.174   1.078 -1.4465 -1.0042 -1.1306
 7235SOL    HW222605   6.994   0.065   1.166  0.4235 -0.4293 -2.1475
 7236SOL     OW22606   0.470   4.387   2.332  0.2672 -0.0113 -0.4059
 7236SOL    HW122607   0.407   4.448   2.284  0.6249 -0.4473 -1.4633
 7236SOL    HW222608   0.421   4.335   2.402 -1.0106 -1.7355 -2.4607
 7237SOL     OW22609   4.805   0.918   1.722  0.1027 -0.1129  0.1732
 7237SOL    HW122610   4.800   0.943   1.626  0.0849 -0.8520 -0.0271
 7237SOL    HW222611   4.748   0.980   1.776  0.9079  0.9295 -0.1543
 7238SOL     OW22612   3.805   2.939   0.430  0.2705  0.3460 -0.1070
 7238SOL    HW122613   3.838   3.030   0.456 -1.3784  1.1115 -0.6002
 7238SOL    HW222614   3.862   2.870   0.475 -0.6272  1.5798  3.2476
 7239SOL     OW22615   0.202   3.776   2.503 -0.3356 -0.5280 -0.6704
 7239SOL    HW122616   0.175   3.842   2.572 -0.7602 -0.1962 -1.1475
 7239SOL    HW222617   0.132   3.705   2.495  0.3296 -1.3012  0.1617
 7240SOL     OW22618   1.144   3.574   6.288  0.0917 -0.0624 -0.3537
 7240SOL    HW122619   1.200   3.591   6.206 -0.6189  3.4333 -0.2772
 7240SOL    HW222620   1.067   3.515   6.264  0.4040  0.1360 -2.0051
 7241SOL     OW22621   1.302   0.082   2.564 -1.1410 -0.0526  0.0342
 7241SOL    HW122622   1.352   0.149   2.620 -3.5053  1.8988 -0.0282
 7241SOL    HW222623   1.258   0.015   2.623  1.4344 -1.8545  0.0886
 7242SOL     OW22624   0.812   2.500   6.890  0.2759 -0.1733 -0.1931
 7242SOL    HW122625   0.721   2.459   6.892 -1.0216  2.3221 -2.1287
 7242SOL    HW222626   0.871   2.448   6.829 -0.5827 -0.5113 -0.7487
 7243SOL     OW22627   6.574   4.427   5.687  0.3635 -0.2536 -0.1562
 7243SOL    HW122628   6.481   4.412   5.655 -0.2321  2.0361  0.3052
 7243SOL    HW222629   6.635   4.437   5.608  0.2945 -1.9725 -0.4566
 7244SOL     OW22630   5.458   5.881   1.008  0.0928 -0.1762  0.0054
 7244SOL    HW122631   5.382   5.826   1.044 -1.1054  0.4988 -1.4099
 7244SOL    HW222632   5.423   5.951   0.947  1.5803  2.1668  1.6696
 7245SOL     OW22633   3.281   1.534   5.878 -0.6864 -0.2467 -0.1357
 7245SOL    HW122634   3.292   1.435   5.888 -1.8324 -0.5477 -1.4831
 7245SOL    HW222635   3.316   1.563   5.789  0.3833  0.7115  0.5717
 7246SOL     OW22636   2.594   0.077   4.143  0.1228  0.3204  0.2766
 7246SOL    HW122637   2.599   0.175   4.159 -0.9038  0.7639 -1.8619
 7246SOL    HW222638   2.683   0.043   4.112  0.0829  0.8834 -0.4688
 7247SOL     OW22639   4.741   3.803   5.309 -0.2379  0.2915 -0.4706
 7247SOL    HW122640   4.816   3.863   5.283 -0.7593  1.6197  0.9381
 7247SOL    HW222641   4.736   3.726   5.245  2.1463  0.2884 -0.7363
 7248SOL     OW22642   3.127   2.081   4.786  0.5641  0.5971 -0.0180
 7248SOL    HW122643   3.106   2.151   4.854 -0.1851  1.5291 -1.1690
 7248SOL    HW222644   3.074   2.097   4.704  0.9997 -0.8637 -0.6242
 7249SOL     OW22645   4.615   5.727   3.581  0.0724  0.8960 -0.0283
 7249SOL    HW122646   4.700   5.688   3.547 -0.7187  0.0031 -1.0695
 7249SOL    HW222647   4.627   5.756   3.676  1.2872  0.0183  0.1095
 7250SOL     OW22648   4.274   4.742   4.840  0.8528  0.0463  0.0156
 7250SOL    HW122649   4.217   4.700   4.770  0.2328  0.9050 -0.0175
 7250SOL    HW222650   4.321   4.671   4.893 -2.0868 -0.8678  1.6255
 7251SOL     OW22651   5.767   4.714   4.603 -0.5041  0.4620  0.1183
 7251SOL    HW122652   5.837   4.728   4.673  0.7371 -1.7758 -0.5608
 7251SOL    HW222653   5.740   4.802   4.563  1.2321  1.4627  1.0627
 7252SOL     OW22654   3.394   4.006   1.656  0.5659  0.2453 -0.4782
 7252SOL    HW122655   3.447   4.083   1.620  1.1384  0.4079  0.6488
 7252SOL    HW222656   3.456   3.931   1.680  0.2701  0.3138  0.5586
 7253SOL     OW22657   0.860   4.713   5.027  0.0897 -0.3443 -0.5771
 7253SOL    HW122658   0.877   4.756   5.116 -0.8503  0.5449 -0.8088
 7253SOL    HW222659   0.929   4.745   4.961 -0.3101  0.4698 -0.6232
 7254SOL     OW22660   0.070   3.364   3.590 -0.6057 -0.1216  0.1386
 7254SOL    HW122661   0.080   3.418   3.673 -0.2647  0.5091 -0.3088
 7254SOL    HW222662  -0.027   3.357   3.566 -0.5952  0.9989 -0.2601
 7255SOL     OW22663   3.811   4.753   1.419  0.0126  0.3663  0.5750
 7255SOL    HW122664   3.767   4.755   1.329  0.9069  0.3169  0.1230
 7255SOL    HW222665   3.751   4.709   1.485 -0.9338  1.0087  0.1562
 7256SOL     OW22666   1.869   5.892   3.581  0.0988  0.0382 -0.2201
 7256SOL    HW122667   1.875   5.793   3.594  0.6330 -0.0144 -0.8243
 7256SOL    HW222668   1.960   5.933   3.593  0.4175  0.1273 -2.5216
 7257SOL     OW22669   0.565   2.925   4.530 -0.4268 -0.5812  0.2435
 7257SOL    HW122670   0.556   2.866   4.610  1.7746  1.1702  1.8926
 7257SOL    HW222671   0.589   2.870   4.450 -1.0719 -2.1774  1.1034
 7258SOL     OW22672   2.172   0.019   2.161 -0.6383  0.1402  0.0688
 7258SOL    HW122673   2.176   0.113   2.126  0.5672  0.8163  1.8604
 7258SOL    HW222674   2.088   0.007   2.214 -0.0301  0.7647  1.2138
 7259SOL     OW22675   0.601   3.904   0.598  0.0890  0.1109  0.0731
 7259SOL    HW122676   0.688   3.874   0.559 -0.1570  1.6970 -1.8596
 7259SOL    HW222677   0.555   3.826   0.640  1.5324 -1.1848 -0.6361
 7260SOL     OW22678   5.488   1.038   1.548  1.0114  0.0118 -0.4411
 7260SOL    HW122679   5.402   1.022   1.499  1.5205 -0.6971 -1.1168
 7260SOL    HW222680   5.467   1.064   1.643  0.0309  1.0216 -0.9164
 7261SOL     OW22681   6.295   4.255   0.413  0.0431 -0.4066  0.6154
 7261SOL    HW122682   6.199   4.225   0.413  0.0347 -0.5023 -1.0748
 7261SOL    HW222683   6.333   4.247   0.505 -1.6557 -0.0897  1.3865
 7262SOL     OW22684   4.199   1.444   4.263  0.5518 -0.6080 -1.1406
 7262SOL    HW122685   4.103   1.420   4.249  0.1318  0.9427 -1.1065
 7262SOL    HW222686   4.243   1.460   4.175  0.5407 -0.4549 -1.1183
 7263SOL     OW22687   0.625   5.928   5.406  0.4074 -0.3221  0.4661
 7263SOL    HW122688   0.649   5.998   5.339 -0.7699  0.9484  1.3271
 7263SOL    HW222689   0.707   5.897   5.454  1.1854 -0.8457 -1.1468
 7264SOL     OW22690   0.310   0.947   1.502  0.2665 -0.2994 -0.0916
 7264SOL    HW122691   0.410   0.948   1.500  0.2668 -0.4540 -0.2061
 7264SOL    HW222692   0.276   1.026   1.554  0.5015 -2.0903  2.9966
 7265SOL     OW22693   4.740   1.519   3.547 -0.4014 -0.4337 -0.1703
 7265SOL    HW122694   4.806   1.563   3.486 -0.8080  0.6653  0.1528
 7265SOL    HW222695   4.753   1.553   3.641  0.0741 -1.9403  0.3321
 7266SOL     OW22696   6.014   1.990   2.237  0.1717  0.6260  1.0252
 7266SOL    HW122697   6.054   2.022   2.151 -0.6022 -0.2951  0.2894
 7266SOL    HW222698   5.932   2.043   2.257 -0.4836 -0.1049  0.3884
 7267SOL     OW22699   1.064   4.733   6.644 -0.1364  0.5785 -0.2026
 7267SOL    HW122700   1.038   4.643   6.611  0.5710  1.3019 -2.9724
 7267SOL    HW222701   1.153   4.758   6.607  0.3093  1.8954  1.6093
 7268SOL     OW22702   6.040   5.323   3.018 -0.1541 -0.1172  0.0860
 7268SOL    HW122703   5.965   5.263   2.991 -0.6085 -0.0914  1.2462
 7268SOL    HW222704   6.127   5.274   3.006 -0.3985 -0.3830 -0.6313
 7269SOL     OW22705   1.532   5.183   4.586  0.0641 -0.2405 -0.7862
 7269SOL    HW122706   1.518   5.280   4.605 -2.6910 -0.0848 -2.9528
 7269SOL    HW222707   1.587   5.173   4.503 -1.1898 -0.4116 -1.6287
 7270SOL     OW22708   0.716   3.207   3.502  0.6649 -0.9360  0.7128
 7270SOL    HW122709   0.792   3.271   3.499 -1.0079  1.1612 -0.1629
 7270SOL    HW222710   0.657   3.222   3.422 -0.8034 -2.2915  1.4794
 7271SOL     OW22711   6.322   5.413   2.096 -0.0612 -0.1105  0.3012
 7271SOL    HW122712   6.405   5.464   2.073 -1.3623  1.8091 -0.2649
 7271SOL    HW222713   6.317   5.331   2.039  1.3972 -0.2472  0.3165
 7272SOL     OW22714   6.838   2.403   2.622  0.2353 -0.1583 -0.1807
 7272SOL    HW122715   6.741   2.406   2.646 -0.0281 -0.1321 -1.1998
 7272SOL    HW222716   6.856   2.464   2.546  0.4660 -2.2814 -1.9282
 7273SOL     OW22717   1.382   3.405   4.551 -0.0549  0.3035  0.1371
 7273SOL    HW122718   1.393   3.307   4.567 -1.5900 -0.3047 -1.9881
 7273SOL    HW222719   1.344   3.449   4.633  2.5137 -0.4318  1.8190
 7274SOL     OW22720   1.147   5.477   6.504  0.1503 -0.1246 -0.4360
 7274SOL    HW122721   1.054   5.498   6.474 -0.0159  0.7323  0.6217
 7274SOL    HW222722   1.163   5.517   6.594  1.0890 -1.4611  0.0198
 7275SOL     OW22723   5.845   4.686   3.319 -0.1773 -0.1538 -0.2414
 7275SOL    HW122724   5.776   4.682   3.247  0.2197 -1.4980 -0.5765
 7275SOL    HW222725   5.922   4.742   3.289 -0.8563  0.8801 -0.0891
 7276SOL     OW22726   3.274   6.910   4.203  0.1919  0.1035  0.1175
 7276SOL    HW122727   3.295   6.979   4.272 -3.4513  0.0364  1.5365
 7276SOL    HW222728   3.211   6.948   4.135  1.8102 -0.5506 -1.8531
 7277SOL     OW22729   4.794   0.483   0.463 -0.1955  0.4549  0.7255
 7277SOL    HW122730   4.793   0.388   0.495 -0.0983  0.7548  1.6302
 7277SOL    HW222731   4.867   0.533   0.509 -1.5618  1.5047  1.8361
 7278SOL     OW22732   3.300   3.498   1.947 -0.3061  0.1543  0.1867
 7278SOL    HW122733   3.232   3.541   1.887  0.1641  0.1865 -0.3342
 7278SOL    HW222734   3.344   3.568   2.003 -0.5309  0.1634  0.3554
 7279SOL     OW22735   3.490   3.102   4.877  0.4635  0.3372 -0.4911
 7279SOL    HW122736   3.396   3.083   4.904  0.9967  0.1884  1.4455
 7279SOL    HW222737   3.549   3.026   4.906  1.1714  0.3882 -1.7520
 7280SOL     OW22738   3.405   0.265   4.677 -0.1886  0.1907 -0.3262
 7280SOL    HW122739   3.437   0.342   4.732 -0.6060 -0.3171  0.6530
 7280SOL    HW222740   3.373   0.192   4.737 -0.3548 -0.5147 -1.2482
 7281SOL     OW22741   5.404   0.611   1.633 -0.5437 -0.0777 -0.2476
 7281SOL    HW122742   5.412   0.522   1.588 -2.4456  0.2045 -1.2599
 7281SOL    HW222743   5.490   0.634   1.679  0.2382 -2.0528 -0.6550
 7282SOL     OW22744   5.997   6.197   4.940  0.0024  0.5591 -0.8007
 7282SOL    HW122745   5.915   6.199   4.881 -1.8618  2.4166  1.6236
 7282SOL    HW222746   6.010   6.105   4.975 -0.9839  0.1902 -1.3325
 7283SOL     OW22747   2.963   1.989   0.559 -0.3619 -0.3130 -0.4541
 7283SOL    HW122748   2.965   2.084   0.529 -0.1747 -0.1859 -0.0403
 7283SOL    HW222749   2.931   1.985   0.653 -0.9586 -0.7124 -0.6627
 7284SOL     OW22750   0.046   0.419   5.106 -0.3396 -0.3505  0.2175
 7284SOL    HW122751   0.024   0.512   5.135 -1.7129 -0.6616  0.2597
 7284SOL    HW222752   0.128   0.387   5.153 -0.3355  0.5414  0.8239
 7285SOL     OW22753   5.230   4.719   1.132  0.1666 -0.4253  0.0784
 7285SOL    HW122754   5.236   4.620   1.146 -0.7040 -0.8957 -2.3881
 7285SOL    HW222755   5.136   4.749   1.146  0.3942  0.0375  0.6488
 7286SOL     OW22756   2.989   3.014   0.653  0.0265  0.1017 -0.0201
 7286SOL    HW122757   3.051   3.010   0.731  0.4355  0.0167 -0.3514
 7286SOL    HW222758   2.976   2.923   0.615 -2.0892 -0.2796  1.4358
 7287SOL     OW22759   6.587   2.561   6.564 -0.2117  0.5304 -0.0224
 7287SOL    HW122760   6.568   2.479   6.510 -0.6216  2.6449 -3.3458
 7287SOL    HW222761   6.504   2.616   6.572 -0.0487  0.4998  2.5219
 7288SOL     OW22762   2.709   0.802   0.945 -0.0198 -0.0422 -0.2707
 7288SOL    HW122763   2.619   0.778   0.907 -2.0042  3.6838  1.5268
 7288SOL    HW222764   2.740   0.888   0.904  2.2173 -0.6095  0.0847
 7289SOL     OW22765   5.188   0.393   3.273 -0.3829 -0.0387 -0.3382
 7289SOL    HW122766   5.257   0.386   3.201 -1.8522  0.4696 -1.8518
 7289SOL    HW222767   5.155   0.487   3.279 -0.5775 -0.1584  0.7373
 7290SOL     OW22768   2.428   6.778   4.462  0.3681 -0.4374  0.7670
 7290SOL    HW122769   2.490   6.707   4.429 -0.9735 -0.6380 -1.5229
 7290SOL    HW222770   2.412   6.845   4.389 -0.1210  1.0186  2.1580
 7291SOL     OW22771   2.591   0.921   6.790  0.4467 -0.5130  0.2869
 7291SOL    HW122772   2.504   0.955   6.824  0.0636  1.6401 -2.4083
 7291SOL    HW222773   2.576   0.841   6.732  0.0976  0.2663 -0.7387
 7292SOL     OW22774   5.926   0.410   5.931 -0.5257 -0.6686  0.2655
 7292SOL    HW122775   6.000   0.401   5.865 -0.9018  0.2731 -0.2990
 7292SOL    HW222776   5.955   0.372   6.019  0.7147 -0.1160  0.1116
 7293SOL     OW22777   2.581   1.565   5.856 -0.1050 -0.0545 -0.1375
 7293SOL    HW122778   2.656   1.553   5.921  0.0502 -2.1288 -0.6354
 7293SOL    HW222779   2.501   1.602   5.904  0.2946 -0.6678  1.0357
 7294SOL     OW22780   3.561   5.332   1.153 -0.1591  0.4348  0.2574
 7294SOL    HW122781   3.607   5.392   1.218  0.2634  0.7263 -0.3017
 7294SOL    HW222782   3.480   5.291   1.196  1.5095 -1.4148  1.8557
 7295SOL     OW22783   3.563   0.188   0.224 -0.2749 -0.0271 -0.1415
 7295SOL    HW122784   3.651   0.224   0.254 -0.9270  0.3345  1.4938
 7295SOL    HW222785   3.577   0.109   0.165  1.1475  1.0584 -1.3393
 7296SOL     OW22786   4.228   5.615   1.036 -0.0682  0.2238  0.2135
 7296SOL    HW122787   4.262   5.521   1.041  1.2691  0.7309  1.4990
 7296SOL    HW222788   4.235   5.649   0.942 -0.2038 -0.8142 -0.1823
 7297SOL     OW22789   5.264   6.047   4.373  0.5486  0.4765 -0.2088
 7297SOL    HW122790   5.213   6.132   4.357 -1.1671 -0.0607  2.0554
 7297SOL    HW222791   5.250   5.985   4.296 -1.4353  0.7316 -0.0903
 7298SOL     OW22792   5.423   1.806   4.632  0.1714 -0.2923 -0.0496
 7298SOL    HW122793   5.430   1.848   4.723  0.5048 -0.3080 -0.0671
 7298SOL    HW222794   5.355   1.733   4.635 -2.7848  2.2140 -0.7763
 7299SOL     OW22795   6.294   3.302   5.659 -0.1324 -0.1026  0.3870
 7299SOL    HW122796   6.263   3.258   5.575  1.2976  0.7132 -0.6042
 7299SOL    HW222797   6.386   3.270   5.681 -0.0007  0.6502  0.9528
 7300SOL     OW22798   2.996   5.963   0.243  0.1573 -0.1330 -0.3915
 7300SOL    HW122799   3.019   6.058   0.267 -0.3835  0.0656 -0.6562
 7300SOL    HW222800   3.058   5.932   0.171 -1.9106  1.2669 -2.9562
 7301SOL     OW22801   6.171   2.181   6.193  0.2220 -1.2025 -0.1906
 7301SOL    HW122802   6.164   2.152   6.097 -0.6781 -1.1893 -0.1355
 7301SOL    HW222803   6.195   2.279   6.196 -1.8100 -0.6531 -0.4530
 7302SOL     OW22804   6.101   2.179   5.500  0.3421 -0.2858 -0.3519
 7302SOL    HW122805   6.123   2.269   5.537 -1.1518  0.2914 -0.8289
 7302SOL    HW222806   6.151   2.165   5.415  0.4005  0.1776 -0.3948
 7303SOL     OW22807   4.825   6.625   1.971  0.2479 -0.0147 -0.2893
 7303SOL    HW122808   4.778   6.713   1.968  0.5469  0.2249  1.1888
 7303SOL    HW222809   4.895   6.622   1.899 -0.5051  0.5022 -1.0557
 7304SOL     OW22810   3.199   3.502   3.810  0.0718 -0.4795  0.2089
 7304SOL    HW122811   3.172   3.445   3.887 -0.0058  1.2348  1.5331
 7304SOL    HW222812   3.143   3.480   3.730 -1.5076 -0.6979  1.3317
 7305SOL     OW22813   6.551   2.277   0.365  0.6087  0.5027 -0.0944
 7305SOL    HW122814   6.639   2.307   0.328  0.1184  0.0596 -1.6790
 7305SOL    HW222815   6.566   2.223   0.448  1.9621 -1.0084 -1.2649
 7306SOL     OW22816   5.540   3.703   2.111  0.4638  0.0946 -0.2299
 7306SOL    HW122817   5.512   3.770   2.043 -1.6865  0.0994  0.5832
 7306SOL    HW222818   5.638   3.683   2.100  0.9612  2.6133 -1.0918
 7307SOL     OW22819   5.566   6.822   3.017  0.3650 -0.0869 -0.4704
 7307SOL    HW122820   5.563   6.779   2.927  0.9480 -1.8994  0.3204
 7307SOL    HW222821   5.497   6.780   3.076 -0.7612  1.8307 -0.3289
 7308SOL     OW22822   6.090   6.915   5.077  0.6211  0.1709  0.2301
 7308SOL    HW122823   6.000   6.934   5.039  0.5402 -1.5438 -0.5449
 7308SOL    HW222824   6.134   7.000   5.105 -0.4391  1.2336 -1.2032
 7309SOL     OW22825   5.332   3.319   6.700  0.2547 -0.8300  0.4193
 7309SOL    HW122826   5.288   3.245   6.649  0.0303 -0.5057  0.1394
 7309SOL    HW222827   5.263   3.375   6.745  0.2710  0.5014 -1.1354
 7310SOL     OW22828   2.331   6.157   2.698 -0.2540  0.3306  0.0301
 7310SOL    HW122829   2.396   6.109   2.638  0.5458  0.8840  0.4397
 7310SOL    HW222830   2.376   6.236   2.740 -0.4819 -0.5993  2.1485
 7311SOL     OW22831   3.999   1.271   2.627  0.6356  0.2213  0.1392
 7311SOL    HW122832   3.993   1.206   2.703  1.8397  1.5936  1.4747
 7311SOL    HW222833   3.907   1.304   2.605  0.3283  0.4537  1.6205
 7312SOL     OW22834   0.573   2.371   5.636 -0.2189  0.0751  0.4591
 7312SOL    HW122835   0.562   2.323   5.723  1.1444  0.4193  0.8374
 7312SOL    HW222836   0.550   2.309   5.561  1.2955 -1.1338  0.9461
 7313SOL     OW22837   4.142   4.235   6.158  0.0437  0.1810 -0.3644
 7313SOL    HW122838   4.156   4.322   6.206  2.1859  0.3432 -1.1455
 7313SOL    HW222839   4.205   4.230   6.081 -1.0922 -1.4477 -1.2352
 7314SOL     OW22840   0.501   1.045   4.619  0.3191  0.2313 -0.5556
 7314SOL    HW122841   0.500   1.123   4.681  1.3510 -0.9127  0.9961
 7314SOL    HW222842   0.476   1.074   4.527  0.3827  2.3013  0.0452
 7315SOL     OW22843   0.313   1.571   0.205 -0.5573  0.0790 -0.1885
 7315SOL    HW122844   0.272   1.583   0.295 -1.5891  2.1436 -0.8549
 7315SOL    HW222845   0.389   1.634   0.194 -0.4253 -0.1687 -0.7440
 7316SOL     OW22846   3.944   3.533   4.091 -0.1707 -0.1076 -0.1442
 7316SOL    HW122847   3.912   3.600   4.159  0.6392 -0.1671  0.3127
 7316SOL    HW222848   3.994   3.581   4.019 -2.4019  0.1596 -1.6104
 7317SOL     OW22849   2.646   0.019   4.752 -0.1409  0.0196 -0.4977
 7317SOL    HW122850   2.602   0.096   4.707 -0.6276 -0.5937 -1.0904
 7317SOL    HW222851   2.725   0.052   4.804  0.0144  0.8337 -1.2200
 7318SOL     OW22852   1.282   0.416   3.063 -0.2469 -0.0716 -0.2115
 7318SOL    HW122853   1.193   0.460   3.047 -1.4415 -1.5919  1.8433
 7318SOL    HW222854   1.274   0.318   3.050  1.5195 -0.1065 -1.3213
 7319SOL     OW22855   5.725   3.694   1.159  0.4012 -0.4056  0.1741
 7319SOL    HW122856   5.697   3.628   1.229 -0.4189  0.0645  0.3067
 7319SOL    HW222857   5.684   3.668   1.071  0.9513 -0.6653 -0.0114
 7320SOL     OW22858   6.722   0.506   2.157  0.4224 -0.1531 -0.6063
 7320SOL    HW122859   6.651   0.445   2.121 -0.2917  0.2825  0.0244
 7320SOL    HW222860   6.692   0.543   2.244  1.7593 -0.5291  0.0407
 7321SOL     OW22861   4.378   0.089   5.294  0.9021  0.3225  0.0359
 7321SOL    HW122862   4.335   0.001   5.312  0.1166  0.7613  0.3865
 7321SOL    HW222863   4.398   0.098   5.196 -0.5601  0.4148 -0.2791
 7322SOL     OW22864   0.991   3.453   1.865  0.0183 -0.1283  0.0562
 7322SOL    HW122865   1.081   3.488   1.838 -0.5006 -0.2389 -1.9901
 7322SOL    HW222866   1.001   3.361   1.901  0.7627 -0.0369  0.1126
 7323SOL     OW22867   2.391   4.274   1.395  0.1213  0.0821 -0.0215
 7323SOL    HW122868   2.343   4.349   1.441 -0.7187 -0.8002  0.5941
 7323SOL    HW222869   2.464   4.239   1.454  0.7672  0.6560 -0.4691
 7324SOL     OW22870   4.115   5.467   3.598  0.0613 -0.3218 -0.6675
 7324SOL    HW122871   4.112   5.535   3.525  0.9157 -0.9231 -1.2795
 7324SOL    HW222872   4.022   5.441   3.624 -0.2932  1.4327 -0.0665
 7325SOL     OW22873   3.297   0.165   0.582  0.1681 -0.5571 -0.4583
 7325SOL    HW122874   3.289   0.150   0.680  0.2003 -0.7933 -0.4917
 7325SOL    HW222875   3.346   0.251   0.565 -0.2652 -0.2654 -0.2662
 7326SOL     OW22876   3.020   1.876   3.157 -0.1047  0.3637  0.0526
 7326SOL    HW122877   2.970   1.789   3.162  0.5130 -0.0011  0.0194
 7326SOL    HW222878   3.039   1.898   3.062  2.9219 -1.3649  0.1143
 7327SOL     OW22879   2.995   5.225   1.157 -0.3929 -0.2077 -0.0546
 7327SOL    HW122880   2.989   5.133   1.195  0.1365  0.4611  1.7405
 7327SOL    HW222881   3.091   5.253   1.152 -0.5859  0.4952  0.0592
 7328SOL     OW22882   1.730   6.761   6.129  0.1998  0.0888 -0.2420
 7328SOL    HW122883   1.708   6.858   6.118 -1.3978 -0.3771 -1.6213
 7328SOL    HW222884   1.668   6.720   6.195  0.2286 -0.2098 -0.4007
 7329SOL     OW22885   3.234   3.042   2.476  0.2172  0.2395 -0.4748
 7329SOL    HW122886   3.274   3.134   2.479  1.3663 -0.1993 -1.3380
 7329SOL    HW222887   3.136   3.047   2.493  0.7079  1.2837  2.7382
 7330SOL     OW22888   4.140   2.384   0.712 -0.3825  0.0575  0.0071
 7330SOL    HW122889   4.086   2.311   0.751 -1.2944  0.0493 -1.2148
 7330SOL    HW222890   4.095   2.419   0.629  0.1418  1.8313  0.4235
 7331SOL     OW22891   5.718   0.891   0.928  0.1859 -0.3720 -0.2739
 7331SOL    HW122892   5.808   0.933   0.940  0.3164 -0.6021 -0.4322
 7331SOL    HW222893   5.726   0.792   0.935 -0.1324 -0.3707  0.1648
 7332SOL     OW22894   3.740   5.832   0.850  0.7613  0.0309 -0.0157
 7332SOL    HW122895   3.767   5.841   0.754 -0.4926  1.6111 -0.2605
 7332SOL    HW222896   3.814   5.865   0.908  1.1872 -0.0963 -0.4763
 7333SOL     OW22897   5.834   3.717   2.035  0.4968 -0.1387 -0.2323
 7333SOL    HW122898   5.916   3.759   1.995  0.3715 -0.0073 -0.3528
 7333SOL    HW222899   5.849   3.619   2.047  0.0586 -0.4360 -1.8437
 7334SOL     OW22900   0.799   0.241   5.006  0.1129  0.2462 -0.2851
 7334SOL    HW122901   0.708   0.204   4.987 -0.3665  0.2233  1.7611
 7334SOL    HW222902   0.869   0.181   4.968 -0.7082 -0.4161 -0.7678
 7335SOL     OW22903   2.540   2.519   3.431  0.2140 -0.0033  0.1270
 7335SOL    HW122904   2.534   2.542   3.334 -0.0679 -0.7684 -0.0435
 7335SOL    HW222905   2.511   2.597   3.486 -0.2415  0.2176 -0.4224
 7336SOL     OW22906   1.279   7.015   4.670  0.3062  0.3814  0.3633
 7336SOL    HW122907   1.188   7.021   4.628 -0.2343  1.0103  1.5906
 7336SOL    HW222908   1.272   7.034   4.768  1.9878  2.0990  0.2115
 7337SOL     OW22909   4.549   3.256   1.510  0.0451 -0.1520  0.2581
 7337SOL    HW122910   4.478   3.194   1.477  0.5035 -0.3754 -0.3199
 7337SOL    HW222911   4.620   3.203   1.556 -0.2269  0.0864  0.9693
 7338SOL     OW22912   0.524   4.760   0.398 -0.4162 -0.3509  0.0127
 7338SOL    HW122913   0.503   4.715   0.485  0.0866 -0.8225 -0.1037
 7338SOL    HW222914   0.593   4.831   0.414 -0.2202 -0.5320 -0.0188
 7339SOL     OW22915   2.036   4.604   5.122  0.2510 -0.0325  0.6410
 7339SOL    HW122916   2.083   4.516   5.130  0.0683 -0.1573  0.3622
 7339SOL    HW222917   2.005   4.634   5.213  2.1438  0.7642  1.0667
 7340SOL     OW22918   2.805   4.951   6.070 -0.1841  0.7541  0.1470
 7340SOL    HW122919   2.870   4.899   6.126 -0.3422  0.3917 -0.0012
 7340SOL    HW222920   2.737   4.888   6.032 -0.0045  0.9735 -0.5549
 7341SOL     OW22921   5.394   0.751   0.721  0.6033 -0.0750  0.3199
 7341SOL    HW122922   5.447   0.692   0.660 -0.0619 -1.4091  0.9823
 7341SOL    HW222923   5.369   0.700   0.803 -1.9828  0.3670 -0.1169
 7342SOL     OW22924   1.512   5.273   2.560  0.0433 -0.1577 -0.2308
 7342SOL    HW122925   1.604   5.240   2.536 -0.0794  0.3542 -1.4507
 7342SOL    HW222926   1.496   5.362   2.517 -0.8689 -0.0420  0.3282
 7343SOL     OW22927   1.124   2.712   6.892  0.7762 -0.3965 -0.1139
 7343SOL    HW122928   1.031   2.696   6.922  0.2272  0.8624 -1.0625
 7343SOL    HW222929   1.171   2.624   6.881 -0.5502 -1.0962 -0.3910
 7344SOL     OW22930   2.911   1.391   5.643  0.2597 -0.2072 -0.2091
 7344SOL    HW122931   2.903   1.334   5.725  1.2443 -0.8551 -0.5387
 7344SOL    HW222932   2.947   1.481   5.669  0.3224 -0.3211  0.1050
 7345SOL     OW22933   2.178   5.413   0.831  0.5220  0.8877  0.6821
 7345SOL    HW122934   2.189   5.336   0.894  0.2318 -1.0219 -1.4764
 7345SOL    HW222935   2.081   5.434   0.821  0.4772  0.3635 -0.0365
 7346SOL     OW22936   3.448   4.908   3.637 -0.0346 -0.0335  0.1808
 7346SOL    HW122937   3.392   4.864   3.707 -1.1368  1.2028  0.1196
 7346SOL    HW222938   3.540   4.925   3.674 -0.3369 -0.1878  1.0287
 7347SOL     OW22939   5.501   5.912   4.446  0.5855  0.2124 -0.3560
 7347SOL    HW122940   5.510   5.845   4.372 -1.0045 -0.9481  0.4343
 7347SOL    HW222941   5.438   5.985   4.418 -0.6511 -0.6463  0.0752
 7348SOL     OW22942   5.776   0.225   0.359  0.1564 -0.3535  0.0310
 7348SOL    HW122943   5.817   0.142   0.397 -1.5174 -1.6996 -0.9555
 7348SOL    HW222944   5.676   0.215   0.356  0.0702  0.1836 -3.3788
 7349SOL     OW22945   4.216   1.001   1.403  0.6790  0.6049 -0.0272
 7349SOL    HW122946   4.268   1.066   1.347 -0.5671  0.2271 -1.6970
 7349SOL    HW222947   4.153   1.051   1.463  0.4115  0.9753 -0.6094
 7350SOL     OW22948   2.407   2.726   4.377 -0.5384  0.0816 -0.1795
 7350SOL    HW122949   2.410   2.627   4.385 -3.0587 -0.1304 -0.9416
 7350SOL    HW222950   2.389   2.767   4.467 -0.7798 -0.2471 -0.0785
 7351SOL     OW22951   2.454   4.973   4.639  0.0424  0.3944  0.4017
 7351SOL    HW122952   2.430   4.990   4.734  0.3999  1.9712  0.2321
 7351SOL    HW222953   2.437   5.055   4.584 -0.3493 -0.5414 -0.9479
 7352SOL     OW22954   2.032   2.350   4.422  0.4862  0.2025  0.1039
 7352SOL    HW122955   2.001   2.410   4.495 -0.9223 -1.6172  1.0967
 7352SOL    HW222956   2.078   2.270   4.462  0.0690 -0.6173 -1.0050
 7353SOL     OW22957   6.331   2.011   5.631 -0.2458  0.2006  0.2925
 7353SOL    HW122958   6.245   2.044   5.590 -1.0676 -0.6124  1.2897
 7353SOL    HW222959   6.398   2.085   5.633 -0.9485  0.8824 -0.4227
 7354SOL     OW22960   0.625   0.259   1.980 -0.4685  0.1130  0.5647
 7354SOL    HW122961   0.525   0.256   1.981 -0.4510 -1.0601  0.6191
 7354SOL    HW222962   0.658   0.224   1.892 -0.1088  1.4323  0.1530
 7355SOL     OW22963   4.704   0.559   1.116  0.4289  0.2336  0.0053
 7355SOL    HW122964   4.695   0.648   1.071 -1.5349  0.3768  0.5799
 7355SOL    HW222965   4.614   0.528   1.147  1.1820 -1.6212  0.4861
 7356SOL     OW22966   3.726   3.129   5.284 -0.1219  0.0859  0.0829
 7356SOL    HW122967   3.773   3.047   5.252 -0.7747 -0.3214  0.1559
 7356SOL    HW222968   3.726   3.198   5.211  2.1627  0.7921  0.6766
 7357SOL     OW22969   3.742   6.820   2.348 -0.5497  0.5615  0.5088
 7357SOL    HW122970   3.669   6.839   2.282 -0.2509  0.0544  0.0151
 7357SOL    HW222971   3.792   6.738   2.319  1.4480  1.9676 -0.2214
 7358SOL     OW22972   3.052   5.340   3.474 -0.5556 -0.0766  0.5013
 7358SOL    HW122973   3.103   5.316   3.556 -1.4544  0.8308  1.3486
 7358SOL    HW222974   3.042   5.258   3.416  0.2066 -0.6937  1.2123
 7359SOL     OW22975   1.627   0.430   1.390 -0.5235 -0.1901  0.1212
 7359SOL    HW122976   1.675   0.517   1.378 -0.6749 -0.0889  0.2593
 7359SOL    HW222977   1.674   0.360   1.336  0.5801 -0.3919  1.2767
 7360SOL     OW22978   3.042   2.466   6.999 -0.0043 -0.1880 -0.0629
 7360SOL    HW122979   2.960   2.514   6.970 -0.5228 -0.3796  1.0394
 7360SOL    HW222980   3.042   2.373   6.962  1.2939  0.7554 -2.7086
 7361SOL     OW22981   5.620   2.160   3.311  0.0056  0.1117 -0.4601
 7361SOL    HW122982   5.695   2.158   3.244  2.0611 -0.3236  1.6904
 7361SOL    HW222983   5.659   2.157   3.403 -2.7200  0.0755  0.7703
 7362SOL     OW22984   2.538   5.313   1.332 -0.2934 -0.1996 -0.3206
 7362SOL    HW122985   2.562   5.331   1.427 -0.7089 -3.3545  0.4657
 7362SOL    HW222986   2.599   5.243   1.294 -2.0216 -1.1734 -1.4131
 7363SOL     OW22987   4.621   6.461   2.532  0.0068  0.0248  0.2162
 7363SOL    HW122988   4.615   6.534   2.600  0.3635  1.2670 -1.0603
 7363SOL    HW222989   4.712   6.462   2.490 -0.7426  0.3844 -1.4812
 7364SOL     OW22990   6.569   4.674   2.052 -0.3668 -0.0414 -0.1530
 7364SOL    HW122991   6.501   4.653   1.982  0.9600 -3.3014 -0.6450
 7364SOL    HW222992   6.655   4.627   2.031  0.8695  0.8526  2.4135
 7365SOL     OW22993   5.067   4.257   1.578 -0.2413 -0.1365 -0.3729
 7365SOL    HW122994   5.030   4.185   1.520  0.4576  0.0651 -1.0825
 7365SOL    HW222995   5.117   4.215   1.654 -0.2031 -0.4044 -0.5446
 7366SOL     OW22996   2.759   5.434   5.187 -0.4672  0.4501  0.1040
 7366SOL    HW122997   2.799   5.350   5.149 -1.5186 -0.1746  0.3433
 7366SOL    HW222998   2.821   5.471   5.257  0.6441  0.6373 -0.9312
 7367SOL     OW22999   4.134   1.103   2.323  0.2452 -0.2459  0.3873
 7367SOL    HW123000   4.072   1.087   2.399 -0.5707 -0.7056 -0.3663
 7367SOL    HW223001   4.090   1.163   2.256  0.3869 -1.0242 -0.4195
 7368SOL     OW23002   3.383   2.837   2.941  0.2597  0.3527 -0.5714
 7368SOL    HW123003   3.375   2.850   2.842 -0.1069  1.2922 -0.4379
 7368SOL    HW223004   3.478   2.850   2.969  0.2579  0.7289 -0.7284
 7369SOL     OW23005   6.213   3.264   1.044  0.2386  0.1426 -0.0473
 7369SOL    HW123006   6.238   3.176   1.005  0.8289 -0.1334  0.9141
 7369SOL    HW223007   6.289   3.300   1.098 -1.0262 -0.2500  2.1371
 7370SOL     OW23008   2.053   1.067   3.180 -0.5003 -0.4880  0.0680
 7370SOL    HW123009   2.121   1.046   3.249  0.9536 -0.5771 -1.3224
 7370SOL    HW223010   2.059   1.001   3.105 -3.0071 -1.2650  0.4679
 7371SOL     OW23011   5.598   6.197   3.040  0.1661 -0.0145 -0.0523
 7371SOL    HW123012   5.662   6.263   3.080  1.1630 -1.0436  0.0988
 7371SOL    HW223013   5.535   6.245   2.979  1.2623  0.9878 -0.4302
 7372SOL     OW23014   3.760   1.519   5.430 -0.4549  0.0668 -0.3262
 7372SOL    HW123015   3.808   1.598   5.467 -0.2317  0.9448 -2.3541
 7372SOL    HW223016   3.730   1.539   5.336 -0.2422 -2.3134 -0.9600
 7373SOL     OW23017   6.793   3.583   3.472 -0.1040  0.2426  0.1841
 7373SOL    HW123018   6.762   3.498   3.514  1.4101 -0.1022  0.6606
 7373SOL    HW223019   6.871   3.619   3.523 -0.2213  1.5005 -0.4862
 7374SOL     OW23020   6.044   3.012   6.500 -0.4947 -0.3362 -0.3290
 7374SOL    HW123021   6.072   3.064   6.581  1.2782 -1.8908  0.1268
 7374SOL    HW223022   6.037   3.074   6.422 -0.5966  0.9201  0.6346
 7375SOL     OW23023   0.915   2.490   1.329  0.3356  0.0578  0.1701
 7375SOL    HW123024   0.836   2.522   1.278 -0.0685  0.5647  1.0779
 7375SOL    HW223025   0.887   2.467   1.422  1.4547  1.4518  0.9039
 7376SOL     OW23026   6.169   4.749   5.411  0.4390 -0.3749 -0.2698
 7376SOL    HW123027   6.141   4.777   5.503  2.6113  0.5062  0.1824
 7376SOL    HW223028   6.108   4.677   5.379  0.3180 -1.5705  2.3527
 7377SOL     OW23029   2.380   6.599   1.984 -0.0024 -0.4723  0.2117
 7377SOL    HW123030   2.357   6.670   2.050 -4.4777 -3.1195  1.9277
 7377SOL    HW223031   2.342   6.623   1.895 -2.0637 -0.8348  0.9344
 7378SOL     OW23032   2.255   4.308   4.824  0.1228  0.2498 -0.5104
 7378SOL    HW123033   2.238   4.220   4.868  0.3226  0.8938  0.9386
 7378SOL    HW223034   2.287   4.294   4.731  1.3405 -1.2723  0.0966
 7379SOL     OW23035   5.770   1.997   1.783 -0.2681 -0.2654  0.3810
 7379SOL    HW123036   5.856   1.950   1.799  0.3868  0.5439 -0.6391
 7379SOL    HW223037   5.782   2.095   1.800 -1.2124 -0.2470  1.0307
 7380SOL     OW23038   5.156   2.438   1.403 -0.3368  0.4014  0.0023
 7380SOL    HW123039   5.190   2.530   1.385 -1.2544  0.7758  0.1460
 7380SOL    HW223040   5.208   2.372   1.348 -1.1298  1.2279 -1.8228
 7381SOL     OW23041   2.536   6.176   1.988 -0.5072 -0.2316  0.5319
 7381SOL    HW123042   2.619   6.138   1.948 -0.2365 -0.9468  1.7153
 7381SOL    HW223043   2.559   6.256   2.044 -0.8692  0.7088 -0.6260
 7382SOL     OW23044   2.409   2.539   0.379  0.1474  0.4605 -0.1007
 7382SOL    HW123045   2.496   2.505   0.343 -0.3609 -1.0544  0.0220
 7382SOL    HW223046   2.426   2.598   0.458  1.0450 -0.2327  0.2458
 7383SOL     OW23047   2.070   0.094   0.642 -0.4109 -0.1223  0.2290
 7383SOL    HW123048   2.157   0.079   0.689  0.2406  1.2031 -0.5177
 7383SOL    HW223049   1.997   0.047   0.693  0.5147 -0.1155  1.6306
 7384SOL     OW23050   5.941   1.552   6.890 -0.0849 -0.3899 -1.0120
 7384SOL    HW123051   5.908   1.643   6.865  0.9098  0.3805  0.3037
 7384SOL    HW223052   5.909   1.530   6.982  1.3729 -0.4701 -0.5030
 7385SOL     OW23053   0.975   4.059   0.622  0.0575  0.1477  0.4785
 7385SOL    HW123054   1.011   3.999   0.692 -0.8757 -1.3694 -0.3002
 7385SOL    HW223055   0.916   4.008   0.560  1.4297  1.2415 -1.8814
 7386SOL     OW23056   5.788   4.714   0.674 -0.0463 -0.3716 -0.2053
 7386SOL    HW123057   5.750   4.649   0.607  1.0830 -1.0149 -0.2445
 7386SOL    HW223058   5.736   4.707   0.760 -1.3773  0.3134 -0.9165
 7387SOL     OW23059   5.897   5.398   3.240 -0.0280 -0.8139 -0.0259
 7387SOL    HW123060   5.809   5.352   3.241  0.9985 -2.9083  0.8624
 7387SOL    HW223061   5.939   5.391   3.150 -1.0643  0.9134 -0.6926
 7388SOL     OW23062   1.202   6.012   2.585 -0.2157 -0.4062 -0.2472
 7388SOL    HW123063   1.184   6.001   2.487 -1.9136  2.2703 -0.3288
 7388SOL    HW223064   1.288   5.966   2.608  0.4642 -0.7478 -3.0482
 7389SOL     OW23065   0.874   3.023   0.713 -0.6329  0.1506  0.3978
 7389SOL    HW123066   0.894   3.105   0.660 -3.0732  0.5205 -0.0759
 7389SOL    HW223067   0.923   3.026   0.800 -1.0229  2.3533  0.5918
 7390SOL     OW23068   3.709   1.445   2.900  0.7344 -0.0099 -0.2343
 7390SOL    HW123069   3.792   1.440   2.956 -0.0837  1.7617  1.2676
 7390SOL    HW223070   3.696   1.539   2.868 -1.5714  0.1965  1.0692
 7391SOL     OW23071   3.389   3.233   1.985 -0.2656 -0.1926 -0.2289
 7391SOL    HW123072   3.360   3.325   1.956 -2.4729 -0.3184  1.3477
 7391SOL    HW223073   3.469   3.240   2.044 -2.0179  1.0741  2.1516
 7392SOL     OW23074   3.961   5.586   6.441 -0.5693  0.0922  0.1537
 7392SOL    HW123075   3.996   5.631   6.523 -2.3057  0.2991  0.8096
 7392SOL    HW223076   3.928   5.494   6.465  0.7404 -0.6455 -0.7200
 7393SOL     OW23077   3.961   0.008   3.824 -0.0550  0.0370  0.1547
 7393SOL    HW123078   4.055   0.019   3.858 -0.7751  2.6802  1.5716
 7393SOL    HW223079   3.905   0.083   3.858 -2.1691 -0.1379 -2.6358
 7394SOL     OW23080   2.170   6.829   6.452  0.1394 -0.0688  1.4437
 7394SOL    HW123081   2.237   6.904   6.454  0.3707 -0.1899 -0.0522
 7394SOL    HW223082   2.218   6.743   6.432 -0.5273  0.0143 -0.8247
 7395SOL     OW23083   3.452   4.914   2.409 -0.1544  0.4361  0.8523
 7395SOL    HW123084   3.545   4.875   2.409 -0.0112  0.7538 -0.0284
 7395SOL    HW223085   3.426   4.937   2.315 -0.0722  2.8084  1.3409
 7396SOL     OW23086   0.853   5.575   2.130  0.0996  0.1373 -0.5179
 7396SOL    HW123087   0.933   5.535   2.085 -0.4447 -1.8464  0.1693
 7396SOL    HW223088   0.880   5.657   2.180  1.7193 -0.5377 -0.2275
 7397SOL     OW23089   6.364   4.960   4.244  0.4280 -0.0274  0.1824
 7397SOL    HW123090   6.338   5.054   4.263 -1.9376 -0.3331 -1.0282
 7397SOL    HW223091   6.301   4.898   4.291  1.1472 -0.9684 -0.0557
 7398SOL     OW23092   4.480   6.406   2.880  0.2793  0.4674 -0.5865
 7398SOL    HW123093   4.457   6.419   2.976 -1.9280  0.5696 -1.0806
 7398SOL    HW223094   4.421   6.463   2.823 -0.3381 -1.5826 -2.1151
 7399SOL     OW23095   6.561   1.692   5.817  0.0661 -0.0558  0.1461
 7399SOL    HW123096   6.558   1.642   5.731 -2.7220  0.5829 -0.2277
 7399SOL    HW223097   6.597   1.632   5.889 -0.7643 -1.7481 -0.7982
 7400SOL     OW23098   5.948   3.997   5.792  0.2031 -0.0239  0.6818
 7400SOL    HW123099   5.871   3.998   5.856 -1.4777  0.3194 -1.2487
 7400SOL    HW223100   5.963   3.904   5.759 -0.0282  0.0500  0.3565
 7401SOL     OW23101   3.826   1.425   4.898  0.2625 -0.5977 -0.4493
 7401SOL    HW123102   3.849   1.451   4.805  0.3915  0.4556 -0.1397
 7401SOL    HW223103   3.886   1.472   4.962 -1.5509  0.8766  0.2850
 7402SOL     OW23104   4.727   6.766   4.790  0.5212  0.1795  0.1590
 7402SOL    HW123105   4.730   6.668   4.810 -2.6274 -0.4610 -1.7416
 7402SOL    HW223106   4.632   6.794   4.776  1.5286  2.5169 -3.4919
 7403SOL     OW23107   2.020   6.518   2.865  0.0245 -0.6300 -0.1057
 7403SOL    HW123108   1.957   6.533   2.789 -0.9430 -0.1449  0.7618
 7403SOL    HW223109   1.977   6.458   2.932 -0.5512  1.5827  1.6337
 7404SOL     OW23110   2.080   3.417   0.500  0.3388 -0.3970  0.1758
 7404SOL    HW123111   2.102   3.419   0.402 -0.3724 -1.1273 -0.0080
 7404SOL    HW223112   2.086   3.509   0.538 -1.2058  0.2135 -0.9762
 7405SOL     OW23113   2.698   0.464   0.666  0.5248 -0.4491  0.7735
 7405SOL    HW123114   2.635   0.442   0.740  1.1477 -0.9867  1.1606
 7405SOL    HW223115   2.653   0.523   0.599 -0.4399 -0.9899  0.9382
 7406SOL     OW23116   0.444   2.636   5.045  0.3485 -0.2386 -0.1756
 7406SOL    HW123117   0.398   2.648   5.133  0.7031  1.5685 -0.2121
 7406SOL    HW223118   0.396   2.688   4.975  0.8760 -0.5557 -0.7868
 7407SOL     OW23119   2.225   1.274   5.466 -0.1012  0.1888  0.1899
 7407SOL    HW123120   2.271   1.289   5.554  0.2724 -0.4289  0.1076
 7407SOL    HW223121   2.234   1.356   5.409  0.8497  0.1004  0.2043
 7408SOL     OW23122   4.021   0.420   5.271  0.3460  0.2180 -0.3391
 7408SOL    HW123123   4.081   0.341   5.282  0.9625  0.6348 -0.6322
 7408SOL    HW223124   4.074   0.498   5.239 -0.2730  0.7259 -0.1606
 7409SOL     OW23125   6.025   3.968   0.380 -0.2824 -0.2914 -0.3794
 7409SOL    HW123126   5.927   3.958   0.367 -0.8715  1.4088  2.1753
 7409SOL    HW223127   6.073   3.911   0.312 -2.9132  0.8144 -3.4388
 7410SOL     OW23128   5.787   0.453   2.303  0.4499 -0.0934 -0.1514
 7410SOL    HW123129   5.886   0.454   2.306  0.5196  3.2248  0.2131
 7410SOL    HW223130   5.751   0.399   2.378  1.9595 -1.0793 -0.1097
 7411SOL     OW23131   4.803   2.370   5.845  0.2634 -0.4479 -0.0659
 7411SOL    HW123132   4.796   2.457   5.894  0.3687  0.1235 -1.0453
 7411SOL    HW223133   4.744   2.302   5.889 -1.0459  0.5590 -0.2283
 7412SOL     OW23134   6.154   4.866   5.978  0.2195 -0.1005 -0.1891
 7412SOL    HW123135   6.197   4.795   6.034 -0.6170 -0.3294  0.1809
 7412SOL    HW223136   6.153   4.953   6.028 -2.0084 -0.6795  0.8797
 7413SOL     OW23137   4.243   1.818   4.953 -0.2279 -0.0462  0.2042
 7413SOL    HW123138   4.214   1.799   5.047  1.4692 -0.8041  0.6259
 7413SOL    HW223139   4.177   1.879   4.909 -1.8415 -0.8478  1.3859
 7414SOL     OW23140   4.229   0.864   4.888 -0.4172  0.7353  0.5506
 7414SOL    HW123141   4.164   0.901   4.822  0.6262 -0.5206 -1.2733
 7414SOL    HW223142   4.200   0.772   4.915 -1.0000  1.3540  2.1411
 7415SOL     OW23143   4.384   3.654   5.737 -0.4045 -0.6827 -0.2687
 7415SOL    HW123144   4.430   3.743   5.733 -0.0951 -0.8003  0.5775
 7415SOL    HW223145   4.452   3.581   5.730  0.2077 -0.9650  4.8011
 7416SOL     OW23146   6.237   6.678   0.926  0.0062  0.2210 -0.1196
 7416SOL    HW123147   6.292   6.746   0.878  1.0230  1.3196  2.4132
 7416SOL    HW223148   6.146   6.715   0.944 -0.2675 -0.0676 -0.8791
 7417SOL     OW23149   5.550   0.385   1.779 -0.6064  0.1643 -0.4972
 7417SOL    HW123150   5.617   0.452   1.811  0.8955 -0.7566 -1.5968
 7417SOL    HW223151   5.496   0.352   1.857  2.4143 -1.4620  1.1183
 7418SOL     OW23152   1.964   1.941   0.279  0.1422  0.3199 -0.2397
 7418SOL    HW123153   1.890   1.940   0.211  1.2840 -1.3695 -1.5356
 7418SOL    HW223154   2.052   1.952   0.232  1.0072 -1.3768  0.9041
 7419SOL     OW23155   0.565   3.941   4.596  0.0702  0.1126 -0.2512
 7419SOL    HW123156   0.509   4.015   4.633 -1.7030 -0.7961 -0.9974
 7419SOL    HW223157   0.508   3.878   4.544  1.8438 -0.7672 -1.2547
 7420SOL     OW23158   5.373   6.448   1.297 -0.4346  0.4640 -0.5932
 7420SOL    HW123159   5.428   6.438   1.381 -3.0267  2.7122  1.5433
 7420SOL    HW223160   5.321   6.364   1.281 -0.7858  0.3989  0.7664
 7421SOL     OW23161   6.695   2.164   2.921  0.4705  0.1532 -0.0649
 7421SOL    HW123162   6.669   2.258   2.944 -0.2947  0.1453 -0.8017
 7421SOL    HW223163   6.778   2.164   2.866  0.5450  0.3966  0.0503
 7422SOL     OW23164   0.223   1.997   1.749 -0.2085  0.2177 -0.1667
 7422SOL    HW123165   0.249   1.904   1.721  0.1995 -0.2347  1.5838
 7422SOL    HW223166   0.268   2.063   1.689 -0.3586 -0.6998 -1.3276
 7423SOL     OW23167   5.499   6.614   6.771 -0.4597 -0.0012 -0.4292
 7423SOL    HW123168   5.478   6.712   6.769 -0.8414 -0.0820 -0.3733
 7423SOL    HW223169   5.595   6.602   6.799 -0.3654  0.3611 -0.5920
 7424SOL     OW23170   2.049   2.853   5.697  0.4010  0.6334 -0.2108
 7424SOL    HW123171   2.027   2.934   5.642 -0.4892  0.3246 -0.3158
 7424SOL    HW223172   2.062   2.881   5.792 -1.5532  0.6962  0.0742
 7425SOL     OW23173   4.658   1.050   2.794 -0.0888 -0.9209  0.5595
 7425SOL    HW123174   4.608   0.980   2.847 -0.2930  0.3993  2.1989
 7425SOL    HW223175   4.697   1.117   2.857  1.2169 -0.2544 -0.9019
 7426SOL     OW23176   4.512   4.862   6.986 -0.0595 -0.4678  0.3951
 7426SOL    HW123177   4.420   4.872   6.950  0.0970 -2.4684 -0.7150
 7426SOL    HW223178   4.575   4.919   6.933 -0.3154 -0.9647 -0.4677
 7427SOL     OW23179   0.613   6.339   2.463  0.2258  0.4480  0.3854
 7427SOL    HW123180   0.573   6.361   2.552 -0.7806  1.2887 -0.2470
 7427SOL    HW223181   0.561   6.386   2.391  1.0388 -0.1938 -0.6422
 7428SOL     OW23182   2.522   5.463   5.853  0.0306  0.1071  0.1385
 7428SOL    HW123183   2.434   5.479   5.808  0.4087  0.6301 -0.4242
 7428SOL    HW223184   2.576   5.399   5.799  0.4454  0.6579 -0.1105
 7429SOL     OW23185   0.435   6.318   2.650  0.7257  0.5390  0.0341
 7429SOL    HW123186   0.431   6.394   2.715 -1.4751 -0.1657  0.8230
 7429SOL    HW223187   0.395   6.237   2.692 -1.6542  0.2862 -2.4822
 7430SOL     OW23188   0.396   3.606   2.231 -0.1701 -0.0024 -0.3734
 7430SOL    HW123189   0.302   3.610   2.265  0.3040  0.9194  0.9299
 7430SOL    HW223190   0.459   3.622   2.306  1.2502 -4.1517 -0.4200
 7431SOL     OW23191   1.009   0.755   4.303  0.2353 -0.2975 -0.0135
 7431SOL    HW123192   1.031   0.666   4.344  0.6411  0.0453  0.5285
 7431SOL    HW223193   0.946   0.805   4.362 -1.2674 -0.8523 -1.0738
 7432SOL     OW23194   1.356   1.531   0.908 -0.0265 -0.1415  0.4063
 7432SOL    HW123195   1.389   1.578   0.826 -1.4705 -0.4197 -0.3629
 7432SOL    HW223196   1.329   1.600   0.976  0.0662  0.1080  0.1946
 7433SOL     OW23197   4.713   0.830   6.819  0.1180 -0.2170 -0.2767
 7433SOL    HW123198   4.706   0.778   6.734 -0.3694 -0.0588 -0.3359
 7433SOL    HW223199   4.714   0.767   6.897  1.2648 -0.4023 -0.4219
 7434SOL     OW23200   3.982   0.868   4.354  1.2101  0.0270 -0.0793
 7434SOL    HW123201   3.929   0.938   4.306  0.8416 -0.0523  0.2103
 7434SOL    HW223202   4.058   0.839   4.296 -0.1664 -1.2659 -1.3492
 7435SOL     OW23203   6.129   3.711   2.830  0.1760 -0.5664  0.2368
 7435SOL    HW123204   6.076   3.795   2.844 -0.7064 -1.2857  1.3763
 7435SOL    HW223205   6.120   3.653   2.911 -0.7985 -2.6134 -1.2618
 7436SOL     OW23206   4.354   3.179   6.212  0.3174  0.0141  0.5199
 7436SOL    HW123207   4.427   3.220   6.268  2.4758  0.1640 -2.1900
 7436SOL    HW223208   4.317   3.099   6.258  0.9206  0.9635  2.7786
 7437SOL     OW23209   3.692   6.886   1.668 -0.2596 -0.1315  0.8965
 7437SOL    HW123210   3.709   6.811   1.604  0.2817  0.5497  0.2275
 7437SOL    HW223211   3.596   6.912   1.666  0.1686  1.5453 -1.5313
 7438SOL     OW23212   2.248   1.957   5.745 -0.0036  0.0208  0.2705
 7438SOL    HW123213   2.280   1.973   5.651  0.6928 -1.2438  0.2728
 7438SOL    HW223214   2.326   1.964   5.807 -0.4667  0.8593  0.7781
 7439SOL     OW23215   1.610   4.235   0.472  0.4114 -0.4063 -0.2362
 7439SOL    HW123216   1.647   4.283   0.393 -0.8731 -1.5456 -1.5998
 7439SOL    HW223217   1.557   4.299   0.528 -0.5227 -0.0021 -1.5301
 7440SOL     OW23218   0.090   3.093   5.405  0.1582 -0.4450 -0.0145
 7440SOL    HW123219   0.057   3.069   5.496 -1.0140 -3.3924 -1.1054
 7440SOL    HW223220   0.015   3.133   5.352  0.3599 -0.3114 -0.1996
 7441SOL     OW23221   5.417   0.692   1.008 -0.1279 -0.2349  0.1449
 7441SOL    HW123222   5.364   0.630   1.066  0.6682 -0.0731  1.0617
 7441SOL    HW223223   5.377   0.784   1.012 -0.0689 -0.2202  0.4608
 7442SOL     OW23224   0.805   2.926   5.540 -0.0645  1.0202 -0.3563
 7442SOL    HW123225   0.896   2.958   5.566  0.1261  1.1515 -1.1601
 7442SOL    HW223226   0.782   2.961   5.450  0.9713 -2.5639 -2.2307
 7443SOL     OW23227   6.418   0.691   1.233  0.4723 -0.1027  0.9250
 7443SOL    HW123228   6.502   0.637   1.236  0.3037 -0.3689  0.8113
 7443SOL    HW223229   6.347   0.646   1.287  0.4572  0.2193  1.1791
 7444SOL     OW23230   1.327   5.799   6.262 -0.0965 -0.1895 -0.0592
 7444SOL    HW123231   1.329   5.894   6.293  1.6345 -0.4006  0.5873
 7444SOL    HW223232   1.267   5.791   6.182 -0.3632  1.4163 -0.0462
 7445SOL     OW23233   3.253   0.371   2.526 -0.1066 -0.3014  0.1536
 7445SOL    HW123234   3.232   0.328   2.614  1.2355 -0.1662  0.5543
 7445SOL    HW223235   3.219   0.313   2.451 -0.3372 -0.9245  0.7366
 7446SOL     OW23236   6.345   5.906   6.789 -0.0273  0.3194 -0.4676
 7446SOL    HW123237   6.363   6.001   6.814 -0.1224  0.7722 -2.0111
 7446SOL    HW223238   6.401   5.845   6.846  0.0349  1.2770  0.5365
 7447SOL     OW23239   0.249   3.960   1.585  0.1156 -0.1330  0.5363
 7447SOL    HW123240   0.196   3.938   1.667 -0.0486  0.2032  0.5229
 7447SOL    HW223241   0.346   3.966   1.609 -0.0654  1.3815  1.0166
 7448SOL     OW23242   5.356   6.372   2.018  0.5761  0.1768  0.4512
 7448SOL    HW123243   5.279   6.329   1.970  1.7878 -1.4518 -0.1015
 7448SOL    HW223244   5.327   6.462   2.051 -1.3945 -0.1475 -0.2081
 7449SOL     OW23245   0.137   2.891   1.075 -0.5131  0.0196  0.3249
 7449SOL    HW123246   0.123   2.813   1.014 -2.5869  0.4082  0.2453
 7449SOL    HW223247   0.235   2.911   1.081  0.0437 -2.3151  0.0356
 7450SOL     OW23248   4.508   2.488   6.837 -0.5344  0.4760  0.8483
 7450SOL    HW123249   4.423   2.483   6.889 -0.7491  0.7239  0.5287
 7450SOL    HW223250   4.492   2.540   6.753  0.0558  0.9629  1.0331
 7451SOL     OW23251   4.360   6.409   3.222 -0.3709 -0.1715  0.7468
 7451SOL    HW123252   4.457   6.430   3.208 -0.8366  2.1595  0.6013
 7451SOL    HW223253   4.351   6.348   3.300  1.1892 -0.0306  1.0799
 7452SOL     OW23254   0.916   5.887   4.855 -0.2900 -0.1297 -0.0884
 7452SOL    HW123255   0.929   5.830   4.936 -0.7775  0.4907  0.4354
 7452SOL    HW223256   0.898   5.828   4.776  0.7263 -0.7705  0.1270
 7453SOL     OW23257   5.912   4.666   6.086  0.5820  0.0744 -0.5091
 7453SOL    HW123258   5.881   4.761   6.091  1.5759  0.5325 -2.3278
 7453SOL    HW223259   5.990   4.653   6.147  1.1607  0.7480 -1.0884
 7454SOL     OW23260   4.302   2.641   6.708  0.1681  0.2685  0.4599
 7454SOL    HW123261   4.305   2.652   6.608 -0.8566 -1.0803  0.2576
 7454SOL    HW223262   4.207   2.633   6.737  0.4443  0.9518  1.6022
 7455SOL     OW23263   5.667   1.129   3.704 -0.3946 -0.2103  0.2534
 7455SOL    HW123264   5.584   1.110   3.757 -1.7708 -0.9556 -2.0189
 7455SOL    HW223265   5.729   1.051   3.710  0.1178  0.2695  1.8046
 7456SOL     OW23266   3.437   1.776   5.752 -0.0981  0.3928  0.2397
 7456SOL    HW123267   3.387   1.830   5.820  0.4404  0.8439  0.2907
 7456SOL    HW223268   3.466   1.836   5.677  1.4899  0.4219  0.8468
 7457SOL     OW23269   0.702   4.147   1.593 -0.2064 -0.1887  0.5449
 7457SOL    HW123270   0.802   4.146   1.605  0.0518 -0.6454 -1.3194
 7457SOL    HW223271   0.675   4.235   1.553 -0.2235 -0.8925 -1.0693
 7458SOL     OW23272   6.496   5.389   3.465 -0.3813 -0.1807  0.5481
 7458SOL    HW123273   6.511   5.462   3.398  0.2280 -0.0497  0.8218
 7458SOL    HW223274   6.397   5.379   3.481 -0.5644 -0.4832 -0.6627
 7459SOL     OW23275   5.172   6.170   2.494 -0.4917  0.2510 -0.0600
 7459SOL    HW123276   5.215   6.166   2.403  0.0074  2.0197  0.0635
 7459SOL    HW223277   5.087   6.222   2.487 -0.5564  0.2121  0.4561
 7460SOL     OW23278   1.360   1.446   6.573 -0.6703  0.4307  0.3973
 7460SOL    HW123279   1.427   1.518   6.590 -0.5567  0.8509 -1.5527
 7460SOL    HW223280   1.272   1.488   6.550 -1.1083 -0.0887  1.1127
 7461SOL     OW23281   1.438   6.387   1.297 -0.1240  0.1188 -0.0341
 7461SOL    HW123282   1.432   6.333   1.380 -1.0962 -0.1268 -0.2504
 7461SOL    HW223283   1.534   6.401   1.273  0.3161 -4.1252 -1.6410
 7462SOL     OW23284   3.328   4.683   1.701  0.4014 -0.0886 -0.6205
 7462SOL    HW123285   3.287   4.603   1.656  1.2225  0.7266 -2.9837
 7462SOL    HW223286   3.399   4.652   1.765 -0.5374 -1.2957 -0.1213
 7463SOL     OW23287   3.151   3.634   6.616 -0.2704  0.2662  0.0946
 7463SOL    HW123288   3.172   3.555   6.559 -0.0719 -0.6241  1.3536
 7463SOL    HW223289   3.052   3.637   6.633 -0.1786 -0.2373  0.7609
 7464SOL     OW23290   6.233   5.925   5.426  0.0439 -0.6029  0.1027
 7464SOL    HW123291   6.300   5.893   5.359  1.2821  1.1519  0.4347
 7464SOL    HW223292   6.242   6.024   5.438 -2.6294 -0.2915  0.1732
 7465SOL     OW23293   0.984   3.729   5.729 -0.1375 -0.0552  0.5546
 7465SOL    HW123294   1.010   3.658   5.794  0.7680  0.2469  0.5428
 7465SOL    HW223295   1.060   3.793   5.718 -1.6801  2.2515  2.2985
 7466SOL     OW23296   0.581   5.121   3.925 -0.0149 -0.3589 -0.5687
 7466SOL    HW123297   0.534   5.183   3.862 -1.0647 -0.9644 -0.4117
 7466SOL    HW223298   0.653   5.071   3.877  0.2462  0.3267 -0.9014
 7467SOL     OW23299   1.114   5.207   1.573  0.4231  0.1403  0.2346
 7467SOL    HW123300   1.070   5.139   1.514 -0.8300  1.1160 -0.0026
 7467SOL    HW223301   1.120   5.295   1.525 -0.7000  0.9859  1.5574
 7468SOL     OW23302   6.560   2.648   4.606 -0.1321  0.2432  0.4234
 7468SOL    HW123303   6.626   2.695   4.548  0.4483 -0.3835  0.5728
 7468SOL    HW223304   6.584   2.661   4.702 -0.0000 -0.3062  0.4685
 7469SOL     OW23305   0.413   2.935   0.007  0.1843  0.2402  0.0836
 7469SOL    HW123306   0.470   3.002  -0.041 -1.9653  0.5078 -2.3757
 7469SOL    HW223307   0.424   2.845  -0.035 -0.9145  0.2361 -0.2421
 7470SOL     OW23308   5.255   4.483   4.973  0.1558  0.2707 -0.4008
 7470SOL    HW123309   5.195   4.487   4.893  0.5779 -1.4565 -0.8453
 7470SOL    HW223310   5.200   4.466   5.055 -0.3372  2.5645 -0.1897
 7471SOL     OW23311   4.358   0.269   6.579  0.1558  0.3263 -0.2241
 7471SOL    HW123312   4.431   0.263   6.511 -0.0149 -0.2810 -0.3610
 7471SOL    HW223313   4.396   0.258   6.671  0.2011 -0.2360 -0.3123
 7472SOL     OW23314   0.394   5.895   3.992 -0.9973 -0.2738 -0.0538
 7472SOL    HW123315   0.471   5.929   3.937 -0.2027 -0.7444  0.7395
 7472SOL    HW223316   0.390   5.795   3.984 -2.2235 -0.1848 -0.9579
 7473SOL     OW23317   4.497   5.600   2.006  0.0650 -0.2624 -0.0466
 7473SOL    HW123318   4.513   5.566   2.099 -1.4160  0.4819  0.5367
 7473SOL    HW223319   4.546   5.686   1.993 -1.3752  0.7507  0.8554
 7474SOL     OW23320   6.347   3.954   0.363 -0.3748 -0.0051  0.2280
 7474SOL    HW123321   6.392   3.918   0.444  0.9462 -0.2682 -0.6053
 7474SOL    HW223322   6.338   4.053   0.372 -1.3007 -0.1489  1.1860
 7475SOL     OW23323   4.807   3.749   1.329  0.6883 -0.1578 -0.1285
 7475SOL    HW123324   4.745   3.826   1.345  2.7928  2.0513 -1.7394
 7475SOL    HW223325   4.758   3.676   1.281 -1.1258  0.6070  0.4731
 7476SOL     OW23326   3.528   0.853   2.244 -0.2657 -0.5204  0.8332
 7476SOL    HW123327   3.565   0.946   2.241 -0.7631 -0.3397 -0.0188
 7476SOL    HW223328   3.495   0.828   2.153  1.3458 -2.1470  0.6450
 7477SOL     OW23329   1.583   6.026   6.176 -0.1803 -0.2116 -0.4434
 7477SOL    HW123330   1.664   6.078   6.204 -0.9265  0.3076  0.7941
 7477SOL    HW223331   1.510   6.039   6.242 -1.2998 -0.6735 -1.5529
 7478SOL     OW23332   1.849   1.967   5.553 -0.2231  0.1406 -0.1857
 7478SOL    HW123333   1.753   1.993   5.553 -0.1097  0.7154  1.4285
 7478SOL    HW223334   1.903   2.040   5.510 -0.2150  1.3170  1.7152
 7479SOL     OW23335   4.928   2.366   1.833  0.3182  0.0890  0.0709
 7479SOL    HW123336   4.853   2.326   1.887  0.4165  2.4350  2.1354
 7479SOL    HW223337   4.890   2.431   1.767  0.4595  0.2053  0.1060
 7480SOL     OW23338   3.305   5.796   2.967 -0.8064 -0.2559  0.0075
 7480SOL    HW123339   3.228   5.843   3.010 -1.3117 -0.2812 -0.8432
 7480SOL    HW223340   3.365   5.863   2.924  0.1109 -0.1674  1.3679
 7481SOL     OW23341   6.845   4.503   0.153  0.0979  0.1422  0.7457
 7481SOL    HW123342   6.767   4.452   0.189  0.5100 -0.3313  0.9799
 7481SOL    HW223343   6.929   4.453   0.173  0.3711  0.0730 -0.5136
 7482SOL     OW23344   3.448   1.914   2.688  0.4145 -0.4592  0.2279
 7482SOL    HW123345   3.441   1.835   2.628 -0.2853  0.4170 -0.8846
 7482SOL    HW223346   3.491   1.990   2.640  0.2809  0.1154  0.9858
 7483SOL     OW23347   5.803   6.407   6.104 -0.3382 -0.0786  0.2649
 7483SOL    HW123348   5.777   6.356   6.021  1.7125 -0.4218 -0.2224
 7483SOL    HW223349   5.868   6.479   6.080  0.2381 -0.1340  1.5666
 7484SOL     OW23350   2.510   1.233   4.149  0.1124  0.5947 -0.4334
 7484SOL    HW123351   2.472   1.320   4.119 -0.8464  0.4141  0.1984
 7484SOL    HW223352   2.450   1.158   4.120  0.9948  0.1269 -1.0808
 7485SOL     OW23353   4.231   0.055   6.461  0.2253 -0.1306  0.5280
 7485SOL    HW123354   4.155   0.005   6.503  1.3033 -1.1605  1.3282
 7485SOL    HW223355   4.243   0.143   6.507 -1.9736  1.1771 -1.1779
 7486SOL     OW23356   2.986   6.922   0.683 -0.3130  0.4165  0.2309
 7486SOL    HW123357   3.055   6.865   0.728 -0.2010  0.1692 -0.2437
 7486SOL    HW223358   3.000   6.918   0.584 -3.2901 -2.6859 -0.2362
 7487SOL     OW23359   4.462   6.006   3.273 -0.0902 -0.4305  0.4285
 7487SOL    HW123360   4.393   6.009   3.344 -0.2471  0.9882  0.2454
 7487SOL    HW223361   4.421   5.973   3.187 -0.8665  1.5082  0.0107
 7488SOL     OW23362   2.485   6.189   3.713  0.1897  0.2096  0.2867
 7488SOL    HW123363   2.583   6.181   3.735  0.5915  1.8680 -0.6813
 7488SOL    HW223364   2.460   6.121   3.646  0.4911 -0.7095  1.0816
 7489SOL     OW23365   5.359   2.741   5.522  0.2393  0.3124  0.4658
 7489SOL    HW123366   5.431   2.674   5.540  0.1624  0.3148  0.8001
 7489SOL    HW223367   5.270   2.696   5.528  0.2259  0.2012 -0.4366
 7490SOL     OW23368   2.791   4.017   1.565 -0.2043 -0.0724 -0.0528
 7490SOL    HW123369   2.866   4.079   1.587  0.4709 -0.5407 -0.9648
 7490SOL    HW223370   2.782   3.948   1.636  0.3636 -0.1374 -0.0450
 7491SOL     OW23371   3.122   4.177   0.193 -0.1946 -0.3436 -0.6482
 7491SOL    HW123372   3.147   4.240   0.267 -0.9143 -0.3788 -0.3623
 7491SOL    HW223373   3.173   4.201   0.110 -0.3307  0.5097 -0.4953
 7492SOL     OW23374   4.028   0.053   5.060  0.4901  0.1261 -0.6006
 7492SOL    HW123375   3.937   0.075   5.026 -0.2801 -0.5985  0.8791
 7492SOL    HW223376   4.093   0.123   5.031 -0.3149  0.1447 -2.5049
 7493SOL     OW23377   4.767   2.926   6.499 -0.1210  0.8121 -0.1083
 7493SOL    HW123378   4.709   2.874   6.436 -0.4457 -0.9523  1.5439
 7493SOL    HW223379   4.856   2.882   6.506 -0.4916  0.2429  1.5325
 7494SOL     OW23380   6.329   0.238   3.719  0.2095 -0.5869  0.5736
 7494SOL    HW123381   6.361   0.157   3.671 -2.1367 -0.8177 -0.7346
 7494SOL    HW223382   6.303   0.308   3.653  1.3479  0.9360  1.6651
 7495SOL     OW23383   0.849   4.391   5.083  0.2276 -0.1222 -0.7191
 7495SOL    HW123384   0.811   4.476   5.046 -1.3824  0.3720  1.7822
 7495SOL    HW223385   0.934   4.411   5.132 -0.7306  0.3435  0.8453
 7496SOL     OW23386   4.693   1.365   2.632 -0.0460 -0.1685  0.0323
 7496SOL    HW123387   4.649   1.414   2.707  1.5944 -0.3740  1.1967
 7496SOL    HW223388   4.711   1.270   2.659  0.7599 -0.1883 -0.5167
 7497SOL     OW23389   4.573   1.013   2.517 -0.5710  0.3798  0.0212
 7497SOL    HW123390   4.515   0.933   2.531  0.9740 -0.8912 -0.6231
 7497SOL    HW223391   4.626   1.031   2.600  1.7991 -1.5724 -0.9615
 7498SOL     OW23392   1.724   0.186   1.637  0.0103 -0.2164 -0.2559
 7498SOL    HW123393   1.766   0.104   1.597 -0.7519 -0.7798  0.0824
 7498SOL    HW223394   1.775   0.267   1.607  0.6286 -0.7872 -0.7899
 7499SOL     OW23395   3.772   2.077   1.790 -0.2531  0.4215 -0.1383
 7499SOL    HW123396   3.714   2.155   1.813 -0.8455 -0.6540  2.4112
 7499SOL    HW223397   3.735   1.994   1.833  1.3963 -0.9278 -1.1688
 7500SOL     OW23398   4.755   3.072   5.295 -0.5386 -0.0538 -0.7837
 7500SOL    HW123399   4.663   3.056   5.329 -0.4729  2.4280  0.8199
 7500SOL    HW223400   4.822   3.043   5.364 -0.1756 -0.1829 -1.1857
 7501SOL     OW23401   5.365   2.910   2.219 -0.1998 -0.7110  0.3339
 7501SOL    HW123402   5.403   2.893   2.128  0.5842  0.0310  0.5145
 7501SOL    HW223403   5.281   2.963   2.210  0.8033  0.9277  0.1006
 7502SOL     OW23404   5.319   1.423   4.153 -0.1971 -0.3017 -0.0675
 7502SOL    HW123405   5.226   1.388   4.162 -0.7455  0.4886 -2.1509
 7502SOL    HW223406   5.351   1.412   4.059  1.4476  0.3520  0.3629
 7503SOL     OW23407   0.505   6.727   6.646  0.2115  0.2202 -0.1620
 7503SOL    HW123408   0.591   6.766   6.679 -0.2233  0.4093  0.7803
 7503SOL    HW223409   0.443   6.713   6.724 -0.0872 -1.2297 -0.6332
 7504SOL     OW23410   5.028   5.600   3.740  0.2810 -0.1806 -0.2903
 7504SOL    HW123411   4.987   5.641   3.659  1.4068  2.8741  0.5561
 7504SOL    HW223412   5.122   5.633   3.750  0.4366 -1.1135  1.8202
 7505SOL     OW23413   0.386   5.667   1.356 -0.2943  0.2259  0.4106
 7505SOL    HW123414   0.339   5.754   1.343  0.3087  0.8927  2.4476
 7505SOL    HW223415   0.374   5.611   1.274 -0.1923  2.4383 -1.2104
 7506SOL     OW23416   5.617   2.858   4.125  0.2576  0.0549 -0.1015
 7506SOL    HW123417   5.654   2.771   4.094  0.2073  0.2263 -0.6504
 7506SOL    HW223418   5.560   2.898   4.053  1.7190  1.3931 -0.5522
 7507SOL     OW23419   5.765   4.793   5.415 -0.2881  0.3189 -0.3346
 7507SOL    HW123420   5.718   4.713   5.451  0.6026  0.6083  1.6265
 7507SOL    HW223421   5.762   4.792   5.315 -2.6192 -0.7100 -0.3051
 7508SOL     OW23422   5.227   0.203   0.891  0.6308 -0.0934  0.1483
 7508SOL    HW123423   5.141   0.202   0.941 -0.6674 -0.4818 -1.9671
 7508SOL    HW223424   5.262   0.110   0.882 -0.3001 -0.3365 -1.4423
 7509SOL     OW23425   0.478   3.754   2.543  0.0792  0.0764 -0.1709
 7509SOL    HW123426   0.485   3.803   2.630  2.6379  0.6290 -0.6184
 7509SOL    HW223427   0.381   3.740   2.520 -0.7078 -1.0418  3.2401
 7510SOL     OW23428   3.612   5.162   0.793 -0.0182  0.2343 -0.1759
 7510SOL    HW123429   3.677   5.226   0.752  0.0477  0.5546  0.4239
 7510SOL    HW223430   3.661   5.098   0.853  0.1386 -1.3410 -1.8781
 7511SOL     OW23431   5.642   6.170   3.929  0.1895 -0.5533 -0.0234
 7511SOL    HW123432   5.647   6.124   4.018 -0.1399 -0.5903 -0.0222
 7511SOL    HW223433   5.558   6.224   3.924  0.1520 -0.6379 -0.3549
 7512SOL     OW23434   3.997   6.070   0.538 -0.2799  0.1511 -0.4776
 7512SOL    HW123435   3.951   6.155   0.563 -1.1988 -0.7249  0.8875
 7512SOL    HW223436   4.092   6.090   0.513  0.3582  1.3046  2.4782
 7513SOL     OW23437   0.445   6.779   4.599 -0.0353  0.0323 -0.4297
 7513SOL    HW123438   0.486   6.826   4.677  2.4288 -1.6616 -0.5988
 7513SOL    HW223439   0.474   6.823   4.514 -1.0033  0.5984 -0.4786
 7514SOL     OW23440   6.574   0.437   6.405 -0.3771  0.0271  0.2511
 7514SOL    HW123441   6.497   0.490   6.370  0.2680  1.9889  1.6088
 7514SOL    HW223442   6.541   0.373   6.475 -0.7196  1.6213  1.6283
 7515SOL     OW23443   0.553   5.974   2.598  0.5125  0.1898 -0.5242
 7515SOL    HW123444   0.626   6.007   2.658  0.4970 -0.2381 -0.2680
 7515SOL    HW223445   0.567   6.011   2.506 -0.0556  1.7213 -0.0282
 7516SOL     OW23446   0.904   6.352   3.942  0.4706 -0.2234 -0.3137
 7516SOL    HW123447   0.935   6.290   4.013  0.8988  0.4860  0.1336
 7516SOL    HW223448   0.976   6.418   3.921  0.4413 -0.5737 -1.5896
 7517SOL     OW23449   6.223   3.243   6.240  0.3858 -0.2370 -0.6765
 7517SOL    HW123450   6.276   3.208   6.161 -0.1685 -0.9546 -0.7414
 7517SOL    HW223451   6.282   3.243   6.321  0.5753 -0.7830 -0.8045
 7518SOL     OW23452   4.047   2.729   5.307  0.4690  0.6052  0.0953
 7518SOL    HW123453   3.981   2.686   5.369 -0.5192  1.5232 -0.2771
 7518SOL    HW223454   4.084   2.660   5.244 -0.0029  0.0393  0.4298
 7519SOL     OW23455   2.583   0.574   6.014  0.6671  0.3783  0.2671
 7519SOL    HW123456   2.583   0.594   5.916  0.6469 -0.3451  0.1155
 7519SOL    HW223457   2.640   0.493   6.032 -1.4928 -1.1684  0.4992
 7520SOL     OW23458   1.210   1.226   1.468 -0.3766  0.1083 -0.3328
 7520SOL    HW123459   1.270   1.284   1.412  0.7941 -1.0067 -0.2735
 7520SOL    HW223460   1.233   1.237   1.564  0.7960 -1.4131 -0.3962
 7521SOL     OW23461   4.452   2.295   5.563  0.3670 -0.1814 -0.4515
 7521SOL    HW123462   4.504   2.344   5.633  0.6525 -0.0335 -0.7618
 7521SOL    HW223463   4.465   2.197   5.574 -1.1403 -0.2627  0.8951
 7522SOL     OW23464   1.959   7.016   3.894  0.1223 -0.1774  0.0506
 7522SOL    HW123465   1.883   6.961   3.859 -0.1105 -0.2007  0.5918
 7522SOL    HW223466   2.009   7.055   3.817  1.4612 -2.6771 -0.4554
 7523SOL     OW23467   5.619   2.080   0.504  0.6451  0.3775 -0.7547
 7523SOL    HW123468   5.653   2.020   0.576  1.1452  0.1632 -1.1610
 7523SOL    HW223469   5.661   2.170   0.513 -1.2774  1.1845  0.7989
 7524SOL     OW23470   0.241   3.366   5.582 -0.2190 -0.0657  0.0414
 7524SOL    HW123471   0.238   3.275   5.623  3.8288 -0.6235 -0.5718
 7524SOL    HW223472   0.241   3.358   5.482  0.7486  0.5653 -0.0141
 7525SOL     OW23473   2.756   4.919   0.572 -0.1914 -0.2054 -0.4909
 7525SOL    HW123474   2.768   4.941   0.669 -1.9416 -1.5641  0.0721
 7525SOL    HW223475   2.825   4.969   0.518 -0.8051  2.6242  1.1505
 7526SOL     OW23476   2.659   2.905   1.448  0.4512  0.0046 -0.2001
 7526SOL    HW123477   2.562   2.880   1.441  0.9647 -2.2476  0.0149
 7526SOL    HW223478   2.712   2.850   1.384  1.8434 -0.3689  1.2235
 7527SOL     OW23479   1.802   5.181   2.479  0.2287  0.3683  0.0777
 7527SOL    HW123480   1.812   5.262   2.422 -1.5615  1.1593  0.8426
 7527SOL    HW223481   1.872   5.182   2.551  1.5547  0.1099 -1.1560
 7528SOL     OW23482   6.246   2.187   6.964 -0.1690  0.3487 -0.2472
 7528SOL    HW123483   6.160   2.186   7.014  0.3964  2.8647  0.9475
 7528SOL    HW223484   6.236   2.136   6.878 -2.1856 -1.1374  0.8010
 7529SOL     OW23485   6.871   2.372   5.586  0.1161 -0.6483 -0.1299
 7529SOL    HW123486   6.794   2.316   5.559 -0.6388 -1.1612  2.7542
 7529SOL    HW223487   6.940   2.372   5.513 -1.5792 -2.0185 -1.8314
 7530SOL     OW23488   0.646   2.701   3.703 -0.0005  0.3175 -0.3506
 7530SOL    HW123489   0.658   2.625   3.639  0.8991 -0.7809  1.0513
 7530SOL    HW223490   0.690   2.783   3.667  0.0229 -0.1208 -1.3624
 7531SOL     OW23491   4.706   1.635   6.213 -0.1687  0.1618  0.3453
 7531SOL    HW123492   4.646   1.613   6.289  0.5303 -0.1318  0.8257
 7531SOL    HW223493   4.696   1.731   6.188 -0.0017  0.3946  1.1739
 7532SOL     OW23494   3.155   3.583   6.160  0.6325  0.1304 -0.3535
 7532SOL    HW123495   3.132   3.679   6.145 -0.8848 -0.2693 -0.7995
 7532SOL    HW223496   3.164   3.537   6.072 -2.8072 -1.0104 -0.2339
 7533SOL     OW23497   3.226   3.987   0.976 -0.3330 -0.2562  0.4407
 7533SOL    HW123498   3.144   3.936   0.951 -0.8505  0.3516  0.8720
 7533SOL    HW223499   3.200   4.080   1.001  0.3500 -0.4252  1.8149
 7534SOL     OW23500   3.571   0.940   3.417 -0.0413 -0.0434  0.1591
 7534SOL    HW123501   3.635   0.966   3.489 -2.4501  1.1701  2.0159
 7534SOL    HW223502   3.562   0.841   3.415  0.5292 -0.1270  1.1132
 7535SOL     OW23503   6.880   5.175   3.041 -0.4935 -0.2464 -0.7149
 7535SOL    HW123504   6.817   5.232   2.988 -1.7986 -2.0664 -1.2138
 7535SOL    HW223505   6.870   5.198   3.138 -0.5650  0.7581 -0.9443
 7536SOL     OW23506   5.149   6.326   4.331 -0.3039  0.6036 -0.1706
 7536SOL    HW123507   5.191   6.288   4.249  0.2828  0.7300  0.0677
 7536SOL    HW223508   5.051   6.340   4.314 -0.5731 -1.1309 -0.2122
 7537SOL     OW23509   3.700   1.343   2.359 -0.3447  0.3651  0.5524
 7537SOL    HW123510   3.641   1.349   2.440 -0.9493  0.1567  0.1321
 7537SOL    HW223511   3.734   1.434   2.336 -0.9493  0.5744  0.4713
 7538SOL     OW23512   0.010   4.375   6.178  0.5531 -0.0614  0.6047
 7538SOL    HW123513   0.063   4.297   6.213  2.3862  1.5229  1.5539
 7538SOL    HW223514   0.049   4.405   6.091 -0.3697 -0.3889  0.0628
 7539SOL     OW23515   6.363   1.899   5.864  0.2432  0.1481 -0.3212
 7539SOL    HW123516   6.442   1.837   5.858 -0.5032 -0.9600  0.6791
 7539SOL    HW223517   6.349   1.944   5.776  0.6286 -1.3585 -1.1905
 7540SOL     OW23518   4.332   4.689   3.561 -0.3802  0.0598  0.3007
 7540SOL    HW123519   4.366   4.634   3.485  3.2831  0.5850  1.3711
 7540SOL    HW223520   4.328   4.785   3.534 -1.6085 -0.0460  0.0444
 7541SOL     OW23521   2.229   4.049   0.760  0.0301  0.1648  0.3209
 7541SOL    HW123522   2.176   4.107   0.822  0.8934 -1.0757  2.3023
 7541SOL    HW223523   2.326   4.053   0.784  0.5153  0.2294 -1.4731
 7542SOL     OW23524   5.400   5.856   6.280  0.1728  0.2871  0.0694
 7542SOL    HW123525   5.450   5.941   6.299 -1.0973  1.2487 -0.6814
 7542SOL    HW223526   5.405   5.796   6.359  0.9129  1.1596  0.7087
 7543SOL     OW23527   1.586   1.969   2.949 -0.2476 -0.9967 -0.7535
 7543SOL    HW123528   1.539   1.887   2.984  0.8496 -1.4132 -0.2233
 7543SOL    HW223529   1.659   1.941   2.887  0.7011 -0.4679  0.1008
 7544SOL     OW23530   0.111   2.468   5.952 -0.1443 -0.8851  0.2640
 7544SOL    HW123531   0.016   2.500   5.961 -0.5022 -1.2257 -1.8007
 7544SOL    HW223532   0.166   2.507   6.026 -1.3560  1.4291  0.0487
 7545SOL     OW23533   1.090   6.512   5.010 -0.4412  0.1530  0.2713
 7545SOL    HW123534   1.025   6.533   4.937 -1.1649 -0.7703  0.6197
 7545SOL    HW223535   1.132   6.423   4.992 -0.3677  0.0784  0.7961
 7546SOL     OW23536   1.764   2.572   0.304  0.0310 -0.3226 -0.2238
 7546SOL    HW123537   1.829   2.497   0.306 -0.5264 -0.8174 -0.2767
 7546SOL    HW223538   1.772   2.623   0.218  0.2082 -0.5047 -0.3131
 7547SOL     OW23539   3.113   6.679   2.632  0.3944 -0.7205  0.0259
 7547SOL    HW123540   3.190   6.726   2.673  0.1201 -1.1993  1.1222
 7547SOL    HW223541   3.072   6.736   2.561  3.0311 -1.2888 -2.0929
 7548SOL     OW23542   2.099   6.897   5.756  0.0232 -0.1901 -0.1621
 7548SOL    HW123543   2.083   6.949   5.840  0.5258 -0.7209  0.2658
 7548SOL    HW223544   2.018   6.843   5.734  0.3358 -1.0283  0.6846
 7549SOL     OW23545   4.713   1.183   5.147  0.2889 -0.5675 -0.6803
 7549SOL    HW123546   4.730   1.192   5.246  1.8172 -0.3472 -0.9442
 7549SOL    HW223547   4.795   1.211   5.097 -0.2671 -1.2548 -1.9985
 7550SOL     OW23548   2.274   5.996   5.153  0.0733 -0.3195 -0.0516
 7550SOL    HW123549   2.283   5.910   5.204  2.7929  0.1793  0.4425
 7550SOL    HW223550   2.362   6.021   5.113 -0.5101  2.4832  0.2086
 7551SOL     OW23551   6.925   3.788   5.866 -0.0412  0.2402  0.2687
 7551SOL    HW123552   7.018   3.792   5.830  0.2925  1.4780  1.1943
 7551SOL    HW223553   6.911   3.702   5.914  0.5111 -0.0836 -0.1384
 7552SOL     OW23554   3.372   0.068   6.195  0.7245 -0.0788 -0.0796
 7552SOL    HW123555   3.379   0.021   6.107 -0.6750 -0.8413  0.1809
 7552SOL    HW223556   3.282   0.111   6.202  0.7830 -0.1075  1.0248
 7553SOL     OW23557   5.718   1.867   6.181  0.0333  0.3065  0.5671
 7553SOL    HW123558   5.638   1.811   6.163  0.1320  0.5006 -0.5696
 7553SOL    HW223559   5.690   1.961   6.198  0.0322  0.4539 -0.2141
 7554SOL     OW23560   3.352   1.986   1.799  0.6433 -0.3044  0.6113
 7554SOL    HW123561   3.381   2.066   1.747 -0.5599 -1.6389 -2.3393
 7554SOL    HW223562   3.254   1.971   1.785  0.1010 -0.4776  3.8083
 7555SOL     OW23563   3.544   6.383   5.754 -0.3523 -0.1190  0.1230
 7555SOL    HW123564   3.480   6.453   5.723  0.5124  0.6325  0.0128
 7555SOL    HW223565   3.616   6.370   5.686 -0.2026 -0.7275  0.3898
 7556SOL     OW23566   0.602   5.768   0.549 -0.1543  0.2902  0.4420
 7556SOL    HW123567   0.533   5.699   0.528  1.0794 -1.2220  1.1260
 7556SOL    HW223568   0.592   5.798   0.644 -0.2521  0.4995  0.3636
 7557SOL     OW23569   3.794   4.955   0.985 -0.2897 -0.3566 -0.0224
 7557SOL    HW123570   3.858   4.922   1.055  0.5571  0.6456 -0.3031
 7557SOL    HW223571   3.839   4.953   0.895 -0.7619  0.0798 -0.2728
 7558SOL     OW23572   1.936   1.581   2.839 -0.1522 -0.0309 -0.1753
 7558SOL    HW123573   1.932   1.667   2.790  1.3677  0.0341 -0.2607
 7558SOL    HW223574   2.032   1.557   2.856 -0.5901 -0.1163  2.6272
 7559SOL     OW23575   0.942   6.167   5.129  0.1183  0.4597  0.4051
 7559SOL    HW123576   0.980   6.179   5.038  0.9241  0.8651  0.7811
 7559SOL    HW223577   0.985   6.088   5.173 -1.5180 -0.8193 -0.1852
 7560SOL     OW23578   0.435   1.979   4.793  0.4577  0.4525  0.1802
 7560SOL    HW123579   0.449   1.898   4.737 -0.1314 -1.3005  2.4410
 7560SOL    HW223580   0.338   2.004   4.793  0.0176 -1.0495  2.2635
 7561SOL     OW23581   6.230   0.834   6.205  0.4323  0.3750 -0.0709
 7561SOL    HW123582   6.213   0.814   6.301 -0.2484 -2.2469 -0.6485
 7561SOL    HW223583   6.206   0.754   6.150  3.1536  0.8565 -2.1791
 7562SOL     OW23584   3.960   6.030   4.740 -0.1747 -0.6127  0.2645
 7562SOL    HW123585   4.056   6.055   4.751 -0.6337  1.3496  0.1072
 7562SOL    HW223586   3.912   6.102   4.689 -1.1586 -2.8444 -2.2109
 7563SOL     OW23587   3.108   6.262   5.429  0.1803 -0.4675  0.4979
 7563SOL    HW123588   3.147   6.238   5.340  0.7096  1.6466  0.0940
 7563SOL    HW223589   3.026   6.318   5.415 -0.6237 -1.4109  1.3582
 7564SOL     OW23590   5.606   3.617   6.106  0.4816 -0.0677  0.7390
 7564SOL    HW123591   5.619   3.524   6.140 -1.0300 -0.2843  0.8010
 7564SOL    HW223592   5.545   3.667   6.168 -0.7599  0.1404 -0.5959
 7565SOL     OW23593   5.748   2.816   6.381  0.1128  0.1801 -0.2862
 7565SOL    HW123594   5.797   2.812   6.467 -2.4676  0.6146  1.3147
 7565SOL    HW223595   5.667   2.757   6.385 -0.0801  0.1920 -2.4228
 7566SOL     OW23596   4.221   3.829   1.704 -0.8406  0.4047  0.2670
 7566SOL    HW123597   4.161   3.890   1.756 -0.2750 -0.8624  2.5220
 7566SOL    HW223598   4.175   3.801   1.620 -3.6994 -0.9400  2.1353
 7567SOL     OW23599   0.871   5.039   1.721 -0.4760 -0.4539  0.1839
 7567SOL    HW123600   0.775   5.066   1.722 -0.4068 -0.1601 -0.5120
 7567SOL    HW223601   0.923   5.097   1.783 -0.5914 -0.0075 -0.1358
 7568SOL     OW23602   2.161   3.729   2.682  0.0680 -0.3121  0.3716
 7568SOL    HW123603   2.153   3.672   2.764 -0.2666 -0.0398  0.5290
 7568SOL    HW223604   2.198   3.818   2.707  2.6933 -1.1556 -0.1702
 7569SOL     OW23605   4.415   4.067   0.606  0.2655  0.0737  0.9230
 7569SOL    HW123606   4.505   4.042   0.569  0.1379 -0.5416  1.0144
 7569SOL    HW223607   4.426   4.103   0.698  0.4607  0.4339  0.7620
 7570SOL     OW23608   0.580   1.141   2.544  0.3324  0.2069  0.2880
 7570SOL    HW123609   0.646   1.205   2.506 -0.0438  0.4938  0.1171
 7570SOL    HW223610   0.608   1.047   2.521  0.2009  0.3644 -0.5578
 7571SOL     OW23611   5.440   3.326   2.847 -0.0441 -0.3502 -0.3130
 7571SOL    HW123612   5.395   3.267   2.914 -0.2307 -0.8103 -0.8310
 7571SOL    HW223613   5.535   3.296   2.834  0.1255  0.0159  0.0693
 7572SOL     OW23614   5.400   0.272   3.462  0.1543 -0.3330  0.1569
 7572SOL    HW123615   5.325   0.309   3.407  0.3875 -1.0225 -0.6402
 7572SOL    HW223616   5.369   0.191   3.511  0.3420 -0.5646 -0.1013
 7573SOL     OW23617   3.198   5.394   6.875 -0.5001 -0.6765 -0.1385
 7573SOL    HW123618   3.136   5.392   6.797 -0.3560 -0.1150 -0.2748
 7573SOL    HW223619   3.176   5.319   6.937 -2.3842  0.4039  0.6051
 7574SOL     OW23620   1.587   4.253   4.257 -0.6416  0.2865  0.4574
 7574SOL    HW123621   1.564   4.345   4.290  0.6084  0.4675  0.8693
 7574SOL    HW223622   1.528   4.186   4.302 -2.5601  0.9764 -0.8953
 7575SOL     OW23623   5.745   6.795   1.092 -0.1143  0.2002  0.0683
 7575SOL    HW123624   5.751   6.725   1.163 -0.1877  0.6344  0.5101
 7575SOL    HW223625   5.693   6.873   1.127 -0.4052  0.2961 -0.5645
 7576SOL     OW23626   4.038   4.235   6.577  0.0736  0.4074 -0.6299
 7576SOL    HW123627   4.035   4.283   6.665  1.6475 -1.3881  0.4777
 7576SOL    HW223628   3.964   4.168   6.572  0.2100  0.2465 -0.5061
 7577SOL     OW23629   0.090   0.081   3.907  0.5374 -0.3572 -0.0671
 7577SOL    HW123630   0.149   0.095   3.987  1.9423 -1.5795 -0.8423
 7577SOL    HW223631   0.099   0.159   3.845  0.4424 -0.0083  0.3528
 7578SOL     OW23632   0.691   6.867   2.519 -0.0566  0.1279  0.0842
 7578SOL    HW123633   0.789   6.853   2.509 -0.2656 -0.3163 -1.6554
 7578SOL    HW223634   0.673   6.958   2.556  0.9855  0.4727 -0.2408
 7579SOL     OW23635   0.643   1.520   5.919 -0.1628 -0.1468  0.1363
 7579SOL    HW123636   0.742   1.514   5.921 -0.0337  1.2360 -0.4088
 7579SOL    HW223637   0.615   1.613   5.944 -1.3958 -0.8490  1.5299
 7580SOL     OW23638   1.565   0.125   1.852  0.3827  0.6660  0.4243
 7580SOL    HW123639   1.527   0.033   1.850 -1.5873  1.4364 -1.4063
 7580SOL    HW223640   1.633   0.134   1.780  1.6170  0.2922  1.4990
 7581SOL     OW23641   0.895   6.111   6.834 -0.1208  0.5160  0.3936
 7581SOL    HW123642   0.900   6.077   6.928 -0.0650 -0.4654  0.0562
 7581SOL    HW223643   0.895   6.033   6.771  1.9990  1.1592 -0.5147
 7582SOL     OW23644   1.699   1.392   5.224 -0.2876 -0.2621 -0.2074
 7582SOL    HW123645   1.772   1.450   5.258  0.3470 -1.0309 -0.2336
 7582SOL    HW223646   1.621   1.396   5.287  1.4261 -2.8534  2.3383
 7583SOL     OW23647   5.568   4.500   1.134 -0.1096  0.2301  0.3697
 7583SOL    HW123648   5.583   4.594   1.103  1.2196  0.0309  0.3260
 7583SOL    HW223649   5.474   4.489   1.164 -0.0327  1.8586  1.3256
 7584SOL     OW23650   0.018   0.241   4.209  0.6132  0.0823 -0.4698
 7584SOL    HW123651   0.024   0.332   4.168  1.3315  0.7978  1.1417
 7584SOL    HW223652  -0.076   0.224   4.238  0.1520 -0.3278 -2.0973
 7585SOL     OW23653   1.068   1.916   5.140 -0.3604 -0.1381  0.2512
 7585SOL    HW123654   1.002   1.841   5.136 -0.1762 -0.2627 -0.6914
 7585SOL    HW223655   1.028   1.993   5.191  0.5102 -1.8654  3.8700
 7586SOL     OW23656   1.150   6.681   2.288 -0.4282 -0.1773 -0.0920
 7586SOL    HW123657   1.127   6.619   2.363  0.3854 -0.4083 -0.0306
 7586SOL    HW223658   1.212   6.636   2.224  1.1621  0.9424  0.5931
 7587SOL     OW23659   6.278   0.799   3.030  0.5205  0.0202  0.8522
 7587SOL    HW123660   6.276   0.699   3.033  2.3257 -0.0353  1.9171
 7587SOL    HW223661   6.195   0.836   3.071 -0.8626 -0.9964 -0.8717
 7588SOL     OW23662   1.476   3.342   4.295 -0.2106  0.4477  0.2609
 7588SOL    HW123663   1.434   3.381   4.377 -0.8133  0.3001  0.0278
 7588SOL    HW223664   1.529   3.261   4.320 -1.0361 -0.0588  0.4098
 7589SOL     OW23665   6.622   6.492   1.416 -0.3934  0.5485 -0.3294
 7589SOL    HW123666   6.606   6.489   1.317 -1.4063 -1.6654 -0.1686
 7589SOL    HW223667   6.719   6.482   1.434 -0.2755  0.1944 -1.1103
 7590SOL     OW23668   5.431   0.830   5.199 -0.1839  0.4616  0.2416
 7590SOL    HW123669   5.509   0.779   5.162 -0.6072 -1.1707  1.4633
 7590SOL    HW223670   5.460   0.879   5.281 -0.3471  0.0501  0.5558
 7591SOL     OW23671   4.689   4.337   6.218  0.1110  0.3604  0.3747
 7591SOL    HW123672   4.651   4.323   6.127 -2.0284 -0.4796  1.3239
 7591SOL    HW223673   4.725   4.250   6.253  1.3367  0.7725  0.1917
 7592SOL     OW23674   6.234   6.998   3.949 -0.2255  0.2182 -0.5361
 7592SOL    HW123675   6.165   6.968   4.016  0.3197 -2.0920 -0.9174
 7592SOL    HW223676   6.197   6.987   3.856  0.3182 -0.1319 -0.7135
 7593SOL     OW23677   0.979   2.270   5.836  0.2550 -0.3082 -0.2641
 7593SOL    HW123678   1.039   2.192   5.821  1.7906  1.0755 -1.6870
 7593SOL    HW223679   0.988   2.334   5.759 -1.3908  0.9999  0.5801
 7594SOL     OW23680   0.277   4.837   5.190  0.4010 -0.1174  0.0051
 7594SOL    HW123681   0.179   4.839   5.209  0.5101  1.5923  0.5432
 7594SOL    HW223682   0.301   4.912   5.128  1.4001 -0.3909  0.0457
 7595SOL     OW23683   0.473   2.316   1.285 -0.2937 -0.6914  1.0266
 7595SOL    HW123684   0.497   2.353   1.375 -1.4520 -1.6810  1.7687
 7595SOL    HW223685   0.460   2.392   1.220 -0.4076  0.0752  1.9254
 7596SOL     OW23686   3.171   0.680   6.848 -0.5689  0.1619 -0.2601
 7596SOL    HW123687   3.174   0.703   6.946  1.3004 -1.1625  0.0458
 7596SOL    HW223688   3.115   0.599   6.835  2.2112 -2.0021  0.3368
 7597SOL     OW23689   1.258   4.709   1.172  0.0181 -0.2960  0.1920
 7597SOL    HW123690   1.186   4.641   1.184 -1.6813  1.4350  0.2961
 7597SOL    HW223691   1.337   4.685   1.228  0.2154 -3.0769 -1.1054
 7598SOL     OW23692   5.298   0.674   4.023  0.4188  0.4304 -0.6949
 7598SOL    HW123693   5.309   0.773   4.017 -0.7064  0.4837 -4.5957
 7598SOL    HW223694   5.334   0.632   3.939 -0.2560 -2.3557  0.3251
 7599SOL     OW23695   3.753   3.686   0.178 -0.1990 -0.6319  0.4989
 7599SOL    HW123696   3.704   3.600   0.187 -0.4707 -0.6028 -0.5874
 7599SOL    HW223697   3.733   3.744   0.257 -2.0946 -0.5418 -0.0055
 7600SOL     OW23698   0.358   6.667   5.307  0.4152 -0.0897  0.1051
 7600SOL    HW123699   0.310   6.746   5.344 -0.0622  0.2557 -1.2198
 7600SOL    HW223700   0.293   6.593   5.290  0.7343 -0.4822  0.5400
 7601SOL     OW23701   1.955   6.638   1.339  0.3009 -0.0229  0.7355
 7601SOL    HW123702   1.953   6.539   1.337  0.9207 -0.0511 -1.4627
 7601SOL    HW223703   2.047   6.671   1.320 -0.5215  0.8867 -2.4377
 7602SOL     OW23704   6.164   2.188   1.647  0.2181 -0.4677 -0.2385
 7602SOL    HW123705   6.233   2.259   1.659 -0.0345 -0.2455 -0.0960
 7602SOL    HW223706   6.074   2.231   1.633  0.1754 -0.7442 -0.8449
 7603SOL     OW23707   4.086   0.211   6.947  0.4214  0.0895  0.2813
 7603SOL    HW123708   4.096   0.265   6.863  0.8068 -0.1183  0.1889
 7603SOL    HW223709   4.176   0.199   6.990  0.4142 -0.8317  0.0737
 7604SOL     OW23710   4.059   2.811   0.537  0.3161  0.4124 -0.1234
 7604SOL    HW123711   4.095   2.834   0.627  2.7921  0.0925 -0.9631
 7604SOL    HW223712   4.050   2.712   0.528  0.6115  0.4104 -0.4166
 7605SOL     OW23713   2.101   5.240   6.120  0.0918  0.2152  0.0556
 7605SOL    HW123714   2.074   5.170   6.185  0.2725  1.0813  1.0900
 7605SOL    HW223715   2.182   5.287   6.153  0.5667  0.2505 -1.1144
 7606SOL     OW23716   6.195   2.937   2.931 -0.5541 -0.5749  0.1765
 7606SOL    HW123717   6.293   2.950   2.916 -0.5379  0.3952  0.9825
 7606SOL    HW223718   6.146   2.939   2.844 -0.2931  3.0309 -0.0252
 7607SOL     OW23719   1.887   5.867   5.917 -0.1689  0.2325  0.2383
 7607SOL    HW123720   1.807   5.819   5.954  0.6722 -3.1482 -1.8380
 7607SOL    HW223721   1.968   5.810   5.930  1.4169  2.3221 -0.1462
 7608SOL     OW23722   0.801   2.811   1.017 -0.6085 -0.1424 -0.4978
 7608SOL    HW123723   0.873   2.760   0.971 -1.3966 -0.5961 -1.2755
 7608SOL    HW223724   0.839   2.894   1.058  0.9957 -1.9959  2.0519
 7609SOL     OW23725   3.766   0.699   5.804 -0.1744  0.1684  0.2106
 7609SOL    HW123726   3.672   0.720   5.776 -0.4826 -2.0146 -0.6156
 7609SOL    HW223727   3.829   0.764   5.762 -1.1918  0.6694 -0.5825
 7610SOL     OW23728   5.089   5.254   4.450  0.2753  0.7362 -0.1191
 7610SOL    HW123729   5.096   5.353   4.443  1.3612  0.8020  1.3093
 7610SOL    HW223730   5.002   5.223   4.413  0.9249  1.9338 -2.8897
 7611SOL     OW23731   6.599   0.603   0.894 -0.1376 -0.4316 -0.0465
 7611SOL    HW123732   6.645   0.637   0.976 -0.3828 -0.9759  0.3277
 7611SOL    HW223733   6.500   0.614   0.905 -0.1876 -0.7807 -0.1425
 7612SOL     OW23734   4.018   4.858   2.061 -0.0991  0.3217  0.2541
 7612SOL    HW123735   3.920   4.865   2.044 -0.1587  1.5732  0.9826
 7612SOL    HW223736   4.065   4.830   1.978 -1.0344  0.0524 -0.1897
 7613SOL     OW23737   1.825   0.990   6.601  0.3778 -0.2503 -0.6748
 7613SOL    HW123738   1.924   0.981   6.608  0.2363 -1.7713 -0.3020
 7613SOL    HW223739   1.781   0.912   6.645 -1.0071  0.5515 -0.5565
 7614SOL     OW23740   6.073   3.399   3.854  0.3308  0.0167  0.0106
 7614SOL    HW123741   5.996   3.436   3.801 -0.1925  1.2267  1.5316
 7614SOL    HW223742   6.040   3.327   3.915  0.7742 -0.7712 -0.6550
 7615SOL     OW23743   6.747   3.194   6.273  0.0623 -0.5673  0.4317
 7615SOL    HW123744   6.659   3.242   6.278 -0.5862 -1.7565  0.8333
 7615SOL    HW223745   6.820   3.256   6.303 -0.2645  1.2194 -2.1204
 7616SOL     OW23746   4.428   6.030   2.480  0.6471  0.0339  0.0747
 7616SOL    HW123747   4.367   5.958   2.513  0.6906  0.2849  0.7263
 7616SOL    HW223748   4.395   6.119   2.512 -1.1169  0.7076 -3.1842
 7617SOL     OW23749   6.008   3.857   1.657 -0.4107 -0.2104 -0.2358
 7617SOL    HW123750   6.102   3.888   1.672 -0.4369  0.4873 -1.4281
 7617SOL    HW223751   6.000   3.817   1.566 -1.6246  1.2343 -0.8082
 7618SOL     OW23752   1.436   1.495   0.392 -0.0168  0.2116  0.8987
 7618SOL    HW123753   1.494   1.519   0.314 -0.8248 -0.7491 -0.0280
 7618SOL    HW223754   1.412   1.398   0.387 -4.1451  1.1112 -0.4872
 7619SOL     OW23755   5.339   0.975   6.147 -0.2181 -1.0158  0.5328
 7619SOL    HW123756   5.299   1.055   6.102  0.6513 -0.6183  0.4527
 7619SOL    HW223757   5.271   0.901   6.150 -0.8898 -0.4205  0.2364
 7620SOL     OW23758   3.035   2.546   1.308  0.0083 -0.1362  0.1263
 7620SOL    HW123759   3.053   2.615   1.378  1.6237 -1.1609  0.7865
 7620SOL    HW223760   2.941   2.554   1.276 -0.8962  0.1686  2.6532
 7621SOL     OW23761   0.420   4.628   5.142  0.4746 -0.0867 -0.0642
 7621SOL    HW123762   0.362   4.706   5.162 -0.1651 -0.7593  0.7941
 7621SOL    HW223763   0.492   4.621   5.210  1.4229  0.5776 -0.9632
 7622SOL     OW23764   1.917   3.128   0.744 -0.1787  0.0008 -0.7098
 7622SOL    HW123765   1.914   3.069   0.824 -1.9896  1.0322  0.0370
 7622SOL    HW223766   1.858   3.091   0.673  1.1964 -0.7562 -1.4981
 7623SOL     OW23767   4.851   4.886   4.657  0.2187  0.2523 -0.3716
 7623SOL    HW123768   4.914   4.820   4.616  1.7296  0.4596  1.5119
 7623SOL    HW223769   4.875   4.901   4.753 -1.1469  2.2690 -0.2801
 7624SOL     OW23770   0.731   2.905   3.154 -0.0576  0.0523  0.0914
 7624SOL    HW123771   0.648   2.909   3.098 -0.3966  1.3367  0.6534
 7624SOL    HW223772   0.775   2.994   3.154  2.0469 -0.9015 -1.2142
 7625SOL     OW23773   5.617   6.043   4.156  0.4423  0.2368 -0.0491
 7625SOL    HW123774   5.650   6.077   4.244 -0.9693  0.7672  0.3040
 7625SOL    HW223775   5.550   5.971   4.171 -1.0134  1.4372 -0.6210
 7626SOL     OW23776   3.961   4.989   0.213 -0.6946 -0.0101  0.2281
 7626SOL    HW123777   3.942   4.948   0.124 -1.5447  2.0142 -0.6017
 7626SOL    HW223778   4.037   5.054   0.204  1.5229 -2.2081  1.7880
 7627SOL     OW23779   5.212   3.080   5.980  0.4963  0.6835  0.5770
 7627SOL    HW123780   5.162   2.995   5.993 -0.4688  1.3332  1.2397
 7627SOL    HW223781   5.224   3.097   5.882 -0.1228  0.2493  0.4224
 7628SOL     OW23782   3.831   2.408   1.697 -0.2530  0.2442 -0.2700
 7628SOL    HW123783   3.775   2.422   1.616 -0.6136  0.1017 -0.0498
 7628SOL    HW223784   3.779   2.356   1.765  0.1254  0.1605 -0.0379
 7629SOL     OW23785   5.355   2.847   3.368  0.0101  0.0123 -0.0042
 7629SOL    HW123786   5.363   2.945   3.347 -0.3535 -0.1789 -1.1375
 7629SOL    HW223787   5.381   2.794   3.287 -0.9305 -0.8001  0.2010
 7630SOL     OW23788   1.571   6.194   3.751  0.3672  0.1012 -0.1107
 7630SOL    HW123789   1.650   6.158   3.801  0.7181  0.2504 -0.5492
 7630SOL    HW223790   1.559   6.290   3.773  1.6231  0.6433 -1.6668
 7631SOL     OW23791   6.659   1.040   5.538 -0.2811  0.1246  0.1020
 7631SOL    HW123792   6.695   1.133   5.546  1.2097 -0.1759 -2.0165
 7631SOL    HW223793   6.583   1.040   5.473  0.5118 -0.2556 -0.8681
 7632SOL     OW23794   3.679   5.487   1.372  0.3038  0.1437  0.1904
 7632SOL    HW123795   3.759   5.431   1.349  0.7571  0.6920  0.3982
 7632SOL    HW223796   3.697   5.537   1.457 -0.5536 -0.2994  0.6501
 7633SOL     OW23797   4.178   0.023   3.118 -0.4023  0.1468 -0.0548
 7633SOL    HW123798   4.154   0.074   3.201 -0.3842 -1.0496  0.7110
 7633SOL    HW223799   4.278   0.026   3.106 -0.4265  0.5260 -0.1734
 7634SOL     OW23800   6.500   1.240   1.376 -0.1250 -0.1803  0.3820
 7634SOL    HW123801   6.495   1.337   1.402 -0.7378  0.1133 -0.7503
 7634SOL    HW223802   6.462   1.229   1.284  0.2498 -1.4537  0.3696
 7635SOL     OW23803   0.814   4.594   5.529 -0.5022 -0.2323 -0.3701
 7635SOL    HW123804   0.743   4.654   5.568  0.2954  1.0705 -0.8613
 7635SOL    HW223805   0.859   4.544   5.603 -2.3729 -1.6435 -0.0966
 7636SOL     OW23806   6.574   3.028   3.073  0.1160  0.2845  0.4868
 7636SOL    HW123807   6.576   3.127   3.084 -1.1653  0.5945 -1.4951
 7636SOL    HW223808   6.495   2.990   3.121 -0.4752  0.4888 -0.3074
 7637SOL     OW23809   1.954   4.433   3.577 -0.0820 -0.4953  0.0519
 7637SOL    HW123810   1.967   4.477   3.488  1.0408 -0.1598  0.3659
 7637SOL    HW223811   1.897   4.352   3.566  0.5470 -0.8023 -1.0820
 7638SOL     OW23812   0.986   6.028   0.897  0.4858  0.3161  0.0650
 7638SOL    HW123813   1.074   6.012   0.941  0.2287  0.9518  0.8478
 7638SOL    HW223814   0.923   5.954   0.921  0.8533 -0.2269 -0.6352
 7639SOL     OW23815   2.319   5.020   0.808 -0.2425 -0.0058  0.1729
 7639SOL    HW123816   2.293   5.065   0.893  0.4335 -0.0150  0.3938
 7639SOL    HW223817   2.419   5.009   0.805 -0.3987 -1.7849  0.2714
 7640SOL     OW23818   4.670   0.674   1.646  0.2801  0.1295  0.2727
 7640SOL    HW123819   4.697   0.654   1.552 -0.7787  1.1960 -0.2887
 7640SOL    HW223820   4.705   0.764   1.672  1.9655 -0.8303  1.5043
 7641SOL     OW23821   6.229   5.007   5.725 -0.2162 -0.2474 -0.5684
 7641SOL    HW123822   6.212   4.964   5.813  1.5388  1.5506  0.7543
 7641SOL    HW223823   6.328   5.010   5.708 -0.4939  0.0074 -2.3155
 7642SOL     OW23824   6.976   1.758   3.561 -0.1953 -0.2428  0.0746
 7642SOL    HW123825   6.959   1.661   3.548 -1.1488 -0.0039 -0.5305
 7642SOL    HW223826   7.051   1.787   3.501  1.8537 -1.0936  2.0628
 7643SOL     OW23827   3.517   0.771   4.737  0.3665  0.3879 -0.1085
 7643SOL    HW123828   3.610   0.807   4.744  0.7970 -0.4203 -1.3359
 7643SOL    HW223829   3.453   0.833   4.783  1.5209  0.8510  0.9304
 7644SOL     OW23830   6.541   3.888   0.553  0.6095 -0.1215  0.0512
 7644SOL    HW123831   6.537   3.983   0.583  1.0286 -0.2159  0.4008
 7644SOL    HW223832   6.568   3.829   0.629 -1.3645 -0.7572  0.3249
 7645SOL     OW23833   5.688   3.202   6.375  0.9223  0.6567  0.1937
 7645SOL    HW123834   5.660   3.189   6.471 -1.2794  0.2683 -0.4518
 7645SOL    HW223835   5.696   3.114   6.330  0.7612  0.8918 -0.3001
 7646SOL     OW23836   6.513   1.538   3.274  0.6146 -0.0122  0.9761
 7646SOL    HW123837   6.482   1.594   3.351 -1.1039 -0.8675  0.9647
 7646SOL    HW223838   6.468   1.448   3.278  2.7515 -1.1565  0.5993
 7647SOL     OW23839   2.133   3.563   3.514 -0.0719 -0.8077 -0.0848
 7647SOL    HW123840   2.134   3.465   3.493 -3.7005 -0.8472 -0.7433
 7647SOL    HW223841   2.138   3.615   3.429 -0.5985 -0.5105  0.0650
 7648SOL     OW23842   1.096   3.419   0.414 -0.1702  0.0500  0.1879
 7648SOL    HW123843   1.168   3.488   0.421  0.8008 -0.9667  0.4818
 7648SOL    HW223844   1.052   3.425   0.324  0.8089  0.1704 -0.2874
 7649SOL     OW23845   3.042   0.861   1.281 -0.0181 -0.2739  0.5752
 7649SOL    HW123846   3.020   0.769   1.313 -0.4395 -0.5639 -0.4872
 7649SOL    HW223847   2.958   0.914   1.272  0.2627  0.3628  1.5760
 7650SOL     OW23848   4.717   3.697   0.240  0.3884 -0.5168 -0.0131
 7650SOL    HW123849   4.747   3.609   0.203 -1.2330 -1.2849  0.4188
 7650SOL    HW223850   4.660   3.745   0.173 -0.7727 -0.9439  0.6299
 7651SOL     OW23851   5.046   6.532   6.451  0.1469  0.3722 -0.1609
 7651SOL    HW123852   5.067   6.538   6.549 -0.6168  0.9195 -0.0231
 7651SOL    HW223853   5.130   6.511   6.400  0.6684  0.6990  0.5443
 7652SOL     OW23854   0.792   1.270   5.474  0.0138  0.5519 -0.0830
 7652SOL    HW123855   0.697   1.271   5.504  0.4683 -0.6703  1.5459
 7652SOL    HW223856   0.796   1.273   5.374 -1.7254  0.2472 -0.1883
 7653SOL     OW23857   2.839   5.984   6.270  0.5809  0.1944 -0.3782
 7653SOL    HW123858   2.923   5.996   6.323  0.6127 -1.1823 -0.0862
 7653SOL    HW223859   2.798   6.073   6.252  1.1004  0.7490  1.0963
 7654SOL     OW23860   0.365   2.895   0.913 -0.1409  0.0304  0.0323
 7654SOL    HW123861   0.352   2.939   0.824 -1.0020  1.8323  0.9860
 7654SOL    HW223862   0.344   2.798   0.906 -0.7753  0.2488 -1.5959
 7655SOL     OW23863   2.748   0.052   5.566  0.1967 -0.4113  0.4218
 7655SOL    HW123864   2.845   0.067   5.585  0.5217 -0.5552 -0.9711
 7655SOL    HW223865   2.721  -0.039   5.597  0.7316 -0.6975  0.0671
 7656SOL     OW23866   0.253   3.374   0.093  0.3217 -0.4249 -0.1695
 7656SOL    HW123867   0.166   3.381   0.044 -0.2480 -1.9991  0.5412
 7656SOL    HW223868   0.249   3.430   0.176 -0.5229 -1.4356  0.5075
 7657SOL     OW23869   1.438   3.880   5.894  0.5075  0.0194  0.4177
 7657SOL    HW123870   1.471   3.937   5.819 -0.7250  1.2001  0.7421
 7657SOL    HW223871   1.457   3.925   5.981 -0.2687 -0.1826  0.6962
 7658SOL     OW23872   2.040   5.998   2.156 -0.0444 -0.6268 -0.7395
 7658SOL    HW123873   2.066   5.962   2.066  0.7162  0.4002 -0.9478
 7658SOL    HW223874   1.969   6.068   2.144 -1.7875 -2.2290 -0.3089
 7659SOL     OW23875   6.752   3.839   4.107  0.0589  0.4213  0.5133
 7659SOL    HW123876   6.689   3.761   4.099  0.2834  0.2929 -0.0533
 7659SOL    HW223877   6.845   3.806   4.122  0.2440  0.5561 -0.2899
 7660SOL     OW23878   6.230   6.023   4.215 -0.3485  0.3330  0.2053
 7660SOL    HW123879   6.273   5.938   4.184 -0.2029  0.1167  0.9804
 7660SOL    HW223880   6.261   6.044   4.308  1.7071  2.6242 -0.8864
 7661SOL     OW23881   3.294   1.226   3.368 -0.2246 -0.0757 -0.0938
 7661SOL    HW123882   3.352   1.211   3.448  1.7667 -0.8694 -1.5999
 7661SOL    HW223883   3.350   1.226   3.286 -2.3963 -1.0025 -1.6773
 7662SOL     OW23884   6.338   4.546   2.195  0.2696 -0.3817  0.7200
 7662SOL    HW123885   6.344   4.487   2.276 -0.9542 -1.2906  0.1689
 7662SOL    HW223886   6.424   4.543   2.145  0.3994 -1.3010  0.9839
 7663SOL     OW23887   2.991   6.526   6.754  0.5555  0.1315 -0.3754
 7663SOL    HW123888   3.015   6.489   6.843 -0.8783  2.2203  0.9624
 7663SOL    HW223889   3.073   6.533   6.697  2.3315  2.4148  2.2239
 7664SOL     OW23890   6.915   1.088   4.106  0.0697  0.0489  0.3921
 7664SOL    HW123891   6.832   1.077   4.162  1.5112 -1.0895  2.4556
 7664SOL    HW223892   6.983   1.020   4.134  1.8355  1.1285 -1.0359
 7665SOL     OW23893   0.698   5.473   4.624 -0.2185 -0.6842 -0.4453
 7665SOL    HW123894   0.740   5.383   4.611 -0.0639 -0.6083 -0.4738
 7665SOL    HW223895   0.676   5.486   4.721  0.7800 -0.3073 -0.2603
 7666SOL     OW23896   5.569   4.684   1.560  0.7792  0.1507 -0.5907
 7666SOL    HW123897   5.661   4.648   1.573  1.3910  1.0867 -1.9960
 7666SOL    HW223898   5.502   4.610   1.569  1.5950 -0.4350  1.0045
 7667SOL     OW23899   3.849   0.398   1.277  0.2144 -0.3035  0.5269
 7667SOL    HW123900   3.788   0.411   1.356 -0.8398 -0.2819 -0.2732
 7667SOL    HW223901   3.849   0.301   1.252  0.2875 -0.2596  0.3575
 7668SOL     OW23902   1.481   4.926   6.708  0.1458  0.1832 -0.5442
 7668SOL    HW123903   1.428   4.987   6.767  0.0313 -1.1643  0.8118
 7668SOL    HW223904   1.561   4.892   6.757  1.1501  0.5567 -1.8650
 7669SOL     OW23905   3.595   3.000   5.891 -0.1707  0.6166  0.0875
 7669SOL    HW123906   3.637   3.060   5.959 -0.0925  1.0368 -0.3247
 7669SOL    HW223907   3.496   2.999   5.904 -0.1405  0.5570  0.3165
 7670SOL     OW23908   2.631   2.566   1.161  0.1287 -0.3380  0.1514
 7670SOL    HW123909   2.652   2.544   1.256 -1.3848  0.3988  0.6943
 7670SOL    HW223910   2.532   2.556   1.145  0.1162  1.0976 -0.9053
 7671SOL     OW23911   3.973   1.135   2.868 -0.1172 -0.3504  0.3718
 7671SOL    HW123912   3.980   1.063   2.937 -1.4288 -0.5460  0.3258
 7671SOL    HW223913   3.895   1.195   2.889  1.1246  1.2741  0.5913
 7672SOL     OW23914   0.503   1.950   3.511 -0.0159 -0.2306  0.2823
 7672SOL    HW123915   0.485   2.026   3.449  0.0711 -0.2921  0.1820
 7672SOL    HW223916   0.461   1.866   3.475  1.2976 -0.5970 -0.4669
 7673SOL     OW23917   1.252   6.344   4.721 -0.0581 -0.2025  0.1599
 7673SOL    HW123918   1.230   6.441   4.735 -1.2284 -0.2651 -1.0943
 7673SOL    HW223919   1.350   6.330   4.736  0.0847  1.1135  0.6155
 7674SOL     OW23920   3.322   5.843   4.192 -1.2176  0.5292  0.4882
 7674SOL    HW123921   3.353   5.805   4.105 -0.2756 -0.0848  1.0687
 7674SOL    HW223922   3.280   5.932   4.176  0.3261  1.1348 -0.4313
 7675SOL     OW23923   4.017   0.159   4.130  0.5189  0.1268  0.5515
 7675SOL    HW123924   4.059   0.244   4.160 -2.1721  1.2988  1.3477
 7675SOL    HW223925   3.938   0.179   4.072  0.3284 -1.8876  0.0198
 7676SOL     OW23926   3.836   3.840   4.267 -0.1564 -0.1348 -0.0534
 7676SOL    HW123927   3.773   3.778   4.313 -0.5041  0.0524 -0.2731
 7676SOL    HW223928   3.795   3.872   4.181  0.8143 -1.1208 -0.9135
 7677SOL     OW23929   0.924   6.825   0.499  0.4185  0.0604 -0.7128
 7677SOL    HW123930   0.968   6.886   0.435  1.1894 -1.3609 -1.5955
 7677SOL    HW223931   0.843   6.869   0.538  0.7988  1.5041 -1.5156
 7678SOL     OW23932   3.464   0.453   5.145 -0.4500 -0.8488  0.3592
 7678SOL    HW123933   3.436   0.379   5.206 -0.5015 -0.6126  0.6198
 7678SOL    HW223934   3.511   0.524   5.197 -1.4694 -0.1260  0.3221
 7679SOL     OW23935   2.925   6.330   3.596 -0.2564 -0.3041  0.0505
 7679SOL    HW123936   2.905   6.303   3.502  0.1801 -1.1275  0.1873
 7679SOL    HW223937   2.996   6.400   3.596 -0.2666 -0.2913 -0.2261
 7680SOL     OW23938   0.790   6.856   6.420  0.0219 -0.2286 -0.0863
 7680SOL    HW123939   0.842   6.787   6.470 -0.2022  0.4863  1.1919
 7680SOL    HW223940   0.806   6.946   6.462 -1.1116  0.2130 -0.5596
 7681SOL     OW23941   3.430   2.666   6.029  0.0890  0.0416 -0.0995
 7681SOL    HW123942   3.395   2.743   6.082  0.8734 -0.4265  1.1488
 7681SOL    HW223943   3.508   2.697   5.974 -0.3555  0.3957 -0.5420
 7682SOL     OW23944   1.537   6.358   1.676  0.2536 -0.4824  0.0439
 7682SOL    HW123945   1.619   6.319   1.718  0.4132 -0.2530 -0.0520
 7682SOL    HW223946   1.554   6.453   1.653  0.0192 -0.4867 -0.1460
 7683SOL     OW23947   2.570   4.570   3.552 -0.5501  0.3220  0.2888
 7683SOL    HW123948   2.518   4.486   3.542  0.9334 -0.8497  1.8091
 7683SOL    HW223949   2.508   4.644   3.580 -1.6899 -0.5373  0.1171
 7684SOL     OW23950   5.683   2.862   0.318 -0.8386 -0.3642  0.3989
 7684SOL    HW123951   5.727   2.950   0.337 -0.7245 -0.2188 -0.4906
 7684SOL    HW223952   5.674   2.850   0.219 -0.3097 -1.6163  0.4846
 7685SOL     OW23953   1.337   1.023   0.497  0.9470  0.2657 -0.7424
 7685SOL    HW123954   1.246   1.060   0.516  1.5963  1.7307 -0.3384
 7685SOL    HW223955   1.370   0.973   0.577  0.1001 -1.1827 -1.2590
 7686SOL     OW23956   6.885   1.263   5.983 -0.0582 -0.1955 -0.2959
 7686SOL    HW123957   6.944   1.231   5.909 -0.4444 -1.7485  0.0125
 7686SOL    HW223958   6.793   1.224   5.971 -0.1945 -0.2649  0.8525
 7687SOL     OW23959   6.613   2.673   3.562  0.0389 -0.0459  0.0290
 7687SOL    HW123960   6.592   2.713   3.652 -1.5759 -0.8880  0.0762
 7687SOL    HW223961   6.595   2.574   3.565 -0.1100 -0.0731 -1.2417
 7688SOL     OW23962   0.666   2.259   1.721  0.0966 -0.6827  0.0026
 7688SOL    HW123963   0.759   2.230   1.695  0.0469  0.3913 -1.5085
 7688SOL    HW223964   0.658   2.259   1.821  2.1091  0.3332  0.2230
 7689SOL     OW23965   4.381   5.889   3.685 -0.2898  0.3266 -0.6192
 7689SOL    HW123966   4.358   5.822   3.755 -0.3103  1.2825  0.3199
 7689SOL    HW223967   4.467   5.864   3.642 -0.2815 -0.2851 -0.2600
 7690SOL     OW23968   7.012   3.404   1.696 -0.1803 -0.2716 -0.3491
 7690SOL    HW123969   7.083   3.367   1.756 -0.6144 -2.5902 -1.1454
 7690SOL    HW223970   7.009   3.350   1.612 -2.0757  0.5300 -0.8478
 7691SOL     OW23971   4.993   2.787   4.453  0.0662 -0.2140  0.1074
 7691SOL    HW123972   4.989   2.841   4.369 -1.1340 -0.4141  0.0197
 7691SOL    HW223973   4.940   2.833   4.524 -0.7172 -1.1002  0.1162
 7692SOL     OW23974   3.893   0.145   1.514  0.2456 -0.3954  0.0361
 7692SOL    HW123975   3.804   0.153   1.559  0.1660  0.2141 -0.2245
 7692SOL    HW223976   3.879   0.127   1.416  0.2894  3.5027 -0.8456
 7693SOL     OW23977   3.187   0.648   0.762 -0.5825 -0.2374  0.6476
 7693SOL    HW123978   3.249   0.725   0.752 -0.7150 -0.2811 -0.6910
 7693SOL    HW223979   3.092   0.680   0.756 -0.6471 -0.6495 -1.7567
 7694SOL     OW23980   4.434   2.083   2.010  0.2230  0.4625  0.1507
 7694SOL    HW123981   4.375   2.046   1.938  1.4511  0.7148 -1.0220
 7694SOL    HW223982   4.397   2.170   2.041 -0.1510  0.5104 -0.4090
 7695SOL     OW23983   3.578   5.016   3.206  0.0869 -0.2206 -0.1980
 7695SOL    HW123984   3.497   5.007   3.147  0.1734  0.7135 -0.4862
 7695SOL    HW223985   3.623   5.103   3.186  0.6984 -0.3613  0.5429
 7696SOL     OW23986   2.377   0.740   5.646  0.0322 -0.2707 -0.1549
 7696SOL    HW123987   2.339   0.815   5.591 -0.3141  0.4336  1.0030
 7696SOL    HW223988   2.307   0.708   5.711  0.2986 -1.3608 -0.3730
 7697SOL     OW23989   6.388   6.588   2.381 -0.0049 -0.0441 -0.1654
 7697SOL    HW123990   6.318   6.558   2.445 -0.2477  0.2057 -0.3090
 7697SOL    HW223991   6.470   6.616   2.431 -0.1539  0.0506  0.0268
 7698SOL     OW23992   6.242   1.356   0.140  0.3509 -0.2350  0.1088
 7698SOL    HW123993   6.246   1.256   0.145 -0.3265 -0.4058 -1.9395
 7698SOL    HW223994   6.308   1.389   0.072 -1.3385  0.4514 -1.2814
 7699SOL     OW23995   4.535   0.615   4.418  0.1062 -0.0281 -0.4415
 7699SOL    HW123996   4.619   0.637   4.368  0.9964 -2.1899 -0.0046
 7699SOL    HW223997   4.558   0.561   4.499 -1.6552  0.1264  0.2113
 7700SOL     OW23998   4.477   5.732   0.394 -0.5756 -0.0448 -0.6644
 7700SOL    HW123999   4.422   5.798   0.343 -2.1306 -1.5028 -0.9541
 7700SOL    HW224000   4.476   5.644   0.348  0.2971 -0.6686  0.4387
 7701SOL     OW24001   3.708   2.164   0.127  0.6334 -0.0190 -0.0875
 7701SOL    HW124002   3.720   2.091   0.059  0.5072 -1.1529  1.0674
 7701SOL    HW224003   3.763   2.144   0.208 -1.2202 -0.0926  1.2148
 7702SOL     OW24004   4.773   0.899   4.931 -0.4691  0.1368 -0.2663
 7702SOL    HW124005   4.803   0.970   4.995 -0.3068  0.6309 -0.8902
 7702SOL    HW224006   4.850   0.872   4.873  0.0800 -2.0424  1.3100
 7703SOL     OW24007   1.007   6.276   6.492  0.2809 -0.5975 -0.4115
 7703SOL    HW124008   1.050   6.281   6.402 -0.6105  0.0639 -0.8128
 7703SOL    HW224009   1.071   6.310   6.561  0.1661  1.1091 -1.0883
 7704SOL     OW24010   0.564   2.817   5.215 -0.1726 -0.3742 -0.1119
 7704SOL    HW124011   0.556   2.910   5.177 -1.1484 -0.3182  0.1862
 7704SOL    HW224012   0.565   2.751   5.140  0.6030 -0.1216 -0.3300
 7705SOL     OW24013   0.661   4.595   0.238 -0.1483  0.2603 -0.5320
 7705SOL    HW124014   0.610   4.663   0.292  0.2314 -0.2084  0.4493
 7705SOL    HW224015   0.759   4.618   0.240 -0.2126  0.7557 -1.8162
 7706SOL     OW24016   3.945   3.136   2.600 -0.0844 -0.1968 -0.1590
 7706SOL    HW124017   3.984   3.166   2.514  2.7812 -0.1338  1.0661
 7706SOL    HW224018   3.859   3.185   2.616 -0.0016  0.7730 -2.3090
 7707SOL     OW24019   6.416   5.928   5.821 -0.0453  0.6616 -0.1897
 7707SOL    HW124020   6.461   5.958   5.737 -0.0721 -1.2178 -0.9075
 7707SOL    HW224021   6.406   5.829   5.820 -1.3208  0.7414  1.4106
 7708SOL     OW24022   0.232   0.698   5.234  0.2016 -0.7921  0.2139
 7708SOL    HW124023   0.222   0.724   5.137 -0.7125 -1.7846  0.0284
 7708SOL    HW224024   0.329   0.685   5.255  0.6988  2.0563  0.1589
 7709SOL     OW24025   4.767   6.191   0.794 -1.0066  0.5669  0.4342
 7709SOL    HW124026   4.829   6.198   0.873 -0.8401  0.1608  0.3406
 7709SOL    HW224027   4.749   6.282   0.758 -1.7249  0.8348  1.4381
 7710SOL     OW24028   0.494   4.837   2.063 -0.2287 -0.4808  0.1900
 7710SOL    HW124029   0.481   4.820   2.161 -0.3781 -0.8659  0.1067
 7710SOL    HW224030   0.592   4.849   2.044 -0.2184 -0.1959  0.4172
 7711SOL     OW24031   0.945   4.094   1.887  0.1540  0.3039 -0.2724
 7711SOL    HW124032   0.965   4.106   1.790 -0.3844  1.4594 -0.2578
 7711SOL    HW224033   0.947   3.997   1.910 -1.2210 -0.1132 -1.7635
 7712SOL     OW24034   1.852   5.887   4.852 -0.1964  0.2735 -0.2290
 7712SOL    HW124035   1.899   5.907   4.938  1.0473  0.9201 -1.0241
 7712SOL    HW224036   1.897   5.810   4.806  0.9357  1.6812 -1.5830
 7713SOL     OW24037   3.206   4.905   7.016  0.5130 -0.3464 -0.4173
 7713SOL    HW124038   3.282   4.848   7.045  0.9855 -0.3933 -1.6551
 7713SOL    HW224039   3.123   4.878   7.064  1.0280 -1.0984  0.0703
 7714SOL     OW24040   6.661   1.011   2.977  0.0236 -0.7060  0.6009
 7714SOL    HW124041   6.649   0.911   2.983  2.5517 -1.0051  1.8287
 7714SOL    HW224042   6.684   1.036   2.883 -0.0115 -1.3606  0.4091
 7715SOL     OW24043   5.332   3.298   0.484  0.5822  0.7413 -0.4526
 7715SOL    HW124044   5.392   3.236   0.434  2.9324  1.8038  0.8714
 7715SOL    HW224045   5.377   3.327   0.569 -1.8602  1.5934  0.6579
 7716SOL     OW24046   3.013   0.467   6.783 -0.0667  0.1894 -0.1314
 7716SOL    HW124047   2.918   0.486   6.757  0.8471  2.2484 -2.4075
 7716SOL    HW224048   3.033   0.370   6.769 -1.5374 -0.0634 -0.6530
 7717SOL     OW24049   0.067   3.984   6.985  0.7265 -0.9022  0.1994
 7717SOL    HW124050  -0.008   4.032   7.030  0.5238 -1.1305  0.1098
 7717SOL    HW224051   0.135   4.050   6.954 -0.3914 -0.4636 -1.5146
 7718SOL     OW24052   6.915   2.374   5.017 -0.2608 -0.2766  0.2821
 7718SOL    HW124053   7.011   2.344   5.016 -0.1774 -0.1724  2.1825
 7718SOL    HW224054   6.859   2.307   5.066 -1.3234 -0.6892 -1.4126
 7719SOL     OW24055   3.057   4.636   5.366  0.0547 -0.8225 -0.3012
 7719SOL    HW124056   2.967   4.665   5.397 -0.5319 -1.8314 -1.0267
 7719SOL    HW224057   3.048   4.580   5.284  1.3863 -0.4272 -0.7502
 7720SOL     OW24058   3.398   1.571   5.562  0.3911 -0.2234  0.5491
 7720SOL    HW124059   3.473   1.513   5.530  0.9351 -1.3517  3.4945
 7720SOL    HW224060   3.436   1.646   5.618 -0.6062 -0.6881  1.9083
 7721SOL     OW24061   5.854   5.820   2.652  0.7171 -0.6320 -0.1183
 7721SOL    HW124062   5.824   5.767   2.573  1.5040  3.0561 -3.2407
 7721SOL    HW224063   5.945   5.790   2.679  1.9769  0.1147 -3.0599
 7722SOL     OW24064   6.507   6.276   6.605  0.1619  0.3824  0.3554
 7722SOL    HW124065   6.469   6.240   6.520 -0.4199  1.2736  0.2221
 7722SOL    HW224066   6.607   6.275   6.601  0.1409  1.0556 -0.6227
 7723SOL     OW24067   4.591   5.162   6.033  0.3427 -0.2303  0.4036
 7723SOL    HW124068   4.543   5.152   5.946  1.3071  1.6670 -0.3798
 7723SOL    HW224069   4.528   5.200   6.101  0.3207  0.8828 -0.2249
 7724SOL     OW24070   1.353   5.133   1.028  0.3956 -0.0807  0.1335
 7724SOL    HW124071   1.323   5.068   0.958  0.9029 -0.2524  0.0699
 7724SOL    HW224072   1.346   5.090   1.118 -1.0214  0.4122  0.2828
 7725SOL     OW24073   6.279   3.427   4.757  0.3023 -0.0184  0.2747
 7725SOL    HW124074   6.353   3.471   4.808  0.9768 -0.2022 -0.5078
 7725SOL    HW224075   6.207   3.494   4.739  0.7808  0.4609  0.1068
 7726SOL     OW24076   1.824   2.477   0.676 -0.0419  0.4999  0.2023
 7726SOL    HW124077   1.922   2.477   0.658  0.2771  0.2429  1.7926
 7726SOL    HW224078   1.777   2.425   0.604  1.0912 -0.1951 -0.0644
 7727SOL     OW24079   5.992   6.973   3.358  0.0009 -0.3738  0.1480
 7727SOL    HW124080   5.934   6.944   3.282 -0.0531  1.5336 -0.5920
 7727SOL    HW224081   6.086   6.984   3.326 -0.0101  0.3849  0.3435
 7728SOL     OW24082   1.196   3.112   6.158  0.0642 -0.1998 -0.0698
 7728SOL    HW124083   1.146   3.198   6.159  0.3940 -0.0083  0.8805
 7728SOL    HW224084   1.211   3.080   6.252  1.0196 -0.6581 -0.3603
 7729SOL     OW24085   1.070   6.881   2.790  0.2227 -0.1523 -0.0408
 7729SOL    HW124086   1.125   6.842   2.716  0.7629  0.3820  0.0759
 7729SOL    HW224087   1.062   6.980   2.778 -0.3993 -0.1717  0.1533
 7730SOL     OW24088   5.549   2.748   7.016  0.3781 -0.2168 -0.1834
 7730SOL    HW124089   5.569   2.660   7.061  0.7859 -0.7733 -1.4209
 7730SOL    HW224090   5.450   2.762   7.014  0.2098 -1.3508 -1.2175
 7731SOL     OW24091   6.306   2.682   5.823  0.0628  0.0752  0.0601
 7731SOL    HW124092   6.244   2.636   5.887  0.8609 -0.5495  0.4025
 7731SOL    HW224093   6.290   2.648   5.731 -1.4939  1.4006 -0.1884
 7732SOL     OW24094   3.437   0.277   2.092 -0.1254  0.0014  0.1583
 7732SOL    HW124095   3.515   0.251   2.148 -0.1991 -0.5999 -0.0182
 7732SOL    HW224096   3.467   0.295   1.998 -0.4640 -2.1265 -0.4014
 7733SOL     OW24097   4.611   5.501   1.764 -0.1029  0.1499  0.2113
 7733SOL    HW124098   4.637   5.472   1.856  0.4295 -0.1476 -0.0304
 7733SOL    HW224099   4.687   5.485   1.701 -1.1428 -1.5219 -0.6907
 7734SOL     OW24100   4.188   3.634   5.066  0.4837  0.1308 -0.0061
 7734SOL    HW124101   4.174   3.564   4.997  3.5270 -0.0071 -0.5869
 7734SOL    HW224102   4.234   3.594   5.146 -1.3427  0.6808  1.4048
 7735SOL     OW24103   6.615   4.955   0.789  0.3008 -0.1202 -0.8082
 7735SOL    HW124104   6.558   4.899   0.729 -0.8414  0.2577 -0.1016
 7735SOL    HW224105   6.557   5.013   0.846  1.4470  1.3039 -1.0456
 7736SOL     OW24106   0.913   1.924   1.703 -0.5547 -0.3307 -0.3893
 7736SOL    HW124107   0.946   2.016   1.725 -0.6494  0.1066 -1.9414
 7736SOL    HW224108   0.819   1.929   1.670 -0.2859 -0.8510 -1.2879
 7737SOL     OW24109   4.462   4.338   6.371  0.1810 -0.7635  0.1018
 7737SOL    HW124110   4.427   4.429   6.352  0.1653 -0.6058  0.8450
 7737SOL    HW224111   4.547   4.324   6.319  0.1279 -0.3681 -0.0981
 7738SOL     OW24112   3.051   0.902   4.609 -0.0311  0.0981 -0.3503
 7738SOL    HW124113   3.121   0.915   4.539  0.0545  2.2911  0.0797
 7738SOL    HW224114   3.006   0.989   4.627 -1.7309 -0.9306  0.5957
 7739SOL     OW24115   1.141   3.426   1.495  0.1605 -0.1779 -0.1818
 7739SOL    HW124116   1.213   3.485   1.460 -0.2661 -0.5447 -1.7695
 7739SOL    HW224117   1.085   3.394   1.419  0.2857 -2.5095  0.6310
 7740SOL     OW24118   3.300   1.796   4.206 -0.2345  0.3154 -0.0556
 7740SOL    HW124119   3.262   1.789   4.113  2.2135 -0.3757 -1.0948
 7740SOL    HW224120   3.295   1.891   4.236 -2.1838  0.3547 -0.3358
 7741SOL     OW24121   5.710   6.283   5.137 -0.1404  0.2274  0.0958
 7741SOL    HW124122   5.649   6.330   5.074 -2.7275  0.5141  2.6206
 7741SOL    HW224123   5.678   6.189   5.151 -0.1098  0.4104  1.5493
 7742SOL     OW24124   4.678   3.511   5.750 -0.2272  0.3354  0.1042
 7742SOL    HW124125   4.775   3.485   5.748  0.4924  2.7478  0.3592
 7742SOL    HW224126   4.651   3.546   5.660 -1.4657 -2.0395 -0.5432
 7743SOL     OW24127   3.327   2.459   7.004 -0.0888  0.3467  0.0756
 7743SOL    HW124128   3.373   2.546   6.986 -1.4836  1.2400  0.6557
 7743SOL    HW224129   3.228   2.470   6.991 -0.2670 -1.2593 -0.1902
 7744SOL     OW24130   0.594   1.025   5.940 -0.1525 -0.4439  0.2592
 7744SOL    HW124131   0.672   0.962   5.931  0.0353 -0.2094  0.2282
 7744SOL    HW224132   0.617   1.097   6.006  0.3444  0.6352 -1.0252
 7745SOL     OW24133   2.924   0.166   2.335 -0.0788  0.6839  0.7508
 7745SOL    HW124134   2.919   0.066   2.337 -1.2376  0.6901 -0.6250
 7745SOL    HW224135   2.878   0.203   2.416  1.4065  0.1130  1.9054
 7746SOL     OW24136   0.646   6.245   0.696  0.3570  0.3791  0.2363
 7746SOL    HW124137   0.684   6.337   0.688  1.7298 -0.1543  0.1755
 7746SOL    HW224138   0.561   6.238   0.643  0.3758  1.5315  0.0366
 7747SOL     OW24139   0.567   6.508   1.489 -0.7811  0.2921  0.1934
 7747SOL    HW124140   0.616   6.593   1.508 -0.7424  0.1142  0.9155
 7747SOL    HW224141   0.607   6.434   1.543 -1.6457  0.0814  0.5600
 7748SOL     OW24142   5.917   0.712   5.186  0.2862 -0.2891  0.6457
 7748SOL    HW124143   5.843   0.765   5.145  0.2144  0.0426  1.1969
 7748SOL    HW224144   5.938   0.633   5.127 -1.6830 -1.3968  1.3322
 7749SOL     OW24145   3.467   3.164   2.819  0.7771 -0.0012 -0.0484
 7749SOL    HW124146   3.461   3.080   2.766  0.4247  0.5924 -0.9859
 7749SOL    HW224147   3.403   3.159   2.896 -1.7001  0.6431 -1.9305
 7750SOL     OW24148   4.468   4.704   5.159 -0.2742  0.0775 -0.3495
 7750SOL    HW124149   4.436   4.637   5.092 -0.5782 -1.5626  1.3618
 7750SOL    HW224150   4.403   4.709   5.235  1.9201 -1.0752  1.7346
 7751SOL     OW24151   1.014   3.252   3.773  0.0114 -0.3652 -0.2026
 7751SOL    HW124152   0.988   3.347   3.753 -0.6747 -0.1380  1.5851
 7751SOL    HW224153   1.113   3.243   3.770  0.0883  0.4315 -0.2805
 7752SOL     OW24154   6.250   2.446   6.249 -0.1390 -0.7631 -0.2534
 7752SOL    HW124155   6.234   2.499   6.165  0.2149 -0.8073 -0.3544
 7752SOL    HW224156   6.216   2.496   6.328 -0.1495 -0.5546 -0.3893
 7753SOL     OW24157   3.360   1.944   3.165  0.3829 -0.3725 -0.2351
 7753SOL    HW124158   3.358   1.873   3.095 -3.6537 -1.0796  0.3893
 7753SOL    HW224159   3.267   1.968   3.191  1.6839  2.0634  2.7595
 7754SOL     OW24160   1.189   6.887   6.867  0.1190  0.2660 -0.3447
 7754SOL    HW124161   1.196   6.804   6.813 -0.9241  0.6456 -1.0880
 7754SOL    HW224162   1.227   6.871   6.958  0.0688 -0.9709 -0.5301
 7755SOL     OW24163   0.236   6.413   5.767  0.7064  0.0664  0.3088
 7755SOL    HW124164   0.145   6.428   5.805  0.4937  0.3036 -0.2867
 7755SOL    HW224165   0.230   6.357   5.685  0.9450  1.1004 -0.4456
 7756SOL     OW24166   4.068   6.262   3.730  0.0673 -0.2962  0.4488
 7756SOL    HW124167   4.068   6.320   3.649 -2.0980 -0.4561  0.2593
 7756SOL    HW224168   4.148   6.202   3.728  1.3058  1.2932 -0.3327
 7757SOL     OW24169   4.410   2.997   5.990 -0.4923 -0.1189  0.3922
 7757SOL    HW124170   4.479   3.066   6.010 -1.4514  1.4670 -1.4224
 7757SOL    HW224171   4.319   3.033   6.013 -0.8690 -1.7064  1.6033
 7758SOL     OW24172   1.629   1.099   5.464  0.2387  0.3424 -0.0976
 7758SOL    HW124173   1.550   1.103   5.403  0.8990 -1.0106 -1.1188
 7758SOL    HW224174   1.608   1.042   5.543 -0.3525  1.4171  0.5359
 7759SOL     OW24175   3.491   0.945   6.716 -0.4038  0.4357  0.3416
 7759SOL    HW124176   3.450   0.890   6.643  0.1854  0.8323 -0.2982
 7759SOL    HW224177   3.462   1.040   6.707 -0.5637  0.4329  0.8046
 7760SOL     OW24178   5.520   2.062   1.296 -0.0001 -0.1489  0.0768
 7760SOL    HW124179   5.581   1.983   1.303 -0.1509 -0.3392 -0.6536
 7760SOL    HW224180   5.454   2.060   1.371  0.0213 -0.7020  0.0859
 7761SOL     OW24181   5.145   0.055   6.792 -0.4080  0.0861  0.3745
 7761SOL    HW124182   5.058   0.104   6.792 -0.7969 -0.5932  0.4695
 7761SOL    HW224183   5.159   0.011   6.703 -0.4286 -0.2680  0.5460
 7762SOL     OW24184   2.693   1.440   2.822  0.5908  0.7467  0.1587
 7762SOL    HW124185   2.731   1.532   2.812 -3.0084  2.2559 -1.4705
 7762SOL    HW224186   2.702   1.390   2.736 -0.6960  0.9991 -0.1381
 7763SOL     OW24187   4.129   3.191   0.371 -0.3398  0.5278 -0.1372
 7763SOL    HW124188   4.034   3.165   0.388 -0.0401  0.1578  1.0953
 7763SOL    HW224189   4.190   3.123   0.412  0.4491  1.9061  1.0694
 7764SOL     OW24190   2.970   3.304   2.910  0.5880 -0.3488 -0.0550
 7764SOL    HW124191   3.032   3.228   2.930 -2.1732 -2.1914  2.3477
 7764SOL    HW224192   2.933   3.340   2.996 -0.2492  1.9295 -1.3023
 7765SOL     OW24193   1.906   1.617   6.603  0.2042  0.6030  0.2857
 7765SOL    HW124194   1.906   1.711   6.570 -0.6334  0.1312 -1.1347
 7765SOL    HW224195   1.848   1.610   6.685 -0.0164  1.2502  0.1910
 7766SOL     OW24196   6.832   2.918   5.522  0.0652 -0.1717  0.5259
 7766SOL    HW124197   6.797   2.929   5.429  0.5888 -1.1300  0.2091
 7766SOL    HW224198   6.792   2.837   5.564 -0.3931  0.4095  1.2618
 7767SOL     OW24199   5.619   2.790   3.488  0.0818  0.0091 -0.3381
 7767SOL    HW124200   5.613   2.881   3.529  1.0763  0.7003 -1.6547
 7767SOL    HW224201   5.528   2.764   3.453 -0.1020  0.7283 -0.4170
 7768SOL     OW24202   2.806   6.134   2.361 -1.0050  0.4505 -0.3464
 7768SOL    HW124203   2.805   6.049   2.308 -0.0205  1.7071 -2.4963
 7768SOL    HW224204   2.717   6.178   2.356 -0.9030  0.5887 -1.0435
 7769SOL     OW24205   5.348   2.446   3.519 -0.2363  0.4039  0.4018
 7769SOL    HW124206   5.435   2.449   3.471 -0.8780  0.3310 -0.7876
 7769SOL    HW224207   5.289   2.520   3.486 -1.0309 -0.2150  0.3883
 7770SOL     OW24208   0.977   1.683   0.945 -0.4940  0.2576 -0.4348
 7770SOL    HW124209   0.940   1.590   0.942  0.7717 -0.2293 -1.6995
 7770SOL    HW224210   0.937   1.731   1.023  1.9011 -2.6532  2.9639
 7771SOL     OW24211   2.290   0.128   3.275 -0.4682 -0.2429  0.4451
 7771SOL    HW124212   2.335   0.100   3.359  0.4514 -0.8486 -0.2227
 7771SOL    HW224213   2.328   0.216   3.244  1.3965 -1.4209 -0.8733
 7772SOL     OW24214   4.086   1.977   5.673  0.1270 -0.4795  0.6089
 7772SOL    HW124215   4.110   2.070   5.646  0.1288 -0.3796  0.9538
 7772SOL    HW224216   4.127   1.912   5.609 -0.3057 -0.2236  0.0642
 7773SOL     OW24217   4.735   4.842   5.794  1.1388 -0.3546 -0.1167
 7773SOL    HW124218   4.786   4.843   5.880 -0.6824 -2.3046  1.0739
 7773SOL    HW224219   4.673   4.921   5.791 -0.6312 -1.5970  1.6221
 7774SOL     OW24220   3.776   6.674   2.619 -0.3768 -0.3724 -0.0657
 7774SOL    HW124221   3.866   6.658   2.661 -0.2648  0.8885  0.2039
 7774SOL    HW224222   3.785   6.675   2.520  0.0622  0.5672 -0.0227
 7775SOL     OW24223   0.214   7.012   3.225 -0.2239  0.0011  0.4729
 7775SOL    HW124224   0.237   7.104   3.192 -1.3857  1.0977  2.5433
 7775SOL    HW224225   0.217   7.011   3.325 -2.1127 -1.6974  0.5703
 7776SOL     OW24226   3.089   4.124   0.599 -0.0157  0.0117 -0.2709
 7776SOL    HW124227   3.032   4.060   0.548 -1.8695  0.9984  0.4532
 7776SOL    HW224228   3.176   4.081   0.623  0.0365 -1.1552 -2.4085
 7777SOL     OW24229   6.450   2.009   6.648 -0.1911  0.2532 -0.5034
 7777SOL    HW124230   6.422   2.046   6.560  0.7351 -0.2780 -1.0413
 7777SOL    HW224231   6.376   2.020   6.715  0.2816  3.7264 -0.3940
 7778SOL     OW24232   6.011   1.737   1.460 -0.1022  0.4850 -0.0046
 7778SOL    HW124233   5.959   1.818   1.485  1.6408  2.3431 -1.9477
 7778SOL    HW224234   6.109   1.756   1.468  0.3526 -1.7975  0.4707
 7779SOL     OW24235   3.711   3.604   1.383  0.2858 -0.5891  0.2590
 7779SOL    HW124236   3.781   3.660   1.428 -1.6399  2.2392  0.0267
 7779SOL    HW224237   3.663   3.550   1.452 -0.8436  1.6489  1.3357
 7780SOL     OW24238   1.386   1.388   3.670  0.3892  0.2108  0.2927
 7780SOL    HW124239   1.467   1.443   3.689  0.7806 -0.0717 -0.5292
 7780SOL    HW224240   1.336   1.427   3.592 -0.1474  0.2483  0.6442
 7781SOL     OW24241   3.184   4.686   6.405  0.4640 -0.0868  0.9582
 7781SOL    HW124242   3.150   4.668   6.498  0.9512 -0.1853  1.1205
 7781SOL    HW224243   3.250   4.761   6.408 -0.0456  0.3850  0.5833
 7782SOL     OW24244   5.052   5.405   0.850 -0.3198  0.3197  0.0319
 7782SOL    HW124245   5.032   5.370   0.941  0.5341  1.4139  0.6695
 7782SOL    HW224246   5.141   5.451   0.851 -0.1154 -0.0059 -1.4603
 7783SOL     OW24247   4.821   6.328   0.287  0.0764  0.4292 -0.2765
 7783SOL    HW124248   4.728   6.306   0.258  0.4858 -3.1366  0.7069
 7783SOL    HW224249   4.885   6.308   0.212  0.3277 -0.4549  0.1587
 7784SOL     OW24250   6.209   2.900   6.251  0.1700  0.2216 -0.2044
 7784SOL    HW124251   6.254   2.959   6.319 -0.5153 -0.8555  1.2444
 7784SOL    HW224252   6.121   2.941   6.226  0.4238  0.6259 -0.4444
 7785SOL     OW24253   2.128   6.890   0.265  0.3226  0.5866  0.4029
 7785SOL    HW124254   2.114   6.813   0.327 -0.8391  1.5675  1.4157
 7785SOL    HW224255   2.106   6.976   0.313  2.2472  1.6333 -0.4597
 7786SOL     OW24256   4.548   3.873   5.684 -0.7980  0.5012  0.2667
 7786SOL    HW124257   4.542   3.948   5.619  2.0106  0.3571 -0.2833
 7786SOL    HW224258   4.560   3.909   5.776 -0.5970  0.7422  0.1480
 7787SOL     OW24259   3.653   2.749   5.902 -0.0157 -0.1975  0.3277
 7787SOL    HW124260   3.743   2.740   5.946 -0.5392 -0.6403  1.3336
 7787SOL    HW224261   3.633   2.846   5.889  1.0643 -0.1071 -0.9040
 7788SOL     OW24262   0.120   3.848   4.821 -0.5241  0.4015 -0.1031
 7788SOL    HW124263   0.154   3.914   4.888 -1.7933  1.8012 -0.7919
 7788SOL    HW224264   0.196   3.790   4.790  0.6257  1.5128  0.5349
 7789SOL     OW24265   1.814   5.912   1.037 -0.3582 -0.7032  0.4763
 7789SOL    HW124266   1.865   5.843   1.088 -0.7498 -0.9115  0.5892
 7789SOL    HW224267   1.747   5.956   1.097  0.4118  0.3202  0.6011
 7790SOL     OW24268   2.117   2.665   5.153 -0.3895 -0.2917 -0.2179
 7790SOL    HW124269   2.172   2.661   5.236 -0.5344 -0.9788 -0.1511
 7790SOL    HW224270   2.044   2.597   5.158 -0.5434 -0.1746 -0.8095
 7791SOL     OW24271   6.993   6.253   6.005  0.6247 -0.5468  0.2543
 7791SOL    HW124272   7.091   6.236   6.010  1.5485  3.3718 -1.1020
 7791SOL    HW224273   6.966   6.316   6.078 -0.6888 -0.8098  0.0175
 7792SOL     OW24274   1.357   6.103   6.299 -0.3474  0.1053 -0.1242
 7792SOL    HW124275   1.274   6.110   6.354  0.1517 -0.3754  0.7099
 7792SOL    HW224276   1.390   6.195   6.278 -0.6918  0.3000  0.1636
 7793SOL     OW24277   3.093   1.180   6.036 -0.2089 -0.0312 -0.5126
 7793SOL    HW124278   3.016   1.219   6.086 -1.2149 -0.7414 -1.4572
 7793SOL    HW224279   3.087   1.080   6.039  0.6383 -0.0906 -0.6617
 7794SOL     OW24280   5.100   4.543   2.719 -0.8955 -0.0859 -1.1394
 7794SOL    HW124281   5.103   4.451   2.759 -0.2331 -0.1317 -1.2835
 7794SOL    HW224282   5.190   4.586   2.727 -1.8961  1.8032  1.8566
 7795SOL     OW24283   0.912   3.205   6.425  0.0936  0.0806  0.7294
 7795SOL    HW124284   0.822   3.160   6.426 -0.4059  1.0505  1.0236
 7795SOL    HW224285   0.924   3.255   6.511  0.8069  0.1864  0.5701
 7796SOL     OW24286   3.610   3.393   4.267 -0.2717 -0.6677 -0.5487
 7796SOL    HW124287   3.524   3.344   4.282 -0.7404 -0.2698 -1.8529
 7796SOL    HW224288   3.656   3.357   4.187  0.5214 -0.5090 -0.1737
 7797SOL     OW24289   6.923   6.344   4.116 -0.0163  0.4739 -0.1298
 7797SOL    HW124290   6.851   6.275   4.121  0.0716  0.4528  1.1164
 7797SOL    HW224291   6.890   6.430   4.155  0.7400  0.3577  0.7904
 7798SOL     OW24292   4.893   5.105   5.287  0.3145  0.3027  0.4367
 7798SOL    HW124293   4.926   5.198   5.304  0.6832  0.3368 -0.4346
 7798SOL    HW224294   4.828   5.080   5.359  0.6325  1.0194  0.9960
 7799SOL     OW24295   5.182   5.975   1.407  0.3477  0.5227 -0.0733
 7799SOL    HW124296   5.101   5.939   1.362  0.3356 -0.0455  0.3909
 7799SOL    HW224297   5.229   5.902   1.457  0.2481  1.1608  1.0057
 7800SOL     OW24298   0.424   6.054   2.371 -0.1377  0.2379 -0.3992
 7800SOL    HW124299   0.403   6.010   2.284 -0.6145  1.6710 -1.0533
 7800SOL    HW224300   0.387   6.147   2.371  1.3019  0.8619  0.6917
 7801SOL     OW24301   4.626   2.747   5.315 -0.0846  0.4083  0.3520
 7801SOL    HW124302   4.665   2.785   5.231 -2.3707 -0.3917 -1.1766
 7801SOL    HW224303   4.563   2.813   5.356  3.9596  2.5456  3.9458
 7802SOL     OW24304   5.233   0.590   0.319 -0.0528 -0.5988 -0.3419
 7802SOL    HW124305   5.156   0.561   0.263 -0.5698  1.0719 -0.5726
 7802SOL    HW224306   5.307   0.623   0.260  0.5131 -1.3854 -0.0957
 7803SOL     OW24307   2.914   5.068   6.773 -0.4322 -0.0488 -0.4209
 7803SOL    HW124308   3.001   5.020   6.789 -0.4729  0.6375  2.3077
 7803SOL    HW224309   2.845   5.002   6.744 -0.1412 -1.4894  1.8931
 7804SOL     OW24310   5.477   2.736   0.427 -0.2822  0.0724 -0.2387
 7804SOL    HW124311   5.556   2.777   0.381  0.1408 -0.3282  0.1203
 7804SOL    HW224312   5.490   2.637   0.434  0.4649  0.2637  2.2057
 7805SOL     OW24313   5.188   3.480   2.476  0.2308  0.3200 -0.1091
 7805SOL    HW124314   5.110   3.480   2.538  1.0376 -1.5742  1.0169
 7805SOL    HW224315   5.210   3.574   2.448 -2.3629  0.8976 -0.4222
 7806SOL     OW24316   4.272   1.488   0.585  0.4054  0.9108 -0.4882
 7806SOL    HW124317   4.360   1.476   0.629  1.8503  1.4013 -3.0162
 7806SOL    HW224318   4.200   1.447   0.641  2.5972 -2.4558  0.1394
 7807SOL     OW24319   0.537   5.648   6.910  0.4440 -0.2932  0.4482
 7807SOL    HW124320   0.539   5.571   6.973 -0.7496 -0.0942  0.7606
 7807SOL    HW224321   0.442   5.672   6.890  0.7818  1.2796  0.5996
 7808SOL     OW24322   1.590   2.838   3.928 -0.2695 -0.1214  0.1210
 7808SOL    HW124323   1.554   2.746   3.917 -0.6306  0.1314 -1.0235
 7808SOL    HW224324   1.690   2.834   3.937 -0.1616 -0.5774 -1.0519
 7809SOL     OW24325   0.992   5.683   5.034  0.1507 -0.9093  0.2258
 7809SOL    HW124326   1.080   5.646   5.008 -1.1357 -2.5654 -2.1784
 7809SOL    HW224327   0.984   5.687   5.133  3.2231  0.2121  0.5189
 7810SOL     OW24328   2.877   0.610   1.049  0.4005  0.3529 -0.2756
 7810SOL    HW124329   2.826   0.525   1.060  1.4990 -0.9659 -3.9298
 7810SOL    HW224330   2.816   0.682   1.015  0.0838  0.0999 -0.2451
 7811SOL     OW24331   6.418   5.397   5.336 -0.2939 -0.2196  0.6741
 7811SOL    HW124332   6.395   5.300   5.328  0.0067 -0.2332 -0.1919
 7811SOL    HW224333   6.515   5.410   5.314 -0.7900  0.5144 -1.2889
 7812SOL     OW24334   1.003   1.961   3.157  0.3210  0.6984  0.3527
 7812SOL    HW124335   1.064   1.951   3.235  0.0858  0.3087  0.4920
 7812SOL    HW224336   1.012   1.880   3.098 -0.4919  0.3501  0.6856
 7813SOL     OW24337   5.404   6.332   2.890  0.3992 -0.3849 -0.1336
 7813SOL    HW124338   5.332   6.327   2.821  0.9988 -0.0721 -0.7953
 7813SOL    HW224339   5.460   6.413   2.874  0.5786 -0.3324  0.7003
 7814SOL     OW24340   1.209   3.660   2.853 -0.8694 -0.2523 -0.2947
 7814SOL    HW124341   1.160   3.650   2.767 -3.1998  1.4242  0.7537
 7814SOL    HW224342   1.174   3.594   2.919  0.7523 -1.3761 -0.4886
 7815SOL     OW24343   1.019   2.605   4.778  0.5210 -0.0236  0.2177
 7815SOL    HW124344   0.960   2.660   4.718  2.5893 -0.8507 -2.7858
 7815SOL    HW224345   1.088   2.664   4.820  0.8964  0.1292 -0.6069
 7816SOL     OW24346   2.144   4.125   4.983 -0.0854 -0.9239 -0.1543
 7816SOL    HW124347   2.048   4.135   5.010  0.0916  0.5950  0.0178
 7816SOL    HW224348   2.187   4.053   5.037 -0.9252 -1.0697  0.3385
 7817SOL     OW24349   6.280   2.142   6.429 -0.1301  0.1711  0.0488
 7817SOL    HW124350   6.233   2.212   6.483  1.7698  0.6389  1.1839
 7817SOL    HW224351   6.253   2.151   6.333  0.8764  3.2562 -0.0501
 7818SOL     OW24352   0.384   1.869   3.217  0.1875 -0.2444 -0.1423
 7818SOL    HW124353   0.426   1.792   3.168  0.5285  1.0020 -1.8964
 7818SOL    HW224354   0.436   1.952   3.199  1.1971  0.1114  3.5234
 7819SOL     OW24355   0.210   1.905   1.332  0.7159 -0.2080 -0.4210
 7819SOL    HW124356   0.209   1.939   1.426  2.4453 -0.5908 -0.2239
 7819SOL    HW224357   0.289   1.943   1.283  0.5039 -0.9227 -1.3645
 7820SOL     OW24358   2.476   1.170   3.279 -0.0896  0.3716  0.0275
 7820SOL    HW124359   2.541   1.232   3.236 -0.0757 -0.0207 -0.5233
 7820SOL    HW224360   2.455   1.202   3.372  1.1610  0.2957  0.3458
 7821SOL     OW24361   0.969   6.914   0.975 -0.3906 -0.0985 -0.1663
 7821SOL    HW124362   0.878   6.928   0.934 -1.8558 -0.7638  2.6128
 7821SOL    HW224363   1.039   6.943   0.910 -2.6260  3.1653 -1.3929
 7822SOL     OW24364   6.407   0.634   6.009  0.3296 -0.2510  0.4900
 7822SOL    HW124365   6.463   0.552   6.017  0.9161  0.0006 -0.7961
 7822SOL    HW224366   6.464   0.711   5.982 -0.0406  0.8231  2.5282
 7823SOL     OW24367   1.445   2.105   4.917 -0.2388 -0.0588 -0.0966
 7823SOL    HW124368   1.396   2.021   4.938 -2.4403  1.5669  1.8549
 7823SOL    HW224369   1.534   2.105   4.964  0.5444 -1.8943 -1.4470
 7824SOL     OW24370   6.803   4.160   4.850  0.5335 -0.5698  0.4793
 7824SOL    HW124371   6.810   4.126   4.944  1.4180 -0.7855  0.3494
 7824SOL    HW224372   6.858   4.102   4.790 -0.5323 -0.8155 -0.2857
 7825SOL     OW24373   2.520   0.875   1.961  0.8264 -0.1113 -0.1574
 7825SOL    HW124374   2.453   0.947   1.942  2.2192  0.9404 -1.3206
 7825SOL    HW224375   2.582   0.905   2.033 -0.4704 -1.4662  1.5995
 7826SOL     OW24376   6.898   3.700   4.385  0.2746  0.2118  0.1805
 7826SOL    HW124377   6.819   3.640   4.367  1.3525 -0.7058 -1.9322
 7826SOL    HW224378   6.866   3.787   4.423 -1.9228  0.3791 -1.8111
 7827SOL     OW24379   6.555   4.296   4.386  0.0564 -0.5437 -0.8504
 7827SOL    HW124380   6.655   4.304   4.384 -0.1021  3.3897 -3.3951
 7827SOL    HW224381   6.529   4.204   4.355  2.8935 -1.0551 -2.0877
 7828SOL     OW24382   6.315   5.960   6.315 -0.3981 -0.3178 -0.3436
 7828SOL    HW124383   6.245   5.991   6.252 -1.1722 -1.1683  0.0715
 7828SOL    HW224384   6.330   5.862   6.303 -1.5160 -0.7837  1.6505
 7829SOL     OW24385   3.331   6.278   1.447  0.0738 -0.2379  0.1230
 7829SOL    HW124386   3.416   6.331   1.459  0.0776 -0.1663 -0.2132
 7829SOL    HW224387   3.352   6.181   1.447 -0.0732 -0.3074  1.9773
 7830SOL     OW24388   3.508   4.886   6.629  0.3290 -0.2247 -0.4937
 7830SOL    HW124389   3.539   4.804   6.678 -1.2902 -0.6003 -0.0455
 7830SOL    HW224390   3.565   4.964   6.655 -0.7392 -0.2874  2.4376
 7831SOL     OW24391   1.740   1.174   6.381  0.1167  0.9347 -0.2435
 7831SOL    HW124392   1.643   1.185   6.403 -0.6909 -3.5910 -0.4455
 7831SOL    HW224393   1.792   1.154   6.464 -0.0039 -0.7500 -0.5292
 7832SOL     OW24394   6.514   6.290   3.475 -0.0397  0.0891  0.1885
 7832SOL    HW124395   6.570   6.216   3.511  0.6878  1.0070  1.0063
 7832SOL    HW224396   6.571   6.351   3.420 -0.7082 -0.1548 -0.7881
 7833SOL     OW24397   1.249   0.151   2.960  0.0541 -0.4933 -0.3389
 7833SOL    HW124398   1.192   0.136   2.879  0.7610 -0.5142 -0.8383
 7833SOL    HW224399   1.345   0.140   2.936  0.4515  1.9738 -0.0834
 7834SOL     OW24400   1.007   4.861   5.260  0.2583 -0.9351  0.1484
 7834SOL    HW124401   1.005   4.954   5.225 -0.7629 -1.7760 -2.2558
 7834SOL    HW224402   1.101   4.826   5.256  0.1869 -0.9778 -1.8448
 7835SOL     OW24403   1.960   2.457   5.486  0.1253  0.1872  0.0897
 7835SOL    HW124404   1.937   2.512   5.566 -0.2295  0.2260 -0.0335
 7835SOL    HW224405   2.045   2.407   5.502  0.7456  1.1791  0.0071
 7836SOL     OW24406   2.321   3.990   5.567 -0.6177  0.3427  0.3181
 7836SOL    HW124407   2.315   3.933   5.485 -1.4053 -0.3388  0.8231
 7836SOL    HW224408   2.346   4.083   5.542 -1.1325  0.2129 -0.7293
 7837SOL     OW24409   0.567   4.793   6.976  0.4641 -0.2846  0.2625
 7837SOL    HW124410   0.495   4.825   6.914 -0.6242 -0.0423  1.5994
 7837SOL    HW224411   0.561   4.693   6.985 -0.9592 -0.0958  1.8120
 7838SOL     OW24412   3.198   4.717   0.866 -0.6101  0.1334  0.7521
 7838SOL    HW124413   3.187   4.687   0.771  4.2055  2.3650 -0.8542
 7838SOL    HW224414   3.267   4.661   0.911 -2.3048 -0.4144  2.7827
 7839SOL     OW24415   6.748   2.922   5.266  0.5145  0.4126  0.1250
 7839SOL    HW124416   6.695   2.984   5.208 -3.1035 -1.2753  1.3239
 7839SOL    HW224417   6.835   2.900   5.220  0.2797  3.2734 -2.0374
 7840SOL     OW24418   1.397   3.150   3.530  0.3212 -0.4602  0.4975
 7840SOL    HW124419   1.409   3.065   3.582  3.9389  0.1004  0.8536
 7840SOL    HW224420   1.412   3.228   3.591 -2.7733  0.5429  0.1369
 7841SOL     OW24421   5.520   3.793   5.604  0.5492 -0.1276 -0.2141
 7841SOL    HW124422   5.468   3.735   5.541 -0.1397 -0.9287  1.0427
 7841SOL    HW224423   5.600   3.831   5.557  0.7260 -1.6777 -1.2274
 7842SOL     OW24424   2.350   1.145   0.516  0.2603  0.7850 -0.1260
 7842SOL    HW124425   2.265   1.106   0.480  0.1956 -0.2884  1.1321
 7842SOL    HW224426   2.389   1.084   0.584  1.0492  2.1579  0.7126
 7843SOL     OW24427   0.242   6.692   2.172  1.1769  0.0156  0.3118
 7843SOL    HW124428   0.259   6.619   2.106  0.4258  0.3221 -0.2221
 7843SOL    HW224429   0.203   6.771   2.126  2.1420  0.8377  0.8602
 7844SOL     OW24430   2.293   0.315   3.978 -0.1508 -0.4243 -0.2667
 7844SOL    HW124431   2.233   0.306   4.057  0.3504 -2.0581 -0.0432
 7844SOL    HW224432   2.261   0.255   3.904 -1.3177  1.9516 -1.8151
 7845SOL     OW24433   6.331   4.486   1.055  0.3589 -0.7720  0.0012
 7845SOL    HW124434   6.247   4.498   1.001  1.0333  0.9775 -0.7342
 7845SOL    HW224435   6.396   4.431   1.003 -0.0567 -1.5310  0.2726
 7846SOL     OW24436   1.687   1.678   6.788 -0.0972 -0.2590 -0.4861
 7846SOL    HW124437   1.665   1.775   6.801  1.0185 -0.1976  1.3028
 7846SOL    HW224438   1.603   1.627   6.768 -0.5633  1.1935 -2.5224
 7847SOL     OW24439   5.390   3.608   6.491 -0.1719 -0.1731  0.5119
 7847SOL    HW124440   5.302   3.590   6.536 -0.6559 -1.7009 -0.9332
 7847SOL    HW224441   5.406   3.539   6.421  1.2518  1.2314 -0.6291
 7848SOL     OW24442   5.003   3.908   0.962 -0.2750 -0.1032  0.0251
 7848SOL    HW124443   5.016   3.823   1.013  0.1048 -0.6533 -0.9633
 7848SOL    HW224444   4.915   3.949   0.988  1.0197  1.0450  3.0518
 7849SOL     OW24445   5.382   5.998   0.676  0.3349  0.0656  0.2657
 7849SOL    HW124446   5.381   6.051   0.760  2.2681 -0.6727  0.8017
 7849SOL    HW224447   5.469   6.013   0.628 -0.5492  0.1391 -1.3987
 7850SOL     OW24448   6.618   2.280   4.083 -0.0696 -0.3563 -0.4173
 7850SOL    HW124449   6.541   2.318   4.032  0.5304  0.6039 -0.6241
 7850SOL    HW224450   6.668   2.216   4.025 -1.1701 -1.6309 -0.0189
 7851SOL     OW24451   2.118   4.443   6.651  0.7860  0.4553  0.0233
 7851SOL    HW124452   2.175   4.451   6.733  0.3517  1.3059  0.2593
 7851SOL    HW224453   2.170   4.473   6.571  1.3890 -0.8787 -0.1158
 7852SOL     OW24454   0.152   2.302   5.020 -0.2217  0.0757  0.6724
 7852SOL    HW124455   0.154   2.209   5.058  1.3492 -0.3863 -0.4392
 7852SOL    HW224456   0.237   2.319   4.969 -1.2487  1.4976 -0.6471
 7853SOL     OW24457   4.088   4.133   1.402 -0.2665  0.6711  0.1077
 7853SOL    HW124458   4.061   4.037   1.398  3.0898 -0.3208 -2.0978
 7853SOL    HW224459   4.140   4.150   1.486 -0.4072  0.4723  0.2368
 7854SOL     OW24460   3.595   0.797   1.609  0.1898 -0.0036  0.2031
 7854SOL    HW124461   3.571   0.891   1.584 -2.3733 -0.3567  1.0103
 7854SOL    HW224462   3.664   0.762   1.545 -1.5555  1.1737 -2.5145
 7855SOL     OW24463   5.373   6.054   4.836 -0.4346 -0.1749 -0.1298
 7855SOL    HW124464   5.326   6.009   4.759 -0.8845 -2.8400  1.5501
 7855SOL    HW224465   5.464   6.014   4.846 -0.7606 -0.6041  1.2806
 7856SOL     OW24466   1.546   6.756   6.679 -0.2262 -0.6588 -0.2658
 7856SOL    HW124467   1.642   6.731   6.667 -0.7087 -2.4016 -0.8736
 7856SOL    HW224468   1.537   6.820   6.754  1.6129  1.0195 -1.3773
 7857SOL     OW24469   6.766   5.693   1.501  0.4737  0.5634 -0.4170
 7857SOL    HW124470   6.758   5.637   1.584  2.5682  0.7310 -0.0467
 7857SOL    HW224471   6.786   5.633   1.423 -1.9803  0.3507 -0.9612
 7858SOL     OW24472   6.551   4.439   0.611  0.1219  0.0519 -0.4011
 7858SOL    HW124473   6.613   4.493   0.668  0.1239 -0.9245  0.5613
 7858SOL    HW224474   6.540   4.483   0.523  0.3926  1.4311  0.2316
 7859SOL     OW24475   4.549   2.356   1.090  0.4144  0.2423  0.4711
 7859SOL    HW124476   4.524   2.336   0.995  0.1443  0.3029  0.5279
 7859SOL    HW224477   4.553   2.270   1.142  4.7737 -0.3929 -0.5377
 7860SOL     OW24478   3.104   0.897   2.965  0.0797  0.2031  0.5885
 7860SOL    HW124479   3.136   0.970   3.025  0.2123  0.5233  0.1334
 7860SOL    HW224480   3.175   0.827   2.955 -0.0575 -0.0091  1.0450
 7861SOL     OW24481   0.994   6.023   5.681 -0.1405  0.0053  0.0895
 7861SOL    HW124482   1.060   5.952   5.704 -0.3824  0.7287  3.6635
 7861SOL    HW224483   0.914   5.983   5.638  0.9755 -1.4241 -0.7128
 7862SOL     OW24484   6.883   6.260   1.771 -0.4202  0.2772 -0.2955
 7862SOL    HW124485   6.858   6.293   1.862 -1.1413 -1.6986  0.2614
 7862SOL    HW224486   6.937   6.330   1.724 -1.0967  1.8377  1.1542
 7863SOL     OW24487   1.429   5.148   2.964  0.1988 -0.3614 -0.2060
 7863SOL    HW124488   1.514   5.127   2.915 -0.0693  0.5237 -1.0919
 7863SOL    HW224489   1.372   5.066   2.970  1.3666 -1.1271  0.9503
 7864SOL     OW24490   3.414   5.601   6.241  0.0281  0.2383  0.5981
 7864SOL    HW124491   3.452   5.542   6.313  0.1094  1.9687  2.0446
 7864SOL    HW224492   3.482   5.613   6.168 -0.0026 -1.4248  0.2502
 7865SOL     OW24493   4.727   4.788   3.319  0.9338  0.3240 -0.0547
 7865SOL    HW124494   4.700   4.818   3.410  0.6577 -0.1634  0.0265
 7865SOL    HW224495   4.722   4.866   3.255 -1.0202  0.2048 -0.1283
 7866SOL     OW24496   6.853   1.112   3.835 -0.6009  0.8802  0.7327
 7866SOL    HW124497   6.878   1.152   3.747 -0.8514  2.2329  1.2369
 7866SOL    HW224498   6.918   1.142   3.905 -0.0348 -0.6911  0.9173
 7867SOL     OW24499   4.700   4.452   2.888  0.4163 -0.2013 -0.3247
 7867SOL    HW124500   4.638   4.448   2.966  0.8220 -1.4370 -0.0344
 7867SOL    HW224501   4.647   4.461   2.804 -0.1525 -0.8173 -0.0466
 7868SOL     OW24502   3.085   0.304   1.804  0.0906  0.9664  0.2405
 7868SOL    HW124503   3.163   0.366   1.808  1.7697 -1.0931  0.8181
 7868SOL    HW224504   3.106   0.226   1.746 -0.7923 -0.5869  1.9032
 7869SOL     OW24505   0.240   4.592   6.488 -0.4624  0.4255  0.5036
 7869SOL    HW124506   0.217   4.670   6.545 -1.0452  1.0848 -0.5997
 7869SOL    HW224507   0.170   4.580   6.417 -1.2872 -2.1058  1.6251
 7870SOL     OW24508   0.559   0.403   5.610 -0.0472  0.0089  0.1388
 7870SOL    HW124509   0.650   0.410   5.570  0.4124  1.2887  1.3402
 7870SOL    HW224510   0.519   0.314   5.587  1.9811 -1.0716  0.5549
 7871SOL     OW24511   5.231   6.837   0.686 -0.8473  0.2806 -0.3358
 7871SOL    HW124512   5.292   6.765   0.653 -1.8028 -0.9794  0.5443
 7871SOL    HW224513   5.262   6.869   0.776 -1.2134 -0.0480 -0.0883
 7872SOL     OW24514   0.793   5.564   2.883  0.0361 -0.6026 -0.8259
 7872SOL    HW124515   0.697   5.590   2.898  0.4787  0.2771  0.7033
 7872SOL    HW224516   0.805   5.533   2.789 -1.6284 -0.2040 -1.2020
 7873SOL     OW24517   6.110   2.720   0.596 -0.1492 -0.7513 -0.2373
 7873SOL    HW124518   6.161   2.736   0.681 -0.9529 -0.0261  0.1151
 7873SOL    HW224519   6.081   2.624   0.593  0.4320 -0.9398  0.0015
 7874SOL     OW24520   5.756   1.747   6.431 -0.2271  0.1040 -0.6978
 7874SOL    HW124521   5.673   1.693   6.416  1.5002 -3.1654  0.5961
 7874SOL    HW224522   5.777   1.799   6.348 -1.8131 -1.5289 -2.2233
 7875SOL     OW24523   0.623   6.776   1.043 -0.0703 -0.9091  0.0700
 7875SOL    HW124524   0.637   6.770   1.142  0.8720 -1.0408 -0.0624
 7875SOL    HW224525   0.577   6.694   1.010 -2.6744  0.1679  0.7380
 7876SOL     OW24526   0.053   0.225   2.197 -0.6340  0.5503  0.1412
 7876SOL    HW124527   0.067   0.155   2.127 -2.0608  0.3118  0.0737
 7876SOL    HW224528   0.142   0.258   2.229  0.0527 -0.6863 -0.4225
 7877SOL     OW24529   0.366   4.517   1.965  0.0187  0.1939  0.7358
 7877SOL    HW124530   0.319   4.430   1.950 -1.2495  0.9480  0.1879
 7877SOL    HW224531   0.369   4.538   2.062  2.8115 -1.7530  1.2125
 7878SOL     OW24532   3.461   2.206   1.178  0.1621 -0.0110  0.0621
 7878SOL    HW124533   3.523   2.202   1.100 -0.5144  0.8990 -0.5393
 7878SOL    HW224534   3.453   2.300   1.210 -1.2003 -0.0481 -0.1153
 7879SOL     OW24535   2.966   5.576   3.192  0.6139 -0.8349  0.0346
 7879SOL    HW124536   2.898   5.621   3.133 -0.6159 -0.2497  1.8138
 7879SOL    HW224537   2.983   5.484   3.158  0.4266 -0.3199 -1.5809
 7880SOL     OW24538   0.489   3.700   1.369 -0.1706  0.7981  0.0062
 7880SOL    HW124539   0.520   3.645   1.446  0.2868  0.2689 -0.5456
 7880SOL    HW224540   0.531   3.791   1.374  1.1830  0.2294 -0.4986
 7881SOL     OW24541   5.593   2.421   1.735  0.1273  0.1736  0.2136
 7881SOL    HW124542   5.636   2.511   1.738  2.6942 -0.9418 -0.7043
 7881SOL    HW224543   5.644   2.358   1.792 -1.1072 -0.9434  0.1356
 7882SOL     OW24544   1.668   3.017   1.117  0.0096 -0.3280 -0.0163
 7882SOL    HW124545   1.754   3.040   1.070  0.4112  0.8459  1.1859
 7882SOL    HW224546   1.689   2.973   1.204 -0.6825 -1.6610 -0.5113
 7883SOL     OW24547   6.206   6.798   3.504 -0.1203  0.0790 -0.1650
 7883SOL    HW124548   6.281   6.809   3.439 -1.4305  0.5259 -1.6546
 7883SOL    HW224549   6.144   6.726   3.472 -0.3093 -0.3345  1.0762
 7884SOL     OW24550   0.632   2.467   4.711 -0.3574 -0.1563 -0.1852
 7884SOL    HW124551   0.617   2.444   4.615 -2.8264  0.7468 -0.0770
 7884SOL    HW224552   0.601   2.392   4.768  0.5450 -0.4367 -0.0409
 7885SOL     OW24553   1.232   6.265   6.020 -0.2104  0.6051  0.6166
 7885SOL    HW124554   1.169   6.271   5.942  0.6685 -0.8578 -0.2635
 7885SOL    HW224555   1.303   6.197   6.000  1.0561  1.4548  1.9952
 7886SOL     OW24556   5.098   4.528   0.436 -0.0613 -0.1023 -0.0545
 7886SOL    HW124557   5.128   4.459   0.370  1.4800 -1.1198  1.5885
 7886SOL    HW224558   5.171   4.594   0.451 -1.1112  1.2701 -0.7518
 7887SOL     OW24559   6.138   0.520   6.940 -0.0685 -0.1251  0.0625
 7887SOL    HW124560   6.129   0.509   7.039 -1.2989 -0.7182 -0.0956
 7887SOL    HW224561   6.080   0.596   6.910 -1.1844 -1.1383 -0.4235
 7888SOL     OW24562   5.362   5.520   6.285  0.2266  0.5273  0.0149
 7888SOL    HW124563   5.387   5.592   6.350  1.7621  0.2771 -0.2812
 7888SOL    HW224564   5.424   5.443   6.293 -1.5073 -0.8869  0.4444
 7889SOL     OW24565   5.072   4.915   3.413 -0.0403  0.6469  0.4235
 7889SOL    HW124566   5.036   4.899   3.321  0.5663  1.3902  0.0608
 7889SOL    HW224567   5.003   4.963   3.467  0.0958  1.3942 -0.0481
 7890SOL     OW24568   2.160   2.386   1.892 -0.6112  0.2995 -0.4728
 7890SOL    HW124569   2.223   2.456   1.926  1.1504 -0.7484 -1.4095
 7890SOL    HW224570   2.134   2.406   1.798 -1.1269  0.3507 -0.3246
 7891SOL     OW24571   5.796   4.545   2.535 -0.0756  0.2229  0.4111
 7891SOL    HW124572   5.835   4.611   2.471 -2.2300 -0.7966 -2.1400
 7891SOL    HW224573   5.867   4.482   2.565  1.0372  0.7948 -0.9087
 7892SOL     OW24574   2.014   3.409   5.604  0.0476 -0.3572  0.5159
 7892SOL    HW124575   1.929   3.364   5.579 -0.0539  0.1549 -0.0669
 7892SOL    HW224576   2.010   3.506   5.578  0.4458 -0.1141  1.3289
 7893SOL     OW24577   5.070   5.546   1.822 -0.4021 -0.1643 -0.0378
 7893SOL    HW124578   5.111   5.460   1.854 -1.5284 -0.8543 -0.3871
 7893SOL    HW224579   5.101   5.565   1.729  0.4910  0.2491  0.3333
 7894SOL     OW24580   1.137   2.450   2.172  0.3296 -0.1232  0.2610
 7894SOL    HW124581   1.227   2.405   2.174  0.7703  0.7129 -0.2119
 7894SOL    HW224582   1.115   2.475   2.078 -0.8216 -1.1354  0.2442
 7895SOL     OW24583   1.208   1.946   4.631  0.6667 -0.3961  0.6398
 7895SOL    HW124584   1.276   1.883   4.594  0.7013  0.7356 -1.3667
 7895SOL    HW224585   1.248   2.038   4.639 -0.1524 -0.0546  0.9521
 7896SOL     OW24586   4.438   1.678   1.090 -0.0922 -0.4860 -0.5179
 7896SOL    HW124587   4.389   1.654   1.173  1.7435  0.9608  1.0680
 7896SOL    HW224588   4.385   1.745   1.038 -1.6219 -2.0015 -0.9926
 7897SOL     OW24589   2.633   4.299   0.148  0.0166 -0.3142  0.3437
 7897SOL    HW124590   2.702   4.230   0.168 -0.0752 -1.2209 -2.1518
 7897SOL    HW224591   2.613   4.299   0.050 -3.6063 -0.1432  0.9638
 7898SOL     OW24592   5.368   1.208   4.730 -0.2829 -0.0095 -0.5704
 7898SOL    HW124593   5.382   1.136   4.662 -0.5064 -0.0492 -0.5759
 7898SOL    HW224594   5.421   1.187   4.812  1.6121  1.0745 -1.4719
 7899SOL     OW24595   2.525   0.086   2.142 -0.3560  0.4356 -0.1790
 7899SOL    HW124596   2.457   0.129   2.081  0.1738  3.4124  1.1272
 7899SOL    HW224597   2.501   0.106   2.237  0.6732 -1.2023  0.4647
 7900SOL     OW24598   6.361   6.830   1.416  0.0575 -0.3411 -0.3993
 7900SOL    HW124599   6.266   6.859   1.428  0.8591  2.4371  0.0500
 7900SOL    HW224600   6.380   6.817   1.318 -0.7376 -0.8620 -0.4941
 7901SOL     OW24601   5.690   2.942   1.056  0.5604 -0.0526  0.4895
 7901SOL    HW124602   5.640   2.857   1.040  0.5611 -0.1266  0.8616
 7901SOL    HW224603   5.635   3.019   1.024  1.8302 -0.3591 -2.7443
 7902SOL     OW24604   6.199   4.783   6.254  0.1982  0.1366  0.6987
 7902SOL    HW124605   6.127   4.836   6.301  0.6675 -1.1183  2.9750
 7902SOL    HW224606   6.212   4.696   6.302  1.7341 -0.6061 -0.9932
 7903SOL     OW24607   1.335   3.286   1.663 -0.4070 -0.7136  0.1295
 7903SOL    HW124608   1.241   3.312   1.642 -0.8164 -0.5583  1.9967
 7903SOL    HW224609   1.342   3.260   1.759  2.0663  2.4809  1.0140
 7904SOL     OW24610   5.585   0.475   3.617  0.3743  0.5201 -0.0645
 7904SOL    HW124611   5.533   0.391   3.625 -1.8928  1.8768  0.4079
 7904SOL    HW224612   5.674   0.456   3.574  0.5313 -2.2709  1.2706
 7905SOL     OW24613   1.920   2.357   0.346 -0.0351 -0.5263  0.8836
 7905SOL    HW124614   1.982   2.397   0.414  1.1628 -2.3310  0.9245
 7905SOL    HW224615   1.899   2.263   0.372 -2.0862 -0.2624  0.3570
 7906SOL     OW24616   2.357   3.599   0.387 -0.1939 -0.4511  0.5128
 7906SOL    HW124617   2.413   3.554   0.456  1.0975  0.0003 -0.2210
 7906SOL    HW224618   2.337   3.693   0.415  0.0738 -0.3665  0.4245
 7907SOL     OW24619   1.059   2.777   3.191 -0.1569 -0.0942  0.4798
 7907SOL    HW124620   1.127   2.715   3.230  1.6704  1.1354 -0.6109
 7907SOL    HW224621   0.992   2.802   3.261  1.2082 -0.3846  1.9402
 7908SOL     OW24622   0.739   0.036   4.431 -0.3490 -0.7446  0.9218
 7908SOL    HW124623   0.720   0.060   4.527 -1.0774 -1.4793  0.9677
 7908SOL    HW224624   0.791  -0.049   4.428  0.3306 -0.3227  0.6850
 7909SOL     OW24625   4.466   4.080   6.495  0.2591  0.0033 -0.2127
 7909SOL    HW124626   4.509   4.161   6.453  1.5958  0.2028  1.3998
 7909SOL    HW224627   4.518   4.055   6.577 -0.3664 -2.2798 -0.4627
 7910SOL     OW24628   6.329   2.644   6.585 -0.4791 -0.5888  0.0334
 7910SOL    HW124629   6.307   2.726   6.639  2.4581  0.4372 -0.1149
 7910SOL    HW224630   6.346   2.568   6.648  0.0556 -0.1639  0.4264
 7911SOL     OW24631   0.197   3.336   5.311 -0.1776 -0.3789 -0.4162
 7911SOL    HW124632   0.165   3.242   5.317 -0.5496 -0.1969  0.5550
 7911SOL    HW224633   0.141   3.386   5.245 -0.2991 -0.7055 -0.5635
 7912SOL     OW24634   6.341   5.230   4.321 -0.4068 -0.0295 -0.2599
 7912SOL    HW124635   6.396   5.180   4.389 -2.5772 -4.0988 -1.1792
 7912SOL    HW224636   6.250   5.246   4.357 -0.7362  0.3028 -1.2151
 7913SOL     OW24637   2.394   0.423   0.280  0.2329 -0.1767  0.2384
 7913SOL    HW124638   2.401   0.331   0.242 -2.6855 -0.6462  0.6342
 7913SOL    HW224639   2.409   0.490   0.208  1.1383 -0.9534 -0.3173
 7914SOL     OW24640   5.223   5.419   1.388 -0.1443 -0.1792 -0.5912
 7914SOL    HW124641   5.267   5.447   1.302  0.3493 -1.6317 -0.8284
 7914SOL    HW224642   5.286   5.365   1.443 -0.2725  1.1714  0.9688
 7915SOL     OW24643   3.332   2.011   1.336 -0.0359 -0.2648 -0.0756
 7915SOL    HW124644   3.330   2.097   1.284 -0.3307  0.7922  1.6223
 7915SOL    HW224645   3.406   2.014   1.403 -0.2066 -1.2617  0.1777
 7916SOL     OW24646   3.271   3.736   5.316 -0.6371 -0.2684  0.3060
 7916SOL    HW124647   3.243   3.789   5.236  1.1487 -0.3792 -0.4397
 7916SOL    HW224648   3.293   3.642   5.289  0.0565 -0.2926  0.9020
 7917SOL     OW24649   3.723   3.920   4.040  0.2270  0.2385  0.4264
 7917SOL    HW124650   3.648   3.853   4.041  1.6895 -1.5157 -0.5088
 7917SOL    HW224651   3.708   3.985   3.966 -0.6208  0.2184  0.5681
 7918SOL     OW24652   0.763   2.476   2.005  0.4982  0.2940 -0.0186
 7918SOL    HW124653   0.776   2.521   1.917 -1.4919 -0.2122 -0.6185
 7918SOL    HW224654   0.702   2.397   1.994  0.9506 -0.3424  1.6517
 7919SOL     OW24655   5.625   2.912   1.366 -0.0177 -0.8354  0.1459
 7919SOL    HW124656   5.562   2.990   1.360 -0.2699 -1.0138  0.4917
 7919SOL    HW224657   5.684   2.912   1.285 -0.3996 -0.6157 -0.1386
 7920SOL     OW24658   6.898   0.482   1.465 -0.3695  0.2327 -0.4910
 7920SOL    HW124659   6.951   0.469   1.381 -0.5676 -0.0727 -0.5719
 7920SOL    HW224660   6.894   0.579   1.488  0.3564  0.2452 -0.3988
 7921SOL     OW24661   3.770   5.627   3.479  0.5226 -0.4129 -0.5903
 7921SOL    HW124662   3.816   5.566   3.544 -1.2994 -1.4080 -0.1828
 7921SOL    HW224663   3.688   5.665   3.520 -0.1747 -0.3341 -1.9912
 7922SOL     OW24664   2.118   3.300   2.750  0.7660  0.1198 -0.1482
 7922SOL    HW124665   2.041   3.298   2.687 -1.2776  1.4362  2.1560
 7922SOL    HW224666   2.175   3.219   2.735 -0.4382 -0.3706 -2.6029
 7923SOL     OW24667   1.759   4.503   1.830 -0.3747  0.0811  0.0085
 7923SOL    HW124668   1.845   4.535   1.870  0.2728 -1.1874 -0.2854
 7923SOL    HW224669   1.688   4.572   1.842  0.9332  1.6102 -0.6470
 7924SOL     OW24670   2.585   0.669   1.285 -0.8693 -0.7707 -0.0598
 7924SOL    HW124671   2.610   0.649   1.380 -3.0017 -0.4626  0.6080
 7924SOL    HW224672   2.668   0.691   1.233  0.2297  0.2083  1.9943
 7925SOL     OW24673   0.402   1.870   5.204  0.9023  0.4321 -0.0791
 7925SOL    HW124674   0.334   1.815   5.253 -0.3347  1.6910 -0.2961
 7925SOL    HW224675   0.484   1.879   5.259 -0.2194  1.2930  1.5338
 7926SOL     OW24676   1.779   1.710   2.579  0.1333  0.0992 -0.5480
 7926SOL    HW124677   1.876   1.699   2.554  0.3691 -2.0840  1.0268
 7926SOL    HW224678   1.727   1.633   2.544 -0.0131 -1.5726  2.9057
 7927SOL     OW24679   5.019   5.323   4.795 -0.0188 -0.0386 -0.3751
 7927SOL    HW124680   4.971   5.259   4.856 -1.2716  2.0515  0.9563
 7927SOL    HW224681   4.955   5.358   4.727  0.9670 -1.0701 -1.8907
 7928SOL     OW24682   0.570   3.673   1.628  0.2798 -0.0284  0.1715
 7928SOL    HW124683   0.653   3.626   1.658 -0.4032 -1.2345  0.2221
 7928SOL    HW224684   0.490   3.620   1.655 -0.4621  0.3461 -1.2102
 7929SOL     OW24685   4.706   5.886   6.733 -0.2349 -0.2259 -0.6110
 7929SOL    HW124686   4.757   5.870   6.818  2.0940 -0.4649 -1.9515
 7929SOL    HW224687   4.653   5.805   6.710 -0.8100 -0.1943  0.5504
 7930SOL     OW24688   4.641   2.239   3.654  0.1962 -0.2510 -0.4752
 7930SOL    HW124689   4.617   2.274   3.744  2.1922 -0.7648  0.2984
 7930SOL    HW224690   4.727   2.188   3.659  1.3455  1.2343 -2.9915
 7931SOL     OW24691   2.220   4.146   6.018 -0.0279  0.0454 -0.7851
 7931SOL    HW124692   2.208   4.051   6.046  1.2263  0.4830  1.5303
 7931SOL    HW224693   2.270   4.150   5.932 -0.9201 -1.3782 -1.3981
 7932SOL     OW24694   4.177   0.164   1.224  0.1455  0.1836  0.0334
 7932SOL    HW124695   4.172   0.228   1.301  1.0848  0.6170 -0.2587
 7932SOL    HW224696   4.129   0.079   1.249  1.9865 -0.4206  1.8368
 7933SOL     OW24697   0.732   2.538   5.446  0.2691 -0.4743 -0.5426
 7933SOL    HW124698   0.694   2.626   5.474  0.3155 -0.3693 -0.8002
 7933SOL    HW224699   0.691   2.465   5.500 -0.0883 -0.3343 -0.6205
 7934SOL     OW24700   5.029   1.705   5.627  0.0493 -0.1204 -0.4443
 7934SOL    HW124701   4.985   1.643   5.562  1.0074 -1.0129 -0.2702
 7934SOL    HW224702   4.958   1.754   5.679 -0.7276  0.6811 -2.1881
 7935SOL     OW24703   3.003   4.919   2.407  0.7178  0.1202 -0.4677
 7935SOL    HW124704   3.025   4.957   2.317 -0.4792  2.0212 -0.0399
 7935SOL    HW224705   2.963   4.828   2.396  1.3427 -0.0165 -1.7899
 7936SOL     OW24706   3.876   6.981   3.234 -0.2358 -0.2496  0.3380
 7936SOL    HW124707   3.812   6.958   3.160 -0.9979 -1.9805  1.4678
 7936SOL    HW224708   3.925   6.899   3.262  0.7354  0.5789  1.1383
 7937SOL     OW24709   5.352   0.032   2.002 -0.0291 -0.1359 -0.3192
 7937SOL    HW124710   5.296   0.044   1.921 -0.8174  1.8212  0.4501
 7937SOL    HW224711   5.400   0.118   2.023  2.3694 -1.3827 -0.2694
 7938SOL     OW24712   6.533   3.686   3.350  0.3954 -0.0120 -0.7732
 7938SOL    HW124713   6.534   3.725   3.258  0.9991 -0.3891 -0.9371
 7938SOL    HW224714   6.627   3.674   3.382  0.1949 -0.1718 -0.2296
 7939SOL     OW24715   5.819   4.307   3.183 -0.4199 -0.2657  0.5125
 7939SOL    HW124716   5.747   4.375   3.196 -1.1277 -0.6291 -1.2203
 7939SOL    HW224717   5.908   4.352   3.179 -0.8809  0.5808 -0.5959
 7940SOL     OW24718   1.949   4.828   0.721 -0.1851  0.1163  0.0416
 7940SOL    HW124719   2.033   4.782   0.748 -1.1814 -0.1242  3.2608
 7940SOL    HW224720   1.953   4.924   0.748 -0.5452  0.3588 -0.7499
 7941SOL     OW24721   1.337   1.240   1.971 -0.8040  0.2757  0.4984
 7941SOL    HW124722   1.357   1.164   2.031  1.4026  0.5316  0.1844
 7941SOL    HW224723   1.362   1.326   2.016  0.0396  0.5289 -0.4090
 7942SOL     OW24724   0.784   6.005   1.670 -0.1279 -0.0978  0.3049
 7942SOL    HW124725   0.879   6.006   1.636 -0.4865  2.1654 -0.8097
 7942SOL    HW224726   0.783   6.037   1.765  0.1428  1.0813 -0.0678
 7943SOL     OW24727   5.331   1.951   5.764  0.8755 -0.6431  0.2835
 7943SOL    HW124728   5.238   1.966   5.797  0.6079 -0.8364 -0.3586
 7943SOL    HW224729   5.393   2.018   5.805  0.5794 -0.9530  1.2504
 7944SOL     OW24730   7.000   2.467   1.159  0.1523  0.0679 -0.2230
 7944SOL    HW124731   7.069   2.520   1.109  2.0380 -0.1273  1.9856
 7944SOL    HW224732   7.006   2.489   1.257 -2.2228 -0.7932  0.1760
 7945SOL     OW24733   5.899   5.060   0.352  0.1490 -0.2434 -0.2642
 7945SOL    HW124734   5.822   5.006   0.318 -0.5202  0.7528 -0.3683
 7945SOL    HW224735   5.929   5.124   0.281 -0.2932  0.8124  0.4781
 7946SOL     OW24736   2.056   6.297   5.804 -0.1111 -1.1243 -0.3876
 7946SOL    HW124737   2.001   6.218   5.830 -0.4172 -1.6161 -2.3584
 7946SOL    HW224738   2.018   6.380   5.846 -0.3702 -1.8785  0.9041
 7947SOL     OW24739   2.830   5.555   0.086  0.0698 -0.1914 -0.4200
 7947SOL    HW124740   2.736   5.579   0.110  0.4302  1.5257 -0.5698
 7947SOL    HW224741   2.832   5.463   0.048 -1.1812 -1.2045  1.7693
 7948SOL     OW24742   6.836   3.303   3.566 -0.2504 -0.1714 -0.0411
 7948SOL    HW124743   6.816   3.258   3.479  1.7448 -1.3004  0.0388
 7948SOL    HW224744   6.793   3.252   3.640 -0.1948 -0.4340 -0.1875
 7949SOL     OW24745   1.928   2.518   3.252 -0.4235 -0.0636 -0.0577
 7949SOL    HW124746   1.936   2.474   3.342 -2.1283 -0.1437  0.0738
 7949SOL    HW224747   1.917   2.617   3.265  0.5213  0.0731 -0.2404
 7950SOL     OW24748   2.271   6.559   2.946  0.1125  0.1687 -0.0784
 7950SOL    HW124749   2.266   6.648   2.992 -0.0704  0.5887 -0.9033
 7950SOL    HW224750   2.185   6.542   2.898  0.3138 -0.2656 -0.2870
 7951SOL     OW24751   3.008   2.873   0.898  0.3848  0.7761  0.1240
 7951SOL    HW124752   2.914   2.894   0.870  0.8005  0.7499 -1.3734
 7951SOL    HW224753   3.006   2.816   0.980 -1.0482 -2.1260 -1.7453
 7952SOL     OW24754   6.140   2.110   2.016  0.3614  0.0123 -0.1782
 7952SOL    HW124755   6.119   2.055   1.935  0.7004 -0.9454  0.3704
 7952SOL    HW224756   6.232   2.086   2.049 -0.2983 -0.5893  1.2827
 7953SOL     OW24757   1.897   2.714   0.949  0.2097 -0.5823  0.0440
 7953SOL    HW124758   1.919   2.627   0.994 -2.4500 -0.7703  1.2296
 7953SOL    HW224759   1.812   2.703   0.896 -0.7211  1.4785  0.9884
 7954SOL     OW24760   5.198   3.846   2.253 -0.4454  0.5217  0.1780
 7954SOL    HW124761   5.200   3.930   2.198  1.4341  1.8875  2.1956
 7954SOL    HW224762   5.234   3.770   2.199 -1.0526  1.2262 -1.2916
 7955SOL     OW24763   4.933   0.531   4.668 -0.5120  0.6011 -0.1473
 7955SOL    HW124764   4.854   0.505   4.724 -1.9198 -0.6221 -2.5157
 7955SOL    HW224765   4.928   0.482   4.581  1.9114  1.9248 -1.0964
 7956SOL     OW24766   4.146   5.096   4.121 -0.5792  0.4605  0.1924
 7956SOL    HW124767   4.209   5.080   4.045  0.5955 -0.7562  1.3468
 7956SOL    HW224768   4.179   5.172   4.176 -0.6430  0.4266  0.2777
 7957SOL     OW24769   1.155   2.670   1.949 -0.2886 -0.3571 -0.5604
 7957SOL    HW124770   1.235   2.611   1.949 -1.6165 -2.2924 -2.4328
 7957SOL    HW224771   1.170   2.747   2.011  0.8548 -3.5449  3.5833
 7958SOL     OW24772   1.548   6.795   3.870  0.0853 -0.0399  0.0945
 7958SOL    HW124773   1.489   6.787   3.790  1.0271 -1.6333 -0.4865
 7958SOL    HW224774   1.507   6.746   3.946 -0.6921  1.2741  0.5632
 7959SOL     OW24775   5.985   3.512   0.657  0.2743  0.5996  0.3633
 7959SOL    HW124776   5.996   3.413   0.673 -2.4365  0.1626  0.0184
 7959SOL    HW224777   6.008   3.562   0.741 -1.7622 -0.6553  1.7512
 7960SOL     OW24778   1.688   0.997   6.965  0.2980  0.4317 -0.1390
 7960SOL    HW124779   1.782   1.031   6.958 -0.0251  1.3532 -0.0992
 7960SOL    HW224780   1.646   1.000   6.874 -0.1096  1.2543  0.0740
 7961SOL     OW24781   4.288   4.482   1.222 -0.3352 -0.4064 -0.0744
 7961SOL    HW124782   4.331   4.558   1.172  3.0174 -1.1584  1.3997
 7961SOL    HW224783   4.239   4.518   1.301  0.2401  0.3133 -0.0334
 7962SOL     OW24784   2.263   0.637   2.633  0.2881  0.3256 -0.0087
 7962SOL    HW124785   2.344   0.694   2.648  0.9919 -0.3356 -1.0910
 7962SOL    HW224786   2.263   0.604   2.539 -1.3009  0.3645 -0.0473
 7963SOL     OW24787   0.223   6.768   6.572 -0.3781  0.0857 -0.1323
 7963SOL    HW124788   0.174   6.851   6.596 -0.4801 -0.1246  0.3825
 7963SOL    HW224789   0.321   6.787   6.567 -0.1191 -0.2662  2.3383
 7964SOL     OW24790   5.636   4.624   3.496  0.0183  0.0871  0.0653
 7964SOL    HW124791   5.617   4.678   3.578 -0.2596 -1.1810  0.8597
 7964SOL    HW224792   5.686   4.680   3.430 -1.3002  1.6841  0.3619
 7965SOL     OW24793   3.590   3.276   1.312 -0.0727 -0.3141 -0.0927
 7965SOL    HW124794   3.531   3.269   1.231 -2.7673  0.7304  1.6475
 7965SOL    HW224795   3.616   3.371   1.327  1.1920 -0.6170 -0.1727
 7966SOL     OW24796   6.863   1.841   4.929 -0.4564  0.1122  0.0781
 7966SOL    HW124797   6.927   1.782   4.977 -1.2350  0.3445  1.4503
 7966SOL    HW224798   6.784   1.788   4.900 -2.4897  0.7994  3.7142
 7967SOL     OW24799   3.153   0.921   5.238 -0.2770 -0.0162 -0.3221
 7967SOL    HW124800   3.114   0.977   5.311 -0.4521  0.2081 -0.5862
 7967SOL    HW224801   3.160   0.975   5.155 -2.8170 -1.0665 -1.3138
 7968SOL     OW24802   1.771   0.526   4.312  0.4405 -0.4353  0.1610
 7968SOL    HW124803   1.727   0.603   4.358 -1.1992  0.0344 -2.0001
 7968SOL    HW224804   1.870   0.530   4.328  0.0801  0.2897  2.6307
 7969SOL     OW24805   4.482   1.512   3.648  0.0643  0.4074  0.4027
 7969SOL    HW124806   4.428   1.595   3.662  1.0168  0.9988  0.6404
 7969SOL    HW224807   4.564   1.534   3.596 -0.2514 -0.6143 -0.5638
 7970SOL     OW24808   0.371   5.487   1.151  0.5837  0.2267 -0.7403
 7970SOL    HW124809   0.275   5.459   1.149  1.0034 -1.2203 -2.5635
 7970SOL    HW224810   0.391   5.546   1.073  1.7576 -1.6234 -1.8922
 7971SOL     OW24811   3.214   2.154   2.712 -0.4737  0.0954  0.3505
 7971SOL    HW124812   3.237   2.175   2.617  0.4464 -3.1725 -0.2881
 7971SOL    HW224813   3.296   2.163   2.768 -0.4963 -0.0689  0.4096
 7972SOL     OW24814   4.391   4.468   1.704  0.4588 -0.1370  0.0673
 7972SOL    HW124815   4.453   4.439   1.631  2.1867  0.7212  1.1194
 7972SOL    HW224816   4.354   4.387   1.750 -0.6923 -0.6897 -1.7206
 7973SOL     OW24817   0.229   2.939   4.180  0.7218 -0.1889 -0.3518
 7973SOL    HW124818   0.159   3.011   4.182 -0.2440 -1.0955 -0.6778
 7973SOL    HW224819   0.244   2.904   4.272  1.4506  0.6439 -0.1344
 7974SOL     OW24820   3.245   0.901   4.794 -0.4924 -0.0280  0.3469
 7974SOL    HW124821   3.261   0.803   4.807 -0.8422 -0.2469 -0.7180
 7974SOL    HW224822   3.165   0.913   4.735  1.1013  0.8304 -1.7606
 7975SOL     OW24823   2.509   2.074   2.584 -0.1595  1.0123  0.0668
 7975SOL    HW124824   2.472   2.145   2.524  1.5815  2.1155  0.2189
 7975SOL    HW224825   2.535   1.994   2.531 -0.4776  1.1905 -0.3598
 7976SOL     OW24826   5.781   0.019   6.946 -0.2777 -0.1693 -0.1361
 7976SOL    HW124827   5.781   0.027   6.846  0.2172 -0.1658 -0.1377
 7976SOL    HW224828   5.870   0.047   6.981 -0.1320 -1.0716  0.2326
 7977SOL     OW24829   4.559   6.960   1.538 -0.6080 -0.1798 -0.8054
 7977SOL    HW124830   4.654   6.980   1.565  0.0013 -3.6198  0.2295
 7977SOL    HW224831   4.497   7.022   1.585  1.0383  1.0711 -0.1676
 7978SOL     OW24832   3.337   2.273   6.752 -0.3594  0.2580 -0.7419
 7978SOL    HW124833   3.416   2.286   6.812  0.5334 -2.0425 -1.3061
 7978SOL    HW224834   3.285   2.193   6.783 -1.5215  0.7469 -1.3707
 7979SOL     OW24835   3.793   5.510   3.942 -0.4120  0.6104 -0.2228
 7979SOL    HW124836   3.860   5.453   3.990  0.9552  0.4967 -2.1431
 7979SOL    HW224837   3.831   5.602   3.929 -0.7762  0.6516 -1.0132
 7980SOL     OW24838   3.725   1.158   1.828 -0.4185  0.0005  0.0411
 7980SOL    HW124839   3.722   1.236   1.890 -0.8965 -0.4854  0.6436
 7980SOL    HW224840   3.672   1.083   1.867 -0.7774 -0.2899 -0.9879
 7981SOL     OW24841   6.746   5.571   2.152 -0.7781  0.2143 -0.4550
 7981SOL    HW124842   6.830   5.623   2.165 -0.8285  0.3956 -0.8412
 7981SOL    HW224843   6.735   5.505   2.227  0.3764 -0.7245 -1.0917
 7982SOL     OW24844   0.665   3.162   2.097  0.3496  0.1595 -0.2610
 7982SOL    HW124845   0.764   3.170   2.102  0.5262 -1.6055 -0.2860
 7982SOL    HW224846   0.639   3.065   2.096 -1.2876  0.5616 -2.2153
 7983SOL     OW24847   4.603   1.049   1.300 -0.0912 -0.0483  0.2539
 7983SOL    HW124848   4.532   1.093   1.246  0.5864  0.4949 -0.2251
 7983SOL    HW224849   4.644   1.117   1.362  0.0370 -0.3450  0.4973
 7984SOL     OW24850   5.710   2.092   6.813  0.0915  0.6252  1.1320
 7984SOL    HW124851   5.725   2.034   6.733  0.0851  0.4374  1.2662
 7984SOL    HW224852   5.734   2.041   6.896 -0.7077  0.5288  1.3112
 7985SOL     OW24853   1.523   1.397   5.949  0.3891  0.0602 -0.3949
 7985SOL    HW124854   1.554   1.335   5.876 -0.3571 -0.0616 -0.6160
 7985SOL    HW224855   1.458   1.463   5.911 -0.0354 -0.0245  0.1652
 7986SOL     OW24856   5.857   3.160   6.798 -0.0594  0.3059  0.1045
 7986SOL    HW124857   5.786   3.090   6.810  0.2633  0.1296  1.0152
 7986SOL    HW224858   5.814   3.245   6.768 -0.8156  0.5098  1.6473
 7987SOL     OW24859   0.384   4.065   6.608 -0.1568 -0.0015  0.0140
 7987SOL    HW124860   0.310   3.998   6.598 -1.4057  1.2983  0.0635
 7987SOL    HW224861   0.425   4.084   6.519 -0.1708 -0.4156 -0.0830
 7988SOL     OW24862   3.831   2.070   5.679  0.0513 -0.5325 -0.3178
 7988SOL    HW124863   3.918   2.022   5.694 -0.3799 -1.4141 -0.5689
 7988SOL    HW224864   3.810   2.069   5.581 -0.3773 -0.5634 -0.2261
 7989SOL     OW24865   2.426   4.746   6.989  0.1590 -0.4270  0.0253
 7989SOL    HW124866   2.478   4.825   7.021  0.5459 -1.0021  0.8886
 7989SOL    HW224867   2.466   4.663   7.029 -1.4515 -0.8852  0.7601
 7990SOL     OW24868   0.825   2.150   4.894  0.4841 -0.9633 -0.1962
 7990SOL    HW124869   0.845   2.088   4.817  0.6108  1.1919 -2.0001
 7990SOL    HW224870   0.911   2.188   4.929  0.2762 -0.0199 -0.6877
 7991SOL     OW24871   2.641   3.502   6.026  0.2114 -0.4284 -0.2783
 7991SOL    HW124872   2.565   3.455   6.070  0.0413  0.6986  0.6762
 7991SOL    HW224873   2.726   3.451   6.042  0.2344  0.1623  1.8075
 7992SOL     OW24874   2.991   2.021   0.831  0.2710  0.3134 -0.2304
 7992SOL    HW124875   3.084   2.002   0.865 -0.7271 -2.2004  1.3805
 7992SOL    HW224876   2.956   2.103   0.875  0.6963 -0.3852  1.5135
 7993SOL     OW24877   2.117   6.101   6.420 -0.1379 -0.2783  0.0677
 7993SOL    HW124878   2.157   6.062   6.337  0.4199 -0.7670  0.5577
 7993SOL    HW224879   2.092   6.196   6.403 -0.8996 -0.6376 -0.9396
 7994SOL     OW24880   5.445   6.605   3.941 -0.1203  0.1191  0.1462
 7994SOL    HW124881   5.349   6.622   3.924  0.3275  2.0458 -0.6278
 7994SOL    HW224882   5.469   6.638   4.033 -0.4708 -1.7156  0.9531
 7995SOL     OW24883   4.674   5.050   1.533 -0.2041  0.6195  0.0795
 7995SOL    HW124884   4.751   5.067   1.471 -1.4381  1.4092 -1.3254
 7995SOL    HW224885   4.594   5.101   1.500 -1.2516  0.0600  1.6577
 7996SOL     OW24886   6.637   3.080   4.242 -0.7605  0.2586 -0.2174
 7996SOL    HW124887   6.649   3.139   4.321 -0.1334 -1.4997  1.0651
 7996SOL    HW224888   6.540   3.057   4.231 -0.7410 -0.2854  0.6722
 7997SOL     OW24889   3.865   3.605   1.826  0.5528 -0.0534 -0.2349
 7997SOL    HW124890   3.815   3.668   1.886  0.7167 -1.9016  1.9841
 7997SOL    HW224891   3.961   3.602   1.854  0.8011 -0.3967 -1.1038
 7998SOL     OW24892   5.737   4.003   5.929 -0.2473 -0.0246  0.1027
 7998SOL    HW124893   5.644   4.040   5.917 -0.3877  0.0807  1.3726
 7998SOL    HW224894   5.744   3.962   6.020  0.7679 -0.6110 -0.2333
 7999SOL     OW24895   4.430   0.722   0.025 -0.1858 -0.2017  0.3355
 7999SOL    HW124896   4.410   0.800   0.084 -0.2035  1.1680 -1.4080
 7999SOL    HW224897   4.529   0.715   0.012 -0.2288  0.0005 -0.1100
 8000SOL     OW24898   3.384   1.033   6.140 -0.2620 -0.1096  0.4620
 8000SOL    HW124899   3.296   0.991   6.117  0.1720 -1.3110  0.9001
 8000SOL    HW224900   3.369   1.126   6.175 -1.4323 -0.6098  1.3345
 8001SOL     OW24901   2.877   4.230   6.633  0.0052  0.6587  0.0611
 8001SOL    HW124902   2.961   4.272   6.599  1.7461 -0.2896  2.8782
 8001SOL    HW224903   2.865   4.141   6.588  1.1178  0.3276  0.3796
 8002SOL     OW24904   4.398   2.288   6.209  0.0186  0.5203  0.4471
 8002SOL    HW124905   4.461   2.362   6.185 -1.0529  0.8867 -1.3992
 8002SOL    HW224906   4.310   2.303   6.163 -1.3713 -0.1139  2.7352
 8003SOL     OW24907   4.811   5.238   4.363  0.0728  0.2388  0.0108
 8003SOL    HW124908   4.758   5.184   4.430 -1.1630 -0.0489 -1.1359
 8003SOL    HW224909   4.747   5.284   4.301  1.1710 -0.3350 -1.6004
 8004SOL     OW24910   0.794   5.113   2.208 -0.8866 -0.8638 -0.2950
 8004SOL    HW124911   0.842   5.117   2.296 -3.4896 -0.4849  1.2374
 8004SOL    HW224912   0.730   5.190   2.201 -0.5054 -0.6954 -2.7219
 8005SOL     OW24913   1.619   1.054   2.572 -1.1134  0.3390 -0.1696
 8005SOL    HW124914   1.537   1.094   2.534 -1.4403  0.6921  0.8805
 8005SOL    HW224915   1.597   0.966   2.615 -1.1018  0.7961  0.7955
 8006SOL     OW24916   3.233   5.356   4.106  0.3138  0.0826  0.6426
 8006SOL    HW124917   3.309   5.297   4.132 -1.3184 -2.1432  0.6648
 8006SOL    HW224918   3.259   5.409   4.025  0.8284 -3.2346 -1.5791
 8007SOL     OW24919   1.608   3.407   2.885  0.3438 -0.7988  0.1194
 8007SOL    HW124920   1.698   3.446   2.905  0.0834 -0.3684  0.4731
 8007SOL    HW224921   1.552   3.475   2.838 -0.2795 -0.5710  1.1604
 8008SOL     OW24922   1.395   3.148   1.923  0.1213  0.0287  0.1691
 8008SOL    HW124923   1.419   3.066   1.974 -0.3826  0.5511  1.2876
 8008SOL    HW224924   1.301   3.176   1.945  0.0356  0.5201 -0.7247
 8009SOL     OW24925   6.924   5.679   2.435 -0.0529 -0.5393  0.1072
 8009SOL    HW124926   6.911   5.776   2.457 -0.5895 -0.8984  1.4896
 8009SOL    HW224927   7.021   5.657   2.438  0.0932  0.0145 -0.4800
 8010SOL     OW24928   0.994   3.129   5.772 -0.2834 -0.4534 -0.2306
 8010SOL    HW124929   0.895   3.148   5.771 -0.0097  2.0240  3.0572
 8010SOL    HW224930   1.044   3.207   5.736  0.5227 -0.1715  1.3964
 8011SOL     OW24931   1.012   3.828   1.033 -0.0723 -0.3836  0.3868
 8011SOL    HW124932   1.032   3.766   1.109 -2.8701 -1.4352  0.3703
 8011SOL    HW224933   0.946   3.786   0.972 -1.6190  2.3511  0.0228
 8012SOL     OW24934   0.273   6.926   2.697 -0.5655 -0.3701  0.1144
 8012SOL    HW124935   0.208   6.891   2.629 -0.2543 -1.7712  0.4957
 8012SOL    HW224936   0.285   6.857   2.769  0.7423  0.2056  0.4641
 8013SOL     OW24937   0.060   0.020   5.118 -0.9556  0.4826  0.2206
 8013SOL    HW124938   0.015   0.055   5.035  1.1140 -0.6017 -1.4813
 8013SOL    HW224939   0.017  -0.066   5.146 -1.9387  1.0708  0.5421
 8014SOL     OW24940   3.210   1.929   5.902  0.0945 -0.3532  0.5085
 8014SOL    HW124941   3.215   1.965   5.995 -0.6898  0.3811  0.2755
 8014SOL    HW224942   3.145   1.983   5.848 -0.8534 -1.9024  0.0473
 8015SOL     OW24943   3.079   1.954   1.808 -0.7280 -0.6984 -0.4813
 8015SOL    HW124944   3.073   2.016   1.730 -1.4103 -1.1653 -0.8049
 8015SOL    HW224945   3.083   2.008   1.892 -2.3383 -0.1998 -0.6861
 8016SOL     OW24946   2.273   5.620   2.756  0.0657 -0.4598  0.0596
 8016SOL    HW124947   2.319   5.704   2.726  0.3721 -0.1836  1.2760
 8016SOL    HW224948   2.265   5.620   2.855  0.2648 -1.9818  0.0963
 8017SOL     OW24949   5.796   3.501   3.062  0.1314  0.3030 -0.3391
 8017SOL    HW124950   5.722   3.555   3.021 -0.6126 -0.9378 -0.6784
 8017SOL    HW224951   5.768   3.472   3.154  1.2111  1.8602  0.5411
 8018SOL     OW24952   5.657   3.657   2.864 -0.0951  0.2632 -0.4255
 8018SOL    HW124953   5.689   3.621   2.776  0.5041  0.2845 -0.2204
 8018SOL    HW224954   5.696   3.748   2.878  0.0411  0.1374 -0.0028
 8019SOL     OW24955   3.534   6.233   6.502 -0.5300  0.0066 -0.4787
 8019SOL    HW124956   3.587   6.156   6.468 -0.6269 -0.4545  0.4033
 8019SOL    HW224957   3.596   6.307   6.529 -0.3292 -0.4840  0.4342
 8020SOL     OW24958   3.971   6.547   0.030  0.1879 -0.4321 -0.2312
 8020SOL    HW124959   4.009   6.539   0.122  1.6120  1.7668 -0.5563
 8020SOL    HW224960   3.897   6.481   0.019  0.3917 -1.1815  2.2637
 8021SOL     OW24961   6.109   1.932   2.543  0.0810 -0.5488  0.0166
 8021SOL    HW124962   6.125   1.844   2.588  0.5780 -0.1276  0.6852
 8021SOL    HW224963   6.024   1.973   2.577  0.8957  0.1748  1.2664
 8022SOL     OW24964   6.702   4.019   1.876  0.3769  0.2066 -0.3827
 8022SOL    HW124965   6.732   3.954   1.807 -1.2187  0.2572 -1.1812
 8022SOL    HW224966   6.705   4.112   1.838  0.5520  0.3646  0.0050
 8023SOL     OW24967   0.529   0.033   3.312  0.3497 -0.1389  0.2365
 8023SOL    HW124968   0.536   0.114   3.254 -1.7203 -0.7001 -0.9176
 8023SOL    HW224969   0.475   0.055   3.393 -0.9060 -0.4969 -0.4677
 8024SOL     OW24970   3.431   5.572   3.055 -0.3378 -0.0397  0.0050
 8024SOL    HW124971   3.389   5.652   3.014 -1.9233  0.9923  3.2973
 8024SOL    HW224972   3.503   5.600   3.118 -0.2886 -1.2706  0.5307
 8025SOL     OW24973   2.145   5.949   6.672 -0.0578  0.0049 -0.1724
 8025SOL    HW124974   2.151   6.024   6.606  1.0452  0.6039  0.5761
 8025SOL    HW224975   2.222   5.954   6.736 -1.0202 -0.6320  1.0909
 8026SOL     OW24976   1.973   1.479   0.121  0.1425  0.0493  0.4987
 8026SOL    HW124977   1.956   1.421   0.201 -1.9487 -0.1047  0.0154
 8026SOL    HW224978   1.955   1.426   0.038 -0.6405  1.0328  0.0241
 8027SOL     OW24979   3.411   3.491   3.980 -0.0394  0.7217 -0.5930
 8027SOL    HW124980   3.350   3.492   3.901 -2.6649 -1.9281  1.1455
 8027SOL    HW224981   3.465   3.407   3.980 -0.0696  0.6827  0.3702
 8028SOL     OW24982   6.636   6.232   6.944  0.4455 -0.3694  0.0218
 8028SOL    HW124983   6.648   6.231   6.845 -0.8326 -0.5623 -0.1440
 8028SOL    HW224984   6.662   6.322   6.980  1.3402 -0.4394 -0.4137
 8029SOL     OW24985   2.707   3.262   5.717  0.0791  0.0624 -0.1439
 8029SOL    HW124986   2.740   3.197   5.786  2.6740 -0.1456 -1.4507
 8029SOL    HW224987   2.733   3.355   5.743  0.9432 -0.0020 -0.7264
 8030SOL     OW24988   0.431   3.807   1.835 -0.7173  0.0588 -0.2910
 8030SOL    HW124989   0.526   3.777   1.831 -1.0302 -0.8946 -0.8430
 8030SOL    HW224990   0.426   3.905   1.814  0.0551 -0.0464 -1.0189
 8031SOL     OW24991   4.117   5.355   1.673  0.4529 -0.2457 -0.2873
 8031SOL    HW124992   4.145   5.442   1.712  0.1593 -0.7777  1.2234
 8031SOL    HW224993   4.073   5.370   1.585  1.4467  1.0001 -0.5966
 8032SOL     OW24994   6.577   3.099   5.150 -0.2395  0.1377 -0.2068
 8032SOL    HW124995   6.515   3.088   5.228  0.4199  0.0106  0.3079
 8032SOL    HW224996   6.536   3.056   5.069 -0.8832  0.1772  0.0911
 8033SOL     OW24997   0.511   2.124   3.724  0.3999  0.5876  0.0574
 8033SOL    HW124998   0.512   2.039   3.671  0.6671  1.8590 -2.0847
 8033SOL    HW224999   0.422   2.169   3.714 -0.6221 -0.4717  3.0900
 8034SOL     OW25000   5.578   2.152   5.208  0.0971 -0.2916  0.0866
 8034SOL    HW125001   5.641   2.186   5.278  0.1246  1.5347 -0.7642
 8034SOL    HW225002   5.601   2.058   5.185  1.1217 -0.3795  1.3415
 8035SOL     OW25003   6.646   5.954   6.400 -0.1138 -0.1275  0.6625
 8035SOL    HW125004   6.591   5.871   6.393  0.0555 -0.1901 -0.0122
 8035SOL    HW225005   6.600   6.028   6.351  0.7888 -0.3925 -0.6346
 8036SOL     OW25006   2.225   4.765   0.852  0.1663 -0.1792 -0.2077
 8036SOL    HW125007   2.279   4.843   0.821 -1.0794  0.7496 -0.1347
 8036SOL    HW225008   2.238   4.752   0.951 -1.3109  1.3974  0.2539
 8037SOL     OW25009   2.571   0.990   1.701 -0.7868 -0.0229  0.0021
 8037SOL    HW125010   2.619   1.072   1.733 -0.1268  0.0859 -1.2203
 8037SOL    HW225011   2.618   0.909   1.734 -0.0442  0.0888 -0.7282
 8038SOL     OW25012   6.093   6.786   1.680 -0.4454  0.5482  0.1669
 8038SOL    HW125013   6.003   6.821   1.654 -0.7005 -0.2168 -0.0148
 8038SOL    HW225014   6.086   6.688   1.700  0.5307  0.2283 -0.8995
 8039SOL     OW25015   0.938   6.385   2.329 -0.3295 -0.3951  0.0982
 8039SOL    HW125016   0.876   6.461   2.347  0.9451  1.2222 -1.9069
 8039SOL    HW225017   0.918   6.310   2.392 -1.1085  1.8546  2.6958
 8040SOL     OW25018   4.665   5.927   0.400 -0.2028 -0.0173 -0.0315
 8040SOL    HW125019   4.585   5.873   0.375 -0.4092  0.0633  0.4562
 8040SOL    HW225020   4.747   5.872   0.387 -0.2439  0.2388 -1.5339
 8041SOL     OW25021   2.691   1.922   0.068  0.2861 -0.2586  0.6972
 8041SOL    HW125022   2.705   1.997   0.132  0.1079 -0.1389  0.5931
 8041SOL    HW225023   2.702   1.835   0.116 -2.5414 -0.2452  1.5469
 8042SOL     OW25024   1.345   4.156   0.085 -0.0752  0.5300  0.1566
 8042SOL    HW125025   1.320   4.099   0.007 -0.4469 -2.9554  2.6182
 8042SOL    HW225026   1.395   4.236   0.052 -2.6037  0.7459 -3.8095
 8043SOL     OW25027   2.041   1.104   1.585 -0.5550 -0.1942 -0.3763
 8043SOL    HW125028   2.007   1.023   1.538 -0.8677  0.7361 -1.8007
 8043SOL    HW225029   2.091   1.162   1.521 -0.0544  0.5957  0.6849
 8044SOL     OW25030   3.478   1.418   2.550  0.6006  0.1369 -0.3197
 8044SOL    HW125031   3.396   1.362   2.533  0.8564 -0.0370 -1.0066
 8044SOL    HW225032   3.464   1.473   2.633 -0.2980  0.2691 -0.5454
 8045SOL     OW25033   6.326   2.739   1.393  0.0626  0.3046  0.0925
 8045SOL    HW125034   6.348   2.651   1.352 -1.3213 -0.2934  0.5657
 8045SOL    HW225035   6.410   2.789   1.413  0.8810 -0.9859 -0.0219
 8046SOL     OW25036   6.679   6.387   6.363  0.4767  0.3304 -0.7761
 8046SOL    HW125037   6.589   6.359   6.328 -0.4765  0.4731  1.4006
 8046SOL    HW225038   6.706   6.326   6.437  1.6416  1.0163 -0.6111
 8047SOL     OW25039   3.178   0.315   3.841  0.0065  0.2495  0.2362
 8047SOL    HW125040   3.089   0.283   3.809  0.3412 -1.3304  0.7896
 8047SOL    HW225041   3.250   0.261   3.797  0.6661  1.0570  0.3010
 8048SOL     OW25042   4.315   0.949   6.353 -0.2919 -0.5102  0.2359
 8048SOL    HW125043   4.408   0.977   6.326 -0.5919 -2.0898 -2.8912
 8048SOL    HW225044   4.319   0.862   6.402 -0.1169 -0.7374 -0.1740
 8049SOL     OW25045   2.522   4.530   0.174 -0.0394 -0.5480 -0.5357
 8049SOL    HW125046   2.550   4.434   0.181 -0.1882 -0.5547  0.0772
 8049SOL    HW225047   2.603   4.588   0.181 -0.1667 -0.5436  1.9081
 8050SOL     OW25048   0.193   5.645   2.506 -0.1924  0.2530 -0.4163
 8050SOL    HW125049   0.280   5.681   2.475  0.9727 -0.8802  1.3248
 8050SOL    HW225050   0.174   5.557   2.461  0.5528 -0.4441  0.5746
 8051SOL     OW25051   1.648   2.936   4.402  0.6096  0.5557 -0.3284
 8051SOL    HW125052   1.649   2.977   4.493 -0.0519 -0.0748 -0.0317
 8051SOL    HW225053   1.716   2.863   4.398 -0.8391 -0.8876  0.3716
 8052SOL     OW25054   3.777   1.534   3.403 -0.2241 -0.0470 -0.3810
 8052SOL    HW125055   3.776   1.481   3.319  0.5058  0.2612 -0.5912
 8052SOL    HW225056   3.801   1.629   3.382  1.5067 -0.2797  0.3321
 8053SOL     OW25057   4.932   3.541   0.944  0.5962  0.1486  0.0364
 8053SOL    HW125058   4.891   3.450   0.942 -1.0898  0.8907 -1.7366
 8053SOL    HW225059   4.864   3.607   0.976  1.3444  0.9898 -0.0812
 8054SOL     OW25060   6.030   5.690   7.016  0.5075  0.7462 -0.1961
 8054SOL    HW125061   6.082   5.710   7.100  1.3499 -0.1699 -0.4745
 8054SOL    HW225062   5.944   5.741   7.017  0.8594  1.3580  0.8578
 8055SOL     OW25063   1.408   0.541   5.473 -0.4338 -0.3844 -0.2250
 8055SOL    HW125064   1.482   0.516   5.536 -0.6369  0.3797  0.3450
 8055SOL    HW225065   1.437   0.528   5.379 -0.5082 -2.6379  0.0264
 8056SOL     OW25066   4.204   0.715   3.229  0.1667 -0.0899 -0.1383
 8056SOL    HW125067   4.245   0.749   3.145  0.4329 -0.5017 -0.1773
 8056SOL    HW225068   4.255   0.750   3.308  0.3156 -0.2345 -0.1707
 8057SOL     OW25069   2.423   5.847   3.777  0.4895  0.1163 -0.3262
 8057SOL    HW125070   2.398   5.888   3.688  0.0008 -0.7783 -0.6072
 8057SOL    HW225071   2.354   5.780   3.803  0.3587  0.7420  0.9956
 8058SOL     OW25072   1.180   6.589   4.340  0.0878  0.8497  0.0440
 8058SOL    HW125073   1.138   6.581   4.430 -1.1934  3.4658 -0.2580
 8058SOL    HW225074   1.232   6.674   4.334  0.4644  0.5447 -1.5905
 8059SOL     OW25075   5.425   2.937   5.816  0.1947  0.5580  0.1990
 8059SOL    HW125076   5.475   2.923   5.731  0.1788  0.7745  0.1539
 8059SOL    HW225077   5.406   3.035   5.828  0.4873  0.5648  0.6167
 8060SOL     OW25078   2.664   4.554   5.660  0.4806  0.1576  0.1603
 8060SOL    HW125079   2.763   4.552   5.677  1.1167  0.3902 -2.9794
 8060SOL    HW225080   2.643   4.626   5.594 -1.6279 -0.7470 -0.2307
 8061SOL     OW25081   6.399   1.275   4.910  0.3265 -0.5931  0.3212
 8061SOL    HW125082   6.417   1.344   4.840 -1.4039  0.8641  1.2376
 8061SOL    HW225083   6.470   1.279   4.981  0.6529 -0.3056 -0.0209
 8062SOL     OW25084   1.388   2.520   1.953  0.4852 -0.0121 -0.6542
 8062SOL    HW125085   1.462   2.575   1.913 -0.3217  0.1679 -1.9461
 8062SOL    HW225086   1.399   2.424   1.927 -0.0037  0.0954 -1.2936
 8063SOL     OW25087   3.592   2.430   5.386  0.2828 -0.6148 -0.9699
 8063SOL    HW125088   3.595   2.522   5.348  1.7968 -0.8150 -1.3928
 8063SOL    HW225089   3.548   2.368   5.321 -0.3777 -0.2810 -0.8512
 8064SOL     OW25090   4.733   2.590   5.971  0.3258  0.1814 -0.6874
 8064SOL    HW125091   4.668   2.548   6.034  1.6451 -1.7197 -0.4860
 8064SOL    HW225092   4.823   2.597   6.015  0.9603 -0.0076 -1.8928
 8065SOL     OW25093   4.190   0.743   5.597 -0.1301  0.0569 -0.5106
 8065SOL    HW125094   4.232   0.778   5.514 -0.4943  0.7389 -0.4164
 8065SOL    HW225095   4.157   0.819   5.653 -0.8941 -0.4315 -0.2737
 8066SOL     OW25096   6.718   5.966   2.986  0.2398 -0.3721  0.1221
 8066SOL    HW125097   6.758   5.964   3.078 -0.1405 -0.7379  0.2777
 8066SOL    HW225098   6.666   6.050   2.974  2.0446  0.7322 -0.5074
 8067SOL     OW25099   5.061   1.152   3.731 -0.1168  0.1789  0.6010
 8067SOL    HW125100   5.077   1.234   3.676 -0.3409 -0.0663  0.1643
 8067SOL    HW225101   4.969   1.156   3.770 -0.9245 -0.7779 -1.0622
 8068SOL     OW25102   6.541   3.285   3.143 -0.6025  0.1018  0.1823
 8068SOL    HW125103   6.503   3.304   3.053  0.2734 -0.1805 -0.2563
 8068SOL    HW225104   6.619   3.345   3.160  0.6639 -1.3675 -0.2080
 8069SOL     OW25105   6.711   6.756   2.422 -0.8390 -0.1602  0.1724
 8069SOL    HW125106   6.699   6.822   2.497 -0.3318 -0.3990  0.4721
 8069SOL    HW225107   6.711   6.804   2.335 -1.0893  0.1643  0.3489
 8070SOL     OW25108   3.636   1.930   1.989  0.3823  0.4178  0.4089
 8070SOL    HW125109   3.633   2.028   2.008  0.4924  0.6207 -0.5669
 8070SOL    HW225110   3.565   1.906   1.923 -0.6835 -0.4502  1.8020
 8071SOL     OW25111   6.506   4.933   5.715  0.3356  0.0398 -0.1090
 8071SOL    HW125112   6.504   4.909   5.812 -1.0948 -3.4019 -0.8582
 8071SOL    HW225113   6.550   4.860   5.663 -1.5655  0.3672 -2.3663
 8072SOL     OW25114   1.295   0.286   4.312  0.2196 -0.2025  0.1754
 8072SOL    HW125115   1.307   0.187   4.318 -2.4879 -0.7092 -1.3043
 8072SOL    HW225116   1.268   0.323   4.401 -2.4957 -1.4758 -0.0253
 8073SOL     OW25117   6.209   7.002   1.173 -0.0170 -0.5237  0.1096
 8073SOL    HW125118   6.290   6.977   1.120  0.3988 -0.2239  0.5901
 8073SOL    HW225119   6.134   6.939   1.152  1.1693 -2.6010  1.7556
 8074SOL     OW25120   1.942   3.533   0.896  0.4616 -0.1791  0.9326
 8074SOL    HW125121   1.994   3.493   0.972  1.6467  1.9671  1.3254
 8074SOL    HW225122   1.874   3.467   0.865  1.2944 -1.8976  2.5032
 8075SOL     OW25123   6.490   1.628   4.126  0.1047  0.3480  0.5625
 8075SOL    HW125124   6.470   1.699   4.194 -0.5957  1.9551 -1.2326
 8075SOL    HW225125   6.571   1.652   4.075 -2.4022  2.2460 -2.9283
 8076SOL     OW25126   3.831   1.363   0.042 -0.0173  0.1276 -0.2755
 8076SOL    HW125127   3.863   1.456   0.026 -3.7774  1.7472  0.7702
 8076SOL    HW225128   3.865   1.330   0.130 -0.5535  1.4667  0.4459
 8077SOL     OW25129   0.292   0.005   6.326  0.2536 -0.6066  0.0452
 8077SOL    HW125130   0.223   0.052   6.381  1.1855 -3.8259  4.5250
 8077SOL    HW225131   0.252  -0.079   6.287  0.5558 -0.1902 -1.1992
 8078SOL     OW25132   4.725   3.764   6.903 -0.2402  0.1470  0.7267
 8078SOL    HW125133   4.659   3.699   6.865 -0.2075  0.7539 -0.3853
 8078SOL    HW225134   4.684   3.809   6.983 -0.8211 -0.1428  0.5996
 8079SOL     OW25135   0.943   2.762   0.408 -0.0068  1.0193  0.4961
 8079SOL    HW125136   0.994   2.845   0.383 -1.7911  1.7596 -0.9694
 8079SOL    HW225137   0.953   2.694   0.335 -2.1635  1.7206 -0.5363
 8080SOL     OW25138   4.286   5.444   6.613  0.0215  0.0157 -0.1511
 8080SOL    HW125139   4.210   5.498   6.650  0.9675  1.1057  0.2623
 8080SOL    HW225140   4.250   5.367   6.561 -1.3663  0.4677  0.1048
 8081SOL     OW25141   5.341   2.154   5.041 -0.5917 -0.6133  0.2232
 8081SOL    HW125142   5.265   2.169   5.104 -0.2695 -2.6520  1.1754
 8081SOL    HW225143   5.427   2.151   5.091 -0.4189 -3.1637 -0.0843
 8082SOL     OW25144   1.241   3.546   4.747 -0.1907  0.1215 -0.2199
 8082SOL    HW125145   1.268   3.641   4.761  0.1166  0.3473 -2.1486
 8082SOL    HW225146   1.217   3.505   4.835  2.5645  1.0858  1.0791
 8083SOL     OW25147   6.872   2.358   4.213  0.0962 -0.1928  0.6156
 8083SOL    HW125148   6.791   2.314   4.175  0.4098 -0.6978  0.5208
 8083SOL    HW225149   6.885   2.447   4.169 -1.6556  0.9174  2.1906
 8084SOL     OW25150   5.776   6.522   0.416  0.7921 -0.9298  0.6757
 8084SOL    HW125151   5.684   6.533   0.377  1.4096 -0.0162 -0.5899
 8084SOL    HW225152   5.776   6.552   0.511 -0.0474 -0.2053  0.4548
 8085SOL     OW25153   4.654   2.649   2.246  0.2633 -0.4775 -0.3463
 8085SOL    HW125154   4.563   2.638   2.207  0.8028 -2.4928 -1.1659
 8085SOL    HW225155   4.720   2.669   2.173  0.6080  0.2515  0.1473
 8086SOL     OW25156   4.223   4.750   0.131  0.1355 -0.6007 -1.1493
 8086SOL    HW125157   4.286   4.792   0.197  0.5534 -1.3498 -1.0606
 8086SOL    HW225158   4.163   4.686   0.177  1.4634 -2.3089 -1.6833
 8087SOL     OW25159   0.729   4.101   0.746 -0.4706 -0.5799  0.6946
 8087SOL    HW125160   0.816   4.118   0.700 -1.2142  1.2369 -0.1166
 8087SOL    HW225161   0.694   4.011   0.718  0.1313 -0.4360 -0.6186
 8088SOL     OW25162   3.506   2.017   6.921 -0.3396  0.1808 -0.5991
 8088SOL    HW125163   3.555   1.958   6.857 -1.9733  0.0963 -1.8529
 8088SOL    HW225164   3.432   1.965   6.963 -0.9187  0.9549 -0.6497
 8089SOL     OW25165   0.717   2.952   0.090  0.4517  0.5149 -0.4565
 8089SOL    HW125166   0.767   2.870   0.062 -2.2276 -1.0817 -0.8654
 8089SOL    HW225167   0.662   2.932   0.170 -1.2848  1.4862 -1.3522
 8090SOL     OW25168   6.157   0.155   5.198 -0.2912 -0.5448  0.5119
 8090SOL    HW125169   6.145   0.180   5.102  0.7450  0.4030  0.6050
 8090SOL    HW225170   6.254   0.144   5.218 -0.4812 -0.5482  1.5001
 8091SOL     OW25171   1.788   3.868   4.841  0.0836  0.2392 -1.0209
 8091SOL    HW125172   1.791   3.817   4.927 -0.0573 -1.3052 -1.8970
 8091SOL    HW225173   1.866   3.843   4.784  0.5608  1.7750 -1.0931
 8092SOL     OW25174   4.951   1.444   3.864 -0.7188  0.1932  0.4154
 8092SOL    HW125175   4.880   1.374   3.864 -2.1040  1.5501  0.1939
 8092SOL    HW225176   5.021   1.421   3.796 -0.1629 -1.8726  1.6026
 8093SOL     OW25177   6.610   4.090   0.975  0.1589  0.5074 -0.0487
 8093SOL    HW125178   6.691   4.077   0.917 -0.3605 -0.9877 -0.4763
 8093SOL    HW225179   6.551   4.010   0.969 -1.8201  1.9241 -0.4395
 8094SOL     OW25180   1.373   1.110   3.677  0.2682 -0.0415 -0.0546
 8094SOL    HW125181   1.367   1.210   3.673 -1.2134 -0.1011  0.1060
 8094SOL    HW225182   1.357   1.072   3.586 -2.0858 -0.2113  0.3722
 8095SOL     OW25183   6.496   2.030   3.996  0.3445  0.1800 -0.2153
 8095SOL    HW125184   6.528   2.032   4.091  0.2409  2.1482 -0.2010
 8095SOL    HW225185   6.575   2.037   3.935  0.2751  0.7921 -0.2390
 8096SOL     OW25186   2.894   6.542   1.942 -0.8511  0.1762  0.1965
 8096SOL    HW125187   2.935   6.576   2.026 -0.3783  0.9896 -0.3455
 8096SOL    HW225188   2.960   6.487   1.891 -1.3998 -1.0186  0.7417
 8097SOL     OW25189   4.676   6.974   3.027 -0.1579 -0.0554  0.3572
 8097SOL    HW125190   4.689   7.028   3.111  1.0489 -0.2812  0.3327
 8097SOL    HW225191   4.672   6.877   3.050  1.0087 -0.1791  0.0873
 8098SOL     OW25192   1.234   1.222   4.167 -0.0113 -0.3907  0.2532
 8098SOL    HW125193   1.285   1.196   4.085  0.1519  0.3851  0.1004
 8098SOL    HW225194   1.297   1.226   4.245  0.5151  2.0419 -0.2212
 8099SOL     OW25195   5.271   6.966   4.675  0.9429 -0.0026 -0.1210
 8099SOL    HW125196   5.279   7.061   4.645  4.8638 -0.1457  0.0156
 8099SOL    HW225197   5.296   6.904   4.601 -0.1763 -0.9215  0.2263
 8100SOL     OW25198   6.601   1.211   1.999 -0.1861  0.4480  0.7428
 8100SOL    HW125199   6.565   1.208   2.092 -1.5822 -1.3667  0.1886
 8100SOL    HW225200   6.697   1.240   2.002  0.2970 -1.1120  2.8946
 8101SOL     OW25201   2.311   2.420   5.289  0.0192  0.1302 -0.2225
 8101SOL    HW125202   2.389   2.365   5.260  0.4805  0.0555  1.0867
 8101SOL    HW225203   2.259   2.449   5.209  0.6627 -0.8830 -1.0314
 8102SOL     OW25204   6.962   0.995   6.128 -0.2256 -0.2337  0.2803
 8102SOL    HW125205   7.041   0.934   6.137 -0.7843 -0.8744  1.0063
 8102SOL    HW225206   6.991   1.089   6.143  0.9419 -0.0981 -2.3964
 8103SOL     OW25207   2.457   1.486   2.981  0.7133  0.1191  0.8558
 8103SOL    HW125208   2.429   1.580   2.961  2.7137  1.0159  1.9633
 8103SOL    HW225209   2.533   1.460   2.922  0.1699 -0.8381  0.5506
 8104SOL     OW25210   3.992   1.238   5.954  0.2196 -0.1141 -0.1797
 8104SOL    HW125211   4.003   1.293   5.872  0.1199  0.9617  0.5134
 8104SOL    HW225212   3.992   1.141   5.929  0.8912  0.1678 -1.3593
 8105SOL     OW25213   3.356   1.793   2.928 -0.5402 -0.2112 -0.6394
 8105SOL    HW125214   3.381   1.696   2.921 -0.4709 -0.2897  0.4401
 8105SOL    HW225215   3.390   1.843   2.849 -2.7656 -1.5113 -2.5480
 8106SOL     OW25216   0.386   4.521   5.517 -0.4566  0.6250 -0.6364
 8106SOL    HW125217   0.472   4.493   5.474  0.7419  2.4480  0.4590
 8106SOL    HW225218   0.354   4.447   5.576  0.2642 -0.1458 -1.1708
 8107SOL     OW25219   0.390   3.929   6.879 -0.6247 -0.3503 -0.3342
 8107SOL    HW125220   0.385   4.004   6.813  1.5961 -1.4068 -1.8320
 8107SOL    HW225221   0.344   3.848   6.842 -1.5861 -0.2405  0.5668
 8108SOL     OW25222   2.269   2.280   4.958 -0.0905 -0.2504  0.3934
 8108SOL    HW125223   2.306   2.224   5.033 -0.1334 -0.0553  0.5619
 8108SOL    HW225224   2.171   2.263   4.948 -0.0169 -0.5367  0.1509
 8109SOL     OW25225   0.144   6.806   6.279 -0.0039 -0.1681  0.6912
 8109SOL    HW125226   0.054   6.849   6.292 -0.6235 -0.9520 -0.7777
 8109SOL    HW225227   0.149   6.722   6.332  0.0921  0.1630  1.2186
 8110SOL     OW25228   2.445   4.931   6.587 -0.6963  0.4947 -0.0627
 8110SOL    HW125229   2.436   4.981   6.673 -1.3311 -1.4733  1.0708
 8110SOL    HW225230   2.444   4.997   6.511 -1.5172  2.1912  1.3265
 8111SOL     OW25231   2.435   0.152   5.760  0.1099  0.5018  0.6907
 8111SOL    HW125232   2.446   0.053   5.749 -0.3540  0.4823  0.3813
 8111SOL    HW225233   2.509   0.187   5.817  0.9254  0.1554 -0.1340
 8112SOL     OW25234   3.559   0.812   4.399  0.5635 -0.0783  0.2564
 8112SOL    HW125235   3.494   0.755   4.449  0.5130  0.5546  0.9320
 8112SOL    HW225236   3.576   0.772   4.309 -0.8026 -0.2266  0.0397
 8113SOL     OW25237   3.556   2.257   6.500  0.4016  0.0424 -0.4071
 8113SOL    HW125238   3.590   2.341   6.541  0.0578 -0.2693  0.5595
 8113SOL    HW225239   3.468   2.232   6.542  0.0684 -0.3347 -1.2957
 8114SOL     OW25240   2.245   3.850   1.045  0.0725 -0.4861 -0.5742
 8114SOL    HW125241   2.312   3.919   1.015 -1.0443  0.0898 -1.8547
 8114SOL    HW225242   2.155   3.873   1.008  0.0296 -3.8023 -2.9869
 8115SOL     OW25243   4.593   3.006   0.635  0.4946 -0.1416  0.5022
 8115SOL    HW125244   4.599   2.916   0.590 -1.6295  0.2039 -0.6124
 8115SOL    HW225245   4.683   3.033   0.668  1.2795 -2.4604  0.4302
 8116SOL     OW25246   6.058   0.920   4.399  0.6152  0.3306  0.0473
 8116SOL    HW125247   6.076   0.835   4.448 -0.9499  0.7086  1.3799
 8116SOL    HW225248   6.142   0.951   4.355  1.0285 -2.3411 -1.2572
 8117SOL     OW25249   1.900   3.008   6.641 -0.2448  0.1201  0.2081
 8117SOL    HW125250   1.957   2.944   6.589 -0.1884 -0.5762  1.1032
 8117SOL    HW225251   1.959   3.070   6.693 -0.2793 -0.4846  0.9943
 8118SOL     OW25252   0.823   3.841   5.300 -0.0904  0.2753  0.7301
 8118SOL    HW125253   0.866   3.921   5.258  2.3825 -0.3944  1.8441
 8118SOL    HW225254   0.783   3.783   5.229  0.1602  1.3069 -0.2886
 8119SOL     OW25255   6.721   6.458   2.940  0.5578  0.1136  0.3167
 8119SOL    HW125256   6.749   6.366   2.963 -2.8594 -1.2643 -0.3800
 8119SOL    HW225257   6.696   6.462   2.843  0.0449  1.5730  0.4797
 8120SOL     OW25258   5.273   4.044   1.282  0.2123 -0.1290  0.3471
 8120SOL    HW125259   5.370   4.018   1.282  0.2312 -0.0583  0.6950
 8120SOL    HW225260   5.232   4.022   1.371  0.3508  1.4726  0.8319
 8121SOL     OW25261   6.181   4.050   3.142  0.1433  0.0131  0.1999
 8121SOL    HW125262   6.192   3.952   3.125 -0.5938 -0.5135  2.4021
 8121SOL    HW225263   6.263   4.085   3.188 -0.3752 -0.0292  1.1742
 8122SOL     OW25264   0.699   5.032   6.033  0.3729  0.1813 -0.0896
 8122SOL    HW125265   0.678   5.029   6.131  0.9846 -0.0429  0.0398
 8122SOL    HW225266   0.618   5.061   5.982  0.0415  0.2645  0.4805
 8123SOL     OW25267   2.796   5.379   0.462 -0.7559  0.3123 -0.4563
 8123SOL    HW125268   2.773   5.457   0.519  0.2054 -0.4963  1.0976
 8123SOL    HW225269   2.724   5.310   0.469 -0.0348 -0.3451  0.8880
 8124SOL     OW25270   1.329   0.401   3.482  0.0261 -0.0969 -0.0210
 8124SOL    HW125271   1.339   0.378   3.578 -0.7843  2.0031  0.6152
 8124SOL    HW225272   1.233   0.415   3.460  0.2428 -0.0284 -0.9933
 8125SOL     OW25273   3.088   4.854   2.808  0.1486  0.4942 -0.3646
 8125SOL    HW125274   3.001   4.850   2.760 -0.6582 -2.1168  1.0827
 8125SOL    HW225275   3.163   4.856   2.742 -0.9605  0.9489 -1.6464
 8126SOL     OW25276   0.355   4.709   0.900 -0.0973  0.1867  0.0716
 8126SOL    HW125277   0.272   4.716   0.956  0.1966  1.9791  0.3486
 8126SOL    HW225278   0.394   4.800   0.887  2.0894 -0.6539  0.3012
 8127SOL     OW25279   4.375   5.094   1.549 -0.5113 -0.0626  0.1124
 8127SOL    HW125280   4.334   5.124   1.463  1.1468 -1.3553 -1.2005
 8127SOL    HW225281   4.396   5.174   1.605 -0.6298  0.8959 -1.1704
 8128SOL     OW25282   3.893   4.097   6.148 -0.6405  0.3435  0.8531
 8128SOL    HW125283   3.895   4.006   6.190  0.9147 -1.0568 -2.0233
 8128SOL    HW225284   3.985   4.134   6.144 -1.1972  1.8998  1.5591
 8129SOL     OW25285   5.860   6.145   0.732  0.1809 -0.1844 -0.1880
 8129SOL    HW125286   5.835   6.238   0.759  0.8149 -0.3757  1.1699
 8129SOL    HW225287   5.785   6.082   0.753  0.6925 -0.3415  1.2867
 8130SOL     OW25288   1.682   0.782   6.713 -0.3638 -0.4098 -0.0295
 8130SOL    HW125289   1.637   0.719   6.649 -2.2548  0.5350  0.3182
 8130SOL    HW225290   1.668   0.750   6.806 -0.3003 -0.1112  0.0827
 8131SOL     OW25291   5.275   0.433   1.069 -0.1723 -0.1981 -0.0507
 8131SOL    HW125292   5.244   0.402   1.159 -1.1204 -0.7384 -0.5467
 8131SOL    HW225293   5.229   0.380   0.998  2.4414 -1.5238 -0.8433
 8132SOL     OW25294   5.674   4.553   0.457  0.1671  0.0301  0.1037
 8132SOL    HW125295   5.576   4.540   0.475 -0.6468  0.9281 -3.0545
 8132SOL    HW225296   5.720   4.465   0.454 -1.0076 -0.5774 -0.5379
 8133SOL     OW25297   7.012   5.265   1.492  0.3548 -0.4432 -0.0327
 8133SOL    HW125298   6.925   5.255   1.445 -0.6255  0.6807  1.4558
 8133SOL    HW225299   7.017   5.355   1.534  2.3410 -0.4116 -0.2560
 8134SOL     OW25300   3.444   3.702   0.391  0.0824 -0.1362  0.3763
 8134SOL    HW125301   3.423   3.709   0.294  2.0490 -2.0037 -0.2833
 8134SOL    HW225302   3.360   3.709   0.445 -1.0929  0.5495 -1.4565
 8135SOL     OW25303   3.149   5.647   4.347  0.6405 -0.4787  0.2378
 8135SOL    HW125304   3.077   5.637   4.279  0.1092 -1.0986  0.8704
 8135SOL    HW225305   3.216   5.713   4.315 -0.0233 -0.1537 -0.5218
 8136SOL     OW25306   1.665   6.600   6.939 -0.1124  0.8226 -0.4231
 8136SOL    HW125307   1.741   6.663   6.952  0.6299  0.2564 -1.8680
 8136SOL    HW225308   1.696   6.507   6.957 -1.5883  0.8611  3.3387
 8137SOL     OW25309   3.336   3.975   5.901 -0.1691  0.7074  0.1198
 8137SOL    HW125310   3.261   4.029   5.861 -0.6378  0.1733  0.2653
 8137SOL    HW225311   3.299   3.917   5.974  0.3287  0.1624 -0.0610
 8138SOL     OW25312   4.095   0.415   4.156  0.5020 -0.0180 -0.0289
 8138SOL    HW125313   4.000   0.447   4.161  0.0758 -1.0090 -1.2594
 8138SOL    HW225314   4.146   0.452   4.233 -1.5185 -1.5264  2.2002
 8139SOL     OW25315   2.719   2.922   6.539  0.6298 -0.1456  0.3562
 8139SOL    HW125316   2.757   2.855   6.602 -0.3057 -1.5287 -0.5204
 8139SOL    HW225317   2.695   2.878   6.453 -2.0582  0.8396  0.5188
 8140SOL     OW25318   4.939   1.163   1.501 -0.1282  0.3682  0.2226
 8140SOL    HW125319   4.862   1.196   1.554  0.3866 -0.2672  1.3982
 8140SOL    HW225320   5.010   1.128   1.563  1.1513  1.0321 -0.8085
 8141SOL     OW25321   5.189   1.772   6.953 -0.1475 -0.5612 -0.0882
 8141SOL    HW125322   5.169   1.853   7.008 -0.0232 -0.1001 -0.7092
 8141SOL    HW225323   5.105   1.718   6.943 -0.6003  0.2575 -0.8964
 8142SOL     OW25324   4.074   4.949   6.512 -0.1355 -0.6575  0.0477
 8142SOL    HW125325   4.128   5.028   6.543  0.2116  0.2771 -2.6637
 8142SOL    HW225326   3.977   4.967   6.529  0.0205 -0.0894  0.3789
 8143SOL     OW25327   5.398   5.616   1.859  0.1517  0.3459 -0.3025
 8143SOL    HW125328   5.336   5.694   1.848 -0.5932 -0.0785  0.6517
 8143SOL    HW225329   5.344   5.531   1.863  0.8526 -0.0997 -0.1447
 8144SOL     OW25330   1.919   5.708   1.189  0.5696 -0.2541  0.5238
 8144SOL    HW125331   1.854   5.746   1.255  0.2024 -1.6124  0.9669
 8144SOL    HW225332   1.913   5.609   1.190  2.1478 -0.3734  0.0367
 8145SOL     OW25333   5.387   5.097   5.102 -0.3607 -0.1801 -0.0921
 8145SOL    HW125334   5.344   5.038   5.034 -1.5483 -0.2595  0.7078
 8145SOL    HW225335   5.353   5.190   5.092  0.9992  0.2650 -0.9066
 8146SOL     OW25336   6.856   0.366   6.360 -0.0657 -0.0628  0.1670
 8146SOL    HW125337   6.761   0.392   6.343  0.0484 -1.4435 -3.2413
 8146SOL    HW225338   6.861   0.314   6.446 -2.4702 -0.4444  0.1350
 8147SOL     OW25339   2.247   1.092   5.079 -0.1735  0.0739  0.1109
 8147SOL    HW125340   2.255   1.083   4.979  0.2664 -0.0019  0.1526
 8147SOL    HW225341   2.237   1.002   5.120 -2.8755  0.2070 -0.0602
 8148SOL     OW25342   4.708   5.091   2.330  0.0288  0.0707 -0.5757
 8148SOL    HW125343   4.724   5.003   2.286 -0.7754  0.2009 -1.1455
 8148SOL    HW225344   4.794   5.125   2.370  0.5776 -0.4580 -1.2887
 8149SOL     OW25345   1.104   0.566   5.465  0.1495 -0.0382  0.6688
 8149SOL    HW125346   1.195   0.569   5.507 -0.2453  1.4470  1.4687
 8149SOL    HW225347   1.036   0.596   5.531 -0.9178 -0.9455  0.0062
 8150SOL     OW25348   0.401   5.374   6.668  0.2857  0.0747  0.4689
 8150SOL    HW125349   0.452   5.288   6.669 -0.5627 -0.6402 -2.9334
 8150SOL    HW225350   0.438   5.434   6.597 -0.9611  1.3021  0.8110
 8151SOL     OW25351   0.443   3.414   2.030 -0.4182  0.6019 -0.2207
 8151SOL    HW125352   0.406   3.464   1.951  0.3490  0.0888 -0.9225
 8151SOL    HW225353   0.434   3.470   2.112 -1.8543  0.8776 -0.5398
 8152SOL     OW25354   5.499   1.818   2.624  0.0315 -0.3069 -0.4495
 8152SOL    HW125355   5.521   1.723   2.604  1.5167 -0.3999  1.3591
 8152SOL    HW225356   5.576   1.876   2.595  0.4902 -0.0332  1.2192
 8153SOL     OW25357   6.031   1.200   1.949  0.8789 -0.1402 -0.2847
 8153SOL    HW125358   6.009   1.296   1.961  0.5917 -0.3648  1.1440
 8153SOL    HW225359   6.005   1.171   1.857 -1.9046  0.3936  0.2615
 8154SOL     OW25360   4.322   6.168   5.690 -0.0194  0.0365  0.4529
 8154SOL    HW125361   4.282   6.259   5.689 -0.6122 -0.1568  2.2428
 8154SOL    HW225362   4.380   6.158   5.772 -0.3924 -1.3513  0.5839
 8155SOL     OW25363   0.446   5.127   5.179 -0.3727  0.0545 -0.3019
 8155SOL    HW125364   0.369   5.190   5.188  0.2993  1.0263 -1.0725
 8155SOL    HW225365   0.443   5.084   5.088 -0.3997 -0.4298 -0.0705
 8156SOL     OW25366   1.764   5.156   6.810 -0.6116 -0.0925 -0.0483
 8156SOL    HW125367   1.846   5.208   6.833 -0.7868 -0.3259  1.1653
 8156SOL    HW225368   1.683   5.209   6.837 -0.7824 -1.5490  2.6534
 8157SOL     OW25369   5.302   4.204   4.882  0.2219 -0.1294  0.4141
 8157SOL    HW125370   5.312   4.291   4.931 -1.1101  0.2823  0.0037
 8157SOL    HW225371   5.338   4.129   4.939  2.6237  0.8021  0.2223
 8158SOL     OW25372   4.968   5.623   5.219 -0.1316 -0.8238  0.1653
 8158SOL    HW125373   4.938   5.607   5.125  0.5003 -1.9456  0.1307
 8158SOL    HW225374   4.961   5.720   5.240  2.3825 -0.0620 -1.9878
 8159SOL     OW25375   2.832   0.399   5.302 -0.2165 -0.6648 -0.3292
 8159SOL    HW125376   2.874   0.468   5.361 -0.4082 -0.5134 -0.3698
 8159SOL    HW225377   2.903   0.343   5.261 -0.0458 -0.2951 -0.5390
 8160SOL     OW25378   4.848   1.813   2.267  0.5047 -0.4888  0.7412
 8160SOL    HW125379   4.803   1.731   2.232 -0.2486  0.1086  0.2728
 8160SOL    HW225380   4.932   1.830   2.216  0.6900 -0.9955  0.8775
 8161SOL     OW25381   0.932   2.878   6.147 -0.3264  0.1008  0.1391
 8161SOL    HW125382   1.006   2.920   6.200 -0.7521 -0.7617  1.4627
 8161SOL    HW225383   0.921   2.783   6.176 -1.8452  0.1784 -0.1430
 8162SOL     OW25384   5.932   0.138   1.280  0.3694  0.5199  0.2480
 8162SOL    HW125385   6.021   0.176   1.304  0.8113  0.1074 -0.6787
 8162SOL    HW225386   5.887   0.197   1.213  0.9660 -0.4347 -1.0364
 8163SOL     OW25387   3.733   0.785   6.116 -0.3260  0.4841  0.3978
 8163SOL    HW125388   3.742   0.739   6.027 -0.3991  0.4424  0.4123
 8163SOL    HW225389   3.678   0.729   6.178 -0.4329  0.6002  0.4090
 8164SOL     OW25390   4.844   2.153   5.702  0.4471 -0.6708  0.6330
 8164SOL    HW125391   4.789   2.112   5.775 -0.2401 -0.1945  0.3969
 8164SOL    HW225392   4.832   2.252   5.703 -1.3965 -0.8056 -1.5346
 8165SOL     OW25393   1.585   1.109   5.747 -0.3667  0.2076 -0.3379
 8165SOL    HW125394   1.587   1.097   5.846 -0.8916 -2.1193 -0.5515
 8165SOL    HW225395   1.662   1.166   5.718  0.0617  0.5175  1.3523
 8166SOL     OW25396   3.619   1.318   5.658 -0.3428  0.5197  0.6390
 8166SOL    HW125397   3.673   1.380   5.601  0.5348 -0.7229  0.0797
 8166SOL    HW225398   3.609   1.358   5.749 -0.9532  2.0939 -0.0858
 8167SOL     OW25399   2.253   2.292   1.195 -0.0957  0.1069 -0.0017
 8167SOL    HW125400   2.247   2.203   1.239  1.2518  0.4390  0.9050
 8167SOL    HW225401   2.167   2.342   1.209  0.2172  0.1311  2.1248
 8168SOL     OW25402   3.548   6.172   3.905  0.4944 -0.1768  0.7104
 8168SOL    HW125403   3.532   6.245   3.972  1.7048  0.4176  0.3988
 8168SOL    HW225404   3.566   6.086   3.952 -0.3165 -0.1352  1.1023
 8169SOL     OW25405   4.723   5.852   0.018 -0.1898 -0.0490  0.2987
 8169SOL    HW125406   4.727   5.755   0.040  0.8744 -0.6229 -2.0817
 8169SOL    HW225407   4.627   5.880   0.010 -0.6980 -2.1737 -3.4718
 8170SOL     OW25408   1.948   5.875   3.240 -0.1291 -0.2110  0.0836
 8170SOL    HW125409   1.943   5.791   3.187  1.1061 -0.6804  0.6834
 8170SOL    HW225410   1.925   5.856   3.336  1.8820 -0.2528  0.5968
 8171SOL     OW25411   1.228   0.309   2.293  0.0284  0.1630  0.2783
 8171SOL    HW125412   1.260   0.340   2.203  1.5777 -0.6507  0.5074
 8171SOL    HW225413   1.211   0.210   2.290 -1.5422  0.4156  0.4494
 8172SOL     OW25414   3.107   3.250   5.367 -0.2057  0.1918 -0.2107
 8172SOL    HW125415   3.099   3.181   5.295  2.0141 -1.0940  0.6905
 8172SOL    HW225416   3.083   3.210   5.455  0.6175  0.6921  0.2552
 8173SOL     OW25417   6.274   0.153   2.274  0.4129  0.2603 -0.2592
 8173SOL    HW125418   6.333   0.079   2.243  2.6293  0.9215  2.0429
 8173SOL    HW225419   6.326   0.238   2.279 -1.8518  1.8744 -2.0173
 8174SOL     OW25420   1.736   5.869   5.668 -0.1666 -0.7557  0.4389
 8174SOL    HW125421   1.650   5.818   5.667 -0.6488  0.0309 -0.5759
 8174SOL    HW225422   1.773   5.871   5.761 -2.4696  0.8883  1.4112
 8175SOL     OW25423   1.591   3.213   6.083 -0.1176 -0.2872  0.2039
 8175SOL    HW125424   1.610   3.127   6.129  0.2655 -0.3231 -0.0233
 8175SOL    HW225425   1.512   3.257   6.126 -0.3048 -0.7439  0.3246
 8176SOL     OW25426   3.569   5.065   1.085 -0.9558 -0.2991  0.0927
 8176SOL    HW125427   3.575   5.165   1.087 -0.6422 -0.2879 -0.8197
 8176SOL    HW225428   3.656   5.027   1.055 -0.9158 -0.8843  0.9059
 8177SOL     OW25429   4.898   5.791   2.254  0.3096  0.7059 -0.2131
 8177SOL    HW125430   4.996   5.776   2.236  0.1723  1.3812 -1.6679
 8177SOL    HW225431   4.846   5.770   2.171 -0.5995  1.9930  0.0157
 8178SOL     OW25432   1.245   5.580   1.410  0.2501 -0.4946  0.3364
 8178SOL    HW125433   1.185   5.646   1.456  1.1316  0.0745  0.7089
 8178SOL    HW225434   1.323   5.629   1.371 -0.9481 -0.7992 -2.6733
 8179SOL     OW25435   6.747   5.790   3.872 -0.6580  0.4900 -0.1296
 8179SOL    HW125436   6.737   5.728   3.950  0.0480 -0.0706 -0.4744
 8179SOL    HW225437   6.674   5.858   3.875 -2.2752 -1.1381 -0.4463
 8180SOL     OW25438   4.702   3.656   0.678  0.1842  0.2867 -0.0312
 8180SOL    HW125439   4.732   3.751   0.673 -0.5751  0.5645  0.4558
 8180SOL    HW225440   4.634   3.639   0.606  0.6166 -0.0011 -0.3728
 8181SOL     OW25441   4.805   1.191   5.406 -0.2192 -0.2490 -0.2609
 8181SOL    HW125442   4.815   1.231   5.497 -0.3244  2.9720 -1.5308
 8181SOL    HW225443   4.893   1.155   5.376 -0.0990 -1.0060  0.9548
 8182SOL     OW25444   3.441   4.131   3.057  0.4390 -0.0664  0.0463
 8182SOL    HW125445   3.418   4.156   2.962 -0.7636 -0.0786  0.3189
 8182SOL    HW225446   3.538   4.108   3.062  1.2570  2.7556 -0.6170
 8183SOL     OW25447   0.942   2.089   5.558 -0.5599 -0.3836 -0.9687
 8183SOL    HW125448   1.005   2.012   5.564 -1.3321 -0.9397  0.8116
 8183SOL    HW225449   0.868   2.067   5.494 -0.4403 -0.8663 -0.9415
 8184SOL     OW25450   6.476   4.776   3.661  0.1047  0.1394  0.1647
 8184SOL    HW125451   6.395   4.834   3.675  0.6950  1.1887 -0.6166
 8184SOL    HW225452   6.539   4.821   3.598  1.6912 -0.2948  1.3734
 8185SOL     OW25453   0.444   5.602   3.166 -0.3954 -0.9884 -0.2201
 8185SOL    HW125454   0.499   5.621   3.248  1.4653 -1.7781 -1.2220
 8185SOL    HW225455   0.351   5.635   3.180  0.6571  1.7489  1.0233
 8186SOL     OW25456   0.245   6.933   0.483  0.6827  0.3158  0.3362
 8186SOL    HW125457   0.271   6.887   0.398 -0.0175  0.7621 -0.1348
 8186SOL    HW225458   0.230   7.030   0.465 -1.0918  0.1213  0.5925
 8187SOL     OW25459   3.724   6.882   4.387 -0.1033 -0.1088 -0.1181
 8187SOL    HW125460   3.767   6.966   4.420 -2.1989  0.5950  1.0675
 8187SOL    HW225461   3.732   6.877   4.287 -1.3718  2.4447 -0.4464
 8188SOL     OW25462   0.955   2.485   4.506 -0.3754  0.2127  0.0362
 8188SOL    HW125463   0.869   2.455   4.464  0.0913 -0.9299 -0.1154
 8188SOL    HW225464   0.949   2.474   4.605 -0.5117  0.4426  0.0566
 8189SOL     OW25465   5.752   3.791   3.187  0.2337 -0.2063  0.7708
 8189SOL    HW125466   5.793   3.882   3.194  0.9902 -0.4997  0.2726
 8189SOL    HW225467   5.803   3.736   3.121 -0.9327 -0.6115  0.1810
 8190SOL     OW25468   0.240   4.584   2.714 -0.1127  0.3129  0.3115
 8190SOL    HW125469   0.222   4.498   2.762 -1.4106  0.5552  0.2848
 8190SOL    HW225470   0.214   4.660   2.773 -0.4872  0.6467 -0.2870
 8191SOL     OW25471   4.509   5.631   2.374  0.3882 -0.5885 -0.2631
 8191SOL    HW125472   4.440   5.567   2.407 -0.0250 -0.7769 -1.4411
 8191SOL    HW225473   4.464   5.703   2.320  1.2189 -1.4529 -2.1846
 8192SOL     OW25474   0.754   5.804   1.246  0.3082  0.1919  0.0384
 8192SOL    HW125475   0.783   5.883   1.300 -2.4275 -0.0575  2.0818
 8192SOL    HW225476   0.804   5.722   1.277  0.6767  0.5148  0.3119
 8193SOL     OW25477   1.785   5.851   5.253 -0.1755  0.3110 -0.1869
 8193SOL    HW125478   1.686   5.866   5.242 -0.2106 -0.9537 -1.8760
 8193SOL    HW225479   1.829   5.854   5.164  1.6855  2.8980  0.6825
 8194SOL     OW25480   4.870   6.276   2.805  0.2413 -0.4828 -0.6042
 8194SOL    HW125481   4.804   6.238   2.870  1.9997 -1.2482  0.8081
 8194SOL    HW225482   4.862   6.228   2.717 -1.4460 -0.1612 -0.6544
 8195SOL     OW25483   0.280   5.846   3.167 -0.0048 -0.3857  0.4019
 8195SOL    HW125484   0.368   5.866   3.125  0.2485 -2.5680 -0.2177
 8195SOL    HW225485   0.207   5.893   3.118  0.4493 -1.6499 -1.6017
 8196SOL     OW25486   3.496   0.131   0.900  0.1445  0.4352  0.0172
 8196SOL    HW125487   3.433   0.053   0.904 -1.0125  1.2234 -1.8325
 8196SOL    HW225488   3.534   0.146   0.991 -1.2077 -0.9766  0.8819
 8197SOL     OW25489   3.639   0.985   3.903  0.5140  0.6950  0.2539
 8197SOL    HW125490   3.549   0.986   3.949  0.9733  0.7139  1.1855
 8197SOL    HW225491   3.626   0.991   3.804 -0.4408  2.9281  0.4651
 8198SOL     OW25492   1.478   5.140   6.095 -0.1766  0.5413  0.3735
 8198SOL    HW125493   1.560   5.102   6.053 -0.1519  1.2107 -0.1968
 8198SOL    HW225494   1.497   5.162   6.190  0.9219  2.5068 -0.2532
 8199SOL     OW25495   5.100   3.742   6.281 -0.0695  1.1576  0.3916
 8199SOL    HW125496   5.154   3.696   6.210  0.6486  3.5237 -0.6964
 8199SOL    HW225497   5.162   3.792   6.341 -0.7830  0.2235  1.9624
 8200SOL     OW25498   6.582   5.466   6.302  0.0940  0.6997  0.7471
 8200SOL    HW125499   6.524   5.410   6.361  0.0501  0.3922  0.4153
 8200SOL    HW225500   6.677   5.461   6.334  0.4693 -1.2995 -0.5232
 8201SOL     OW25501   5.410   0.138   4.816  0.2678 -0.1408 -0.1613
 8201SOL    HW125502   5.417   0.052   4.765 -1.0504 -0.5682  0.3423
 8201SOL    HW225503   5.360   0.123   4.901 -1.0128  1.3200 -0.5930
 8202SOL     OW25504   5.825   5.414   0.718  0.1049 -0.1217 -0.3633
 8202SOL    HW125505   5.860   5.358   0.794  1.6584  1.0211 -0.1907
 8202SOL    HW225506   5.802   5.354   0.642  3.2172 -0.9874 -0.7732
 8203SOL     OW25507   0.282   3.123   0.360 -0.2052 -0.0278 -0.2194
 8203SOL    HW125508   0.372   3.110   0.402 -0.5442 -0.3906  0.4127
 8203SOL    HW225509   0.292   3.172   0.274  0.6994 -0.8488 -0.6003
 8204SOL     OW25510   0.925   3.656   0.268  0.0274  0.8660  0.1159
 8204SOL    HW125511   0.981   3.721   0.216  1.3089  0.4771  0.9484
 8204SOL    HW225512   0.937   3.564   0.230  0.6232  0.6508  0.8168
 8205SOL     OW25513   5.377   5.707   5.367  0.3787 -0.1613 -0.1120
 8205SOL    HW125514   5.299   5.740   5.314 -0.3006 -0.8060  0.4737
 8205SOL    HW225515   5.349   5.691   5.462  0.6614 -2.3461 -0.3315
 8206SOL     OW25516   4.035   1.888   6.864 -0.2990 -0.0282 -0.0150
 8206SOL    HW125517   4.131   1.908   6.884 -0.2372 -0.2883 -0.0506
 8206SOL    HW225518   4.019   1.895   6.766 -0.7561  1.9192  0.1430
 8207SOL     OW25519   4.010   3.760   2.979  0.5235  0.6525 -0.0625
 8207SOL    HW125520   3.939   3.697   3.011  1.5575 -0.3801  0.2918
 8207SOL    HW225521   4.094   3.744   3.031  0.9328  2.0713 -0.2507
 8208SOL     OW25522   4.238   6.328   4.983 -0.1169  0.7582 -0.4483
 8208SOL    HW125523   4.185   6.412   4.969  0.3107  1.4563  1.8091
 8208SOL    HW225524   4.197   6.274   5.056  0.6431 -0.1228 -0.6520
 8209SOL     OW25525   5.726   3.942   4.601  0.1221  0.0595  0.1487
 8209SOL    HW125526   5.697   3.846   4.595  1.2122 -0.2057 -1.5947
 8209SOL    HW225527   5.650   3.997   4.634 -0.6226 -1.3490  0.9113
 8210SOL     OW25528   0.432   0.785   5.860  0.2096  0.0028  0.3913
 8210SOL    HW125529   0.462   0.880   5.858  2.1749 -0.5747  0.1114
 8210SOL    HW225530   0.512   0.725   5.850 -1.1049 -1.6598 -0.5679
 8211SOL     OW25531   3.507   3.367   0.474  0.1996 -0.4570  0.4047
 8211SOL    HW125532   3.455   3.282   0.483 -1.3299  0.3507 -0.4502
 8211SOL    HW225533   3.451   3.444   0.506  1.5568  0.2596  1.1627
 8212SOL     OW25534   1.288   4.202   2.511  0.6017  0.7615 -0.3038
 8212SOL    HW125535   1.231   4.121   2.494  1.6558  0.0373 -0.5018
 8212SOL    HW225536   1.230   4.278   2.540 -0.2951 -0.3893  1.0741
 8213SOL     OW25537   6.503   5.291   0.597 -0.2960 -0.2763  0.3292
 8213SOL    HW125538   6.601   5.308   0.588 -0.1650 -1.5937 -1.5488
 8213SOL    HW225539   6.452   5.375   0.575  0.4004 -0.0734 -0.5774
 8214SOL     OW25540   5.241   2.788   4.587  0.2446  0.1487 -0.1566
 8214SOL    HW125541   5.150   2.772   4.547  0.9832 -0.2044 -1.7485
 8214SOL    HW225542   5.310   2.739   4.534  1.3943  0.5011  0.9736
 8215SOL     OW25543   3.208   3.771   0.544  0.2796  0.3859 -0.3162
 8215SOL    HW125544   3.110   3.789   0.545 -0.0451 -1.2427  0.3457
 8215SOL    HW225545   3.253   3.827   0.613 -0.4010  0.1184  0.3618
 8216SOL     OW25546   4.612   2.475   4.905 -0.1333  0.3597  0.0645
 8216SOL    HW125547   4.686   2.469   4.837  0.0560 -0.8497  0.3477
 8216SOL    HW225548   4.524   2.464   4.860 -0.0578  0.3672 -0.0843
 8217SOL     OW25549   2.418   0.898   1.360 -0.1779  0.3042  0.1621
 8217SOL    HW125550   2.374   0.912   1.449 -1.8970  0.1959 -0.6167
 8217SOL    HW225551   2.452   0.804   1.354 -0.4927  0.1641  0.5199
 8218SOL     OW25552   4.654   1.773   6.955  0.3772 -0.4190 -0.1283
 8218SOL    HW125553   4.710   1.856   6.960 -2.4626  1.8420 -2.1753
 8218SOL    HW225554   4.666   1.731   6.865 -0.3859 -0.5223 -0.1857
 8219SOL     OW25555   5.543   1.549   6.376 -0.2687 -0.4803  0.3257
 8219SOL    HW125556   5.622   1.499   6.340  0.0569 -0.3193  0.8153
 8219SOL    HW225557   5.474   1.485   6.407  0.5795 -0.6668  1.9312
 8220SOL     OW25558   3.098   4.542   0.266  0.8125  0.0984 -0.0957
 8220SOL    HW125559   3.028   4.506   0.205  1.9593  0.0471 -1.4627
 8220SOL    HW225560   3.130   4.470   0.327  1.0230 -0.4183 -0.7981
 8221SOL     OW25561   4.896   3.782   4.783  0.0072 -0.7253 -0.2452
 8221SOL    HW125562   4.870   3.720   4.857  1.1785 -2.3838 -1.1657
 8221SOL    HW225563   4.971   3.841   4.814 -2.4893  1.8370  1.3409
 8222SOL     OW25564   5.397   2.519   4.181  0.4429  0.3840  0.4073
 8222SOL    HW125565   5.301   2.544   4.185  0.5464  0.7291  0.9136
 8222SOL    HW225566   5.409   2.437   4.125 -0.1146  0.4714  0.1632
 8223SOL     OW25567   1.585   3.903   6.206  0.2219  0.1045 -0.0590
 8223SOL    HW125568   1.634   3.976   6.158 -0.7628  1.1904  0.5280
 8223SOL    HW225569   1.489   3.928   6.215  0.0071 -0.9578  0.7906
 8224SOL     OW25570   2.129   2.982   2.154 -0.1715 -0.0959 -0.2176
 8224SOL    HW125571   2.101   3.065   2.106  2.3640  0.0558 -1.6321
 8224SOL    HW225572   2.166   3.006   2.243  0.9368  0.4158 -0.7843
 8225SOL     OW25573   5.212   0.026   2.455 -0.0437 -0.0780  0.5013
 8225SOL    HW125574   5.240   0.117   2.427 -0.6712 -0.1391 -0.3821
 8225SOL    HW225575   5.120   0.007   2.419  0.0414 -1.0149  0.7543
 8226SOL     OW25576   3.456   5.794   5.816 -0.8222  0.4758 -0.1015
 8226SOL    HW125577   3.449   5.739   5.732 -0.2708  0.0355  0.1332
 8226SOL    HW225578   3.367   5.837   5.835 -1.1872 -0.1114 -0.4424
 8227SOL     OW25579   1.135   5.491   3.183  0.4318 -0.4343 -0.3372
 8227SOL    HW125580   1.043   5.501   3.219  0.7103  0.4453  0.1588
 8227SOL    HW225581   1.142   5.537   3.094  0.4430 -0.3425 -0.2887
 8228SOL     OW25582   0.254   6.590   4.886  0.3072  0.2518 -0.3061
 8228SOL    HW125583   0.198   6.515   4.850  2.1121 -0.6251 -1.4576
 8228SOL    HW225584   0.350   6.564   4.882  0.8947  2.1503  0.5096
 8229SOL     OW25585   5.955   3.702   5.764  0.4257 -0.2186  0.0005
 8229SOL    HW125586   5.895   3.724   5.841 -0.1840 -2.1966  0.1398
 8229SOL    HW225587   6.034   3.651   5.798  0.9430  0.2186 -0.5165
 8230SOL     OW25588   3.301   0.310   3.514  0.3461 -0.3248  0.3004
 8230SOL    HW125589   3.379   0.295   3.575 -0.5316 -0.9057  1.3094
 8230SOL    HW225590   3.334   0.345   3.426  1.6741  0.1930  0.9711
 8231SOL     OW25591   3.633   6.199   0.314  0.2117 -0.2762  0.3957
 8231SOL    HW125592   3.600   6.290   0.338  0.4954  0.0802 -0.5120
 8231SOL    HW225593   3.597   6.132   0.379 -1.9320  0.1438 -0.2767
 8232SOL     OW25594   2.970   0.550   1.767 -0.0696 -0.7064 -0.0590
 8232SOL    HW125595   3.023   0.468   1.743  1.0337 -0.3982  1.1872
 8232SOL    HW225596   2.933   0.540   1.859 -0.6230 -0.1375 -0.2159
 8233SOL     OW25597   0.890   5.638   5.815  0.6886  0.4846  0.2316
 8233SOL    HW125598   0.855   5.544   5.819 -0.0332  0.5844 -2.2116
 8233SOL    HW225599   0.850   5.691   5.890  0.7613 -1.0216  1.3917
 8234SOL     OW25600   1.709   2.716   0.090  0.3896 -0.4667 -0.0498
 8234SOL    HW125601   1.736   2.801   0.047  0.2701 -0.2099  0.3769
 8234SOL    HW225602   1.626   2.730   0.144  1.1487 -0.5042  1.1678
 8235SOL     OW25603   5.408   1.812   6.759 -0.3714 -0.1804 -0.3704
 8235SOL    HW125604   5.380   1.884   6.696 -0.1503  0.8858  0.7168
 8235SOL    HW225605   5.348   1.812   6.839  0.1528 -0.6286  0.0360
 8236SOL     OW25606   6.407   2.052   3.020  0.3609  0.4017  0.5507
 8236SOL    HW125607   6.489   2.097   2.984  0.7503 -0.0739  0.8322
 8236SOL    HW225608   6.402   1.958   2.984 -0.1279  0.4681  0.4357
 8237SOL     OW25609   3.902   6.331   4.700  0.2993  0.6534 -0.3092
 8237SOL    HW125610   3.821   6.339   4.642  0.7771  0.9249 -0.9476
 8237SOL    HW225611   3.971   6.397   4.671  0.0119  1.8262  1.4849
 8238SOL     OW25612   1.372   1.814   5.474  0.2358 -0.6151 -0.3484
 8238SOL    HW125613   1.364   1.860   5.385 -0.3165 -0.9907 -0.4938
 8238SOL    HW225614   1.468   1.817   5.503  0.6513 -1.5417 -1.5337
 8239SOL     OW25615   4.490   1.879   5.858  0.0767  0.1249 -0.6133
 8239SOL    HW125616   4.499   1.867   5.957 -1.0713  2.0605 -0.2208
 8239SOL    HW225617   4.477   1.789   5.815 -0.2866 -0.6821  1.0893
 8240SOL     OW25618   3.437   3.180   4.231  0.0666  0.1636  0.6998
 8240SOL    HW125619   3.459   3.179   4.133  0.4361  0.0954  0.7796
 8240SOL    HW225620   3.432   3.085   4.264 -2.6201  0.0594  0.2023
 8241SOL     OW25621   4.226   0.412   3.902  0.5410  0.2033 -0.2996
 8241SOL    HW125622   4.174   0.407   3.987  1.1177  1.0061  0.1209
 8241SOL    HW225623   4.317   0.448   3.921  0.7610  0.1659 -1.2269
 8242SOL     OW25624   1.710   3.288   4.843 -0.3302 -0.0226  0.3447
 8242SOL    HW125625   1.692   3.383   4.819 -0.5596 -0.0337  0.4724
 8242SOL    HW225626   1.795   3.282   4.894 -0.6002  0.1836  0.8268
 8243SOL     OW25627   0.616   4.031   4.241 -0.2829  0.4874  0.0111
 8243SOL    HW125628   0.648   4.070   4.154 -1.1932  1.8160  0.2409
 8243SOL    HW225629   0.557   3.952   4.222 -0.1712  0.5337 -0.5579
 8244SOL     OW25630   3.175   5.028   5.795 -0.0121 -0.2989 -0.1526
 8244SOL    HW125631   3.163   5.011   5.893 -0.7042  1.6187  0.1375
 8244SOL    HW225632   3.253   4.976   5.762  0.0359 -1.2405  1.3343
 8245SOL     OW25633   4.936   3.593   1.501 -0.2806  0.3372  0.3488
 8245SOL    HW125634   4.991   3.524   1.454  0.4024  0.1390  1.4049
 8245SOL    HW225635   4.908   3.663   1.435 -1.1709 -1.0258 -0.7857
 8246SOL     OW25636   5.636   3.253   4.670  0.3918  0.3697 -0.4822
 8246SOL    HW125637   5.722   3.223   4.710  1.5464 -0.0896 -3.0987
 8246SOL    HW225638   5.634   3.353   4.663 -0.2253  0.5215  1.4459
 8247SOL     OW25639   0.300   4.328   0.375  0.1861  0.4816 -0.1491
 8247SOL    HW125640   0.386   4.286   0.345 -1.9985 -3.4392 -1.6930
 8247SOL    HW225641   0.286   4.308   0.472 -0.2369 -1.6233 -0.5758
 8248SOL     OW25642   5.814   4.175   1.638  0.0081  0.4819 -0.5558
 8248SOL    HW125643   5.791   4.096   1.696 -2.0673 -0.2430 -2.2357
 8248SOL    HW225644   5.775   4.258   1.677  1.7424  0.6339  0.9429
 8249SOL     OW25645   6.223   0.412   3.533  0.0975 -1.1508  0.6539
 8249SOL    HW125646   6.255   0.478   3.464  3.2469 -0.7908  2.3040
 8249SOL    HW225647   6.211   0.323   3.489 -0.6154 -0.3617 -0.8639
 8250SOL     OW25648   4.028   4.861   1.098  0.2558  0.6446 -0.3964
 8250SOL    HW125649   4.055   4.827   1.188 -0.2657  1.8928  0.2729
 8250SOL    HW225650   4.100   4.919   1.061  1.8928 -2.3888 -2.3081
 8251SOL     OW25651   5.873   0.426   4.780  0.0039  0.3298 -0.2415
 8251SOL    HW125652   5.845   0.419   4.685  2.8864 -1.2298 -1.0956
 8251SOL    HW225653   5.812   0.370   4.837  0.4621 -1.8490 -1.7811
 8252SOL     OW25654   1.179   5.165   4.537  0.3363  0.1869  0.0913
 8252SOL    HW125655   1.257   5.221   4.508  0.8096 -1.2084 -1.4737
 8252SOL    HW225656   1.105   5.174   4.471 -0.1315  0.0844  0.5992
 8253SOL     OW25657   3.654   1.653   5.838  0.1660  0.2673 -0.2052
 8253SOL    HW125658   3.570   1.695   5.802  0.1690  0.2887 -0.1863
 8253SOL    HW225659   3.632   1.563   5.877  0.6656 -1.4329 -3.4411
 8254SOL     OW25660   3.946   4.675   0.906 -0.2877 -0.3352 -0.4654
 8254SOL    HW125661   3.984   4.739   0.973 -2.0314  2.2870 -1.8400
 8254SOL    HW225662   3.884   4.611   0.953 -1.4728  1.4295  0.4877
 8255SOL     OW25663   4.894   6.111   4.602 -0.2280  0.2998 -0.1119
 8255SOL    HW125664   4.988   6.136   4.579 -0.1081 -0.2128 -0.1867
 8255SOL    HW225665   4.895   6.033   4.665 -0.6099  0.0175 -0.4517
 8256SOL     OW25666   5.145   0.678   3.287  0.7842 -0.4612 -0.1731
 8256SOL    HW125667   5.178   0.684   3.381  0.9447 -1.5538 -0.1497
 8256SOL    HW225668   5.045   0.674   3.287  0.7877 -0.5431 -0.0395
 8257SOL     OW25669   4.961   3.447   4.887 -0.6376  0.0899  0.7213
 8257SOL    HW125670   4.901   3.408   4.819  0.1187 -0.5842  0.4238
 8257SOL    HW225671   4.918   3.528   4.928 -1.0886  0.5241 -0.5659
 8258SOL     OW25672   4.958   1.873   1.062 -0.1702  0.8915 -0.1652
 8258SOL    HW125673   5.052   1.847   1.044 -0.1534  1.7513 -1.4696
 8258SOL    HW225674   4.908   1.796   1.101  0.5442 -0.2367 -1.4073
 8259SOL     OW25675   3.913   0.194   0.579  0.0061  0.0740 -0.0483
 8259SOL    HW125676   3.858   0.261   0.629 -1.6580 -0.9836 -0.3819
 8259SOL    HW225677   3.940   0.232   0.491 -0.7093  0.4113 -0.1314
 8260SOL     OW25678   4.993   5.415   5.585  0.0283 -0.5951 -0.3870
 8260SOL    HW125679   5.055   5.430   5.662  0.2754  0.0510 -0.7118
 8260SOL    HW225680   4.901   5.396   5.620 -0.3975  1.9531  0.0682
 8261SOL     OW25681   4.429   6.733   2.990  0.1575 -0.0483  0.3875
 8261SOL    HW125682   4.354   6.724   3.057 -0.7536 -2.5600 -0.8386
 8261SOL    HW225683   4.390   6.747   2.899  1.1989 -0.8198 -0.1865
 8262SOL     OW25684   5.995   0.514   1.853  0.1727  0.0019 -0.0752
 8262SOL    HW125685   6.063   0.496   1.782  0.6723 -0.3525  0.4807
 8262SOL    HW225686   5.971   0.428   1.898  0.6917  0.3641  0.9131
 8263SOL     OW25687   4.936   2.744   0.672 -0.6777  0.0514  0.3660
 8263SOL    HW125688   4.975   2.652   0.673 -1.0837 -0.1676 -1.3368
 8263SOL    HW225689   4.994   2.805   0.618  0.7152  1.3837  3.1663
 8264SOL     OW25690   1.111   3.069   1.946 -0.2416  0.0197  0.4823
 8264SOL    HW125691   1.079   3.001   2.012 -0.8989 -0.9221 -0.7707
 8264SOL    HW225692   1.084   3.042   1.854  2.5423  0.1389 -0.4818
 8265SOL     OW25693   1.185   0.872   4.724 -0.3161  0.8269 -0.2565
 8265SOL    HW125694   1.111   0.813   4.693 -0.3559  0.4179  0.6121
 8265SOL    HW225695   1.175   0.891   4.821  0.6591  0.8579 -0.1477
 8266SOL     OW25696   3.062   1.084   3.426 -0.3919  0.5446 -0.3163
 8266SOL    HW125697   3.063   1.100   3.327 -1.9724  0.9729 -0.2898
 8266SOL    HW225698   3.154   1.098   3.463  0.3380 -0.1129 -1.7837
 8267SOL     OW25699   0.120   3.457   2.959 -0.1022  0.2401 -0.2024
 8267SOL    HW125700   0.118   3.414   2.869  0.8755  2.2924 -1.2614
 8267SOL    HW225701   0.091   3.390   3.028  0.7791 -1.9120 -1.7968
 8268SOL     OW25702   2.591   2.604   6.507 -0.2838  0.1709 -0.0485
 8268SOL    HW125703   2.589   2.628   6.604 -0.3701 -1.0626  0.2680
 8268SOL    HW225704   2.497   2.605   6.470 -0.3395 -0.1411  0.0829
 8269SOL     OW25705   7.013   1.375   6.472  0.2269  0.0775 -0.2756
 8269SOL    HW125706   7.070   1.293   6.474 -1.0777 -0.8683 -0.3957
 8269SOL    HW225707   6.983   1.392   6.378 -1.8413 -1.0290  0.1294
 8270SOL     OW25708   2.143   5.325   3.534  0.3413 -0.6871 -0.0588
 8270SOL    HW125709   2.193   5.388   3.474 -1.4874 -0.2510 -1.1848
 8270SOL    HW225710   2.140   5.362   3.626 -0.9171  1.0482 -0.7588
 8271SOL     OW25711   5.244   1.156   2.980  0.3663 -0.0104 -0.1015
 8271SOL    HW125712   5.156   1.116   2.953 -0.5409  0.4067  2.0612
 8271SOL    HW225713   5.231   1.214   3.061  2.5592  0.5041 -0.0543
 8272SOL     OW25714   3.408   2.685   5.425 -0.3056  0.5422 -0.4106
 8272SOL    HW125715   3.319   2.679   5.469  0.4132 -4.8409  0.9737
 8272SOL    HW225716   3.476   2.714   5.492 -0.2639 -0.7577  0.1334
 8273SOL     OW25717   6.665   6.521   0.114  0.0223  0.4394 -0.6816
 8273SOL    HW125718   6.667   6.453   0.187  1.1616 -0.6172 -1.6486
 8273SOL    HW225719   6.580   6.574   0.120 -0.0013  0.2424  1.2501
 8274SOL     OW25720   6.645   4.067   3.130 -0.3058  0.0575  0.0754
 8274SOL    HW125721   6.605   3.977   3.145 -0.8641  0.3046  0.0974
 8274SOL    HW225722   6.740   4.057   3.101 -0.7982 -0.5865 -1.4196
 8275SOL     OW25723   6.733   2.508   1.092 -0.3915 -0.1556  0.1865
 8275SOL    HW125724   6.687   2.519   1.180 -0.1873  3.0017  0.0047
 8275SOL    HW225725   6.829   2.485   1.109 -0.3744  0.3220  0.7940
 8276SOL     OW25726   1.501   2.444   2.916 -0.1451  0.4642  0.7307
 8276SOL    HW125727   1.571   2.377   2.943 -1.9783 -0.9317  2.3022
 8276SOL    HW225728   1.492   2.445   2.816  0.7368 -0.7896  0.6198
 8277SOL     OW25729   6.511   1.562   1.171  0.1086 -0.0233  0.5800
 8277SOL    HW125730   6.432   1.611   1.135 -1.5812 -2.1533  1.1463
 8277SOL    HW225731   6.504   1.555   1.271  0.2714 -1.3771  0.5155
 8278SOL     OW25732   1.517   3.355   5.386 -0.3383  0.1880 -0.0411
 8278SOL    HW125733   1.568   3.417   5.447 -1.5796  0.6856  0.5164
 8278SOL    HW225734   1.517   3.263   5.424  1.4012 -0.1843 -0.8050
 8279SOL     OW25735   0.874   6.378   2.660 -0.3829 -0.0819 -0.4000
 8279SOL    HW125736   0.862   6.473   2.690  0.0134  0.2160 -1.1822
 8279SOL    HW225737   0.787   6.330   2.671 -0.5032  0.2719  0.3161
 8280SOL     OW25738   3.789   2.709   6.694  0.4954  0.0153  0.4245
 8280SOL    HW125739   3.761   2.795   6.737  0.7563 -0.1619  0.9573
 8280SOL    HW225740   3.790   2.721   6.595 -0.9856  0.1644  0.4032
 8281SOL     OW25741   2.178   5.667   2.462  0.4985  0.0599  0.0152
 8281SOL    HW125742   2.218   5.758   2.451  0.0915  0.1521 -0.8223
 8281SOL    HW225743   2.127   5.663   2.547  1.4951  0.2385  0.6315
 8282SOL     OW25744   0.016   2.701   5.450  0.1776  0.3346  0.5520
 8282SOL    HW125745  -0.024   2.650   5.374  0.6437 -0.0009  0.5221
 8282SOL    HW225746  -0.022   2.793   5.453  0.4775  0.4918 -0.3460
 8283SOL     OW25747   1.430   2.969   6.344  0.0310  0.2129  0.2260
 8283SOL    HW125748   1.486   2.996   6.266 -0.4778 -0.0287 -0.2254
 8283SOL    HW225749   1.489   2.956   6.424  0.6563 -0.2485 -0.2968
 8284SOL     OW25750   6.493   3.862   0.924 -0.4762 -0.1059 -0.4097
 8284SOL    HW125751   6.492   3.824   1.016 -0.9361  2.2776  0.6369
 8284SOL    HW225752   6.533   3.796   0.861  0.5184 -1.5168  1.6122
 8285SOL     OW25753   3.751   4.193   4.860 -0.0512 -0.0008 -0.4572
 8285SOL    HW125754   3.784   4.211   4.953  1.4771  0.8789 -1.1360
 8285SOL    HW225755   3.811   4.126   4.816 -0.5201 -0.1049 -0.9438
 8286SOL     OW25756   1.868   4.511   5.811  0.4583 -0.3744  0.5609
 8286SOL    HW125757   1.922   4.587   5.848  1.0977 -0.6609  0.2279
 8286SOL    HW225758   1.923   4.428   5.811 -0.7891 -1.2788  2.6097
 8287SOL     OW25759   1.481   6.477   3.829 -0.0690  0.0077 -0.2418
 8287SOL    HW125760   1.465   6.407   3.899 -1.7871 -0.0533 -0.6528
 8287SOL    HW225761   1.505   6.563   3.874  0.1745 -0.3667  0.3651
 8288SOL     OW25762   3.677   6.896   3.031 -0.2440 -0.3349 -0.2307
 8288SOL    HW125763   3.623   6.962   3.083  0.6592  0.7498 -0.6355
 8288SOL    HW225764   3.656   6.904   2.934 -1.8399 -2.2745 -0.1091
 8289SOL     OW25765   0.746   6.936   0.177  0.3484 -0.1939  0.4712
 8289SOL    HW125766   0.655   6.917   0.215 -0.3334  0.3442 -0.8067
 8289SOL    HW225767   0.786   6.851   0.141 -0.5670 -0.1218 -0.8089
 8290SOL     OW25768   0.109   1.451   1.928 -0.0708  0.3400 -0.3780
 8290SOL    HW125769   0.060   1.517   1.870  2.9394  1.2449 -2.0619
 8290SOL    HW225770   0.152   1.500   2.004  1.4709  0.2168 -1.1524
 8291SOL     OW25771   3.759   0.848   1.166  0.2024 -0.8486 -0.0209
 8291SOL    HW125772   3.662   0.865   1.179  0.1266 -1.1479 -0.1779
 8291SOL    HW225773   3.802   0.927   1.121  0.0518 -0.6811  0.1285
 8292SOL     OW25774   3.765   6.437   6.429 -0.2057  0.6713 -0.0818
 8292SOL    HW125775   3.775   6.433   6.330  1.0992 -1.0188  0.0846
 8292SOL    HW225776   3.679   6.483   6.452 -1.0612  0.1157 -2.0033
 8293SOL     OW25777   6.807   4.117   5.116 -0.3688 -0.0393 -0.3994
 8293SOL    HW125778   6.735   4.178   5.149  0.9313 -0.0013  2.6872
 8293SOL    HW225779   6.896   4.151   5.146  0.7618 -1.4004 -1.9949
 8294SOL     OW25780   5.629   1.117   2.431  0.6881 -0.1153  0.5452
 8294SOL    HW125781   5.694   1.186   2.465 -1.7856  3.3753 -1.1920
 8294SOL    HW225782   5.548   1.116   2.490 -0.0038 -0.3092 -0.3952
 8295SOL     OW25783   4.823   6.893   6.277  0.5182 -0.4286 -0.0754
 8295SOL    HW125784   4.760   6.968   6.300 -0.9828 -0.8938 -2.3613
 8295SOL    HW225785   4.835   6.835   6.358 -0.7993  0.5096  0.8595
 8296SOL     OW25786   0.394   3.988   5.362  0.0419  0.6193 -0.3121
 8296SOL    HW125787   0.416   3.896   5.395  0.0304  0.9572  0.6970
 8296SOL    HW225788   0.314   3.985   5.302  1.3397 -0.3064 -2.0724
 8297SOL     OW25789   2.449   4.530   4.938  0.6528 -0.1942  0.4326
 8297SOL    HW125790   2.397   4.458   4.890 -1.8418  1.4302  0.4889
 8297SOL    HW225791   2.437   4.519   5.036  2.1911 -0.9873  0.5640
 8298SOL     OW25792   4.893   2.825   1.684 -0.1194  0.1525 -0.1774
 8298SOL    HW125793   4.897   2.919   1.717 -0.6262  0.1095  0.0269
 8298SOL    HW225794   4.808   2.783   1.716  0.2390 -0.4655 -0.0295
 8299SOL     OW25795   1.103   2.613   2.396 -0.3061 -0.3986 -0.2122
 8299SOL    HW125796   1.151   2.604   2.483  2.8801 -0.8995 -1.8847
 8299SOL    HW225797   1.150   2.559   2.326 -2.5857  0.1932 -2.3480
 8300SOL     OW25798   1.881   6.348   3.035 -0.0684 -0.4058  0.2594
 8300SOL    HW125799   1.910   6.255   3.013 -0.5829 -0.4331 -0.3406
 8300SOL    HW225800   1.783   6.349   3.053 -0.3360  0.2267 -1.0653
 8301SOL     OW25801   3.715   0.120   6.071  0.0023  0.1813  0.2219
 8301SOL    HW125802   3.738   0.119   6.168  2.6509 -0.3740 -0.3236
 8301SOL    HW225803   3.786   0.170   6.021 -1.5626  0.8788 -1.3991
 8302SOL     OW25804   7.006   6.277   4.539  0.0843  0.5293 -0.1763
 8302SOL    HW125805   7.096   6.303   4.504 -0.8090  1.4333 -1.9713
 8302SOL    HW225806   6.936   6.331   4.493 -1.4644 -0.9079  0.3857
 8303SOL     OW25807   0.714   0.598   6.882  0.1436 -0.0196  0.3154
 8303SOL    HW125808   0.672   0.593   6.792 -2.5670  0.4239  1.4627
 8303SOL    HW225809   0.676   0.525   6.940  1.3936  0.0736  1.3003
 8304SOL     OW25810   0.829   3.580   6.076 -0.0977 -0.0456  0.0080
 8304SOL    HW125811   0.892   3.541   6.009  0.5790  0.0990  0.5503
 8304SOL    HW225812   0.796   3.507   6.137 -0.9929 -0.2418 -0.6856
 8305SOL     OW25813   0.819   5.221   2.798 -0.0679 -0.2712  0.2217
 8305SOL    HW125814   0.735   5.267   2.829 -0.6893 -1.5384  0.4697
 8305SOL    HW225815   0.840   5.252   2.705  0.0938  1.2446  0.7254
 8306SOL     OW25816   0.447   1.373   0.409 -0.0163  0.1411 -0.2199
 8306SOL    HW125817   0.471   1.380   0.312  0.8773 -0.1333 -0.0369
 8306SOL    HW225818   0.393   1.290   0.424  1.3835 -0.8189 -0.2284
 8307SOL     OW25819   3.560   1.616   3.990  0.0638  0.8590 -0.3889
 8307SOL    HW125820   3.589   1.535   4.040 -1.9304 -0.4164 -1.1624
 8307SOL    HW225821   3.629   1.640   3.921  0.7218 -0.1266 -0.0909
 8308SOL     OW25822   2.687   1.668   1.203  0.8835 -0.0292 -0.7888
 8308SOL    HW125823   2.633   1.730   1.146  0.9059 -0.4753 -1.3075
 8308SOL    HW225824   2.777   1.709   1.221  0.8061  0.1988 -0.9155
 8309SOL     OW25825   5.079   5.427   3.931 -0.0552 -0.1318  0.0563
 8309SOL    HW125826   5.147   5.484   3.977 -0.3554  0.3781 -0.1203
 8309SOL    HW225827   5.045   5.475   3.849  0.3130 -0.9250 -0.5790
 8310SOL     OW25828   6.845   5.076   5.772 -0.0779  0.0305 -0.6469
 8310SOL    HW125829   6.817   4.980   5.774 -1.2502  0.3513  1.3117
 8310SOL    HW225830   6.932   5.085   5.725  0.1307 -2.0199 -0.7169
 8311SOL     OW25831   6.170   0.427   5.802 -0.3841 -0.2197  0.1898
 8311SOL    HW125832   6.249   0.382   5.844 -1.3498 -0.7827  1.4725
 8311SOL    HW225833   6.197   0.518   5.769  0.1410  0.8777  3.3184
 8312SOL     OW25834   2.827   5.570   1.498  0.1087 -0.0358 -0.8845
 8312SOL    HW125835   2.734   5.595   1.471 -0.0973  0.8442  0.5216
 8312SOL    HW225836   2.856   5.489   1.447 -1.3082 -0.1469 -1.5666
 8313SOL     OW25837   3.929   1.068   3.678  0.3194  0.0147 -0.4586
 8313SOL    HW125838   3.954   1.048   3.773  0.5154  1.4200 -0.2002
 8313SOL    HW225839   3.950   1.163   3.657 -3.3863  0.9173 -0.6897
 8314SOL     OW25840   5.541   6.617   5.998 -0.7155 -0.1030  0.4159
 8314SOL    HW125841   5.494   6.605   6.085 -0.9401 -1.0899  0.1720
 8314SOL    HW225842   5.610   6.689   6.007 -0.4338 -0.4948  1.5327
 8315SOL     OW25843   4.900   5.059   0.453  0.1302 -0.5107  0.0279
 8315SOL    HW125844   4.903   5.129   0.383 -0.4095 -2.9031 -2.5723
 8315SOL    HW225845   4.904   5.102   0.544 -1.1173  2.8655 -1.3537
 8316SOL     OW25846   5.189   0.420   4.717  0.2061 -0.1487 -0.1687
 8316SOL    HW125847   5.114   0.486   4.717  0.1138 -0.1945 -2.0489
 8316SOL    HW225848   5.210   0.393   4.811 -0.8251  1.3263  0.5204
 8317SOL     OW25849   1.045   5.977   1.564 -0.2039  0.0815 -0.7659
 8317SOL    HW125850   1.084   5.886   1.576  0.8052  0.6659  0.7143
 8317SOL    HW225851   1.016   5.989   1.469 -0.5714 -1.8465 -0.9411
 8318SOL     OW25852   2.019   2.000   4.974 -0.1846  0.0244 -0.7011
 8318SOL    HW125853   2.043   2.045   5.060 -0.0187  0.3675 -0.9220
 8318SOL    HW225854   2.094   1.941   4.945 -0.7570 -1.0885  0.0361
 8319SOL     OW25855   0.016   5.901   3.424 -0.8098  0.4804  0.8881
 8319SOL    HW125856   0.046   5.818   3.471 -1.0491  1.1934  2.3502
 8319SOL    HW225857   0.080   5.975   3.445 -0.0859  0.4915 -1.1304
 8320SOL     OW25858   3.461   4.826   1.527  0.2194 -0.6190 -0.0411
 8320SOL    HW125859   3.467   4.749   1.464  0.7487 -1.6373  1.2095
 8320SOL    HW225860   3.406   4.799   1.607 -0.7576  0.7619 -0.2229
 8321SOL     OW25861   0.306   1.728   1.655  0.4601 -0.1367  0.0849
 8321SOL    HW125862   0.230   1.667   1.634  0.5230 -0.3332  0.4224
 8321SOL    HW225863   0.350   1.699   1.739  1.5290 -0.6088 -0.6177
 8322SOL     OW25864   3.010   6.626   2.157 -0.1872 -0.5030  0.3204
 8322SOL    HW125865   3.100   6.633   2.201  0.8114  0.2410 -1.7066
 8322SOL    HW225866   2.941   6.606   2.226  1.6705 -2.2572  1.8070
 8323SOL     OW25867   1.455   0.159   0.566 -0.1569 -0.4975 -0.3599
 8323SOL    HW125868   1.483   0.066   0.542  0.2349 -0.3069 -0.6520
 8323SOL    HW225869   1.440   0.165   0.664  0.7101 -0.6371 -0.2155
 8324SOL     OW25870   0.618   2.361   3.824  0.1674  0.1410 -0.4162
 8324SOL    HW125871   0.577   2.386   3.912  1.5153 -0.3815  0.3826
 8324SOL    HW225872   0.572   2.279   3.789  0.1017 -0.0714  0.1544
 8325SOL     OW25873   3.674   4.042   3.666 -0.2798  0.2378  0.3675
 8325SOL    HW125874   3.641   4.065   3.758  0.1133 -2.1231  1.1817
 8325SOL    HW225875   3.597   4.028   3.605 -0.6469 -0.4086  0.9615
 8326SOL     OW25876   2.914   3.241   5.101 -0.0133  0.1534 -0.0172
 8326SOL    HW125877   2.909   3.336   5.131  1.8874  0.5317 -0.8170
 8326SOL    HW225878   2.852   3.186   5.157  0.8166  1.4065  2.2719
 8327SOL     OW25879   6.168   3.081   6.883 -0.8402  0.2752 -0.0593
 8327SOL    HW125880   6.211   3.138   6.813  0.0518 -0.9906 -0.5882
 8327SOL    HW225881   6.201   3.108   6.973  1.2960 -0.7812 -0.4592
 8328SOL     OW25882   2.286   4.273   4.500  0.5355 -0.0929 -0.2510
 8328SOL    HW125883   2.334   4.251   4.415 -1.1359  2.0587 -1.8689
 8328SOL    HW225884   2.263   4.370   4.500 -0.0754 -0.1729  2.4272
 8329SOL     OW25885   0.618   4.505   5.338 -0.2593 -0.7976 -0.8367
 8329SOL    HW125886   0.716   4.515   5.351 -0.0138 -2.4632 -1.1766
 8329SOL    HW225887   0.597   4.410   5.314 -2.1766 -1.0743  1.4927
 8330SOL     OW25888   1.448   6.552   0.682 -0.1961 -0.7219  0.2842
 8330SOL    HW125889   1.499   6.494   0.618 -1.6188 -2.1921  0.3971
 8330SOL    HW225890   1.512   6.607   0.736  1.1728 -1.5207 -0.4580
 8331SOL     OW25891   0.255   2.606   0.587  0.3504 -0.1673 -0.1647
 8331SOL    HW125892   0.352   2.629   0.580  0.6363 -1.0639  0.6123
 8331SOL    HW225893   0.215   2.597   0.496  1.1828 -0.5504 -0.4976
 8332SOL     OW25894   4.284   5.403   3.346 -0.0430 -0.2923 -0.4745
 8332SOL    HW125895   4.215   5.424   3.276 -0.4336  0.4804  0.1274
 8332SOL    HW225896   4.319   5.488   3.385 -0.0767 -0.7170  0.5048
 8333SOL     OW25897   2.211   5.755   5.818  0.4449  0.1672  0.4150
 8333SOL    HW125898   2.145   5.700   5.870 -0.1757 -0.3223 -0.8359
 8333SOL    HW225899   2.207   5.728   5.722  0.9516  1.6310 -0.0341
 8334SOL     OW25900   0.524   6.887   4.363 -0.1725  0.2574 -0.0935
 8334SOL    HW125901   0.545   6.871   4.267  0.2252  0.8421 -0.1139
 8334SOL    HW225902   0.582   6.961   4.398 -0.6719  0.4045  0.4533
 8335SOL     OW25903   5.364   6.166   0.929  0.9314  0.1219  0.1515
 8335SOL    HW125904   5.276   6.202   0.959 -0.3557 -2.0973 -0.7144
 8335SOL    HW225905   5.434   6.238   0.937 -0.8172  1.8056  1.2957
 8336SOL     OW25906   1.149   0.706   1.863  0.0388 -0.0423  0.0529
 8336SOL    HW125907   1.195   0.675   1.780  0.2329 -1.7821  0.7621
 8336SOL    HW225908   1.070   0.762   1.839  1.7971  2.0682 -1.2152
 8337SOL     OW25909   6.028   0.143   2.680 -0.5939 -0.0195  0.0710
 8337SOL    HW125910   6.099   0.205   2.647 -0.9819  0.1548 -0.4528
 8337SOL    HW225911   5.940   0.170   2.640 -1.0386  0.0638  1.0885
 8338SOL     OW25912   2.854   4.541   0.696 -0.2840  0.3124 -0.9651
 8338SOL    HW125913   2.946   4.519   0.663  0.0595  0.0047  0.1494
 8338SOL    HW225914   2.804   4.457   0.716 -1.0809  0.4592 -2.2210
 8339SOL     OW25915   5.256   6.031   2.739 -0.3644  0.2495 -0.1798
 8339SOL    HW125916   5.202   6.112   2.722 -0.7194  0.2023  0.6657
 8339SOL    HW225917   5.198   5.950   2.734 -0.2677  0.1537  0.1902
 8340SOL     OW25918   6.569   4.116   1.283  0.8595  0.1494 -0.4057
 8340SOL    HW125919   6.641   4.179   1.253  2.4139 -1.2732  0.1814
 8340SOL    HW225920   6.585   4.092   1.379 -0.0029 -0.7489 -0.4795
 8341SOL     OW25921   0.930   1.222   6.570 -0.5183 -0.0551 -0.0097
 8341SOL    HW125922   0.884   1.165   6.502  1.4884 -1.2544 -0.4322
 8341SOL    HW225923   1.024   1.190   6.582 -0.5090  0.7209  2.6291
 8342SOL     OW25924   5.499   6.576   1.095  0.6333 -0.0782  0.1704
 8342SOL    HW125925   5.584   6.599   1.142  1.4036 -0.5781 -0.9256
 8342SOL    HW225926   5.439   6.527   1.157  1.6141 -0.7105  0.6435
 8343SOL     OW25927   6.245   3.604   3.857 -0.1902  0.4723  0.4273
 8343SOL    HW125928   6.177   3.532   3.857 -1.7767  1.9078  0.5889
 8343SOL    HW225929   6.255   3.641   3.950  0.2064  0.8170  0.2542
 8344SOL     OW25930   4.269   1.495   4.917  0.8785 -0.0312 -0.2531
 8344SOL    HW125931   4.313   1.553   4.849  1.2881 -1.3094 -1.1299
 8344SOL    HW225932   4.336   1.469   4.987  0.0151  2.8241  1.8096
 8345SOL     OW25933   0.101   1.328   2.361  0.4425 -0.6763 -0.7148
 8345SOL    HW125934   0.192   1.285   2.360  0.3590 -0.8591 -0.5282
 8345SOL    HW225935   0.053   1.302   2.444  0.5860  0.1959 -0.3497
 8346SOL     OW25936   3.864   5.073   1.833  0.2467  0.2899 -0.8119
 8346SOL    HW125937   3.780   5.030   1.801  0.8516 -1.9272  0.3071
 8346SOL    HW225938   3.936   5.060   1.764  0.2705  0.0229 -0.7394
 8347SOL     OW25939   3.037   5.416   3.871 -0.6300 -0.4856 -0.1340
 8347SOL    HW125940   3.035   5.463   3.959  2.1846 -1.7310  0.6949
 8347SOL    HW225941   2.977   5.336   3.875 -2.3609  0.7405 -0.2290
 8348SOL     OW25942   3.685   0.343   2.867  0.6368  0.3166 -0.0514
 8348SOL    HW125943   3.594   0.385   2.874  0.9300  1.2473 -1.3634
 8348SOL    HW225944   3.713   0.309   2.957 -0.7006  0.6580  0.5231
 8349SOL     OW25945   0.516   6.271   3.378 -0.0028 -0.3547  0.1571
 8349SOL    HW125946   0.576   6.252   3.300 -0.5721 -0.0367 -0.3714
 8349SOL    HW225947   0.443   6.202   3.382 -0.4772  0.1231 -0.1182
 8350SOL     OW25948   6.914   0.922   3.372  0.9042 -0.1953 -0.9710
 8350SOL    HW125949   6.943   0.992   3.307  2.9437  1.1065  1.1801
 8350SOL    HW225950   6.994   0.871   3.404  0.2206  0.2369  1.6145
 8351SOL     OW25951   1.838   6.322   0.972  0.4369 -0.3311  0.0578
 8351SOL    HW125952   1.898   6.252   0.935 -1.2753 -1.6533 -0.3370
 8351SOL    HW225953   1.744   6.288   0.974  0.0127  0.7229  2.9698
 8352SOL     OW25954   5.009   4.833   3.040  0.3466 -0.1832 -0.2937
 8352SOL    HW125955   4.949   4.784   2.977  0.3325  0.6600 -0.9510
 8352SOL    HW225956   5.067   4.768   3.089  0.6652 -0.8103 -1.4860
 8353SOL     OW25957   2.117   2.749   1.698 -0.1030  0.0918  0.3322
 8353SOL    HW125958   2.131   2.832   1.751 -0.5183  1.5441 -1.7086
 8353SOL    HW225959   2.050   2.691   1.744  0.3217  0.7950  1.8834
 8354SOL     OW25960   2.019   6.313   1.849 -0.0051 -0.1301 -0.4144
 8354SOL    HW125961   2.038   6.261   1.766 -1.1668 -3.0251  1.0002
 8354SOL    HW225962   2.103   6.320   1.903  0.2420 -0.2597 -0.7758
 8355SOL     OW25963   1.673   2.189   0.420 -0.2497 -0.3928  0.4003
 8355SOL    HW125964   1.659   2.140   0.335 -0.1035 -0.5866  0.4884
 8355SOL    HW225965   1.751   2.151   0.469  0.5505  0.6236 -0.0473
 8356SOL     OW25966   2.138   4.275   0.279 -0.0160  0.5705  0.3985
 8356SOL    HW125967   2.192   4.210   0.333  0.4643 -0.0724 -0.8215
 8356SOL    HW225968   2.189   4.360   0.270  0.4764  0.2314 -0.1085
 8357SOL     OW25969   4.172   6.435   3.554 -0.0732 -0.2816 -0.3891
 8357SOL    HW125970   4.214   6.502   3.616  0.1874 -0.3003 -0.5454
 8357SOL    HW225971   4.243   6.388   3.503 -0.3460  0.6886 -1.7021
 8358SOL     OW25972   3.751   0.382   5.335  0.4191 -0.3524 -1.2759
 8358SOL    HW125973   3.682   0.454   5.327 -1.2956 -1.3694  2.2609
 8358SOL    HW225974   3.842   0.423   5.340 -0.2585  1.3358 -1.9090
 8359SOL     OW25975   2.806   4.820   4.691 -0.2316 -0.6848  0.2410
 8359SOL    HW125976   2.823   4.747   4.625 -1.5452 -1.0496  0.2686
 8359SOL    HW225977   2.760   4.782   4.772 -0.3189  0.0577  0.5497
 8360SOL     OW25978   4.902   6.521   5.035  0.5703 -0.2977 -0.1133
 8360SOL    HW125979   4.969   6.551   4.966 -0.7204  0.0923 -1.2370
 8360SOL    HW225980   4.810   6.528   4.997 -0.1336 -0.7094  1.4542
 8361SOL     OW25981   2.439   0.821   3.107  0.2615 -0.4709  0.4343
 8361SOL    HW125982   2.380   0.776   3.174  0.4305  2.0197  2.3795
 8361SOL    HW225983   2.383   0.863   3.035 -0.0966 -0.8223  0.5033
 8362SOL     OW25984   2.210   2.104   0.604  0.2845  0.3345  0.1332
 8362SOL    HW125985   2.256   2.161   0.672 -0.1947  2.4534 -1.2531
 8362SOL    HW225986   2.272   2.084   0.529 -0.7484  2.7025 -1.4506
 8363SOL     OW25987   5.970   2.572   2.847 -0.1272 -0.2629 -0.1064
 8363SOL    HW125988   5.992   2.634   2.922 -0.2841 -0.6745  0.2892
 8363SOL    HW225989   5.883   2.526   2.867 -0.5883  0.2282 -0.9312
 8364SOL     OW25990   1.326   5.762   3.701 -0.1123  0.4973 -0.0141
 8364SOL    HW125991   1.346   5.847   3.750  0.3544 -0.1604  0.9855
 8364SOL    HW225992   1.362   5.685   3.753  0.0014 -0.2746 -1.2008
 8365SOL     OW25993   1.068   4.419   5.503 -0.8559  0.1005  0.0382
 8365SOL    HW125994   1.056   4.325   5.469 -1.3646  1.0421 -2.6992
 8365SOL    HW225995   1.013   4.481   5.446  1.1625  2.2974  0.3577
 8366SOL     OW25996   0.024   0.776   0.572  0.2755  0.2544 -0.0939
 8366SOL    HW125997   0.017   0.876   0.560 -0.9395  0.5011  2.1820
 8366SOL    HW225998   0.116   0.754   0.605  1.0065  0.4177 -1.8915
 8367SOL     OW25999   4.778   6.219   4.036 -0.0175  0.2430 -0.1380
 8367SOL    HW126000   4.870   6.195   4.007  1.2829  1.5305  2.5490
 8367SOL    HW226001   4.721   6.137   4.036  2.0178 -1.2747  1.0579
 8368SOL     OW26002   3.625   5.587   6.543 -0.2164 -0.0146 -0.6240
 8368SOL    HW126003   3.554   5.525   6.577 -0.2761  0.2608 -0.2456
 8368SOL    HW226004   3.676   5.625   6.620 -1.3494  1.7984 -0.7038
 8369SOL     OW26005   1.592   0.122   2.133  0.2605 -0.0563  0.0052
 8369SOL    HW126006   1.536   0.204   2.132  1.2960  0.6599 -0.2515
 8369SOL    HW226007   1.624   0.101   2.041 -0.3231 -0.9968 -0.0065
 8370SOL     OW26008   3.297   0.305   0.841 -0.2381 -0.0005 -0.1460
 8370SOL    HW126009   3.226   0.252   0.888  0.2242 -1.1995 -0.7602
 8370SOL    HW226010   3.387   0.275   0.872  0.0315  0.7076 -0.2232
 8371SOL     OW26011   1.979   2.149   6.165 -0.3779  0.0197 -0.4749
 8371SOL    HW126012   2.071   2.173   6.134 -0.1528 -0.0049  0.1514
 8371SOL    HW226013   1.950   2.063   6.123 -1.7290  1.9282 -3.8413
 8372SOL     OW26014   5.229   0.334   1.709 -0.4493 -0.5477 -0.6339
 8372SOL    HW126015   5.218   0.247   1.756 -1.1914 -0.5349 -0.7866
 8372SOL    HW226016   5.225   0.409   1.776  1.0742 -0.6570 -0.3739
 8373SOL     OW26017   0.473   6.462   3.089 -0.0705  0.8091 -0.1291
 8373SOL    HW126018   0.425   6.375   3.086 -0.5927  1.0932 -0.3461
 8373SOL    HW226019   0.494   6.486   3.183  0.4904  0.2336 -0.1012
 8374SOL     OW26020   7.004   1.359   0.910 -0.3153  0.2688  0.5038
 8374SOL    HW126021   7.094   1.393   0.882 -0.3089 -0.3933 -0.3193
 8374SOL    HW226022   6.938   1.375   0.835  0.2761 -3.9763 -1.1615
 8375SOL     OW26023   3.483   1.132   5.533 -0.2541  0.0228  1.0277
 8375SOL    HW126024   3.525   1.201   5.592  0.1033 -0.3175  1.1737
 8375SOL    HW226025   3.485   1.043   5.579 -2.3357  0.2263  1.6243
 8376SOL     OW26026   6.637   0.298   4.042 -0.5251 -0.6898  0.1353
 8376SOL    HW126027   6.567   0.248   4.093 -0.7786 -0.6944 -0.2104
 8376SOL    HW226028   6.704   0.233   4.004 -1.0592 -0.8123 -0.6238
 8377SOL     OW26029   4.598   4.552   0.962 -0.5362 -0.2580 -0.1934
 8377SOL    HW126030   4.697   4.547   0.945 -0.4180 -1.0959  0.6620
 8377SOL    HW226031   4.582   4.589   1.054 -1.0657  1.1755 -0.8412
 8378SOL     OW26032   6.822   1.255   3.366 -0.3784 -0.3995  0.9043
 8378SOL    HW126033   6.809   1.347   3.403  1.4492  0.1525  0.2806
 8378SOL    HW226034   6.777   1.248   3.278 -0.2118  0.0268  0.7837
 8379SOL     OW26035   6.576   2.414   3.086 -0.1157  0.0965 -0.2493
 8379SOL    HW126036   6.675   2.419   3.096 -0.2958  1.6700  1.1849
 8379SOL    HW226037   6.532   2.454   3.166 -1.9335 -0.0140 -1.1268
 8380SOL     OW26038   5.705   2.807   3.207 -0.3146  0.0652  0.4194
 8380SOL    HW126039   5.672   2.806   3.302 -0.3302  0.6961  0.4231
 8380SOL    HW226040   5.638   2.853   3.149  0.6993  1.6686  0.4789
 8381SOL     OW26041   1.547   5.415   4.866  0.1354  0.0249 -0.0712
 8381SOL    HW126042   1.518   5.414   4.770  1.6126  0.9689 -0.5632
 8381SOL    HW226043   1.624   5.479   4.877  1.6307 -1.8747  1.2493
 8382SOL     OW26044   1.556   2.734   1.245  0.2460  0.1320  0.0933
 8382SOL    HW126045   1.497   2.770   1.173  2.6823  1.8785 -1.1666
 8382SOL    HW226046   1.568   2.636   1.233 -1.5549 -0.1029 -0.1612
 8383SOL     OW26047   3.790   2.597   5.726  0.5807  0.6129 -0.0463
 8383SOL    HW126048   3.727   2.664   5.766 -0.2413 -0.4631  0.5215
 8383SOL    HW226049   3.816   2.530   5.796 -0.8793 -1.3144 -1.2423
 8384SOL     OW26050   6.876   6.362   2.674  0.1675 -0.5724 -0.2551
 8384SOL    HW126051   6.887   6.334   2.579 -1.0370  1.1246 -0.9382
 8384SOL    HW226052   6.922   6.450   2.689 -0.4513 -0.3600  0.4749
 8385SOL     OW26053   5.190   1.265   1.070  0.1251 -0.2569  0.2419
 8385SOL    HW126054   5.172   1.315   1.155  0.4850 -1.4432  1.0342
 8385SOL    HW226055   5.273   1.302   1.027  0.0592  0.2075  0.5000
 8386SOL     OW26056   5.843   1.271   2.503 -0.2758 -0.3739  0.4566
 8386SOL    HW126057   5.880   1.286   2.595  0.3509 -0.5827  0.2471
 8386SOL    HW226058   5.803   1.356   2.469  0.4408 -0.0004  0.5146
 8387SOL     OW26059   1.911   4.245   1.415  0.0883  0.6396  0.3487
 8387SOL    HW126060   1.978   4.176   1.444 -0.4719  0.4827  1.3293
 8387SOL    HW226061   1.926   4.330   1.466  0.4772  1.1004 -0.5160
 8388SOL     OW26062   1.393   6.751   4.596 -0.6225  0.3824  0.9058
 8388SOL    HW126063   1.479   6.711   4.629 -0.6987 -0.4346  0.1553
 8388SOL    HW226064   1.383   6.843   4.633 -0.2357 -0.1191  2.3665
 8389SOL     OW26065   6.236   2.411   2.939  0.2399 -0.2085  0.5491
 8389SOL    HW126066   6.189   2.363   2.866 -0.7976  0.3601  0.8205
 8389SOL    HW226067   6.170   2.465   2.991  1.1633  0.4141  1.1015
 8390SOL     OW26068   1.335   2.008   6.498 -0.1060  0.4054  0.3929
 8390SOL    HW126069   1.267   2.075   6.528  0.6892  1.6623 -0.4921
 8390SOL    HW226070   1.393   2.049   6.427  0.5154 -1.1821 -0.0646
 8391SOL     OW26071   0.190   6.957   1.144 -0.4696  0.3774 -0.8320
 8391SOL    HW126072   0.254   7.029   1.174  0.6881 -1.1557  0.5605
 8391SOL    HW226073   0.182   6.960   1.045  2.1670  0.3580 -1.1275
 8392SOL     OW26074   3.123   3.102   3.750  0.3011 -0.0414  0.2356
 8392SOL    HW126075   3.135   3.143   3.841 -1.2436 -1.3115  1.0825
 8392SOL    HW226076   3.175   3.017   3.745  2.5116  1.3197 -1.0706
 8393SOL     OW26077   6.776   1.252   2.461 -0.2165  0.0604  0.8774
 8393SOL    HW126078   6.858   1.226   2.512 -0.4804  1.0280  1.8453
 8393SOL    HW226079   6.749   1.178   2.399  1.3261 -0.2975  0.6144
 8394SOL     OW26080   4.909   3.762   1.735  0.1168  0.2808 -1.0249
 8394SOL    HW126081   4.881   3.834   1.671 -1.5237 -1.2044 -2.0823
 8394SOL    HW226082   4.892   3.672   1.694 -1.3208 -0.7517  1.5919
 8395SOL     OW26083   0.802   0.431   5.495  0.0368 -0.0935 -0.2103
 8395SOL    HW126084   0.805   0.456   5.398 -0.9212 -1.4342 -0.6252
 8395SOL    HW226085   0.861   0.492   5.547 -0.9807  1.9799 -1.3350
 8396SOL     OW26086   5.645   4.655   4.171 -1.0184  0.2817 -0.1879
 8396SOL    HW126087   5.658   4.556   4.173 -1.6477  0.2033  1.5288
 8396SOL    HW226088   5.598   4.680   4.086  0.0878 -0.7415 -1.1292
 8397SOL     OW26089   5.804   6.211   3.454 -0.1538  0.2276 -0.4569
 8397SOL    HW126090   5.790   6.136   3.389  0.3603 -0.7863  0.5526
 8397SOL    HW226091   5.736   6.282   3.439 -0.6784 -0.4543 -1.4265
 8398SOL     OW26092   4.160   1.642   0.165  0.2050 -0.0438 -0.1841
 8398SOL    HW126093   4.231   1.656   0.234  1.9403 -0.1472 -1.8961
 8398SOL    HW226094   4.138   1.544   0.161 -2.6960  0.3012  2.7921
 8399SOL     OW26095   0.774   3.567   3.916 -0.0984 -0.4694  0.1034
 8399SOL    HW126096   0.762   3.637   3.846  0.3639  1.0875  1.5181
 8399SOL    HW226097   0.701   3.500   3.909 -1.1964  0.7637 -0.6043
 8400SOL     OW26098   0.297   0.028   4.867  0.1279  0.3270  0.4413
 8400SOL    HW126099   0.392   0.004   4.848  0.6975  1.7342  1.3645
 8400SOL    HW226100   0.263   0.089   4.796 -0.4919 -1.0586 -0.5073
 8401SOL     OW26101   0.551   2.494   4.443 -0.4026  0.0299  0.3418
 8401SOL    HW126102   0.627   2.433   4.423 -2.0361 -1.2684 -2.5872
 8401SOL    HW226103   0.566   2.582   4.400 -0.7807 -0.4414 -0.7953
 8402SOL     OW26104   4.401   0.327   4.343  0.2408 -0.0666  0.0218
 8402SOL    HW126105   4.350   0.411   4.328  0.5777  0.0726 -0.3471
 8402SOL    HW226106   4.462   0.339   4.421  1.0985  0.4042 -0.7143
 8403SOL     OW26107   6.516   4.588   6.346  0.1748  0.4323 -0.2196
 8403SOL    HW126108   6.568   4.508   6.315  2.1927  1.1588  1.0604
 8403SOL    HW226109   6.510   4.655   6.272 -1.5954 -0.8718 -1.3275
 8404SOL     OW26110   0.401   2.067   6.717  0.2706  0.6218 -0.2276
 8404SOL    HW126111   0.350   2.148   6.746 -1.4148 -0.9581  1.5295
 8404SOL    HW226112   0.349   2.018   6.647  0.5374  0.2650 -0.1793
 8405SOL     OW26113   4.421   0.412   4.872  0.1558 -0.5322 -0.0213
 8405SOL    HW126114   4.415   0.422   4.773 -0.8127 -1.8772 -0.1306
 8405SOL    HW226115   4.480   0.483   4.910  0.9565 -0.3144 -1.6128
 8406SOL     OW26116   6.136   0.546   5.439 -0.2888 -0.6108 -0.4653
 8406SOL    HW126117   6.088   0.600   5.507  0.8065 -0.6650  0.3839
 8406SOL    HW226118   6.137   0.595   5.351 -1.9497 -0.6706 -0.5332
 8407SOL     OW26119   6.013   2.578   5.147  0.3285  0.1515 -0.8174
 8407SOL    HW126120   6.106   2.572   5.185 -0.3456 -0.4346  0.8429
 8407SOL    HW226121   6.000   2.506   5.079 -0.0622 -2.3712  1.7102
 8408SOL     OW26122   4.003   1.426   1.372  0.6323 -0.4598 -0.4957
 8408SOL    HW126123   4.027   1.404   1.277  0.9169  1.6960 -0.9771
 8408SOL    HW226124   3.963   1.518   1.376  1.4799 -0.1306  1.6023
 8409SOL     OW26125   5.506   2.008   1.713  0.2784  0.2385  0.0915
 8409SOL    HW126126   5.603   2.002   1.737  0.4233 -2.7213 -0.8497
 8409SOL    HW226127   5.473   1.918   1.686 -2.7726  1.1642  0.3785
 8410SOL     OW26128   4.684   1.384   0.305 -0.3491 -0.1863 -0.3023
 8410SOL    HW126129   4.656   1.328   0.227 -0.3237 -0.1081 -0.3679
 8410SOL    HW226130   4.695   1.479   0.275  1.9108 -0.5371 -0.7418
 8411SOL     OW26131   1.029   4.643   2.594 -0.3329 -0.3672  0.4314
 8411SOL    HW126132   0.981   4.647   2.507  0.4161 -1.3410 -0.0431
 8411SOL    HW226133   1.068   4.733   2.615 -1.1841  0.0770  0.1631
 8412SOL     OW26134   1.508   2.330   3.903 -0.8124  0.1662  0.0766
 8412SOL    HW126135   1.571   2.343   3.979 -0.7604  0.8224 -0.0751
 8412SOL    HW226136   1.430   2.274   3.933 -1.0196  0.7952  0.7359
 8413SOL     OW26137   1.959   6.320   3.583 -0.2940 -0.0237 -0.1376
 8413SOL    HW126138   1.915   6.264   3.512 -1.5737 -0.6026  1.0812
 8413SOL    HW226139   1.996   6.261   3.654 -1.1419  0.6100  0.8703
 8414SOL     OW26140   2.041   6.884   0.977 -0.0075  0.3424  0.6212
 8414SOL    HW126141   2.067   6.860   0.883 -1.0898  0.3385  0.3064
 8414SOL    HW226142   2.120   6.877   1.037  0.3994 -0.9532 -0.0438
 8415SOL     OW26143   3.564   2.330   6.907 -0.4385 -0.0746  0.0465
 8415SOL    HW126144   3.493   2.364   6.969  0.6895 -0.0716  1.3788
 8415SOL    HW226145   3.583   2.234   6.927 -0.8301 -0.3860 -1.0419
 8416SOL     OW26146   6.178   1.631   6.754  0.5959 -0.7583  0.3446
 8416SOL    HW126147   6.127   1.666   6.676  1.2552 -0.3746  0.0835
 8416SOL    HW226148   6.114   1.593   6.821  0.0242 -1.0942 -0.3747
 8417SOL     OW26149   2.661   2.458   0.290  0.4053 -0.4894  0.1638
 8417SOL    HW126150   2.748   2.502   0.311  0.8695 -0.7992 -0.9923
 8417SOL    HW226151   2.669   2.359   0.303  0.8871 -0.7644 -1.8401
 8418SOL     OW26152   6.403   6.842   3.339  0.1670 -0.8131 -0.4085
 8418SOL    HW126153   6.400   6.760   3.282  1.3335 -1.5816  0.5693
 8418SOL    HW226154   6.495   6.881   3.337 -0.2461  0.1825 -0.4559
 8419SOL     OW26155   5.752   2.670   5.094 -0.2343 -0.1008  0.9725
 8419SOL    HW126156   5.845   2.641   5.117  0.8920  1.2750 -1.4694
 8419SOL    HW226157   5.698   2.590   5.066  1.8408 -0.4855 -2.5267
 8420SOL     OW26158   5.095   1.422   2.825  0.0271 -0.2579  0.3341
 8420SOL    HW126159   5.124   1.488   2.895 -0.0287 -1.0054  1.0734
 8420SOL    HW226160   5.103   1.464   2.735 -1.2973  1.2532  0.8673
 8421SOL     OW26161   4.960   0.232   4.965  0.1002 -0.0724  0.6109
 8421SOL    HW126162   4.887   0.289   5.002 -0.6015 -1.2300  1.0598
 8421SOL    HW226163   5.003   0.180   5.039  0.2265 -0.6854  0.1155
 8422SOL     OW26164   4.984   1.503   3.360 -0.1442 -0.2744 -0.4320
 8422SOL    HW126165   4.905   1.473   3.308 -1.1909 -0.0052  0.9478
 8422SOL    HW226166   5.066   1.498   3.303 -1.1071 -0.7946 -1.8032
 8423SOL     OW26167   6.701   5.762   6.713 -0.2633 -0.4973  0.0607
 8423SOL    HW126168   6.625   5.752   6.648 -0.4752  0.3470  0.1730
 8423SOL    HW226169   6.788   5.749   6.665 -0.3340  1.7527 -0.7685
 8424SOL     OW26170   3.030   1.668   4.625  0.6215  0.0954  0.0689
 8424SOL    HW126171   3.076   1.673   4.714  0.9532  1.0430 -0.1514
 8424SOL    HW226172   3.092   1.701   4.553 -0.1814  0.8219 -0.3066
 8425SOL     OW26173   3.404   2.916   2.687  0.4083  0.0230 -0.1879
 8425SOL    HW126174   3.330   2.902   2.621  0.8290 -1.2514 -0.4059
 8425SOL    HW226175   3.491   2.923   2.638  0.5344  0.7722  0.1258
 8426SOL     OW26176   3.610   3.763   2.793 -0.1802  0.4664 -0.2680
 8426SOL    HW126177   3.518   3.743   2.759  1.0720 -2.2510 -2.4573
 8426SOL    HW226178   3.645   3.845   2.747 -0.6772  0.1515 -1.2415
 8427SOL     OW26179   3.539   3.153   3.280 -0.0574  0.1826 -0.0033
 8427SOL    HW126180   3.510   3.172   3.374 -0.8630 -1.6764  0.1619
 8427SOL    HW226181   3.579   3.062   3.275  1.0726  0.7187 -1.2586
 8428SOL     OW26182   3.133   0.434   1.494  0.1963 -0.0225  0.2126
 8428SOL    HW126183   3.159   0.357   1.552 -1.7594  2.0018  4.1341
 8428SOL    HW226184   3.180   0.517   1.524 -0.5370  1.0619 -1.4441
 8429SOL     OW26185   4.089   4.899   5.469  0.3914  0.6316 -0.1616
 8429SOL    HW126186   3.999   4.943   5.460  0.1081 -0.1237 -1.2153
 8429SOL    HW226187   4.145   4.922   5.390  0.5333 -0.2256 -0.3171
 8430SOL     OW26188   4.999   5.246   6.470 -0.3961  0.1008  0.0039
 8430SOL    HW126189   5.039   5.313   6.407  0.5805  1.3507  1.8594
 8430SOL    HW226190   4.904   5.229   6.445 -0.1227  0.7471 -1.6237
 8431SOL     OW26191   4.062   2.628   6.877 -0.5337  0.1961  0.3241
 8431SOL    HW126192   3.992   2.585   6.934  1.0958 -0.8005  1.6584
 8431SOL    HW226193   4.061   2.726   6.892 -1.0242  0.0880  1.0660
 8432SOL     OW26194   1.040   6.399   6.194 -0.0618  0.1094 -0.0346
 8432SOL    HW126195   1.065   6.496   6.193  0.7385 -0.0832  0.3473
 8432SOL    HW226196   1.108   6.346   6.143  0.8985 -0.5511  1.8339
 8433SOL     OW26197   5.611   0.768   1.380  0.9140 -0.0132  0.2638
 8433SOL    HW126198   5.551   0.784   1.458 -0.1447  0.4061 -0.6016
 8433SOL    HW226199   5.693   0.718   1.409 -0.4873 -1.8527  1.2365
 8434SOL     OW26200   2.650   5.830   3.184  0.1375  0.5185 -0.0025
 8434SOL    HW126201   2.640   5.869   3.092  0.0733 -0.0702 -0.2517
 8434SOL    HW226202   2.722   5.760   3.184 -0.8729 -0.5654  0.0154
 8435SOL     OW26203   5.563   2.983   3.012  0.2421  0.1591 -0.0053
 8435SOL    HW126204   5.504   2.906   3.038  2.0455 -1.6392 -1.0088
 8435SOL    HW226205   5.549   3.004   2.916  2.1413 -1.2279 -0.6426
 8436SOL     OW26206   2.293   4.357   2.040  0.0571 -0.5077 -0.4314
 8436SOL    HW126207   2.347   4.370   1.957  0.0015 -0.7147 -0.5000
 8436SOL    HW226208   2.241   4.271   2.033 -1.4247  0.3834 -1.0171
 8437SOL     OW26209   3.120   5.999   0.936 -0.0437 -0.0250  0.1133
 8437SOL    HW126210   3.146   6.052   0.855 -0.2796 -0.5686 -0.3230
 8437SOL    HW226211   3.123   6.058   1.017 -1.2136  0.9030 -0.4996
 8438SOL     OW26212   1.822   3.297   3.586  0.3331 -0.0080  0.1152
 8438SOL    HW126213   1.756   3.232   3.548 -0.5480  1.5071 -1.0551
 8438SOL    HW226214   1.902   3.302   3.526 -0.1434  0.8514 -0.4770
 8439SOL     OW26215   5.256   3.384   2.208 -0.3877  0.1988  0.6039
 8439SOL    HW126216   5.343   3.418   2.242 -0.8399  1.1737  0.8182
 8439SOL    HW226217   5.186   3.394   2.279 -0.9609  0.6478 -0.0089
 8440SOL     OW26218   1.807   1.927   4.233 -0.4515  0.5841 -0.1766
 8440SOL    HW126219   1.844   1.963   4.147  2.3690 -0.4128  0.5198
 8440SOL    HW226220   1.832   1.989   4.308  0.8044 -0.6439  0.4529
 8441SOL     OW26221   7.009   3.091   4.928 -0.3279 -0.1379 -0.5290
 8441SOL    HW126222   7.095   3.078   4.878 -0.4007  0.3430 -0.7804
 8441SOL    HW226223   6.933   3.098   4.863 -0.6951 -1.5371 -0.2772
 8442SOL     OW26224   4.885   2.860   6.800  0.2517 -0.0530  0.3998
 8442SOL    HW126225   4.807   2.921   6.809  0.2565  0.0029  0.0872
 8442SOL    HW226226   4.931   2.877   6.713 -1.8400 -2.8654 -1.4636
 8443SOL     OW26227   1.922   3.270   1.679  0.1041 -0.7701  0.5670
 8443SOL    HW126228   2.006   3.215   1.676  1.3982  1.0713  1.0964
 8443SOL    HW226229   1.941   3.358   1.723 -1.9276  0.0548 -0.0649
 8444SOL     OW26230   5.055   6.222   3.932  0.3614 -0.5083 -0.3317
 8444SOL    HW126231   5.075   6.141   3.878  4.1067  0.4992 -0.7123
 8444SOL    HW226232   5.035   6.299   3.871  0.1774 -0.3686 -0.0974
 8445SOL     OW26233   5.124   6.957   6.543 -0.6759  0.3217  0.7696
 8445SOL    HW126234   5.047   6.894   6.544 -0.7499  0.3307 -1.1463
 8445SOL    HW226235   5.100   7.040   6.494  0.1277  0.9008  1.3237
 8446SOL     OW26236   5.486   4.811   3.699 -0.2426 -0.3137 -0.0259
 8446SOL    HW126237   5.424   4.826   3.622 -0.1013 -1.2209 -0.3243
 8446SOL    HW226238   5.562   4.875   3.692 -0.2961 -0.2984 -0.5715
 8447SOL     OW26239   4.813   1.778   3.504  0.3850  0.0392 -0.2826
 8447SOL    HW126240   4.873   1.821   3.436 -0.4961  0.6397 -0.6924
 8447SOL    HW226241   4.721   1.768   3.466  0.4152 -1.7061  0.0066
 8448SOL     OW26242   3.429   6.989   2.415  0.2294  0.0736 -0.3025
 8448SOL    HW126243   3.333   6.998   2.389  0.0995 -1.6625 -0.5043
 8448SOL    HW226244   3.482   6.955   2.337  1.0168  0.9803 -0.1818
 8449SOL     OW26245   6.240   3.311   2.673  0.8454 -0.4237  0.1881
 8449SOL    HW126246   6.166   3.285   2.735  0.8753  1.5792  1.1320
 8449SOL    HW226247   6.304   3.234   2.664  1.2609 -0.5671  3.2763
 8450SOL     OW26248   5.400   0.451   2.798 -0.0936 -0.1576 -0.2229
 8450SOL    HW126249   5.483   0.505   2.808  0.4168 -0.4221 -2.3712
 8450SOL    HW226250   5.324   0.497   2.844  1.1020  0.3601  1.3087
 8451SOL     OW26251   3.964   2.152   0.733  0.1845 -0.0726  0.1043
 8451SOL    HW126252   4.023   2.127   0.656  0.8348  0.6506  0.3533
 8451SOL    HW226253   3.869   2.149   0.704  0.4456  0.7249 -0.8974
 8452SOL     OW26254   3.494   0.340   6.133 -1.1302  0.3014  0.6275
 8452SOL    HW126255   3.489   0.243   6.158 -0.7942 -0.3837 -1.7342
 8452SOL    HW226256   3.404   0.372   6.102 -0.5953 -0.1848 -1.5801
 8453SOL     OW26257   6.116   0.815   0.526  0.0068  0.1505  0.1852
 8453SOL    HW126258   6.195   0.852   0.575 -0.3099 -0.0465  0.8667
 8453SOL    HW226259   6.134   0.720   0.500  0.6234  0.6006 -1.1194
 8454SOL     OW26260   6.750   5.893   0.859 -0.1572 -0.0631 -0.5155
 8454SOL    HW126261   6.782   5.901   0.764 -2.6155 -2.3204 -1.6869
 8454SOL    HW226262   6.689   5.968   0.881  0.4103  0.4605 -0.7124
 8455SOL     OW26263   5.980   0.854   2.619  0.2309 -0.2218  0.4147
 8455SOL    HW126264   5.896   0.850   2.565  0.1172  0.5912  0.5171
 8455SOL    HW226265   5.974   0.789   2.695 -0.3807 -0.0378  0.5248
 8456SOL     OW26266   5.027   0.355   3.795 -0.0778 -0.9218  0.0564
 8456SOL    HW126267   5.016   0.300   3.712 -0.4137 -1.0387  0.1749
 8456SOL    HW226268   5.058   0.296   3.869 -2.0676 -1.3449  0.6327
 8457SOL     OW26269   6.702   5.333   3.646 -0.1275 -0.5755  0.3891
 8457SOL    HW126270   6.632   5.343   3.575  0.3050  0.6337  0.1015
 8457SOL    HW226271   6.776   5.399   3.630  0.4583 -0.9562  1.4056
 8458SOL     OW26272   1.635   0.733   6.973 -0.0104 -0.4389 -0.1046
 8458SOL    HW126273   1.645   0.832   6.978 -0.7992 -0.3800  0.4126
 8458SOL    HW226274   1.542   0.707   6.999  0.6350 -1.4145  1.4108
 8459SOL     OW26275   0.960   6.082   3.495 -0.2976 -0.3751  0.2671
 8459SOL    HW126276   0.958   6.111   3.591  1.4865  2.3753 -0.4176
 8459SOL    HW226277   1.005   5.992   3.488  0.9170  0.0591  1.8913
 8460SOL     OW26278   3.095   3.040   2.910  0.9181  0.0121 -0.1508
 8460SOL    HW126279   3.184   3.006   2.940  0.4735 -1.0308  0.0103
 8460SOL    HW226280   3.037   3.057   2.990 -0.3856 -3.0807 -0.3183
 8461SOL     OW26281   0.030   4.129   3.656 -0.5971  0.0600 -0.0194
 8461SOL    HW126282   0.058   4.037   3.684  0.4504  0.6653  1.0121
 8461SOL    HW226283   0.061   4.146   3.562 -1.5707 -0.9393 -0.5426
 8462SOL     OW26284   3.673   2.808   1.894  0.3632 -0.0693 -0.0079
 8462SOL    HW126285   3.608   2.859   1.839  0.1426  1.2625  1.3951
 8462SOL    HW226286   3.663   2.710   1.877 -1.2970  0.1701 -0.5744
 8463SOL     OW26287   4.934   6.957   2.454  0.2385  0.1516  0.3845
 8463SOL    HW126288   4.875   7.016   2.510  0.3913  0.9002 -0.2294
 8463SOL    HW226289   4.931   6.863   2.490  0.5783  0.6766  1.8285
 8464SOL     OW26290   1.640   1.523   0.189  0.4240 -0.3241  0.2769
 8464SOL    HW126291   1.623   1.452   0.121 -0.3233 -1.2373  1.3798
 8464SOL    HW226292   1.726   1.504   0.237  0.0928 -0.6373  0.7512
 8465SOL     OW26293   3.047   0.404   3.221  0.0796 -0.3037 -0.1188
 8465SOL    HW126294   3.125   0.384   3.281 -0.2291  1.2326  0.8396
 8465SOL    HW226295   2.994   0.479   3.259 -1.2763 -0.6128 -1.3213
 8466SOL     OW26296   0.163   2.032   5.046 -0.6023  0.0018 -0.4211
 8466SOL    HW126297   0.154   2.029   4.946 -0.0141  2.3477 -0.5981
 8466SOL    HW226298   0.245   1.980   5.073  0.3799  0.9900 -1.3852
 8467SOL     OW26299   4.799   3.964   1.585  0.2048 -0.0922 -0.6513
 8467SOL    HW126300   4.779   4.022   1.663 -0.6725  1.2049 -1.7915
 8467SOL    HW226301   4.720   3.962   1.524  0.5728 -1.7166 -1.1456
 8468SOL     OW26302   5.952   3.008   6.187  0.1849  0.4296  0.8745
 8468SOL    HW126303   5.868   2.969   6.151  0.4428 -0.1369  0.8781
 8468SOL    HW226304   5.965   3.100   6.149 -0.0595  0.2307  0.3032
 8469SOL     OW26305   5.525   2.645   6.443 -0.1079 -0.0961  0.1030
 8469SOL    HW126306   5.508   2.587   6.364  0.0680 -1.3080  0.9318
 8469SOL    HW226307   5.539   2.589   6.524 -0.9016  1.1255  1.1385
 8470SOL     OW26308   3.375   2.634   0.837 -0.5998 -0.4686  0.1875
 8470SOL    HW126309   3.375   2.642   0.738 -0.8806  1.0232  0.2898
 8470SOL    HW226310   3.427   2.709   0.877  0.1410 -1.4658  1.1556
 8471SOL     OW26311   4.931   1.517   5.443  0.4824  0.1800 -0.6615
 8471SOL    HW126312   4.948   1.503   5.346  0.4204 -2.9686 -0.3353
 8471SOL    HW226313   4.832   1.520   5.459  0.4903  0.5910 -0.6980
 8472SOL     OW26314   1.171   5.558   2.880  0.1874 -0.4627 -0.0678
 8472SOL    HW126315   1.262   5.590   2.853  0.3500 -0.6643  0.2341
 8472SOL    HW226316   1.142   5.484   2.820 -0.5430  0.7739 -1.3033
 8473SOL     OW26317   5.595   4.363   6.753  0.1702  0.2036 -0.1658
 8473SOL    HW126318   5.683   4.324   6.779  0.1067  1.6572  2.5595
 8473SOL    HW226319   5.602   4.462   6.750 -1.4428  0.3708  0.5093
 8474SOL     OW26320   3.662   5.517   6.294  0.1994 -0.0901  0.2781
 8474SOL    HW126321   3.757   5.485   6.291  0.1814 -0.1103 -0.2851
 8474SOL    HW226322   3.644   5.563   6.380  0.3361 -1.2925  0.9674
 8475SOL     OW26323   5.919   1.841   3.461  0.6044 -0.3751  0.0412
 8475SOL    HW126324   5.905   1.940   3.465  1.8379 -0.1303 -0.9304
 8475SOL    HW226325   5.924   1.804   3.554 -1.4843  0.1952  0.4233
 8476SOL     OW26326   6.025   6.388   4.153  0.5842 -0.2973  0.1303
 8476SOL    HW126327   5.992   6.354   4.241  0.5954 -0.9251 -0.1037
 8476SOL    HW226328   6.121   6.416   4.162  0.6520 -0.5662  0.2682
 8477SOL     OW26329   2.604   1.613   4.359  0.5898 -0.3675  0.0974
 8477SOL    HW126330   2.608   1.713   4.361  1.6402 -0.4043  1.1426
 8477SOL    HW226331   2.653   1.579   4.279  0.9170 -0.0674  0.1674
 8478SOL     OW26332   1.218   2.550   6.224 -0.2629 -0.2807 -0.2835
 8478SOL    HW126333   1.225   2.642   6.184  0.6454 -0.0490  0.3857
 8478SOL    HW226334   1.166   2.555   6.310  2.4732  0.2096  1.4577
 8479SOL     OW26335   5.777   6.277   2.663 -0.2490 -0.1331 -0.5591
 8479SOL    HW126336   5.682   6.248   2.653 -0.0499 -0.1500 -3.1201
 8479SOL    HW226337   5.814   6.241   2.749 -2.8579  0.8952  1.1110
 8480SOL     OW26338   3.815   0.981   2.092 -0.3342 -0.4591  0.0495
 8480SOL    HW126339   3.744   1.046   2.119 -1.2963 -0.8315 -1.4661
 8480SOL    HW226340   3.903   1.030   2.086 -0.8222  0.4462  0.0475
 8481SOL     OW26341   5.265   5.334   6.055 -0.1554 -0.0409 -0.3824
 8481SOL    HW126342   5.307   5.389   6.127 -2.0740 -0.1735  0.9324
 8481SOL    HW226343   5.265   5.237   6.083 -1.9330  0.0403  0.0497
 8482SOL     OW26344   5.941   6.849   2.436  0.0648  0.2162 -0.2402
 8482SOL    HW126345   5.916   6.944   2.457 -0.9329  0.1907 -1.2077
 8482SOL    HW226346   5.882   6.815   2.363 -0.2491 -1.4915  0.7819
 8483SOL     OW26347   4.394   0.588   1.712  0.3013  0.9865 -0.3334
 8483SOL    HW126348   4.364   0.661   1.773  0.3248 -0.1230  1.0680
 8483SOL    HW226349   4.492   0.596   1.696  0.8382 -0.1645  1.9515
 8484SOL     OW26350   6.172   5.111   6.119 -0.0641  0.5356 -0.0464
 8484SOL    HW126351   6.253   5.164   6.144  0.1641 -0.3212  1.0837
 8484SOL    HW226352   6.116   5.095   6.200 -1.1113  0.6640 -0.7218
 8485SOL     OW26353   2.911   3.879   0.485  0.4116  0.1803 -0.1591
 8485SOL    HW126354   2.835   3.844   0.541  0.8730 -0.8499 -0.1577
 8485SOL    HW226355   2.877   3.904   0.395 -0.5982  3.0085  0.8639
 8486SOL     OW26356   3.807   1.224   6.584 -0.3252  0.5925 -0.4571
 8486SOL    HW126357   3.801   1.149   6.518  1.6222 -0.2027  0.2082
 8486SOL    HW226358   3.739   1.210   6.656  0.1366 -0.6526 -0.2440
 8487SOL     OW26359   4.674   1.076   0.378 -0.2963 -0.4816  0.3782
 8487SOL    HW126360   4.663   0.977   0.371 -0.4433 -0.4844  0.6602
 8487SOL    HW226361   4.717   1.099   0.465  2.2509 -0.4933 -0.7674
 8488SOL     OW26362   0.720   3.337   1.080 -0.2685  0.3110 -0.0083
 8488SOL    HW126363   0.817   3.343   1.056 -0.5197  0.8674 -0.9327
 8488SOL    HW226364   0.706   3.263   1.145  0.8532  0.5627  0.5289
 8489SOL     OW26365   1.718   5.747   2.807 -0.0621  1.3361 -0.0991
 8489SOL    HW126366   1.714   5.714   2.712  1.1050  1.0170 -0.0552
 8489SOL    HW226367   1.629   5.735   2.850  0.5195 -3.1532  0.3387
 8490SOL     OW26368   4.681   5.541   4.722 -0.2219 -0.0468  0.2013
 8490SOL    HW126369   4.757   5.494   4.677 -1.0493  0.8475 -2.2611
 8490SOL    HW226370   4.604   5.479   4.731 -0.1681 -0.1342  0.0641
 8491SOL     OW26371   6.982   1.037   6.409 -0.1318 -0.5849 -0.1429
 8491SOL    HW126372   7.068   1.088   6.402 -0.3462  0.2242  2.0391
 8491SOL    HW226373   6.935   1.037   6.321  2.2993 -1.4846 -1.5365
 8492SOL     OW26374   0.212   5.335   4.096  0.3209  0.3526 -0.1076
 8492SOL    HW126375   0.271   5.254   4.098 -1.1968 -0.7671  0.3951
 8492SOL    HW226376   0.216   5.377   4.005  1.4074 -0.0456 -0.2579
 8493SOL     OW26377   4.135   3.619   0.955  0.5967  0.1807  0.2454
 8493SOL    HW126378   4.228   3.595   0.981  0.5095 -0.1629  0.2415
 8493SOL    HW226379   4.132   3.639   0.857  0.5676 -0.3146  0.1419
 8494SOL     OW26380   3.376   4.798   6.129  0.0752  1.0501  0.1679
 8494SOL    HW126381   3.442   4.742   6.080  0.1471  0.8141  0.5327
 8494SOL    HW226382   3.397   4.798   6.226  0.1387  1.7984  0.1607
 8495SOL     OW26383   0.646   4.127   5.781 -0.8796 -0.7225  0.1646
 8495SOL    HW126384   0.684   4.219   5.788  0.6918 -1.0368 -2.6832
 8495SOL    HW226385   0.720   4.061   5.776 -1.9133 -1.8843 -0.4254
 8496SOL     OW26386   0.429   0.309   5.975  0.1089 -0.1478  0.4125
 8496SOL    HW126387   0.369   0.314   5.895 -0.5328 -0.1592  0.8786
 8496SOL    HW226388   0.505   0.247   5.957 -0.3031 -0.5334 -0.0092
 8497SOL     OW26389   6.273   3.307   5.129 -0.4352 -0.3003 -0.0208
 8497SOL    HW126390   6.206   3.380   5.111  0.2514  0.1042 -1.0093
 8497SOL    HW226391   6.357   3.327   5.080  0.3865 -0.8660  1.1183
 8498SOL     OW26392   5.434   6.926   6.689 -0.2965  0.3155 -0.3829
 8498SOL    HW126393   5.347   6.899   6.648 -0.2414 -0.7084  0.1431
 8498SOL    HW226394   5.461   7.016   6.655 -1.6411  0.7111 -0.4287
 8499SOL     OW26395   0.487   3.209   1.414  1.0188 -0.0485 -0.0438
 8499SOL    HW126396   0.525   3.256   1.494  0.3630 -0.9002  0.8011
 8499SOL    HW226397   0.397   3.247   1.392  1.8888  1.3271 -1.4590
 8500SOL     OW26398   1.412   1.384   5.410  0.0190 -0.3564 -0.0930
 8500SOL    HW126399   1.375   1.321   5.479  1.2734 -0.4730  0.4936
 8500SOL    HW226400   1.344   1.456   5.392  0.1145  0.4116  2.2164
 8501SOL     OW26401   4.246   2.848   0.085  0.0796 -0.3677  0.2652
 8501SOL    HW126402   4.208   2.828   0.175 -0.0240 -0.8896  0.1130
 8501SOL    HW226403   4.172   2.863   0.020  0.1587  0.7457  0.4151
 8502SOL     OW26404   4.349   5.370   1.044  0.3093  0.9692  0.2911
 8502SOL    HW126405   4.435   5.341   1.085 -0.2311  0.7162  1.2783
 8502SOL    HW226406   4.350   5.349   0.946  1.2105  0.6193  0.3673
 8503SOL     OW26407   4.262   5.993   3.461  0.1837  0.4477  0.2436
 8503SOL    HW126408   4.164   5.977   3.471  0.2685  0.2221  0.7114
 8503SOL    HW226409   4.311   5.951   3.537  0.7359 -0.3606 -0.5255
 8504SOL     OW26410   0.751   4.935   2.617 -0.1509 -0.6158  0.2546
 8504SOL    HW126411   0.772   4.839   2.634  0.7416 -0.9688 -2.3557
 8504SOL    HW226412   0.670   4.962   2.668 -0.7913 -2.9372  0.5410
 8505SOL     OW26413   4.816   2.092   3.150 -0.2005  0.2290 -0.0993
 8505SOL    HW126414   4.717   2.084   3.137 -0.3473  1.2574  0.2643
 8505SOL    HW226415   4.860   2.113   3.062 -0.2495 -0.6341 -0.3363
 8506SOL     OW26416   1.422   6.527   6.893  0.3594 -0.3805 -0.5335
 8506SOL    HW126417   1.515   6.564   6.892  1.4958 -2.7481  2.6675
 8506SOL    HW226418   1.425   6.430   6.869 -0.9495 -0.9649  1.4805
 8507SOL     OW26419   1.678   0.195   4.555  0.2209  0.1298  0.2104
 8507SOL    HW126420   1.631   0.211   4.468  0.3929  1.1569  0.2835
 8507SOL    HW226421   1.775   0.176   4.537  0.1127 -0.3476  0.1403
 8508SOL     OW26422   6.595   4.047   0.136 -0.3111 -0.3026 -0.6283
 8508SOL    HW126423   6.604   3.965   0.192 -0.2126  0.5742  0.6938
 8508SOL    HW226424   6.522   4.034   0.069  1.6012 -2.5323 -2.4534
 8509SOL     OW26425   1.889   4.485   3.820 -0.1099 -0.7515 -0.1181
 8509SOL    HW126426   1.827   4.409   3.840 -0.7123 -0.4342 -0.7538
 8509SOL    HW226427   1.928   4.473   3.728 -1.2310  0.3802 -0.7612
 8510SOL     OW26428   4.277   5.201   3.894  0.0369 -0.0911 -0.1246
 8510SOL    HW126429   4.221   5.151   3.829  0.9231  0.1865 -1.1188
 8510SOL    HW226430   4.366   5.157   3.903  0.3418  0.5391  0.0126
 8511SOL     OW26431   5.937   5.022   1.461 -0.3874 -0.3557 -0.4619
 8511SOL    HW126432   5.961   5.020   1.558  0.7194 -0.7309 -0.7345
 8511SOL    HW226433   5.908   4.932   1.432 -0.7760 -0.2285 -0.4678
 8512SOL     OW26434   4.862   2.046   0.849  0.0982 -0.3375 -0.1002
 8512SOL    HW126435   4.770   2.007   0.848  0.4223 -1.1679  0.5974
 8512SOL    HW226436   4.922   1.986   0.902  1.3005 -0.3697 -1.4460
 8513SOL     OW26437   6.349   2.911   0.480  0.9922 -0.0396 -0.2898
 8513SOL    HW126438   6.301   2.838   0.430  0.6277  0.3893 -0.5764
 8513SOL    HW226439   6.409   2.870   0.549 -1.6156 -0.6185  1.8381
 8514SOL     OW26440   2.856   4.767   5.776 -0.4095 -0.0467  0.1404
 8514SOL    HW126441   2.886   4.802   5.687  0.6282  2.4262  1.3378
 8514SOL    HW226442   2.936   4.736   5.828 -0.7217  0.4397  0.9378
 8515SOL     OW26443   2.342   2.019   6.996 -0.2129  0.2970 -0.5412
 8515SOL    HW126444   2.300   1.980   6.914 -1.8594  1.7795 -0.4529
 8515SOL    HW226445   2.442   2.020   6.984 -0.2377 -1.7574 -1.4568
 8516SOL     OW26446   6.448   4.443   0.285  0.2411  0.5867  0.5770
 8516SOL    HW126447   6.534   4.394   0.270  0.5986  1.4626 -0.3830
 8516SOL    HW226448   6.391   4.393   0.351  0.7099 -0.9427 -0.1431
 8517SOL     OW26449   2.298   2.339   5.748 -0.4567  0.3844 -0.2551
 8517SOL    HW126450   2.295   2.405   5.822 -1.9254  0.6216 -0.5055
 8517SOL    HW226451   2.287   2.385   5.661 -1.1270 -0.1484 -0.4585
 8518SOL     OW26452   6.627   5.947   1.530  0.3704  0.1335 -0.2325
 8518SOL    HW126453   6.647   5.853   1.502 -2.0915 -0.2075 -1.0813
 8518SOL    HW226454   6.709   5.988   1.569  1.8826 -1.9063 -1.0746
 8519SOL     OW26455   2.142   3.165   0.609 -0.1089 -0.2676 -0.8248
 8519SOL    HW126456   2.091   3.251   0.617 -0.1181 -0.3162 -0.3138
 8519SOL    HW226457   2.084   3.089   0.640  0.3058 -0.3108 -0.1440
 8520SOL     OW26458   2.265   5.514   6.537 -0.3045 -0.2513  0.0214
 8520SOL    HW126459   2.299   5.551   6.624  1.7326 -0.2964 -0.7178
 8520SOL    HW226460   2.179   5.466   6.553 -1.5569  2.2618  1.5152
 8521SOL     OW26461   1.103   1.556   4.421 -0.0387  0.0093 -0.0704
 8521SOL    HW126462   1.021   1.611   4.432  0.5711  0.9046  0.1301
 8521SOL    HW226463   1.159   1.562   4.504 -0.8338 -2.4393  0.7185
 8522SOL     OW26464   0.107   1.549   6.678  0.0193 -0.3187 -0.6802
 8522SOL    HW126465   0.086   1.490   6.601  1.5291  0.2542 -1.5830
 8522SOL    HW226466   0.022   1.586   6.716 -0.7896 -1.1571 -1.6092
 8523SOL     OW26467   5.930   2.177   1.377 -0.0774  0.3318  0.1563
 8523SOL    HW126468   5.865   2.252   1.364 -0.9151  0.2508  3.1959
 8523SOL    HW226469   6.023   2.211   1.367 -0.4664  0.9579 -1.8905
 8524SOL     OW26470   1.982   6.893   4.798 -0.1607  0.9246 -0.0015
 8524SOL    HW126471   2.026   6.855   4.717  0.5136  1.5530  0.0614
 8524SOL    HW226472   1.891   6.853   4.808  0.3374 -0.3126 -0.1999
 8525SOL     OW26473   1.408   3.382   3.665  0.1547  0.0770  0.0144
 8525SOL    HW126474   1.330   3.409   3.721  0.8916 -0.6077  1.4103
 8525SOL    HW226475   1.413   3.441   3.584  0.5893  2.8526  1.9293
 8526SOL     OW26476   6.879   5.160   3.361  0.0871  0.4457 -0.5815
 8526SOL    HW126477   6.932   5.082   3.395 -1.4447 -1.2795 -1.9248
 8526SOL    HW226478   6.941   5.232   3.331  1.5386  0.1956  1.5717
 8527SOL     OW26479   1.374   0.684   0.032  0.2144  0.3582 -0.0440
 8527SOL    HW126480   1.355   0.586   0.021  1.3475  0.1383 -0.1647
 8527SOL    HW226481   1.381   0.706   0.129 -1.3069  0.5859  0.0288
 8528SOL     OW26482   0.039   0.591   6.371  0.1050  0.2966  0.0962
 8528SOL    HW126483  -0.029   0.521   6.348  0.7421 -0.6382  0.9770
 8528SOL    HW226484   0.001   0.654   6.438  0.1183 -0.2976  0.6813
 8529SOL     OW26485   1.159   5.143   5.392  0.0421 -0.3803 -0.2205
 8529SOL    HW126486   1.214   5.107   5.467 -1.1638 -0.3684  0.6955
 8529SOL    HW226487   1.217   5.154   5.311  1.5235  0.1695  0.8536
 8530SOL     OW26488   2.906   3.673   2.859  0.4312  0.0678  0.1173
 8530SOL    HW126489   2.959   3.589   2.842  0.4168  0.4164 -1.9816
 8530SOL    HW226490   2.812   3.658   2.829  0.2217  0.5794  0.5185
 8531SOL     OW26491   0.084   6.915   3.696 -0.3461 -0.1837  0.0793
 8531SOL    HW126492   0.107   6.825   3.733 -2.9192 -0.6423  0.8084
 8531SOL    HW226493   0.060   6.976   3.772  1.2782  1.1449 -0.4148
 8532SOL     OW26494   2.492   4.504   0.795  0.2002 -0.6352 -0.0234
 8532SOL    HW126495   2.534   4.432   0.740  1.3172  0.1046 -0.1725
 8532SOL    HW226496   2.417   4.465   0.849  0.2528 -1.7306 -0.7079
 8533SOL     OW26497   2.274   6.499   5.228  0.2538 -0.6422 -0.2121
 8533SOL    HW126498   2.226   6.411   5.227  0.2558 -0.6422 -0.2893
 8533SOL    HW226499   2.351   6.493   5.291 -1.1264  0.0275  1.6396
 8534SOL     OW26500   2.009   2.313   2.328  0.2304  0.4919 -0.1355
 8534SOL    HW126501   2.080   2.243   2.331 -0.1455  0.1337  1.0225
 8534SOL    HW226502   1.939   2.286   2.262  1.3032  1.0117 -1.5350
 8535SOL     OW26503   5.732   6.590   1.259 -0.0998 -0.0168 -0.9751
 8535SOL    HW126504   5.711   6.494   1.275 -0.3854 -0.1581 -2.1524
 8535SOL    HW226505   5.814   6.615   1.312  0.2005 -0.9976 -0.9530
 8536SOL     OW26506   2.942   0.613   2.928 -0.1604 -0.0383  0.0231
 8536SOL    HW126507   2.965   0.602   3.024 -0.7547  1.8413  0.4020
 8536SOL    HW226508   2.843   0.600   2.915  0.1240 -1.9801 -0.6461
 8537SOL     OW26509   6.682   0.391   4.756 -0.3338  0.0876  0.1819
 8537SOL    HW126510   6.677   0.475   4.809 -1.2457 -0.6200  1.2543
 8537SOL    HW226511   6.607   0.330   4.781 -0.5088 -0.4966 -1.5692
 8538SOL     OW26512   1.087   4.064   6.119  0.1604  0.2109  0.1762
 8538SOL    HW126513   1.149   4.067   6.041 -0.7792 -2.4175 -0.8017
 8538SOL    HW226514   1.037   4.150   6.125  1.3498  1.0463 -1.1633
 8539SOL     OW26515   6.957   3.413   1.034 -0.2261  0.4392  0.1562
 8539SOL    HW126516   6.989   3.390   0.942  1.4446  2.6607  0.0951
 8539SOL    HW226517   6.908   3.335   1.073 -0.5025 -0.7589 -2.3743
 8540SOL     OW26518   3.266   6.662   2.247  0.6817 -0.4545 -0.1609
 8540SOL    HW126519   3.323   6.635   2.324 -1.6930 -2.4841  1.0501
 8540SOL    HW226520   3.280   6.598   2.172 -0.4879 -1.4428  0.4303
 8541SOL     OW26521   1.300   3.412   2.510  0.1273 -0.0488  0.0118
 8541SOL    HW126522   1.339   3.495   2.550 -1.1490 -0.1479  1.5771
 8541SOL    HW226523   1.217   3.436   2.460 -0.0735 -0.3300  0.2057
 8542SOL     OW26524   3.295   5.967   6.831 -0.1038  0.0235  0.0511
 8542SOL    HW126525   3.334   5.927   6.749  3.2454 -0.4216  1.7058
 8542SOL    HW226526   3.365   6.018   6.881 -2.0056  0.4127  2.5866
 8543SOL     OW26527   3.729   1.697   0.160  0.2949  0.2059  0.2498
 8543SOL    HW126528   3.677   1.781   0.173 -0.0774 -0.1420  1.0498
 8543SOL    HW226529   3.753   1.687   0.063  0.7577  1.4691  0.2230
 8544SOL     OW26530   5.562   3.709   4.661 -0.0708  0.3712  0.2318
 8544SOL    HW126531   5.494   3.658   4.610 -1.3348  1.0745  1.1341
 8544SOL    HW226532   5.641   3.651   4.681 -1.2038 -1.0425  0.7304
 8545SOL     OW26533   5.413   1.969   6.169 -0.5894  0.2661  0.5319
 8545SOL    HW126534   5.488   2.032   6.190 -0.4044  0.4415 -0.5975
 8545SOL    HW226535   5.450   1.880   6.142 -0.7419  0.5808 -0.7743
 8546SOL     OW26536   4.103   1.057   4.727 -0.2060  0.7736  0.1397
 8546SOL    HW126537   4.106   1.152   4.759 -1.5127  0.8993 -0.0533
 8546SOL    HW226538   4.149   1.050   4.638  0.6354  1.0524  0.5476
 8547SOL     OW26539   1.487   2.782   1.859  0.6608  0.0949 -0.0575
 8547SOL    HW126540   1.544   2.785   1.941  1.4575 -0.6186 -0.5708
 8547SOL    HW226541   1.521   2.849   1.793  0.1166  0.5592  0.1332
 8548SOL     OW26542   5.890   1.224   3.901 -0.4538  0.2181  0.0555
 8548SOL    HW126543   5.816   1.264   3.955 -0.0749  0.0493  0.7043
 8548SOL    HW226544   5.886   1.260   3.808 -1.2770  0.3028  0.1154
 8549SOL     OW26545   4.663   2.520   5.487 -0.2168 -0.6708 -0.1386
 8549SOL    HW126546   4.665   2.597   5.424  1.4999 -0.5583  0.0067
 8549SOL    HW226547   4.652   2.554   5.581 -1.4259 -0.7500 -0.2406
 8550SOL     OW26548   6.954   5.840   6.613 -0.6116 -0.3921  0.5579
 8550SOL    HW126549   6.951   5.855   6.514 -0.4354  1.9755  0.8413
 8550SOL    HW226550   7.045   5.864   6.647 -0.6501 -1.2534  1.2940
 8551SOL     OW26551   3.560   4.967   0.418 -0.2824 -0.3986 -0.4004
 8551SOL    HW126552   3.636   4.912   0.383  0.3965  0.1371  0.1778
 8551SOL    HW226553   3.498   4.991   0.344 -0.4256 -1.6705 -0.7132
 8552SOL     OW26554   1.642   1.172   4.358 -0.2268 -0.0629 -0.5197
 8552SOL    HW126555   1.660   1.236   4.283 -2.2707  0.6631 -0.4506
 8552SOL    HW226556   1.550   1.188   4.395 -0.2493 -2.0927  0.4699
 8553SOL     OW26557   6.261   6.685   6.480 -0.4120 -0.4772  0.0547
 8553SOL    HW126558   6.277   6.779   6.450  0.6944  0.4179  3.0800
 8553SOL    HW226559   6.247   6.627   6.400 -0.0987  2.0415 -1.9759
 8554SOL     OW26560   0.575   4.514   0.006  0.3300  0.2639  0.1813
 8554SOL    HW126561   0.606   4.553   0.093 -0.3380  2.8523 -0.6755
 8554SOL    HW226562   0.653   4.509  -0.057  0.5250 -0.3465  0.4570
 8555SOL     OW26563   1.054   0.458   3.959  0.0621  0.3230  0.7437
 8555SOL    HW126564   1.149   0.485   3.969 -0.1387  0.8604  1.2610
 8555SOL    HW226565   1.025   0.473   3.864  0.3039  0.7763  0.7412
 8556SOL     OW26566   4.794   2.921   6.046 -0.2342 -0.0333  0.0064
 8556SOL    HW126567   4.740   2.848   6.003 -0.5505  0.0342  0.2881
 8556SOL    HW226568   4.887   2.888   6.062 -0.0520  0.0012 -0.9054
 8557SOL     OW26569   6.747   1.983   1.592  0.0375  0.6716  0.3057
 8557SOL    HW126570   6.835   2.002   1.635  0.0846 -1.9346  1.5874
 8557SOL    HW226571   6.686   1.939   1.659 -1.2391 -0.1031 -1.2951
 8558SOL     OW26572   2.690   5.410   3.059 -0.5526  0.2440 -0.0983
 8558SOL    HW126573   2.771   5.352   3.072 -0.0367  1.0582  0.4035
 8558SOL    HW226574   2.644   5.385   2.973  0.8016  0.4296 -0.9084
 8559SOL     OW26575   0.321   0.382   3.603  0.2743  0.0704  0.2251
 8559SOL    HW126576   0.252   0.314   3.576  1.0887 -0.3547 -0.8478
 8559SOL    HW226577   0.394   0.384   3.535  0.8714  1.1732  0.8747
 8560SOL     OW26578   0.290   2.100   5.888  0.0396  0.3417 -0.4235
 8560SOL    HW126579   0.211   2.153   5.860 -0.5155  0.2010  0.8189
 8560SOL    HW226580   0.269   2.002   5.883 -0.5728  0.3065  1.7085
 8561SOL     OW26581   3.598   6.215   1.048 -0.0565 -0.0246 -0.1994
 8561SOL    HW126582   3.610   6.275   1.127  0.3822 -0.2211 -0.1101
 8561SOL    HW226583   3.526   6.149   1.066  0.8079 -0.8011  0.4967
 8562SOL     OW26584   4.595   1.464   4.730  0.2747 -0.3227  0.3540
 8562SOL    HW126585   4.633   1.552   4.757 -1.1295  0.4080  0.0328
 8562SOL    HW226586   4.629   1.439   4.640  0.9733 -0.2997  0.6063
 8563SOL     OW26587   1.451   3.594   7.015  0.2803 -0.3390 -0.2068
 8563SOL    HW126588   1.382   3.632   7.077 -0.3447 -0.1910 -0.9711
 8563SOL    HW226589   1.425   3.613   6.920  0.9165 -1.0633 -0.5444
 8564SOL     OW26590   2.086   3.447   3.145 -0.1874 -0.0372  0.1346
 8564SOL    HW126591   2.104   3.350   3.131 -0.1114 -0.0146  0.0783
 8564SOL    HW226592   2.085   3.467   3.243  0.6363  0.0664  0.1254
 8565SOL     OW26593   3.677   1.060   3.625 -0.8839 -0.5482 -0.4946
 8565SOL    HW126594   3.666   1.159   3.628 -1.5061 -0.6260  0.0655
 8565SOL    HW226595   3.773   1.036   3.637 -0.5975  0.0202 -1.5324
 8566SOL     OW26596   0.618   4.977   2.378  0.3711 -0.6164 -0.2828
 8566SOL    HW126597   0.666   5.020   2.302 -1.6356  3.7260  0.5990
 8566SOL    HW226598   0.674   4.982   2.461  0.6060 -0.7527 -0.4339
 8567SOL     OW26599   4.718   6.945   6.968  0.0060  0.1727  0.0885
 8567SOL    HW126600   4.755   6.937   7.061  1.1716  0.2529 -0.3440
 8567SOL    HW226601   4.753   7.029   6.926 -0.1180 -0.1080 -0.5841
 8568SOL     OW26602   3.741   0.003   0.770  0.2996 -0.1875 -0.0126
 8568SOL    HW126603   3.674   0.060   0.817 -0.6568 -1.3807  0.1274
 8568SOL    HW226604   3.818   0.059   0.741 -0.1805  0.9959  0.9109
 8569SOL     OW26605   3.149   0.602   4.614  0.6269  0.1182  0.2164
 8569SOL    HW126606   3.050   0.591   4.608  0.7239 -0.3414 -0.7017
 8569SOL    HW226607   3.177   0.600   4.710 -0.1248 -0.9231  0.4302
 8570SOL     OW26608   1.151   6.483   3.886 -0.7346 -0.2413  0.1912
 8570SOL    HW126609   1.240   6.528   3.878  0.2302 -1.8850  1.2451
 8570SOL    HW226610   1.152   6.398   3.834 -1.0756 -1.1346  1.5962
 8571SOL     OW26611   1.125   5.262   6.771 -0.4444 -0.2276  0.2655
 8571SOL    HW126612   1.177   5.345   6.794 -1.0183 -0.0067  0.8045
 8571SOL    HW226613   1.064   5.239   6.848 -0.9008 -0.6646 -0.2227
 8572SOL     OW26614   2.087   4.085   5.270  0.1784  0.1491 -0.5428
 8572SOL    HW126615   2.174   4.134   5.269  1.2444 -1.6500 -0.0312
 8572SOL    HW226616   2.039   4.101   5.183  1.7626 -0.1127 -1.5072
 8573SOL     OW26617   2.262   4.739   3.284 -0.2342 -0.1310  0.6704
 8573SOL    HW126618   2.303   4.798   3.354 -1.1211  0.4161  0.7445
 8573SOL    HW226619   2.176   4.701   3.320  0.0232 -1.0057  0.4009
 8574SOL     OW26620   0.225   5.182   2.376  0.0070  0.2767 -0.3866
 8574SOL    HW126621   0.205   5.279   2.386 -0.0083  0.1312  1.2104
 8574SOL    HW226622   0.210   5.136   2.463  0.2647 -1.1192 -1.0592
 8575SOL     OW26623   4.020   2.546   1.023  0.3634 -0.4193 -0.0404
 8575SOL    HW126624   4.104   2.494   1.006  0.0353 -1.0261  0.1497
 8575SOL    HW226625   3.965   2.498   1.091  0.1866  0.3432  0.3593
 8576SOL     OW26626   1.847   6.658   0.588 -0.6036  0.0330 -0.2630
 8576SOL    HW126627   1.846   6.635   0.685 -2.2089 -1.7456 -0.6424
 8576SOL    HW226628   1.763   6.706   0.564 -0.9563 -0.9189 -1.0313
 8577SOL     OW26629   6.503   4.010   4.270 -0.1905 -0.2810 -0.4253
 8577SOL    HW126630   6.559   4.025   4.189 -1.0827 -0.5968 -1.1137
 8577SOL    HW226631   6.406   4.021   4.247 -0.4018  3.1120  1.3330
 8578SOL     OW26632   5.041   0.080   4.454 -0.0592 -0.3141  0.0634
 8578SOL    HW126633   5.122   0.127   4.488 -0.6489  1.1532 -0.4710
 8578SOL    HW226634   4.961   0.106   4.509 -0.6014  0.2643 -0.9676
 8579SOL     OW26635   6.581   3.988   2.698 -0.3714 -0.1689  0.5152
 8579SOL    HW126636   6.559   3.978   2.601 -0.1783  1.3386  0.2946
 8579SOL    HW226637   6.498   3.979   2.753 -0.5328 -0.7021  0.1839
 8580SOL     OW26638   2.073   0.648   5.490 -0.0335  0.2210  0.5644
 8580SOL    HW126639   2.011   0.632   5.566  1.1207 -1.9613  1.1280
 8580SOL    HW226640   2.155   0.591   5.501  0.8806  1.0381 -1.4975
 8581SOL     OW26641   2.877   2.212   1.004 -0.3640  0.1591 -1.2930
 8581SOL    HW126642   2.851   2.303   0.971 -2.5079  0.0243 -0.1699
 8581SOL    HW226643   2.925   2.221   1.091  0.8703  0.2607 -1.9612
 8582SOL     OW26644   2.946   5.403   1.767 -0.2231 -0.2190 -0.3682
 8582SOL    HW126645   2.940   5.368   1.673 -0.0010  0.9243 -0.8276
 8582SOL    HW226646   3.019   5.471   1.772  1.0907 -1.6797  1.1207
 8583SOL     OW26647   5.883   6.975   3.629 -0.1155  0.8420 -0.1580
 8583SOL    HW126648   5.921   6.949   3.541  0.1083 -0.3362  0.2659
 8583SOL    HW226649   5.847   7.069   3.624 -2.0697  0.0845 -2.1282
 8584SOL     OW26650   2.557   6.107   4.271 -0.1640  0.3026  0.2964
 8584SOL    HW126651   2.494   6.184   4.262 -0.7900  0.0330  1.9915
 8584SOL    HW226652   2.517   6.026   4.227  0.3536  0.8229 -1.2030
 8585SOL     OW26653   0.957   0.834   6.619 -0.1462 -0.5349 -0.3176
 8585SOL    HW126654   0.907   0.855   6.704  0.5978  1.4467 -0.3185
 8585SOL    HW226655   0.897   0.783   6.557 -2.1385  1.4793 -0.2089
 8586SOL     OW26656   3.174   5.707   3.517 -0.2579  0.1983  0.0728
 8586SOL    HW126657   3.087   5.719   3.469  0.4561  0.3739 -1.2242
 8586SOL    HW226658   3.232   5.645   3.464  1.0418  1.3966  0.0494
 8587SOL     OW26659   0.192   1.661   2.070  0.1730  0.2286  0.1370
 8587SOL    HW126660   0.097   1.689   2.062  0.0854 -0.2980 -0.9282
 8587SOL    HW226661   0.231   1.697   2.154 -0.3211  2.3317 -0.4740
 8588SOL     OW26662   4.100   1.701   1.476 -0.2733  0.4974 -0.0618
 8588SOL    HW126663   4.009   1.742   1.488  0.0540  1.2993 -0.2653
 8588SOL    HW226664   4.145   1.693   1.564  0.2967  2.1059 -0.1646
 8589SOL     OW26665   5.042   3.089   3.569 -0.4948  0.5569  0.1713
 8589SOL    HW126666   5.052   3.078   3.668 -1.1447  1.0671  0.3004
 8589SOL    HW226667   4.983   3.017   3.533  1.2670 -0.7809 -0.1591
 8590SOL     OW26668   5.442   3.381   6.354  0.1013 -0.1853 -0.2112
 8590SOL    HW126669   5.531   3.351   6.387  1.3782  2.0319 -1.3557
 8590SOL    HW226670   5.412   3.322   6.279  1.6799  0.2950 -1.2584
 8591SOL     OW26671   1.025   4.016   6.931 -0.3858 -0.1853 -0.0078
 8591SOL    HW126672   1.121   3.993   6.919 -0.9975 -2.9350 -0.3296
 8591SOL    HW226673   1.011   4.112   6.910  1.9872 -0.1148 -1.7104
 8592SOL     OW26674   6.978   6.735   0.318  0.9065  0.1878 -0.1104
 8592SOL    HW126675   6.979   6.644   0.276  0.6342  0.0066  0.2625
 8592SOL    HW226676   6.967   6.725   0.417 -1.9976  0.6669 -0.3005
 8593SOL     OW26677   1.825   5.234   4.683 -0.1474  0.5462  0.6717
 8593SOL    HW126678   1.783   5.189   4.604  2.3940  1.1038 -1.1039
 8593SOL    HW226679   1.804   5.182   4.766 -0.6395 -1.6216 -0.7410
 8594SOL     OW26680   3.909   3.738   1.566 -0.0446  0.4690  0.5608
 8594SOL    HW126681   3.888   3.669   1.635  1.8284 -0.8250 -0.0727
 8594SOL    HW226682   3.879   3.827   1.598 -0.1667 -0.2415  2.5926
 8595SOL     OW26683   1.984   3.509   4.755 -0.4445  0.2627 -0.6117
 8595SOL    HW126684   1.889   3.538   4.750 -0.3263  0.7815  0.1081
 8595SOL    HW226685   2.042   3.587   4.779  0.2651  0.1325 -1.8046
 8596SOL     OW26686   0.028   2.548   2.725 -0.6437 -0.6013 -0.6134
 8596SOL    HW126687  -0.055   2.492   2.721  0.0510 -1.7828  0.7210
 8596SOL    HW226688   0.108   2.489   2.718  0.2206 -0.3229  4.0227
 8597SOL     OW26689   2.509   3.074   6.637  0.1753  0.0126 -0.4899
 8597SOL    HW126690   2.592   3.029   6.605  1.2373 -0.7322  2.9560
 8597SOL    HW226691   2.520   3.173   6.632  1.2414 -0.0823 -0.1315
 8598SOL     OW26692   0.378   2.401   1.957 -0.3048  0.5678  0.1968
 8598SOL    HW126693   0.302   2.463   1.977 -0.6818  0.5037 -0.9643
 8598SOL    HW226694   0.458   2.430   2.009 -0.4224  2.1614 -0.4499
 8599SOL     OW26695   0.909   1.688   6.541  0.7630 -0.0489  0.7974
 8599SOL    HW126696   0.843   1.617   6.564  0.2561 -0.2246 -1.0758
 8599SOL    HW226697   0.917   1.752   6.618  0.2099 -1.3370  1.9738
 8600SOL     OW26698   0.760   4.241   0.044 -0.1759 -0.0440  0.0304
 8600SOL    HW126699   0.828   4.242  -0.029  0.0408 -0.5453  0.2227
 8600SOL    HW226700   0.794   4.293   0.122 -0.3083  0.2958 -0.1398
 8601SOL     OW26701   0.774   6.261   6.637  0.0982  0.8624  0.1065
 8601SOL    HW126702   0.811   6.205   6.711 -1.1678 -0.4180 -0.1913
 8601SOL    HW226703   0.838   6.261   6.560 -0.8909 -2.2675 -0.8591
 8602SOL     OW26704   0.252   5.946   1.798  0.2788 -0.1396 -0.1385
 8602SOL    HW126705   0.200   5.928   1.715  0.2618 -0.5535 -0.0389
 8602SOL    HW226706   0.340   5.899   1.793 -0.1141 -0.9581  0.4914
 8603SOL     OW26707   5.233   4.165   0.451 -0.5756 -0.3465  0.3138
 8603SOL    HW126708   5.299   4.201   0.385 -1.1474  2.2076  1.0178
 8603SOL    HW226709   5.283   4.124   0.528  0.1174 -0.7847 -0.3534
 8604SOL     OW26710   0.161   4.058   3.950  0.6123  0.5550  0.0801
 8604SOL    HW126711   0.108   4.138   3.978 -1.4410 -0.0903 -1.7321
 8604SOL    HW226712   0.218   4.028   4.027  0.2461  2.7647  1.3066
 8605SOL     OW26713   1.711   4.895   2.363 -0.1925  0.0306  0.0324
 8605SOL    HW126714   1.787   4.853   2.314  0.9694  0.8757  1.0674
 8605SOL    HW226715   1.727   4.994   2.371 -2.0878  0.4722 -0.9586
 8606SOL     OW26716   4.416   5.753   5.691  0.2809  0.1417 -0.0608
 8606SOL    HW126717   4.402   5.771   5.594  0.6915 -0.7865 -0.3066
 8606SOL    HW226718   4.332   5.771   5.741  0.0857  0.6930 -0.5790
 8607SOL     OW26719   2.721   6.703   0.706 -0.2196  0.0037  0.0985
 8607SOL    HW126720   2.695   6.778   0.645  0.5159  0.6069  0.5191
 8607SOL    HW226721   2.795   6.732   0.765  0.7425 -1.3668 -0.3853
 8608SOL     OW26722   4.661   6.232   3.506  0.0803 -0.3386 -0.3351
 8608SOL    HW126723   4.728   6.298   3.540 -0.4325 -0.3433  0.7445
 8608SOL    HW226724   4.670   6.222   3.407  0.0319  1.4952 -0.5510
 8609SOL     OW26725   5.769   6.796   6.061 -0.0402 -0.5045  0.1364
 8609SOL    HW126726   5.826   6.875   6.042  0.4060 -1.2453 -1.9039
 8609SOL    HW226727   5.758   6.785   6.160  1.5377  0.9074  0.5049
 8610SOL     OW26728   6.432   0.153   4.135 -0.2840 -0.3759  0.1555
 8610SOL    HW126729   6.398   0.072   4.182  0.1025 -1.3705 -1.2143
 8610SOL    HW226730   6.365   0.182   4.067  0.1024 -0.2708 -0.1817
 8611SOL     OW26731   1.878   0.885   2.307  0.0647  0.3483 -0.3387
 8611SOL    HW126732   1.858   0.969   2.257 -0.7104 -0.5353 -1.6017
 8611SOL    HW226733   1.880   0.903   2.405 -0.2956  1.7846 -0.5804
 8612SOL     OW26734   5.448   2.480   2.543  0.1904  0.2165 -0.4181
 8612SOL    HW126735   5.359   2.446   2.573  0.2228 -0.5409 -1.1381
 8612SOL    HW226736   5.517   2.456   2.611  0.2338 -1.3402 -0.9483
 8613SOL     OW26737   2.225   1.813   0.711 -0.3043  0.7025  0.2839
 8613SOL    HW126738   2.164   1.755   0.658  0.1785  0.8444 -0.4325
 8613SOL    HW226739   2.194   1.908   0.706  0.7517  1.0010 -1.2594
 8614SOL     OW26740   0.801   2.832   4.697 -0.0475  0.4908  0.2648
 8614SOL    HW126741   0.822   2.899   4.769 -1.3203  1.1269  0.0644
 8614SOL    HW226742   0.706   2.803   4.705 -0.5594  1.4002 -1.8095
 8615SOL     OW26743   0.268   2.436   5.738 -0.6204  0.1889 -0.0658
 8615SOL    HW126744   0.328   2.358   5.721  0.9047  1.2587  0.1804
 8615SOL    HW226745   0.228   2.428   5.830 -2.1115 -1.2940 -0.8015
 8616SOL     OW26746   1.289   3.115   0.860 -0.0522 -0.1967  0.4560
 8616SOL    HW126747   1.364   3.152   0.914 -0.8750  0.5071  1.1478
 8616SOL    HW226748   1.322   3.093   0.768  0.4877  2.4186 -0.0650
 8617SOL     OW26749   6.504   0.950   1.266  0.0447  0.9624  0.5779
 8617SOL    HW126750   6.481   0.854   1.250 -0.1546  1.0081  0.5855
 8617SOL    HW226751   6.513   0.967   1.364  1.6663  0.5905  0.5250
 8618SOL     OW26752   3.825   1.186   3.258  0.4741  0.1388  0.4979
 8618SOL    HW126753   3.729   1.160   3.271 -0.5346  2.5291 -1.3972
 8618SOL    HW226754   3.868   1.122   3.194 -0.0524 -0.5511  0.8167
 8619SOL     OW26755   4.074   5.958   6.810 -0.1312  0.0923  0.2925
 8619SOL    HW126756   4.150   5.894   6.822 -1.4553 -1.0399  4.0099
 8619SOL    HW226757   4.099   6.048   6.844  0.0060  0.1347  0.0829
 8620SOL     OW26758   6.292   5.255   4.750 -0.0458  0.7477  0.3304
 8620SOL    HW126759   6.391   5.248   4.742  0.0124  0.9511  0.8451
 8620SOL    HW226760   6.249   5.171   4.716  0.3861 -0.0921  1.7702
 8621SOL     OW26761   5.433   0.211   4.275  0.2076 -0.1389  0.2523
 8621SOL    HW126762   5.418   0.112   4.272  0.1927 -0.2188  2.0250
 8621SOL    HW226763   5.486   0.234   4.356  1.9406  1.1210 -1.1573
 8622SOL     OW26764   4.818   4.157   4.699 -0.5623  0.4060  0.2805
 8622SOL    HW126765   4.784   4.071   4.737 -0.1850  0.7466  1.4221
 8622SOL    HW226766   4.840   4.144   4.602  0.2269 -1.0033  0.6174
 8623SOL     OW26767   0.229   1.040   3.331 -0.0392  0.1560  0.6372
 8623SOL    HW126768   0.210   1.045   3.233  0.3926  1.2480  0.5937
 8623SOL    HW226769   0.202   0.951   3.366 -0.9536  0.0405 -0.3187
 8624SOL     OW26770   5.649   2.401   5.066  0.2386  0.1815 -0.5327
 8624SOL    HW126771   5.610   2.331   5.127  2.5165 -0.4798  0.2835
 8624SOL    HW226772   5.577   2.439   5.009 -1.4927 -1.2097  0.5977
 8625SOL     OW26773   3.246   0.256   0.195  0.4205 -0.3532  0.3356
 8625SOL    HW126774   3.165   0.217   0.239  0.4677  0.8068  1.4919
 8625SOL    HW226775   3.325   0.196   0.211  0.1569 -0.6100  0.6908
 8626SOL     OW26776   3.561   2.912   3.917 -0.1036  0.2845  0.3604
 8626SOL    HW126777   3.566   2.866   4.006 -0.4411 -1.0988 -0.3034
 8626SOL    HW226778   3.652   2.915   3.876 -0.0860  0.1565  0.3890
 8627SOL     OW26779   1.671   5.761   6.057  0.3284 -0.4022 -0.6618
 8627SOL    HW126780   1.609   5.691   6.092 -0.1957 -0.4383 -1.6390
 8627SOL    HW226781   1.639   5.851   6.086  0.7728 -0.5295  0.2501
 8628SOL     OW26782   5.725   0.138   2.954  0.1147  0.3196 -0.6903
 8628SOL    HW126783   5.776   0.221   2.974  1.2328 -0.4797 -0.0962
 8628SOL    HW226784   5.789   0.063   2.935 -0.6253 -1.4320  2.8631
 8629SOL     OW26785   1.529   5.684   3.009  0.2987  0.0320  0.3628
 8629SOL    HW126786   1.460   5.677   3.081  2.2118 -0.0041  2.2858
 8629SOL    HW226787   1.611   5.633   3.036  1.1511  0.1697 -1.7839
 8630SOL     OW26788   5.669   4.387   4.150  0.5963 -0.5171  0.5463
 8630SOL    HW126789   5.575   4.352   4.141  0.5113 -0.8097  2.1191
 8630SOL    HW226790   5.733   4.316   4.123  0.3702 -0.2354 -0.7651
 8631SOL     OW26791   3.182   6.245   3.028 -0.7129 -0.0286 -0.1078
 8631SOL    HW126792   3.256   6.297   3.071  0.3988 -1.3245 -0.3763
 8631SOL    HW226793   3.193   6.148   3.050 -0.8308 -0.5737 -2.2694
 8632SOL     OW26794   2.441   1.145   3.776 -0.0670  0.6242  0.0650
 8632SOL    HW126795   2.442   1.154   3.676  0.5205 -1.2176 -0.1263
 8632SOL    HW226796   2.509   1.206   3.816  0.8952  0.1395 -0.7989
 8633SOL     OW26797   4.600   6.747   1.693  0.0710 -0.6198 -0.5424
 8633SOL    HW126798   4.570   6.816   1.627 -1.0196  0.2388  0.8098
 8633SOL    HW226799   4.624   6.791   1.779  1.2729 -1.7456 -0.2711
 8634SOL     OW26800   2.240   0.385   2.382  0.2729  0.0958 -0.1590
 8634SOL    HW126801   2.226   0.359   2.287  0.6758 -0.1616 -0.1511
 8634SOL    HW226802   2.166   0.445   2.412  0.1547  0.1906 -0.6388
 8635SOL     OW26803   6.714   2.831   4.464  0.1072  0.0336  0.3071
 8635SOL    HW126804   6.672   2.901   4.522 -1.4805 -1.1569  0.6733
 8635SOL    HW226805   6.807   2.858   4.440  0.2989  1.2255  2.2265
 8636SOL     OW26806   5.709   4.137   1.964 -0.0565 -0.3412 -0.1164
 8636SOL    HW126807   5.752   4.054   1.929  0.0042 -0.0945 -0.6288
 8636SOL    HW226808   5.769   4.216   1.946 -0.5356 -0.0542 -0.4645
 8637SOL     OW26809   6.985   2.003   3.032  0.2954  0.4440 -0.4449
 8637SOL    HW126810   7.017   1.945   2.958  1.6542  0.7223 -0.1079
 8637SOL    HW226811   6.905   2.054   3.002  0.7204  0.4310 -1.6709
 8638SOL     OW26812   4.019   5.382   0.019  0.2168  0.1210  0.0670
 8638SOL    HW126813   4.076   5.312   0.062 -0.0033  0.9795  1.8361
 8638SOL    HW226814   4.073   5.465   0.007 -0.3925  0.6698  0.9876
 8639SOL     OW26815   6.000   1.777   4.606 -0.8417  0.5224 -0.9033
 8639SOL    HW126816   6.018   1.684   4.575 -1.3098 -0.4486  1.5235
 8639SOL    HW226817   5.904   1.801   4.589 -1.0931  0.0020 -0.2519
 8640SOL     OW26818   0.631   3.901   1.264  0.0151 -0.4888  0.1255
 8640SOL    HW126819   0.724   3.935   1.279 -0.0436 -0.7241  1.0598
 8640SOL    HW226820   0.584   3.962   1.201  1.7280 -1.9249 -2.8054
 8641SOL     OW26821   6.739   3.971   4.491 -0.4700 -0.4647  0.1130
 8641SOL    HW126822   6.782   4.059   4.472  0.7389 -1.1117 -0.2359
 8641SOL    HW226823   6.653   3.965   4.440 -1.4362  1.1691  1.4513
 8642SOL     OW26824   5.498   1.254   0.678 -0.1093  0.0590 -0.2132
 8642SOL    HW126825   5.552   1.335   0.656 -1.0110  1.1773  1.4715
 8642SOL    HW226826   5.558   1.176   0.695  0.7645  0.2953 -2.0202
 8643SOL     OW26827   4.656   6.612   5.901 -0.4080  0.1484 -0.4162
 8643SOL    HW126828   4.617   6.605   5.993 -1.6671  0.7750 -0.8689
 8643SOL    HW226829   4.747   6.651   5.905 -0.3670 -0.0454  0.5871
 8644SOL     OW26830   6.977   3.842   3.905 -0.0102  0.4744 -0.2400
 8644SOL    HW126831   6.987   3.767   3.970  1.4692 -0.0061 -0.9825
 8644SOL    HW226832   7.034   3.919   3.932  0.6451  0.2559 -0.9746
 8645SOL     OW26833   5.307   4.392   1.886  0.1978  0.1763  0.2828
 8645SOL    HW126834   5.211   4.390   1.859  0.0047  3.1594  0.3877
 8645SOL    HW226835   5.319   4.339   1.970 -0.5066 -3.4479 -1.7010
 8646SOL     OW26836   4.185   1.060   0.855  0.2417 -0.4217 -0.2382
 8646SOL    HW126837   4.094   1.026   0.829  0.3098  0.9422 -2.5024
 8646SOL    HW226838   4.174   1.134   0.923 -0.1786 -1.5183  0.9365
 8647SOL     OW26839   4.677   4.189   1.208 -0.2028 -0.3103 -0.2729
 8647SOL    HW126840   4.584   4.204   1.176  0.0788 -0.2902 -1.1076
 8647SOL    HW226841   4.696   4.250   1.285 -0.8973 -0.3649 -0.0539
 8648SOL     OW26842   6.038   6.794   5.341  0.0076 -0.2882 -0.8553
 8648SOL    HW126843   6.048   6.837   5.252 -1.1152 -1.3317 -1.5257
 8648SOL    HW226844   5.948   6.750   5.347  0.3374 -0.8356  0.5268
 8649SOL     OW26845   0.409   4.468   4.037  0.6535  0.0853 -0.6545
 8649SOL    HW126846   0.480   4.535   4.062 -0.0904 -0.1834  2.6212
 8649SOL    HW226847   0.332   4.515   3.995  1.5480  0.7617 -1.5963
 8650SOL     OW26848   1.068   6.361   6.743 -0.3065 -0.2364  0.2072
 8650SOL    HW126849   1.096   6.283   6.798  0.4353 -1.3363 -1.6633
 8650SOL    HW226850   0.969   6.375   6.753 -0.5197 -1.6565  0.2865
 8651SOL     OW26851   5.287   1.759   1.006  0.6036 -0.3189  0.1136
 8651SOL    HW126852   5.291   1.740   0.908  1.1399  2.0716 -0.3855
 8651SOL    HW226853   5.376   1.743   1.047  0.5531 -0.6700  0.0904
 8652SOL     OW26854   1.464   4.627   4.055 -0.0509  0.6978  0.4200
 8652SOL    HW126855   1.515   4.658   3.974 -1.9367  0.8062 -0.7830
 8652SOL    HW226856   1.386   4.571   4.025  0.4623 -1.1435  2.2950
 8653SOL     OW26857   5.445   2.842   6.064 -0.3021  0.0586 -0.0089
 8653SOL    HW126858   5.397   2.917   6.111 -2.2121 -0.9780 -0.1753
 8653SOL    HW226859   5.458   2.866   5.968  1.4371  1.1930  0.4645
 8654SOL     OW26860   1.344   4.479   1.749  0.2512  0.1134  0.1527
 8654SOL    HW126861   1.429   4.444   1.711 -0.0781 -0.4155 -0.1115
 8654SOL    HW226862   1.360   4.511   1.843  0.6792 -0.2480  0.2101
 8655SOL     OW26863   4.523   0.887   3.611  0.1023  0.1535  0.6134
 8655SOL    HW126864   4.528   0.804   3.666 -1.6580 -0.6232 -0.3186
 8655SOL    HW226865   4.455   0.950   3.651 -0.4314  0.0255 -0.0635
 8656SOL     OW26866   0.527   3.941   1.584 -0.0340 -0.1666  0.8552
 8656SOL    HW126867   0.552   3.850   1.616 -1.0249 -0.6391  0.3496
 8656SOL    HW226868   0.608   3.999   1.580  0.7519 -1.2539  0.4453
 8657SOL     OW26869   1.086   5.726   0.338 -0.0403 -0.3841  0.0215
 8657SOL    HW126870   1.014   5.701   0.273 -1.1136 -0.3312  1.1441
 8657SOL    HW226871   1.058   5.808   0.388  1.3013  0.2697 -0.2606
 8658SOL     OW26872   1.618   0.453   5.633 -0.9026 -0.4035  0.4209
 8658SOL    HW126873   1.637   0.362   5.597 -1.4587 -0.3610 -0.0076
 8658SOL    HW226874   1.652   0.461   5.726  0.0408 -0.7158  0.1049
 8659SOL     OW26875   1.016   0.253   4.741  0.3152  0.4338 -0.2042
 8659SOL    HW126876   1.027   0.204   4.828  1.5289  0.5457 -0.2853
 8659SOL    HW226877   0.967   0.194   4.676  1.2259 -0.4555 -0.1074
 8660SOL     OW26878   5.852   4.289   6.843  0.1376  0.0054  0.0492
 8660SOL    HW126879   5.916   4.224   6.802 -0.9107 -1.2748  0.3579
 8660SOL    HW226880   5.902   4.351   6.904  1.0904 -0.9708  0.2971
 8661SOL     OW26881   5.861   3.135   2.186 -0.4340 -0.5463  0.2187
 8661SOL    HW126882   5.785   3.080   2.150 -0.0445 -0.4794 -0.7098
 8661SOL    HW226883   5.943   3.119   2.132 -0.3360  1.0447 -0.1512
 8662SOL     OW26884   6.425   1.347   6.962 -0.2228 -0.1734 -0.2663
 8662SOL    HW126885   6.345   1.289   6.945 -0.5330  0.1839 -0.0477
 8662SOL    HW226886   6.436   1.412   6.887  0.2007 -0.5944 -0.5739
 8663SOL     OW26887   1.139   4.742   0.070 -0.0530  0.6209  0.0401
 8663SOL    HW126888   1.159   4.658   0.018 -2.3669  1.0386 -1.6537
 8663SOL    HW226889   1.211   4.809   0.053  1.2358 -0.5837  0.5111
 8664SOL     OW26890   4.893   4.565   0.921 -0.4412 -0.7661  0.5862
 8664SOL    HW126891   4.923   4.470   0.927 -1.2537 -0.9577  2.2474
 8664SOL    HW226892   4.930   4.607   0.838  0.9932 -2.1414  0.4893
 8665SOL     OW26893   4.736   4.734   3.782  0.2504 -0.1273 -0.6192
 8665SOL    HW126894   4.725   4.805   3.712  1.5610 -0.0601 -0.7935
 8665SOL    HW226895   4.793   4.768   3.856 -1.5710 -0.0222  0.7944
 8666SOL     OW26896   0.311   2.996   2.770 -0.3438 -0.0688  0.3023
 8666SOL    HW126897   0.379   3.067   2.788 -1.0201  0.8376 -0.6471
 8666SOL    HW226898   0.230   3.013   2.826 -0.1319 -0.6621  0.7992
 8667SOL     OW26899   5.630   3.505   1.354 -0.5614  0.0582  0.4399
 8667SOL    HW126900   5.661   3.419   1.394 -2.2937 -0.3066  1.0931
 8667SOL    HW226901   5.606   3.570   1.426 -0.8704  0.4741 -0.0250
 8668SOL     OW26902   3.796   2.164   3.766 -0.1995  0.4117  0.0178
 8668SOL    HW126903   3.771   2.261   3.768  2.2825  1.1533 -0.9978
 8668SOL    HW226904   3.723   2.110   3.808 -1.8652  2.6490  0.1911
 8669SOL     OW26905   2.448   6.248   4.973 -0.4151 -0.2330 -0.0284
 8669SOL    HW126906   2.522   6.197   5.016  0.1448 -1.1987 -1.9709
 8669SOL    HW226907   2.360   6.206   4.998 -0.5043  1.5278  3.0966
 8670SOL     OW26908   2.499   4.774   2.327  0.4183 -0.0754 -0.3552
 8670SOL    HW126909   2.502   4.675   2.344  1.3194 -0.0215 -0.1406
 8670SOL    HW226910   2.505   4.791   2.229 -1.2745 -0.2705 -0.5273
 8671SOL     OW26911   6.044   4.370   6.360  0.7905 -0.2162  0.0032
 8671SOL    HW126912   5.945   4.356   6.352  0.6046  0.6526  0.5944
 8671SOL    HW226913   6.091   4.318   6.289 -0.2234  0.9231 -1.5774
 8672SOL     OW26914   2.864   6.437   6.538  0.1614  0.0019  0.1290
 8672SOL    HW126915   2.924   6.382   6.480  0.7399 -0.4235  1.1138
 8672SOL    HW226916   2.915   6.471   6.617 -0.6332  0.5100  0.4450
 8673SOL     OW26917   4.069   0.701   5.898 -0.1494 -0.2753 -0.7876
 8673SOL    HW126918   3.991   0.649   5.861  0.0278 -0.7811 -0.4610
 8673SOL    HW226919   4.153   0.671   5.853 -0.1975  0.6351 -1.5115
 8674SOL     OW26920   5.890   6.753   1.970 -0.5841  0.3569 -0.6753
 8674SOL    HW126921   5.980   6.792   1.950  0.4022 -1.3875  0.1296
 8674SOL    HW226922   5.819   6.806   1.924  0.9097  1.3630 -1.8951
 8675SOL     OW26923   1.012   2.182   2.979  0.2906  0.2176  0.2823
 8675SOL    HW126924   1.107   2.207   2.998  0.4730 -1.3115  1.5854
 8675SOL    HW226925   0.994   2.090   3.013 -2.0744  1.0188  1.4006
 8676SOL     OW26926   5.027   1.935   2.073 -0.4905 -0.6845 -0.4001
 8676SOL    HW126927   5.057   1.845   2.041  2.1101  0.0946 -0.4009
 8676SOL    HW226928   4.998   1.990   1.994 -0.0706 -0.8222 -0.6518
 8677SOL     OW26929   1.749   4.512   4.484 -0.0228  0.0623  0.1598
 8677SOL    HW126930   1.774   4.599   4.525  1.7824 -0.5270  0.4339
 8677SOL    HW226931   1.713   4.451   4.554  1.1028 -0.2375  0.5058
 8678SOL     OW26932   1.651   2.514   5.664  0.6446  0.2059  0.2084
 8678SOL    HW126933   1.596   2.564   5.731  0.7582  0.7696 -0.1190
 8678SOL    HW226934   1.659   2.419   5.693  0.8352  0.4828  1.0964
 8679SOL     OW26935   6.160   3.376   3.233  0.1093 -0.3190  0.0005
 8679SOL    HW126936   6.204   3.437   3.299  0.8247 -0.6847 -0.1257
 8679SOL    HW226937   6.144   3.287   3.277 -0.4581 -0.2070  0.0260
 8680SOL     OW26938   2.000   2.127   6.689 -0.0103 -0.8505 -0.0580
 8680SOL    HW126939   2.006   2.168   6.598 -1.6268  1.5720  0.8621
 8680SOL    HW226940   1.919   2.161   6.737  0.4827 -2.4983  2.1240
 8681SOL     OW26941   2.650   2.158   1.337 -0.2338 -0.1299 -0.0805
 8681SOL    HW126942   2.668   2.163   1.239 -0.4289  0.0491 -0.1085
 8681SOL    HW226943   2.629   2.064   1.363  1.5377 -0.5186  0.0981
 8682SOL     OW26944   1.080   4.849   3.825  0.0060  0.0892 -0.3905
 8682SOL    HW126945   0.991   4.819   3.790 -0.4801  0.1875  0.7242
 8682SOL    HW226946   1.088   4.948   3.813 -1.0977  0.4849  1.7158
 8683SOL     OW26947   4.702   4.153   5.762  0.1463  0.0255 -0.1283
 8683SOL    HW126948   4.697   4.071   5.818  1.0468  0.9087  1.3292
 8683SOL    HW226949   4.753   4.133   5.678  0.7000 -0.8122  0.3937
 8684SOL     OW26950   0.257   0.965   4.741  0.3863 -0.3883 -0.0461
 8684SOL    HW126951   0.346   1.005   4.719  0.3348 -0.6586 -0.7814
 8684SOL    HW226952   0.207   0.946   4.656  0.1426 -1.4079  0.3125
 8685SOL     OW26953   0.459   2.296   4.274 -0.0287 -0.4522  0.0911
 8685SOL    HW126954   0.502   2.368   4.329 -1.0204  0.1513  0.1008
 8685SOL    HW226955   0.361   2.291   4.295 -0.3605 -0.4662 -1.3314
 8686SOL     OW26956   6.376   0.580   6.292 -0.7037  0.1012  0.6585
 8686SOL    HW126957   6.331   0.491   6.296 -0.1735 -0.1311  1.6088
 8686SOL    HW226958   6.372   0.615   6.199 -3.5341  0.4333  0.8131
 8687SOL     OW26959   3.696   0.143   1.751  0.0796  0.3999 -0.1539
 8687SOL    HW126960   3.771   0.185   1.802  0.5449 -0.3649 -0.1801
 8687SOL    HW226961   3.707   0.043   1.754 -2.2052  0.1073  1.8288
 8688SOL     OW26962   1.347   6.870   0.510 -0.1160 -0.2738 -0.0082
 8688SOL    HW126963   1.262   6.917   0.533  0.2785  1.1811 -1.3452
 8688SOL    HW226964   1.327   6.784   0.463 -0.8577  0.4493 -1.0330
 8689SOL     OW26965   5.512   3.648   2.539  0.0988 -0.5740  0.1441
 8689SOL    HW126966   5.419   3.675   2.512 -0.0466  1.3589  2.2785
 8689SOL    HW226967   5.507   3.567   2.597 -0.2668 -0.6062  0.0720
 8690SOL     OW26968   0.628   1.444   3.204  0.9974  0.2043 -0.5262
 8690SOL    HW126969   0.634   1.543   3.216 -0.7888  0.4580 -1.3346
 8690SOL    HW226970   0.558   1.407   3.265  0.3793 -0.2634 -1.4837
 8691SOL     OW26971   4.726   1.038   6.526 -0.3790 -0.4284  0.0885
 8691SOL    HW126972   4.717   1.058   6.624  0.6580  0.6204 -0.0059
 8691SOL    HW226973   4.654   1.086   6.476 -0.8689 -0.9103  0.3202
 8692SOL     OW26974   0.912   0.247   3.596 -0.9291 -0.6681  0.2970
 8692SOL    HW126975   0.818   0.213   3.587 -1.4105  0.3931  1.0341
 8692SOL    HW226976   0.910   0.337   3.639  0.3636 -0.1524 -0.6617
 8693SOL     OW26977   5.772   3.405   6.204 -0.2962  0.5514  0.0889
 8693SOL    HW126978   5.825   3.371   6.126  1.4874  0.3066  1.3542
 8693SOL    HW226979   5.752   3.330   6.267  1.4962  1.3297  1.6608
 8694SOL     OW26980   2.715   6.013   0.164  0.4851  0.4018 -0.4391
 8694SOL    HW126981   2.809   5.990   0.185  0.3248  0.4897  0.3987
 8694SOL    HW226982   2.707   6.110   0.144  1.0678 -0.0491 -3.4487
 8695SOL     OW26983   4.176   4.974   6.205  0.2876 -0.1829  0.1359
 8695SOL    HW126984   4.227   4.989   6.290  1.2795  1.2218 -0.6717
 8695SOL    HW226985   4.080   4.955   6.227  0.4751  0.3814  1.5677
 8696SOL     OW26986   3.105   5.733   0.901  0.0926 -0.1442  0.1927
 8696SOL    HW126987   3.181   5.693   0.849  0.0626  1.9891 -1.6285
 8696SOL    HW226988   3.127   5.828   0.924 -1.2891 -0.0584  1.2751
 8697SOL     OW26989   5.301   4.723   5.948  0.4993 -0.2942 -0.3313
 8697SOL    HW126990   5.333   4.633   5.918  1.3019 -0.1289 -0.0011
 8697SOL    HW226991   5.203   4.719   5.966  0.2992 -0.7898 -1.4545
 8698SOL     OW26992   6.770   4.821   5.785  0.2760  0.1948 -0.3649
 8698SOL    HW126993   6.726   4.765   5.715  0.5645  1.0692 -1.2652
 8698SOL    HW226994   6.810   4.762   5.855  1.8037 -0.8028 -2.0153
 8699SOL     OW26995   4.052   1.671   4.371  0.4243 -0.7451 -0.1484
 8699SOL    HW126996   3.993   1.678   4.290  1.4017  2.2947 -0.7419
 8699SOL    HW226997   4.125   1.604   4.354 -1.8077 -3.4021  0.0108
 8700SOL     OW26998   1.594   1.680   6.077 -0.4315 -0.4225 -1.0173
 8700SOL    HW126999   1.565   1.774   6.093  1.2685  0.3701 -2.3258
 8700SOL    HW227000   1.517   1.627   6.042 -1.4224  0.4570 -0.2279
 8701SOL     OW27001   1.314   0.866   4.025  0.0859 -0.0515 -0.3163
 8701SOL    HW127002   1.413   0.878   4.030  0.0515  0.0108  0.3337
 8701SOL    HW227003   1.275   0.878   4.116 -0.6242  0.8803 -0.7270
 8702SOL     OW27004   4.739   6.994   5.286  0.2930 -0.5466 -0.5977
 8702SOL    HW127005   4.672   7.039   5.345 -1.4051 -1.9421 -1.3880
 8702SOL    HW227006   4.706   6.993   5.192  2.2800  0.3172 -1.3685
 8703SOL     OW27007   3.145   6.002   2.614  0.2567 -0.3256 -0.1308
 8703SOL    HW127008   3.058   6.051   2.610 -0.1024 -1.0059 -1.2908
 8703SOL    HW227009   3.213   6.059   2.660 -0.8949  0.0411  1.2152
 8704SOL     OW27010   1.646   3.732   1.121  0.0705 -0.1030 -0.1690
 8704SOL    HW127011   1.684   3.824   1.120 -0.2801  0.0401 -0.6374
 8704SOL    HW227012   1.715   3.668   1.156 -0.2670  0.5800  1.8956
 8705SOL     OW27013   3.647   5.885   4.900 -0.0177 -0.2058  0.1236
 8705SOL    HW127014   3.679   5.878   4.994  0.7298  1.7571  0.0663
 8705SOL    HW227015   3.723   5.914   4.841 -1.0366  1.0228 -0.6401
 8706SOL     OW27016   5.745   6.530   6.334 -0.5454  0.3238  0.2811
 8706SOL    HW127017   5.766   6.459   6.402 -0.3151 -0.5594 -0.6828
 8706SOL    HW227018   5.757   6.492   6.242  1.3994  2.1293 -0.2771
 8707SOL     OW27019   4.306   6.204   0.819 -0.3836  0.2444 -0.3667
 8707SOL    HW127020   4.252   6.286   0.800  0.0754  0.5696 -0.2812
 8707SOL    HW227021   4.391   6.230   0.865  0.2164 -0.1800 -1.2077
 8708SOL     OW27022   4.645   0.469   3.327  0.9054  0.0400 -0.3967
 8708SOL    HW127023   4.599   0.380   3.316  2.0832 -0.5947 -0.3231
 8708SOL    HW227024   4.693   0.492   3.243  0.9780  0.3924 -0.2576
 8709SOL     OW27025   5.931   2.874   0.896  0.5703  0.1865  0.0380
 8709SOL    HW127026   5.895   2.912   0.981  1.5125  1.4858 -0.1061
 8709SOL    HW227027   5.864   2.887   0.822 -0.9241 -2.3493  0.8312
 8710SOL     OW27028   6.605   5.296   4.200  0.6788 -0.4430 -0.5946
 8710SOL    HW127029   6.615   5.298   4.101 -0.0013 -1.3483 -0.6971
 8710SOL    HW227030   6.508   5.285   4.224  0.8737 -0.5973  0.1598
 8711SOL     OW27031   2.927   1.731   5.629 -0.3244  0.0649  0.7696
 8711SOL    HW127032   2.956   1.705   5.721 -0.8050 -0.4298  0.7884
 8711SOL    HW227033   2.828   1.719   5.621 -0.0042 -2.4229 -0.5772
 8712SOL     OW27034   3.709   0.014   6.926  0.0628 -0.1857  0.0987
 8712SOL    HW127035   3.652  -0.065   6.901 -1.1388  0.4547  0.6935
 8712SOL    HW227036   3.666   0.098   6.892  1.5059  0.2074 -0.8203
 8713SOL     OW27037   5.408   3.956   3.030 -0.2491 -0.7754 -0.4054
 8713SOL    HW127038   5.421   3.884   3.097  0.6871  0.5588  0.8906
 8713SOL    HW227039   5.394   4.043   3.076 -0.8827 -0.0186 -1.9418
 8714SOL     OW27040   2.344   1.263   3.520  0.9249 -0.3159  0.3163
 8714SOL    HW127041   2.334   1.324   3.441  2.6409  0.8976  0.9708
 8714SOL    HW227042   2.345   1.317   3.604  1.9866 -1.2726  0.9560
 8715SOL     OW27043   5.597   5.691   3.907  0.3950 -0.3007 -0.7536
 8715SOL    HW127044   5.629   5.768   3.852  1.0486 -0.4796 -0.6297
 8715SOL    HW227045   5.662   5.615   3.899  1.1895  0.1039  1.2565
 8716SOL     OW27046   2.565   0.555   5.713 -0.5703  0.1883 -0.0035
 8716SOL    HW127047   2.538   0.480   5.652 -0.9206  1.9312 -2.1375
 8716SOL    HW227048   2.502   0.632   5.701  1.5329  1.9836 -0.2813
 8717SOL     OW27049   4.617   4.348   0.741  0.0367 -0.0293  0.1624
 8717SOL    HW127050   4.578   4.396   0.663  0.4870  0.0243 -0.0360
 8717SOL    HW227051   4.607   4.403   0.824 -0.1320  0.0663  0.0778
 8718SOL     OW27052   6.282   2.152   5.304  0.0032 -0.1466 -0.0094
 8718SOL    HW127053   6.314   2.066   5.265  2.3438  0.5659  0.1944
 8718SOL    HW227054   6.254   2.214   5.230  2.0713  0.3045 -0.4752
 8719SOL     OW27055   0.674   6.947   5.282 -0.0309 -0.1796 -1.0672
 8719SOL    HW127056   0.684   7.038   5.322  3.2901  0.2697 -2.6432
 8719SOL    HW227057   0.589   6.905   5.316 -1.3975  3.2189  0.1216
 8720SOL     OW27058   5.060   2.922   5.109  0.0100  0.4252  0.1437
 8720SOL    HW127059   5.118   2.900   5.030  1.3152 -1.4379  1.5087
 8720SOL    HW227060   5.110   2.981   5.172 -0.6634  1.1188  0.0417
 8721SOL     OW27061   6.898   0.214   3.356  0.5786 -0.1037 -0.3438
 8721SOL    HW127062   6.824   0.252   3.412 -0.6571 -1.2861 -1.1010
 8721SOL    HW227063   6.908   0.117   3.377  2.2015  0.1148  0.0064
 8722SOL     OW27064   1.811   3.296   6.519 -0.5257  0.7164  0.5525
 8722SOL    HW127065   1.806   3.271   6.616  0.5892  0.8128  0.6435
 8722SOL    HW227066   1.816   3.396   6.512 -1.2222  0.7426  0.3587
 8723SOL     OW27067   0.172   4.816   6.094  0.4382 -0.5769 -0.2633
 8723SOL    HW127068   0.147   4.758   6.171 -0.0089  1.3269  1.1039
 8723SOL    HW227069   0.104   4.807   6.021 -0.9871  0.0478  0.9466
 8724SOL     OW27070   5.503   5.701   0.098 -0.3434 -0.2945  0.1029
 8724SOL    HW127071   5.579   5.760   0.125  0.5350 -1.1161 -0.5300
 8724SOL    HW227072   5.417   5.750   0.111  0.3318  0.9173  0.1131
 8725SOL     OW27073   3.325   4.866   0.632  0.0891 -0.0133 -0.1240
 8725SOL    HW127074   3.417   4.905   0.636 -0.7564  2.1780 -0.5986
 8725SOL    HW227075   3.264   4.920   0.689 -0.7818 -1.9460  0.8721
 8726SOL     OW27076   0.539   6.506   0.909 -0.1420  0.0746 -0.3810
 8726SOL    HW127077   0.547   6.425   0.968 -0.3718  0.9084  0.8263
 8726SOL    HW227078   0.443   6.531   0.900 -0.0663  0.2492 -0.7235
 8727SOL     OW27079   3.880   0.114   2.166 -0.6162  0.0154 -0.0209
 8727SOL    HW127080   3.964   0.069   2.136  0.0690  0.0195  1.7710
 8727SOL    HW227081   3.875   0.113   2.266 -3.2644 -0.9072 -0.0710
 8728SOL     OW27082   1.997   3.844   6.528 -0.7399  0.3360 -0.0103
 8728SOL    HW127083   1.957   3.861   6.618  0.6706 -0.0514  0.7169
 8728SOL    HW227084   1.996   3.746   6.508  2.5991 -0.1189  1.4360
 8729SOL     OW27085   5.537   6.601   4.430  0.0867 -0.3323 -0.4644
 8729SOL    HW127086   5.494   6.690   4.445 -0.8955 -1.2131  3.0449
 8729SOL    HW227087   5.570   6.566   4.518  0.0637 -3.6405 -1.6454
 8730SOL     OW27088   2.559   4.918   2.582  0.4576 -0.1774  0.1498
 8730SOL    HW127089   2.541   5.017   2.591  2.6827  0.4726 -1.6393
 8730SOL    HW227090   2.544   4.891   2.487  1.3333 -1.2482  0.3052
 8731SOL     OW27091   1.398   0.653   4.394 -0.1916 -0.2891  0.1082
 8731SOL    HW127092   1.348   0.734   4.363 -0.1174 -0.8041 -1.4275
 8731SOL    HW227093   1.493   0.677   4.413 -0.3167  0.0949  0.2564
 8732SOL     OW27094   5.418   5.248   0.821  0.4094 -0.3737  0.2526
 8732SOL    HW127095   5.354   5.323   0.805  0.2881 -0.5610 -0.1702
 8732SOL    HW227096   5.403   5.210   0.913  0.2985 -0.0487  0.3681
 8733SOL     OW27097   1.189   0.052   1.919  0.2994  0.6071 -0.4820
 8733SOL    HW127098   1.100   0.055   1.872  0.0085  0.4148  0.0505
 8733SOL    HW227099   1.245   0.129   1.888 -0.4235  1.3113 -0.0982
 8734SOL     OW27100   5.215   0.490   1.924  0.3839  0.2901 -0.3911
 8734SOL    HW127101   5.306   0.521   1.954  1.3517 -1.2529 -1.5591
 8734SOL    HW227102   5.156   0.477   2.003  1.8114 -0.5100  0.5858
 8735SOL     OW27103   6.759   2.095   6.244 -0.8384  0.2172 -0.1040
 8735SOL    HW127104   6.740   2.009   6.196 -0.7159  0.2136 -0.1478
 8735SOL    HW227105   6.822   2.076   6.320 -1.9011  0.0353  0.7468
 8736SOL     OW27106   0.962   5.824   6.435 -0.3903 -0.5886 -0.2555
 8736SOL    HW127107   0.906   5.872   6.368  2.2849 -0.3640 -2.5172
 8736SOL    HW227108   0.978   5.730   6.405  1.1724 -0.3725 -0.2322
 8737SOL     OW27109   3.572   5.239   6.302 -0.6117  0.4522 -0.0201
 8737SOL    HW127110   3.580   5.332   6.264  0.5558 -0.0863 -1.1710
 8737SOL    HW227111   3.485   5.199   6.273 -0.1218  0.3730 -1.4857
 8738SOL     OW27112   1.597   6.668   3.238 -0.1088  0.4147 -0.2034
 8738SOL    HW127113   1.586   6.762   3.268  0.6260  0.5998 -0.4897
 8738SOL    HW227114   1.516   6.615   3.263  1.3153 -0.0482  4.2531
 8739SOL     OW27115   0.577   3.576   5.943 -0.1706 -0.3310 -0.1213
 8739SOL    HW127116   0.674   3.590   5.965 -0.7379  2.8631  0.7608
 8739SOL    HW227117   0.560   3.599   5.848 -0.0273 -1.2206 -0.3687
 8740SOL     OW27118   0.575   6.605   6.416  0.5197 -0.0347 -0.5034
 8740SOL    HW127119   0.666   6.624   6.380 -0.1593  1.4784 -1.5364
 8740SOL    HW227120   0.549   6.676   6.481  0.3682 -0.8833  0.3863
 8741SOL     OW27121   0.946   4.609   3.008  0.2230  0.1055 -0.1767
 8741SOL    HW127122   0.941   4.676   2.934  1.0260 -0.5230 -0.8136
 8741SOL    HW227123   0.855   4.597   3.048 -0.5538 -0.6207 -2.0481
 8742SOL     OW27124   3.908   5.517   2.161  0.1811 -0.4843 -0.1529
 8742SOL    HW127125   3.867   5.599   2.201 -0.4927 -0.4594 -0.8592
 8742SOL    HW227126   3.835   5.454   2.134  0.6788 -1.1392  0.0020
 8743SOL     OW27127   4.078   5.194   3.048 -0.4404 -0.4704  0.2872
 8743SOL    HW127128   4.083   5.095   3.057 -0.9652 -0.5996 -0.7174
 8743SOL    HW227129   4.087   5.220   2.952  2.6240  0.6634  0.7755
 8744SOL     OW27130   3.924   0.746   5.186  0.5119  0.2629 -0.8484
 8744SOL    HW127131   4.001   0.683   5.182  0.5694  0.2878 -0.1747
 8744SOL    HW227132   3.954   0.834   5.222  0.1099  0.1726 -0.2754
 8745SOL     OW27133   4.987   2.764   4.762  0.2424  0.5989 -0.5023
 8745SOL    HW127134   4.927   2.844   4.763  0.6947  0.9863 -1.7813
 8745SOL    HW227135   5.068   2.782   4.817  0.4993  1.1671 -1.0505
 8746SOL     OW27136   4.656   4.915   3.559  0.0530 -0.0953  0.8929
 8746SOL    HW127137   4.686   5.001   3.599  1.5895 -0.3097  0.2825
 8746SOL    HW227138   4.558   4.918   3.541  0.3196  2.0880 -0.4838
 8747SOL     OW27139   2.275   0.724   3.556  0.5765 -0.0818 -0.2259
 8747SOL    HW127140   2.220   0.785   3.612 -0.4433 -0.4412 -0.7936
 8747SOL    HW227141   2.366   0.763   3.542  0.1713  0.9619 -0.0178
 8748SOL     OW27142   2.263   6.129   0.435 -0.0126  0.4507  1.0778
 8748SOL    HW127143   2.341   6.068   0.451 -0.6254 -0.3846  0.9959
 8748SOL    HW227144   2.284   6.221   0.467  2.0088  0.9354 -1.3154
 8749SOL     OW27145   5.130   2.542   4.163 -0.0878 -0.3649 -0.7311
 8749SOL    HW127146   5.093   2.574   4.076  2.4690  1.9322 -1.1291
 8749SOL    HW227147   5.058   2.542   4.233 -1.1851  2.5802 -1.7167
 8750SOL     OW27148   2.680   0.752   3.862 -0.7149  0.6481 -0.5176
 8750SOL    HW127149   2.653   0.704   3.778  0.0359 -1.4416  0.3554
 8750SOL    HW227150   2.610   0.819   3.886 -0.7492  1.6134 -3.0082
 8751SOL     OW27151   1.363   5.202   1.693  0.4079 -0.1369 -0.6229
 8751SOL    HW127152   1.410   5.290   1.696 -1.1701  0.7191  1.3186
 8751SOL    HW227153   1.285   5.208   1.631  0.1624 -0.0855 -0.3113
 8752SOL     OW27154   3.591   2.428   5.666 -0.3215 -0.1717  0.7437
 8752SOL    HW127155   3.578   2.418   5.567 -0.1161  0.5480  0.6364
 8752SOL    HW227156   3.670   2.487   5.683 -0.6825  0.1536  1.3310
 8753SOL     OW27157   6.034   2.774   3.059 -0.0251 -0.3816 -0.0379
 8753SOL    HW127158   6.124   2.808   3.032  0.8965 -2.7926 -0.3234
 8753SOL    HW227159   5.964   2.843   3.041  1.5028  0.7947 -1.7215
 8754SOL     OW27160   0.520   6.935   5.725 -0.4833  0.3263 -0.0684
 8754SOL    HW127161   0.450   6.910   5.659  0.2403 -0.0599 -0.7107
 8754SOL    HW227162   0.523   6.867   5.798 -0.6347  0.2322 -0.1494
 8755SOL     OW27163   3.992   3.234   1.646  0.1970  0.0330 -0.0316
 8755SOL    HW127164   4.089   3.257   1.647  0.7652 -2.0151  1.7386
 8755SOL    HW227165   3.978   3.151   1.593 -0.2688 -0.6655  1.1381
 8756SOL     OW27166   3.827   4.976   4.929 -0.2879  0.1220  0.9764
 8756SOL    HW127167   3.733   4.996   4.901 -0.5208  1.4960  2.5529
 8756SOL    HW227168   3.827   4.926   5.016  0.4273 -0.0164  0.9064
 8757SOL     OW27169   4.621   5.698   3.113  0.8209 -0.1418  0.0471
 8757SOL    HW127170   4.558   5.768   3.080 -0.1673  0.2373  2.4726
 8757SOL    HW227171   4.611   5.614   3.059 -0.8881  0.3181 -0.3880
 8758SOL     OW27172   4.833   6.552   2.795  0.0796 -0.3417  0.1301
 8758SOL    HW127173   4.923   6.576   2.758  0.7582  0.5654  2.1935
 8758SOL    HW227174   4.828   6.453   2.808  1.2644 -0.3107  1.0590
 8759SOL     OW27175   5.087   1.008   5.851  0.0939  0.0727 -0.2379
 8759SOL    HW127176   5.104   1.046   5.760  1.3541 -0.9954 -0.4744
 8759SOL    HW227177   5.135   1.063   5.919  3.0460 -1.6837 -0.7035
 8760SOL     OW27178   1.992   2.836   3.081 -0.9384 -0.0476  0.1588
 8760SOL    HW127179   1.946   2.921   3.056 -1.6580 -0.0669  1.3510
 8760SOL    HW227180   1.961   2.762   3.020 -2.1562  0.0415  0.6383
 8761SOL     OW27181   3.678   6.967   2.729  0.3939 -0.2988  0.5111
 8761SOL    HW127182   3.707   6.889   2.674  1.0074  0.2996 -0.0280
 8761SOL    HW227183   3.730   7.048   2.702 -2.0788  0.9421 -0.8421
 8762SOL     OW27184   0.585   6.163   7.012  0.7345 -0.4257  0.3741
 8762SOL    HW127185   0.576   6.083   6.952 -1.0058  0.9104 -1.3091
 8762SOL    HW227186   0.669   6.211   6.991  0.8078 -0.7261 -0.0303
 8763SOL     OW27187   5.774   6.295   1.239 -0.2445  0.5865 -0.1202
 8763SOL    HW127188   5.855   6.307   1.181 -1.5227 -0.8963 -2.3342
 8763SOL    HW227189   5.798   6.238   1.318  1.0274  0.8527 -0.2888
 8764SOL     OW27190   2.297   1.644   4.696 -0.2518  0.5078 -0.1732
 8764SOL    HW127191   2.254   1.633   4.786 -0.4151 -1.2259 -0.4384
 8764SOL    HW227192   2.249   1.715   4.645 -1.8378 -0.2916  0.1355
 8765SOL     OW27193   6.426   0.967   0.433  0.2981 -0.1529 -0.0381
 8765SOL    HW127194   6.385   1.010   0.514  0.9792 -0.4389  0.4690
 8765SOL    HW227195   6.376   0.883   0.412  0.0864 -0.0534  0.0606
 8766SOL     OW27196   1.603   2.987   1.696  0.2838  0.2023 -0.5726
 8766SOL    HW127197   1.607   2.991   1.597 -1.8477 -0.2665 -0.7243
 8766SOL    HW227198   1.630   3.075   1.735 -0.1013  0.8022 -1.6378
 8767SOL     OW27199   2.167   6.954   5.400  0.1851 -0.0477  0.3125
 8767SOL    HW127200   2.137   6.960   5.496  0.6080 -1.3546  0.5495
 8767SOL    HW227201   2.091   6.922   5.344 -0.4007  1.7782 -0.0105
 8768SOL     OW27202   1.510   2.666   6.171  0.3925 -0.4294  0.3994
 8768SOL    HW127203   1.419   2.703   6.153  0.5085 -0.3903 -0.1464
 8768SOL    HW227204   1.574   2.700   6.101  0.8357 -0.4102  0.8114
 8769SOL     OW27205   2.282   0.712   0.511 -0.8362  0.0966 -0.1051
 8769SOL    HW127206   2.297   0.614   0.519  1.5175  0.5372  4.6030
 8769SOL    HW227207   2.358   0.753   0.460  0.8235 -0.2291  1.9421
 8770SOL     OW27208   6.988   2.505   4.570 -0.4115 -0.5719 -0.1220
 8770SOL    HW127209   6.941   2.525   4.656  0.2736 -2.0610  0.6351
 8770SOL    HW227210   6.927   2.453   4.510 -0.6464 -0.1451 -0.2574
 8771SOL     OW27211   3.347   4.784   5.779 -0.2390  0.2250  0.5611
 8771SOL    HW127212   3.252   4.763   5.753  0.3715 -0.4986 -1.2593
 8771SOL    HW227213   3.408   4.718   5.736  1.1514  1.0141  1.2694
 8772SOL     OW27214   0.450   1.871   6.339 -0.7811  0.4301 -0.3856
 8772SOL    HW127215   0.539   1.912   6.359 -1.3109  1.8926 -0.8219
 8772SOL    HW227216   0.392   1.875   6.420 -0.2865 -1.0397  0.0648
 8773SOL     OW27217   4.555   1.571   3.189  0.8686  0.0006 -0.4676
 8773SOL    HW127218   4.461   1.595   3.164 -0.4549 -2.7031  1.4405
 8773SOL    HW227219   4.593   1.644   3.246 -0.3660  0.7675 -0.5658
 8774SOL     OW27220   2.492   1.087   1.171  0.0653 -0.0322  0.0466
 8774SOL    HW127221   2.436   1.064   1.092  2.9932 -0.5842 -2.0290
 8774SOL    HW227222   2.462   1.033   1.250 -0.2822 -2.7548 -1.8169
 8775SOL     OW27223   5.663   6.034   3.238  0.2467  0.0152  0.1379
 8775SOL    HW127224   5.747   5.987   3.210  1.0336  1.9228 -0.8496
 8775SOL    HW227225   5.643   6.108   3.174 -1.6660  0.2247  0.9198
 8776SOL     OW27226   3.027   2.509   5.718 -0.3316  0.0269 -0.2607
 8776SOL    HW127227   3.041   2.419   5.676 -0.5174 -0.0906 -0.0733
 8776SOL    HW227228   3.113   2.561   5.714 -0.3275 -0.0078 -0.7180
 8777SOL     OW27229   6.719   3.580   1.308 -0.4221  0.1541  0.5160
 8777SOL    HW127230   6.815   3.579   1.279 -0.9861 -0.0338 -1.5156
 8777SOL    HW227231   6.671   3.503   1.265 -1.5624  0.4442  1.2413
 8778SOL     OW27232   0.690   2.417   2.444 -1.0151  0.3807  0.2322
 8778SOL    HW127233   0.742   2.503   2.438 -1.3802  0.6669  1.0493
 8778SOL    HW227234   0.663   2.402   2.539  0.1363 -1.2953  0.3308
 8779SOL     OW27235   2.229   5.312   2.784  0.6492 -0.0237 -0.0806
 8779SOL    HW127236   2.143   5.317   2.834 -0.8137  0.1384 -2.4650
 8779SOL    HW227237   2.257   5.404   2.756  1.4154 -0.1170  0.3498
 8780SOL     OW27238   2.980   6.492   6.118 -0.0097  0.5520 -0.1090
 8780SOL    HW127239   2.891   6.509   6.160 -0.5358  1.1388 -1.4275
 8780SOL    HW227240   2.968   6.442   6.032  0.7226  2.5652 -1.4480
 8781SOL     OW27241   6.520   2.146   3.322  0.1684  0.1400  0.2075
 8781SOL    HW127242   6.431   2.119   3.285 -0.4185 -1.3869  2.4903
 8781SOL    HW227243   6.527   2.246   3.326 -0.3795  0.3286 -2.2927
 8782SOL     OW27244   5.634   1.536   2.916  0.3415  0.5648 -0.3783
 8782SOL    HW127245   5.697   1.463   2.943 -0.2351 -0.3906 -1.4940
 8782SOL    HW227246   5.552   1.495   2.875 -0.4518  1.8228 -0.1024
 8783SOL     OW27247   5.231   1.380   7.000  0.2507 -0.0706 -0.2228
 8783SOL    HW127248   5.259   1.397   6.906  0.2394  1.5259  0.0384
 8783SOL    HW227249   5.302   1.328   7.048  1.7664  1.9096 -0.2192
 8784SOL     OW27250   4.863   4.514   6.182  0.1800 -0.2145 -0.4109
 8784SOL    HW127251   4.851   4.570   6.264  0.5071  1.2591 -1.3323
 8784SOL    HW227252   4.799   4.438   6.184 -0.5000  0.3591  0.7390
 8785SOL     OW27253   6.450   3.586   5.191  0.1152 -0.0136 -0.3822
 8785SOL    HW127254   6.543   3.557   5.212  0.0752 -0.4401 -0.7579
 8785SOL    HW227255   6.393   3.579   5.273  0.3267 -0.1201 -0.2437
 8786SOL     OW27256   1.922   5.862   1.692 -0.3056  0.5513  0.1857
 8786SOL    HW127257   1.997   5.887   1.754 -0.0731 -1.4151  0.7659
 8786SOL    HW227258   1.847   5.928   1.702  0.9178  1.9734  0.3334
 8787SOL     OW27259   1.512   1.743   4.531 -0.2100 -0.0380  0.7205
 8787SOL    HW127260   1.536   1.702   4.619 -0.8857  0.7304  1.2728
 8787SOL    HW227261   1.514   1.843   4.538  3.1322  0.1791 -1.0549
 8788SOL     OW27262   0.859   1.387   0.644  0.4221 -0.7002  0.0139
 8788SOL    HW127263   0.929   1.392   0.573 -0.5898 -0.5168 -1.0032
 8788SOL    HW227264   0.778   1.340   0.608 -0.4687  0.2451  0.7328
 8789SOL     OW27265   6.696   1.887   5.592 -0.2546  0.6491  0.1752
 8789SOL    HW127266   6.785   1.848   5.614 -0.2607  1.2859  1.3950
 8789SOL    HW227267   6.654   1.923   5.675 -2.1333 -0.6011 -0.1651
 8790SOL     OW27268   3.294   2.548   5.656  0.3625 -1.0464  0.4160
 8790SOL    HW127269   3.270   2.480   5.587 -0.8578 -0.2133 -0.0117
 8790SOL    HW227270   3.393   2.545   5.672  0.6573 -1.3806 -1.2539
 8791SOL     OW27271   0.147   5.201   5.331 -0.3463  0.3675  0.3812
 8791SOL    HW127272   0.108   5.291   5.351  0.0362  1.0727 -1.8156
 8791SOL    HW227273   0.109   5.166   5.246  0.8964 -0.7089  0.2368
 8792SOL     OW27274   4.109   5.481   3.114  0.7112  0.3004  0.3876
 8792SOL    HW127275   4.164   5.525   3.044 -0.4431 -0.7092 -1.2215
 8792SOL    HW227276   4.105   5.383   3.097  0.9395 -0.0762  2.2727
 8793SOL     OW27277   0.195   5.784   4.395 -0.1113 -0.1138 -0.3316
 8793SOL    HW127278   0.152   5.874   4.394 -0.7447 -0.3851  0.7276
 8793SOL    HW227279   0.137   5.719   4.347 -0.2061 -0.1788 -0.1334
 8794SOL     OW27280   1.493   0.338   2.433  0.1335 -0.4271  0.1449
 8794SOL    HW127281   1.476   0.271   2.505 -0.2425  0.4873  0.9277
 8794SOL    HW227282   1.408   0.360   2.387  0.2194 -0.3141  0.0391
 8795SOL     OW27283   3.177   1.062   5.022  0.4680  0.0996  0.4015
 8795SOL    HW127284   3.082   1.088   5.009  0.8701  2.0565  1.0985
 8795SOL    HW227285   3.205   1.001   4.948 -1.2470 -0.3507  0.0767
 8796SOL     OW27286   5.610   0.745   4.793 -0.4877  0.2050  0.0763
 8796SOL    HW127287   5.533   0.689   4.764 -0.3721  0.3091 -0.4437
 8796SOL    HW227288   5.681   0.743   4.723  0.1345 -0.1769  0.7037
 8797SOL     OW27289   7.000   6.513   1.727 -0.5056  0.2039 -0.0028
 8797SOL    HW127290   7.078   6.482   1.780 -0.8954  1.5745  1.4476
 8797SOL    HW227291   7.014   6.608   1.699  0.1224 -0.7297 -3.2736
 8798SOL     OW27292   2.921   3.363   6.430  0.0122  0.2497  0.2234
 8798SOL    HW127293   2.898   3.449   6.476  1.5182  1.5268 -1.3146
 8798SOL    HW227294   3.019   3.358   6.414 -0.0060 -1.8878  0.4419
 8799SOL     OW27295   3.252   6.734   3.087 -0.2284 -0.8843 -0.1552
 8799SOL    HW127296   3.225   6.808   3.025 -3.2747 -0.2620  1.6975
 8799SOL    HW227297   3.205   6.649   3.060  0.5941 -1.3102 -0.2776
 8800SOL     OW27298   5.297   2.319   1.187  0.5754 -0.1380 -0.1470
 8800SOL    HW127299   5.289   2.220   1.191 -1.7562  0.0255  2.8558
 8800SOL    HW227300   5.251   2.354   1.106  1.1711 -1.4327 -1.0790
 8801SOL     OW27301   2.175   1.067   3.869 -0.0915  0.0408  0.0412
 8801SOL    HW127302   2.147   1.029   3.781  0.9864 -0.4427 -0.1056
 8801SOL    HW227303   2.258   1.121   3.858 -1.9288  3.0974  0.1364
 8802SOL     OW27304   3.558   6.923   5.983  0.4472 -0.2143  0.3609
 8802SOL    HW127305   3.630   6.986   6.013 -0.1887  0.8522 -0.2621
 8802SOL    HW227306   3.599   6.842   5.942  1.3484  1.0504 -1.3908
 8803SOL     OW27307   2.221   4.597   2.905 -0.0482 -0.3209 -0.0165
 8803SOL    HW127308   2.138   4.592   2.849  0.8301 -0.7403 -1.3235
 8803SOL    HW227309   2.276   4.676   2.877  0.7478 -0.9475 -0.2452
 8804SOL     OW27310   1.034   1.380   1.746 -0.2168 -0.0597 -0.9130
 8804SOL    HW127311   0.953   1.322   1.759 -0.3384  0.5817  1.6477
 8804SOL    HW227312   1.005   1.476   1.736  0.1857  0.5421  2.5137
 8805SOL     OW27313   6.917   0.028   2.876 -0.2818  0.1611 -0.2575
 8805SOL    HW127314   6.909   0.085   2.958 -0.6593 -1.4757  0.8921
 8805SOL    HW227315   7.001   0.050   2.828  0.5102  0.4071  1.1908
 8806SOL     OW27316   2.569   4.339   6.910 -0.1747 -0.0693  0.2094
 8806SOL    HW127317   2.505   4.265   6.928  0.0588  0.0818  1.7959
 8806SOL    HW227318   2.527   4.407   6.849 -2.1425  0.8138  2.4245
 8807SOL     OW27319   2.136   4.000   0.534  0.5454 -0.6503  0.3207
 8807SOL    HW127320   2.161   4.022   0.628  0.2726 -2.2751  0.8087
 8807SOL    HW227321   2.046   4.039   0.513  1.3486  1.2183  0.1043
 8808SOL     OW27322   5.270   0.924   1.059  0.2149  0.1102  0.1970
 8808SOL    HW127323   5.269   1.003   1.120  2.1497  0.0861  0.3122
 8808SOL    HW227324   5.242   0.951   0.967 -0.6024  0.5950  0.5784
 8809SOL     OW27325   5.380   3.661   0.681 -0.2147  0.4249  0.1259
 8809SOL    HW127326   5.293   3.614   0.671 -0.3037  0.4244  0.8387
 8809SOL    HW227327   5.426   3.667   0.593 -0.1740 -1.0318  0.0291
 8810SOL     OW27328   5.814   2.352   3.502 -0.7827 -0.0802  0.2831
 8810SOL    HW127329   5.887   2.333   3.436  0.1791  2.0354  0.6626
 8810SOL    HW227330   5.801   2.272   3.561  0.7525 -0.7428 -0.2134
 8811SOL     OW27331   0.805   0.556   3.452 -0.1922 -0.1835 -0.3574
 8811SOL    HW127332   0.830   0.546   3.548  0.5924 -0.1113 -0.5450
 8811SOL    HW227333   0.753   0.641   3.440  0.8762  0.4999 -0.2102
 8812SOL     OW27334   1.427   0.894   0.716 -0.2019 -0.4532  0.0358
 8812SOL    HW127335   1.496   0.821   0.717  1.8735  1.3973  1.6754
 8812SOL    HW227336   1.404   0.919   0.810 -1.5904  0.3993 -0.5061
 8813SOL     OW27337   0.113   3.556   2.035  0.0848  0.2526  0.0473
 8813SOL    HW127338   0.166   3.588   1.956 -0.3822 -1.6532 -1.1064
 8813SOL    HW227339   0.032   3.613   2.045  0.0124  0.3714 -1.0443
 8814SOL     OW27340   4.575   6.709   6.323  0.2390  0.3094  0.0949
 8814SOL    HW127341   4.632   6.786   6.294  0.0629  0.5505  0.3887
 8814SOL    HW227342   4.571   6.641   6.249 -0.2351  0.9408 -0.4685
 8815SOL     OW27343   3.731   5.236   3.208 -0.3448  0.4073  0.1807
 8815SOL    HW127344   3.750   5.334   3.217  0.5995  0.0440  2.9328
 8815SOL    HW227345   3.807   5.192   3.162  0.4976  0.5940  1.3615
 8816SOL     OW27346   1.583   3.847   0.025  0.2705 -0.0285  0.2682
 8816SOL    HW127347   1.521   3.771   0.007  0.9533 -0.6424  0.4695
 8816SOL    HW227348   1.577   3.913  -0.050 -0.7178 -0.0113  0.3527
 8817SOL     OW27349   2.257   4.912   5.212  0.1494 -0.3894  0.4909
 8817SOL    HW127350   2.253   4.997   5.159 -2.3555 -0.1781  0.9279
 8817SOL    HW227351   2.351   4.876   5.209  1.5397  2.8195  1.0143
 8818SOL     OW27352   0.512   4.332   4.734  0.3444  0.7411  0.0561
 8818SOL    HW127353   0.604   4.369   4.722  1.0900  0.1889  3.2404
 8818SOL    HW227354   0.445   4.407   4.731  0.8071  1.1399 -2.3403
 8819SOL     OW27355   2.243   0.971   5.544 -0.4337  0.2469 -0.0235
 8819SOL    HW127356   2.159   1.025   5.533 -0.7176 -0.4779 -1.6894
 8819SOL    HW227357   2.254   0.910   5.466  1.1644 -0.3666  0.6370
 8820SOL     OW27358   1.866   1.338   3.785 -0.2186 -0.4360  0.0264
 8820SOL    HW127359   1.880   1.287   3.700  1.8947  0.9470 -0.5496
 8820SOL    HW227360   1.907   1.289   3.861  0.0506 -0.5374 -0.1818
 8821SOL     OW27361   1.405   0.922   6.532 -0.1965 -0.4655  0.3009
 8821SOL    HW127362   1.399   0.873   6.445 -0.5187 -1.3743  0.8262
 8821SOL    HW227363   1.415   0.857   6.607  0.5022  0.3229  0.9207
 8822SOL     OW27364   1.012   2.282   3.638 -0.1335  0.3393 -0.1629
 8822SOL    HW127365   1.103   2.322   3.651  0.4892 -0.5897 -1.4771
 8822SOL    HW227366   0.967   2.272   3.727  1.6168 -0.5167  0.6657
 8823SOL     OW27367   2.542   6.290   0.644 -0.1438  0.7606 -0.3538
 8823SOL    HW127368   2.533   6.235   0.727 -0.7181 -1.2808 -1.7010
 8823SOL    HW227369   2.459   6.344   0.630 -0.9822 -0.5640 -0.7069
 8824SOL     OW27370   6.253   3.107   1.999 -0.2370 -0.9809  0.7661
 8824SOL    HW127371   6.177   3.093   1.936  1.3963 -1.7402 -1.1434
 8824SOL    HW227372   6.263   3.204   2.019 -0.2598 -0.6129 -0.8897
 8825SOL     OW27373   2.568   0.727   6.575 -0.4174  0.3772  0.1947
 8825SOL    HW127374   2.654   0.760   6.535  0.1652 -1.1593  0.1152
 8825SOL    HW227375   2.498   0.722   6.504 -0.3630  0.8991  0.0985
 8826SOL     OW27376   5.914   0.470   0.320 -0.9992 -0.0647 -0.4619
 8826SOL    HW127377   5.925   0.393   0.257 -1.3191 -0.7342  0.2662
 8826SOL    HW227378   5.920   0.436   0.414  2.1214  1.2867 -0.0707
 8827SOL     OW27379   0.554   2.724   4.731 -0.4162 -0.4132  0.1730
 8827SOL    HW127380   0.469   2.739   4.781 -1.7090  0.3408 -2.1217
 8827SOL    HW227381   0.571   2.626   4.723  0.0724 -0.5689  2.3708
 8828SOL     OW27382   1.375   6.727   1.747  0.1087  0.0453  1.0622
 8828SOL    HW127383   1.358   6.769   1.836 -0.0052  0.5150  0.8212
 8828SOL    HW227384   1.372   6.797   1.675  1.3178 -0.1389  0.8084
 8829SOL     OW27385   1.915   2.508   5.218  0.6952 -0.6242  0.1479
 8829SOL    HW127386   1.838   2.453   5.186 -0.3705  0.9408 -0.1146
 8829SOL    HW227387   1.916   2.508   5.318 -0.3407  0.2117  0.1783
 8830SOL     OW27388   2.150   1.379   2.532 -0.0219  0.3639  0.3083
 8830SOL    HW127389   2.168   1.330   2.617  0.5989  0.2148  0.0990
 8830SOL    HW227390   2.106   1.467   2.552  0.3538  0.4414  0.7992
 8831SOL     OW27391   1.995   4.895   0.214  0.3331 -0.0830  0.0348
 8831SOL    HW127392   1.986   4.991   0.239 -1.6037 -0.1313 -0.3675
 8831SOL    HW227393   2.074   4.884   0.154 -0.9281  1.7508 -2.1099
 8832SOL     OW27394   4.871   5.975   1.968 -0.1894  0.4631 -0.2447
 8832SOL    HW127395   4.854   6.041   1.896 -0.4631  1.5205  0.7642
 8832SOL    HW227396   4.970   5.964   1.981 -0.1398  1.7124  0.5018
 8833SOL     OW27397   1.100   5.388   1.782 -0.3172  0.2746  0.8159
 8833SOL    HW127398   1.115   5.301   1.735  0.8275  0.1842  1.3129
 8833SOL    HW227399   1.029   5.440   1.734 -0.5225 -0.6262  0.1110
 8834SOL     OW27400   6.194   4.783   3.715  0.3222  0.1093 -0.2183
 8834SOL    HW127401   6.139   4.786   3.799 -0.6590  0.2138 -0.8443
 8834SOL    HW227402   6.197   4.874   3.675  0.9394  0.0954 -0.2148
 8835SOL     OW27403   1.154   1.606   5.541  0.0636  0.5648  0.7745
 8835SOL    HW127404   1.144   1.576   5.446 -1.8681 -2.3660  1.7628
 8835SOL    HW227405   1.251   1.608   5.566  0.6548  2.0549 -1.3823
 8836SOL     OW27406   2.162   2.235   6.997 -0.5458 -0.4351 -0.2850
 8836SOL    HW127407   2.218   2.316   7.017 -1.4981  0.7939 -2.2861
 8836SOL    HW227408   2.221   2.156   6.983  0.4330 -0.0219  1.2268
 8837SOL     OW27409   1.672   2.713   6.527 -0.2392  0.2541  0.2135
 8837SOL    HW127410   1.746   2.705   6.461 -1.9629  0.9373 -1.9235
 8837SOL    HW227411   1.639   2.807   6.530 -0.1711  0.2537  2.1379
 8838SOL     OW27412   1.383   6.429   3.558  0.0266  0.1421  0.1058
 8838SOL    HW127413   1.287   6.406   3.568 -0.0764  0.3244 -0.4270
 8838SOL    HW227414   1.421   6.455   3.647 -1.2183  3.2358 -0.1297
 8839SOL     OW27415   5.200   3.938   5.243 -0.1970 -0.1272  0.3267
 8839SOL    HW127416   5.208   3.843   5.271 -0.3256  0.5424  2.8448
 8839SOL    HW227417   5.104   3.966   5.247  0.0143  0.5139  1.1356
 8840SOL     OW27418   4.637   0.005   2.244 -0.1281 -0.3973 -0.0883
 8840SOL    HW127419   4.718   0.059   2.219  0.7687 -0.6662  2.0428
 8840SOL    HW227420   4.660  -0.092   2.241 -0.9142 -0.5677 -1.1520
 8841SOL     OW27421   3.375   1.284   2.303 -0.3106 -0.5067 -0.0502
 8841SOL    HW127422   3.311   1.288   2.380  0.9688 -0.6261  1.0594
 8841SOL    HW227423   3.416   1.374   2.288  1.5092 -1.0397  1.2815
 8842SOL     OW27424   2.305   1.217   1.532 -0.0241  0.8419 -0.1940
 8842SOL    HW127425   2.367   1.263   1.597  1.6124 -0.3132 -0.8541
 8842SOL    HW227426   2.301   1.269   1.447 -2.6651  2.6961  0.9364
 8843SOL     OW27427   5.773   2.593   2.496 -0.1303 -0.2335 -0.3510
 8843SOL    HW127428   5.744   2.625   2.406  0.9585 -0.4721 -0.8025
 8843SOL    HW227429   5.764   2.667   2.563 -0.7985 -0.0110 -0.6832
 8844SOL     OW27430   6.882   0.737   1.587 -0.1951  0.0712  0.0937
 8844SOL    HW127431   6.797   0.712   1.633 -0.9738  0.3799 -1.1237
 8844SOL    HW227432   6.941   0.787   1.650 -0.5168 -0.9376  1.2236
 8845SOL     OW27433   4.262   4.799   0.794  0.1146 -0.2663  0.0176
 8845SOL    HW127434   4.195   4.766   0.728  0.0808 -1.5699  0.6670
 8845SOL    HW227435   4.353   4.795   0.754  0.0455 -0.6720 -0.1079
 8846SOL     OW27436   2.300   6.275   3.057  0.4033  0.3383  0.3703
 8846SOL    HW127437   2.314   6.346   2.988  1.3671  1.0527  1.2730
 8846SOL    HW227438   2.247   6.312   3.133 -0.2053 -0.2954  0.2671
 8847SOL     OW27439   2.145   3.658   4.062  0.3596 -0.1672  0.2682
 8847SOL    HW127440   2.170   3.613   3.976  0.2279  0.0144  0.1348
 8847SOL    HW227441   2.065   3.612   4.101 -0.0966  0.2824 -0.1357
 8848SOL     OW27442   6.894   0.849   3.910 -0.0330 -0.0507  0.7472
 8848SOL    HW127443   6.864   0.944   3.896  1.4825  0.8287  2.9052
 8848SOL    HW227444   6.994   0.847   3.915 -0.0052 -1.9215 -0.1110
 8849SOL     OW27445   2.591   6.509   1.808  0.3692 -0.0625  0.5072
 8849SOL    HW127446   2.658   6.584   1.809 -0.0729  0.3488  1.9189
 8849SOL    HW227447   2.500   6.546   1.829 -0.2308 -0.6982 -0.8560
 8850SOL     OW27448   4.771   0.232   0.527  0.3074  0.1382  0.1387
 8850SOL    HW127449   4.750   0.272   0.616 -0.7806  0.2277 -0.1401
 8850SOL    HW227450   4.695   0.174   0.498 -1.1656  3.0642 -2.4261
 8851SOL     OW27451   1.745   3.983   0.800 -0.2226 -0.0046  0.3086
 8851SOL    HW127452   1.656   3.941   0.783 -0.4607  0.7857 -0.4471
 8851SOL    HW227453   1.733   4.081   0.817  0.5934  0.3188 -0.8905
 8852SOL     OW27454   1.685   3.922   3.541  0.4430  0.1290  0.5974
 8852SOL    HW127455   1.773   3.890   3.503  0.5527 -0.7019  1.5231
 8852SOL    HW227456   1.628   3.843   3.563 -0.1886  0.6463  0.8309
 8853SOL     OW27457   3.951   0.729   3.148  0.5236 -0.5970  0.0474
 8853SOL    HW127458   4.049   0.720   3.168  0.7878 -0.4293 -1.1115
 8853SOL    HW227459   3.929   0.675   3.067 -0.1865 -0.0082 -0.1609
 8854SOL     OW27460   0.327   3.652   0.172  0.0272  0.3440  0.5530
 8854SOL    HW127461   0.293   3.703   0.093 -1.1867  0.1588  0.9243
 8854SOL    HW227462   0.422   3.676   0.189  0.5353 -0.1329 -1.3797
 8855SOL     OW27463   3.636   5.318   1.828 -0.0120 -0.6061  0.4101
 8855SOL    HW127464   3.690   5.302   1.745 -0.6101 -0.4735 -0.0143
 8855SOL    HW227465   3.584   5.403   1.818  0.0455 -0.4975  0.9992
 8856SOL     OW27466   5.496   1.423   5.216  0.3548  1.0146 -0.3495
 8856SOL    HW127467   5.498   1.454   5.121  2.8738  1.3275 -0.2498
 8856SOL    HW227468   5.537   1.493   5.275  0.0267  0.2737  0.7994
 8857SOL     OW27469   0.447   5.167   6.052 -0.2282 -0.8679  0.4815
 8857SOL    HW127470   0.419   5.236   6.118 -0.4479 -0.5158  0.0229
 8857SOL    HW227471   0.394   5.178   5.968 -1.4098 -2.5721  0.9403
 8858SOL     OW27472   1.909   4.158   5.605  0.6208  0.5673  0.0458
 8858SOL    HW127473   1.825   4.106   5.593  0.6449 -0.0701  2.1253
 8858SOL    HW227474   1.915   4.229   5.535 -1.1438 -0.0033 -0.7401
 8859SOL     OW27475   5.642   6.232   1.626  0.1618  0.0309 -0.2798
 8859SOL    HW127476   5.731   6.187   1.625  1.3245  2.2111 -1.9159
 8859SOL    HW227477   5.620   6.261   1.719  1.6134  0.3386 -0.0181
 8860SOL     OW27478   6.272   2.723   3.324 -0.3307  0.2091  0.6893
 8860SOL    HW127479   6.266   2.808   3.272 -0.1404 -0.1117  0.1234
 8860SOL    HW227480   6.285   2.743   3.421 -2.3247  0.8495  0.8630
 8861SOL     OW27481   2.840   2.802   1.208  0.1530  0.3407 -0.1723
 8861SOL    HW127482   2.932   2.832   1.233  0.3504 -0.3888  0.0005
 8861SOL    HW227483   2.846   2.735   1.135 -0.2031 -0.1541  0.2470
 8862SOL     OW27484   4.654   5.755   4.323  0.2100 -0.2817 -0.1624
 8862SOL    HW127485   4.682   5.758   4.419 -0.9440  0.8236  0.1646
 8862SOL    HW227486   4.556   5.735   4.317  0.1099  0.4101 -1.0637
 8863SOL     OW27487   1.948   2.488   0.036 -0.6612  0.2515 -0.0317
 8863SOL    HW127488   1.857   2.445   0.039 -0.0446 -1.5189 -2.6009
 8863SOL    HW227489   2.005   2.452   0.110 -1.2572 -0.7407 -0.0333
 8864SOL     OW27490   0.782   0.163   4.191  0.1071  0.0654  0.3457
 8864SOL    HW127491   0.694   0.195   4.158  0.1145  1.1551  1.3143
 8864SOL    HW227492   0.771   0.119   4.281  0.6634  1.0910  0.9338
 8865SOL     OW27493   4.603   2.208   0.579  0.3732 -0.1001 -0.0925
 8865SOL    HW127494   4.679   2.267   0.552  0.6356 -0.4924 -0.2145
 8865SOL    HW227495   4.572   2.153   0.501 -0.3741  0.4227 -0.1741
 8866SOL     OW27496   5.637   6.838   2.697  0.3744 -0.0741  0.6328
 8866SOL    HW127497   5.593   6.920   2.660  1.6878  0.2911 -0.1859
 8866SOL    HW227498   5.721   6.863   2.745  1.2160 -0.9642 -0.2928
 8867SOL     OW27499   6.642   1.707   4.874  0.2114 -0.0438  0.0944
 8867SOL    HW127500   6.640   1.608   4.862 -0.3219 -0.0841  0.4777
 8867SOL    HW227501   6.549   1.742   4.880  0.3983  0.4551  0.1649
 8868SOL     OW27502   1.874   2.242   2.592  0.0068  0.3343  0.1960
 8868SOL    HW127503   1.888   2.256   2.494 -1.7201 -0.2527 -0.1698
 8868SOL    HW227504   1.781   2.271   2.616  0.6543  1.1480  1.8081
 8869SOL     OW27505   4.294   0.949   5.413  0.1485  0.5347 -0.0385
 8869SOL    HW127506   4.208   0.999   5.424  0.1167  0.4718 -0.0025
 8869SOL    HW227507   4.365   1.012   5.380  0.5131  0.9797  1.5201
 8870SOL     OW27508   1.200   2.883   6.670  0.2172 -0.0579  0.4952
 8870SOL    HW127509   1.174   2.850   6.761  1.6015 -2.1482  0.1914
 8870SOL    HW227510   1.255   2.965   6.679  1.6871 -1.1335  1.6797
 8871SOL     OW27511   6.977   0.357   4.872  0.2888  0.5241  0.2242
 8871SOL    HW127512   6.998   0.381   4.967  0.0599 -0.1139  0.4423
 8871SOL    HW227513   6.977   0.440   4.816 -1.9220  1.2992  1.2238
 8872SOL     OW27514   5.376   6.011   1.903  1.1676  0.5417  0.4432
 8872SOL    HW127515   5.468   5.992   1.936  0.7021 -3.4606 -0.0172
 8872SOL    HW227516   5.378   6.032   1.806  1.6758  1.9161  0.7383
 8873SOL     OW27517   0.589   0.725   3.565 -0.2263  0.2855  0.3283
 8873SOL    HW127518   0.560   0.646   3.620  2.5689 -0.0249  1.5396
 8873SOL    HW227519   0.553   0.809   3.606  0.5564 -0.0638  1.8329
 8874SOL     OW27520   3.027   6.886   1.151 -0.0100 -0.1575 -0.1353
 8874SOL    HW127521   2.971   6.828   1.210 -2.5566  0.9427 -1.3023
 8874SOL    HW227522   3.028   6.979   1.188  0.9027 -0.1119 -0.2575
 8875SOL     OW27523   6.992   2.830   5.161  0.2422 -0.0942 -0.4170
 8875SOL    HW127524   6.974   2.733   5.177 -0.2024  0.1899  0.8860
 8875SOL    HW227525   7.090   2.848   5.170  0.2250 -0.2805  0.1705
 8876SOL     OW27526   4.697   0.475   5.827 -0.0303 -0.1777 -0.5002
 8876SOL    HW127527   4.601   0.501   5.830  0.0874  0.1921  1.2307
 8876SOL    HW227528   4.753   0.557   5.812  0.1748  0.2890  2.1895
 8877SOL     OW27529   4.965   2.928   1.271 -0.3087 -0.8117 -0.1489
 8877SOL    HW127530   4.955   3.020   1.310 -0.9012 -1.8026  2.2355
 8877SOL    HW227531   4.908   2.919   1.190 -0.7070  0.7363 -0.0660
 8878SOL     OW27532   4.485   4.433   2.313 -0.1781 -0.2014 -0.5757
 8878SOL    HW127533   4.419   4.395   2.249 -1.8621 -2.2496  2.1405
 8878SOL    HW227534   4.575   4.392   2.296 -0.2758  0.2418 -2.3293
 8879SOL     OW27535   0.793   4.295   1.955 -0.2748  0.2675 -0.9201
 8879SOL    HW127536   0.825   4.208   1.919 -0.6240 -0.2894  0.0828
 8879SOL    HW227537   0.798   4.294   2.055  1.1794  1.9681 -0.9114
 8880SOL     OW27538   3.457   2.995   1.792  0.4775 -0.2992  0.1225
 8880SOL    HW127539   3.432   3.091   1.785 -2.2912 -0.8559  1.1946
 8880SOL    HW227540   3.410   2.954   1.870  1.5706 -2.5578 -0.3224
 8881SOL     OW27541   4.133   0.643   4.563  0.0349  0.3531 -0.4383
 8881SOL    HW127542   4.208   0.701   4.532 -0.4425  1.2451  0.0286
 8881SOL    HW227543   4.053   0.657   4.504  0.5579 -1.4720 -1.6690
 8882SOL     OW27544   3.234   0.388   6.018 -0.1425 -0.0563 -0.3893
 8882SOL    HW127545   3.227   0.333   5.935  1.7170  0.1102 -0.6791
 8882SOL    HW227546   3.173   0.467   6.011  0.2097  0.1151 -1.7141
 8883SOL     OW27547   1.632   6.311   2.175 -0.1117 -0.2701  0.0620
 8883SOL    HW127548   1.593   6.220   2.184  1.2713 -1.0456 -1.2888
 8883SOL    HW227549   1.714   6.319   2.232  0.6226 -0.4142 -0.9361
 8884SOL     OW27550   6.008   1.125   6.688 -0.7863  0.1878 -0.3779
 8884SOL    HW127551   6.055   1.161   6.607 -2.8210  0.6131 -1.4152
 8884SOL    HW227552   5.926   1.075   6.660 -1.5095  0.2984  1.4266
 8885SOL     OW27553   5.662   5.384   5.726 -0.1127  0.1507 -0.2271
 8885SOL    HW127554   5.633   5.448   5.797  0.6596 -0.0886  0.3034
 8885SOL    HW227555   5.699   5.301   5.768 -0.8212 -0.5303 -0.9071
 8886SOL     OW27556   3.758   6.049   6.476 -0.1548 -0.1595  0.3354
 8886SOL    HW127557   3.837   6.100   6.442 -0.0502 -0.2402  0.4600
 8886SOL    HW227558   3.775   5.951   6.470 -0.1675 -0.1762  0.5439
 8887SOL     OW27559   5.550   0.846   4.440  0.2093  0.5049 -0.1580
 8887SOL    HW127560   5.578   0.918   4.378 -1.8413 -0.7045 -2.6368
 8887SOL    HW227561   5.605   0.764   4.422  0.8750  0.6759  0.9763
 8888SOL     OW27562   4.944   6.928   2.880  0.5124 -0.0221  0.4121
 8888SOL    HW127563   4.984   6.990   2.813 -0.0097  0.3729  0.4705
 8888SOL    HW227564   4.869   6.973   2.928  0.8857 -0.2910  1.2755
 8889SOL     OW27565   0.643   4.344   0.374 -0.0904 -0.4126 -0.2572
 8889SOL    HW127566   0.635   4.420   0.310 -1.2822 -0.5898 -0.3444
 8889SOL    HW227567   0.731   4.348   0.420 -0.4734  1.5438  0.4065
 8890SOL     OW27568   2.016   6.090   6.126 -0.1889 -0.6071 -0.4514
 8890SOL    HW127569   2.053   6.047   6.043  0.0139 -0.5018 -0.4165
 8890SOL    HW227570   2.034   6.189   6.123  1.8742 -0.8920  0.7687
 8891SOL     OW27571   6.012   4.577   4.516  0.2112  0.3798  0.0198
 8891SOL    HW127572   5.929   4.632   4.515 -1.9612 -2.6426 -0.0731
 8891SOL    HW227573   6.068   4.602   4.595 -0.9664  2.2204  0.3207
 8892SOL     OW27574   1.370   4.958   5.143  0.0189 -0.0273  0.0467
 8892SOL    HW127575   1.380   4.924   5.049  1.8195 -1.1577  0.5997
 8892SOL    HW227576   1.364   5.058   5.142  0.3774 -0.0016 -1.2444
 8893SOL     OW27577   0.393   5.621   3.946  0.1211  0.2424  0.1620
 8893SOL    HW127578   0.403   5.571   3.860 -3.5671 -0.8986  0.2375
 8893SOL    HW227579   0.440   5.571   4.019  0.2438 -0.7160 -0.5516
 8894SOL     OW27580   6.048   1.476   1.915 -0.0986 -0.4271 -0.3977
 8894SOL    HW127581   6.047   1.545   1.844  0.1615 -0.8067 -0.7710
 8894SOL    HW227582   6.067   1.519   2.004  0.2284 -0.0504 -0.6500
 8895SOL     OW27583   0.953   4.207   1.628 -0.2465  0.2552 -0.5795
 8895SOL    HW127584   1.015   4.237   1.556 -1.3507  2.1339 -0.8185
 8895SOL    HW227585   0.907   4.287   1.667 -0.7779 -0.8644  1.1946
 8896SOL     OW27586   6.667   1.881   4.260 -0.2250 -0.3886  0.5645
 8896SOL    HW127587   6.700   1.820   4.189 -0.7432  0.5123 -0.4784
 8896SOL    HW227588   6.741   1.900   4.325  0.8397  0.2653 -0.7792
 8897SOL     OW27589   2.921   6.418   5.013 -0.2541  0.3183 -0.4415
 8897SOL    HW127590   2.876   6.468   5.087  0.1785 -0.5813  0.4582
 8897SOL    HW227591   3.019   6.414   5.031  0.3397  2.5400 -2.5325
 8898SOL     OW27592   4.506   5.711   2.802  0.8131 -0.2546 -0.0298
 8898SOL    HW127593   4.447   5.712   2.722  0.3334  0.5778  0.3136
 8898SOL    HW227594   4.503   5.621   2.845 -0.6121 -0.0837  0.2704
 8899SOL     OW27595   1.273   3.303   1.183 -0.5198 -0.6518  0.3540
 8899SOL    HW127596   1.271   3.394   1.142 -0.5048 -1.4435 -1.4914
 8899SOL    HW227597   1.180   3.274   1.205 -0.7693 -1.0682 -1.1527
 8900SOL     OW27598   4.710   3.101   6.876 -0.2254  0.5511  0.6733
 8900SOL    HW127599   4.733   3.038   6.951  0.3352  0.3131  0.3040
 8900SOL    HW227600   4.766   3.184   6.884  0.6193  0.0634 -0.1023
 8901SOL     OW27601   1.921   6.952   6.445 -0.0365  0.5130  0.1897
 8901SOL    HW127602   2.017   6.942   6.420 -0.1244  1.5206 -0.6166
 8901SOL    HW227603   1.865   6.955   6.362 -0.9830 -1.8990  0.6787
 8902SOL     OW27604   2.686   5.322   5.690  0.0125 -0.3544 -0.1471
 8902SOL    HW127605   2.627   5.310   5.610  2.2414 -2.1012 -1.6469
 8902SOL    HW227606   2.721   5.233   5.719  1.1938  0.5222  1.2747
 8903SOL     OW27607   0.057   1.432   2.949 -0.3487  0.0965  0.0303
 8903SOL    HW127608   0.117   1.440   2.869  0.8121  1.8402  1.0051
 8903SOL    HW227609  -0.038   1.437   2.920 -0.0058 -0.6320 -1.3470
 8904SOL     OW27610   5.008   6.700   2.348 -0.0795  0.0758  0.7274
 8904SOL    HW127611   5.020   6.788   2.302 -1.9003 -0.2228 -0.4100
 8904SOL    HW227612   5.098   6.661   2.369  0.8198  0.6583 -1.7748
 8905SOL     OW27613   6.296   6.167   0.504 -0.3952 -0.1582 -0.0504
 8905SOL    HW127614   6.213   6.205   0.462  0.0256  0.4311 -0.3820
 8905SOL    HW227615   6.291   6.068   0.504 -1.1862 -0.1259  0.1111
 8906SOL     OW27616   6.890   1.748   0.236 -0.0277 -0.1349  0.1012
 8906SOL    HW127617   6.814   1.810   0.256  1.1098  0.3479  3.4635
 8906SOL    HW227618   6.862   1.654   0.254 -0.0387 -0.0305  0.6276
 8907SOL     OW27619   2.274   3.528   5.205  0.0612  0.7868 -0.4324
 8907SOL    HW127620   2.306   3.590   5.133  0.3608  1.2348  0.0827
 8907SOL    HW227621   2.352   3.493   5.256 -0.2277  1.5080  0.5274
 8908SOL     OW27622   1.246   6.850   0.103 -0.3225  0.0617  0.4685
 8908SOL    HW127623   1.340   6.867   0.132 -0.8030  0.9573  1.5710
 8908SOL    HW227624   1.182   6.886   0.172 -1.5364  2.6222 -1.7720
 8909SOL     OW27625   3.377   4.898   2.086 -0.0285 -0.6211  0.1144
 8909SOL    HW127626   3.467   4.866   2.057 -0.7830 -1.0528 -1.8721
 8909SOL    HW227627   3.344   4.968   2.023 -1.6082 -1.3763  0.0463
 8910SOL     OW27628   1.292   1.428   2.460  0.2468  0.3652 -0.5251
 8910SOL    HW127629   1.350   1.490   2.512  2.4811 -0.0991 -2.3499
 8910SOL    HW227630   1.210   1.477   2.429  0.0926  1.3029  1.2495
 8911SOL     OW27631   6.266   2.742   3.605  0.7714 -0.1853 -0.1601
 8911SOL    HW127632   6.307   2.809   3.667 -0.4562  0.2352  0.2296
 8911SOL    HW227633   6.294   2.650   3.633  0.9341  0.0546  0.4902
 8912SOL     OW27634   3.787   2.933   4.421 -0.1902 -0.5624  0.7525
 8912SOL    HW127635   3.733   2.917   4.503 -0.8789 -0.6742  0.2889
 8912SOL    HW227636   3.841   3.016   4.432  0.1260 -0.8558  1.5114
 8913SOL     OW27637   3.800   5.282   1.596 -0.5985 -0.2128  0.0262
 8913SOL    HW127638   3.830   5.187   1.589 -1.8280 -0.6422  0.2836
 8913SOL    HW227639   3.871   5.343   1.560 -0.5446 -1.3363 -1.8717
 8914SOL     OW27640   5.664   4.764   5.108 -0.0837 -0.0431 -0.2622
 8914SOL    HW127641   5.574   4.740   5.072 -0.1154  0.9891 -0.8996
 8914SOL    HW227642   5.660   4.854   5.151  0.3191 -0.6030  1.0048
 8915SOL     OW27643   2.370   1.807   2.196  0.1387  0.1028  0.2033
 8915SOL    HW127644   2.364   1.858   2.110 -0.0703 -0.6681 -0.2560
 8915SOL    HW227645   2.284   1.757   2.210 -0.6146  1.7555  1.8669
 8916SOL     OW27646   5.895   6.166   2.443 -0.2456  0.3622 -0.0198
 8916SOL    HW127647   5.846   6.207   2.520 -1.9680 -2.0281  0.2506
 8916SOL    HW227648   5.975   6.116   2.477  2.4884  3.9764 -0.4330
 8917SOL     OW27649   5.721   1.837   6.708 -0.2792 -0.2261 -0.1954
 8917SOL    HW127650   5.646   1.800   6.761  0.1602 -0.2658  0.4114
 8917SOL    HW227651   5.720   1.799   6.616 -0.7756 -0.5075 -0.0721
 8918SOL     OW27652   1.639   2.433   3.658 -0.5198 -0.4475 -0.4734
 8918SOL    HW127653   1.703   2.496   3.702  0.8004 -1.7767 -0.4416
 8918SOL    HW227654   1.608   2.365   3.724  0.7577 -1.8983 -1.3225
 8919SOL     OW27655   0.314   1.152   2.408  0.0521 -0.0827  0.1249
 8919SOL    HW127656   0.408   1.131   2.433  0.1943 -1.5900 -1.4898
 8919SOL    HW227657   0.276   1.076   2.354 -1.8826  0.7633  0.2174
 8920SOL     OW27658   1.063   1.429   6.130  0.1293  0.5999 -0.5754
 8920SOL    HW127659   1.016   1.417   6.042 -1.4191  2.2593 -0.0232
 8920SOL    HW227660   1.069   1.340   6.176 -0.7259  0.0148 -1.5253
 8921SOL     OW27661   1.421   2.600   0.666  0.2195 -0.0685  0.1878
 8921SOL    HW127662   1.358   2.624   0.739 -0.9204 -0.3704 -0.6732
 8921SOL    HW227663   1.409   2.662   0.589  1.7924  0.5886  0.4333
 8922SOL     OW27664   1.396   6.468   3.272 -0.2417  0.5494  0.1871
 8922SOL    HW127665   1.308   6.469   3.225 -1.8330  0.4926  2.9547
 8922SOL    HW227666   1.381   6.454   3.370  2.9293 -0.3123  0.6548
 8923SOL     OW27667   2.342   2.537   4.980  0.0055  0.0576  0.0366
 8923SOL    HW127668   2.438   2.551   5.004  0.6079  0.5943 -2.3988
 8923SOL    HW227669   2.322   2.439   4.974  0.4780 -0.0534  0.2946
 8924SOL     OW27670   6.615   4.334   3.549  0.0395  0.0634  0.4206
 8924SOL    HW127671   6.686   4.304   3.613  0.3477 -0.0490  0.0303
 8924SOL    HW227672   6.657   4.386   3.475 -0.3978  0.7883  0.6667
 8925SOL     OW27673   0.648   6.523   5.939  0.4123  0.4592 -0.4828
 8925SOL    HW127674   0.603   6.446   5.894  0.7474 -1.5408  2.3231
 8925SOL    HW227675   0.580   6.591   5.964 -0.3417 -0.2292 -0.6133
 8926SOL     OW27676   5.011   2.793   6.545 -0.2799  0.2114 -0.8685
 8926SOL    HW127677   5.074   2.807   6.622 -0.9194 -0.9753 -0.0862
 8926SOL    HW227678   5.058   2.745   6.472 -0.1071 -0.1788 -0.5087
 8927SOL     OW27679   0.865   1.678   0.704 -0.3046  0.8665 -0.5737
 8927SOL    HW127680   0.856   1.579   0.694 -2.1503  0.8809  0.5363
 8927SOL    HW227681   0.928   1.698   0.780 -1.8266  0.4699  0.8369
 8928SOL     OW27682   6.569   0.307   5.599  0.0422 -0.7028 -0.3823
 8928SOL    HW127683   6.636   0.381   5.594 -0.1684 -0.5620 -1.1584
 8928SOL    HW227684   6.492   0.327   5.538 -0.2078 -1.3663 -0.2904
 8929SOL     OW27685   0.381   0.560   4.162 -0.3048  0.0124  0.0166
 8929SOL    HW127686   0.378   0.550   4.261 -0.3029  0.9613  0.1227
 8929SOL    HW227687   0.472   0.539   4.128 -0.3501 -0.4708  0.1998
 8930SOL     OW27688   2.419   6.278   4.548 -0.0966 -0.3487 -0.2888
 8930SOL    HW127689   2.342   6.301   4.608 -1.0759  0.2219 -1.7067
 8930SOL    HW227690   2.466   6.362   4.521 -0.5901 -0.4498 -1.4992
 8931SOL     OW27691   5.592   3.323   0.629  0.0064 -0.2840  0.1135
 8931SOL    HW127692   5.591   3.269   0.545  1.6729 -3.2337  1.7941
 8931SOL    HW227693   5.644   3.407   0.616  0.8111 -1.0172 -1.6287
 8932SOL     OW27694   1.958   4.838   6.526 -0.3241  0.1883  0.2652
 8932SOL    HW127695   1.868   4.863   6.561 -0.8481 -0.3268 -0.6666
 8932SOL    HW227696   1.956   4.742   6.496  0.9665 -0.3001  1.6163
 8933SOL     OW27697   6.093   4.115   6.841 -0.3812 -0.0524 -0.5956
 8933SOL    HW127698   6.118   4.035   6.786 -1.6143 -0.9179  0.0462
 8933SOL    HW227699   6.174   4.172   6.856  0.3155 -0.6332 -1.9215
 8934SOL     OW27700   1.063   5.694   1.599  0.1908 -0.1784 -0.3873
 8934SOL    HW127701   1.113   5.700   1.686  0.0680  0.4947 -0.3606
 8934SOL    HW227702   0.983   5.634   1.611  0.0499  0.0885  0.0232
 8935SOL     OW27703   6.398   5.021   0.951 -0.5930 -0.1405  0.1282
 8935SOL    HW127704   6.383   5.050   1.046  2.1218  2.0933  0.0193
 8935SOL    HW227705   6.335   4.948   0.928 -0.9826 -1.1609  3.8236
 8936SOL     OW27706   3.636   2.226   0.932  0.5192  0.2715  0.3477
 8936SOL    HW127707   3.636   2.288   0.854  1.6382  2.2913  1.8578
 8936SOL    HW227708   3.722   2.236   0.983  0.8065 -2.6544  0.6221
 8937SOL     OW27709   0.045   1.165   5.813  0.8858  0.8227 -0.0162
 8937SOL    HW127710   0.116   1.226   5.848  0.2680  1.0926  0.7962
 8937SOL    HW227711   0.079   1.071   5.811  1.3011  0.9691  0.2557
 8938SOL     OW27712   4.316   4.638   2.413  0.5770  0.1121  0.1048
 8938SOL    HW127713   4.374   4.558   2.398 -0.2488 -0.3872 -0.5371
 8938SOL    HW227714   4.272   4.663   2.327  0.7407  1.2040  0.3227
 8939SOL     OW27715   5.330   1.306   6.321 -0.0436 -0.0573  0.6107
 8939SOL    HW127716   5.426   1.287   6.300  1.1001  3.5146  1.8889
 8939SOL    HW227717   5.280   1.320   6.236  1.4006  1.3240 -0.0616
 8940SOL     OW27718   3.706   1.007   2.474  0.5207 -0.5067  0.2164
 8940SOL    HW127719   3.738   1.074   2.407  2.7539 -0.8175  0.8831
 8940SOL    HW227720   3.606   1.000   2.469  0.4341  1.0722 -1.5236
 8941SOL     OW27721   3.747   0.389   5.972 -0.2193 -0.5240 -0.1271
 8941SOL    HW127722   3.707   0.472   5.932 -0.2203  0.5125  1.8380
 8941SOL    HW227723   3.700   0.369   6.058  1.0522 -1.4541  0.3751
 8942SOL     OW27724   6.467   1.563   5.183 -0.0425  0.0403  0.0004
 8942SOL    HW127725   6.391   1.547   5.248 -1.3228  1.5888 -1.0469
 8942SOL    HW227726   6.526   1.635   5.219  0.6845 -0.8277  0.5850
 8943SOL     OW27727   4.336   3.683   0.348  0.0018  0.6090  0.6010
 8943SOL    HW127728   4.250   3.651   0.388  0.6826  0.7346  2.2476
 8943SOL    HW227729   4.318   3.761   0.289 -1.5329 -1.9148 -2.5314
 8944SOL     OW27730   6.094   4.432   0.637  0.0490 -0.4819  0.5827
 8944SOL    HW127731   6.076   4.335   0.657 -1.4091 -0.5343 -0.7708
 8944SOL    HW227732   6.109   4.481   0.723 -0.6897 -1.6379  1.4079
 8945SOL     OW27733   0.547   0.480   4.639 -0.0070 -0.1741 -0.3648
 8945SOL    HW127734   0.493   0.552   4.683 -0.8174 -0.8139 -0.2935
 8945SOL    HW227735   0.643   0.508   4.636 -0.2522  0.7497 -0.0100
 8946SOL     OW27736   2.872   0.552   6.209 -0.8226 -0.2643 -0.1433
 8946SOL    HW127737   2.815   0.604   6.273  1.3001 -2.1498  3.6804
 8946SOL    HW227738   2.824   0.468   6.183 -0.7797 -0.6713  1.0427
 8947SOL     OW27739   2.385   3.663   6.162  0.1902  0.1331 -0.7577
 8947SOL    HW127740   2.394   3.692   6.258  0.9271 -0.3750 -0.6593
 8947SOL    HW227741   2.468   3.689   6.112 -0.8794  1.9453 -1.7051
 8948SOL     OW27742   4.545   5.534   3.918  0.0243 -0.0285  0.2909
 8948SOL    HW127743   4.606   5.482   3.859  1.4306  0.1036  1.5432
 8948SOL    HW227744   4.450   5.507   3.902  0.6902 -3.3621  1.1931
 8949SOL     OW27745   2.349   5.385   5.646  0.3537  0.7551  0.5806
 8949SOL    HW127746   2.257   5.408   5.615  0.4706  1.4197  0.7051
 8949SOL    HW227747   2.349   5.293   5.686 -0.0008  0.2885 -0.4656
 8950SOL     OW27748   5.494   4.100   6.089  0.1901 -0.6780  0.2221
 8950SOL    HW127749   5.449   4.019   6.052 -0.4977 -0.0121 -0.4235
 8950SOL    HW227750   5.489   4.098   6.189 -1.7732 -0.3701  0.1632
 8951SOL     OW27751   0.699   0.145   4.693 -0.2468  0.4458  0.1452
 8951SOL    HW127752   0.735   0.224   4.743 -2.6530  1.1010  0.9977
 8951SOL    HW227753   0.604   0.163   4.667 -1.0779 -2.4081  0.9265
 8952SOL     OW27754   4.379   5.528   4.295  0.5120 -0.3630  0.1008
 8952SOL    HW127755   4.364   5.523   4.394 -1.0451  0.6185 -0.0624
 8952SOL    HW227756   4.361   5.620   4.262  0.0253 -0.9091 -1.2571
 8953SOL     OW27757   0.798   5.230   4.593 -0.1862  0.4319  0.1464
 8953SOL    HW127758   0.852   5.211   4.511 -0.0984  0.1382  0.2689
 8953SOL    HW227759   0.848   5.198   4.674 -0.1185  1.0322  0.3463
 8954SOL     OW27760   3.189   5.694   5.556  0.0397  0.1197  0.0316
 8954SOL    HW127761   3.118   5.627   5.535 -0.9150  1.4770 -1.2537
 8954SOL    HW227762   3.151   5.786   5.552  1.4059  0.7917  1.4091
 8955SOL     OW27763   0.202   2.450   4.036 -0.3539  0.4768  0.4974
 8955SOL    HW127764   0.150   2.481   3.956  2.2428  2.9299 -0.4152
 8955SOL    HW227765   0.172   2.499   4.117 -0.5717  0.6847  0.2920
 8956SOL     OW27766   2.240   0.463   4.482  0.2299 -0.1238 -0.2638
 8956SOL    HW127767   2.187   0.453   4.567 -0.7486  0.0483 -0.8348
 8956SOL    HW227768   2.269   0.373   4.450 -0.6688 -0.3417 -0.5144
 8957SOL     OW27769   1.658   5.320   2.093 -0.1448 -0.0409  0.1251
 8957SOL    HW127770   1.674   5.391   2.160  0.0884 -0.3051  0.3532
 8957SOL    HW227771   1.721   5.244   2.109 -0.8151 -0.5726  0.2759
 8958SOL     OW27772   2.524   1.424   3.773  0.7286 -0.3238  0.1886
 8958SOL    HW127773   2.439   1.418   3.826 -1.4060 -0.1604 -2.9301
 8958SOL    HW227774   2.571   1.509   3.797 -1.3301  0.8790  0.2363
 8959SOL     OW27775   3.859   5.929   0.026  0.0071  0.4275  0.2522
 8959SOL    HW127776   3.779   5.873   0.005  0.4168 -0.2706  0.5223
 8959SOL    HW227777   3.868   6.001  -0.043  0.5968 -1.0380 -1.2588
 8960SOL     OW27778   3.505   6.534   1.863 -0.1327 -0.2476 -0.3321
 8960SOL    HW127779   3.570   6.604   1.892 -0.5295  0.3958 -0.9699
 8960SOL    HW227780   3.472   6.555   1.771  0.0536 -1.5038 -0.7091
 8961SOL     OW27781   1.040   2.202   5.230 -0.0220 -0.3818  0.1436
 8961SOL    HW127782   1.115   2.207   5.295  0.4488  0.3554 -0.4327
 8961SOL    HW227783   0.967   2.265   5.259  0.6561  0.7936 -0.5883
 8962SOL     OW27784   5.110   6.947   4.245 -0.0780 -0.4868  0.4433
 8962SOL    HW127785   5.077   6.856   4.271  0.1140 -0.5052  0.6186
 8962SOL    HW227786   5.072   7.015   4.308 -0.5683 -0.3915  0.0586
 8963SOL     OW27787   2.646   6.773   5.427 -0.0364 -0.7803  0.2858
 8963SOL    HW127788   2.557   6.734   5.452  0.7103 -1.8189  1.4872
 8963SOL    HW227789   2.704   6.778   5.508  0.8929  0.2226 -0.4088
 8964SOL     OW27790   0.789   2.053   3.356 -0.0462 -0.3972 -0.0201
 8964SOL    HW127791   0.742   1.988   3.416 -0.5352  0.0988  0.1518
 8964SOL    HW227792   0.856   2.005   3.300 -1.3863 -1.2740 -0.9203
 8965SOL     OW27793   1.281   5.619   6.737  0.3940  0.1549 -0.3449
 8965SOL    HW127794   1.365   5.663   6.705  0.5956 -0.5010 -0.7437
 8965SOL    HW227795   1.277   5.623   6.836  1.0571 -0.0816 -0.3045
 8966SOL     OW27796   4.044   2.422   5.401  0.0712 -0.5516 -0.0931
 8966SOL    HW127797   4.098   2.451   5.322  0.9530  0.6114  0.9027
 8966SOL    HW227798   3.968   2.485   5.415  0.9182  0.2548  0.9886
 8967SOL     OW27799   4.756   6.721   0.725  0.8372 -0.2795 -0.3706
 8967SOL    HW127800   4.798   6.674   0.803  1.0618  0.8420  0.1990
 8967SOL    HW227801   4.818   6.718   0.647  1.5207  0.4332  0.1411
 8968SOL     OW27802   5.016   4.684   3.598 -0.8275  0.4928 -0.8915
 8968SOL    HW127803   5.057   4.741   3.670 -0.2989 -0.1381 -0.6867
 8968SOL    HW227804   4.943   4.736   3.553 -1.0319  0.9768 -0.0393
 8969SOL     OW27805   6.400   0.535   4.039 -0.5800  0.2572 -0.1155
 8969SOL    HW127806   6.344   0.457   4.012 -0.7568  0.7345 -1.1859
 8969SOL    HW227807   6.494   0.522   4.007 -0.5024  0.2760  0.1033
 8970SOL     OW27808   2.809   1.824   0.369 -0.2048  0.3359 -0.1553
 8970SOL    HW127809   2.844   1.836   0.462  0.1703 -1.5708 -0.0112
 8970SOL    HW227810   2.709   1.828   0.370 -0.1763  1.2319  0.1670
 8971SOL     OW27811   1.341   6.570   2.114 -0.3887 -0.4099  0.1890
 8971SOL    HW127812   1.435   6.537   2.128 -0.4278 -0.3514  0.5736
 8971SOL    HW227813   1.344   6.654   2.059 -0.2670 -0.8458 -0.4941
 8972SOL     OW27814   1.691   6.775   5.396  0.0684  0.2825  0.2703
 8972SOL    HW127815   1.620   6.719   5.354 -1.1835  0.7379  1.6714
 8972SOL    HW227816   1.649   6.851   5.445  1.4303 -0.1120  2.1705
 8973SOL     OW27817   0.074   5.109   5.092  0.8231  0.7661 -0.0250
 8973SOL    HW127818   0.003   5.039   5.098  0.4093  1.0853 -0.9650
 8973SOL    HW227819   0.040   5.185   5.037  2.7708 -0.2156 -2.8286
 8974SOL     OW27820   1.283   2.746   4.262 -1.1022 -0.2991  0.2053
 8974SOL    HW127821   1.205   2.697   4.301 -1.8838  0.6130 -0.1588
 8974SOL    HW227822   1.368   2.715   4.306 -1.7501 -0.7110  1.2049
 8975SOL     OW27823   4.388   0.335   5.578  0.2120  0.1411  0.2521
 8975SOL    HW127824   4.474   0.376   5.550 -0.0453 -0.3456 -1.3935
 8975SOL    HW227825   4.400   0.236   5.588 -0.2882 -0.0183 -0.6337
 8976SOL     OW27826   2.778   5.968   5.213  0.1053  0.2074  0.0068
 8976SOL    HW127827   2.815   6.015   5.133  1.0059  0.5842  0.6266
 8976SOL    HW227828   2.823   5.880   5.224 -0.0909  0.1110  0.0414
 8977SOL     OW27829   6.733   1.646   6.552  0.0871 -0.1783 -0.1868
 8977SOL    HW127830   6.676   1.666   6.632 -0.3793 -3.4590  0.4769
 8977SOL    HW227831   6.697   1.693   6.472 -1.6130  0.3647  0.8531
 8978SOL     OW27832   6.015   3.459   2.206 -0.1329 -0.6208  0.0952
 8978SOL    HW127833   6.024   3.552   2.243 -1.9091  0.0632 -1.0498
 8978SOL    HW227834   6.085   3.400   2.247  1.4533  1.3422  0.4112
 8979SOL     OW27835   0.948   6.168   4.164 -0.1633  0.0908  0.0961
 8979SOL    HW127836   1.039   6.142   4.196 -0.6180  0.3694  1.7052
 8979SOL    HW227837   0.885   6.092   4.177 -0.4422  0.3390  0.2032
 8980SOL     OW27838   3.216   3.360   3.310  0.0257 -0.1919 -0.2702
 8980SOL    HW127839   3.222   3.271   3.266 -0.9437 -0.1507 -0.4926
 8980SOL    HW227840   3.190   3.429   3.243 -1.9678 -0.2160  0.4277
 8981SOL     OW27841   3.150   2.817   6.179  0.0711  0.6029  0.0694
 8981SOL    HW127842   3.125   2.825   6.083  2.0017 -0.0294 -0.5103
 8981SOL    HW227843   3.096   2.882   6.232 -0.2281  1.7604 -1.5769
 8982SOL     OW27844   1.934   4.386   5.319  0.0189 -0.4610 -0.4787
 8982SOL    HW127845   1.995   4.403   5.396  0.9065 -0.1200 -1.2399
 8982SOL    HW227846   1.872   4.465   5.308 -0.3876 -0.6902  0.1278
 8983SOL     OW27847   3.113   5.361   0.773 -0.0286 -0.1223  0.4624
 8983SOL    HW127848   3.049   5.294   0.735 -0.2370 -0.5903  1.5955
 8983SOL    HW227849   3.063   5.444   0.798  0.4867  1.2936 -2.6517
 8984SOL     OW27850   1.062   6.011   1.841  0.0287  0.5486 -0.0232
 8984SOL    HW127851   0.985   6.056   1.886 -0.6812  1.2177 -1.8256
 8984SOL    HW227852   1.058   6.028   1.743  0.6658 -2.0721 -0.5836
 8985SOL     OW27853   2.092   4.832   6.802  0.6347 -0.1016 -0.0852
 8985SOL    HW127854   2.171   4.775   6.783  1.3311  0.8054  0.0252
 8985SOL    HW227855   2.036   4.840   6.720 -0.5457 -2.5103  0.3945
 8986SOL     OW27856   2.482   4.251   0.502  0.1643 -0.2482  0.1604
 8986SOL    HW127857   2.537   4.271   0.421 -1.0846  2.0381 -0.1905
 8986SOL    HW227858   2.424   4.171   0.484  0.3110 -0.1067 -0.9943
 8987SOL     OW27859   3.916   6.679   2.979 -0.9078  0.0027  0.5415
 8987SOL    HW127860   4.010   6.700   3.007 -0.6013  0.5738 -0.8534
 8987SOL    HW227861   3.890   6.737   2.902 -1.2498 -2.3468 -1.2333
 8988SOL     OW27862   0.753   4.123   5.057  0.6735 -0.0300  0.4246
 8988SOL    HW127863   0.660   4.091   5.072  1.1959 -1.4789  0.7540
 8988SOL    HW227864   0.760   4.220   5.082 -1.0541  0.4894 -0.9372
 8989SOL     OW27865   2.033   0.467   0.345  0.0061  0.1896  0.1915
 8989SOL    HW127866   2.086   0.409   0.408  0.5301  2.3377  1.8515
 8989SOL    HW227867   2.052   0.439   0.251  0.0029 -2.4647  0.8955
 8990SOL     OW27868   0.265   4.260   3.746  0.6671 -1.1309  0.1698
 8990SOL    HW127869   0.293   4.250   3.841 -0.5499 -0.6245  0.6045
 8990SOL    HW227870   0.180   4.209   3.731  0.2032 -0.2409 -0.3224
 8991SOL     OW27871   6.976   1.367   4.130 -0.0184 -0.4285  0.1230
 8991SOL    HW127872   6.896   1.410   4.088  1.0407 -0.8922 -2.5505
 8991SOL    HW227873   6.967   1.268   4.126  0.0584 -0.4952  1.1980
 8992SOL     OW27874   5.370   1.347   0.884 -0.2091 -0.1339 -0.1105
 8992SOL    HW127875   5.418   1.301   0.809  1.5481 -0.8187  1.3466
 8992SOL    HW227876   5.391   1.444   0.882 -0.6399 -0.0468 -0.8194
 8993SOL     OW27877   3.851   0.953   0.167 -0.4823  0.0560 -0.0343
 8993SOL    HW127878   3.755   0.936   0.188 -1.0534  2.0879 -0.7446
 8993SOL    HW227879   3.890   1.014   0.236 -0.3931  1.1092 -0.9894
 8994SOL     OW27880   2.093   5.356   3.210 -0.0752 -0.7474 -0.0353
 8994SOL    HW127881   2.072   5.324   3.118 -1.6149  0.7916 -0.2681
 8994SOL    HW227882   2.183   5.400   3.211 -0.3590 -0.1302 -0.9802
 8995SOL     OW27883   1.386   0.372   2.076 -0.1027  0.0406  0.7768
 8995SOL    HW127884   1.368   0.471   2.073  0.4664  0.1810  1.4896
 8995SOL    HW227885   1.363   0.331   1.988  2.4319  1.3260 -0.6286
 8996SOL     OW27886   5.172   0.854   5.211  0.1699 -0.1019  0.1312
 8996SOL    HW127887   5.136   0.766   5.179  0.1958  0.0222 -0.2466
 8996SOL    HW227888   5.271   0.855   5.199 -0.0400  0.7322 -1.7517
 8997SOL     OW27889   6.650   0.606   4.938  0.0217 -0.4460 -0.5695
 8997SOL    HW127890   6.580   0.555   4.988  1.0201 -1.2108  0.0912
 8997SOL    HW227891   6.609   0.688   4.898 -0.9221 -0.0326  1.1300
 8998SOL     OW27892   2.393   5.339   6.105  0.0107 -0.1480 -0.1359
 8998SOL    HW127893   2.431   5.403   6.039  1.2494 -1.3159 -0.6027
 8998SOL    HW227894   2.429   5.358   6.196  0.1733 -0.0294 -0.2267
 8999SOL     OW27895   4.521   5.389   6.743  0.3523  0.4662 -0.4107
 8999SOL    HW127896   4.570   5.306   6.716  0.3111 -0.1464  1.2939
 8999SOL    HW227897   4.438   5.397   6.688 -0.0967 -1.1133 -0.0141
 9000SOL     OW27898   2.032   3.219   2.029  0.1010 -0.2243  0.4607
 9000SOL    HW127899   2.103   3.286   2.004  0.1424 -0.4674 -0.0735
 9000SOL    HW227900   1.960   3.266   2.081 -0.1415  0.3473 -0.3785
 9001SOL     OW27901   3.097   5.669   2.808 -0.3905 -0.0284  0.0825
 9001SOL    HW127902   3.181   5.708   2.847 -1.4044  2.1466  0.2228
 9001SOL    HW227903   3.115   5.638   2.715  0.4985  0.7002 -0.0047
 9002SOL     OW27904   6.623   1.341   0.133  0.0243 -0.2111  0.5232
 9002SOL    HW127905   6.569   1.333   0.050 -1.3291 -1.9541  1.5049
 9002SOL    HW227906   6.711   1.294   0.121 -0.5679 -1.3123  0.3656
 9003SOL     OW27907   3.274   6.444   0.793 -0.3835 -0.3227 -0.4245
 9003SOL    HW127908   3.180   6.476   0.780 -0.3242  0.0263 -0.0290
 9003SOL    HW227909   3.336   6.499   0.737 -0.1446  1.0846  1.1435
 9004SOL     OW27910   6.464   3.926   2.461 -0.3307 -0.3939  0.3001
 9004SOL    HW127911   6.450   4.008   2.405  0.3875 -0.1634  0.4466
 9004SOL    HW227912   6.376   3.893   2.493 -0.7090 -0.2393 -0.5529
 9005SOL     OW27913   5.702   2.860   6.117 -0.3235 -0.1051  0.8011
 9005SOL    HW127914   5.602   2.854   6.119 -0.3278 -0.0801  2.7591
 9005SOL    HW227915   5.738   2.848   6.210  1.3815  1.7677  0.4518
 9006SOL     OW27916   2.889   5.961   1.451 -0.0985  0.1897  0.2918
 9006SOL    HW127917   2.954   5.906   1.399 -0.7934  0.2488 -0.6598
 9006SOL    HW227918   2.801   5.915   1.457 -0.4602  0.8428  0.1539
 9007SOL     OW27919   6.427   2.352   3.913 -0.5430  0.7687  0.9126
 9007SOL    HW127920   6.484   2.328   3.834  0.8801  0.0796  2.0842
 9007SOL    HW227921   6.351   2.287   3.920  0.6090 -0.5957  1.3570
 9008SOL     OW27922   6.381   6.071   0.815  0.2696  0.6168  0.1542
 9008SOL    HW127923   6.288   6.078   0.850  0.6677 -2.2018  2.0146
 9008SOL    HW227924   6.382   6.013   0.733  0.3425  1.2739 -0.3278
 9009SOL     OW27925   3.322   7.001   0.364  0.2862  0.1439 -0.3445
 9009SOL    HW127926   3.266   7.063   0.420  0.2047 -0.8571  0.7087
 9009SOL    HW227927   3.418   7.006   0.395  0.2095 -0.5469  0.0218
 9010SOL     OW27928   2.104   6.008   3.645  0.1239 -0.0536 -0.1684
 9010SOL    HW127929   2.198   6.017   3.612 -0.4786 -1.5226 -2.5300
 9010SOL    HW227930   2.099   6.039   3.740  2.4115  2.5989 -0.7811
 9011SOL     OW27931   2.953   1.190   1.650 -0.2788  0.3744 -0.2119
 9011SOL    HW127932   2.915   1.147   1.569 -2.1870  0.4782  0.5787
 9011SOL    HW227933   2.912   1.281   1.662 -1.4668 -0.3722  1.8612
 9012SOL     OW27934   2.570   5.963   2.505  0.1291 -0.4573  0.4023
 9012SOL    HW127935   2.666   5.951   2.480  0.1204  1.1750 -0.5981
 9012SOL    HW227936   2.527   6.027   2.441 -1.3337 -0.2917  1.5013
 9013SOL     OW27937   0.506   1.351   4.160 -0.1190 -0.3649  1.2623
 9013SOL    HW127938   0.604   1.336   4.147  0.0386 -0.0687  2.0288
 9013SOL    HW227939   0.455   1.274   4.122  0.4115 -0.5234  0.8657
 9014SOL     OW27940   6.854   3.495   2.689  0.6018  0.3233  0.3598
 9014SOL    HW127941   6.898   3.442   2.617  0.1219 -0.2742  0.4962
 9014SOL    HW227942   6.923   3.547   2.738  0.9746  0.4796 -0.3178
 9015SOL     OW27943   4.698   6.421   7.004 -0.6538 -0.0712  0.5350
 9015SOL    HW127944   4.793   6.447   7.016 -0.7829  0.2023  0.9812
 9015SOL    HW227945   4.693   6.326   6.973 -0.2114  0.1803 -0.3142
 9016SOL     OW27946   5.644   4.297   0.603 -0.2562 -0.1655 -0.5546
 9016SOL    HW127947   5.675   4.263   0.514 -3.7261 -2.2693 -1.1432
 9016SOL    HW227948   5.555   4.341   0.593  0.0254  1.0705  1.6921
 9017SOL     OW27949   2.785   1.101   6.469 -0.5286  0.2677 -0.0370
 9017SOL    HW127950   2.861   1.163   6.493 -0.3915  0.3800 -0.7397
 9017SOL    HW227951   2.722   1.095   6.546 -0.1546  0.7035  0.3134
 9018SOL     OW27952   2.775   4.116   0.511 -0.1112  0.7950  0.0643
 9018SOL    HW127953   2.729   4.040   0.556 -0.2278  0.5867 -0.4036
 9018SOL    HW227954   2.811   4.179   0.580  2.7989 -1.2656  0.6059
 9019SOL     OW27955   0.042   4.250   5.108  0.2333  0.3938  0.6993
 9019SOL    HW127956   0.109   4.271   5.179 -0.0378  2.7313  0.3396
 9019SOL    HW227957   0.053   4.314   5.032 -1.2563 -0.3088 -0.1531
 9020SOL     OW27958   6.398   5.849   5.202 -0.8712 -0.2167 -0.0397
 9020SOL    HW127959   6.385   5.750   5.204 -1.2485 -0.1696 -0.0553
 9020SOL    HW227960   6.496   5.870   5.198 -0.7695 -0.5792  0.4591
 9021SOL     OW27961   6.352   2.781   5.284  0.0265  0.3384 -0.3086
 9021SOL    HW127962   6.444   2.743   5.295 -0.2393 -0.2711 -0.1572
 9021SOL    HW227963   6.316   2.753   5.195 -0.8683 -1.2854  0.5270
 9022SOL     OW27964   3.651   2.678   5.297  0.2516  0.1593 -0.0323
 9022SOL    HW127965   3.722   2.748   5.291  0.0725  0.2326 -1.5045
 9022SOL    HW227966   3.573   2.714   5.348  0.8193  0.4410  0.6628
 9023SOL     OW27967   0.057   3.244   0.454  0.4724 -0.2915 -0.2163
 9023SOL    HW127968   0.126   3.186   0.411  0.8511  0.0565 -0.0839
 9023SOL    HW227969   0.096   3.333   0.475 -0.3904  0.3956 -1.3809
 9024SOL     OW27970   3.691   2.726   0.672 -0.8830 -0.3898  0.6176
 9024SOL    HW127971   3.757   2.678   0.729 -0.6524 -0.4485  0.3044
 9024SOL    HW227972   3.674   2.674   0.588  0.5488  0.7921 -0.4635
 9025SOL     OW27973   6.438   6.178   2.238  0.4753  0.0201 -0.2127
 9025SOL    HW127974   6.431   6.263   2.186 -0.0138 -0.4351 -0.9128
 9025SOL    HW227975   6.511   6.186   2.306 -0.5690  1.5565  0.8053
 9026SOL     OW27976   6.850   6.617   6.498 -0.1553  0.3600 -0.0180
 9026SOL    HW127977   6.883   6.530   6.536 -2.0285  0.2730  1.5671
 9026SOL    HW227978   6.825   6.603   6.402 -1.6115 -1.2634  0.5346
 9027SOL     OW27979   1.705   5.065   3.272  0.0776 -0.0140  0.4691
 9027SOL    HW127980   1.693   4.977   3.318 -0.3783  0.7652  1.9073
 9027SOL    HW227981   1.783   5.113   3.313 -0.0999  0.5459  0.1549
 9028SOL     OW27982   2.946   5.747   6.948 -0.3391  0.6011  0.7527
 9028SOL    HW127983   2.913   5.725   6.856 -1.4707 -1.7107  1.6295
 9028SOL    HW227984   2.920   5.674   7.011  2.3527  1.0340  2.5167
 9029SOL     OW27985   3.087   6.751   5.281 -0.1330 -0.5019  0.1173
 9029SOL    HW127986   3.141   6.753   5.197 -4.7043  0.7536 -3.2440
 9029SOL    HW227987   3.022   6.675   5.277 -1.6116  0.5962  1.6945
 9030SOL     OW27988   2.177   1.574   1.340 -0.0868  0.8500  0.1829
 9030SOL    HW127989   2.105   1.583   1.408  0.3502  1.1820  0.6160
 9030SOL    HW227990   2.179   1.480   1.305  0.2931  0.4118  1.3317
 9031SOL     OW27991   5.599   5.887   4.865  0.7069  0.8704 -0.2197
 9031SOL    HW127992   5.587   5.791   4.890 -0.7170  0.5787 -1.8335
 9031SOL    HW227993   5.643   5.893   4.776  2.8655  1.8165  0.8267
 9032SOL     OW27994   5.852   1.750   0.238  0.0448 -0.1772  0.1592
 9032SOL    HW127995   5.860   1.687   0.316  0.4088 -1.0180 -0.5505
 9032SOL    HW227996   5.942   1.766   0.199  0.0468  1.2763  0.6930
 9033SOL     OW27997   6.870   5.453   1.295  0.4945 -0.6107 -0.0556
 9033SOL    HW127998   6.848   5.535   1.242  0.1169 -1.5085 -1.3169
 9033SOL    HW227999   6.786   5.413   1.331  0.2701 -2.3073 -2.2854
 9034SOL     OW28000   5.436   5.846   4.100 -0.0570 -0.5877 -0.0418
 9034SOL    HW128001   5.485   5.785   4.039 -0.1674 -0.8638  0.1439
 9034SOL    HW228002   5.410   5.929   4.051  1.5625  0.0633  0.1425
 9035SOL     OW28003   3.805   4.228   5.507 -0.4563  0.1915 -0.0462
 9035SOL    HW128004   3.882   4.169   5.483 -1.7075 -0.4433 -2.9815
 9035SOL    HW228005   3.839   4.311   5.552  1.9647  0.0029 -1.3636
 9036SOL     OW28006   1.323   4.739   5.306 -0.1648  0.3538 -0.1766
 9036SOL    HW128007   1.353   4.819   5.254  0.1565  0.5962  0.3830
 9036SOL    HW228008   1.402   4.686   5.335 -0.3843 -0.4240 -0.9231
 9037SOL     OW28009   6.152   1.716   4.275 -0.1117 -0.5752  1.0036
 9037SOL    HW128010   6.231   1.777   4.283 -0.3734 -0.2161  0.8152
 9037SOL    HW228011   6.090   1.750   4.205  0.5156 -1.9064 -0.2659
 9038SOL     OW28012   2.459   2.773   5.930  0.0516  0.2776 -0.4421
 9038SOL    HW128013   2.421   2.831   5.857  3.4054  1.1182 -1.7144
 9038SOL    HW228014   2.503   2.831   5.998  0.9715 -0.6929 -0.2040
 9039SOL     OW28015   4.494   0.094   6.055 -0.1166 -0.4666  0.4434
 9039SOL    HW128016   4.448   0.025   5.999  0.0075 -0.9788  0.9735
 9039SOL    HW228017   4.570   0.134   6.003  0.3342 -1.3202  0.4350
 9040SOL     OW28018   4.318   1.011   0.614  0.3149  0.2527 -0.0411
 9040SOL    HW128019   4.409   1.051   0.627  0.6349 -0.9749  2.0338
 9040SOL    HW228020   4.259   1.038   0.691 -1.1287  1.0765 -1.3839
 9041SOL     OW28021   5.862   2.164   5.405 -0.3796  0.1745  0.2041
 9041SOL    HW128022   5.950   2.195   5.440 -0.0340 -1.3200  0.7259
 9041SOL    HW228023   5.792   2.178   5.475 -0.6546  1.6498 -0.3218
 9042SOL     OW28024   5.659   4.076   6.915 -0.1577  0.0033 -0.0883
 9042SOL    HW128025   5.724   4.001   6.931 -1.4110 -0.9232  0.8341
 9042SOL    HW228026   5.572   4.038   6.882 -0.2527  1.2288 -1.3396
 9043SOL     OW28027   0.835   1.429   0.925 -0.3608  0.3424 -0.4135
 9043SOL    HW128028   0.745   1.403   0.958 -0.4910 -0.3190 -1.2569
 9043SOL    HW228029   0.845   1.403   0.829  0.7405  0.3580 -0.3248
 9044SOL     OW28030   0.837   1.331   6.830 -0.0459 -0.2113  0.1757
 9044SOL    HW128031   0.891   1.286   6.759  0.1129  0.4664 -0.1468
 9044SOL    HW228032   0.898   1.370   6.899 -0.1367  0.1914  0.0329
 9045SOL     OW28033   3.328   0.376   3.228 -0.3609  0.5271  0.1103
 9045SOL    HW128034   3.306   0.472   3.208  0.5584  1.0165  1.3049
 9045SOL    HW228035   3.326   0.323   3.143  0.1572  1.8218 -0.7405
 9046SOL     OW28036   3.504   4.393   1.736 -0.1950  0.2407 -0.4560
 9046SOL    HW128037   3.528   4.481   1.777 -2.5701  0.1936  1.2265
 9046SOL    HW228038   3.405   4.389   1.721 -0.1107 -2.0290 -0.7711
 9047SOL     OW28039   0.625   3.439   6.246  0.3452  0.6544  0.0131
 9047SOL    HW128040   0.530   3.414   6.263 -0.3717  1.6578 -2.0945
 9047SOL    HW228041   0.665   3.374   6.182  1.0017  0.4028  0.6705
 9048SOL     OW28042   6.991   3.186   5.183 -0.1405 -0.0846  0.7063
 9048SOL    HW128043   6.986   3.124   5.104 -1.3034  0.2377  0.5101
 9048SOL    HW228044   6.903   3.231   5.196  0.0516 -0.0771  2.1634
 9049SOL     OW28045   5.871   4.219   3.567  0.3521 -0.5438  0.2681
 9049SOL    HW128046   5.943   4.192   3.631  0.0887  0.7486  1.1551
 9049SOL    HW228047   5.904   4.292   3.507  0.8794 -2.3256 -1.7192
 9050SOL     OW28048   1.645   4.457   6.286 -0.1805 -0.7041  0.2518
 9050SOL    HW128049   1.673   4.524   6.218  1.4061 -0.3610  1.1790
 9050SOL    HW228050   1.679   4.366   6.259  0.1517 -0.6270  0.4033
 9051SOL     OW28051   0.828   2.672   2.403 -0.2131  0.0620  0.5954
 9051SOL    HW128052   0.927   2.659   2.395 -0.3829 -0.5917 -0.4355
 9051SOL    HW228053   0.808   2.713   2.493  1.0218  0.6116  0.6456
 9052SOL     OW28054   2.678   2.439   6.133  0.2852  1.0114 -0.2061
 9052SOL    HW128055   2.687   2.425   6.232 -0.2122  1.1266 -0.1426
 9052SOL    HW228056   2.728   2.367   6.085 -0.1741  0.4568  0.1285
 9053SOL     OW28057   1.510   2.681   6.767  0.5015 -0.1051  0.1482
 9053SOL    HW128058   1.504   2.709   6.671 -1.3582  2.0368  0.7926
 9053SOL    HW228059   1.512   2.581   6.772 -0.3670 -0.3113 -2.0904
 9054SOL     OW28060   0.093   4.990   4.495 -1.0313  0.3046  0.0039
 9054SOL    HW128061   0.074   4.975   4.592 -0.2128 -0.4531  0.0594
 9054SOL    HW228062   0.017   4.954   4.440 -0.4172 -1.5268  0.2753
 9055SOL     OW28063   1.287   3.600   0.474  0.1752  0.2729 -0.5525
 9055SOL    HW128064   1.327   3.670   0.415  1.3131  1.5753  1.6318
 9055SOL    HW228065   1.198   3.632   0.508  1.2901  1.3885  1.5232
 9056SOL     OW28066   6.306   0.066   5.477 -0.3489  0.1488 -0.2602
 9056SOL    HW128067   6.229   0.130   5.472 -0.1860  0.4031  0.3779
 9056SOL    HW228068   6.376   0.093   5.410 -0.1934  0.7667  0.1400
 9057SOL     OW28069   5.274   1.651   2.916  0.5018 -0.2171  0.1026
 9057SOL    HW128070   5.324   1.565   2.903 -1.4035 -1.3705 -0.1131
 9057SOL    HW228071   5.241   1.684   2.828 -3.5577 -2.4257  0.5073
 9058SOL     OW28072   2.745   6.220   6.212  0.1196 -0.0872  0.1860
 9058SOL    HW128073   2.777   6.310   6.243  2.0941 -1.2038  1.6136
 9058SOL    HW228074   2.646   6.217   6.216  0.0552  1.7043  1.0291
 9059SOL     OW28075   2.009   2.872   4.222 -0.0008  0.1070 -0.0703
 9059SOL    HW128076   1.939   2.940   4.201 -0.2934  0.0653  0.7405
 9059SOL    HW228077   1.991   2.788   4.171 -1.2395 -0.3198  1.0125
 9060SOL     OW28078   6.835   2.517   5.950  0.1331  0.1513 -0.6041
 9060SOL    HW128079   6.808   2.606   5.988  1.1967  0.0712  0.3916
 9060SOL    HW228080   6.782   2.444   5.993  0.7714  0.1303  0.1637
 9061SOL     OW28081   1.519   6.897   3.389  0.2506 -0.6219  0.3601
 9061SOL    HW128082   1.555   6.987   3.415  1.4176 -0.8038 -0.5206
 9061SOL    HW228083   1.503   6.843   3.472 -0.0480  0.2400  0.8796
 9062SOL     OW28084   6.656   6.997   0.585  0.5724  0.2175 -0.7871
 9062SOL    HW128085   6.680   6.946   0.667  1.4152  0.8664 -0.6202
 9062SOL    HW228086   6.610   6.937   0.520  0.6005 -0.4863 -0.1579
 9063SOL     OW28087   2.728   2.124   1.863  0.5782  0.5139 -0.1287
 9063SOL    HW128088   2.758   2.207   1.908  0.4779  1.0101 -0.9447
 9063SOL    HW228089   2.744   2.131   1.764  1.8906 -1.0127 -0.0690
 9064SOL     OW28090   3.782   5.258   0.078 -0.2735  0.2497 -0.0691
 9064SOL    HW128091   3.871   5.286   0.043 -0.0886  0.0388  0.2313
 9064SOL    HW228092   3.765   5.301   0.167 -0.1851 -0.2260  0.1815
 9065SOL     OW28093   4.204   1.413   1.792 -0.0349 -0.3741 -0.0756
 9065SOL    HW128094   4.145   1.338   1.821  0.0224 -1.1003 -1.7362
 9065SOL    HW228095   4.264   1.440   1.868  1.1943 -3.2192  0.0877
 9066SOL     OW28096   5.535   6.596   0.322 -0.1713  0.0472  0.6494
 9066SOL    HW128097   5.469   6.520   0.324  0.1896 -0.2899 -0.1014
 9066SOL    HW228098   5.507   6.662   0.252  1.3592 -1.1020 -1.1355
 9067SOL     OW28099   6.488   1.718   2.603  0.0386 -0.6942  0.1699
 9067SOL    HW128100   6.527   1.765   2.682  2.4970 -0.8554 -0.8432
 9067SOL    HW228101   6.519   1.623   2.604 -3.1889 -1.8524  1.0877
 9068SOL     OW28102   6.567   6.387   5.098  0.5445  0.0886 -0.2950
 9068SOL    HW128103   6.500   6.342   5.039 -0.5680  1.4853 -0.1480
 9068SOL    HW228104   6.546   6.485   5.105  0.7279  0.0184  2.2688
 9069SOL     OW28105   3.686   2.340   0.703  0.3255 -0.1128  0.5133
 9069SOL    HW128106   3.761   2.399   0.732  1.6969 -1.3510 -0.3881
 9069SOL    HW228107   3.692   2.324   0.605 -0.7418 -0.7508  0.5338
 9070SOL     OW28108   1.484   5.745   4.541 -0.0913  0.3598 -0.6922
 9070SOL    HW128109   1.482   5.719   4.445 -1.8602 -1.6522 -0.1996
 9070SOL    HW228110   1.428   5.826   4.556 -0.7894 -0.0101 -1.2218
 9071SOL     OW28111   5.011   0.255   5.546 -0.2697  0.0128  0.2661
 9071SOL    HW128112   5.016   0.277   5.644 -1.7230 -0.0172  0.3801
 9071SOL    HW228113   4.915   0.240   5.521  0.0555  0.3014 -1.2360
 9072SOL     OW28114   6.379   5.130   1.208  0.3386  0.5008 -0.5334
 9072SOL    HW128115   6.280   5.143   1.212  0.2649 -0.1847  0.1265
 9072SOL    HW228116   6.410   5.090   1.294  0.8353 -1.5531 -1.6025
 9073SOL     OW28117   0.063   5.690   1.334  0.4260  0.6280 -0.3301
 9073SOL    HW128118   0.002   5.721   1.261  2.1781 -0.5550 -2.4395
 9073SOL    HW228119   0.031   5.602   1.368  1.4294 -0.5361 -2.2080
 9074SOL     OW28120   0.604   0.400   0.067  0.7097  0.0432  0.0493
 9074SOL    HW128121   0.600   0.487   0.116  1.8222  0.1479 -0.0147
 9074SOL    HW228122   0.522   0.346   0.087 -0.3632  1.4179 -0.5166
 9075SOL     OW28123   0.922   2.268   1.170  0.3898 -0.4353  0.1205
 9075SOL    HW128124   0.941   2.350   1.225 -0.4090  0.1985 -0.5171
 9075SOL    HW228125   0.927   2.187   1.228  0.3097  0.1542  0.9674
 9076SOL     OW28126   0.017   2.742   5.775  0.0171  0.0558  0.1104
 9076SOL    HW128127  -0.043   2.700   5.706 -1.0470 -0.2171  1.1670
 9076SOL    HW228128  -0.011   2.711   5.866  1.1243  0.7469  0.6973
 9077SOL     OW28129   5.724   4.746   3.082  0.2951  0.3648 -0.5109
 9077SOL    HW128130   5.653   4.792   3.029  0.5802  2.8202  1.0682
 9077SOL    HW228131   5.806   4.735   3.025 -0.4041  0.1058 -1.4873
 9078SOL     OW28132   6.117   2.242   4.062 -0.7655 -0.5530 -0.4007
 9078SOL    HW128133   6.050   2.221   4.133 -1.4292 -0.8543 -1.1065
 9078SOL    HW228134   6.153   2.334   4.077 -0.4329 -0.8459  0.6822
 9079SOL     OW28135   6.164   0.078   6.015  0.0641  0.4544 -0.5818
 9079SOL    HW128136   6.182   0.008   5.947 -0.8294 -0.4999  0.1312
 9079SOL    HW228137   6.235   0.076   6.085  1.1252  1.6041 -1.5585
 9080SOL     OW28138   4.337   1.789   6.609  0.1216  0.8866 -0.2615
 9080SOL    HW128139   4.335   1.799   6.708  1.3056 -0.9188 -0.0175
 9080SOL    HW228140   4.263   1.729   6.580 -0.6182  1.9194 -0.5675
 9081SOL     OW28141   6.032   5.078   3.384  0.8968 -0.0657  0.3998
 9081SOL    HW128142   6.003   5.001   3.326  0.2405  0.5330 -0.0774
 9081SOL    HW228143   5.984   5.161   3.356 -0.1235  0.0677  2.3972
 9082SOL     OW28144   1.821   5.541   0.495  0.5679  0.0156 -0.3267
 9082SOL    HW128145   1.813   5.624   0.439 -0.5191 -0.7788 -1.4139
 9082SOL    HW228146   1.748   5.540   0.563  1.6311  0.7680  0.8824
 9083SOL     OW28147   3.896   4.913   3.101  0.2227  0.1248  0.2232
 9083SOL    HW128148   3.961   4.848   3.140 -1.3258 -1.4948  0.2148
 9083SOL    HW228149   3.832   4.943   3.172 -0.5235 -0.2176 -0.2883
 9084SOL     OW28150   3.684   3.148   2.994 -0.5444 -0.0592  0.0395
 9084SOL    HW128151   3.706   3.235   3.037  1.5645  0.2839 -1.5323
 9084SOL    HW228152   3.607   3.159   2.932  0.1731  0.9291 -0.7110
 9085SOL     OW28153   2.889   2.855   0.304 -0.3098 -0.5353 -0.2471
 9085SOL    HW128154   2.861   2.948   0.326 -1.1491 -0.4116 -1.6645
 9085SOL    HW228155   2.814   2.808   0.256  0.1912 -1.8603  0.2139
 9086SOL     OW28156   0.992   3.331   1.278 -0.2679  0.6857  0.1881
 9086SOL    HW128157   0.903   3.355   1.318 -0.7208  0.2687 -0.5376
 9086SOL    HW228158   0.982   3.318   1.180  0.4429 -0.0870  0.2005
 9087SOL     OW28159   0.265   4.321   6.519  0.0773 -0.3250  0.1832
 9087SOL    HW128160   0.255   4.420   6.526 -3.2558 -0.6602  1.8746
 9087SOL    HW228161   0.336   4.290   6.583 -1.2274  0.7120  2.2148
 9088SOL     OW28162   6.582   5.389   3.904 -0.8139 -0.5459  0.9250
 9088SOL    HW128163   6.549   5.304   3.861  1.1038 -0.4698 -0.8544
 9088SOL    HW228164   6.559   5.466   3.844  0.3725 -0.2180  0.8835
 9089SOL     OW28165   3.971   0.048   5.315  0.1816 -0.0741  0.0923
 9089SOL    HW128166   4.009   0.031   5.224  0.1322 -1.5504  0.3197
 9089SOL    HW228167   4.025   0.118   5.361 -0.0167  0.9773 -1.1973
 9090SOL     OW28168   5.268   2.222   3.337 -0.1593 -0.5701 -0.0658
 9090SOL    HW128169   5.364   2.197   3.349 -0.0069 -0.1218 -0.3244
 9090SOL    HW228170   5.253   2.314   3.371  0.1069  0.4104 -2.3787
 9091SOL     OW28171   4.683   3.893   5.949  0.1714 -0.1644 -0.8144
 9091SOL    HW128172   4.644   3.819   6.003 -0.3565  0.1627 -0.7460
 9091SOL    HW228173   4.780   3.904   5.973  0.0057 -0.1891 -0.1225
 9092SOL     OW28174   5.983   4.431   4.276  0.2300  0.2869  0.1935
 9092SOL    HW128175   5.886   4.407   4.279  0.0134  1.2143  1.0724
 9092SOL    HW228176   6.004   4.492   4.352  1.5749 -0.1524  0.1944
 9093SOL     OW28177   2.436   5.285   4.509  0.5798  0.3947  0.7413
 9093SOL    HW128178   2.503   5.322   4.573 -1.0942  1.4987  1.9389
 9093SOL    HW228179   2.344   5.310   4.538 -0.3924 -1.0431 -0.8592
 9094SOL     OW28180   2.062   2.981   0.106 -0.8532  0.1786 -0.1748
 9094SOL    HW128181   2.052   2.885   0.079 -0.7257  0.1787 -0.2253
 9094SOL    HW228182   2.098   2.986   0.199 -1.6452  0.1787  0.1336
 9095SOL     OW28183   0.651   0.159   5.952  0.0515  0.3624  0.6198
 9095SOL    HW128184   0.741   0.184   5.915 -0.1117  1.7592  1.1352
 9095SOL    HW228185   0.622   0.073   5.910  0.9445  0.6662 -0.7065
 9096SOL     OW28186   0.653   5.525   2.480 -0.7460 -0.0716  0.0299
 9096SOL    HW128187   0.657   5.437   2.527  1.5540 -0.0531  0.0129
 9096SOL    HW228188   0.683   5.597   2.543  2.3257 -0.0411 -1.2820
 9097SOL     OW28189   1.017   4.582   1.248 -0.4984 -0.1709 -0.7085
 9097SOL    HW128190   1.021   4.578   1.348  2.0389 -0.8354 -0.7836
 9097SOL    HW228191   0.947   4.648   1.220 -0.6372  0.6881  1.5137
 9098SOL     OW28192   1.530   6.341   6.358  0.3008 -0.2071 -1.0147
 9098SOL    HW128193   1.552   6.319   6.453  0.2832 -1.7651 -1.3438
 9098SOL    HW228194   1.553   6.436   6.339 -0.4237  0.3522  0.7528
 9099SOL     OW28195   0.634   1.470   6.267  0.2739  0.1204  0.3310
 9099SOL    HW128196   0.709   1.506   6.321  0.5559  1.4945 -0.9175
 9099SOL    HW228197   0.568   1.542   6.247 -0.3210 -0.5745 -0.3235
 9100SOL     OW28198   2.536   4.535   4.671 -0.4219  0.1764 -0.2792
 9100SOL    HW128199   2.546   4.512   4.768  0.1929 -0.3675 -0.4615
 9100SOL    HW228200   2.621   4.513   4.623  0.0224  2.3563 -0.5787
 9101SOL     OW28201   6.367   2.500   0.590  0.5021  0.0513  0.1795
 9101SOL    HW128202   6.456   2.471   0.625  0.9640 -0.3680 -1.2820
 9101SOL    HW228203   6.327   2.567   0.653  1.7381  0.0818  0.9722
 9102SOL     OW28204   3.139   1.216   4.069  0.5819 -0.0309  0.8942
 9102SOL    HW128205   3.103   1.122   4.069 -0.1191  0.2291  0.7438
 9102SOL    HW228206   3.135   1.252   4.162 -0.2577  0.2501  0.7618
 9103SOL     OW28207   5.252   1.846   3.627  0.4679  1.0025  0.0365
 9103SOL    HW128208   5.292   1.813   3.542 -1.8967 -1.5905 -0.2357
 9103SOL    HW228209   5.230   1.943   3.618  0.3040  0.8107 -2.3360
 9104SOL     OW28210   5.750   3.486   0.145 -0.0975 -0.3977  0.2641
 9104SOL    HW128211   5.729   3.576   0.185  0.0391 -0.1762 -0.1534
 9104SOL    HW228212   5.812   3.499   0.068 -1.9675 -0.6076 -1.3485
 9105SOL     OW28213   1.957   1.652   1.491 -0.2868 -0.0258 -0.1558
 9105SOL    HW128214   1.932   1.558   1.470 -2.1478  0.0175  1.5641
 9105SOL    HW228215   1.876   1.711   1.481  0.8132  1.4125 -1.1055
 9106SOL     OW28216   4.081   2.755   6.366 -0.2221  0.1577 -0.6617
 9106SOL    HW128217   4.058   2.691   6.439  1.5951  0.7735  0.5109
 9106SOL    HW228218   4.040   2.844   6.384  0.8818  0.5397  0.0880
 9107SOL     OW28219   4.971   6.623   1.737  0.4781  0.4562  0.2912
 9107SOL    HW128220   4.894   6.564   1.712 -0.1064  1.4141 -0.2256
 9107SOL    HW228221   4.998   6.677   1.657  2.0786 -0.2735  0.3001
 9108SOL     OW28222   5.520   6.904   5.071 -0.4157  0.1199  0.1520
 9108SOL    HW128223   5.602   6.945   5.112 -1.4629  1.3745  1.1056
 9108SOL    HW228224   5.469   6.856   5.142  0.3710 -2.2558 -0.7972
 9109SOL     OW28225   5.746   2.329   2.518 -0.4840  0.0595 -0.2685
 9109SOL    HW128226   5.752   2.423   2.484  1.9882  0.3345  0.7202
 9109SOL    HW228227   5.813   2.272   2.470 -0.2129 -0.5982  0.8467
 9110SOL     OW28228   5.829   0.230   3.669 -0.2265 -0.1884 -0.4313
 9110SOL    HW128229   5.834   0.236   3.768 -3.2373  1.1205 -0.2528
 9110SOL    HW228230   5.864   0.316   3.629 -0.1974 -0.2070 -0.4463
 9111SOL     OW28231   4.162   4.628   6.707 -0.5414  0.2696 -0.3256
 9111SOL    HW128232   4.072   4.623   6.663 -0.4024 -0.4297 -0.5426
 9111SOL    HW228233   4.220   4.555   6.672 -0.4504 -0.3492  1.0514
 9112SOL     OW28234   6.602   3.495   0.396 -0.7439  0.1595 -1.1814
 9112SOL    HW128235   6.650   3.580   0.418 -0.5903  0.2082 -1.6931
 9112SOL    HW228236   6.551   3.507   0.311 -0.8701 -0.2046 -1.1575
 9113SOL     OW28237   5.699   5.996   6.056 -0.4443  0.2374  0.4130
 9113SOL    HW128238   5.612   6.018   6.011 -0.8554 -0.3858  0.8892
 9113SOL    HW228239   5.694   6.023   6.153  0.8104  2.5731 -0.0869
 9114SOL     OW28240   5.810   2.245   5.906  0.1464  0.7387 -0.3683
 9114SOL    HW128241   5.811   2.150   5.936 -0.0620  0.4396 -1.2591
 9114SOL    HW228242   5.828   2.306   5.983 -2.5414  0.1601  0.8435
 9115SOL     OW28243   5.996   2.857   3.537 -0.0044  0.2541 -0.4024
 9115SOL    HW128244   6.083   2.834   3.582  0.1933  0.0766 -0.8767
 9115SOL    HW228245   5.951   2.773   3.508  0.7723  0.4345 -2.2399
 9116SOL     OW28246   0.335   6.078   0.801 -0.1717  0.3451  0.3392
 9116SOL    HW128247   0.390   6.098   0.881  0.5934  1.1196 -0.3652
 9116SOL    HW228248   0.253   6.028   0.829 -0.2386  1.1524  1.6678
 9117SOL     OW28249   2.106   0.040   6.241  0.3696  0.1840 -0.8186
 9117SOL    HW128250   2.158   0.101   6.301 -0.2164 -0.6379  0.5736
 9117SOL    HW228251   2.083   0.089   6.156  2.6154  0.8345 -1.1043
 9118SOL     OW28252   0.947   4.659   0.310 -0.5583 -0.6761  0.1721
 9118SOL    HW128253   1.032   4.639   0.260 -0.5625 -0.6543  0.1562
 9118SOL    HW228254   0.961   4.640   0.407 -0.8807 -1.7485  0.0236
 9119SOL     OW28255   3.482   1.562   0.325  0.2629 -0.4595 -0.2774
 9119SOL    HW128256   3.502   1.510   0.408  0.2227 -0.4839 -0.2830
 9119SOL    HW228257   3.505   1.506   0.245 -1.3958 -1.1349 -0.3130
 9120SOL     OW28258   0.898   5.692   4.650  0.0115  0.3499  0.3709
 9120SOL    HW128259   0.993   5.687   4.618 -0.5565 -1.1019 -1.1901
 9120SOL    HW228260   0.857   5.601   4.646 -2.3770  1.4249 -1.9403
 9121SOL     OW28261   3.506   2.289   5.899  0.3615 -0.7441  0.0173
 9121SOL    HW128262   3.409   2.266   5.901  0.4509 -1.2338 -0.7678
 9121SOL    HW228263   3.523   2.359   5.830  0.3948  0.2501  1.0056
 9122SOL     OW28264   0.277   1.174   0.427 -0.6450 -0.0633 -0.1697
 9122SOL    HW128265   0.237   1.169   0.335 -0.9314  1.4319 -0.1427
 9122SOL    HW228266   0.274   1.083   0.468 -0.8994 -0.6775 -1.4725
 9123SOL     OW28267   1.443   0.664   6.105  0.1039 -0.0834  0.2532
 9123SOL    HW128268   1.391   0.724   6.167  1.4611  0.4539  0.9224
 9123SOL    HW228269   1.514   0.718   6.060  0.7019 -0.9862  0.1005
 9124SOL     OW28270   0.856   4.786   0.766 -0.0496  0.0952  0.1131
 9124SOL    HW128271   0.797   4.849   0.817  0.7326  2.2166 -1.4321
 9124SOL    HW228272   0.799   4.722   0.714 -1.0283  1.5762 -0.7157
 9125SOL     OW28273   3.422   5.122   1.859  0.4732 -0.0259  0.0470
 9125SOL    HW128274   3.426   5.047   1.793  0.5805  0.8946 -1.0303
 9125SOL    HW228275   3.515   5.148   1.885  0.4271 -0.4850  0.6921
 9126SOL     OW28276   2.627   5.920   6.054 -0.6873  0.4129  0.7495
 9126SOL    HW128277   2.691   5.946   6.126 -0.3315 -1.0230  0.9988
 9126SOL    HW228278   2.534   5.927   6.089 -0.6375  1.7269  0.6530
 9127SOL     OW28279   6.239   3.147   0.108 -0.5498  0.1352  0.1414
 9127SOL    HW128280   6.214   3.244   0.103 -2.7832 -0.2910  1.5079
 9127SOL    HW228281   6.279   3.128   0.197 -3.0481 -0.6996  1.1901
 9128SOL     OW28282   5.094   3.810   1.230  0.0067  0.1111 -0.0257
 9128SOL    HW128283   5.118   3.892   1.281  0.9980 -0.4139  0.3978
 9128SOL    HW228284   5.023   3.760   1.279  0.4346 -0.0147  0.4824
 9129SOL     OW28285   0.580   0.263   0.618 -0.4913 -0.3743 -0.0349
 9129SOL    HW128286   0.646   0.319   0.668  0.0990  0.0496 -1.2508
 9129SOL    HW228287   0.590   0.279   0.520 -2.8237  0.1980 -0.2521
 9130SOL     OW28288   3.092   2.949   5.151  0.1633  0.5413  0.1670
 9130SOL    HW128289   3.192   2.950   5.159  0.6661 -2.2904 -3.2603
 9130SOL    HW228290   3.054   2.882   5.214  0.6623  0.0555 -0.0413
 9131SOL     OW28291   6.848   4.642   6.936 -0.5254  0.1168  0.4281
 9131SOL    HW128292   6.794   4.723   6.961  1.5135  0.8861  2.6832
 9131SOL    HW228293   6.851   4.579   7.013 -0.5693 -1.3094 -0.6826
 9132SOL     OW28294   0.835   4.328   3.648  0.2069 -0.6689 -0.5270
 9132SOL    HW128295   0.786   4.276   3.580  1.1038 -1.8357 -0.3159
 9132SOL    HW228296   0.779   4.404   3.680 -2.1292 -2.8271  0.8612
 9133SOL     OW28297   5.179   6.554   1.076 -0.1990  0.1740  0.0551
 9133SOL    HW128298   5.188   6.456   1.054 -0.5404  0.3899 -1.1193
 9133SOL    HW228299   5.270   6.592   1.092  0.0908  0.0176 -1.1328
 9134SOL     OW28300   4.736   5.533   6.598 -0.5620  0.3620 -0.2705
 9134SOL    HW128301   4.719   5.491   6.508  1.1588  0.3344 -0.6054
 9134SOL    HW228302   4.760   5.462   6.664  0.5155  0.6041 -0.3842
 9135SOL     OW28303   6.394   3.710   1.661 -0.6673  1.0910 -0.2972
 9135SOL    HW128304   6.475   3.726   1.604 -1.4190 -0.2781 -1.8020
 9135SOL    HW228305   6.374   3.794   1.713  0.8950  1.8969 -0.9112
 9136SOL     OW28306   6.434   5.630   1.159 -0.1248  0.6007 -0.1951
 9136SOL    HW128307   6.446   5.610   1.062 -1.5046 -2.2541  0.1254
 9136SOL    HW228308   6.336   5.625   1.182  0.3186 -0.3326  1.6337
 9137SOL     OW28309   5.451   6.483   7.003 -0.0252 -0.1678  0.0333
 9137SOL    HW128310   5.466   6.522   6.912  0.5437 -0.7907 -0.1567
 9137SOL    HW228311   5.441   6.556   7.070  0.7477  0.3059 -0.3506
 9138SOL     OW28312   0.862   4.094   0.260 -0.0628  0.3697 -0.5575
 9138SOL    HW128313   0.841   4.079   0.163  0.8381  0.4705 -0.7715
 9138SOL    HW228314   0.893   4.188   0.274 -0.2820  0.3865 -0.1447
 9139SOL     OW28315   6.703   1.413   3.969 -0.5124  0.7087  0.3420
 9139SOL    HW128316   6.764   1.457   3.902 -0.8630 -0.2509 -0.6483
 9139SOL    HW228317   6.612   1.403   3.929 -0.3725 -1.1576  0.4051
 9140SOL     OW28318   1.831   5.764   2.004  0.4422 -0.0600 -0.4868
 9140SOL    HW128319   1.807   5.694   2.071  1.1561  0.3668  0.2306
 9140SOL    HW228320   1.924   5.748   1.971 -0.2654 -0.8994 -2.2114
 9141SOL     OW28321   0.927   5.820   4.045 -0.0171  0.4270  0.1898
 9141SOL    HW128322   0.958   5.866   4.129 -0.7457  1.2593  0.0117
 9141SOL    HW228323   1.002   5.764   4.009  0.7138  1.0257  0.7258
 9142SOL     OW28324   1.796   6.781   2.189 -0.3845 -0.7554  0.4476
 9142SOL    HW128325   1.815   6.832   2.105 -1.4377 -0.8371  0.1444
 9142SOL    HW228326   1.718   6.720   2.173  0.2506 -1.7651  1.0842
 9143SOL     OW28327   6.185   4.325   3.394  0.1949 -0.2028  0.3041
 9143SOL    HW128328   6.113   4.376   3.441  1.8927  0.7656  1.9836
 9143SOL    HW228329   6.173   4.227   3.410 -1.8741 -0.2869 -1.1886
 9144SOL     OW28330   3.455   5.777   5.150 -0.0939 -0.3883  0.4561
 9144SOL    HW128331   3.546   5.766   5.190  0.5567 -0.7654 -1.0353
 9144SOL    HW228332   3.455   5.736   5.058 -1.2380  1.2077 -0.2854
 9145SOL     OW28333   1.600   0.325   0.164  0.5169 -0.2768  0.0166
 9145SOL    HW128334   1.632   0.389   0.094  2.3903 -2.4480 -1.2209
 9145SOL    HW228335   1.656   0.335   0.246  2.5471 -1.9537 -1.0694
 9146SOL     OW28336   5.972   1.731   3.712  0.5033 -0.2434 -0.1630
 9146SOL    HW128337   6.036   1.669   3.758  0.7408  0.9162  1.1300
 9146SOL    HW228338   5.925   1.787   3.780 -1.7153 -0.8672 -1.1109
 9147SOL     OW28339   4.783   6.250   5.044  0.3936 -0.1935 -0.3581
 9147SOL    HW128340   4.690   6.220   5.022  0.1367  0.5180 -0.2847
 9147SOL    HW228341   4.789   6.349   5.033  1.2765 -0.2906 -0.8068
 9148SOL     OW28342   1.800   5.806   1.431 -0.5498  0.3462  0.0087
 9148SOL    HW128343   1.858   5.852   1.499 -0.2640  0.5707 -0.3892
 9148SOL    HW228344   1.713   5.856   1.424 -0.6652  0.2026  0.3584
 9149SOL     OW28345   0.709   4.219   3.412 -0.6620 -0.2330  0.0996
 9149SOL    HW128346   0.670   4.168   3.336  0.5608 -0.2197 -0.5641
 9149SOL    HW228347   0.769   4.291   3.377  1.4456 -1.4357  1.0382
 9150SOL     OW28348   2.979   2.670   0.687 -0.1983  1.1805 -0.5803
 9150SOL    HW128349   3.051   2.601   0.695 -1.0623  0.4226  1.1524
 9150SOL    HW228350   2.995   2.742   0.755 -1.9071  0.1631  0.9906
 9151SOL     OW28351   2.275   4.916   4.211  0.3485  0.1155  0.1373
 9151SOL    HW128352   2.302   4.827   4.246  0.5343 -0.1830 -0.7308
 9151SOL    HW228353   2.341   4.985   4.241  0.9616 -0.2686 -0.3013
 9152SOL     OW28354   0.506   4.637   1.766  0.0420  0.1151  0.0748
 9152SOL    HW128355   0.460   4.600   1.847 -1.5602 -0.0694 -0.8681
 9152SOL    HW228356   0.464   4.598   1.684  2.2719 -0.4623 -0.8579
 9153SOL     OW28357   0.868   2.683   0.051  0.0250  0.0857 -0.5406
 9153SOL    HW128358   0.894   2.642   0.138 -3.6172 -0.5164  0.4238
 9153SOL    HW228359   0.870   2.612  -0.020 -1.2464 -0.5540  0.0307
 9154SOL     OW28360   3.514   4.625   1.354 -0.4036  0.1502 -0.2198
 9154SOL    HW128361   3.524   4.663   1.263  2.5500  1.0985  0.3953
 9154SOL    HW228362   3.498   4.526   1.347  3.4451 -0.5457 -1.8905
 9155SOL     OW28363   5.636   0.018   1.123 -0.3949 -0.0837 -0.3668
 9155SOL    HW128364   5.590   0.038   1.209 -0.0607 -1.2779  0.1001
 9155SOL    HW228365   5.593   0.072   1.050 -2.1866 -0.7480  0.1343
 9156SOL     OW28366   0.006   3.225   4.429  0.3381 -0.4508  0.1427
 9156SOL    HW128367   0.094   3.239   4.475 -0.4994 -1.3905  2.1429
 9156SOL    HW228368  -0.067   3.268   4.483 -0.5792 -0.6977 -0.8683
 9157SOL     OW28369   3.452   4.147   6.442 -0.5224 -0.2445 -0.2505
 9157SOL    HW128370   3.404   4.063   6.466 -0.2938 -0.7288 -1.4145
 9157SOL    HW228371   3.539   4.124   6.397 -0.1716  0.6163 -0.0383
 9158SOL     OW28372   6.776   4.018   2.439  0.3964 -0.5823  0.1162
 9158SOL    HW128373   6.689   3.972   2.422  0.5327 -0.1515 -2.0138
 9158SOL    HW228374   6.759   4.110   2.474 -0.1243  0.1792 -1.9824
 9159SOL     OW28375   0.154   6.695   3.368  0.3216  0.3087 -0.1965
 9159SOL    HW128376   0.138   6.644   3.453  1.4371 -0.2761 -0.3143
 9159SOL    HW228377   0.141   6.635   3.290  0.4184  0.5336 -0.3870
 9160SOL     OW28378   6.586   0.580   1.571  0.5566 -0.2476 -0.1868
 9160SOL    HW128379   6.638   0.558   1.489 -0.8769 -2.0368 -0.6952
 9160SOL    HW228380   6.563   0.678   1.571  0.8461 -0.1461 -1.7668
 9161SOL     OW28381   5.772   3.399   2.110 -0.3877 -0.1780 -0.2434
 9161SOL    HW128382   5.854   3.384   2.166  0.0436 -0.1450 -0.8561
 9161SOL    HW228383   5.716   3.316   2.110 -1.0835  0.2477  1.3215
 9162SOL     OW28384   5.309   4.061   2.807  0.0424 -0.0511 -0.0718
 9162SOL    HW128385   5.386   4.063   2.742 -1.6790 -3.5572 -2.4789
 9162SOL    HW228386   5.341   4.024   2.895  1.6473  1.3438 -0.0074
 9163SOL     OW28387   0.164   4.943   3.876 -0.1171 -0.0814  0.0912
 9163SOL    HW128388   0.246   4.956   3.821 -1.2074  0.8549 -1.3895
 9163SOL    HW228389   0.179   4.981   3.967  0.8952  0.6381 -0.3572
 9164SOL     OW28390   4.808   6.968   0.904 -0.3256 -0.0932 -0.7344
 9164SOL    HW128391   4.880   6.949   0.970  0.0432  0.6132 -0.9353
 9164SOL    HW228392   4.768   6.881   0.873  0.0609 -0.4610 -0.2170
 9165SOL     OW28393   0.137   0.400   0.541  0.3423  0.0334 -0.1411
 9165SOL    HW128394   0.044   0.385   0.508  0.8510 -2.2940 -0.6835
 9165SOL    HW228395   0.135   0.416   0.640 -0.6625  0.6496 -0.2481
 9166SOL     OW28396   6.045   6.544   2.090  0.4041 -0.0205 -0.6933
 9166SOL    HW128397   5.971   6.591   2.042  1.7937  0.3910 -2.4877
 9166SOL    HW228398   6.103   6.497   2.024  0.5729 -2.1242  0.8446
 9167SOL     OW28399   0.595   3.144   3.076  0.3117 -0.5579 -0.5253
 9167SOL    HW128400   0.538   3.226   3.076  2.0171  0.7619  1.9412
 9167SOL    HW228401   0.536   3.063   3.077 -1.4348  0.4372 -4.5496
 9168SOL     OW28402   5.994   5.916   3.794 -0.2922 -0.6350  0.2477
 9168SOL    HW128403   6.006   5.943   3.890 -1.0464 -1.8523  0.7117
 9168SOL    HW228404   5.919   5.968   3.754  0.4905  0.3941  0.0905
 9169SOL     OW28405   5.889   6.081   6.709  0.7530 -0.6221 -0.4851
 9169SOL    HW128406   5.835   6.121   6.784  1.7288  0.7830 -0.4833
 9169SOL    HW228407   5.979   6.055   6.744  0.5102 -1.8429 -0.7469
 9170SOL     OW28408   6.995   0.832   5.733 -0.0746  0.2509  1.1611
 9170SOL    HW128409   7.086   0.801   5.707  0.1750  0.5476  1.6711
 9170SOL    HW228410   6.931   0.811   5.659  0.1025 -1.3371  1.4104
 9171SOL     OW28411   5.085   4.911   6.759  0.6283  0.0091 -0.1769
 9171SOL    HW128412   5.151   4.836   6.755 -0.7742 -1.2405 -0.9298
 9171SOL    HW228413   5.024   4.897   6.837 -0.9777 -0.8540 -1.5272
 9172SOL     OW28414   4.088   6.389   0.331 -0.1646  0.7235 -0.1069
 9172SOL    HW128415   4.042   6.427   0.412  1.1948 -1.5870  1.8941
 9172SOL    HW228416   4.032   6.315   0.293  0.6167 -0.2947  0.6866
 9173SOL     OW28417   0.147   3.878   6.516  0.8248  0.1052  0.1445
 9173SOL    HW128418   0.063   3.904   6.564  0.0615  1.0296 -1.6091
 9173SOL    HW228419   0.163   3.781   6.530  0.0658  0.1207  1.3838
 9174SOL     OW28420   1.594   5.312   6.903  0.2499 -0.1543 -0.4815
 9174SOL    HW128421   1.606   5.398   6.854 -1.5773  0.7096  0.4788
 9174SOL    HW228422   1.639   5.318   6.992 -2.3026  1.0392  0.8507
 9175SOL     OW28423   1.039   2.105   1.464  0.0353  0.8252 -0.2459
 9175SOL    HW128424   1.084   2.021   1.494  1.9580  1.6683 -0.6519
 9175SOL    HW228425   1.001   2.092   1.372  1.2155  0.6860 -0.7267
 9176SOL     OW28426   0.360   6.988   2.352 -0.3745 -0.6742  0.0266
 9176SOL    HW128427   0.405   7.065   2.398 -1.6314  0.6746 -0.9212
 9176SOL    HW228428   0.356   6.910   2.415  0.2899  0.2411  1.2654
 9177SOL     OW28429   1.498   0.638   3.752  0.1099  0.2897  0.3945
 9177SOL    HW128430   1.410   0.617   3.794  1.0893 -0.2536  2.3058
 9177SOL    HW228431   1.549   0.553   3.737  0.4793  0.6264 -0.3071
 9178SOL     OW28432   1.683   1.582   5.791  0.1372 -1.0529 -0.2514
 9178SOL    HW128433   1.783   1.571   5.800  0.4622  1.5986  0.0756
 9178SOL    HW228434   1.651   1.648   5.859 -1.2985  0.7593 -2.5677
 9179SOL     OW28435   3.431   5.239   4.281 -0.9439  0.0350 -0.0386
 9179SOL    HW128436   3.361   5.296   4.324 -1.8159 -0.6974 -0.4322
 9179SOL    HW228437   3.432   5.149   4.325  1.9407  0.9669  2.0751
 9180SOL     OW28438   6.937   1.669   1.829  0.1714  0.3862  0.0887
 9180SOL    HW128439   6.967   1.699   1.739 -2.5041 -1.3132 -1.5321
 9180SOL    HW228440   6.935   1.747   1.892  1.3454  1.7897 -1.5325
 9181SOL     OW28441   2.923   2.257   3.066  0.4573  0.1161 -0.5340
 9181SOL    HW128442   3.000   2.245   3.129 -0.5216  0.9456  0.8807
 9181SOL    HW228443   2.928   2.347   3.024  0.1792  0.2340 -0.3178
 9182SOL     OW28444   6.891   6.658   2.026  0.3655 -0.2847 -0.4024
 9182SOL    HW128445   6.834   6.712   2.089 -1.1996 -0.8326 -1.2989
 9182SOL    HW228446   6.961   6.610   2.078  1.2077  1.8181  0.5412
 9183SOL     OW28447   4.356   2.565   5.322  0.2605 -0.1336 -0.3006
 9183SOL    HW128448   4.336   2.640   5.384  0.1003 -0.6052  0.2213
 9183SOL    HW228449   4.274   2.541   5.270 -0.1989 -1.1483  0.8458
 9184SOL     OW28450   2.512   5.483   2.612 -0.0784  0.3916  0.6246
 9184SOL    HW128451   2.422   5.519   2.635 -0.6178  0.1148 -0.9332
 9184SOL    HW228452   2.517   5.467   2.513  1.1691 -0.9730  0.8789
 9185SOL     OW28453   1.352   3.144   3.205  0.5144  0.7160 -0.6920
 9185SOL    HW128454   1.324   3.139   3.301  2.2856 -0.7108 -0.1998
 9185SOL    HW228455   1.275   3.120   3.147 -0.3090  0.6042  0.4141
 9186SOL     OW28456   5.969   4.116   4.532  0.2681  0.3981 -0.0149
 9186SOL    HW128457   5.947   4.175   4.609  1.3521  0.3302  0.3559
 9186SOL    HW228458   5.918   4.030   4.541 -2.1787  1.6220 -1.1305
 9187SOL     OW28459   3.751   1.596   0.574  0.3020 -1.0468 -0.2189
 9187SOL    HW128460   3.771   1.690   0.600  4.2227 -1.7726  0.1436
 9187SOL    HW228461   3.710   1.548   0.652  0.8026 -0.2703  0.5444
 9188SOL     OW28462   2.694   6.717   2.791 -0.0155  0.3866  0.5309
 9188SOL    HW128463   2.658   6.759   2.874  1.4731 -0.4641  1.6689
 9188SOL    HW228464   2.783   6.675   2.811 -0.2579 -1.0518 -1.1625
 9189SOL     OW28465   3.602   6.450   6.883 -0.3067  0.2488 -0.2046
 9189SOL    HW128466   3.684   6.491   6.844 -0.5272 -1.0444 -2.1895
 9189SOL    HW228467   3.622   6.417   6.975  0.9229  1.3849 -0.0346
 9190SOL     OW28468   3.161   6.855   1.657 -0.3311 -0.4919  0.0425
 9190SOL    HW128469   3.112   6.813   1.733 -0.7756 -1.9573 -1.0207
 9190SOL    HW228470   3.161   6.793   1.578 -0.4009  1.2115 -1.3645
 9191SOL     OW28471   6.942   1.135   1.048  0.1956  0.0208  0.0642
 9191SOL    HW128472   6.941   1.219   0.992  1.4177 -0.4970 -0.7705
 9191SOL    HW228473   7.017   1.140   1.114 -0.7719  0.2928  1.1624
 9192SOL     OW28474   4.159   5.202   2.796  0.5468  0.3073  0.1622
 9192SOL    HW128475   4.170   5.300   2.776  1.2104 -0.0888 -1.5562
 9192SOL    HW228476   4.171   5.149   2.712 -3.6724 -1.0237  0.1531
 9193SOL     OW28477   4.397   4.215   1.162 -0.4370  0.0111 -0.1670
 9193SOL    HW128478   4.337   4.274   1.215  0.7732  2.0123 -0.9209
 9193SOL    HW228479   4.345   4.137   1.128 -1.4100 -1.1100  3.3835
 9194SOL     OW28480   1.193   5.285   3.378  0.6142  0.0601  0.0277
 9194SOL    HW128481   1.278   5.315   3.422  0.1500  1.7819 -0.1984
 9194SOL    HW228482   1.178   5.338   3.295 -0.2981 -0.7879 -0.3712
 9195SOL     OW28483   0.195   4.647   4.265  0.5117  0.2909  0.2570
 9195SOL    HW128484   0.127   4.676   4.333  0.4771  1.4003 -0.2299
 9195SOL    HW228485   0.186   4.549   4.248 -0.0950  0.1819  1.1623
 9196SOL     OW28486   5.019   5.373   3.437 -0.7435 -0.4253  0.1568
 9196SOL    HW128487   5.119   5.375   3.431 -0.7016  2.6071 -0.0900
 9196SOL    HW228488   4.981   5.363   3.346 -0.6656 -0.9297  0.1773
 9197SOL     OW28489   5.265   3.433   5.975 -0.2258  0.3809  0.2441
 9197SOL    HW128490   5.237   3.392   5.889 -1.5231  0.7775  0.4583
 9197SOL    HW228491   5.336   3.377   6.017 -1.9203 -1.6767  0.5337
 9198SOL     OW28492   0.801   3.823   4.543  0.4496  0.2525  0.2405
 9198SOL    HW128493   0.709   3.859   4.558 -0.1644 -1.1686  0.0373
 9198SOL    HW228494   0.855   3.831   4.627 -0.1142  0.3783  0.5885
 9199SOL     OW28495   0.416   2.999   1.155 -0.4758  0.2837 -0.0780
 9199SOL    HW128496   0.417   2.998   1.055 -0.8614  1.2185 -0.1052
 9199SOL    HW228497   0.503   3.037   1.189  1.7454 -4.3243  0.1189
 9200SOL     OW28498   4.730   4.993   3.131  0.0892  0.0095  0.5213
 9200SOL    HW128499   4.793   4.967   3.058  0.0849  0.5995  0.3024
 9200SOL    HW228500   4.739   5.091   3.150 -1.4468  0.3218 -0.2125
 9201SOL     OW28501   1.894   3.810   3.412 -0.4572 -0.1264  0.0795
 9201SOL    HW128502   1.880   3.856   3.324  2.5062  2.0487  0.6179
 9201SOL    HW228503   1.972   3.748   3.404 -0.1187  0.1499  1.2086
 9202SOL     OW28504   1.786   5.558   2.171 -0.3454 -0.2448 -0.1618
 9202SOL    HW128505   1.877   5.546   2.129 -0.5519  0.9116 -0.9836
 9202SOL    HW228506   1.793   5.548   2.270  0.8500  0.7485 -0.1297
 9203SOL     OW28507   5.035   0.543   6.833  0.2034  0.5051  0.2456
 9203SOL    HW128508   5.016   0.635   6.868  1.3314  0.5418  0.8162
 9203SOL    HW228509   5.103   0.498   6.892 -0.2834 -0.6714 -0.0629
 9204SOL     OW28510   5.157   5.976   6.772 -0.0850  0.0447  0.0622
 9204SOL    HW128511   5.137   6.059   6.720 -0.2745 -1.6654 -2.8519
 9204SOL    HW228512   5.071   5.931   6.797  0.0280  0.0003  0.3772
 9205SOL     OW28513   4.288   2.950   6.329  0.3850 -0.2330  0.0716
 9205SOL    HW128514   4.290   2.971   6.426  0.9063 -0.7008  0.1631
 9205SOL    HW228515   4.224   2.875   6.312  0.1773 -0.0480  0.0314
 9206SOL     OW28516   6.806   0.876   5.939  0.0415  0.8013  0.3196
 9206SOL    HW128517   6.874   0.876   5.866 -0.1798  1.7875  0.0930
 9206SOL    HW228518   6.850   0.904   6.025  0.0431  0.8837  0.2926
 9207SOL     OW28519   6.212   5.315   6.582  0.3111  0.0903  0.1839
 9207SOL    HW128520   6.158   5.393   6.549 -1.2861 -0.9966  0.1254
 9207SOL    HW228521   6.151   5.239   6.604  1.5665 -0.2891  2.7789
 9208SOL     OW28522   0.178   2.678   0.859  0.3418  0.1177 -0.5867
 9208SOL    HW128523   0.081   2.657   0.871  0.4453  0.4934  1.1049
 9208SOL    HW228524   0.205   2.656   0.765 -0.7631 -2.3729 -0.4069
 9209SOL     OW28525   6.458   5.599   3.801  0.6715  0.4548  0.3137
 9209SOL    HW128526   6.422   5.571   3.712 -0.5998  1.2510  0.5528
 9209SOL    HW228527   6.446   5.697   3.813 -0.5169  0.1544  1.9290
 9210SOL     OW28528   1.652   6.100   0.149  0.5110 -0.4135 -0.1341
 9210SOL    HW128529   1.572   6.159   0.138  1.3029  0.4292 -1.6282
 9210SOL    HW228530   1.667   6.047   0.066  2.9942  1.3788 -0.9354
 9211SOL     OW28531   4.641   1.385   6.648  0.4033 -0.6690 -0.5763
 9211SOL    HW128532   4.614   1.307   6.592  0.4592 -1.5964  0.6526
 9211SOL    HW228533   4.575   1.398   6.722  1.6637 -1.1162  0.6915
 9212SOL     OW28534   5.509   4.954   0.198  0.0852 -0.0162 -0.0408
 9212SOL    HW128535   5.584   4.995   0.146  1.1393 -1.5185  0.2548
 9212SOL    HW228536   5.541   4.929   0.289 -1.1782  0.6083  0.6035
 9213SOL     OW28537   0.131   0.126   5.344  0.3420  0.0209  0.2443
 9213SOL    HW128538   0.071   0.205   5.357  0.5304 -0.0659  1.8071
 9213SOL    HW228539   0.120   0.091   5.251 -2.6022 -0.4668  0.7094
 9214SOL     OW28540   3.229   1.216   6.451 -0.4516  0.0293  0.0424
 9214SOL    HW128541   3.292   1.218   6.529  0.3210 -1.7123 -0.4811
 9214SOL    HW228542   3.275   1.252   6.370 -1.3353  2.0736  0.3862
 9215SOL     OW28543   6.276   4.369   3.138 -0.1132  0.6974  0.4687
 9215SOL    HW128544   6.323   4.284   3.113  0.2776  0.4517  1.9320
 9215SOL    HW228545   6.250   4.365   3.235 -3.2216  0.7993 -0.2493
 9216SOL     OW28546   1.719   5.594   1.602 -0.5171  0.0935 -0.1837
 9216SOL    HW128547   1.721   5.624   1.698 -1.5872 -0.7382  0.1253
 9216SOL    HW228548   1.797   5.633   1.553  1.2034 -1.0378  1.4941
 9217SOL     OW28549   5.145   2.074   6.118 -0.1093  0.1631  0.3058
 9217SOL    HW128550   5.112   2.112   6.204 -0.8219  0.6443 -0.1611
 9217SOL    HW228551   5.214   2.005   6.136  0.5450  1.0239  1.2240
 9218SOL     OW28552   6.072   3.962   4.793 -0.3241  0.4432 -0.2255
 9218SOL    HW128553   6.116   3.907   4.722 -0.1847  1.2635 -0.8006
 9218SOL    HW228554   6.014   3.904   4.850  0.4409 -0.4224 -0.3062
 9219SOL     OW28555   3.182   2.778   6.660 -0.2771 -0.0421  0.5778
 9219SOL    HW128556   3.232   2.691   6.658 -1.4812 -0.7489  0.2923
 9219SOL    HW228557   3.186   2.816   6.752  0.2969 -0.3787  0.6984
 9220SOL     OW28558   6.634   0.399   4.462  0.0764 -0.3948  0.3125
 9220SOL    HW128559   6.637   0.371   4.558 -0.6624 -0.2225  0.3937
 9220SOL    HW228560   6.595   0.491   4.455 -2.0656 -1.2839 -0.2981
 9221SOL     OW28561   3.397   1.074   3.981  0.1934 -0.1490  0.0170
 9221SOL    HW128562   3.376   1.075   3.883 -0.7195 -1.2916  0.1816
 9221SOL    HW228563   3.330   1.130   4.030  0.0893 -0.3427  0.0941
 9222SOL     OW28564   1.627   6.549   2.024  0.0876  0.0663 -0.2384
 9222SOL    HW128565   1.642   6.482   2.096  0.9645 -0.3833 -0.8244
 9222SOL    HW228566   1.702   6.545   1.958 -1.4038 -0.5552 -1.9706
 9223SOL     OW28567   6.864   3.282   0.175 -0.2359 -0.1713 -0.6288
 9223SOL    HW128568   6.894   3.365   0.221 -0.4655 -0.6442  0.4065
 9223SOL    HW228569   6.904   3.202   0.220  0.8788 -0.6075 -2.2897
 9224SOL     OW28570   2.242   6.010   2.931  0.0332 -0.5887  0.0137
 9224SOL    HW128571   2.289   6.015   2.843  0.2403  0.4965  0.1667
 9224SOL    HW228572   2.279   6.080   2.992 -2.1797  0.7978 -0.0894
 9225SOL     OW28573   6.926   6.944   5.928 -0.0969 -0.2341 -0.1738
 9225SOL    HW128574   7.010   6.915   5.974  0.5022  2.0053  0.2616
 9225SOL    HW228575   6.949   7.005   5.852 -1.2591 -1.3401 -1.4777
 9226SOL     OW28576   0.571   5.595   3.407  0.3458 -0.1012  0.8777
 9226SOL    HW128577   0.479   5.603   3.445 -1.0420 -5.5501 -0.5230
 9226SOL    HW228578   0.633   5.559   3.476  0.6316  0.4552  0.9176
 9227SOL     OW28579   2.557   1.928   1.427 -0.3265 -0.0837 -0.3466
 9227SOL    HW128580   2.460   1.904   1.419 -0.1570 -0.9514  0.0819
 9227SOL    HW228581   2.604   1.859   1.482 -0.0059  1.7590  1.8471
 9228SOL     OW28582   3.599   3.964   4.623 -0.1016  0.0538  0.0589
 9228SOL    HW128583   3.698   3.966   4.639  0.1687  1.1061 -1.5331
 9228SOL    HW228584   3.560   4.053   4.647 -0.2594  0.4422 -1.5371
 9229SOL     OW28585   5.948   4.805   0.895 -0.0073  0.0693 -0.1911
 9229SOL    HW128586   5.881   4.807   0.969 -0.0648 -0.5100 -0.2198
 9229SOL    HW228587   5.902   4.778   0.810  0.4302 -1.3683 -0.0039
 9230SOL     OW28588   4.768   5.779   4.589  0.0387  0.5867  0.1709
 9230SOL    HW128589   4.851   5.819   4.629 -0.3632  1.2567  0.3466
 9230SOL    HW228590   4.744   5.696   4.639  0.3675  0.6226  0.3930
 9231SOL     OW28591   5.514   4.800   1.113  0.4830 -0.2455  0.2939
 9231SOL    HW128592   5.542   4.826   1.205 -1.3464  0.6547  0.6494
 9231SOL    HW228593   5.419   4.769   1.114  0.2771  0.2069 -1.3504
 9232SOL     OW28594   2.648   5.829   1.608  0.3135  0.9103 -0.1962
 9232SOL    HW128595   2.591   5.749   1.624  1.3310  0.3306  0.7434
 9232SOL    HW228596   2.637   5.861   1.514 -1.6854  0.9542  0.0230
 9233SOL     OW28597   1.183   2.088   5.838 -0.7534  0.8848 -0.5519
 9233SOL    HW128598   1.200   2.073   5.935  1.5308  0.2201 -0.9882
 9233SOL    HW228599   1.234   2.168   5.807 -0.6453  0.5157 -1.3722
 9234SOL     OW28600   3.692   3.828   0.393 -0.3737  0.0009 -0.4604
 9234SOL    HW128601   3.689   3.915   0.343 -1.9986 -0.5310 -1.3486
 9234SOL    HW228602   3.599   3.795   0.408  0.2333 -1.8310 -0.5581
 9235SOL     OW28603   0.659   1.276   3.663 -0.1440  0.4617  0.2980
 9235SOL    HW128604   0.711   1.211   3.607  1.9855 -0.8305  3.5028
 9235SOL    HW228605   0.702   1.366   3.658 -0.2035  0.4609 -0.3666
 9236SOL     OW28606   2.381   3.410   5.975  0.3109  0.0324 -0.1546
 9236SOL    HW128607   2.407   3.358   5.894 -0.5345  0.6035 -0.8078
 9236SOL    HW228608   2.378   3.508   5.953 -0.8759  0.1106  0.2901
 9237SOL     OW28609   6.578   5.635   4.329 -0.1546 -0.4231  0.0800
 9237SOL    HW128610   6.610   5.719   4.373  0.1553 -0.4974 -0.0004
 9237SOL    HW228611   6.544   5.571   4.398 -1.6570  0.2953  0.0429
 9238SOL     OW28612   1.414   0.050   4.447 -0.2215  0.5117  0.4161
 9238SOL    HW128613   1.345   0.036   4.518  0.0823  0.2222  0.6600
 9238SOL    HW228614   1.504   0.060   4.490 -0.0651  0.5437  0.0835
 9239SOL     OW28615   1.948   6.519   6.035  0.3683 -0.8484  0.9685
 9239SOL    HW128616   1.914   6.612   6.048  1.1710 -0.3779 -0.1928
 9239SOL    HW228617   1.874   6.454   6.052 -0.2371 -0.0079  1.6560
 9240SOL     OW28618   3.642   1.853   4.381  0.0726 -0.1057  0.6097
 9240SOL    HW128619   3.553   1.807   4.375  0.1823 -0.2461  0.0048
 9240SOL    HW228620   3.628   1.948   4.407 -0.2832 -0.0272  0.1318
 9241SOL     OW28621   5.241   4.384   6.153 -0.5454  0.2735 -0.1884
 9241SOL    HW128622   5.210   4.468   6.196 -1.2150  0.4819 -1.0619
 9241SOL    HW228623   5.321   4.403   6.096 -1.0394  0.4389 -0.8387
 9242SOL     OW28624   4.424   1.703   4.756 -0.2915 -0.0470  0.5378
 9242SOL    HW128625   4.373   1.745   4.831  0.0979 -1.7723  1.8681
 9242SOL    HW228626   4.521   1.727   4.764 -0.5318  1.3606 -0.6089
 9243SOL     OW28627   1.922   1.327   6.915  0.3353 -0.2795 -0.2745
 9243SOL    HW128628   1.837   1.302   6.868 -0.8950  0.5504  1.4058
 9243SOL    HW228629   1.973   1.244   6.937 -1.0482 -0.9602  0.4880
 9244SOL     OW28630   2.749   5.080   4.282 -0.3937 -0.2992  0.1043
 9244SOL    HW128631   2.774   5.028   4.200  0.1776 -1.3767  0.9222
 9244SOL    HW228632   2.805   5.162   4.289  1.5558 -1.6198  0.8206
 9245SOL     OW28633   6.808   3.835   1.153 -0.0718 -0.1976 -0.4461
 9245SOL    HW128634   6.840   3.928   1.174 -0.5594  0.1125 -1.0481
 9245SOL    HW228635   6.709   3.836   1.138  0.2144 -0.3735 -2.7245
 9246SOL     OW28636   5.967   1.491   0.533  0.4352  0.1307  0.2586
 9246SOL    HW128637   5.893   1.523   0.592  1.2329  1.2726  0.6666
 9246SOL    HW228638   6.008   1.409   0.573 -1.6496 -1.5550 -0.8219
 9247SOL     OW28639   2.689   5.186   3.286 -0.0215 -0.4706  0.2044
 9247SOL    HW128640   2.747   5.120   3.238 -0.1511 -1.2260  1.0833
 9247SOL    HW228641   2.593   5.166   3.267 -0.0915  1.9465 -2.8639
 9248SOL     OW28642   2.539   6.937   1.783 -0.1323 -0.3257  0.5346
 9248SOL    HW128643   2.447   6.966   1.809  0.3935  0.1142  1.9916
 9248SOL    HW228644   2.577   6.879   1.854  2.6312  3.6271  2.6596
 9249SOL     OW28645   3.107   0.951   6.818 -0.2397 -0.5065 -0.4685
 9249SOL    HW128646   3.163   1.025   6.855 -0.0716 -0.6644 -0.4075
 9249SOL    HW228647   3.157   0.865   6.823  0.6094 -0.2248 -2.9045
 9250SOL     OW28648   1.488   4.104   2.384  0.3071 -0.2286  0.1039
 9250SOL    HW128649   1.408   4.148   2.425 -0.7208 -1.6746 -0.2732
 9250SOL    HW228650   1.570   4.128   2.437 -0.7114 -0.6225  1.9378
 9251SOL     OW28651   2.421   2.065   1.092  0.7972 -0.0536 -0.1993
 9251SOL    HW128652   2.333   2.060   1.139  0.3808 -0.6048 -1.0028
 9251SOL    HW228653   2.446   2.160   1.079 -1.1670  0.2435 -2.5803
 9252SOL     OW28654   6.689   1.420   4.880  0.0442  0.5031  0.0587
 9252SOL    HW128655   6.649   1.390   4.967 -0.3567 -0.6443 -0.5089
 9252SOL    HW228656   6.626   1.399   4.805  1.0767  0.0078 -0.6956
 9253SOL     OW28657   2.663   6.977   3.030 -0.3120  0.2035 -0.3048
 9253SOL    HW128658   2.747   6.933   3.064 -0.7617 -1.4020 -1.1692
 9253SOL    HW228659   2.670   7.076   3.043  1.7931  0.1374 -0.4861
 9254SOL     OW28660   0.136   5.391   0.667 -0.5095  0.4536 -0.3844
 9254SOL    HW128661   0.103   5.435   0.583 -0.7993  0.4902 -0.2498
 9254SOL    HW228662   0.109   5.295   0.668 -1.7852  0.7963  0.3504
 9255SOL     OW28663   0.549   3.763   0.980 -0.9753 -0.3683 -0.7760
 9255SOL    HW128664   0.478   3.708   1.024 -2.9713  2.3608 -0.3614
 9255SOL    HW228665   0.564   3.846   1.032  2.2543 -0.5887 -1.1620
 9256SOL     OW28666   2.026   4.702   5.899  0.9212  0.7833  0.5874
 9256SOL    HW128667   1.996   4.793   5.870 -0.2647  0.1760 -0.1599
 9256SOL    HW228668   2.060   4.707   5.993 -3.3835  1.2408  2.3232
 9257SOL     OW28669   5.639   5.005   5.188  0.8127  0.1705  0.2724
 9257SOL    HW128670   5.553   5.032   5.145  1.5671 -0.5911 -1.8353
 9257SOL    HW228671   5.702   5.083   5.188  0.5440  0.3918  0.7309
 9258SOL     OW28672   4.846   5.116   2.789 -0.7411 -0.0497  0.5145
 9258SOL    HW128673   4.929   5.089   2.839 -0.0620  0.4901 -0.2876
 9258SOL    HW228674   4.790   5.035   2.770  1.6308 -1.1737 -2.5660
 9259SOL     OW28675   1.330   3.216   6.447 -0.4044 -0.3668  0.2538
 9259SOL    HW128676   1.373   3.136   6.405  0.8148  0.6049 -0.3901
 9259SOL    HW228677   1.271   3.186   6.522  0.8663 -1.7975  0.7297
 9260SOL     OW28678   5.314   4.949   5.778 -0.1830 -0.3761 -0.3542
 9260SOL    HW128679   5.227   4.969   5.822 -0.1237 -0.6114 -0.1318
 9260SOL    HW228680   5.338   4.853   5.792  1.5231  0.3028  2.1230
 9261SOL     OW28681   0.573   4.048   0.211  0.1642 -0.1216 -0.3847
 9261SOL    HW128682   0.650   4.095   0.252 -0.1547 -0.3590  0.4968
 9261SOL    HW228683   0.607   3.981   0.144  0.6492  0.7386 -1.0208
 9262SOL     OW28684   6.106   1.253   5.682 -0.1463 -0.2473 -0.6697
 9262SOL    HW128685   6.146   1.259   5.774 -1.0441  0.0898 -0.2841
 9262SOL    HW228686   6.127   1.164   5.642  1.0487 -0.0522 -0.5292
 9263SOL     OW28687   0.986   4.324   1.212  0.2387 -0.2723  0.0881
 9263SOL    HW128688   1.000   4.421   1.232  0.5129 -0.6200  1.6985
 9263SOL    HW228689   0.910   4.289   1.267  1.2200 -1.3484  0.8147
 9264SOL     OW28690   6.876   4.913   3.109 -0.1327 -0.1154 -0.0700
 9264SOL    HW128691   6.822   4.872   3.036  1.5284  0.3000 -1.6178
 9264SOL    HW228692   6.900   5.008   3.085  1.8140 -0.4831  0.1971
 9265SOL     OW28693   3.530   0.524   1.338 -0.2813 -0.2594 -0.0191
 9265SOL    HW128694   3.569   0.453   1.396 -0.1501  0.8767  1.3272
 9265SOL    HW228695   3.598   0.595   1.323 -1.3637  1.1121  1.2828
 9266SOL     OW28696   6.546   5.002   0.134  0.8064  0.4636 -0.3681
 9266SOL    HW128697   6.532   5.019   0.231  0.8483  1.0332 -0.4589
 9266SOL    HW228698   6.573   5.087   0.089 -1.6745  0.8129 -1.3447
 9267SOL     OW28699   6.801   2.014   4.667  0.2138  0.5670  0.1790
 9267SOL    HW128700   6.824   2.052   4.757 -0.9080  2.5609 -0.3199
 9267SOL    HW228701   6.732   1.943   4.678  2.4280 -1.5804  1.1512
 9268SOL     OW28702   5.634   0.990   0.069  0.2896  0.6280 -0.5325
 9268SOL    HW128703   5.624   1.081   0.111  0.9689  0.0362  0.9829
 9268SOL    HW228704   5.673   0.927   0.136  1.0508 -0.4710 -1.9635
 9269SOL     OW28705   2.825   0.534   2.378 -0.3437 -0.0529 -0.0505
 9269SOL    HW128706   2.737   0.559   2.336 -0.1323  1.3300  0.2872
 9269SOL    HW228707   2.868   0.462   2.324 -1.3673 -0.2715 -0.6078
 9270SOL     OW28708   2.620   0.804   5.137 -0.3697 -0.4799  0.3875
 9270SOL    HW128709   2.591   0.769   5.226  1.6295  1.0780  1.7444
 9270SOL    HW228710   2.707   0.851   5.147 -1.6678  2.7005 -1.7002
 9271SOL     OW28711   0.184   5.215   6.390  0.3360 -0.3486  0.2283
 9271SOL    HW128712   0.248   5.287   6.362 -0.3476 -0.4229 -1.6218
 9271SOL    HW228713   0.229   5.156   6.458  2.5294 -0.8384 -1.5180
 9272SOL     OW28714   5.952   0.914   1.074  0.0600 -0.1817 -0.0702
 9272SOL    HW128715   5.938   0.818   1.049 -1.6175  0.4438 -1.7482
 9272SOL    HW228716   5.957   0.922   1.173  0.4237 -2.0070  0.0948
 9273SOL     OW28717   6.985   4.027   2.278 -0.4400 -0.0058 -0.0643
 9273SOL    HW128718   7.072   4.048   2.322 -0.4956  1.0407 -0.4094
 9273SOL    HW228719   6.911   4.033   2.345 -0.3467 -0.0153  0.0398
 9274SOL     OW28720   0.854   3.343   2.878  0.9602 -0.2710 -0.3128
 9274SOL    HW128721   0.887   3.309   2.791  1.3998 -1.2035  0.2119
 9274SOL    HW228722   0.930   3.383   2.930  0.5840  0.8832 -0.6176
 9275SOL     OW28723   4.441   3.455   0.778  0.0917  0.2341  0.0447
 9275SOL    HW128724   4.464   3.369   0.823 -0.5697  0.5295  0.9898
 9275SOL    HW228725   4.369   3.440   0.712  0.2698 -0.0087 -0.0957
 9276SOL     OW28726   6.553   4.799   2.290 -0.5798  0.2383  0.0007
 9276SOL    HW128727   6.598   4.727   2.344 -0.9075  0.2411  0.2774
 9276SOL    HW228728   6.548   4.770   2.194  1.4923  0.9219 -0.3650
 9277SOL     OW28729   2.908   4.814   3.561  0.1665  0.3834 -0.2747
 9277SOL    HW128730   2.999   4.803   3.520  0.3123  0.3526  0.0523
 9277SOL    HW228731   2.839   4.816   3.489  0.4270  0.4112 -0.5263
 9278SOL     OW28732   1.058   0.425   3.436 -0.1591  0.5739  0.1150
 9278SOL    HW128733   1.038   0.328   3.450 -0.5518  0.9255  2.3362
 9278SOL    HW228734   0.973   0.477   3.438 -0.0242  0.9612 -1.7064
 9279SOL     OW28735   3.301   6.809   3.911  0.7341 -0.4565  0.0009
 9279SOL    HW128736   3.245   6.873   3.859  1.4865 -0.2894 -0.6378
 9279SOL    HW228737   3.397   6.838   3.906  0.8065 -0.3197  1.6784
 9280SOL     OW28738   1.930   4.175   3.913 -0.0825 -0.1706  0.0933
 9280SOL    HW128739   1.877   4.125   3.844  0.0583  0.2819 -0.3489
 9280SOL    HW228740   2.002   4.227   3.868  0.3070 -0.2389  0.6318
 9281SOL     OW28741   1.697   4.106   2.537  0.4570 -0.1337 -0.6479
 9281SOL    HW128742   1.683   4.178   2.605 -0.6292 -0.4595 -0.5062
 9281SOL    HW228743   1.785   4.062   2.553  0.2739 -0.1316  0.4748
 9282SOL     OW28744   0.645   2.746   4.311 -0.2108  0.3568 -0.1294
 9282SOL    HW128745   0.585   2.763   4.233 -0.0571  0.1513 -0.2897
 9282SOL    HW228746   0.710   2.673   4.289  0.0606  0.5375  0.0676
 9283SOL     OW28747   0.647   5.041   6.313  0.1887 -0.1973 -0.2454
 9283SOL    HW128748   0.709   4.983   6.365 -0.1443 -1.4245 -1.1590
 9283SOL    HW228749   0.568   4.988   6.283 -0.2068  0.7606 -0.9933
 9284SOL     OW28750   3.996   6.910   1.726  0.0041  0.0214 -0.1114
 9284SOL    HW128751   3.897   6.919   1.714  0.1649  1.6254 -0.4176
 9284SOL    HW228752   4.038   6.886   1.639 -0.0609 -0.3229 -0.0528
 9285SOL     OW28753   0.324   5.965   0.313  0.5748  0.4217  0.5806
 9285SOL    HW128754   0.317   5.991   0.410 -0.2728  0.5328  0.4961
 9285SOL    HW228755   0.420   5.956   0.288  0.8496  1.6734  1.0968
 9286SOL     OW28756   4.011   5.485   2.447 -0.0242  0.1822  0.0068
 9286SOL    HW128757   3.924   5.517   2.486  0.5179  0.5455  0.9638
 9286SOL    HW228758   3.994   5.445   2.357 -0.9655  1.7346 -0.5602
 9287SOL     OW28759   4.170   5.034   0.952  0.1728  0.0617  0.1689
 9287SOL    HW128760   4.119   5.114   0.921 -0.3209 -0.3527 -0.1158
 9287SOL    HW228761   4.194   4.977   0.873  1.2492  0.3355  0.2777
 9288SOL     OW28762   2.185   1.647   3.717 -0.1459 -0.4353  0.3332
 9288SOL    HW128763   2.160   1.620   3.624  1.4468 -4.4721  0.8553
 9288SOL    HW228764   2.274   1.693   3.716  0.9678 -2.4865 -0.0609
 9289SOL     OW28765   3.228   5.414   2.652  0.2469 -0.1519  0.3821
 9289SOL    HW128766   3.309   5.420   2.711 -0.2616 -0.0710  1.0858
 9289SOL    HW228767   3.213   5.502   2.608  0.0762  0.0759  0.8873
 9290SOL     OW28768   4.136   0.749   3.939 -0.5658 -0.6048  0.7379
 9290SOL    HW128769   4.051   0.716   3.980 -1.3254  0.0166 -0.2785
 9290SOL    HW228770   4.162   0.688   3.864 -0.5069 -0.3884  0.5827
 9291SOL     OW28771   0.061   6.131   6.259 -0.4774  0.2298  0.2425
 9291SOL    HW128772   0.072   6.045   6.209 -2.1181  0.1640 -0.0501
 9291SOL    HW228773   0.151   6.172   6.274  0.3018 -1.3139  0.0124
 9292SOL     OW28774   3.372   1.160   1.432 -0.5703  0.7888 -0.9155
 9292SOL    HW128775   3.440   1.228   1.461 -0.1584  0.5845 -1.3991
 9292SOL    HW228776   3.326   1.123   1.513  0.5375  0.2609 -0.4982
 9293SOL     OW28777   3.006   1.526   6.653  0.2761 -0.0338 -0.2557
 9293SOL    HW128778   2.949   1.608   6.660  0.3040 -0.0700  0.5213
 9293SOL    HW228779   3.102   1.553   6.647  0.2322  0.0084 -0.7786
 9294SOL     OW28780   4.783   5.071   4.040 -0.2122  0.0640 -0.5946
 9294SOL    HW128781   4.712   5.044   4.105 -0.2617  1.5992  0.0262
 9294SOL    HW228782   4.856   5.118   4.089  1.6104 -2.0713 -1.1048
 9295SOL     OW28783   5.722   0.537   3.926  0.3698  0.0761  0.1197
 9295SOL    HW128784   5.706   0.560   3.830  1.2242  0.8794  0.1583
 9295SOL    HW228785   5.643   0.486   3.962 -1.2524  2.2496 -0.1922
 9296SOL     OW28786   3.022   2.973   5.670  0.2995  0.0592 -0.8755
 9296SOL    HW128787   2.972   3.033   5.607 -2.1614 -1.0985 -0.1500
 9296SOL    HW228788   3.028   3.017   5.759 -1.3117 -0.5915 -0.4047
 9297SOL     OW28789   0.572   5.232   0.445 -0.3574 -0.3490  0.0463
 9297SOL    HW128790   0.607   5.227   0.351 -0.0714  0.0930  0.1252
 9297SOL    HW228791   0.648   5.249   0.508 -0.4588 -1.2629  0.4310
 9298SOL     OW28792   0.694   4.933   6.696  0.8988 -0.1964  0.6186
 9298SOL    HW128793   0.738   4.888   6.774  0.7332 -0.7131  0.4171
 9298SOL    HW228794   0.616   4.879   6.665  1.1246 -0.1390 -0.0793
 9299SOL     OW28795   5.658   2.585   3.685  0.2153 -0.6299 -0.1475
 9299SOL    HW128796   5.627   2.653   3.620  0.3147 -0.9594 -0.5408
 9299SOL    HW228797   5.705   2.511   3.637 -1.4284 -1.8659  0.0636
 9300SOL     OW28798   3.078   6.756   5.587 -0.0888  0.0593  0.6699
 9300SOL    HW128799   3.072   6.762   5.487 -0.2304  1.4962  0.7471
 9300SOL    HW228800   3.170   6.782   5.617 -0.1944  0.1250  0.9411
 9301SOL     OW28801   1.164   4.157   4.875  0.2221  0.3015 -0.1871
 9301SOL    HW128802   1.184   4.204   4.961  1.8990  0.0770 -0.4206
 9301SOL    HW228803   1.073   4.116   4.880  0.9590 -1.2423  2.2056
 9302SOL     OW28804   2.642   1.140   3.549 -0.0013 -0.3666  0.1863
 9302SOL    HW128805   2.698   1.205   3.497  2.0564 -3.5144 -1.8712
 9302SOL    HW228806   2.667   1.145   3.646  0.8322  1.1207 -0.0622
 9303SOL     OW28807   4.928   4.081   1.381  0.3973  0.1392 -0.3035
 9303SOL    HW128808   4.845   4.112   1.336 -0.2699 -2.9123 -1.4332
 9303SOL    HW228809   4.904   4.033   1.466  0.7595 -2.0731 -1.3808
 9304SOL     OW28810   6.700   0.162   6.092  0.1518 -0.1480  0.0630
 9304SOL    HW128811   6.692   0.129   6.186  1.3804 -0.9166 -0.0873
 9304SOL    HW228812   6.651   0.100   6.031 -2.3462  1.3963  0.3501
 9305SOL     OW28813   2.441   2.367   1.818  0.2975  0.2283 -0.3151
 9305SOL    HW128814   2.535   2.402   1.815  0.0400  1.0655  0.7453
 9305SOL    HW228815   2.426   2.305   1.741  2.7576 -2.6420  1.2983
 9306SOL     OW28816   5.321   5.862   2.406 -0.2692  0.0397  0.3377
 9306SOL    HW128817   5.230   5.849   2.445 -0.0737 -1.4519  0.3641
 9306SOL    HW228818   5.367   5.938   2.451 -0.7867 -0.4215  1.6874
 9307SOL     OW28819   2.389   2.838   1.348 -0.3900  0.1568  0.1932
 9307SOL    HW128820   2.344   2.758   1.308  2.0416 -1.6998  0.8809
 9307SOL    HW228821   2.365   2.846   1.444  0.3703 -0.5907  0.4583
 9308SOL     OW28822   3.900   1.797   0.357  0.4022  0.2173 -0.0532
 9308SOL    HW128823   3.852   1.878   0.390  0.6051  0.7786 -1.1222
 9308SOL    HW228824   3.839   1.745   0.296  0.1988 -0.5583  0.7838
 9309SOL     OW28825   3.276   5.247   4.646 -0.1757  0.2591  0.8593
 9309SOL    HW128826   3.242   5.286   4.560 -1.9801 -0.5641  1.1464
 9309SOL    HW228827   3.329   5.316   4.695 -0.6619  1.3367 -0.0740
 9310SOL     OW28828   6.391   0.417   6.898  0.3731 -0.1274  0.1074
 9310SOL    HW128829   6.443   0.458   6.823  2.6039 -2.7553  0.0854
 9310SOL    HW228830   6.296   0.450   6.895  0.9502  1.5388 -2.4767
 9311SOL     OW28831   3.785   6.670   1.494 -0.4962 -0.1467  0.3926
 9311SOL    HW128832   3.700   6.654   1.444  0.3033 -0.8264 -0.7898
 9311SOL    HW228833   3.857   6.698   1.431  0.2777  0.0042  1.3114
 9312SOL     OW28834   0.023   3.689   2.770 -0.6676  0.1734  0.0042
 9312SOL    HW128835   0.063   3.776   2.740 -0.9576 -0.1435 -1.3785
 9312SOL    HW228836   0.082   3.647   2.839 -0.1493  1.1141  0.1492
 9313SOL     OW28837   1.201   2.228   0.761  0.0265  0.9524 -0.0935
 9313SOL    HW128838   1.185   2.238   0.860  0.4026  0.4509  0.0232
 9313SOL    HW228839   1.150   2.298   0.712 -1.2124  0.3992  0.3664
 9314SOL     OW28840   4.941   4.694   2.190 -0.4125 -0.3969  0.0018
 9314SOL    HW128841   4.951   4.604   2.149  1.1968 -0.3585  0.2717
 9314SOL    HW228842   5.028   4.723   2.230 -1.3889  0.4576  1.6284
 9315SOL     OW28843   4.288   5.343   4.998 -0.1228 -0.2003  0.4519
 9315SOL    HW128844   4.230   5.419   5.028  2.6518  1.9295  0.8978
 9315SOL    HW228845   4.325   5.296   5.078  3.4573  2.4393  0.6449
 9316SOL     OW28846   0.448   5.885   4.258 -0.1760  0.2547  0.0880
 9316SOL    HW128847   0.373   5.834   4.299 -0.5168  0.3997 -0.3341
 9316SOL    HW228848   0.426   5.905   4.162  1.4401 -1.7813 -0.7753
 9317SOL     OW28849   2.503   0.552   3.748  0.2929 -0.0535 -0.2768
 9317SOL    HW128850   2.449   0.570   3.830  0.1699  0.8112 -0.5379
 9317SOL    HW228851   2.456   0.590   3.668 -0.3415 -2.2040 -0.9805
 9318SOL     OW28852   3.556   0.168   4.331  0.3942 -0.0559  0.5714
 9318SOL    HW128853   3.608   0.105   4.389  0.7872  0.9406  1.3504
 9318SOL    HW228854   3.576   0.262   4.359 -0.6965  0.3988 -0.1120
 9319SOL     OW28855   2.829   2.565   6.888 -0.8477 -0.2295  0.0155
 9319SOL    HW128856   2.751   2.502   6.884 -0.8555 -0.1702 -1.0044
 9319SOL    HW228857   2.824   2.629   6.812 -1.3915  1.7037  1.5957
 9320SOL     OW28858   0.693   1.220   6.146 -0.6364 -0.3388 -0.3408
 9320SOL    HW128859   0.669   1.315   6.166 -0.3950  0.1554 -2.2128
 9320SOL    HW228860   0.790   1.205   6.166 -0.8781 -0.4720  0.8191
 9321SOL     OW28861   1.883   2.854   3.905  0.5284  0.0923 -0.7896
 9321SOL    HW128862   1.910   2.950   3.912  1.8558 -0.1680 -2.0376
 9321SOL    HW228863   1.930   2.801   3.976  0.7723  0.1736 -0.8884
 9322SOL     OW28864   4.701   3.709   0.948 -0.0026  0.3988 -0.2935
 9322SOL    HW128865   4.694   3.694   0.850  1.7420  0.8364 -0.5178
 9322SOL    HW228866   4.711   3.807   0.967  2.1487  0.1612  0.0848
 9323SOL     OW28867   0.206   2.524   3.642 -0.8618  0.2704 -0.2001
 9323SOL    HW128868   0.238   2.430   3.651  2.0584  1.2000  0.2802
 9323SOL    HW228869   0.146   2.532   3.562  0.7456 -1.5391 -1.6779
 9324SOL     OW28870   0.718   3.907   1.814 -0.6315 -0.1690 -0.2550
 9324SOL    HW128871   0.762   3.964   1.744 -0.6518  0.2557  0.0791
 9324SOL    HW228872   0.677   3.965   1.884 -1.0137 -0.5847 -0.1304
 9325SOL     OW28873   0.376   3.964   3.382 -0.1077 -0.6296  0.3997
 9325SOL    HW128874   0.388   3.864   3.380  0.4132 -0.5568 -1.0190
 9325SOL    HW228875   0.431   4.006   3.310 -0.1279  0.7187  1.1422
 9326SOL     OW28876   2.338   5.468   1.916 -0.4657  0.1242  0.7574
 9326SOL    HW128877   2.261   5.407   1.897 -1.0148  0.7581  0.9153
 9326SOL    HW228878   2.304   5.557   1.946  0.2734  0.9431 -0.6963
 9327SOL     OW28879   1.991   2.316   3.467  0.7127  0.2518  0.6390
 9327SOL    HW128880   2.088   2.324   3.444  0.0798 -0.5562 -2.8453
 9327SOL    HW228881   1.960   2.222   3.453 -1.0798  0.9925 -0.7465
 9328SOL     OW28882   2.416   6.804   5.194 -0.2298 -0.1701  0.6191
 9328SOL    HW128883   2.385   6.898   5.187  2.6972  0.7619 -2.4625
 9328SOL    HW228884   2.475   6.795   5.275  0.5981  1.0613  0.1827
 9329SOL     OW28885   6.572   3.425   0.834 -0.3739 -0.1554  0.0981
 9329SOL    HW128886   6.578   3.379   0.923 -0.3072  0.3670  0.3689
 9329SOL    HW228887   6.476   3.439   0.810 -0.3957 -0.5869 -0.0637
 9330SOL     OW28888   6.685   6.963   1.192  0.0087  0.1440 -0.1626
 9330SOL    HW128889   6.771   7.010   1.171  1.0441 -1.8397 -0.7159
 9330SOL    HW228890   6.661   6.980   1.288  2.2805 -0.9980  0.6962
 9331SOL     OW28891   3.284   1.960   4.996  0.5845  0.1839 -0.1013
 9331SOL    HW128892   3.239   1.974   4.908  1.2908 -3.1726 -1.1362
 9331SOL    HW228893   3.378   1.994   4.992  0.7350 -0.3122 -0.7778
 9332SOL     OW28894   4.910   6.157   0.489 -0.8553 -0.0135  0.0082
 9332SOL    HW128895   4.877   6.192   0.402  0.3757 -0.8453 -0.8182
 9332SOL    HW228896   4.832   6.141   0.551 -1.8274 -0.2913 -1.2572
 9333SOL     OW28897   0.807   5.633   6.888 -0.2674  0.7096  0.3545
 9333SOL    HW128898   0.811   5.546   6.840  0.8075  1.3679 -0.7948
 9333SOL    HW228899   0.711   5.663   6.893 -0.6841 -0.6212  0.9964
 9334SOL     OW28900   1.331   0.424   6.996 -0.1424 -0.2455 -0.4680
 9334SOL    HW128901   1.400   0.394   6.930  0.2699 -0.1078 -0.1066
 9334SOL    HW228902   1.281   0.345   7.031  2.5532 -0.9242  2.3107
 9335SOL     OW28903   0.145   2.637   6.598  0.0844  0.6545  0.1938
 9335SOL    HW128904   0.100   2.725   6.584  0.7079  0.9436 -0.0486
 9335SOL    HW228905   0.126   2.604   6.691 -1.6069  0.1716 -0.2967
 9336SOL     OW28906   5.312   6.391   6.096 -0.2245 -0.0921 -0.8144
 9336SOL    HW128907   5.324   6.312   6.036 -1.3262  0.1117 -1.3178
 9336SOL    HW228908   5.242   6.452   6.059 -1.4614 -0.3163  1.0230
 9337SOL     OW28909   1.478   3.615   4.978 -0.4169  0.0198 -0.1731
 9337SOL    HW128910   1.468   3.683   4.905  0.7912  0.6327  0.1996
 9337SOL    HW228911   1.568   3.625   5.020 -0.1795 -1.8483 -0.1377
 9338SOL     OW28912   5.237   1.118   2.274 -0.3475 -0.0433 -0.2621
 9338SOL    HW128913   5.319   1.138   2.221 -1.8110  1.9933 -1.9101
 9338SOL    HW228914   5.234   1.020   2.295  2.5984 -0.1291  0.1392
 9339SOL     OW28915   0.493   3.469   5.289  0.5662 -0.3256  0.0004
 9339SOL    HW128916   0.407   3.417   5.295  0.0578  0.5666  0.6501
 9339SOL    HW228917   0.498   3.516   5.201 -0.2121  0.6126  0.4371
 9340SOL     OW28918   2.164   4.240   1.729 -0.0152  0.2897 -0.3202
 9340SOL    HW128919   2.184   4.333   1.760  2.1525 -0.5131  1.0239
 9340SOL    HW228920   2.110   4.192   1.799 -0.2243  0.2357 -0.5190
 9341SOL     OW28921   4.941   6.618   4.116 -0.1739 -0.3883 -0.1865
 9341SOL    HW128922   4.927   6.658   4.207 -1.4966  0.1444 -0.5980
 9341SOL    HW228923   4.857   6.572   4.087 -0.0323  0.1274 -1.4646
 9342SOL     OW28924   3.907   0.569   4.965 -0.2329 -0.2750 -0.5740
 9342SOL    HW128925   3.925   0.483   5.012  2.6264  0.9726  0.8785
 9342SOL    HW228926   3.865   0.634   5.028 -2.1881 -0.4819 -1.6030
 9343SOL     OW28927   5.715   3.248   1.433  0.4146  0.0650 -0.0977
 9343SOL    HW128928   5.762   3.185   1.370 -0.2374 -1.6302  1.0312
 9343SOL    HW228929   5.622   3.214   1.450 -0.0541  1.5136  0.3384
 9344SOL     OW28930   5.548   6.382   4.945 -0.0696  0.2467  0.6573
 9344SOL    HW128931   5.490   6.344   4.873 -0.1681 -1.0861  1.4098
 9344SOL    HW228932   5.562   6.479   4.928 -1.4046  0.3073 -0.2758
 9345SOL     OW28933   6.078   4.265   5.588 -0.2842 -0.7152 -0.7460
 9345SOL    HW128934   6.134   4.248   5.669  0.6539  0.5629 -1.1121
 9345SOL    HW228935   6.032   4.353   5.597 -0.1534 -0.5518 -1.6227
 9346SOL     OW28936   5.713   1.439   2.006 -0.0889  0.0462 -0.0963
 9346SOL    HW128937   5.747   1.531   1.984 -1.3304  0.1454 -1.7541
 9346SOL    HW228938   5.756   1.373   1.945 -2.6750  0.1691 -2.2247
 9347SOL     OW28939   5.561   6.832   3.578  0.0729 -0.3189 -0.0874
 9347SOL    HW128940   5.627   6.907   3.577 -0.5167  0.2115 -0.8888
 9347SOL    HW228941   5.503   6.838   3.496 -2.3068  0.4631  1.5488
 9348SOL     OW28942   2.449   5.624   1.699  0.1622  0.5567 -0.1928
 9348SOL    HW128943   2.363   5.673   1.691 -0.5402 -0.7544 -1.1980
 9348SOL    HW228944   2.446   5.564   1.779  0.2235  0.6734 -0.1034
 9349SOL     OW28945   1.354   3.761   0.253 -0.0009 -0.1003 -0.0654
 9349SOL    HW128946   1.435   3.820   0.251  0.9056 -1.2026  1.7000
 9349SOL    HW228947   1.273   3.814   0.231  0.9334  1.5100  0.2507
 9350SOL     OW28948   1.920   1.918   6.030 -0.1181  0.1769  0.2413
 9350SOL    HW128949   1.930   1.908   5.931  0.7095  0.2327  0.3161
 9350SOL    HW228950   1.880   1.834   6.068  1.7984 -0.8252  0.1626
 9351SOL     OW28951   3.272   3.672   0.120 -0.3433 -0.3674  0.3920
 9351SOL    HW128952   3.270   3.695   0.023 -2.4608  1.9226  0.8730
 9351SOL    HW228953   3.187   3.704   0.163  0.4542 -1.4858  2.9846
 9352SOL     OW28954   2.273   3.171   0.370  0.6759 -0.4623  0.0065
 9352SOL    HW128955   2.232   3.251   0.325  0.8086  0.0333  0.7556
 9352SOL    HW228956   2.235   3.161   0.462 -0.2884 -2.0215 -0.5201
 9353SOL     OW28957   2.046   1.628   2.540  0.7056  0.1554 -0.2612
 9353SOL    HW128958   2.076   1.693   2.609 -1.9479  1.6223 -0.3379
 9353SOL    HW228959   2.084   1.653   2.451 -0.4342  1.7949 -0.3261
 9354SOL     OW28960   6.090   2.666   4.485 -0.2653  0.2149 -0.0945
 9354SOL    HW128961   6.162   2.679   4.417 -0.3886 -1.0075 -0.4854
 9354SOL    HW228962   6.091   2.742   4.550  1.7446 -0.0436  0.2297
 9355SOL     OW28963   1.771   3.374   3.275 -0.3061 -0.0942  0.4166
 9355SOL    HW128964   1.718   3.292   3.256 -0.1399 -0.0995 -0.0537
 9355SOL    HW228965   1.710   3.454   3.274 -0.6754 -0.3302  2.0813
 9356SOL     OW28966   5.680   3.667   1.743 -0.8670  0.2973  0.1573
 9356SOL    HW128967   5.586   3.694   1.766 -0.7711  2.0042 -1.2376
 9356SOL    HW228968   5.697   3.686   1.646  1.0325  0.3363  0.4645
 9357SOL     OW28969   2.479   2.730   0.542  0.0145  0.0670 -0.2264
 9357SOL    HW128970   2.575   2.703   0.539 -0.6720 -2.7474  0.1806
 9357SOL    HW228971   2.466   2.816   0.492  2.7870  0.8135  0.1954
 9358SOL     OW28972   5.463   5.085   4.160  0.6695 -0.8023 -0.1641
 9358SOL    HW128973   5.463   5.011   4.228 -0.7567 -0.7894 -0.1379
 9358SOL    HW228974   5.558   5.110   4.139  1.1425 -1.3086  1.2671
 9359SOL     OW28975   4.565   5.534   5.745 -0.0394 -0.1092  0.0930
 9359SOL    HW128976   4.514   5.618   5.723 -0.4784 -0.1023  1.1001
 9359SOL    HW228977   4.624   5.551   5.823  0.1872 -0.6310  0.0354
 9360SOL     OW28978   6.576   1.350   5.103 -0.1593 -0.2149  0.1947
 9360SOL    HW128979   6.529   1.433   5.134  0.7213  0.3221  0.1414
 9360SOL    HW228980   6.581   1.285   5.179 -3.1949 -1.3674 -0.4567
 9361SOL     OW28981   2.087   0.702   2.853 -0.4430  0.4257  0.2055
 9361SOL    HW128982   2.053   0.612   2.880  0.7200  0.3160  1.4338
 9361SOL    HW228983   2.131   0.696   2.764 -1.5374  0.0869 -0.3341
 9362SOL     OW28984   1.249   2.410   3.653  0.0043  0.2259  0.5430
 9362SOL    HW128985   1.206   2.494   3.684 -2.1109 -0.2362 -0.9655
 9362SOL    HW228986   1.340   2.430   3.617 -0.5150  1.8863  0.0975
 9363SOL     OW28987   1.418   6.620   2.737  0.3307  0.5201  0.1495
 9363SOL    HW128988   1.448   6.565   2.815  0.9401  1.1683  0.3790
 9363SOL    HW228989   1.447   6.715   2.749 -0.4210  0.8332 -0.4020
 9364SOL     OW28990   0.515   4.293   1.865  0.1271 -0.4606 -0.3914
 9364SOL    HW128991   0.595   4.250   1.908  0.1029 -0.5515 -0.4361
 9364SOL    HW228992   0.525   4.392   1.867 -0.1419 -0.4433  0.3395
 9365SOL     OW28993   1.817   0.975   4.422 -0.0216 -0.1771  0.4988
 9365SOL    HW128994   1.754   1.046   4.392  0.4355 -0.2262 -0.6642
 9365SOL    HW228995   1.860   1.001   4.508  0.7537  1.3579 -0.3132
 9366SOL     OW28996   2.995   1.044   2.174  0.6140 -0.2497  0.0829
 9366SOL    HW128997   3.087   1.052   2.134  0.3213 -1.2092 -0.8358
 9366SOL    HW228998   2.929   1.087   2.113  0.1996 -1.4495 -0.3405
 9367SOL     OW28999   5.106   2.368   3.673 -0.2211  0.6804  0.1791
 9367SOL    HW129000   5.045   2.446   3.665  0.3881  1.0584 -1.0821
 9367SOL    HW229001   5.191   2.387   3.624  0.1551 -0.5597  0.3170
 9368SOL     OW29002   0.891   0.860   1.974  0.6580  0.1954 -0.2272
 9368SOL    HW129003   0.960   0.926   1.942  1.5112 -1.0618 -1.0908
 9368SOL    HW229004   0.927   0.810   2.052  0.5080 -0.0870 -0.3378
 9369SOL     OW29005   6.996   2.023   6.375  0.2439 -0.0809 -0.1952
 9369SOL    HW129006   6.990   1.939   6.429 -1.4809  0.6785  0.8702
 9369SOL    HW229007   7.039   2.095   6.430  2.0408 -0.3047 -1.2236
 9370SOL     OW29008   4.568   6.488   1.757 -0.7261 -0.2759 -0.4610
 9370SOL    HW129009   4.589   6.586   1.751  0.5098 -0.5645 -1.1732
 9370SOL    HW229010   4.573   6.459   1.852 -0.5841  0.2497 -0.3040
 9371SOL     OW29011   1.043   0.855   0.131 -0.1697  0.3390  0.0414
 9371SOL    HW129012   1.002   0.776   0.086 -0.0957  0.0456  0.4884
 9371SOL    HW229013   1.115   0.892   0.072  0.6791 -0.7069  0.3829
 9372SOL     OW29014   4.390   5.488   0.292  0.0710  0.5034  0.8078
 9372SOL    HW129015   4.480   5.488   0.246 -1.2909  1.7554 -2.1432
 9372SOL    HW229016   4.356   5.395   0.297  0.8192  0.1915  0.3507
 9373SOL     OW29017   5.856   2.024   2.933  0.1038  0.3082  0.3571
 9373SOL    HW129018   5.956   2.022   2.938  0.3676 -1.2010 -2.7559
 9373SOL    HW229019   5.820   1.932   2.949 -0.8620  0.9174  1.8455
 9374SOL     OW29020   5.571   3.773   6.359 -0.1578  0.8157  0.1439
 9374SOL    HW129021   5.498   3.726   6.409  0.2586  0.2651  0.2519
 9374SOL    HW229022   5.569   3.871   6.380 -0.8491  0.8013  0.1611
 9375SOL     OW29023   6.181   4.598   4.724 -0.4333  0.1675  0.0660
 9375SOL    HW129024   6.237   4.526   4.765 -0.4822  0.6722  1.0395
 9375SOL    HW229025   6.240   4.669   4.686 -0.3920 -0.2235 -0.6314
 9376SOL     OW29026   1.755   2.068   0.714  0.0523 -0.3063 -0.2635
 9376SOL    HW129027   1.818   2.100   0.644  1.9086 -1.3256  0.8622
 9376SOL    HW229028   1.722   2.145   0.768  1.4531  0.1178  0.0128
 9377SOL     OW29029   0.524   5.470   3.691 -0.2129 -0.2882  0.1182
 9377SOL    HW129030   0.605   5.453   3.634 -2.2363 -2.4397 -2.3719
 9377SOL    HW229031   0.476   5.384   3.707 -3.0854  1.1397 -0.2287
 9378SOL     OW29032   3.837   5.507   0.999 -0.2319  0.1197 -0.2968
 9378SOL    HW129033   3.862   5.603   1.008 -0.4268  0.0484  1.4305
 9378SOL    HW229034   3.738   5.498   0.992 -0.3002  0.0207  0.5945
 9379SOL     OW29035   4.057   6.420   5.431 -0.3506  0.1462 -0.1228
 9379SOL    HW129036   4.070   6.326   5.400  1.1817 -0.2277  1.5093
 9379SOL    HW229037   4.093   6.483   5.363 -0.6603 -0.4624 -0.8681
 9380SOL     OW29038   6.896   6.027   4.581 -0.9583  0.3093  0.6375
 9380SOL    HW129039   6.951   6.110   4.576 -0.3080 -0.1670 -0.4256
 9380SOL    HW229040   6.911   5.982   4.669 -0.0574  0.4584  0.5659
 9381SOL     OW29041   0.667   1.210   1.518 -0.0556  0.0721  0.4552
 9381SOL    HW129042   0.615   1.140   1.469  0.4394 -0.2397  0.3730
 9381SOL    HW229043   0.754   1.226   1.472 -0.5301  1.3811 -0.0386
 9382SOL     OW29044   6.657   2.854   6.506  1.0168  0.0993 -0.4100
 9382SOL    HW129045   6.639   2.810   6.594  0.6792 -1.8103 -1.3718
 9382SOL    HW229046   6.580   2.913   6.482  0.4521 -0.4941 -0.0872
 9383SOL     OW29047   5.581   6.312   1.022  0.0821  0.3559  0.2855
 9383SOL    HW129048   5.644   6.306   1.100 -1.4527  0.2156  1.5598
 9383SOL    HW229049   5.551   6.407   1.011 -2.0848 -0.0803  1.8793
 9384SOL     OW29050   1.627   6.659   1.659  0.3335  0.2802 -0.5643
 9384SOL    HW129051   1.535   6.642   1.695  0.2112 -2.4462 -1.8942
 9384SOL    HW229052   1.632   6.751   1.622 -1.2857  1.1157  1.1443
 9385SOL     OW29053   4.161   6.741   3.081 -0.1357 -0.1374 -0.2629
 9385SOL    HW129054   4.180   6.704   3.172  1.6218 -0.5305 -0.7524
 9385SOL    HW229055   4.164   6.841   3.085  0.4930 -0.1639 -0.0034
 9386SOL     OW29056   1.869   1.431   4.720  0.2668  0.1639  0.0204
 9386SOL    HW129057   1.965   1.403   4.724  0.4707  0.7894 -0.3255
 9386SOL    HW229058   1.831   1.434   4.812  0.4967 -0.3450  0.1380
 9387SOL     OW29059   4.208   0.304   2.685 -0.6435 -0.4454 -0.3151
 9387SOL    HW129060   4.242   0.225   2.736  0.4022 -0.2997 -0.7603
 9387SOL    HW229061   4.167   0.273   2.599  0.3827 -0.4833 -0.8144
 9388SOL     OW29062   6.491   0.264   1.352  0.2843 -0.1139  0.3834
 9388SOL    HW129063   6.569   0.239   1.408  0.0818 -0.1517  0.6464
 9388SOL    HW229064   6.524   0.299   1.264  0.6775  1.5279  1.1345
 9389SOL     OW29065   2.431   0.855   2.640 -0.3700  0.0556 -0.3288
 9389SOL    HW129066   2.529   0.866   2.620 -0.8594  1.5283 -2.2105
 9389SOL    HW229067   2.410   0.897   2.728  0.2959  2.0683 -1.0719
 9390SOL     OW29068   3.555   6.427   1.499 -0.4325 -1.1993 -0.1114
 9390SOL    HW129069   3.518   6.497   1.560 -0.3235 -0.0034 -1.3609
 9390SOL    HW229070   3.615   6.366   1.551 -3.8575 -3.1216  1.9662
 9391SOL     OW29071   6.829   6.478   4.406  0.0355  0.8500 -0.0179
 9391SOL    HW129072   6.777   6.542   4.462  0.1101  1.3109 -0.4712
 9391SOL    HW229073   6.843   6.517   4.315  0.8995  0.5929 -0.0014
 9392SOL     OW29074   0.160   0.776   4.939  0.9257  0.2337  0.0850
 9392SOL    HW129075   0.067   0.798   4.967  1.6306  1.7022  1.3509
 9392SOL    HW229076   0.178   0.815   4.849  0.2247 -0.3777 -0.3348
 9393SOL     OW29077   4.334   2.104   2.881 -0.2477 -0.1317 -0.7473
 9393SOL    HW129078   4.353   2.186   2.825  1.0307  0.3950  0.3943
 9393SOL    HW229079   4.421   2.066   2.913 -0.9562  0.7780  2.5465
 9394SOL     OW29080   0.449   3.163   1.893 -0.3077 -0.3704 -0.4174
 9394SOL    HW129081   0.447   3.226   1.970 -2.8370 -0.8968  0.0534
 9394SOL    HW229082   0.539   3.120   1.887  0.5733  1.1916  0.9651
 9395SOL     OW29083   3.059   3.837   0.173  0.2989 -0.1126 -0.1675
 9395SOL    HW129084   3.090   3.929   0.152  1.2203 -0.7537 -1.8647
 9395SOL    HW229085   2.971   3.821   0.128  1.6543 -1.0466 -2.7641
 9396SOL     OW29086   1.183   2.518   5.266  0.5936  0.0742 -0.0619
 9396SOL    HW129087   1.225   2.503   5.356  0.1848  1.7134  0.4342
 9396SOL    HW229088   1.254   2.545   5.201  1.0803 -2.2109 -0.5726
 9397SOL     OW29089   1.566   0.563   6.551  0.4487 -0.0384  0.1053
 9397SOL    HW129090   1.608   0.481   6.512 -1.4273 -0.2704 -1.5775
 9397SOL    HW229091   1.474   0.541   6.584  0.8815  0.8467  2.0894
 9398SOL     OW29092   2.532   1.828   1.030 -0.4360  1.0871  0.0633
 9398SOL    HW129093   2.612   1.856   0.976  0.6351  0.0164  1.0252
 9398SOL    HW229094   2.478   1.908   1.054  0.9037  1.9728  0.2340
 9399SOL     OW29095   0.479   1.921   0.760 -0.0253 -0.2359 -0.1619
 9399SOL    HW129096   0.517   1.845   0.814  0.5372 -1.5818 -2.3295
 9399SOL    HW229097   0.382   1.903   0.743  0.3497 -1.1061 -1.5901
 9400SOL     OW29098   5.610   6.666   4.951 -0.4646  0.4633  0.3003
 9400SOL    HW129099   5.698   6.661   4.998 -0.5131  0.0897  0.3547
 9400SOL    HW229100   5.569   6.757   4.966 -1.0681 -0.0491  2.0677
 9401SOL     OW29101   5.591   0.050   3.336 -0.1820  0.1525  0.0425
 9401SOL    HW129102   5.686   0.021   3.342  1.0983  3.4877 -1.7395
 9401SOL    HW229103   5.587   0.149   3.324 -3.8820  0.0512 -0.6805
 9402SOL     OW29104   1.973   3.792   0.391 -0.3560  0.7505  0.1017
 9402SOL    HW129105   1.967   3.750   0.482  2.5098 -1.1972 -0.4517
 9402SOL    HW229106   2.041   3.865   0.393 -1.2322  1.5786 -0.2019
 9403SOL     OW29107   5.438   5.392   2.851  0.0295 -0.5152 -0.1921
 9403SOL    HW129108   5.447   5.466   2.784 -2.0893  0.2655  0.3284
 9403SOL    HW229109   5.345   5.355   2.849 -0.3002 -0.0702  2.7158
 9404SOL     OW29110   2.816   3.751   5.225  0.0296 -0.1396  0.2726
 9404SOL    HW129111   2.736   3.790   5.270 -1.3452 -0.4768 -1.7398
 9404SOL    HW229112   2.873   3.825   5.188 -0.9820  0.0893 -0.9023
 9405SOL     OW29113   6.980   2.080   1.706  0.3204  0.3535 -0.2469
 9405SOL    HW129114   7.005   2.161   1.653  0.4787  0.3284 -0.2128
 9405SOL    HW229115   7.063   2.029   1.729  0.1156 -0.5267 -1.3948
 9406SOL     OW29116   0.928   2.481   5.235  0.4363 -0.3863  0.0604
 9406SOL    HW129117   0.878   2.503   5.319 -1.4428  0.8376 -1.3090
 9406SOL    HW229118   1.026   2.494   5.251  0.1900 -0.6563  2.1717
 9407SOL     OW29119   2.537   6.603   3.021 -0.6300 -0.7234 -0.0275
 9407SOL    HW129120   2.445   6.594   2.983 -0.5244  2.9995 -1.5449
 9407SOL    HW229121   2.540   6.681   3.084  1.5561 -0.5462 -0.2697
 9408SOL     OW29122   2.411   2.952   6.853 -0.2738  0.3304  0.4347
 9408SOL    HW129123   2.428   3.006   6.771 -5.6495  1.0192 -0.6392
 9408SOL    HW229124   2.417   3.010   6.934  0.3864  0.8455  0.0201
 9409SOL     OW29125   5.441   2.466   5.336  0.9717 -0.6686 -0.3378
 9409SOL    HW129126   5.423   2.524   5.257 -0.9757 -0.6900  0.0335
 9409SOL    HW229127   5.392   2.379   5.325  0.9948 -0.8249  0.7143
 9410SOL     OW29128   3.961   6.966   3.535 -0.2855 -0.5559  0.5572
 9410SOL    HW129129   4.031   6.912   3.489 -0.9988  0.8721 -2.4376
 9410SOL    HW229130   3.994   6.994   3.625  2.8534 -0.2394 -0.5753
 9411SOL     OW29131   3.950   4.691   0.430 -0.2058  0.2911  0.0750
 9411SOL    HW129132   3.994   4.775   0.461 -0.3356  0.2478  0.3812
 9411SOL    HW229133   4.010   4.644   0.365  0.3526  0.0603  0.7424
 9412SOL     OW29134   6.320   1.222   3.892 -0.0731  0.5227 -0.5940
 9412SOL    HW129135   6.394   1.178   3.841 -1.2635  0.0689 -1.9812
 9412SOL    HW229136   6.354   1.306   3.934  1.3168  0.1340 -0.8813
 9413SOL     OW29137   4.202   4.680   2.185  0.8700 -0.7675 -0.4718
 9413SOL    HW129138   4.256   4.630   2.118 -0.3645 -1.0996 -1.2569
 9413SOL    HW229139   4.149   4.751   2.138  1.5302  0.3716  0.4435
 9414SOL     OW29140   1.299   6.544   0.425 -0.1367  0.3039 -0.1337
 9414SOL    HW129141   1.355   6.530   0.507 -0.1951 -0.9502 -0.2868
 9414SOL    HW229142   1.359   6.547   0.345 -0.1854  0.1903 -0.1745
 9415SOL     OW29143   0.438   6.720   2.462 -0.1828 -0.0533 -0.1245
 9415SOL    HW129144   0.471   6.641   2.409  0.0501 -0.6241  0.8405
 9415SOL    HW229145   0.485   6.722   2.550 -0.6313  0.8246  0.1019
 9416SOL     OW29146   0.347   0.449   1.838  0.4962  0.0355 -0.0730
 9416SOL    HW129147   0.363   0.513   1.913  0.1521 -1.9504  1.8072
 9416SOL    HW229148   0.417   0.461   1.768  1.4921  1.2232  1.0648
 9417SOL     OW29149   1.003   6.854   4.830  0.3318 -0.4663 -0.0436
 9417SOL    HW129150   0.949   6.885   4.908  2.1266 -0.5590  1.2835
 9417SOL    HW229151   1.055   6.773   4.855 -1.8806 -2.8563 -2.5149
 9418SOL     OW29152   4.448   6.496   4.791 -0.2376  0.0384  0.3536
 9418SOL    HW129153   4.454   6.468   4.695 -0.9326  1.6071 -0.1868
 9418SOL    HW229154   4.373   6.447   4.835 -1.3585  0.8885 -0.5388
 9419SOL     OW29155   2.699   5.888   3.786 -0.4924  0.5706  0.1382
 9419SOL    HW129156   2.602   5.865   3.784 -0.7523  1.6379 -1.6374
 9419SOL    HW229157   2.709   5.986   3.806  0.2330  0.4527  0.3812
 9420SOL     OW29158   0.528   0.230   2.446 -0.4764  0.2363  0.2022
 9420SOL    HW129159   0.591   0.200   2.374 -0.9661 -0.8107  0.1924
 9420SOL    HW229160   0.553   0.186   2.532 -1.2221 -0.2325  0.1820
 9421SOL     OW29161   1.763   4.718   5.628 -0.1211 -0.1908  0.1737
 9421SOL    HW129162   1.665   4.698   5.621 -0.1317  0.1327 -0.7882
 9421SOL    HW229163   1.804   4.659   5.697 -0.9351 -0.5419  0.3761
 9422SOL     OW29164   2.738   0.715   4.130 -0.5062  0.0940 -0.1202
 9422SOL    HW129165   2.641   0.721   4.155 -0.2660 -0.4832  1.0365
 9422SOL    HW229166   2.749   0.731   4.032 -2.1235 -2.7758 -0.8786
 9423SOL     OW29167   4.267   6.751   5.624  0.1855 -0.0086  0.2341
 9423SOL    HW129168   4.167   6.744   5.614  0.2174  0.5925 -0.5808
 9423SOL    HW229169   4.294   6.710   5.711 -0.7290 -0.5417  0.2861
 9424SOL     OW29170   1.953   6.879   3.085  0.5717 -0.1760 -0.8577
 9424SOL    HW129171   1.956   6.959   3.146 -2.2124  0.1648 -1.0372
 9424SOL    HW229172   2.018   6.810   3.117  1.4063  1.2220  0.6322
 9425SOL     OW29173   5.995   4.398   1.226 -0.4876  0.1010 -0.3686
 9425SOL    HW129174   5.922   4.331   1.214 -0.3598  0.3072 -2.7720
 9425SOL    HW229175   6.065   4.385   1.155 -0.1516  2.3899 -0.5477
 9426SOL     OW29176   3.432   5.610   2.450  0.7810 -0.1294  0.0187
 9426SOL    HW129177   3.431   5.605   2.351 -2.4403  0.0877 -0.0922
 9426SOL    HW229178   3.338   5.605   2.484  1.7671 -0.0868  3.0644
 9427SOL     OW29179   3.368   5.088   3.900  0.7981 -0.4935 -0.3212
 9427SOL    HW129180   3.425   5.143   3.839 -1.7186  0.6369 -1.7988
 9427SOL    HW229181   3.313   5.025   3.845 -1.8921  0.8907  0.6426
 9428SOL     OW29182   2.092   6.309   3.846  0.1866  0.0338  0.0732
 9428SOL    HW129183   2.130   6.228   3.890 -2.9895 -1.1931  0.8011
 9428SOL    HW229184   2.166   6.360   3.800  2.5410 -2.2703  1.0648
 9429SOL     OW29185   1.560   3.138   3.886 -0.6708  0.3256 -0.1684
 9429SOL    HW129186   1.470   3.175   3.865 -0.7814 -0.6682 -1.5492
 9429SOL    HW229187   1.552   3.072   3.961 -1.3272 -0.6647 -1.0744
 9430SOL     OW29188   3.965   0.937   2.567 -0.1409  0.1225 -0.4216
 9430SOL    HW129189   3.976   0.850   2.519 -1.2303 -1.5889  2.2133
 9430SOL    HW229190   3.880   0.980   2.539 -2.0568 -2.0955  1.5719
 9431SOL     OW29191   5.651   4.641   6.693  0.8559  0.0809  0.2351
 9431SOL    HW129192   5.573   4.661   6.633  0.0988 -3.3216 -0.1288
 9431SOL    HW229193   5.725   4.705   6.674 -1.3653  2.6474 -0.3068
 9432SOL     OW29194   5.448   0.019   2.619  0.6248  0.0585 -0.2895
 9432SOL    HW129195   5.380  -0.010   2.551  0.3184  1.2540 -0.5147
 9432SOL    HW229196   5.458   0.118   2.615 -1.4685  0.5620  3.2874
 9433SOL     OW29197   3.264   0.073   4.411 -0.0719 -0.4908 -0.5982
 9433SOL    HW129198   3.199   0.148   4.401 -0.1163 -0.5358 -0.6445
 9433SOL    HW229199   3.357   0.109   4.403 -0.0767 -0.3665 -0.1623
 9434SOL     OW29200   5.754   3.987   3.450 -0.2672  0.7234 -0.4824
 9434SOL    HW129201   5.803   3.981   3.363  0.7641  1.8672 -0.0065
 9434SOL    HW229202   5.802   4.049   3.512 -0.1493 -1.2227  1.4938
 9435SOL     OW29203   3.122   1.884   3.843  0.5741 -0.2808 -0.4451
 9435SOL    HW129204   3.059   1.847   3.775 -1.9923  1.7079  0.6793
 9435SOL    HW229205   3.179   1.810   3.879 -0.8355 -2.1273 -1.8231
 9436SOL     OW29206   5.542   4.228   5.257  0.0093  0.0271  0.0588
 9436SOL    HW129207   5.536   4.326   5.274 -0.0117  0.2619 -1.2134
 9436SOL    HW229208   5.457   4.184   5.287 -0.3037  0.5101 -0.1113
 9437SOL     OW29209   0.577   6.500   4.493 -0.5480  0.0562 -0.0880
 9437SOL    HW129210   0.506   6.570   4.494  0.8068  1.5153  1.8715
 9437SOL    HW229211   0.661   6.538   4.452 -1.0696 -1.9917 -3.4991
 9438SOL     OW29212   0.127   5.945   2.193 -0.0445  0.1517 -0.4859
 9438SOL    HW129213   0.196   5.996   2.142 -1.3136  0.8342 -1.5811
 9438SOL    HW229214   0.135   5.966   2.290  1.6320 -0.2229 -0.5196
 9439SOL     OW29215   1.750   3.311   1.473  0.6326 -0.0612 -0.5147
 9439SOL    HW129216   1.799   3.341   1.391  1.2672  2.0034  0.5518
 9439SOL    HW229217   1.816   3.300   1.548 -0.1950  0.1597  0.2534
 9440SOL     OW29218   4.128   5.454   2.693  0.7790  0.1880 -0.1649
 9440SOL    HW129219   4.102   5.525   2.759  0.1526  0.1377 -0.3488
 9440SOL    HW229220   4.100   5.482   2.601  0.5515 -0.2793 -0.2419
 9441SOL     OW29221   0.263   5.061   6.588  0.3214  0.1046 -0.0803
 9441SOL    HW129222   0.241   4.969   6.622  0.0991 -0.1140 -0.8103
 9441SOL    HW229223   0.237   5.128   6.657 -1.0469 -0.2667 -0.1965
 9442SOL     OW29224   2.498   1.794   1.790  0.3241 -0.4555 -0.1925
 9442SOL    HW129225   2.577   1.820   1.735 -0.0902 -2.1039 -1.6540
 9442SOL    HW229226   2.523   1.721   1.853  0.4973  0.6089  1.0162
 9443SOL     OW29227   0.631   2.162   0.814 -0.3147  0.2115 -0.2670
 9443SOL    HW129228   0.592   2.085   0.765  1.9792 -0.2108 -1.5681
 9443SOL    HW229229   0.607   2.156   0.911 -1.2953 -1.3688 -0.5827
 9444SOL     OW29230   1.503   5.778   6.711  0.1357 -0.4289 -0.0891
 9444SOL    HW129231   1.549   5.812   6.629 -0.3330  0.3206 -0.0510
 9444SOL    HW229232   1.571   5.744   6.776  0.4388 -2.7767 -1.5074
 9445SOL     OW29233   5.851   1.371   1.585 -0.1503  0.6316 -0.2358
 9445SOL    HW129234   5.891   1.460   1.607 -0.8934  1.2552 -1.3067
 9445SOL    HW229235   5.864   1.352   1.488  0.3691 -0.6438  0.0571
 9446SOL     OW29236   6.191   5.378   1.379  0.4102 -0.3736 -0.3740
 9446SOL    HW129237   6.150   5.301   1.329  1.8937 -1.2122 -0.3824
 9446SOL    HW229238   6.120   5.429   1.426 -0.5436 -2.3764  0.4704
 9447SOL     OW29239   5.326   0.906   0.098  0.4882 -0.1189 -0.3492
 9447SOL    HW129240   5.373   0.944   0.177  2.3804  1.4641 -2.1222
 9447SOL    HW229241   5.351   0.810   0.088  0.4182 -0.2726  0.8000
 9448SOL     OW29242   5.703   4.807   0.361 -0.0893  0.0897  0.6251
 9448SOL    HW129243   5.653   4.860   0.429 -0.2987  1.2654 -0.4187
 9448SOL    HW229244   5.714   4.713   0.394 -1.7975  0.1443  1.4595
 9449SOL     OW29245   6.339   4.021   2.782 -0.0062  0.3326  0.0287
 9449SOL    HW129246   6.311   3.973   2.699  0.9271  0.5611 -0.4242
 9449SOL    HW229247   6.259   4.067   2.822 -0.6102 -0.3910 -0.3264
 9450SOL     OW29248   2.764   4.093   5.494  0.2880 -0.1264 -0.2236
 9450SOL    HW129249   2.701   4.162   5.529  0.2906 -0.8499  1.3071
 9450SOL    HW229250   2.843   4.138   5.453  1.1125  0.8960  2.2503
 9451SOL     OW29251   3.265   2.935   4.072 -0.1005 -0.0672 -0.3124
 9451SOL    HW129252   3.205   2.886   4.009 -0.9144 -0.3474  0.6615
 9451SOL    HW229253   3.326   2.995   4.020 -1.8268  0.9251 -1.2738
 9452SOL     OW29254   5.218   4.439   0.193  0.0990  0.2158  0.8550
 9452SOL    HW129255   5.200   4.340   0.198  1.1404  0.0365  1.4870
 9452SOL    HW229256   5.270   4.459   0.109 -1.0624  0.4040  0.1638
 9453SOL     OW29257   2.562   6.189   0.966  0.1278 -0.3228  0.0571
 9453SOL    HW129258   2.483   6.232   1.011  1.3964  0.4526  1.6865
 9453SOL    HW229259   2.538   6.097   0.937 -1.6843  0.2723 -0.4864
 9454SOL     OW29260   1.158   2.657   3.714  0.1993 -0.0353  0.0834
 9454SOL    HW129261   1.221   2.680   3.789  0.7324 -0.3451 -0.2579
 9454SOL    HW229262   1.137   2.740   3.662  2.2048 -0.2651 -1.2117
 9455SOL     OW29263   0.634   1.559   2.900 -0.1151 -0.5442  0.5372
 9455SOL    HW129264   0.629   1.570   2.800  0.3775  0.2405  0.5956
 9455SOL    HW229265   0.624   1.462   2.922  1.5522 -0.9753 -0.4075
 9456SOL     OW29266   1.250   2.802   6.103 -0.3632  0.0797  0.2711
 9456SOL    HW129267   1.175   2.811   6.038  0.8843  0.0718 -1.2439
 9456SOL    HW229268   1.308   2.883   6.098  0.9830 -0.8661 -0.3024
 9457SOL     OW29269   6.222   4.179   6.505  0.5222 -0.4039  0.7604
 9457SOL    HW129270   6.297   4.225   6.457 -0.0036 -1.2113 -0.9312
 9457SOL    HW229271   6.144   4.241   6.513  0.3745 -0.4584 -0.0993
 9458SOL     OW29272   0.652   4.653   2.382  0.3859  0.8838  0.6050
 9458SOL    HW129273   0.606   4.703   2.455  2.3936  2.1463  1.0939
 9458SOL    HW229274   0.605   4.566   2.366 -0.6388  0.9801  2.7468
 9459SOL     OW29275   3.465   4.693   0.351  0.3101  0.3958 -0.0486
 9459SOL    HW129276   3.450   4.772   0.412  1.7586 -0.9814  2.2629
 9459SOL    HW229277   3.551   4.706   0.302  1.6676 -0.6014  1.9472
 9460SOL     OW29278   0.827   3.970   3.790 -0.4548 -0.2640  0.0739
 9460SOL    HW129279   0.895   3.985   3.863  1.3243  2.1007 -1.8781
 9460SOL    HW229280   0.763   4.046   3.789 -1.2055 -0.8933 -0.1040
 9461SOL     OW29281   0.889   0.740   2.899  0.5250  1.0567  0.3721
 9461SOL    HW129282   0.945   0.690   2.965  0.9654 -1.9930 -2.0582
 9461SOL    HW229283   0.836   0.810   2.946  2.2231  0.3648  3.5883
 9462SOL     OW29284   0.432   6.136   4.354 -0.0666  0.6108  0.0590
 9462SOL    HW129285   0.413   6.108   4.448  0.0692  0.6655  0.1025
 9462SOL    HW229286   0.439   6.055   4.296  0.4228  0.5463  0.2021
 9463SOL     OW29287   5.079   5.531   6.819  0.2849 -0.5855 -0.2490
 9463SOL    HW129288   5.135   5.614   6.820  1.0590 -1.0579  2.3112
 9463SOL    HW229289   5.130   5.458   6.773  0.7908 -0.3925 -0.0020
 9464SOL     OW29290   3.969   5.579   5.468  0.7298  0.1743 -0.3313
 9464SOL    HW129291   4.048   5.579   5.529 -0.8818  1.1634  1.8567
 9464SOL    HW229292   3.928   5.487   5.466  1.5965 -0.2194 -1.1074
 9465SOL     OW29293   4.538   5.066   3.853  0.1559 -0.2527 -0.7362
 9465SOL    HW129294   4.606   5.077   3.926  0.7798  0.1318 -1.3678
 9465SOL    HW229295   4.509   4.970   3.849 -0.2094 -0.1963  0.2971
 9466SOL     OW29296   4.172   0.668   0.073  0.0167 -0.7383  0.3846
 9466SOL    HW129297   4.266   0.683   0.044 -0.0550 -0.4661  0.2867
 9466SOL    HW229298   4.110   0.723   0.016 -0.1302 -0.2588  0.9878
 9467SOL     OW29299   0.984   2.626   0.909  0.0746 -0.0353  0.4502
 9467SOL    HW129300   0.939   2.537   0.920  1.9797 -1.1927 -0.7027
 9467SOL    HW229301   1.083   2.613   0.908  0.3694  1.8316 -1.8814
 9468SOL     OW29302   1.232   3.077   5.336 -0.1669 -0.0785  0.1543
 9468SOL    HW129303   1.231   3.126   5.249  0.6687 -0.6025 -0.1629
 9468SOL    HW229304   1.285   2.993   5.327  1.3107  0.6382  1.5879
 9469SOL     OW29305   1.268   3.261   4.121  0.3287  0.1244  0.8494
 9469SOL    HW129306   1.210   3.339   4.145  1.3319  1.5889 -1.1344
 9469SOL    HW229307   1.352   3.264   4.175  0.6298  0.8074  0.3616
 9470SOL     OW29308   5.211   2.815   2.600  0.3800 -0.8304  0.0060
 9470SOL    HW129309   5.283   2.826   2.532  0.1918  1.6095  0.1027
 9470SOL    HW229310   5.122   2.816   2.554  0.2788  0.1211  0.2081
 9471SOL     OW29311   1.220   2.487   5.858  0.3569 -0.2294 -0.1596
 9471SOL    HW129312   1.122   2.505   5.850 -0.0896 -2.9259 -2.2896
 9471SOL    HW229313   1.239   2.440   5.944 -0.0210  1.0634  0.6638
 9472SOL     OW29314   4.127   2.180   5.268 -0.3008 -0.3036  0.1315
 9472SOL    HW129315   4.202   2.236   5.233  2.4237 -3.0972  1.1146
 9472SOL    HW229316   4.110   2.203   5.363  1.9535 -2.0514  1.0500
 9473SOL     OW29317   2.330   4.222   5.293  0.0751 -0.6842 -0.8267
 9473SOL    HW129318   2.379   4.145   5.252  0.5012 -0.8070 -0.1025
 9473SOL    HW229319   2.361   4.235   5.387 -0.7528 -0.2897 -0.5976
 9474SOL     OW29320   3.654   5.961   4.437 -0.0093  0.1673 -0.2593
 9474SOL    HW129321   3.721   6.007   4.379 -0.1993  0.6508 -0.0934
 9474SOL    HW229322   3.632   6.019   4.516 -2.0483  0.8665 -1.2777
 9475SOL     OW29323   3.837   4.271   1.523  0.0286 -0.1867  0.3824
 9475SOL    HW129324   3.920   4.245   1.474  0.2061  1.4821 -0.2559
 9475SOL    HW229325   3.801   4.356   1.485 -1.6804 -0.5914  1.0107
 9476SOL     OW29326   2.734   2.126   6.032  0.3792 -0.1363 -0.3165
 9476SOL    HW129327   2.744   2.077   5.945 -0.6902  0.8829 -1.0416
 9476SOL    HW229328   2.800   2.201   6.035  0.0808  0.1347 -0.4756
 9477SOL     OW29329   0.803   1.336   1.988 -0.5891  0.4565  0.1641
 9477SOL    HW129330   0.790   1.435   1.991 -2.1308  0.2765  0.3902
 9477SOL    HW229331   0.804   1.305   1.892  0.1846  0.7076  0.0840
 9478SOL     OW29332   3.830   4.068   6.645 -0.2279  0.2913  0.2110
 9478SOL    HW129333   3.758   4.091   6.711 -0.5034 -0.5387  0.2116
 9478SOL    HW229334   3.795   4.000   6.580 -0.1868  1.5736 -1.2260
 9479SOL     OW29335   6.459   5.517   4.542 -0.6844 -0.5529  0.0489
 9479SOL    HW129336   6.409   5.603   4.555 -2.3336 -1.3891 -0.5512
 9479SOL    HW229337   6.396   5.445   4.513  0.5903 -2.0859  0.8858
 9480SOL     OW29338   0.468   3.102   5.141  0.0651  0.1199  0.2542
 9480SOL    HW129339   0.429   3.136   5.227 -0.0274 -0.8957  0.6234
 9480SOL    HW229340   0.449   3.168   5.068  1.9446  2.0448  1.3817
 9481SOL     OW29341   0.338   2.827   4.886  0.4950  0.6835  0.0640
 9481SOL    HW129342   0.344   2.914   4.836  0.3025  0.3204 -0.6068
 9481SOL    HW229343   0.287   2.841   4.971 -0.8382  0.9337 -0.7473
 9482SOL     OW29344   3.537   2.826   0.961  0.0981 -0.5053 -0.5072
 9482SOL    HW129345   3.574   2.884   1.034 -1.4534  1.1542 -0.9742
 9482SOL    HW229346   3.613   2.781   0.912  1.5258  2.3688 -1.1319
 9483SOL     OW29347   2.074   2.791   6.541 -0.1130 -0.6064  0.3538
 9483SOL    HW129348   2.066   2.714   6.605 -0.3214  0.1300  1.2389
 9483SOL    HW229349   2.170   2.813   6.528 -0.0946 -0.0116  1.3634
 9484SOL     OW29350   6.249   6.028   4.992 -0.0415 -0.1325  0.1132
 9484SOL    HW129351   6.161   5.991   4.965 -0.3227 -0.1822  1.0395
 9484SOL    HW229352   6.278   5.984   5.078  0.9538 -0.2300 -0.2532
 9485SOL     OW29353   6.110   6.262   2.719 -0.0550  0.5125 -0.3791
 9485SOL    HW129354   6.054   6.336   2.682 -1.1689 -0.0570  0.1001
 9485SOL    HW229355   6.127   6.194   2.648 -0.9136  0.1608 -0.2665
 9486SOL     OW29356   1.900   5.709   2.556 -0.3764  0.7380 -0.0136
 9486SOL    HW129357   1.938   5.779   2.615 -0.7542  0.0086  1.1369
 9486SOL    HW229358   1.876   5.748   2.467  0.8534  1.7013  0.0637
 9487SOL     OW29359   4.125   3.618   3.884  0.5634  0.0472  0.7541
 9487SOL    HW129360   4.067   3.682   3.834  1.4006 -1.2904 -2.1535
 9487SOL    HW229361   4.221   3.641   3.867  0.8742 -1.8048 -0.1858
 9488SOL     OW29362   0.772   0.341   0.792 -0.7566 -0.1132 -0.0071
 9488SOL    HW129363   0.845   0.382   0.737  0.3170 -1.7269  0.1586
 9488SOL    HW229364   0.733   0.411   0.852  0.0616  0.9754 -0.6838
 9489SOL     OW29365   1.197   5.264   0.433 -0.0841 -0.4355 -0.2402
 9489SOL    HW129366   1.274   5.239   0.492 -0.2195 -1.5744 -0.5407
 9489SOL    HW229367   1.220   5.347   0.382  0.8325 -0.6024 -0.1165
 9490SOL     OW29368   5.567   6.861   0.460 -0.4159  0.2038  0.2461
 9490SOL    HW129369   5.626   6.890   0.385  0.7741 -0.9678  0.6786
 9490SOL    HW229370   5.572   6.761   0.470 -0.2845  0.3483  2.0611
 9491SOL     OW29371   5.611   5.892   5.379  0.3124 -0.5131  0.8635
 9491SOL    HW129372   5.554   5.945   5.442 -1.4477 -0.1690 -0.9351
 9491SOL    HW229373   5.573   5.801   5.368  0.4869 -0.5008  0.1298
 9492SOL     OW29374   2.356   6.073   1.381  0.2313  0.0216  0.2171
 9492SOL    HW129375   2.392   6.009   1.312  0.4098  0.3263  0.0264
 9492SOL    HW229376   2.412   6.155   1.383  1.2756 -0.6712  1.9188
 9493SOL     OW29377   6.273   5.594   2.942 -0.6664  0.0882  0.3117
 9493SOL    HW129378   6.278   5.502   2.981 -0.1785 -0.7747 -1.6151
 9493SOL    HW229379   6.360   5.641   2.956 -0.5555 -0.1467  0.4132
 9494SOL     OW29380   3.922   3.071   5.055 -0.1541  0.2006 -0.3524
 9494SOL    HW129381   3.928   3.044   4.958  0.6728  0.5656 -0.4189
 9494SOL    HW229382   3.874   3.158   5.062 -2.4409 -1.0108 -0.1795
 9495SOL     OW29383   5.364   1.722   5.074  0.4217 -0.0560 -0.3815
 9495SOL    HW129384   5.400   1.644   5.022  1.3740 -0.4845  0.8646
 9495SOL    HW229385   5.317   1.688   5.155  0.0983  0.6456 -0.2705
 9496SOL     OW29386   6.005   3.677   1.081 -0.8975  0.6034  0.0765
 9496SOL    HW129387   5.917   3.708   1.116 -0.8095  0.0900  0.7799
 9496SOL    HW229388   6.031   3.592   1.127  0.9614  1.8540  1.4798
 9497SOL     OW29389   2.787   4.571   6.597  0.5211 -0.1895 -0.2962
 9497SOL    HW129390   2.775   4.516   6.514 -2.3075  0.0861 -0.1718
 9497SOL    HW229391   2.796   4.512   6.676  1.3601 -0.4544 -0.5831
 9498SOL     OW29392   3.692   4.699   6.732  0.6466 -0.9506  0.5071
 9498SOL    HW129393   3.680   4.724   6.828  0.8421 -1.1218  0.5758
 9498SOL    HW229394   3.719   4.603   6.726  2.1649 -0.5398  0.3679
 9499SOL     OW29395   5.245   3.894   6.464 -0.1402  0.2566  0.4025
 9499SOL    HW129396   5.185   3.883   6.542  0.1726  1.0951  0.7797
 9499SOL    HW229397   5.233   3.986   6.426  0.7405  0.3651  0.3600
 9500SOL     OW29398   5.219   5.809   0.154  0.5986  0.4624  0.6301
 9500SOL    HW129399   5.170   5.722   0.152 -0.9198  1.2948 -0.8540
 9500SOL    HW229400   5.215   5.848   0.245  0.2540 -0.4328  1.0104
 9501SOL     OW29401   5.718   3.512   4.953  0.4947 -0.2144  0.6471
 9501SOL    HW129402   5.742   3.608   4.940 -0.6560  0.0987  0.7553
 9501SOL    HW229403   5.723   3.489   5.050  1.0611 -0.3491  0.5893
 9502SOL     OW29404   3.645   3.405   5.783  0.1416  0.1848 -0.0115
 9502SOL    HW129405   3.673   3.441   5.694  0.3136 -2.0778 -0.9451
 9502SOL    HW229406   3.676   3.310   5.791 -0.4004  0.1572  2.2323
 9503SOL     OW29407   1.241   0.153   1.294 -0.1861 -0.3227 -0.0124
 9503SOL    HW129408   1.178   0.080   1.321 -0.7120  0.2601  0.4030
 9503SOL    HW229409   1.233   0.170   1.196 -1.6455  0.5876  0.2191
 9504SOL     OW29410   6.584   2.784   1.084 -0.1042  0.0808 -0.3050
 9504SOL    HW129411   6.572   2.874   1.042  0.6257  0.5578  0.4725
 9504SOL    HW229412   6.522   2.719   1.041 -1.8912  1.3213  0.2727
 9505SOL     OW29413   4.506   1.327   1.758 -0.4724 -0.2903  0.3057
 9505SOL    HW129414   4.408   1.312   1.769 -0.6225 -0.4415 -1.0152
 9505SOL    HW229415   4.532   1.414   1.801 -0.5809 -1.6597  3.3326
 9506SOL     OW29416   0.949   2.309   2.335 -0.3370  0.4140  0.4918
 9506SOL    HW129417   0.859   2.351   2.344  0.4075  2.1096  0.4167
 9506SOL    HW229418   1.018   2.380   2.329  1.1717 -0.8490  1.9867
 9507SOL     OW29419   0.832   4.281   6.495 -0.5437 -0.2487  0.3315
 9507SOL    HW129420   0.840   4.247   6.401 -0.2404 -1.9871  0.9346
 9507SOL    HW229421   0.782   4.213   6.550 -0.5426  0.6458  1.4694
 9508SOL     OW29422   3.950   1.539   4.642  0.2153 -0.3293 -0.5674
 9508SOL    HW129423   3.860   1.577   4.663 -0.0272 -0.5417 -1.2138
 9508SOL    HW229424   3.999   1.599   4.580  1.1316  0.5391  0.9240
 9509SOL     OW29425   3.892   0.891   0.481  0.6494 -0.4039  0.3752
 9509SOL    HW129426   3.809   0.842   0.510 -0.0903  0.2272 -0.6036
 9509SOL    HW229427   3.952   0.827   0.433 -0.0836 -0.4986 -0.4525
 9510SOL     OW29428   1.291   4.459   3.062 -0.3961  0.3768  0.9206
 9510SOL    HW129429   1.351   4.517   3.006  0.7915  0.5101  2.2672
 9510SOL    HW229430   1.198   4.465   3.027 -0.3713  3.2385  1.0433
 9511SOL     OW29431   3.157   0.597   2.736 -0.2650  0.4307  0.6662
 9511SOL    HW129432   3.167   0.541   2.654 -0.0793 -0.1578  1.0898
 9511SOL    HW229433   3.060   0.605   2.759 -0.4263  1.6764 -0.3470
 9512SOL     OW29434   0.354   3.698   4.834  0.1648  0.1753  0.2945
 9512SOL    HW129435   0.444   3.739   4.825  1.6032 -2.3537  1.9019
 9512SOL    HW229436   0.347   3.619   4.773 -0.4640 -0.3736  1.0498
 9513SOL     OW29437   1.854   3.700   2.054 -0.1560 -0.1972 -0.2424
 9513SOL    HW129438   1.784   3.769   2.039 -0.9618 -1.2679 -1.5671
 9513SOL    HW229439   1.820   3.631   2.118 -0.4812 -0.9191 -1.1734
 9514SOL     OW29440   3.119   1.661   4.870 -0.0446  0.0998 -0.8585
 9514SOL    HW129441   3.194   1.643   4.933 -1.0852  0.0183  0.3824
 9514SOL    HW229442   3.051   1.720   4.914 -0.6825  0.2498 -1.9877
 9515SOL     OW29443   0.669   5.848   4.555 -0.1625  0.0846 -0.1683
 9515SOL    HW129444   0.589   5.851   4.616 -1.0535 -0.1284 -1.2976
 9515SOL    HW229445   0.728   5.771   4.581 -0.7428 -0.2587  0.1544
 9516SOL     OW29446   0.232   4.985   3.374  0.0864 -0.1896  0.1190
 9516SOL    HW129447   0.248   5.047   3.297  1.4449  0.2235  0.7093
 9516SOL    HW229448   0.137   4.953   3.371 -1.0630  2.8131  0.4294
 9517SOL     OW29449   1.741   4.782   1.556 -0.1428  0.0406 -0.5024
 9517SOL    HW129450   1.791   4.759   1.639  0.7312  1.3574 -0.6295
 9517SOL    HW229451   1.654   4.824   1.581 -0.7150 -1.2303 -0.2796
 9518SOL     OW29452   2.113   3.189   3.060 -0.0128  0.2372  0.0277
 9518SOL    HW129453   2.124   3.139   3.146 -0.8630  0.9912  0.5928
 9518SOL    HW229454   2.022   3.170   3.022 -0.6555  1.9194  0.6488
 9519SOL     OW29455   2.986   3.467   3.429 -0.4008 -0.0903 -0.2685
 9519SOL    HW129456   2.963   3.411   3.509 -0.9396  0.4617 -0.0297
 9519SOL    HW229457   3.060   3.423   3.378  1.2032  0.4187  1.4976
 9520SOL     OW29458   5.409   0.652   0.102  0.2552  0.1552  0.1219
 9520SOL    HW129459   5.486   0.608   0.149 -0.6643 -1.2525  0.3476
 9520SOL    HW229460   5.391   0.605   0.016 -0.5829  0.2452  0.2413
 9521SOL     OW29461   3.354   0.925   0.674 -0.4278 -0.3706  0.2856
 9521SOL    HW129462   3.384   1.001   0.617  2.5945 -0.6541  1.2814
 9521SOL    HW229463   3.290   0.958   0.744 -1.2600  0.6763 -0.9251
 9522SOL     OW29464   2.776   4.688   0.449  0.3573 -0.0427 -0.2256
 9522SOL    HW129465   2.783   4.623   0.526  0.2541 -0.8044 -0.8489
 9522SOL    HW229466   2.748   4.777   0.484  0.8185 -0.2391  0.6923
 9523SOL     OW29467   1.456   6.675   2.365 -0.0735  0.4820  0.1373
 9523SOL    HW129468   1.510   6.639   2.440  1.0309  1.6559 -0.0542
 9523SOL    HW229469   1.359   6.661   2.383  0.2203 -0.1033  1.3189
 9524SOL     OW29470   2.812   3.195   1.844 -0.2385 -0.3995 -0.3110
 9524SOL    HW129471   2.737   3.164   1.903  1.2971 -3.7345  0.0918
 9524SOL    HW229472   2.882   3.239   1.900  0.9991 -3.1388  0.4817
 9525SOL     OW29473   2.557   3.249   6.374  0.0104  0.0411 -0.7958
 9525SOL    HW129474   2.626   3.270   6.304  0.0120  1.3781 -0.4193
 9525SOL    HW229475   2.468   3.238   6.331 -0.0545  1.2251 -0.9815
 9526SOL     OW29476   5.798   2.096   0.290 -0.1879  0.0995 -1.0909
 9526SOL    HW129477   5.860   2.161   0.333 -0.4343  1.6603 -2.9724
 9526SOL    HW229478   5.739   2.055   0.360  2.3773 -0.8902  0.6515
 9527SOL     OW29479   3.660   1.493   4.467  0.3504  0.8118 -0.6487
 9527SOL    HW129480   3.582   1.434   4.488 -0.6086  1.1591 -2.9417
 9527SOL    HW229481   3.684   1.547   4.548 -0.7439 -0.4496  0.5687
 9528SOL     OW29482   4.645   4.428   0.093 -0.3498 -0.3151  0.1782
 9528SOL    HW129483   4.569   4.378   0.133 -1.6619  0.8347 -0.8013
 9528SOL    HW229484   4.703   4.465   0.166 -0.7293 -1.1715  0.9297
 9529SOL     OW29485   4.620   6.962   2.765 -0.2183  0.0736 -0.2810
 9529SOL    HW129486   4.646   6.978   2.860 -0.9475  2.7182 -0.4533
 9529SOL    HW229487   4.664   7.030   2.706  0.3741 -1.6292 -1.9099
 9530SOL     OW29488   0.543   6.138   5.604 -0.1744 -0.0715 -0.4464
 9530SOL    HW129489   0.575   6.224   5.564 -1.1128  0.0923 -0.8736
 9530SOL    HW229490   0.573   6.061   5.548 -1.3045  0.1437 -1.3823
 9531SOL     OW29491   4.815   6.423   1.644  0.2698  0.3123 -0.1207
 9531SOL    HW129492   4.718   6.442   1.661  0.4918 -0.1147  1.9381
 9531SOL    HW229493   4.843   6.343   1.698  1.6843  0.2129 -0.9663
 9532SOL     OW29494   0.200   3.031   2.528 -0.0797 -0.1631  0.1171
 9532SOL    HW129495   0.211   3.126   2.499  0.2643 -0.4470 -0.7137
 9532SOL    HW229496   0.249   3.015   2.613  0.4460  0.2294 -0.1116
 9533SOL     OW29497   1.116   4.796   4.974 -0.5528 -0.3915 -0.3789
 9533SOL    HW129498   1.080   4.889   4.964 -1.6350 -0.7731 -0.2403
 9533SOL    HW229499   1.216   4.798   4.974 -0.5144  0.4945 -2.9918
 9534SOL     OW29500   5.299   5.485   4.139  0.2893  0.0604  0.0719
 9534SOL    HW129501   5.241   5.555   4.180  1.0417  0.2204  0.9157
 9534SOL    HW229502   5.265   5.394   4.166  0.9073  0.1641  1.3056
 9535SOL     OW29503   0.745   1.735   4.109 -0.5562 -0.1552 -0.0238
 9535SOL    HW129504   0.833   1.691   4.096 -0.4781  0.2185 -0.8013
 9535SOL    HW229505   0.680   1.704   4.039 -0.7331  0.3384 -0.0898
 9536SOL     OW29506   3.007   1.986   6.731  0.0593  0.0867 -0.5906
 9536SOL    HW129507   3.066   2.030   6.663  1.2305 -0.5193  0.0009
 9536SOL    HW229508   2.955   1.913   6.686 -1.1663  1.3865 -1.3642
 9537SOL     OW29509   1.621   6.160   4.209  0.2432 -0.2078  0.4080
 9537SOL    HW129510   1.703   6.217   4.209  0.1585  0.0106 -1.7573
 9537SOL    HW229511   1.647   6.064   4.197  0.2581  0.1070 -3.9050
 9538SOL     OW29512   5.594   6.968   4.033 -0.3405 -0.1962 -0.4177
 9538SOL    HW129513   5.652   6.910   4.091 -0.1198 -2.3824 -2.6692
 9538SOL    HW229514   5.639   7.057   4.020  0.4711 -0.3212  1.1956
 9539SOL     OW29515   3.807   2.913   2.699 -0.2301  0.5243 -0.1688
 9539SOL    HW129516   3.858   2.991   2.662  0.7701 -0.3912 -0.7787
 9539SOL    HW229517   3.831   2.830   2.648 -1.5535 -0.1290  0.2209
 9540SOL     OW29518   6.362   4.168   2.314 -0.0511  0.6766  0.5359
 9540SOL    HW129519   6.345   4.105   2.238 -0.2920  0.8080  0.4776
 9540SOL    HW229520   6.275   4.207   2.344 -0.0675 -0.0648  1.4892
 9541SOL     OW29521   1.510   5.300   5.834 -0.7349 -0.0483 -0.2654
 9541SOL    HW129522   1.449   5.268   5.907 -1.2917  0.5547 -0.4490
 9541SOL    HW229523   1.591   5.342   5.874  1.4743 -4.1005  0.0361
 9542SOL     OW29524   5.145   3.772   2.896 -0.7538  0.4290 -0.4328
 9542SOL    HW129525   5.234   3.737   2.865 -0.4912  1.0020 -0.3499
 9542SOL    HW229526   5.088   3.793   2.817 -0.4710  0.9191 -0.5078
 9543SOL     OW29527   0.554   1.131   6.534  0.1417 -0.4765  0.0851
 9543SOL    HW129528   0.535   1.219   6.490  0.7697  0.1715  1.0909
 9543SOL    HW229529   0.555   1.143   6.633  2.2378 -1.2022  0.1888
 9544SOL     OW29530   6.872   4.044   2.738  0.0716 -0.6050 -0.2696
 9544SOL    HW129531   6.890   4.132   2.693 -0.5759  0.1245  0.8416
 9544SOL    HW229532   6.775   4.023   2.731 -0.1350 -0.2161  1.2127
 9545SOL     OW29533   5.973   5.168   0.107 -0.0379  0.5073 -0.2560
 9545SOL    HW129534   6.007   5.074   0.118  1.3709  1.0997  0.6947
 9545SOL    HW229535   6.016   5.211   0.028 -0.6165  0.3956 -0.6385
 9546SOL     OW29536   4.116   3.491   0.371  0.0881 -0.1394 -0.0582
 9546SOL    HW129537   4.133   3.430   0.448 -1.0845  0.2267  0.5281
 9546SOL    HW229538   4.037   3.457   0.319  0.6096 -0.1494 -0.8502
 9547SOL     OW29539   3.743   1.228   4.507  0.4821 -1.1527 -0.0492
 9547SOL    HW129540   3.744   1.231   4.606 -0.1053  0.6031 -0.0591
 9547SOL    HW229541   3.714   1.317   4.471 -0.7063 -2.1777 -1.7658
 9548SOL     OW29542   6.486   5.842   4.526 -0.2058  0.1306  0.3284
 9548SOL    HW129543   6.586   5.852   4.527 -0.1966 -0.0239  0.7872
 9548SOL    HW229544   6.446   5.924   4.484  0.0653  0.6030  0.9750
 9549SOL     OW29545   5.336   2.164   1.889  0.1839 -0.4901  0.0112
 9549SOL    HW129546   5.370   2.087   1.834  0.4958 -0.9764  0.8642
 9549SOL    HW229547   5.362   2.150   1.985 -0.5382  0.2313  0.3193
 9550SOL     OW29548   0.471   1.389   0.757  0.4695  0.2814 -0.4342
 9550SOL    HW129549   0.540   1.334   0.710  0.8457 -0.8503  1.3601
 9550SOL    HW229550   0.510   1.477   0.782  0.6373  0.4141 -1.1364
 9551SOL     OW29551   6.073   2.929   5.380  0.2949 -0.1177 -0.7308
 9551SOL    HW129552   6.053   2.833   5.399 -0.2868  0.5138  2.3581
 9551SOL    HW229553   6.145   2.935   5.311  0.8481 -2.7693 -0.4979
 9552SOL     OW29554   3.073   0.181   0.442 -0.4645  0.4314  0.3358
 9552SOL    HW129555   3.151   0.174   0.505  2.1429  1.0573 -2.5574
 9552SOL    HW229556   3.030   0.271   0.454  1.4141  1.4556 -0.2291
 9553SOL     OW29557   3.968   1.806   0.611  0.2023 -0.1203 -0.0428
 9553SOL    HW129558   4.068   1.808   0.620  0.3627 -1.3254 -1.2716
 9553SOL    HW229559   3.943   1.743   0.537 -1.4729  0.1550  0.2709
 9554SOL     OW29560   1.047   1.034   2.300  0.2666  0.5762 -0.2259
 9554SOL    HW129561   1.037   1.129   2.272 -1.4358  0.2758 -0.7931
 9554SOL    HW229562   1.078   1.029   2.394 -1.6182  1.7519  0.5088
 9555SOL     OW29563   5.547   6.729   1.545  0.2761  0.2431  0.0719
 9555SOL    HW129564   5.566   6.633   1.530 -1.7290  0.0271 -1.5726
 9555SOL    HW229565   5.620   6.770   1.599  1.8174 -1.8763 -0.2985
 9556SOL     OW29566   2.322   3.717   5.738  0.0411 -0.0789  0.5731
 9556SOL    HW129567   2.318   3.816   5.723  3.0656  0.3525  1.7621
 9556SOL    HW229568   2.346   3.671   5.652 -1.2647  0.1914  0.0412
 9557SOL     OW29569   5.394   0.591   3.774  0.2044  0.7483 -0.0844
 9557SOL    HW129570   5.463   0.542   3.721 -3.1147 -2.7908 -1.5273
 9557SOL    HW229571   5.341   0.650   3.714  0.9670  2.3540  0.7574
 9558SOL     OW29572   5.285   0.287   6.823 -0.3025 -0.0037 -0.1376
 9558SOL    HW129573   5.364   0.245   6.779 -0.6463  0.1959 -0.9732
 9558SOL    HW229574   5.209   0.222   6.826 -0.7909  0.4824 -1.3095
 9559SOL     OW29575   1.221   5.344   5.944 -0.1051 -0.4274  0.4461
 9559SOL    HW129576   1.211   5.257   5.993 -0.4272  0.5662  2.2266
 9559SOL    HW229577   1.149   5.351   5.874 -0.4708 -1.3139  0.7175
 9560SOL     OW29578   0.524   6.736   2.097  0.2750 -0.3146 -0.4511
 9560SOL    HW129579   0.432   6.774   2.102  0.1251 -0.7424  0.1140
 9560SOL    HW229580   0.588   6.797   2.145  0.3542  0.1552 -1.1321
 9561SOL     OW29581   0.960   3.082   4.631  0.1898 -0.1301  0.4276
 9561SOL    HW129582   1.028   3.010   4.616 -0.0889 -0.4696  0.7771
 9561SOL    HW229583   0.979   3.159   4.570 -0.4945 -1.1834 -1.1808
 9562SOL     OW29584   1.654   5.088   2.806  0.0507  0.4788 -0.0627
 9562SOL    HW129585   1.711   5.125   2.733 -1.2301 -0.2623 -1.4861
 9562SOL    HW229586   1.713   5.044   2.874  1.2272  0.4352 -1.0630
 9563SOL     OW29587   2.292   3.604   6.783  0.4731  0.1913 -0.1807
 9563SOL    HW129588   2.377   3.557   6.806 -0.2543 -0.4676  1.3383
 9563SOL    HW229589   2.252   3.644   6.866 -1.5698 -1.0224 -0.5046
 9564SOL     OW29590   2.602   2.313   5.717 -0.2112  0.6676 -0.5748
 9564SOL    HW129591   2.512   2.271   5.707 -0.1245  0.4857 -0.6089
 9564SOL    HW229592   2.593   2.411   5.731 -0.4447  0.5614  0.0668
 9565SOL     OW29593   2.156   1.828   2.686 -0.5483  0.8338  0.3029
 9565SOL    HW129594   2.252   1.810   2.665 -0.6330  1.4849 -0.7272
 9565SOL    HW229595   2.144   1.838   2.785 -0.1285 -2.3578  0.7762
 9566SOL     OW29596   1.364   1.265   5.647 -0.1449 -0.0836 -0.2094
 9566SOL    HW129597   1.268   1.242   5.628 -0.0790 -2.0578  1.4943
 9566SOL    HW229598   1.406   1.192   5.701  1.3351  2.2780  2.0921
 9567SOL     OW29599   0.217   5.154   1.110 -0.2574 -0.9743 -0.2775
 9567SOL    HW129600   0.200   5.251   1.097  0.6101 -0.7281  0.3031
 9567SOL    HW229601   0.301   5.128   1.063 -0.2313 -1.3327 -0.0396
 9568SOL     OW29602   4.846   2.253   4.097 -0.4832 -0.0199  0.2919
 9568SOL    HW129603   4.932   2.233   4.145 -0.4110  0.6836  0.4625
 9568SOL    HW229604   4.863   2.258   3.998 -0.3872 -0.1735  0.2998
 9569SOL     OW29605   5.873   6.911   2.803  0.0104 -0.0260  0.1813
 9569SOL    HW129606   5.924   6.828   2.827  0.8984  1.2011  2.8789
 9569SOL    HW229607   5.934   6.977   2.760 -0.4900 -0.3552 -1.0985
 9570SOL     OW29608   0.896   2.803   2.922 -0.0233 -0.1016  0.3352
 9570SOL    HW129609   0.993   2.775   2.919  0.3238  1.1371 -0.9493
 9570SOL    HW229610   0.875   2.837   3.013  2.0081  3.6310 -0.3870
 9571SOL     OW29611   1.189   1.397   0.668  0.7502 -0.0170  0.1087
 9571SOL    HW129612   1.252   1.451   0.724 -0.5440  0.3958  1.2034
 9571SOL    HW229613   1.131   1.458   0.615  0.0769 -0.3559  0.4489
 9572SOL     OW29614   1.955   3.380   6.134  0.0860  0.1798 -0.3919
 9572SOL    HW129615   2.008   3.453   6.177  0.2296 -0.5838  0.7462
 9572SOL    HW229616   1.977   3.376   6.036  0.5909  1.1942 -0.3278
 9573SOL     OW29617   5.530   6.568   3.266 -0.0577 -0.0407 -0.4402
 9573SOL    HW129618   5.599   6.524   3.208  0.5212  1.0385 -0.5869
 9573SOL    HW229619   5.448   6.588   3.211  0.1820  0.2594 -0.6863
 9574SOL     OW29620   4.882   2.613   1.057  0.4963  0.1471 -0.0100
 9574SOL    HW129621   4.813   2.683   1.036  1.1835  0.3812 -1.5995
 9574SOL    HW229622   4.844   2.522   1.041  0.7992  0.3007 -1.8039
 9575SOL     OW29623   4.760   0.596   3.573 -0.2067  0.1417  0.1521
 9575SOL    HW129624   4.691   0.638   3.632 -1.2907  1.1902 -1.7930
 9575SOL    HW229625   4.720   0.520   3.522  0.2382  0.3619 -0.5366
 9576SOL     OW29626   2.449   1.238   5.224  0.2547  0.2578  0.2954
 9576SOL    HW129627   2.391   1.176   5.170  1.7263 -0.5905 -0.3866
 9576SOL    HW229628   2.402   1.264   5.308 -1.0207 -0.5555 -0.1462
 9577SOL     OW29629   0.421   5.734   1.636  0.6690  0.6896 -0.3592
 9577SOL    HW129630   0.420   5.650   1.690 -2.6608  0.3830 -0.6952
 9577SOL    HW229631   0.405   5.713   1.540 -0.6679  1.7089 -0.3859
 9578SOL     OW29632   1.671   2.239   2.915  0.2272  0.0569  0.1341
 9578SOL    HW129633   1.760   2.253   2.958  0.3368 -0.2739  0.0233
 9578SOL    HW229634   1.635   2.149   2.941 -0.3276  0.4132  0.6162
 9579SOL     OW29635   6.635   0.444   2.832  0.2558  0.2721 -0.3452
 9579SOL    HW129636   6.640   0.469   2.929 -0.8302 -0.6303 -0.0337
 9579SOL    HW229637   6.661   0.348   2.822  3.1514  1.0589 -1.3533
 9580SOL     OW29638   4.278   5.727   3.870 -0.4165  0.8957 -0.1822
 9580SOL    HW129639   4.296   5.629   3.866 -1.5336  0.7037 -1.2989
 9580SOL    HW229640   4.219   5.748   3.948  0.1215  0.7451  0.2713
 9581SOL     OW29641   4.766   3.398   6.619  0.0147 -0.5076  0.6324
 9581SOL    HW129642   4.729   3.425   6.708  0.5989 -1.0451  1.0466
 9581SOL    HW229643   4.710   3.438   6.546 -1.2032 -1.0552  1.2384
 9582SOL     OW29644   4.745   0.925   4.248 -0.0355  0.3523  0.3877
 9582SOL    HW129645   4.670   0.990   4.250 -0.2697  0.0789  0.4718
 9582SOL    HW229646   4.782   0.914   4.340 -1.8478 -1.7768  0.9412
 9583SOL     OW29647   4.374   5.111   0.673 -0.0859  0.2102  0.7497
 9583SOL    HW129648   4.441   5.092   0.744  2.1263  2.4555 -0.5510
 9583SOL    HW229649   4.338   5.204   0.686  0.2486  0.6025 -0.9054
 9584SOL     OW29650   0.725   4.912   4.142  1.0815  0.2804 -0.0846
 9584SOL    HW129651   0.807   4.968   4.125  1.9421 -1.4102 -1.9687
 9584SOL    HW229652   0.750   4.833   4.198  1.0951 -0.9202 -1.7076
 9585SOL     OW29653   3.735   0.317   6.452  0.6714 -0.1276 -0.0792
 9585SOL    HW129654   3.747   0.224   6.418  0.5017  0.5599 -2.1576
 9585SOL    HW229655   3.802   0.378   6.410  0.5155  0.7799  0.9255
 9586SOL     OW29656   1.956   4.795   3.051 -0.2071 -0.2015  0.1553
 9586SOL    HW129657   1.990   4.762   2.962 -1.1227 -1.3524  0.1979
 9586SOL    HW229658   2.027   4.847   3.097  0.2420  0.5555 -1.3202
 9587SOL     OW29659   2.674   6.451   4.845 -0.2331 -0.1286 -0.2338
 9587SOL    HW129660   2.627   6.364   4.844 -1.8663  0.7074  0.2191
 9587SOL    HW229661   2.754   6.445   4.905 -0.8675 -1.0575  0.5554
 9588SOL     OW29662   6.684   6.921   3.400  0.2499  0.0025 -0.3130
 9588SOL    HW129663   6.680   6.965   3.310  0.7640  3.0236  1.0389
 9588SOL    HW229664   6.778   6.893   3.418  0.3200  0.1943 -0.3735
 9589SOL     OW29665   6.832   2.002   5.947  0.3186  0.1962 -0.0439
 9589SOL    HW129666   6.736   2.029   5.948  0.2915  0.1326 -0.5580
 9589SOL    HW229667   6.887   2.075   5.907  0.7689  1.0686  2.0479
 9590SOL     OW29668   5.141   6.298   0.979  0.2901  0.2594 -0.1845
 9590SOL    HW129669   5.079   6.231   1.021  0.2309  1.2234  1.3753
 9590SOL    HW229670   5.133   6.293   0.880 -0.2900 -1.4823 -0.0886
 9591SOL     OW29671   4.038   1.411   0.712 -0.0584 -0.7853  0.0307
 9591SOL    HW129672   3.989   1.324   0.717 -0.8502 -0.3377  0.2636
 9591SOL    HW229673   3.974   1.484   0.688  0.7864 -0.4207 -1.2424
 9592SOL     OW29674   1.320   6.086   5.392  0.1727 -0.1491  0.5394
 9592SOL    HW129675   1.350   6.173   5.353 -1.8180  0.4826  0.2863
 9592SOL    HW229676   1.326   6.015   5.322 -0.0968  0.2381  0.1117
 9593SOL     OW29677   3.310   1.190   3.719  0.3276 -0.0593  0.0490
 9593SOL    HW129678   3.224   1.233   3.747  0.7857 -1.0127  3.3287
 9593SOL    HW229679   3.383   1.258   3.720  0.1142  0.1705  0.0535
 9594SOL     OW29680   5.723   0.009   5.215 -0.2288 -0.5120  0.3718
 9594SOL    HW129681   5.688   0.012   5.308 -0.4229 -1.7680  0.3537
 9594SOL    HW229682   5.805   0.066   5.208  0.0425 -0.7501  1.4206
 9595SOL     OW29683   2.361   1.912   3.911  0.0066 -0.0240 -0.4992
 9595SOL    HW129684   2.305   1.990   3.882  0.1787  0.2423 -0.1124
 9595SOL    HW229685   2.312   1.861   3.981 -0.6812 -1.0241 -1.6577
 9596SOL     OW29686   1.449   6.230   2.677  0.0971 -0.2370 -0.1285
 9596SOL    HW129687   1.359   6.264   2.650  0.5064  0.3627 -0.7439
 9596SOL    HW229688   1.498   6.300   2.729  0.4984 -0.2842 -0.4343
 9597SOL     OW29689   1.025   2.481   3.241  0.2351 -0.3149 -0.0838
 9597SOL    HW129690   1.120   2.489   3.212  1.4884 -1.0222  3.3811
 9597SOL    HW229691   1.011   2.393   3.287 -1.4856  0.6984  1.4493
 9598SOL     OW29692   2.600   4.672   2.698  0.1794  0.0348 -0.3223
 9598SOL    HW129693   2.698   4.665   2.683  0.0436 -1.7058 -0.6155
 9598SOL    HW229694   2.569   4.764   2.676  1.2667 -0.1767 -3.1165
 9599SOL     OW29695   4.601   6.668   5.438  0.3749 -0.8351  0.2769
 9599SOL    HW129696   4.578   6.713   5.525 -1.1619 -0.2070 -0.4214
 9599SOL    HW229697   4.557   6.578   5.435 -1.6863  0.1392 -0.8267
 9600SOL     OW29698   4.897   2.341   1.315 -0.0568 -0.0319 -0.5548
 9600SOL    HW129699   4.974   2.393   1.351 -1.4361  1.5674  0.2355
 9600SOL    HW229700   4.855   2.289   1.389 -2.4084  2.6354  0.1779
 9601SOL     OW29701   1.828   4.928   6.214 -0.1647  0.0543 -0.0087
 9601SOL    HW129702   1.779   4.894   6.295 -0.6695  2.3471  0.7302
 9601SOL    HW229703   1.926   4.932   6.235 -0.5055  3.2493  1.6735
 9602SOL     OW29704   3.849   5.357   6.526  0.0559  0.3283 -0.3254
 9602SOL    HW129705   3.896   5.303   6.596 -0.3704 -1.0964 -1.1021
 9602SOL    HW229706   3.751   5.355   6.541 -0.0398  0.0245 -0.9427
 9603SOL     OW29707   5.702   6.312   6.832  0.0028 -0.5089 -0.3520
 9603SOL    HW129708   5.731   6.405   6.810  1.0944 -0.9030 -0.6075
 9603SOL    HW229709   5.699   6.300   6.931 -2.2535  0.4353 -0.2427
 9604SOL     OW29710   4.496   6.895   3.633  0.3615 -0.0906 -0.2408
 9604SOL    HW129711   4.466   6.851   3.548  0.0684  1.1469 -0.8063
 9604SOL    HW229712   4.573   6.956   3.614  0.6324 -0.1978  0.4767
 9605SOL     OW29713   4.049   5.277   0.878 -0.2977 -0.1687  0.0260
 9605SOL    HW129714   3.964   5.296   0.829 -0.0728 -1.1096 -0.7443
 9605SOL    HW229715   4.046   5.323   0.967 -1.4915  0.0345 -0.0991
 9606SOL     OW29716   2.441   1.648   6.781  0.3538 -0.1345 -0.0622
 9606SOL    HW129717   2.406   1.560   6.813 -1.0433  0.0148 -1.1167
 9606SOL    HW229718   2.368   1.717   6.785  0.9329  0.5528 -0.9328
 9607SOL     OW29719   1.469   3.108   0.609  0.4041  0.3326 -0.4430
 9607SOL    HW129720   1.567   3.093   0.603  0.4607  1.1955 -3.5661
 9607SOL    HW229721   1.449   3.204   0.592 -1.0691 -0.1532 -1.6622
 9608SOL     OW29722   0.799   3.523   5.656 -0.4212 -0.2458  0.2472
 9608SOL    HW129723   0.820   3.618   5.680 -0.9192 -0.3656  1.2025
 9608SOL    HW229724   0.800   3.512   5.556 -0.1022  0.6931  0.1400
 9609SOL     OW29725   5.144   2.678   0.996 -0.0037  0.5893 -0.0703
 9609SOL    HW129726   5.046   2.658   0.995 -0.0207  0.6625  0.0758
 9609SOL    HW229727   5.164   2.742   1.071  0.0018  1.3504 -0.7151
 9610SOL     OW29728   0.409   4.576   3.341 -0.3474  0.2564  0.0050
 9610SOL    HW129729   0.427   4.674   3.349  0.1385  0.0398  2.3511
 9610SOL    HW229730   0.451   4.528   3.418 -0.8263 -1.7806 -0.9257
 9611SOL     OW29731   1.882   6.896   1.959 -0.1296  0.4772  0.1875
 9611SOL    HW129732   1.941   6.828   1.916 -2.0898 -0.1702 -1.6657
 9611SOL    HW229733   1.922   6.986   1.950  1.4211 -0.1329  0.6424
 9612SOL     OW29734   6.990   1.908   3.292 -0.1722  0.5870  1.2049
 9612SOL    HW129735   6.985   1.968   3.212 -1.8889  1.9846  2.2910
 9612SOL    HW229736   6.912   1.845   3.291  0.4034 -0.1345  1.2287
 9613SOL     OW29737   6.847   2.823   2.299 -0.1496  0.2181 -0.2850
 9613SOL    HW129738   6.842   2.879   2.217 -0.9724  1.4937  0.5922
 9613SOL    HW229739   6.903   2.869   2.368 -0.2306 -0.3820  0.1986
 9614SOL     OW29740   5.178   0.739   2.734 -0.2555 -0.1067 -0.1342
 9614SOL    HW129741   5.170   0.839   2.731 -0.4785 -0.0845  0.8165
 9614SOL    HW229742   5.086   0.699   2.734 -0.1714 -0.2959 -0.2668
 9615SOL     OW29743   2.639   3.393   1.364 -0.1345  0.4797  0.5479
 9615SOL    HW129744   2.568   3.453   1.401  0.7510  0.7049  1.9336
 9615SOL    HW229745   2.694   3.443   1.298  1.3030  1.6189  2.5090
 9616SOL     OW29746   4.133   2.064   5.988 -0.2307 -0.3575 -0.1296
 9616SOL    HW129747   4.060   2.006   5.954  0.9767 -1.7458 -0.4755
 9616SOL    HW229748   4.204   2.072   5.919 -0.4864  1.8157 -0.1971
 9617SOL     OW29749   1.289   5.579   3.479  0.5357 -0.3232  1.1669
 9617SOL    HW129750   1.337   5.664   3.498  2.7127 -0.9383 -1.0082
 9617SOL    HW229751   1.355   5.504   3.474 -0.8270 -1.4921 -0.5274
 9618SOL     OW29752   1.910   1.161   1.297 -0.3471 -0.4390  0.2255
 9618SOL    HW129753   2.001   1.122   1.282 -0.0541  0.1948  0.3164
 9618SOL    HW229754   1.841   1.090   1.284  0.2000 -1.1155  0.9259
 9619SOL     OW29755   2.317   0.722   6.752 -0.4239 -0.3413  0.2403
 9619SOL    HW129756   2.405   0.707   6.706 -0.2622  0.3041  0.3417
 9619SOL    HW229757   2.273   0.804   6.716 -0.0174  0.5319  1.6455
 9620SOL     OW29758   0.373   1.525   4.329 -0.2167 -0.0334  0.4555
 9620SOL    HW129759   0.419   1.613   4.332 -0.7513  0.3523 -1.4075
 9620SOL    HW229760   0.428   1.459   4.277 -1.9585  0.6699 -2.5589
 9621SOL     OW29761   1.422   2.189   3.395  0.1870  0.3986 -0.1786
 9621SOL    HW129762   1.415   2.289   3.399 -3.1774  0.2560  0.3769
 9621SOL    HW229763   1.334   2.150   3.370  1.4930 -2.4806 -0.7389
 9622SOL     OW29764   4.641   0.218   6.775 -0.5159 -0.4727  0.4705
 9622SOL    HW129765   4.627   0.228   6.677 -0.2355 -1.3648  0.3263
 9622SOL    HW229766   4.553   0.214   6.821 -0.8502 -3.9386 -0.1982
 9623SOL     OW29767   0.302   3.353   6.328 -0.0422  0.4465  0.3902
 9623SOL    HW129768   0.208   3.358   6.359  0.0755  1.1837  0.6516
 9623SOL    HW229769   0.305   3.314   6.236 -0.6504  0.9346  0.1599
 9624SOL     OW29770   6.354   2.897   4.664 -0.1192 -0.2452  0.7463
 9624SOL    HW129771   6.264   2.902   4.707  0.3922 -2.2086  2.2077
 9624SOL    HW229772   6.404   2.818   4.700  1.4972 -0.2939 -1.3863
 9625SOL     OW29773   4.903   5.892   2.832  0.0279 -0.0456 -0.8144
 9625SOL    HW129774   4.804   5.879   2.835  0.0346 -0.2594 -1.5020
 9625SOL    HW229775   4.929   5.932   2.745  0.6493 -0.8552 -1.0161
 9626SOL     OW29776   3.463   0.321   5.789 -0.5671  0.4192 -0.2086
 9626SOL    HW129777   3.462   0.420   5.807  1.4756  0.4359  0.0015
 9626SOL    HW229778   3.557   0.291   5.775 -1.1128 -1.6106  0.2401
 9627SOL     OW29779   2.747   0.203   0.007  0.6357 -0.1074  0.1662
 9627SOL    HW129780   2.765   0.301   0.016  1.0642 -0.0822 -0.8917
 9627SOL    HW229781   2.668   0.188  -0.052 -0.0432 -0.3809  1.1138
 9628SOL     OW29782   1.863   0.588   1.923  0.3495 -0.0318 -0.0354
 9628SOL    HW129783   1.778   0.535   1.915 -0.0978  0.4221  1.3973
 9628SOL    HW229784   1.902   0.575   2.014  0.9925  0.9880 -0.1508
 9629SOL     OW29785   2.968   1.036   0.128 -0.1036  0.5430 -0.3971
 9629SOL    HW129786   2.919   1.014   0.044 -0.3938  0.3903 -0.1874
 9629SOL    HW229787   2.939   1.125   0.162  0.1516  0.6896 -0.5599
 9630SOL     OW29788   0.854   3.859   6.193 -0.3923 -0.5523 -0.4316
 9630SOL    HW129789   0.866   3.806   6.110 -0.8645 -0.3335 -0.6429
 9630SOL    HW229790   0.764   3.839   6.233  0.0401 -1.0537  0.3169
 9631SOL     OW29791   6.169   5.126   1.622  0.1311  0.2755  0.4257
 9631SOL    HW129792   6.236   5.200   1.619 -0.8615  1.1636 -0.4921
 9631SOL    HW229793   6.210   5.042   1.586  0.9403  0.6337  0.4923
 9632SOL     OW29794   1.759   6.036   2.034 -0.1904  0.2100 -0.2528
 9632SOL    HW129795   1.786   5.942   2.055 -1.2857 -0.6297 -2.3122
 9632SOL    HW229796   1.671   6.056   2.077 -0.8373 -0.3626 -1.2807
 9633SOL     OW29797   6.701   4.528   6.121  0.1716  0.0349 -0.0358
 9633SOL    HW129798   6.695   4.478   6.035  1.3585  1.3020 -0.9095
 9633SOL    HW229799   6.773   4.488   6.178 -2.1722 -2.3146  1.5010
 9634SOL     OW29800   0.496   5.685   5.373 -0.1439  0.1782  0.3658
 9634SOL    HW129801   0.565   5.628   5.329 -0.5019  0.0056  0.0189
 9634SOL    HW229802   0.524   5.781   5.368 -0.7766  0.3174 -1.4265
 9635SOL     OW29803   6.130   4.006   6.242  0.4131  0.4143 -0.6595
 9635SOL    HW129804   6.178   4.018   6.329  0.6493  0.4859 -0.7975
 9635SOL    HW229805   6.036   4.039   6.251 -0.4829 -2.1774  0.4239
 9636SOL     OW29806   5.011   2.550   0.157 -0.1614  0.1307 -0.0982
 9636SOL    HW129807   5.008   2.450   0.163  0.8557  0.0820 -0.2304
 9636SOL    HW229808   5.059   2.586   0.237 -0.7414  0.5282  0.0699
 9637SOL     OW29809   0.142   2.275   5.331 -0.1585 -0.2198  0.4171
 9637SOL    HW129810   0.145   2.363   5.378  0.2400 -0.0332  0.0575
 9637SOL    HW229811   0.153   2.290   5.233 -1.4686 -0.5657  0.2110
 9638SOL     OW29812   6.080   2.399   0.826  0.2394  0.6249  0.3348
 9638SOL    HW129813   6.095   2.476   0.888  3.6287 -0.0900  0.5651
 9638SOL    HW229814   6.030   2.431   0.745  0.9777  2.9375  0.7203
 9639SOL     OW29815   2.557   6.774   1.329  0.4012 -0.1949 -0.1812
 9639SOL    HW129816   2.498   6.740   1.255 -0.0160  0.6124 -0.2336
 9639SOL    HW229817   2.653   6.759   1.305  0.4551  2.7491 -2.3339
 9640SOL     OW29818   2.465   1.186   2.694 -0.3474 -0.2151  0.0302
 9640SOL    HW129819   2.499   1.214   2.604 -1.4835  0.6071 -0.1599
 9640SOL    HW229820   2.531   1.124   2.736 -0.1773 -1.3079 -1.7248
 9641SOL     OW29821   5.442   4.846   5.495  0.1569  0.2448 -0.4926
 9641SOL    HW129822   5.369   4.793   5.539 -1.1034  1.1233 -1.4607
 9641SOL    HW229823   5.504   4.783   5.447  0.3065 -0.5464  0.6798
 9642SOL     OW29824   2.642   0.215   3.127  0.3007  0.0467  0.2581
 9642SOL    HW129825   2.612   0.251   3.216  0.4752  0.1944  0.2571
 9642SOL    HW229826   2.739   0.236   3.113  0.0444  0.8431 -0.3785
 9643SOL     OW29827   3.491   6.315   3.655 -0.3506  0.4600  0.6149
 9643SOL    HW129828   3.450   6.339   3.743  1.8960  2.1293  1.2980
 9643SOL    HW229829   3.590   6.305   3.666 -0.0640  0.2589 -1.6623
 9644SOL     OW29830   2.702   1.464   0.444  0.1628 -0.7954 -0.3449
 9644SOL    HW129831   2.709   1.526   0.366 -0.3472 -0.9211 -0.5000
 9644SOL    HW229832   2.653   1.381   0.416  0.3166 -1.0101  0.0106
 9645SOL     OW29833   2.592   4.941   0.053 -0.4415  0.4403 -0.5094
 9645SOL    HW129834   2.598   5.036   0.084 -1.9881 -0.0205  1.4327
 9645SOL    HW229835   2.653   4.884   0.109 -0.5726  0.0943 -0.7173
 9646SOL     OW29836   2.686   5.827   5.651  0.1994 -0.1153 -0.3510
 9646SOL    HW129837   2.596   5.845   5.692  0.5686  1.3292 -0.1191
 9646SOL    HW229838   2.692   5.731   5.625 -1.4319 -0.2337 -0.3983
 9647SOL     OW29839   6.408   3.897   5.835  0.2049 -0.2896  0.1139
 9647SOL    HW129840   6.474   3.972   5.841 -1.5949  1.5169 -1.1281
 9647SOL    HW229841   6.350   3.897   5.916  0.6412 -0.7779  0.4257
 9648SOL     OW29842   3.944   4.300   0.866  0.6522 -0.0843  0.4796
 9648SOL    HW129843   4.043   4.308   0.872  0.8344 -1.7824  0.3050
 9648SOL    HW229844   3.913   4.226   0.926 -0.2434 -1.0779 -1.1452
 9649SOL     OW29845   1.152   3.690   1.212  0.1795 -0.2905 -0.5745
 9649SOL    HW129846   1.193   3.758   1.273  0.5663  0.0977 -1.2590
 9649SOL    HW229847   1.223   3.629   1.177 -0.2347 -1.4217  0.4707
 9650SOL     OW29848   1.350   6.916   1.012  0.8166  0.2439  0.2530
 9650SOL    HW129849   1.334   6.881   0.919  1.5856  0.1161  0.1621
 9650SOL    HW229850   1.291   6.996   1.028  0.9144  0.4706 -0.4676
 9651SOL     OW29851   0.599   1.356   1.018  0.0046 -0.5786 -0.0654
 9651SOL    HW129852   0.524   1.381   0.957  0.4170  0.4176 -0.1905
 9651SOL    HW229853   0.561   1.321   1.104 -0.8157  3.3130  1.3867
 9652SOL     OW29854   2.387   2.503   1.042 -0.2306 -0.3125  0.0107
 9652SOL    HW129855   2.369   2.452   1.127  1.6753 -0.1491  0.5437
 9652SOL    HW229856   2.433   2.444   0.977  1.0211  0.3955  0.2277
 9653SOL     OW29857   6.599   5.023   3.186  0.4365 -0.3292 -0.2659
 9653SOL    HW129858   6.632   4.940   3.230  0.9242 -0.2607 -0.4950
 9653SOL    HW229859   6.584   5.094   3.255  1.8393 -0.0051 -0.2538
 9654SOL     OW29860   2.243   2.159   3.054 -0.4210 -0.3169  0.4302
 9654SOL    HW129861   2.241   2.257   3.076  1.3073  0.1579 -1.2141
 9654SOL    HW229862   2.268   2.147   2.958  0.8472 -2.4038  0.9507
 9655SOL     OW29863   6.688   2.248   0.814  0.7082 -0.1113  0.3766
 9655SOL    HW129864   6.754   2.322   0.797  0.4198  0.9052  3.0980
 9655SOL    HW229865   6.725   2.185   0.882  0.0240 -1.2093 -0.2384
 9656SOL     OW29866   2.961   2.276   0.419 -0.3528 -0.5053  0.2615
 9656SOL    HW129867   2.974   2.374   0.404  0.2495 -0.5016  0.7414
 9656SOL    HW229868   2.974   2.227   0.332 -1.1946 -0.1191 -0.0876
 9657SOL     OW29869   1.623   6.416   2.786 -0.2754  0.4964 -0.6429
 9657SOL    HW129870   1.656   6.322   2.791 -1.2925  0.1485 -0.1172
 9657SOL    HW229871   1.623   6.456   2.878 -0.5714  0.7482 -0.7509
 9658SOL     OW29872   4.847   1.720   3.800  0.1138  0.3846 -0.3976
 9658SOL    HW129873   4.844   1.749   3.705 -0.4649  0.6540 -0.3053
 9658SOL    HW229874   4.923   1.657   3.814  0.2573  0.4170 -1.0150
 9659SOL     OW29875   2.632   4.775   5.457  0.0855 -0.5989  0.0603
 9659SOL    HW129876   2.550   4.760   5.401  0.0249 -0.9657  0.2426
 9659SOL    HW229877   2.609   4.837   5.533  0.2832  0.2753 -0.5742
 9660SOL     OW29878   1.892   2.927   1.841 -0.1314 -0.0748  0.0430
 9660SOL    HW129879   1.855   2.943   1.933  0.1071 -0.5312  0.2238
 9660SOL    HW229880   1.979   2.976   1.832  0.7075 -1.3930  0.6718
 9661SOL     OW29881   4.128   0.841   6.832 -0.7282 -0.5026  0.3181
 9661SOL    HW129882   4.141   0.884   6.743  2.6766  0.0650  0.9551
 9661SOL    HW229883   4.056   0.889   6.882 -1.0089  0.7366 -1.1941
 9662SOL     OW29884   5.433   0.938   4.668 -0.0464  0.1765  0.0206
 9662SOL    HW129885   5.467   0.902   4.581 -1.3485 -0.4302 -0.2677
 9662SOL    HW229886   5.494   0.910   4.742  1.6521  1.5404 -0.7715
 9663SOL     OW29887   2.579   4.508   3.180 -0.5426 -0.1644 -0.2638
 9663SOL    HW129888   2.493   4.492   3.228 -0.5156  1.6812  0.4964
 9663SOL    HW229889   2.621   4.420   3.156 -1.6110 -1.1225  1.2091
 9664SOL     OW29890   0.955   0.432   0.618  0.3626 -0.5468  0.0146
 9664SOL    HW129891   1.003   0.519   0.620 -0.4337 -0.0938 -0.3420
 9664SOL    HW229892   0.902   0.425   0.534 -0.4911 -0.8847  0.5703
 9665SOL     OW29893   5.092   4.188   3.575  0.3798  0.2571 -0.2144
 9665SOL    HW129894   5.065   4.256   3.507  2.5468  2.4393  0.9573
 9665SOL    HW229895   5.062   4.218   3.665  0.4460 -0.8960  0.2046
 9666SOL     OW29896   5.593   3.859   4.132  0.0505  0.0327 -0.2853
 9666SOL    HW129897   5.502   3.870   4.090  0.1759 -1.0659 -0.9060
 9666SOL    HW229898   5.646   3.793   4.079  0.8304 -0.1477  0.6842
 9667SOL     OW29899   4.155   3.608   2.092 -0.8402  0.2037 -0.6272
 9667SOL    HW129900   4.225   3.678   2.078  0.0411 -0.1093  1.7723
 9667SOL    HW229901   4.196   3.517   2.088 -1.0142  0.0216  0.9300
 9668SOL     OW29902   1.740   2.325   4.721 -0.2798 -0.1228 -0.3797
 9668SOL    HW129903   1.746   2.372   4.633  3.0722 -0.7017 -0.6193
 9668SOL    HW229904   1.697   2.385   4.788 -0.5873  1.3400 -1.8157
 9669SOL     OW29905   1.257   6.227   5.614  0.5172 -0.3039  0.2570
 9669SOL    HW129906   1.302   6.157   5.557 -0.6349  0.7637 -2.1140
 9669SOL    HW229907   1.158   6.216   5.608  0.3553  0.7059  0.9635
 9670SOL     OW29908   0.624   5.682   0.269 -0.2856  1.0246 -0.1797
 9670SOL    HW129909   0.620   5.666   0.367 -0.0307  0.2129 -0.2948
 9670SOL    HW229910   0.591   5.774   0.249  0.3230  1.4553  0.7318
 9671SOL     OW29911   6.652   1.701   6.817  0.1813  0.0871 -0.3168
 9671SOL    HW129912   6.668   1.756   6.899 -0.2234  0.7044 -0.6434
 9671SOL    HW229913   6.561   1.659   6.822  1.1622 -2.0700  0.7734
 9672SOL     OW29914   1.266   0.029   6.197 -0.7226  0.1254 -0.0054
 9672SOL    HW129915   1.188   0.084   6.167 -0.2272  0.7944 -0.1135
 9672SOL    HW229916   1.264   0.020   6.297 -1.5287 -0.7934 -0.0949
 9673SOL     OW29917   3.659   1.021   6.144 -0.1517  0.1534  0.3101
 9673SOL    HW129918   3.692   0.926   6.142  0.1594  0.2729 -1.7925
 9673SOL    HW229919   3.564   1.024   6.114  0.7022  0.7612 -2.6131
 9674SOL     OW29920   2.761   0.829   0.466  0.1124 -0.8684  0.0887
 9674SOL    HW129921   2.855   0.798   0.453  0.2501 -0.9013  1.0313
 9674SOL    HW229922   2.761   0.925   0.492 -0.2272 -0.4282 -1.4424
 9675SOL     OW29923   0.496   2.519   0.851  0.1878  0.1915 -0.2934
 9675SOL    HW129924   0.496   2.608   0.805 -1.3905  0.1821 -0.3657
 9675SOL    HW229925   0.446   2.452   0.795 -1.9010  0.2046  1.4144
 9676SOL     OW29926   6.539   4.152   4.002 -0.1094 -0.4228 -0.4732
 9676SOL    HW129927   6.571   4.246   4.011 -2.1200  0.1237  1.9416
 9676SOL    HW229928   6.611   4.097   3.959  1.6127  1.8986 -0.7826
 9677SOL     OW29929   2.649   4.098   6.301 -0.1803  0.3381 -0.1559
 9677SOL    HW129930   2.739   4.141   6.298 -0.1031  0.1412 -0.7119
 9677SOL    HW229931   2.581   4.166   6.327  0.2601  0.2621  1.3198
 9678SOL     OW29932   3.442   3.972   3.521  0.0424  0.5673  0.8311
 9678SOL    HW129933   3.429   3.876   3.549  0.1948  0.7130  1.4205
 9678SOL    HW229934   3.468   3.975   3.424  0.4097 -0.0130  0.9030
 9679SOL     OW29935   5.721   5.210   1.766  0.6682 -0.4239  0.2691
 9679SOL    HW129936   5.786   5.255   1.705  1.1631 -0.3663  0.8305
 9679SOL    HW229937   5.654   5.277   1.797 -0.3958 -0.7363 -1.2458
 9680SOL     OW29938   3.379   4.428   6.969 -0.4952 -0.2657 -0.1339
 9680SOL    HW129939   3.476   4.445   6.988 -0.7050  0.9469 -0.0792
 9680SOL    HW229940   3.356   4.334   6.994  1.0173 -1.0609 -1.5262
 9681SOL     OW29941   0.660   0.550   4.162  0.3235 -0.0541  0.5374
 9681SOL    HW129942   0.689   0.495   4.084 -2.6545 -1.8191  0.5411
 9681SOL    HW229943   0.735   0.611   4.189  2.7618 -2.0274 -1.2774
 9682SOL     OW29944   1.781   2.588   2.505 -0.0788 -0.2888 -0.3676
 9682SOL    HW129945   1.756   2.499   2.544  0.5043 -0.3485 -0.1162
 9682SOL    HW229946   1.760   2.660   2.571 -0.3548 -0.2572 -0.4879
 9683SOL     OW29947   4.816   1.609   5.950  0.0486  0.4958  0.1766
 9683SOL    HW129948   4.910   1.577   5.956  0.4606  1.7852  1.2173
 9683SOL    HW229949   4.777   1.616   6.042 -0.9859  0.1946 -0.2250
 9684SOL     OW29950   1.472   4.442   2.195  0.0565 -0.3802 -0.0336
 9684SOL    HW129951   1.497   4.347   2.174 -0.1730 -0.2547 -0.9117
 9684SOL    HW229952   1.388   4.443   2.249 -1.5003 -0.6313 -2.3017
 9685SOL     OW29953   1.582   6.793   1.110  0.4367  0.1610  0.4016
 9685SOL    HW129954   1.503   6.855   1.107  0.7467  0.5442 -2.1466
 9685SOL    HW229955   1.658   6.839   1.155  0.0493  0.8447  0.3718
 9686SOL     OW29956   6.238   1.905   3.479  0.5670 -0.0787 -0.3881
 9686SOL    HW129957   6.190   1.959   3.409 -3.3407 -3.0290 -0.3933
 9686SOL    HW229958   6.189   1.913   3.566  1.8561 -0.9775  0.4444
 9687SOL     OW29959   0.778   1.267   4.123  0.1730  0.3097 -0.3920
 9687SOL    HW129960   0.790   1.177   4.082  2.5728  1.4335 -2.4762
 9687SOL    HW229961   0.868   1.305   4.145 -0.7756  2.2006  0.4560
 9688SOL     OW29962   0.356   6.818   3.504 -0.4717  0.0174  0.1423
 9688SOL    HW129963   0.285   6.773   3.449 -0.9931 -0.0087  0.8188
 9688SOL    HW229964   0.371   6.765   3.587  1.4513 -0.8180 -0.6820
 9689SOL     OW29965   3.877   4.756   6.157 -0.3449  1.0361  0.1585
 9689SOL    HW129966   3.943   4.709   6.217 -0.6706  1.0879  0.5633
 9689SOL    HW229967   3.814   4.810   6.213 -0.8881  0.7903 -0.2082
 9690SOL     OW29968   6.021   4.567   5.256 -0.0611  0.8608  0.0408
 9690SOL    HW129969   6.093   4.508   5.292  0.7906  3.4440  3.0187
 9690SOL    HW229970   5.932   4.528   5.279  0.3943 -0.5714 -0.5007
 9691SOL     OW29971   2.626   2.926   1.057  0.6373 -0.1615  0.0999
 9691SOL    HW129972   2.552   2.992   1.066  0.1297 -0.8813  1.4234
 9691SOL    HW229973   2.660   2.901   1.148  1.5357 -0.9249 -0.4287
 9692SOL     OW29974   1.315   4.754   0.842 -0.0647  0.2459 -0.1543
 9692SOL    HW129975   1.394   4.694   0.860 -0.0363 -0.3612 -2.1174
 9692SOL    HW229976   1.243   4.734   0.909  1.8158  1.6734  2.4920
 9693SOL     OW29977   5.499   6.914   6.948 -1.1407 -0.1534  0.1749
 9693SOL    HW129978   5.501   7.004   6.992 -0.5779 -0.8655  1.7080
 9693SOL    HW229979   5.457   6.921   6.858 -1.5637  1.5455  0.4725
 9694SOL     OW29980   0.777   0.430   5.221 -0.0590  0.1475 -0.9023
 9694SOL    HW129981   0.825   0.518   5.216  0.4054 -0.0713 -0.3138
 9694SOL    HW229982   0.810   0.370   5.148  1.3237 -0.3677  0.1061
 9695SOL     OW29983   0.198   3.809   6.228  0.5834  0.2930  0.5763
 9695SOL    HW129984   0.283   3.761   6.209 -0.4233 -2.2289  1.9598
 9695SOL    HW229985   0.202   3.850   6.319 -0.4860 -2.0991  1.8085
 9696SOL     OW29986   3.519   4.278   6.695  0.2136 -0.1630  0.3647
 9696SOL    HW129987   3.439   4.309   6.746  1.5024 -0.4899  2.7334
 9696SOL    HW229988   3.491   4.243   6.606 -2.3877 -1.0615  1.4539
 9697SOL     OW29989   0.385   5.215   5.765  0.1594 -0.0096 -0.2694
 9697SOL    HW129990   0.400   5.313   5.777 -1.2880  0.5699 -2.5436
 9697SOL    HW229991   0.379   5.194   5.667 -1.2253 -2.1016  0.2040
 9698SOL     OW29992   0.799   0.676   6.481  0.0851 -0.3393 -0.2532
 9698SOL    HW129993   0.769   0.628   6.564 -0.7995  0.7995  0.1187
 9698SOL    HW229994   0.725   0.734   6.448  1.9770  3.0627  1.0146
 9699SOL     OW29995   0.228   0.714   5.711  0.1587  0.3836  0.1121
 9699SOL    HW129996   0.313   0.754   5.746  1.9334  0.0433 -3.3289
 9699SOL    HW229997   0.249   0.629   5.662 -2.1792  0.3586 -0.9856
 9700SOL     OW29998   3.385   3.472   3.504 -0.0493  0.0473 -0.1043
 9700SOL    HW129999   3.336   3.555   3.532  1.0309  0.4655  0.5958
 9700SOL    HW230000   3.328   3.420   3.440 -1.2936  0.6410  0.4885
 9701SOL     OW30001   3.218   6.101   4.081  0.7510  0.1967  0.2908
 9701SOL    HW130002   3.300   6.141   4.123  0.3992  2.6151 -1.1548
 9701SOL    HW230003   3.192   6.154   4.001 -1.3329 -1.4813 -0.2358
 9702SOL     OW30004   4.509   0.012   0.251  0.3564  0.6432 -0.4526
 9702SOL    HW130005   4.539  -0.082   0.265  0.8381  1.1064  1.9854
 9702SOL    HW230006   4.570   0.057   0.186  0.9466 -0.3365 -0.5913
 9703SOL     OW30007   1.719   6.769   3.642 -0.3402  0.4619  0.3704
 9703SOL    HW130008   1.623   6.756   3.667  0.0603 -0.2895  1.6118
 9703SOL    HW230009   1.741   6.866   3.646 -0.6473  0.4978  1.7222
 9704SOL     OW30010   4.266   2.313   3.822  0.0082  0.0034 -0.3309
 9704SOL    HW130011   4.294   2.266   3.738 -0.0862  0.7054 -0.7625
 9704SOL    HW230012   4.167   2.321   3.825  0.0981  1.8917 -1.2286
 9705SOL     OW30013   2.791   3.962   0.869 -0.1416 -0.4365  0.1487
 9705SOL    HW130014   2.715   3.943   0.930 -1.5615  1.4148 -0.9503
 9705SOL    HW230015   2.841   4.041   0.902 -0.3961  0.0492 -0.6101
 9706SOL     OW30016   6.900   2.632   3.562  0.0148 -0.0827  0.0118
 9706SOL    HW130017   6.924   2.535   3.555  0.8078  0.1984 -1.4019
 9706SOL    HW230018   6.806   2.640   3.597 -0.0750 -1.3554  0.1091
 9707SOL     OW30019   2.577   6.268   2.375  0.0375 -0.4478  0.4257
 9707SOL    HW130020   2.570   6.367   2.363 -1.0885 -0.4205  1.2187
 9707SOL    HW230021   2.497   6.223   2.337  0.7178 -1.1017 -0.2705
 9708SOL     OW30022   1.327   3.164   1.411  0.2302  0.5132 -0.2768
 9708SOL    HW130023   1.346   3.225   1.489  0.6510 -0.0507  0.0698
 9708SOL    HW230024   1.322   3.219   1.327 -0.1918  1.1222  0.1384
 9709SOL     OW30025   0.848   5.924   2.664 -0.2589  0.5175  0.0686
 9709SOL    HW130026   0.947   5.931   2.679 -0.1773  0.0169 -0.2359
 9709SOL    HW230027   0.803   5.900   2.750  0.1376 -1.6332 -0.2652
 9710SOL     OW30028   6.967   5.592   3.805 -0.3980  0.2761  0.2110
 9710SOL    HW130029   7.011   5.651   3.873 -1.7162  0.1789  1.1810
 9710SOL    HW230030   6.868   5.601   3.813 -0.5857 -0.7750 -0.7955
 9711SOL     OW30031   2.505   2.024   5.871  0.3327 -0.2204 -0.1621
 9711SOL    HW130032   2.509   2.055   5.966 -0.1796  0.6541 -0.4184
 9711SOL    HW230033   2.596   2.026   5.831  0.3415  0.7625 -0.1098
 9712SOL     OW30034   6.455   5.173   3.779 -0.3191 -0.1004 -0.4235
 9712SOL    HW130035   6.490   5.163   3.685 -0.1160  0.4138 -0.4054
 9712SOL    HW230036   6.521   5.135   3.843 -0.6154 -0.7778 -0.5032
 9713SOL     OW30037   0.813   5.812   3.676  0.3268 -0.2569 -0.2534
 9713SOL    HW130038   0.912   5.803   3.690  0.7861  2.8580 -0.7967
 9713SOL    HW230039   0.769   5.833   3.762  0.0586 -1.8550  0.0271
 9714SOL     OW30040   0.429   3.387   2.773  0.2670 -0.2582 -0.5625
 9714SOL    HW130041   0.471   3.296   2.781 -0.2835 -1.0224 -4.5958
 9714SOL    HW230042   0.358   3.385   2.703  0.5874  3.4406 -1.1597
 9715SOL     OW30043   0.368   4.965   4.957 -0.5218  0.2291  0.0827
 9715SOL    HW130044   0.425   4.909   4.897 -1.4793 -0.8044  0.0978
 9715SOL    HW230045   0.273   4.962   4.926 -1.0447 -0.3394  1.6272
 9716SOL     OW30046   2.252   0.136   4.959 -0.2958 -0.3438  0.3706
 9716SOL    HW130047   2.244   0.038   4.974 -1.3651 -0.1146  1.4896
 9716SOL    HW230048   2.162   0.174   4.936  0.3672  0.1691 -1.5533
 9717SOL     OW30049   5.597   5.549   2.104  0.3028 -0.1929 -0.0994
 9717SOL    HW130050   5.696   5.554   2.092  0.4901 -1.3699  0.8079
 9717SOL    HW230051   5.552   5.588   2.023  1.4930 -0.0198 -0.7050
 9718SOL     OW30052   0.395   3.341   3.032 -0.7260 -0.1792 -0.3678
 9718SOL    HW130053   0.305   3.347   3.076 -0.3407  0.1320  0.4043
 9718SOL    HW230054   0.390   3.379   2.940 -1.7021 -1.4045 -0.8482
 9719SOL     OW30055   1.687   1.954   6.900 -0.1074 -0.2244  0.1149
 9719SOL    HW130056   1.673   2.042   6.947  0.5050 -0.3523  0.5351
 9719SOL    HW230057   1.683   1.969   6.801  0.1021  0.2949  0.1808
 9720SOL     OW30058   0.676   1.054   1.019  0.0394  0.2453  0.5048
 9720SOL    HW130059   0.767   1.014   1.018  0.3934  0.8206 -2.6835
 9720SOL    HW230060   0.683   1.153   1.004 -1.0885  0.5382  1.7026
 9721SOL     OW30061   0.463   1.760   2.724 -0.3281 -0.1967 -0.1603
 9721SOL    HW130062   0.413   1.737   2.808 -1.7191 -0.3750 -0.9958
 9721SOL    HW230063   0.422   1.712   2.647 -0.4376  1.5688 -1.2560
 9722SOL     OW30064   6.702   5.607   4.084 -0.1460 -0.1662 -0.2561
 9722SOL    HW130065   6.659   5.524   4.049 -1.0387  0.4822 -0.7424
 9722SOL    HW230066   6.646   5.645   4.158  0.0526  0.2173 -0.2992
 9723SOL     OW30067   5.394   6.920   4.216 -0.3619 -0.2872 -0.1214
 9723SOL    HW130068   5.297   6.920   4.193 -0.6483  0.9985  0.9680
 9723SOL    HW230069   5.448   6.943   4.135 -1.1224  1.1305 -0.2621
 9724SOL     OW30070   5.233   3.143   2.468  0.0124  0.2184  0.4167
 9724SOL    HW130071   5.331   3.164   2.472  0.2597 -0.9289  0.5803
 9724SOL    HW230072   5.181   3.226   2.490  0.9153  1.0388 -0.3827
 9725SOL     OW30073   5.809   3.455   5.727  0.2484 -1.0609  0.4449
 9725SOL    HW130074   5.882   3.522   5.731  0.4360 -1.0420 -2.1478
 9725SOL    HW230075   5.728   3.491   5.775  0.0192  1.4814 -1.6337
 9726SOL     OW30076   4.216   5.653   4.730 -0.0652  0.4967  1.0021
 9726SOL    HW130077   4.289   5.704   4.777 -0.1562  0.3883  1.2666
 9726SOL    HW230078   4.150   5.717   4.692  0.0329  0.5883  0.9859
 9727SOL     OW30079   0.079   6.724   5.079  0.9475  0.1717  0.3653
 9727SOL    HW130080   0.014   6.775   5.024 -1.5252 -2.1242  0.9364
 9727SOL    HW230081   0.139   6.670   5.019 -1.1023 -1.5798 -0.2361
 9728SOL     OW30082   3.156   5.882   5.960 -0.3538 -0.1519  0.4574
 9728SOL    HW130083   3.131   5.963   5.906 -1.7737 -0.3852  0.7263
 9728SOL    HW230084   3.121   5.800   5.915  1.1859 -0.6477  0.1233
 9729SOL     OW30085   3.687   0.659   2.318  0.5765  0.2171 -0.5317
 9729SOL    HW130086   3.629   0.736   2.289  0.9083  0.8670  0.4564
 9729SOL    HW230087   3.665   0.636   2.413 -0.1819 -1.5606 -1.1035
 9730SOL     OW30088   4.891   3.375   1.904  0.2351 -0.1193  0.0489
 9730SOL    HW130089   4.858   3.309   1.972  0.1374 -0.6302 -0.4929
 9730SOL    HW230090   4.816   3.400   1.843  0.4804 -0.1366 -0.2601
 9731SOL     OW30091   4.355   3.243   0.241  0.6375 -0.4969 -0.2043
 9731SOL    HW130092   4.413   3.161   0.235 -2.0854 -2.6585  0.6672
 9731SOL    HW230093   4.270   3.219   0.288 -0.4557  2.8083 -0.2953
 9732SOL     OW30094   4.972   5.899   5.286 -0.0657  0.3360  0.1528
 9732SOL    HW130095   4.966   5.961   5.208  3.1161 -1.3927 -1.7052
 9732SOL    HW230096   5.041   5.932   5.350  0.5390 -0.4419 -0.0744
 9733SOL     OW30097   5.104   4.116   4.019 -0.3804 -0.2400  0.1671
 9733SOL    HW130098   5.055   4.037   4.055 -1.5149  0.4848  0.2623
 9733SOL    HW230099   5.072   4.136   3.926  1.5099 -1.2300 -0.7525
 9734SOL     OW30100   6.833   3.078   6.587 -0.2314  0.2615  0.2615
 9734SOL    HW130101   6.753   3.064   6.530 -1.4472  2.1400  1.4290
 9734SOL    HW230102   6.844   3.175   6.608  1.8707 -0.0362  0.8474
 9735SOL     OW30103   3.337   4.862   1.095 -0.3023 -0.1310 -0.2076
 9735SOL    HW130104   3.325   4.853   0.996  2.4491  0.5544 -0.6875
 9735SOL    HW230105   3.406   4.932   1.114 -1.0733  0.0580  2.2415
 9736SOL     OW30106   4.710   1.561   2.242 -0.3055 -0.1413 -0.3464
 9736SOL    HW130107   4.616   1.576   2.273 -0.2838 -1.3301  0.3901
 9736SOL    HW230108   4.746   1.479   2.288  1.3997  0.8139  0.0643
 9737SOL     OW30109   4.737   5.202   3.311  0.4892 -0.6731  0.2526
 9737SOL    HW130110   4.795   5.263   3.257  0.6664  0.9690  2.1992
 9737SOL    HW230111   4.793   5.150   3.374  0.1681 -1.7272 -0.3124
 9738SOL     OW30112   2.900   1.145   2.863  0.1726  0.0313 -0.6973
 9738SOL    HW130113   2.826   1.183   2.808  1.2015  1.2619 -1.2940
 9738SOL    HW230114   2.914   1.049   2.838 -0.0261  0.2909 -1.8992
 9739SOL     OW30115   6.821   3.124   1.117  0.5866 -0.3534 -0.1354
 9739SOL    HW130116   6.802   3.043   1.172  1.6540  0.2680  1.2088
 9739SOL    HW230117   6.918   3.123   1.090  1.2547  1.5880  1.8986
 9740SOL     OW30118   5.233   4.036   3.298  0.2131  0.5253  0.5535
 9740SOL    HW130119   5.176   3.980   3.238  0.9952 -0.4817  0.7341
 9740SOL    HW230120   5.282   4.104   3.244 -0.7719  1.0953  0.3401
 9741SOL     OW30121   4.917   1.860   4.577 -0.2344 -0.1294 -0.1855
 9741SOL    HW130122   4.879   1.903   4.495 -0.4114 -1.0961 -0.6240
 9741SOL    HW230123   5.013   1.886   4.586  0.0987 -0.8557 -1.3265
 9742SOL     OW30124   4.959   1.967   3.336 -0.0744 -0.4138 -0.1294
 9742SOL    HW130125   5.010   1.901   3.282 -1.0534 -0.2843 -1.2353
 9742SOL    HW230126   4.893   2.015   3.278  1.7401  2.7813  0.1769
 9743SOL     OW30127   0.834   1.927   0.052 -0.3463 -0.2551 -0.0066
 9743SOL    HW130128   0.773   1.988   0.002  1.1338  1.8265  0.5964
 9743SOL    HW230129   0.789   1.900   0.138 -1.0424 -0.0349 -0.2901
 9744SOL     OW30130   0.842   0.059   1.319  0.1284  0.6168  0.0539
 9744SOL    HW130131   0.927   0.008   1.309  0.0834  0.5414  0.0500
 9744SOL    HW230132   0.820   0.104   1.232  0.6018  1.3329  0.2966
 9745SOL     OW30133   0.256   6.855   4.278 -0.2256 -0.8960  0.2130
 9745SOL    HW130134   0.257   6.955   4.278  0.1166 -0.8855  1.4038
 9745SOL    HW230135   0.321   6.820   4.346  0.1842 -1.9449 -0.6795
 9746SOL     OW30136   5.748   6.136   5.501  0.1162 -0.4163 -0.1488
 9746SOL    HW130137   5.685   6.059   5.485  0.7497 -0.8732 -0.5154
 9746SOL    HW230138   5.841   6.108   5.477  0.7545 -0.3215  2.0214
 9747SOL     OW30139   6.963   1.370   4.870  0.0612 -1.1646  0.0449
 9747SOL    HW130140   6.870   1.408   4.874  0.1324 -1.0868  1.0752
 9747SOL    HW230141   6.998   1.357   4.962  1.7185  0.3564 -0.3104
 9748SOL     OW30142   0.697   5.390   5.662  0.0694  0.1532 -0.2506
 9748SOL    HW130143   0.715   5.335   5.743 -2.7663  0.8383  0.9416
 9748SOL    HW230144   0.639   5.339   5.599 -1.0006  1.0132 -0.0005
 9749SOL     OW30145   1.826   5.214   6.530  0.1384 -0.6979  0.1475
 9749SOL    HW130146   1.776   5.181   6.610 -0.3154 -0.2099  0.0731
 9749SOL    HW230147   1.788   5.303   6.502 -0.2758 -1.2525 -1.1146
 9750SOL     OW30148   3.242   4.928   2.608 -0.2708 -0.1290 -0.1981
 9750SOL    HW130149   3.183   4.934   2.528 -1.7715 -1.6544  0.7303
 9750SOL    HW230150   3.331   4.891   2.581 -1.1599 -1.7867 -1.0168
 9751SOL     OW30151   6.728   0.174   0.398 -0.7248 -0.0223 -0.7202
 9751SOL    HW130152   6.731   0.089   0.451 -0.7104 -0.5074 -1.4891
 9751SOL    HW230153   6.633   0.193   0.373 -0.5736 -0.5798 -1.7601
 9752SOL     OW30154   1.421   1.555   5.668  0.0783 -0.3218 -0.8814
 9752SOL    HW130155   1.436   1.456   5.664 -0.7099 -0.4643 -0.5055
 9752SOL    HW230156   1.509   1.602   5.674  0.6053 -0.8675 -3.3826
 9753SOL     OW30157   1.307   6.869   6.000 -0.1002 -0.1085 -0.3019
 9753SOL    HW130158   1.368   6.804   6.046 -1.3696 -0.6535  0.6807
 9753SOL    HW230159   1.291   6.948   6.059  0.1909  0.3674 -0.8454
 9754SOL     OW30160   1.133   2.983   6.399  0.5588 -0.1137 -0.7146
 9754SOL    HW130161   1.041   3.023   6.393  0.7656  0.6310  0.6904
 9754SOL    HW230162   1.148   2.948   6.492  1.7354 -0.1404 -0.8995
 9755SOL     OW30163   4.261   4.457   5.542 -0.1828 -0.1061 -0.1508
 9755SOL    HW130164   4.225   4.399   5.615 -1.9877  0.8124 -0.2465
 9755SOL    HW230165   4.192   4.467   5.470  1.1375 -0.0921 -1.4703
 9756SOL     OW30166   4.214   3.466   6.268  0.1833 -0.0030 -0.1457
 9756SOL    HW130167   4.238   3.475   6.365 -2.2218  0.8533  0.4392
 9756SOL    HW230168   4.218   3.555   6.224 -0.4999 -0.0881 -0.3854
 9757SOL     OW30169   6.805   0.607   3.486  0.2554 -0.5127  0.2077
 9757SOL    HW130170   6.844   0.643   3.402  2.1523  2.7462  2.2448
 9757SOL    HW230171   6.877   0.563   3.541 -0.3333 -0.2386  1.2364
 9758SOL     OW30172   4.160   0.562   6.385  0.4724  0.2416 -0.3814
 9758SOL    HW130173   4.223   0.485   6.369 -0.4082 -0.7669  0.8756
 9758SOL    HW230174   4.116   0.587   6.299  3.0445  1.4393 -1.4688
 9759SOL     OW30175   3.289   0.152   3.051  0.9618  0.3801  0.2288
 9759SOL    HW130176   3.226   0.076   3.035  1.6787 -0.0151 -0.8367
 9759SOL    HW230177   3.367   0.119   3.105  1.1087  0.4288  0.0488
 9760SOL     OW30178   5.137   4.298   5.765  0.6322 -0.0945  0.1556
 9760SOL    HW130179   5.120   4.219   5.706  0.9420  0.1472 -0.2594
 9760SOL    HW230180   5.063   4.364   5.756  0.5430 -0.1824  0.2462
 9761SOL     OW30181   3.934   6.368   3.439 -0.4173 -0.0688  0.4933
 9761SOL    HW130182   3.921   6.438   3.368 -3.0724 -0.0120  0.9311
 9761SOL    HW230183   4.022   6.382   3.484  0.3782  1.1964 -1.3522
 9762SOL     OW30184   4.595   6.761   4.137  0.9852  1.0650  0.4941
 9762SOL    HW130185   4.636   6.673   4.113 -0.0296  0.4627  0.9056
 9762SOL    HW230186   4.630   6.791   4.226  1.5875  1.2437  0.1963
 9763SOL     OW30187   2.706   2.440   1.413 -0.0430 -0.0613  0.0832
 9763SOL    HW130188   2.694   2.345   1.387 -1.3656  0.4429 -1.2345
 9763SOL    HW230189   2.624   2.474   1.459 -0.0366  0.7662 -0.4906
 9764SOL     OW30190   1.431   3.133   4.602 -0.1961  0.4405  1.0390
 9764SOL    HW130191   1.506   3.080   4.642  0.4145  2.9062  3.3918
 9764SOL    HW230192   1.405   3.091   4.515  3.5961 -0.7927  0.2874
 9765SOL     OW30193   6.295   2.487   5.147 -0.4244 -0.3298 -0.2469
 9765SOL    HW130194   6.358   2.469   5.072 -1.4209 -1.6501 -0.8068
 9765SOL    HW230195   6.338   2.461   5.233  0.9627  1.7689 -0.2148
 9766SOL     OW30196   2.498   0.809   4.230  0.2737  0.1016 -0.1752
 9766SOL    HW130197   2.482   0.726   4.284  1.3761  0.4859  0.7658
 9766SOL    HW230198   2.413   0.833   4.182 -0.9536  0.0806  1.8595
 9767SOL     OW30199   6.115   0.172   4.924  0.3973 -0.1520 -0.3671
 9767SOL    HW130200   6.047   0.154   4.853 -0.6185 -0.1495  0.5813
 9767SOL    HW230201   6.203   0.133   4.897  0.3330  0.8418 -2.1381
 9768SOL     OW30202   6.154   0.623   1.336  0.0386  0.4233 -0.1320
 9768SOL    HW130203   6.222   0.571   1.387  1.0771  1.0876 -0.7938
 9768SOL    HW230204   6.117   0.696   1.394 -0.4333 -0.1987  0.3622
 9769SOL     OW30205   5.980   2.683   5.404  0.0504  0.9663 -0.0352
 9769SOL    HW130206   5.960   2.647   5.313  1.2853  1.7448 -0.6485
 9769SOL    HW230207   5.895   2.696   5.454 -0.6275  0.2247 -0.9604
 9770SOL     OW30208   6.824   3.073   4.029 -0.7186  0.6607  0.5265
 9770SOL    HW130209   6.758   3.060   4.103 -1.3286 -0.1714 -0.1505
 9770SOL    HW230210   6.780   3.117   3.952  0.0270  1.9403  0.7922
 9771SOL     OW30211   2.196   6.892   4.534 -0.3393  0.0782  0.2222
 9771SOL    HW130212   2.274   6.835   4.506  1.0562  2.9639 -2.3984
 9771SOL    HW230213   2.124   6.884   4.465 -0.8941  0.1226  0.7945
 9772SOL     OW30214   6.648   6.813   0.980  0.2516  0.3149 -0.4478
 9772SOL    HW130215   6.673   6.874   1.055 -0.1690 -0.1921  0.1104
 9772SOL    HW230216   6.706   6.732   0.981  0.6158  0.5648 -1.0113
 9773SOL     OW30217   0.093   4.358   2.464  0.1107 -0.3290 -0.1778
 9773SOL    HW130218   0.083   4.370   2.366 -0.3077 -3.7101 -0.6986
 9773SOL    HW230219   0.004   4.365   2.508  0.2938  1.1562 -0.0081
 9774SOL     OW30220   5.115   5.285   5.354  0.2890  0.0916  0.5278
 9774SOL    HW130221   5.056   5.328   5.422  0.5433 -0.3577  1.0398
 9774SOL    HW230222   5.159   5.356   5.299 -0.7530  0.4319  0.1030
 9775SOL     OW30223   2.184   1.092   6.008  0.1861  0.6179 -0.2522
 9775SOL    HW130224   2.201   1.177   6.059  1.3613 -0.1692  0.7310
 9775SOL    HW230225   2.270   1.058   5.970 -0.4400  0.3998 -1.5506
 9776SOL     OW30226   1.429   4.052   5.665  0.3815  0.5944  0.0693
 9776SOL    HW130227   1.377   4.136   5.653  2.1655  2.2541  2.7295
 9776SOL    HW230228   1.493   4.042   5.589 -1.5862  0.1948 -1.5998
 9777SOL     OW30229   6.928   4.979   6.216  0.5992 -1.2895  0.3109
 9777SOL    HW130230   6.971   5.069   6.212  0.4239 -1.1081  1.9729
 9777SOL    HW230231   6.847   4.978   6.157  2.0136 -1.1979 -1.7385
 9778SOL     OW30232   4.943   0.912   3.523  0.0668  0.3187 -0.1708
 9778SOL    HW130233   5.034   0.904   3.563  0.9974  3.3588 -1.4237
 9778SOL    HW230234   4.921   0.829   3.472  2.2092 -0.3798 -0.0251
 9779SOL     OW30235   3.531   1.685   6.950  0.3147  0.0763 -0.6057
 9779SOL    HW130236   3.433   1.700   6.943  0.1058 -0.4214  0.8979
 9779SOL    HW230237   3.549   1.595   6.989  1.3635  0.2534 -0.6481
 9780SOL     OW30238   1.622   2.761   2.071 -0.3997  0.2754 -0.0799
 9780SOL    HW130239   1.619   2.686   2.137 -0.3745  0.4747  0.1467
 9780SOL    HW230240   1.700   2.820   2.092 -0.1349  0.0959 -0.5500
 9781SOL     OW30241   6.147   6.751   4.544  0.4253  0.4209  0.2328
 9781SOL    HW130242   6.169   6.654   4.552  1.7963  0.6443 -0.5480
 9781SOL    HW230243   6.229   6.802   4.518 -0.8086  1.4598 -1.8424
 9782SOL     OW30244   6.144   1.011   6.008  0.0039 -0.0554 -0.8119
 9782SOL    HW130245   6.171   0.971   6.095 -2.4034  0.9183  0.4596
 9782SOL    HW230246   6.189   1.100   5.996 -1.5652  1.0127  0.7242
 9783SOL     OW30247   5.978   1.488   0.147 -0.2502 -0.5445 -0.5559
 9783SOL    HW130248   6.064   1.441   0.127 -0.7701 -1.8351  0.1205
 9783SOL    HW230249   5.927   1.437   0.217 -0.6224  1.3022  0.5986
 9784SOL     OW30250   6.841   2.434   3.122 -0.2011 -0.0255 -0.0310
 9784SOL    HW130251   6.923   2.377   3.113  0.7331  1.4100 -1.1050
 9784SOL    HW230252   6.858   2.505   3.190 -0.1255  0.9189 -1.0027
 9785SOL     OW30253   0.706   3.562   1.230  0.5757  0.3793  0.4980
 9785SOL    HW130254   0.710   3.488   1.163 -1.0487  1.3847 -0.7935
 9785SOL    HW230255   0.626   3.620   1.212  1.0975  1.7512  2.2143
 9786SOL     OW30256   0.751   1.052   5.038 -0.3034 -0.1531  0.0850
 9786SOL    HW130257   0.755   1.052   4.938  1.1680 -0.7899  0.1090
 9786SOL    HW230258   0.687   0.982   5.069 -0.6220 -0.0847 -0.4139
 9787SOL     OW30259   6.116   5.124   1.252  0.9453 -0.6168 -0.7604
 9787SOL    HW130260   6.034   5.144   1.198  0.7670  1.3035  0.1066
 9787SOL    HW230261   6.093   5.062   1.327  0.0753  0.4035 -0.1427
 9788SOL     OW30262   6.143   0.348   1.090 -0.0496 -0.0791 -0.3143
 9788SOL    HW130263   6.138   0.323   1.187 -0.8105 -1.6694 -0.7325
 9788SOL    HW230264   6.051   0.366   1.056  0.0504 -0.8730 -1.0490
 9789SOL     OW30265   1.574   6.470   3.044  0.2260 -0.3585  0.1827
 9789SOL    HW130266   1.597   6.557   3.089 -0.6917  0.3251 -0.6347
 9789SOL    HW230267   1.498   6.427   3.093 -1.9751  1.2376 -1.5879
 9790SOL     OW30268   0.533   3.018   3.834 -0.2794 -0.2850 -0.0246
 9790SOL    HW130269   0.601   3.079   3.794  0.0873 -0.6421  0.0390
 9790SOL    HW230270   0.485   2.968   3.762 -0.2793 -0.2341 -0.0592
 9791SOL     OW30271   1.041   2.857   5.893  0.0050  0.2140  0.1803
 9791SOL    HW130272   1.035   2.940   5.837 -1.2612 -0.7673 -1.2334
 9791SOL    HW230273   1.004   2.875   5.984 -1.5610  0.8482 -0.5572
 9792SOL     OW30274   3.008   4.986   5.105  0.5419  0.4141  0.0294
 9792SOL    HW130275   2.932   4.937   5.148 -0.4790  1.8218 -0.1081
 9792SOL    HW230276   3.039   4.935   5.025 -1.0502  0.3690 -0.5970
 9793SOL     OW30277   3.639   6.327   3.386 -0.2136 -0.0042 -0.1662
 9793SOL    HW130278   3.580   6.327   3.467 -1.5279  3.6016 -0.9594
 9793SOL    HW230279   3.735   6.336   3.415 -0.1974 -2.7855  1.0050
 9794SOL     OW30280   3.965   2.964   0.964 -0.1225  0.5251  0.1983
 9794SOL    HW130281   3.903   2.967   0.885  0.6179  0.3412 -0.3965
 9794SOL    HW230282   3.971   3.056   1.005  0.2429  0.8361 -0.5448
 9795SOL     OW30283   0.944   4.880   1.223 -0.0366  0.0719  0.1772
 9795SOL    HW130284   1.030   4.861   1.269  0.3150 -0.1323 -0.5431
 9795SOL    HW230285   0.918   4.975   1.238 -0.2466 -0.1531  1.2921
 9796SOL     OW30286   2.852   6.287   0.607  0.3458  0.1400  0.3951
 9796SOL    HW130287   2.870   6.330   0.518 -1.1449  0.2601  0.1192
 9796SOL    HW230288   2.755   6.297   0.629  0.5170 -0.7049  1.6130
 9797SOL     OW30289   6.199   4.512   3.677 -0.1289  0.1353 -0.0380
 9797SOL    HW130290   6.282   4.459   3.661 -0.1327  0.1691 -0.1696
 9797SOL    HW230291   6.223   4.607   3.698 -0.0638 -0.1653  1.3119
 9798SOL     OW30292   3.054   1.353   2.212  0.2325  0.0399  0.1667
 9798SOL    HW130293   3.020   1.315   2.298 -0.3466 -2.6261 -1.1359
 9798SOL    HW230294   3.126   1.294   2.176  1.3281  1.7841 -0.6082
 9799SOL     OW30295   3.848   3.389   2.835 -0.6906  0.1621 -0.3611
 9799SOL    HW130296   3.764   3.341   2.808  0.4764 -2.7524  0.7663
 9799SOL    HW230297   3.919   3.374   2.766 -0.1828 -0.0653  0.2078
 9800SOL     OW30298   3.991   5.395   5.787 -0.0737 -0.4409  0.3447
 9800SOL    HW130299   4.067   5.457   5.808 -0.3271  0.0088 -0.0461
 9800SOL    HW230300   4.026   5.317   5.736  0.2387 -0.5928  0.7852
 9801SOL     OW30301   4.005   5.430   1.441  0.6884  0.1439 -0.1956
 9801SOL    HW130302   4.035   5.381   1.359  1.8852  1.9868 -0.9422
 9801SOL    HW230303   4.048   5.521   1.442 -0.5816  0.7700  1.6578
 9802SOL     OW30304   0.199   6.615   2.888 -0.5726 -0.0468 -0.3066
 9802SOL    HW130305   0.157   6.653   2.971  0.1426 -1.6871  0.8568
 9802SOL    HW230306   0.296   6.597   2.906  0.0376  1.2445 -2.1042
 9803SOL     OW30307   5.916   0.732   4.757 -0.1192  0.3147 -0.2652
 9803SOL    HW130308   5.995   0.756   4.813 -0.4039  0.2898  0.1478
 9803SOL    HW230309   5.911   0.632   4.748  1.0019  0.3529 -1.8920
 9804SOL     OW30310   4.673   4.469   4.662  0.6717  0.7486 -0.8821
 9804SOL    HW130311   4.759   4.482   4.613  0.9384 -0.8725 -0.8996
 9804SOL    HW230312   4.691   4.433   4.753  0.0681  1.8057 -0.3258
 9805SOL     OW30313   1.418   5.141   0.570 -0.0395 -0.0895 -0.0019
 9805SOL    HW130314   1.401   5.105   0.661 -0.6113 -2.8699 -1.1079
 9805SOL    HW230315   1.488   5.086   0.524  1.5919  2.3669 -0.6653
 9806SOL     OW30316   1.873   2.091   3.535  0.7240 -0.1921  0.8016
 9806SOL    HW130317   1.791   2.046   3.498  1.0495 -0.5394  0.4928
 9806SOL    HW230318   1.853   2.126   3.627  0.7104 -1.7447  1.4258
 9807SOL     OW30319   3.049   3.821   1.404  0.4041 -0.1480  0.2304
 9807SOL    HW130320   3.110   3.820   1.326  0.3688 -1.6061  0.2045
 9807SOL    HW230321   3.007   3.731   1.416 -0.2082  0.2664  1.4425
 9808SOL     OW30322   0.561   3.528   3.181 -0.0877 -0.0208 -0.3065
 9808SOL    HW130323   0.644   3.476   3.162 -1.4458 -1.5900 -2.4863
 9808SOL    HW230324   0.494   3.509   3.110 -2.4359  0.9880  1.5200
 9809SOL     OW30325   0.230   1.493   2.747  0.2897  0.7573  0.0792
 9809SOL    HW130326   0.282   1.409   2.733 -2.0879 -0.7418 -0.2599
 9809SOL    HW230327   0.252   1.559   2.675 -0.0611 -0.7586 -1.4537
 9810SOL     OW30328   5.457   0.053   2.982  0.2119 -0.7178 -0.3376
 9810SOL    HW130329   5.515   0.126   2.947 -0.7607  1.6797  2.6060
 9810SOL    HW230330   5.512  -0.028   2.998  2.3836  0.8332  0.5259
 9811SOL     OW30331   2.334   4.451   3.283  0.5198  0.1588 -0.3560
 9811SOL    HW130332   2.280   4.525   3.245 -0.0838  0.0916  0.3550
 9811SOL    HW230333   2.297   4.424   3.373  0.2811 -1.4593 -0.8953
 9812SOL     OW30334   5.579   1.743   0.296  0.4297  0.4873 -0.6174
 9812SOL    HW130335   5.671   1.779   0.311 -0.1553  1.3784  1.1697
 9812SOL    HW230336   5.580   1.679   0.219  2.7821 -0.4772  0.1209
 9813SOL     OW30337   0.526   4.187   6.103  0.2095 -0.3079 -0.2128
 9813SOL    HW130338   0.528   4.287   6.096 -0.8723 -0.1389  1.2798
 9813SOL    HW230339   0.600   4.148   6.049  2.4600  1.4697  1.3587
 9814SOL     OW30340   5.915   1.457   5.081 -0.1221 -0.5606  0.5190
 9814SOL    HW130341   5.862   1.524   5.030 -1.4579 -1.3449  0.8377
 9814SOL    HW230342   5.973   1.405   5.018 -0.8324 -0.6873 -0.0361
 9815SOL     OW30343   1.100   4.545   0.669  0.2006  0.5828  0.2868
 9815SOL    HW130344   1.034   4.502   0.730  1.1224 -2.6873 -0.7900
 9815SOL    HW230345   1.167   4.596   0.723  0.4971 -1.4710  1.9983
 9816SOL     OW30346   6.253   1.529   4.025  0.0008  0.0574  0.0119
 9816SOL    HW130347   6.328   1.566   4.081 -0.1365 -1.5544  1.3330
 9816SOL    HW230348   6.166   1.544   4.072 -0.1087 -1.3738  0.3005
 9817SOL     OW30349   0.832   2.618   0.626  0.0003 -0.0964  0.8211
 9817SOL    HW130350   0.863   2.658   0.712  0.5566  0.3143  0.4356
 9817SOL    HW230351   0.874   2.667   0.549  0.6565 -1.3629  0.3325
 9818SOL     OW30352   6.957   1.536   2.262 -0.1694  0.2191 -0.0072
 9818SOL    HW130353   7.003   1.464   2.314  0.2402  0.1055 -0.5162
 9818SOL    HW230354   7.024   1.588   2.210 -0.4668  0.9696  0.3461
 9819SOL     OW30355   4.982   1.836   6.160 -0.6321  0.1232  0.0246
 9819SOL    HW130356   5.019   1.920   6.200  0.5370 -0.3870  0.0574
 9819SOL    HW230357   4.885   1.849   6.138 -0.7577  1.1077  1.0606
 9820SOL     OW30358   2.754   1.108   1.444 -0.1785 -1.1362 -0.2637
 9820SOL    HW130359   2.752   1.163   1.360  0.4436  0.2070  0.5673
 9820SOL    HW230360   2.662   1.101   1.481 -0.4256 -1.5634 -0.9506
 9821SOL     OW30361   5.858   4.909   6.174 -0.2385  0.3141  0.2508
 9821SOL    HW130362   5.920   4.937   6.247 -1.6839  3.9806  0.2917
 9821SOL    HW230363   5.797   4.985   6.151 -1.2262 -1.3460 -3.3963
 9822SOL     OW30364   2.957   0.244   3.709  0.7489  0.1761 -0.6825
 9822SOL    HW130365   2.864   0.229   3.742  1.3234  1.5594  1.8132
 9822SOL    HW230366   2.965   0.336   3.671  1.0327 -0.0609 -1.2145
 9823SOL     OW30367   3.908   6.277   4.049  0.8864 -0.1964 -0.1153
 9823SOL    HW130368   3.961   6.349   4.093 -2.7268  2.8271 -0.1318
 9823SOL    HW230369   3.842   6.318   3.986 -0.4922 -3.7019 -1.2437
 9824SOL     OW30370   0.891   6.014   6.136  0.3189  0.3563  0.9121
 9824SOL    HW130371   0.969   6.040   6.079  0.7709  1.3391  1.9297
 9824SOL    HW230372   0.846   5.934   6.097  1.3213  0.2882 -0.1586
 9825SOL     OW30373   6.579   6.159   3.829  0.3125  0.2119 -0.1148
 9825SOL    HW130374   6.642   6.153   3.752 -0.6410 -0.6298 -0.8748
 9825SOL    HW230375   6.567   6.255   3.855 -0.7585  0.7498 -2.2743
 9826SOL     OW30376   3.148   1.492   4.399 -0.1345 -0.3901  0.0536
 9826SOL    HW130377   3.056   1.480   4.438 -0.6213  1.4212 -0.4167
 9826SOL    HW230378   3.203   1.548   4.460 -0.2703  0.8324 -0.8978
 9827SOL     OW30379   2.482   4.114   0.885  0.5655  0.0662 -0.4691
 9827SOL    HW130380   2.473   4.210   0.913 -0.5391  0.6310 -2.5730
 9827SOL    HW230381   2.504   4.058   0.965 -3.3456  1.3636  1.8014
 9828SOL     OW30382   4.774   3.946   2.917  0.1127 -0.4061  0.4064
 9828SOL    HW130383   4.797   4.008   2.992  1.8232  0.3892 -0.6959
 9828SOL    HW230384   4.767   3.998   2.832  0.3042 -1.5593 -0.3391
 9829SOL     OW30385   5.897   4.852   4.284 -0.7169  0.5872 -0.3219
 9829SOL    HW130386   5.903   4.771   4.226  0.5568  1.6331 -1.7422
 9829SOL    HW230387   5.810   4.853   4.333 -0.6078 -1.7895  0.0052
 9830SOL     OW30388   0.632   5.823   3.290  0.5401 -0.2703 -0.1555
 9830SOL    HW130389   0.598   5.731   3.309  0.0859 -0.1900 -0.5671
 9830SOL    HW230390   0.616   5.881   3.369 -0.8255 -0.0809 -0.5507
 9831SOL     OW30391   1.201   5.950   6.942 -0.0151 -0.3063 -0.1937
 9831SOL    HW130392   1.221   6.020   7.012  1.5447 -0.7029 -0.1957
 9831SOL    HW230393   1.104   5.925   6.946 -0.2230  0.5838  0.9847
 9832SOL     OW30394   0.415   6.626   5.786  0.8114  0.1419  0.1159
 9832SOL    HW130395   0.494   6.567   5.770  0.3693 -0.4381  0.0157
 9832SOL    HW230396   0.331   6.573   5.771  0.3580  1.5242 -2.8257
 9833SOL     OW30397   3.061   3.964   4.072 -0.3690 -0.0782 -0.6860
 9833SOL    HW130398   3.018   3.992   4.158 -0.3725  1.1660 -1.0694
 9833SOL    HW230399   3.138   3.903   4.091 -1.1680 -0.8621  0.1097
 9834SOL     OW30400   4.763   6.822   3.846 -0.4402  0.0526  0.3745
 9834SOL    HW130401   4.862   6.812   3.847 -0.5072 -1.7263 -2.2918
 9834SOL    HW230402   4.738   6.909   3.888  2.2426  0.6642  0.8637
 9835SOL     OW30403   3.680   2.898   4.678 -0.4774 -0.3316 -0.3719
 9835SOL    HW130404   3.698   2.860   4.768 -0.7965 -0.2786 -0.2822
 9835SOL    HW230405   3.591   2.945   4.679  0.7161  2.0540  0.0528
 9836SOL     OW30406   6.809   3.728   0.116  0.1072  0.4122  0.1229
 9836SOL    HW130407   6.733   3.765   0.169 -0.2596  0.5533 -0.4941
 9836SOL    HW230408   6.895   3.748   0.163 -0.1266  1.5522  0.0941
 9837SOL     OW30409   6.008   0.006   6.313  0.2704 -0.5627  0.3783
 9837SOL    HW130410   5.968  -0.059   6.377  0.4993 -0.7733  0.3081
 9837SOL    HW230411   6.103  -0.019   6.295  0.8393  0.6605  1.5228
 9838SOL     OW30412   0.385   5.312   1.567 -0.1327  0.0188 -0.6173
 9838SOL    HW130413   0.325   5.269   1.500  1.8491 -2.3989 -0.9730
 9838SOL    HW230414   0.369   5.271   1.657 -0.0011  0.4164 -0.4074
 9839SOL     OW30415   4.042   6.658   2.625  0.0517 -0.2210 -0.0933
 9839SOL    HW130416   4.016   6.563   2.606 -0.6655 -0.3163  1.2848
 9839SOL    HW230417   4.021   6.715   2.544 -1.5837 -0.8518 -0.1575
 9840SOL     OW30418   6.595   3.783   3.114  0.4748  0.4145  0.0861
 9840SOL    HW130419   6.542   3.769   3.031  0.5044 -1.7934  0.3873
 9840SOL    HW230420   6.691   3.763   3.096  0.6354  0.8618  0.4312
 9841SOL     OW30421   6.959   5.891   1.159 -0.0867  0.2271  0.0658
 9841SOL    HW130422   6.966   5.956   1.235 -0.6482 -0.7657  0.9885
 9841SOL    HW230423   6.884   5.919   1.099 -0.2742  0.4812  0.4106
 9842SOL     OW30424   2.750   0.514   1.972  0.1469 -0.1212 -0.5411
 9842SOL    HW130425   2.778   0.587   2.034  1.5193 -0.4660 -0.7417
 9842SOL    HW230426   2.750   0.427   2.020  0.4699 -0.2781 -0.8225
 9843SOL     OW30427   0.101   5.856   1.566  0.7280  0.1512 -0.1765
 9843SOL    HW130428   0.005   5.881   1.558 -0.1142 -2.2371  1.3557
 9843SOL    HW230429   0.126   5.793   1.492  0.3025 -1.2916  0.8493
 9844SOL     OW30430   6.512   0.933   4.093 -0.2229  0.1355  0.7979
 9844SOL    HW130431   6.600   0.886   4.098  0.8090  1.9281  0.2544
 9844SOL    HW230432   6.442   0.869   4.062  1.0045 -1.1589  0.5933
 9845SOL     OW30433   0.134   4.148   3.411 -0.0722  0.0858 -0.6590
 9845SOL    HW130434   0.213   4.093   3.386 -1.0349 -2.0120  0.6820
 9845SOL    HW230435   0.143   4.239   3.371  2.9841 -0.0787 -0.5644
 9846SOL     OW30436   5.476   4.022   2.072 -0.0745  0.7701 -0.3013
 9846SOL    HW130437   5.461   4.070   2.159 -1.0799  1.4801 -0.8461
 9846SOL    HW230438   5.558   4.059   2.027 -1.0243  2.2833 -0.8765
 9847SOL     OW30439   5.206   3.254   0.949  0.8959 -0.0332  0.5262
 9847SOL    HW130440   5.280   3.306   0.907  1.1205 -0.1745  0.7417
 9847SOL    HW230441   5.207   3.269   1.048  0.0746  0.6722  0.4331
 9848SOL     OW30442   2.854   3.482   5.769 -0.3533  0.7326 -0.1087
 9848SOL    HW130443   2.818   3.576   5.767  0.8315  1.2447  1.0951
 9848SOL    HW230444   2.892   3.460   5.679 -1.1822  1.1776 -0.5844
 9849SOL     OW30445   1.459   2.528   0.087  0.0790 -0.2676  0.4292
 9849SOL    HW130446   1.527   2.560   0.021 -0.5275 -0.5921 -0.3579
 9849SOL    HW230447   1.503   2.514   0.176  0.8668  0.3195  0.1417
 9850SOL     OW30448   1.752   0.184   2.420 -0.2300 -0.7716 -0.1174
 9850SOL    HW130449   1.670   0.235   2.397  0.1790 -0.0871 -0.0986
 9850SOL    HW230450   1.750   0.095   2.374 -0.7647 -0.5813 -0.4776
 9851SOL     OW30451   4.188   5.591   5.630 -0.5173  0.0685 -0.1990
 9851SOL    HW130452   4.224   5.504   5.664 -1.7705 -0.1776  0.5417
 9851SOL    HW230453   4.241   5.620   5.550  0.0719 -1.2440 -0.3058
 9852SOL     OW30454   3.542   6.790   1.407 -0.2171 -0.8063  0.8179
 9852SOL    HW130455   3.477   6.776   1.332 -1.1306 -0.0131  1.4361
 9852SOL    HW230456   3.571   6.886   1.409  0.8827 -1.1325  0.6226
 9853SOL     OW30457   5.345   1.914   4.885 -0.3999 -0.0223  0.4599
 9853SOL    HW130458   5.340   1.834   4.944 -0.5131 -0.3613 -0.0012
 9853SOL    HW230459   5.313   1.995   4.935 -0.8385 -0.3666  0.7392
 9854SOL     OW30460   1.129   3.909   0.196  0.3396 -0.6506  0.0010
 9854SOL    HW130461   1.071   3.941   0.271  1.9125 -1.0767  1.5040
 9854SOL    HW230462   1.100   3.950   0.110 -1.9950 -0.6944  0.7122
 9855SOL     OW30463   0.160   6.993   0.885 -0.1380  0.2189  0.5031
 9855SOL    HW130464   0.075   7.021   0.842 -0.2233 -1.8242 -0.8121
 9855SOL    HW230465   0.237   7.018   0.826 -0.1290 -1.0946 -0.0740
 9856SOL     OW30466   2.324   5.081   3.851  0.1284  0.6263 -0.2490
 9856SOL    HW130467   2.252   5.039   3.906  2.5353 -1.5216  1.5035
 9856SOL    HW230468   2.358   5.163   3.898  0.8061 -0.0539  0.4706
 9857SOL     OW30469   3.411   1.914   4.660  0.1359 -0.0657  0.0929
 9857SOL    HW130470   3.434   2.006   4.690  1.1420 -0.2157 -0.1788
 9857SOL    HW230471   3.437   1.849   4.731 -1.3003 -0.0926  0.6235
 9858SOL     OW30472   6.534   5.773   2.981  0.0801 -0.7993 -0.2271
 9858SOL    HW130473   6.589   5.856   2.980 -0.1705 -0.5404  2.1183
 9858SOL    HW230474   6.592   5.695   3.002  0.1823 -1.1554 -1.6966
 9859SOL     OW30475   0.350   6.072   2.742  0.0042 -0.3486  0.3020
 9859SOL    HW130476   0.388   6.013   2.671  1.2144 -0.2486  0.8304
 9859SOL    HW230477   0.389   6.046   2.830 -1.5113 -0.5036  0.9562
 9860SOL     OW30478   2.113   4.999   4.990 -0.0209  0.2830 -0.4482
 9860SOL    HW130479   2.110   4.993   4.891  0.1672  0.1665 -0.4466
 9860SOL    HW230480   2.156   4.917   5.028  2.9115  1.6954 -0.4369
 9861SOL     OW30481   4.895   3.206   3.007 -0.0392  0.0069  0.0540
 9861SOL    HW130482   4.863   3.241   2.920  1.3235  1.7615  0.2100
 9861SOL    HW230483   4.860   3.113   3.020 -0.3823 -0.2500 -2.2684
 9862SOL     OW30484   1.562   2.398   6.839 -0.0437  0.3424 -0.0882
 9862SOL    HW130485   1.641   2.382   6.898 -0.0525  1.0186  0.1149
 9862SOL    HW230486   1.534   2.311   6.797 -0.5126 -0.2938  1.4790
 9863SOL     OW30487   1.980   4.914   2.018 -0.1014 -0.2168 -0.4006
 9863SOL    HW130488   1.986   4.848   2.093  1.7165  0.1990 -0.1213
 9863SOL    HW230489   1.902   4.975   2.033  0.1008 -0.2768  1.0384
 9864SOL     OW30490   5.287   6.247   4.109  0.1344  0.2613 -0.1191
 9864SOL    HW130491   5.211   6.255   4.044 -2.0048 -0.5533  2.1387
 9864SOL    HW230492   5.369   6.287   4.069 -1.8611  2.8005 -2.0237
 9865SOL     OW30493   2.632   4.279   5.635 -0.5342 -0.1296 -0.4794
 9865SOL    HW130494   2.645   4.223   5.717  0.2016  0.4371 -0.2021
 9865SOL    HW230495   2.639   4.376   5.659 -0.9179  0.0611 -1.1111
 9866SOL     OW30496   7.006   6.338   4.821 -0.7661 -0.1382 -0.0389
 9866SOL    HW130497   6.922   6.331   4.875 -1.0114 -1.6277 -0.5669
 9866SOL    HW230498   6.983   6.359   4.726 -0.5806 -0.8552 -0.2495
 9867SOL     OW30499   5.087   0.416   2.637  0.3120 -0.0765  0.1726
 9867SOL    HW130500   5.079   0.482   2.562 -0.9470  0.3861  0.6871
 9867SOL    HW230501   5.113   0.464   2.721 -0.1959 -0.2968  0.4569
 9868SOL     OW30502   2.445   4.439   2.564 -0.5486 -0.2348 -0.0312
 9868SOL    HW130503   2.485   4.507   2.626 -0.1754  0.1539 -0.6892
 9868SOL    HW230504   2.457   4.469   2.469 -0.2565 -1.2810 -0.3441
 9869SOL     OW30505   5.121   1.895   1.513 -0.1302  0.0589 -0.5231
 9869SOL    HW130506   5.063   1.958   1.566  1.3527  0.3071  0.8957
 9869SOL    HW230507   5.189   1.948   1.462  0.5449 -0.3271 -0.0419
 9870SOL     OW30508   2.060   2.530   4.844  0.8439  0.1561  0.1830
 9870SOL    HW130509   2.135   2.553   4.906  0.4583 -0.5592  0.9399
 9870SOL    HW230510   2.022   2.441   4.869  0.9062 -0.3248 -1.3050
 9871SOL     OW30511   5.184   4.127   2.295 -0.4489  0.3242  0.2616
 9871SOL    HW130512   5.094   4.099   2.263 -0.7278  2.0593 -0.6157
 9871SOL    HW230513   5.177   4.162   2.389 -0.6110  0.1146  0.3283
 9872SOL     OW30514   1.945   5.865   5.477  0.1870 -0.4439  0.0599
 9872SOL    HW130515   1.875   5.877   5.548  1.1579  0.9957  0.8096
 9872SOL    HW230516   1.900   5.859   5.387 -0.9854 -1.1487  0.6635
 9873SOL     OW30517   0.528   1.240   5.526  0.1991  1.1371  0.8583
 9873SOL    HW130518   0.462   1.178   5.569  0.4115  1.6839  2.0034
 9873SOL    HW230519   0.483   1.293   5.455  0.0022 -0.2928 -0.1251
 9874SOL     OW30520   0.373   4.651   3.067  0.2993  0.0199 -0.4846
 9874SOL    HW130521   0.430   4.588   3.015  3.7171  0.7998  1.9360
 9874SOL    HW230522   0.378   4.627   3.164 -1.2493  1.9016  0.1236
 9875SOL     OW30523   4.318   5.775   2.172  0.1023  0.0543  0.0125
 9875SOL    HW130524   4.253   5.781   2.247  1.5910  0.9169  1.3095
 9875SOL    HW230525   4.370   5.860   2.166 -0.4218  0.2548 -2.4628
 9876SOL     OW30526   6.299   5.138   3.411 -0.1065 -0.2071  0.1463
 9876SOL    HW130527   6.203   5.110   3.414 -0.3519  0.6473  0.3613
 9876SOL    HW230528   6.339   5.128   3.502 -0.0484 -0.3646  0.1034
 9877SOL     OW30529   2.819   5.980   5.850 -0.3326  0.4661 -0.1956
 9877SOL    HW130530   2.787   5.947   5.762  0.4519 -0.8813 -0.0071
 9877SOL    HW230531   2.744   5.981   5.916 -0.0940 -2.7192  0.2722
 9878SOL     OW30532   4.578   3.557   6.816  0.4567  0.0307 -0.8264
 9878SOL    HW130533   4.510   3.626   6.791 -1.0281 -0.9478  0.2761
 9878SOL    HW230534   4.535   3.490   6.877  2.3896 -0.7389 -0.2478
 9879SOL     OW30535   6.693   3.246   3.874 -0.1176  0.0113  0.1207
 9879SOL    HW130536   6.636   3.200   3.806 -1.6889  1.7304  0.2106
 9879SOL    HW230537   6.641   3.318   3.919  1.0784 -0.6523  2.7467
 9880SOL     OW30538   4.743   2.451   0.467  0.2388 -0.5595 -0.0973
 9880SOL    HW130539   4.754   2.547   0.492  0.5418 -0.9474  1.3578
 9880SOL    HW230540   4.671   2.442   0.398 -1.7505  0.4462  1.7547
 9881SOL     OW30541   0.400   1.905   4.016 -0.1700  0.1422 -0.1544
 9881SOL    HW130542   0.500   1.908   4.009 -0.0915  0.1741  0.8765
 9881SOL    HW230543   0.369   1.978   4.077 -0.7974 -0.0864 -0.1971
 9882SOL     OW30544   3.042   3.479   5.564  0.0618 -0.0851 -0.2360
 9882SOL    HW130545   3.076   3.537   5.637  1.7705 -0.5464 -0.6346
 9882SOL    HW230546   3.055   3.524   5.476 -1.3508  0.1735 -0.3377
 9883SOL     OW30547   7.004   0.404   2.901 -0.5496 -0.1461 -0.4096
 9883SOL    HW130548   7.023   0.502   2.906  0.9430 -0.3725 -1.3736
 9883SOL    HW230549   7.064   0.361   2.835 -0.8870 -1.8063  0.3135
 9884SOL     OW30550   2.581   1.707   5.435  0.1195 -0.1647  0.7410
 9884SOL    HW130551   2.615   1.789   5.388  0.1952 -0.2361  0.6698
 9884SOL    HW230552   2.619   1.626   5.391 -0.6364 -0.2679  0.2679
 9885SOL     OW30553   4.205   3.078   5.500 -0.3201 -0.1442  0.1315
 9885SOL    HW130554   4.266   3.149   5.536 -0.4607 -0.3282  0.7557
 9885SOL    HW230555   4.110   3.104   5.516 -0.3966  0.0223 -0.6067
 9886SOL     OW30556   1.519   5.729   1.321  0.1211 -0.3425 -0.3922
 9886SOL    HW130557   1.585   5.683   1.381 -0.0029 -0.7696 -0.5795
 9886SOL    HW230558   1.495   5.818   1.360  0.2481 -0.5002  0.0532
 9887SOL     OW30559   1.883   1.765   0.017  0.1879  0.5877  0.2956
 9887SOL    HW130560   1.882   1.667  -0.007 -0.8524  0.6979 -0.1331
 9887SOL    HW230561   1.817   1.814  -0.039 -0.1324  1.3599  1.3130
 9888SOL     OW30562   0.121   6.110   4.725 -0.1032  0.4574  0.2922
 9888SOL    HW130563   0.072   6.182   4.773  0.1193  0.4400  0.5481
 9888SOL    HW230564   0.088   6.021   4.755 -0.4027  0.4494 -0.0495
 9889SOL     OW30565   0.612   6.526   0.254 -0.3025 -0.8531  0.5378
 9889SOL    HW130566   0.583   6.430   0.262 -1.1024 -0.7810 -1.0838
 9889SOL    HW230567   0.688   6.532   0.189  1.2447 -0.6231  2.2979
 9890SOL     OW30568   1.943   4.167   4.770  0.2447 -0.1719 -0.3830
 9890SOL    HW130569   2.043   4.168   4.765  0.2355  0.2133 -0.5283
 9890SOL    HW230570   1.907   4.109   4.697  0.3537 -0.1494 -0.4559
 9891SOL     OW30571   3.583   0.158   2.283  0.0998  0.1061  0.8419
 9891SOL    HW130572   3.517   0.132   2.353  0.4603  0.4057  1.3023
 9891SOL    HW230573   3.676   0.141   2.317  0.2702 -0.0783  0.2997
 9892SOL     OW30574   1.107   0.058   3.738  0.4577 -0.4167 -1.1051
 9892SOL    HW130575   1.020   0.100   3.711  0.8645  0.8430 -0.5180
 9892SOL    HW230576   1.091  -0.039   3.760 -0.6939 -0.3382 -1.5018
 9893SOL     OW30577   5.729   4.218   5.050 -0.2866  0.1167  0.0747
 9893SOL    HW130578   5.641   4.225   5.096  0.5821  1.1561  1.6802
 9893SOL    HW230579   5.738   4.291   4.982 -0.6682  0.0049 -0.0949
 9894SOL     OW30580   6.417   1.518   6.774  0.5498 -0.3384 -0.0557
 9894SOL    HW130581   6.322   1.550   6.766  0.9039  0.5196 -1.1421
 9894SOL    HW230582   6.446   1.477   6.688  1.7381  1.1319 -0.4138
 9895SOL     OW30583   4.573   3.567   0.448  0.1052  0.3046  0.0656
 9895SOL    HW130584   4.634   3.634   0.404 -1.0951  1.8964  0.7138
 9895SOL    HW230585   4.478   3.594   0.434 -0.3738 -0.5158  1.4844
 9896SOL     OW30586   3.568   3.686   4.934 -0.1161 -0.0142 -0.3515
 9896SOL    HW130587   3.663   3.666   4.910  0.0977 -1.0660  1.2411
 9896SOL    HW230588   3.522   3.602   4.961 -0.9114  0.7770  0.8441
 9897SOL     OW30589   5.803   5.608   4.153  0.1418 -0.3075  0.2216
 9897SOL    HW130590   5.770   5.573   4.065  0.4734 -1.5872  0.5821
 9897SOL    HW230591   5.810   5.708   4.149 -0.4654 -0.2978 -0.9838
 9898SOL     OW30592   0.520   0.361   6.229  0.1415 -0.0729 -0.5801
 9898SOL    HW130593   0.501   0.367   6.131 -2.8009 -1.4493 -0.2032
 9898SOL    HW230594   0.482   0.276   6.266  1.0155  0.4761  1.8151
 9899SOL     OW30595   2.155   5.105   6.771 -0.1597 -0.1240  0.2334
 9899SOL    HW130596   2.099   5.023   6.766  0.4886 -0.5674  0.1279
 9899SOL    HW230597   2.245   5.082   6.807 -0.3155  0.7280  1.2009
 9900SOL     OW30598   2.384   6.468   5.674 -0.5060 -0.3179  0.1600
 9900SOL    HW130599   2.392   6.546   5.613 -1.4637  0.4262  0.9482
 9900SOL    HW230600   2.303   6.479   5.732 -0.0667 -1.3891  1.0179
 9901SOL     OW30601   5.075   2.332   5.819 -0.2512 -0.5126  0.0897
 9901SOL    HW130602   4.977   2.353   5.824 -0.2358  0.0816 -1.4442
 9901SOL    HW230603   5.100   2.269   5.892 -1.8425 -0.8951  0.3349
 9902SOL     OW30604   4.327   3.412   1.065  0.0604 -0.1378  0.0799
 9902SOL    HW130605   4.358   3.461   1.147  1.9298 -0.6425 -0.2940
 9902SOL    HW230606   4.374   3.324   1.059  0.4175  0.1550 -1.8544
 9903SOL     OW30607   3.122   1.683   2.013  0.0571 -0.2183  0.5395
 9903SOL    HW130608   3.078   1.772   2.028 -0.7749 -1.1328  4.8106
 9903SOL    HW230609   3.213   1.697   1.974  0.1536  2.5656  1.5540
 9904SOL     OW30610   0.352   6.311   1.093  0.0514 -0.6312 -0.1544
 9904SOL    HW130611   0.400   6.236   1.046 -0.2507  0.2671 -1.9858
 9904SOL    HW230612   0.405   6.340   1.172  0.9685 -1.7065 -0.3438
 9905SOL     OW30613   1.642   5.855   0.793 -0.2123 -0.1698 -0.3930
 9905SOL    HW130614   1.667   5.911   0.872  2.7587  0.1430 -1.4040
 9905SOL    HW230615   1.549   5.820   0.804 -0.9286  2.1318  1.8754
 9906SOL     OW30616   2.479   3.492   0.952  0.1113  0.4670 -0.2448
 9906SOL    HW130617   2.403   3.553   0.927 -1.0314 -0.6455  0.4079
 9906SOL    HW230618   2.468   3.404   0.905  0.0712 -0.2817  1.1229
 9907SOL     OW30619   6.307   6.057   3.355 -0.1456 -0.1216  0.2270
 9907SOL    HW130620   6.275   6.071   3.448  0.3931 -0.6685  0.5067
 9907SOL    HW230621   6.384   6.118   3.335  2.0062 -2.2960  1.3439
 9908SOL     OW30622   1.339   3.016   4.359  0.2484  0.2794  0.2914
 9908SOL    HW130623   1.265   2.954   4.385 -0.0815  0.4311 -0.2712
 9908SOL    HW230624   1.362   3.002   4.263  2.7678 -1.6385  1.0613
 9909SOL     OW30625   2.736   6.183   4.077 -0.1250  0.0300 -0.2040
 9909SOL    HW130626   2.670   6.151   4.144 -0.9315 -0.5398 -1.2528
 9909SOL    HW230627   2.808   6.115   4.065  0.1908  0.2672  0.2881
 9910SOL     OW30628   1.532   6.586   5.244  0.0056 -0.2737 -0.5159
 9910SOL    HW130629   1.446   6.536   5.251  0.0124 -0.3785 -1.1760
 9910SOL    HW230630   1.600   6.543   5.304 -0.4643 -0.0447  0.1885
 9911SOL     OW30631   1.234   4.462   2.330 -0.3807  0.3189  0.3553
 9911SOL    HW130632   1.163   4.399   2.298  0.7773 -0.2895 -1.1476
 9911SOL    HW230633   1.195   4.554   2.342 -1.3793  0.0273 -0.5510
 9912SOL     OW30634   0.402   5.728   5.890 -0.4967 -0.2257  0.3711
 9912SOL    HW130635   0.305   5.750   5.897 -0.6662 -0.2653 -1.3854
 9912SOL    HW230636   0.455   5.812   5.883 -0.1075 -0.0722  3.5676
 9913SOL     OW30637   3.829   3.806   6.969 -0.0978 -0.3890 -0.0398
 9913SOL    HW130638   3.792   3.776   7.057 -1.4911 -2.3388 -1.1923
 9913SOL    HW230639   3.767   3.873   6.928  0.2690  0.1143  0.2297
 9914SOL     OW30640   6.979   3.682   0.968  0.0792 -0.0529 -0.4005
 9914SOL    HW130641   6.975   3.587   0.999 -1.2395 -0.2993 -1.2413
 9914SOL    HW230642   6.913   3.737   1.020  0.8561  0.4341  0.1029
 9915SOL     OW30643   5.642   5.107   4.521  0.0149 -0.2409  0.6373
 9915SOL    HW130644   5.555   5.110   4.571 -0.4019  1.6099 -0.1084
 9915SOL    HW230645   5.660   5.013   4.492 -2.7402 -0.4357 -0.7911
 9916SOL     OW30646   6.926   1.976   6.744  0.3880  0.4437  0.2056
 9916SOL    HW130647   6.950   1.879   6.757 -0.6213  0.2737  0.8826
 9916SOL    HW230648   6.827   1.988   6.753  0.0952  1.0924 -2.7633
 9917SOL     OW30649   1.438   4.570   4.634  0.2534  0.2941  0.7331
 9917SOL    HW130650   1.519   4.511   4.627 -0.5565 -0.7272 -0.5644
 9917SOL    HW230651   1.461   4.663   4.605  0.5592 -0.4167 -1.4896
 9918SOL     OW30652   1.787   2.122   1.783 -0.4904 -0.6369 -0.3039
 9918SOL    HW130653   1.829   2.193   1.840  1.3948 -1.8550 -0.0585
 9918SOL    HW230654   1.839   2.037   1.794 -1.5960 -1.5693 -1.9650
 9919SOL     OW30655   6.036   5.782   2.348  0.2640 -0.0699 -0.0042
 9919SOL    HW130656   5.944   5.754   2.375 -1.6349  1.2455 -4.2218
 9919SOL    HW230657   6.044   5.881   2.354  1.1361 -0.1087 -0.3643
 9920SOL     OW30658   4.042   6.933   2.676 -0.3194 -0.7315  0.3167
 9920SOL    HW130659   4.123   6.986   2.701  1.1734 -1.8961 -1.7710
 9920SOL    HW230660   4.061   6.836   2.688 -1.5961 -1.0026  0.2252
 9921SOL     OW30661   3.908   6.570   3.261  0.2624 -0.0545  0.3288
 9921SOL    HW130662   3.959   6.605   3.182 -0.6373 -0.3929 -0.4145
 9921SOL    HW230663   3.818   6.612   3.263  1.1140  1.8815  2.6343
 9922SOL     OW30664   0.720   3.122   2.531  0.3275  0.0755  0.5509
 9922SOL    HW130665   0.797   3.182   2.554 -0.3375  0.6931  1.2429
 9922SOL    HW230666   0.655   3.171   2.473  1.4509 -1.1285 -1.8380
 9923SOL     OW30667   5.541   0.097   6.010 -0.1451  0.3627  0.2633
 9923SOL    HW130668   5.628   0.134   5.979 -0.0377  0.5307  0.7633
 9923SOL    HW230669   5.469   0.166   5.998 -0.0862  0.4608  0.4822
 9924SOL     OW30670   6.442   6.444   5.459  0.5775  0.0633  0.4997
 9924SOL    HW130671   6.368   6.505   5.486 -0.7713 -1.2206 -0.2092
 9924SOL    HW230672   6.528   6.477   5.499 -0.0591  2.4691  0.0647
 9925SOL     OW30673   3.148   1.422   5.299 -0.2862 -0.2956 -0.3946
 9925SOL    HW130674   3.110   1.350   5.358  0.9063 -1.2161 -0.7304
 9925SOL    HW230675   3.148   1.509   5.349  0.2025 -0.9497  0.7797
 9926SOL     OW30676   0.090   2.121   6.898  0.2237 -0.6358  0.1669
 9926SOL    HW130677   0.025   2.058   6.855  1.4519 -1.6560 -0.2827
 9926SOL    HW230678   0.137   2.174   6.828  0.0913 -0.1105  0.4694
 9927SOL     OW30679   3.173   4.929   4.270 -0.3899 -0.2719 -0.5617
 9927SOL    HW130680   3.254   4.950   4.324  0.4968 -1.5630 -1.3519
 9927SOL    HW230681   3.097   4.908   4.331 -0.2097  1.1334  0.1898
 9928SOL     OW30682   0.071   4.663   3.117  0.1575  0.4643 -0.3977
 9928SOL    HW130683   0.169   4.643   3.106 -0.2551 -0.8869 -2.0184
 9928SOL    HW230684   0.057   4.761   3.104  1.1777  0.5192 -1.3014
 9929SOL     OW30685   5.425   3.359   5.371 -0.0725  0.8307  0.5196
 9929SOL    HW130686   5.414   3.318   5.280 -2.0485  1.1558  0.5715
 9929SOL    HW230687   5.496   3.309   5.421 -0.5497 -0.8373 -0.3751
 9930SOL     OW30688   6.924   6.479   0.782 -0.5784 -0.1861  0.0879
 9930SOL    HW130689   6.963   6.404   0.729 -0.3463 -0.3220  0.4535
 9930SOL    HW230690   6.985   6.558   0.777 -0.4641 -0.2615  0.3141
 9931SOL     OW30691   1.097   3.469   6.935  0.2126  0.1217 -0.7847
 9931SOL    HW130692   1.168   3.409   6.899 -0.0463  0.6182 -2.1900
 9931SOL    HW230693   1.089   3.551   6.877 -1.3623  0.1661 -0.5556
 9932SOL     OW30694   2.568   2.453   0.650  0.1026  0.6198 -0.0809
 9932SOL    HW130695   2.591   2.390   0.576 -0.7660  1.1034 -0.7882
 9932SOL    HW230696   2.643   2.517   0.665  0.0450  0.9080 -0.9743
 9933SOL     OW30697   1.113   1.466   3.003  0.0151  0.1691 -0.6142
 9933SOL    HW130698   1.046   1.395   2.981 -0.4390 -0.0155  1.2008
 9933SOL    HW230699   1.170   1.484   2.922  0.6019 -2.7492 -0.9745
 9934SOL     OW30700   3.524   6.530   6.589  0.1538 -0.0671  0.5136
 9934SOL    HW130701   3.551   6.617   6.548 -0.0916 -0.1232  0.2257
 9934SOL    HW230702   3.506   6.543   6.686  1.3568 -0.0579  0.7547
 9935SOL     OW30703   2.929   3.350   6.000 -0.3514 -0.0288  0.2125
 9935SOL    HW130704   3.004   3.386   6.056 -1.4470 -0.4338  2.0065
 9935SOL    HW230705   2.917   3.410   5.920  2.7612 -0.7379 -0.9533
 9936SOL     OW30706   3.908   6.779   1.261  0.0072  0.4193 -0.1784
 9936SOL    HW130707   3.851   6.707   1.222 -1.0563  1.5069 -0.6945
 9936SOL    HW230708   3.987   6.795   1.201 -0.3307  0.4158 -0.6315
 9937SOL     OW30709   6.859   6.718   5.765 -0.5782  0.1146 -0.2263
 9937SOL    HW130710   6.836   6.814   5.783  0.7731  0.5984 -0.9180
 9937SOL    HW230711   6.913   6.682   5.841  1.5006  0.8612 -1.2811
 9938SOL     OW30712   2.232   1.376   2.185 -0.6859  0.1349 -0.6250
 9938SOL    HW130713   2.168   1.365   2.261  0.5175  1.8691  0.7193
 9938SOL    HW230714   2.245   1.288   2.139 -2.5118 -0.6559  0.2673
 9939SOL     OW30715   3.188   4.650   1.173 -0.9904 -0.0415 -0.0458
 9939SOL    HW130716   3.112   4.683   1.117  0.4873  1.6085 -1.2108
 9939SOL    HW230717   3.270   4.704   1.152  0.3612 -1.3550  1.5954
 9940SOL     OW30718   6.622   0.942   3.384 -0.0475  0.3544 -0.0145
 9940SOL    HW130719   6.598   0.971   3.292 -1.6008  0.7586  0.4895
 9940SOL    HW230720   6.720   0.921   3.388 -0.0371 -0.0905 -1.8448
 9941SOL     OW30721   5.895   1.627   6.000 -0.0849  0.1573 -0.1207
 9941SOL    HW130722   5.908   1.635   6.099  0.2115 -1.7330  0.0274
 9941SOL    HW230723   5.985   1.619   5.956 -0.2927 -2.1465 -0.2003
 9942SOL     OW30724   5.326   2.652   2.815  0.4407  0.3577  0.1243
 9942SOL    HW130725   5.233   2.665   2.850  0.5348  0.6013  0.2874
 9942SOL    HW230726   5.336   2.698   2.727  0.4157  0.3611  0.1233
 9943SOL     OW30727   0.107   4.786   4.923 -0.2847 -0.9484 -0.3844
 9943SOL    HW130728   0.052   4.818   5.000 -0.4883 -1.6943 -0.2089
 9943SOL    HW230729   0.134   4.691   4.940 -0.1626 -1.0499 -1.1423
 9944SOL     OW30730   1.693   5.467   5.999  0.1924  0.4420  0.1859
 9944SOL    HW130731   1.776   5.411   6.008  0.4430  0.6102 -0.8896
 9944SOL    HW230732   1.718   5.562   5.984 -0.1251  0.2653 -1.7123
 9945SOL     OW30733   5.619   3.898   5.264 -0.0212  0.4099  0.1494
 9945SOL    HW130734   5.580   3.982   5.224  1.5508  1.1296  0.0535
 9945SOL    HW230735   5.710   3.918   5.301 -0.6061 -0.7022  2.3614
 9946SOL     OW30736   4.502   6.123   0.541  0.1998 -1.0729  0.3591
 9946SOL    HW130737   4.550   6.183   0.606 -0.5480 -0.4510  0.3448
 9946SOL    HW230738   4.563   6.047   0.516  1.7927  0.5273 -0.8776
 9947SOL     OW30739   6.299   0.773   4.054 -0.1843  0.1114 -0.0495
 9947SOL    HW130740   6.329   0.678   4.054 -1.6124 -0.3686 -0.1391
 9947SOL    HW230741   6.213   0.780   4.106 -1.0952  1.0017 -1.6180
 9948SOL     OW30742   6.237   6.956   4.272  0.0397 -0.0832 -0.1632
 9948SOL    HW130743   6.145   6.916   4.278 -0.3737  0.8260 -0.2325
 9948SOL    HW230744   6.258   7.002   4.358  0.2916 -0.0099 -0.2638
 9949SOL     OW30745   0.880   2.426   2.953  0.4340 -0.3990  0.0994
 9949SOL    HW130746   0.913   2.334   2.972  1.1591 -0.5527 -1.7466
 9949SOL    HW230747   0.920   2.489   3.020  1.2920 -1.1682  0.3362
 9950SOL     OW30748   5.920   5.421   6.037 -0.2654  0.0053 -0.1454
 9950SOL    HW130749   5.975   5.373   5.969  2.9326 -0.6036  2.6087
 9950SOL    HW230750   5.860   5.486   5.992  1.9953 -0.0123 -3.5007
 9951SOL     OW30751   2.351   1.947   3.302  0.0707 -0.0904  0.4771
 9951SOL    HW130752   2.329   2.016   3.233  0.7733 -1.8653 -1.6447
 9951SOL    HW230753   2.429   1.978   3.356  0.0118  1.0102 -0.0383
 9952SOL     OW30754   1.501   5.446   1.709 -0.4387 -0.0887 -0.2771
 9952SOL    HW130755   1.580   5.503   1.684 -0.5817  0.0682 -0.3730
 9952SOL    HW230756   1.428   5.504   1.745 -0.1946 -0.3221  0.6190
 9953SOL     OW30757   5.807   1.875   4.964 -0.3437 -0.1371 -0.1061
 9953SOL    HW130758   5.815   1.953   4.902  0.5526 -0.8845 -0.9623
 9953SOL    HW230759   5.841   1.900   5.054 -3.0807  1.4525  0.6059
 9954SOL     OW30760   4.731   3.973   0.652 -0.5035  0.2336  0.3714
 9954SOL    HW130761   4.779   4.058   0.675  0.3152 -0.4950  1.4380
 9954SOL    HW230762   4.759   3.944   0.560  0.8214  0.0291  0.8199
 9955SOL     OW30763   3.929   5.546   1.798  0.5189  0.5610 -0.7575
 9955SOL    HW130764   3.848   5.552   1.857 -0.2467  1.0127 -1.8327
 9955SOL    HW230765   3.925   5.462   1.744  1.7900 -0.4341  0.6064
 9956SOL     OW30766   1.419   3.682   2.530 -0.2795 -0.1192  0.1219
 9956SOL    HW130767   1.381   3.747   2.596 -0.7350  0.0202 -0.2698
 9956SOL    HW230768   1.493   3.726   2.478 -1.3302  0.4717 -0.9221
 9957SOL     OW30769   4.373   6.455   0.290 -0.2884  0.5485 -0.6321
 9957SOL    HW130770   4.414   6.516   0.358 -0.1894 -0.7691  0.5432
 9957SOL    HW230771   4.273   6.464   0.294 -0.3191 -0.0080  0.2019
 9958SOL     OW30772   6.418   6.844   5.491 -0.2677 -0.3798  0.2721
 9958SOL    HW130773   6.365   6.929   5.496 -0.8296 -0.6465 -0.8020
 9958SOL    HW230774   6.357   6.766   5.497  0.1189 -0.6982  0.1160
 9959SOL     OW30775   0.146   6.262   1.427  0.7948  0.1244  0.1135
 9959SOL    HW130776   0.217   6.192   1.426  1.3366  0.5601 -2.9800
 9959SOL    HW230777   0.188   6.352   1.421  0.0182  0.4978  0.1688
 9960SOL     OW30778   0.141   6.744   1.335 -0.2531 -0.3618 -0.1063
 9960SOL    HW130779   0.059   6.690   1.315  1.0586 -2.4482 -0.0623
 9960SOL    HW230780   0.142   6.824   1.274 -2.4275 -0.1170  0.0789
 9961SOL     OW30781   3.478   6.830   0.606  0.3050 -0.2474 -0.1706
 9961SOL    HW130782   3.500   6.732   0.605  0.2496 -0.2871 -2.5334
 9961SOL    HW230783   3.558   6.882   0.577 -1.0919 -0.0833 -4.4205
 9962SOL     OW30784   5.808   0.338   1.119  0.1011  0.0913  0.3208
 9962SOL    HW130785   5.716   0.363   1.151 -0.1177 -0.7194  0.3418
 9962SOL    HW230786   5.804   0.312   1.023 -0.1885 -2.3930  0.9330
 9963SOL     OW30787   1.662   1.063   6.014 -0.0455 -0.0983  1.2137
 9963SOL    HW130788   1.645   0.975   5.968  0.0937  0.2688  0.4445
 9963SOL    HW230789   1.750   1.060   6.061  1.3234  0.5296 -1.1313
 9964SOL     OW30790   4.611   6.147   6.721  0.0904  0.1035  0.3295
 9964SOL    HW130791   4.638   6.053   6.702  1.9748  0.4208  1.2148
 9964SOL    HW230792   4.692   6.203   6.737 -1.0639  1.2584  2.7221
 9965SOL     OW30793   1.874   5.301   5.994  0.0705 -0.3673 -0.5056
 9965SOL    HW130794   1.851   5.238   5.920 -0.4385 -1.3820  0.4880
 9965SOL    HW230795   1.960   5.273   6.036 -0.0006 -0.2155 -0.2560
 9966SOL     OW30796   2.377   3.545   1.357  0.4343 -0.2502 -0.3124
 9966SOL    HW130797   2.281   3.535   1.334  0.3208  0.2121 -0.0497
 9966SOL    HW230798   2.416   3.623   1.308  0.4333  0.1458  0.3009
 9967SOL     OW30799   0.559   0.973   3.057 -0.4094  0.4185 -0.4421
 9967SOL    HW130800   0.593   0.975   2.963 -2.3120 -2.2475 -1.2790
 9967SOL    HW230801   0.616   1.034   3.113  1.7361  0.9335 -2.9511
 9968SOL     OW30802   2.958   5.196   0.609 -0.1533  0.1169  0.0150
 9968SOL    HW130803   2.902   5.267   0.565 -1.4796 -0.7364  0.2693
 9968SOL    HW230804   2.963   5.116   0.550 -0.9354 -0.5794  0.8561
 9969SOL     OW30805   5.971   5.480   2.629  0.4150  0.6976 -0.4704
 9969SOL    HW130806   5.872   5.472   2.643  0.2715  1.5314 -0.8970
 9969SOL    HW230807   6.005   5.561   2.678  1.6021 -1.6459  2.9449
 9970SOL     OW30808   1.305   4.819   6.548  0.5740  0.1466 -0.2633
 9970SOL    HW130809   1.374   4.860   6.607  0.9029  0.1096 -0.6140
 9970SOL    HW230810   1.344   4.803   6.457 -0.4991  2.0331 -1.1137
 9971SOL     OW30811   6.468   3.935   5.215  0.0831 -0.2569 -0.5154
 9971SOL    HW130812   6.521   4.019   5.227 -1.0022  0.3773 -0.0419
 9971SOL    HW230813   6.509   3.861   5.270  0.5365  0.1791 -0.2567
 9972SOL     OW30814   2.924   6.901   4.961  0.7222  0.0415  0.3963
 9972SOL    HW130815   2.875   6.912   5.047 -0.6626 -1.0562 -0.2149
 9972SOL    HW230816   2.888   6.823   4.911  0.5919  1.3965 -1.7764
 9973SOL     OW30817   3.556   2.055   2.277 -0.2109 -1.2085 -0.3862
 9973SOL    HW130818   3.461   2.052   2.246 -0.6697  1.2940  0.5080
 9973SOL    HW230819   3.612   2.099   2.207 -0.6219  1.3799  0.7920
 9974SOL     OW30820   1.195   3.450   4.285 -0.1450 -0.8169 -0.0034
 9974SOL    HW130821   1.176   3.525   4.350 -0.9090 -0.9363 -0.0740
 9974SOL    HW230822   1.293   3.446   4.267  0.1605 -1.1112  1.5519
 9975SOL     OW30823   1.772   2.957   5.774  0.0985 -0.2245  0.0558
 9975SOL    HW130824   1.834   3.020   5.727  0.4460 -1.1408 -0.7579
 9975SOL    HW230825   1.752   2.879   5.714 -2.4289  0.3659 -0.0131
 9976SOL     OW30826   2.678   5.634   6.429  0.8967 -0.0525 -0.2648
 9976SOL    HW130827   2.748   5.666   6.366  0.4385  0.0856 -0.7083
 9976SOL    HW230828   2.703   5.543   6.463  1.7100  0.3465  0.2416
 9977SOL     OW30829   5.056   1.007   5.033  0.6032 -0.1187 -0.2737
 9977SOL    HW130830   5.085   0.946   5.107  0.0980  0.1534  0.1616
 9977SOL    HW230831   5.078   0.966   4.945  0.6483 -0.7350  0.0196
 9978SOL     OW30832   6.535   3.702   1.136  0.4900 -0.4632  0.7230
 9978SOL    HW130833   6.447   3.654   1.132  0.8001 -1.0750  1.1349
 9978SOL    HW230834   6.594   3.659   1.204  1.8888 -1.3678 -0.9746
 9979SOL     OW30835   3.770   3.830   2.504 -0.6360  0.4319 -0.1925
 9979SOL    HW130836   3.832   3.815   2.581  0.5350  0.3376 -1.1225
 9979SOL    HW230837   3.693   3.887   2.533  0.0386  0.8030  0.9198
 9980SOL     OW30838   0.027   0.187   6.251  0.1139 -0.0400 -0.2445
 9980SOL    HW130839   0.067   0.211   6.163  0.7313  0.7186  0.2301
 9980SOL    HW230840  -0.052   0.245   6.270  0.0013 -0.1804 -0.2743
 9981SOL     OW30841   4.334   0.355   1.902 -0.7492 -0.3884 -0.0208
 9981SOL    HW130842   4.344   0.431   1.838 -1.1992  0.7291  1.1924
 9981SOL    HW230843   4.259   0.296   1.872 -1.3529  0.4586 -0.2205
 9982SOL     OW30844   3.151   2.231   5.578  0.1507  0.0445 -0.4545
 9982SOL    HW130845   3.150   2.282   5.492  1.1580  0.8789  0.0068
 9982SOL    HW230846   3.227   2.166   5.578 -0.2197 -0.3972 -0.4293
 9983SOL     OW30847   0.131   1.874   0.332 -0.0854 -0.2804 -0.5475
 9983SOL    HW130848   0.041   1.838   0.309  0.2118 -2.2104  1.0228
 9983SOL    HW230849   0.186   1.883   0.249 -2.2934  2.9158 -1.8509
 9984SOL     OW30850   0.935   5.982   0.060 -0.0540  0.0182  0.3430
 9984SOL    HW130851   0.920   6.042   0.139 -0.8952  0.6692 -0.2821
 9984SOL    HW230852   0.927   5.887   0.088  1.5925  0.1591  1.4160
 9985SOL     OW30853   5.951   5.230   6.296 -0.0300  0.2752  1.0881
 9985SOL    HW130854   5.922   5.268   6.209  0.5487 -0.2971  0.6360
 9985SOL    HW230855   5.909   5.281   6.371 -0.5823  0.7249  0.4766
 9986SOL     OW30856   4.078   3.844   1.391  0.1026 -0.0730 -0.1589
 9986SOL    HW130857   4.027   3.785   1.454  0.8658 -0.3556  0.2103
 9986SOL    HW230858   4.069   3.809   1.298 -0.9470  0.2861 -0.2067
 9987SOL     OW30859   4.897   1.518   1.337  0.4071  0.2279 -0.2010
 9987SOL    HW130860   4.910   1.617   1.339  0.4145  0.3085 -2.0055
 9987SOL    HW230861   4.844   1.493   1.256  2.5801 -1.4293 -1.2202
 9988SOL     OW30862   6.233   0.524   5.079 -0.0708 -0.0588 -0.0521
 9988SOL    HW130863   6.320   0.477   5.091 -0.0884  0.1117  0.7556
 9988SOL    HW230864   6.246   0.622   5.090 -0.0296  0.1594 -1.7552
 9989SOL     OW30865   6.110   3.226   6.656 -0.1469 -0.2001  0.7358
 9989SOL    HW130866   6.058   3.273   6.585  1.0521  0.5679  0.3225
 9989SOL    HW230867   6.053   3.214   6.737 -1.5826 -1.2117 -0.3743
 9990SOL     OW30868   0.431   5.684   2.180  0.3733 -0.1910 -0.3721
 9990SOL    HW130869   0.435   5.698   2.279 -3.0165 -1.3809  0.0569
 9990SOL    HW230870   0.427   5.586   2.160 -2.0966  0.0437 -1.3823
 9991SOL     OW30871   3.124   2.020   1.083  0.5407  0.3226  0.0558
 9991SOL    HW130872   3.053   2.055   1.143  0.5448  1.1491 -0.4117
 9991SOL    HW230873   3.108   1.923   1.065  0.2618  0.1865  0.9799
 9992SOL     OW30874   1.271   2.815   1.618 -0.2072 -0.7405 -0.0307
 9992SOL    HW130875   1.320   2.887   1.569  0.1949 -0.7190  0.3975
 9992SOL    HW230876   1.306   2.808   1.712 -2.3576  0.6429  0.9675
 9993SOL     OW30877   2.849   0.955   5.200 -0.1142  0.3644 -0.0729
 9993SOL    HW130878   2.918   0.946   5.127  0.2105 -1.0301  0.3711
 9993SOL    HW230879   2.816   1.049   5.203  0.7985  0.7490 -1.1798
 9994SOL     OW30880   6.166   5.200   3.975  0.6608  0.4826 -0.1160
 9994SOL    HW130881   6.095   5.174   4.040 -0.2801 -0.5531 -1.4981
 9994SOL    HW230882   6.246   5.141   3.988 -1.1354 -2.8367 -2.6452
 9995SOL     OW30883   3.911   3.702   0.521 -0.2104 -0.2958  0.1234
 9995SOL    HW130884   3.934   3.619   0.470 -0.0142 -0.2674  0.1666
 9995SOL    HW230885   3.834   3.748   0.476  0.5420  0.2136 -0.6738
 9996SOL     OW30886   4.064   4.796   1.376  0.4069  0.4439  0.6440
 9996SOL    HW130887   4.122   4.734   1.429 -0.2909 -2.5461 -1.8167
 9996SOL    HW230888   3.968   4.776   1.395  0.1644  1.0757  0.1278
 9997SOL     OW30889   6.299   0.790   4.617  0.3066  0.3620  0.5255
 9997SOL    HW130890   6.264   0.883   4.611 -0.5413 -0.0084 -0.6528
 9997SOL    HW230891   6.261   0.735   4.542  1.2331 -0.7857  0.8641
 9998SOL     OW30892   6.298   1.666   1.082 -0.0142 -0.2023 -0.6925
 9998SOL    HW130893   6.335   1.707   0.999  0.6286  1.8353  0.5206
 9998SOL    HW230894   6.223   1.723   1.117  1.6512  0.6948  1.6769
 9999SOL     OW30895   1.056   0.141   4.994 -0.1881  0.0388 -0.1104
 9999SOL    HW130896   1.017   0.106   5.079 -0.1052 -0.1207 -0.1385
 9999SOL    HW230897   1.133   0.202   5.015  1.6833 -2.1943 -0.1303
10000SOL     OW30898   3.030   3.812   0.946 -0.2568  0.2998  0.6331
10000SOL    HW130899   2.934   3.838   0.935 -1.0591 -1.6344  2.4703
10000SOL    HW230900   3.044   3.720   0.909  1.3067  1.1371 -1.0202
10001SOL     OW30901   4.576   0.338   5.274  0.3656  0.0812 -0.3798
10001SOL    HW130902   4.605   0.333   5.369 -0.0395 -0.4324 -0.2809
10001SOL    HW230903   4.502   0.272   5.258  0.1432  0.4647 -0.9436
10002SOL     OW30904   2.799   6.901   4.080  0.1819  0.4373 -0.5049
10002SOL    HW130905   2.853   6.984   4.098  0.6639 -0.1805  1.0925
10002SOL    HW230906   2.792   6.847   4.164 -2.1437  0.0111 -0.8944
10003SOL     OW30907   0.929   0.833   3.730 -0.2446  0.0484  0.1053
10003SOL    HW130908   0.997   0.866   3.795 -0.4339  1.6401 -0.4596
10003SOL    HW230909   0.914   0.902   3.659 -1.9688 -0.5263 -0.1522
10004SOL     OW30910   6.779   4.082   0.729  0.5080  0.3495  0.4524
10004SOL    HW130911   6.824   4.035   0.653 -0.3933  0.3700 -0.1078
10004SOL    HW230912   6.691   4.118   0.699  0.6530  1.3682  1.2062
10005SOL     OW30913   0.708   6.175   2.759 -0.1881  0.3081 -0.0127
10005SOL    HW130914   0.646   6.207   2.830  0.1694  1.2514 -0.1094
10005SOL    HW230915   0.802   6.185   2.790 -0.0369  0.5054 -0.5248
10006SOL     OW30916   5.918   2.450   6.396 -0.0177 -0.2302  0.0701
10006SOL    HW130917   5.988   2.519   6.379  0.1885 -0.7869 -1.5266
10006SOL    HW230918   5.887   2.457   6.491  3.2977 -0.9396  1.3645
10007SOL     OW30919   0.457   6.533   2.823 -0.5948  0.0209  0.0508
10007SOL    HW130920   0.524   6.589   2.775 -1.0294 -0.2526 -0.9235
10007SOL    HW230921   0.491   6.509   2.914  2.4128 -3.2669 -1.6895
10008SOL     OW30922   2.870   1.617   6.981  0.3734  0.1097 -0.3669
10008SOL    HW130923   2.949   1.672   6.953 -0.1893  1.3083  0.3130
10008SOL    HW230924   2.828   1.576   6.900  1.2592  0.0371 -0.8104
10009SOL     OW30925   1.831   5.357   0.089  0.2695  0.1851 -0.3859
10009SOL    HW130926   1.816   5.450   0.123  2.2081 -0.0931  1.4547
10009SOL    HW230927   1.877   5.360   0.001  1.5610  1.0078  0.2955
10010SOL     OW30928   2.343   2.668   2.501 -0.1538 -0.1313  0.2931
10010SOL    HW130929   2.244   2.654   2.488 -0.1693 -0.3580  0.6392
10010SOL    HW230930   2.388   2.672   2.412 -0.5021  0.1759  0.1258
10011SOL     OW30931   4.290   2.600   0.562 -0.5214  0.2911  0.3286
10011SOL    HW130932   4.368   2.634   0.615  1.8970 -1.6317 -1.7204
10011SOL    HW230933   4.230   2.548   0.622  1.0267 -0.1134  1.6140
10012SOL     OW30934   5.016   0.546   2.393  0.0393 -0.7091 -0.3707
10012SOL    HW130935   5.038   0.597   2.309  0.7053  1.9086  1.2856
10012SOL    HW230936   4.925   0.571   2.424  0.0496 -1.1834  0.0482
10013SOL     OW30937   6.933   4.432   5.545 -0.9968  0.1329  0.0815
10013SOL    HW130938   6.985   4.517   5.541 -0.0078 -0.4760 -0.3582
10013SOL    HW230939   6.845   4.445   5.498 -0.3322  0.5639 -1.0929
10014SOL     OW30940   1.761   1.708   3.465 -0.3877 -0.4506  0.4193
10014SOL    HW130941   1.791   1.613   3.475  1.5390 -0.1495 -1.5899
10014SOL    HW230942   1.768   1.735   3.369 -0.8654  1.7330  0.9424
10015SOL     OW30943   3.856   2.423   5.968 -0.0311  0.0615  0.0836
10015SOL    HW130944   3.796   2.474   6.029 -0.0296 -1.2036  1.1616
10015SOL    HW230945   3.817   2.334   5.949 -0.6898  0.8673 -2.8632
10016SOL     OW30946   1.383   1.276   4.411  0.1578 -0.0969  0.3025
10016SOL    HW130947   1.312   1.215   4.445  0.1955 -0.7459 -0.7371
10016SOL    HW230948   1.341   1.363   4.383  0.0932  0.3419  1.6899
10017SOL     OW30949   3.280   1.686   3.929  0.2823  0.3719 -0.1367
10017SOL    HW130950   3.273   1.587   3.920  0.1317  0.1553  1.9419
10017SOL    HW230951   3.375   1.712   3.942  0.4347  0.6243 -1.5745
10018SOL     OW30952   1.340   3.082   4.882  0.4411 -0.1168 -0.3940
10018SOL    HW130953   1.423   3.055   4.930 -0.1851 -0.3587  0.5765
10018SOL    HW230954   1.364   3.124   4.794  1.5787 -0.0982 -0.0834
10019SOL     OW30955   6.793   2.335   4.469 -0.8811  0.0410 -0.6219
10019SOL    HW130956   6.709   2.282   4.482 -2.5556  2.2790 -1.8143
10019SOL    HW230957   6.816   2.338   4.372 -0.5431  1.0751 -0.5191
10020SOL     OW30958   1.005   1.694   3.025 -0.0791 -0.0230  0.3373
10020SOL    HW130959   1.043   1.603   3.039  0.6315  0.4997  2.1624
10020SOL    HW230960   0.905   1.691   3.035 -0.0230 -0.5472  0.7841
10021SOL     OW30961   1.720   3.635   1.515  0.2061  0.1100  0.3731
10021SOL    HW130962   1.631   3.656   1.474 -0.0420  0.4341  1.0653
10021SOL    HW230963   1.725   3.674   1.607  0.6685 -0.7868  0.7517
10022SOL     OW30964   6.084   0.211   5.639  0.2630  0.0872  0.2259
10022SOL    HW130965   6.135   0.283   5.686  2.4022  0.4950 -2.4489
10022SOL    HW230966   5.995   0.245   5.611  1.2187  1.7397 -0.9491
10023SOL     OW30967   0.758   1.300   4.411  0.1835 -0.4392  0.0128
10023SOL    HW130968   0.684   1.352   4.453  0.8768 -0.2295  1.0055
10023SOL    HW230969   0.729   1.268   4.321 -0.5355  1.0097 -0.3072
10024SOL     OW30970   1.630   3.804   2.369  0.4996  0.4262  0.0688
10024SOL    HW130971   1.686   3.781   2.290  0.4112 -0.6317  0.2992
10024SOL    HW230972   1.644   3.900   2.393  0.8987  0.6254 -0.9195
10025SOL     OW30973   6.910   1.379   6.940 -0.5600  0.4647 -0.4875
10025SOL    HW130974   6.937   1.464   6.985 -0.6976  0.2131  0.0876
10025SOL    HW230975   6.910   1.392   6.841 -1.2657  1.3427 -0.3903
10026SOL     OW30976   0.717   1.405   2.303 -0.2028  0.2304  0.1697
10026SOL    HW130977   0.728   1.477   2.235  2.5747  0.6950  0.9942
10026SOL    HW230978   0.747   1.318   2.264 -1.3876 -0.0789 -0.0904
10027SOL     OW30979   3.991   0.486   0.597 -0.6271 -0.0088  0.3872
10027SOL    HW130980   3.968   0.423   0.523 -1.5804 -0.7609  1.2977
10027SOL    HW230981   3.933   0.468   0.676  1.0064  0.1391  1.6855
10028SOL     OW30982   3.688   6.762   1.944  0.2542  0.0433  0.3550
10028SOL    HW130983   3.702   6.819   1.863  0.1134 -0.6763 -0.1943
10028SOL    HW230984   3.611   6.798   1.997 -1.6092 -1.1213 -1.4120
10029SOL     OW30985   0.760   3.779   2.877  0.1271  0.3301  0.6446
10029SOL    HW130986   0.721   3.687   2.877  1.4062 -0.2277 -0.0647
10029SOL    HW230987   0.848   3.778   2.924  0.4256  1.0763  0.1085
10030SOL     OW30988   2.885   6.783   3.830 -0.0632 -0.5663 -0.0961
10030SOL    HW130989   2.858   6.836   3.910 -0.2857 -2.1168  0.9092
10030SOL    HW230990   2.826   6.702   3.823 -0.6283 -0.0091 -2.3667
10031SOL     OW30991   1.753   5.747   3.901 -0.1442 -0.5724  0.5546
10031SOL    HW130992   1.713   5.808   3.833  0.0130 -0.3213  0.6827
10031SOL    HW230993   1.827   5.795   3.949  0.7458 -1.2302 -0.1194
10032SOL     OW30994   3.365   6.568   5.156  0.3412  0.0224  0.2609
10032SOL    HW130995   3.443   6.545   5.098 -0.4883 -0.8117 -0.5443
10032SOL    HW230996   3.305   6.631   5.108  1.6503  2.5688  1.7546
10033SOL     OW30997   2.470   2.205   4.109 -0.0076  0.4386  0.3848
10033SOL    HW130998   2.382   2.207   4.063  0.4696  2.0613 -0.5163
10033SOL    HW230999   2.479   2.119   4.159 -0.9380 -0.9814 -1.7551
10034SOL     OW31000   2.871   1.580   3.105  0.0019  0.0073  0.0280
10034SOL    HW131001   2.867   1.614   3.199  0.6288  1.3287 -0.4042
10034SOL    HW231002   2.778   1.560   3.074 -0.2658  0.0778  0.7431
10035SOL     OW31003   6.651   4.875   3.489 -0.2395 -0.0266  0.1982
10035SOL    HW131004   6.731   4.826   3.454 -0.5727  0.2112 -0.9536
10035SOL    HW231005   6.652   4.969   3.454 -1.1135 -0.0789  0.0051
10036SOL     OW31006   0.605   3.401   6.875 -0.7177 -0.0793  0.3326
10036SOL    HW131007   0.507   3.389   6.858 -0.4268 -2.8383  0.1842
10036SOL    HW231008   0.620   3.489   6.921 -3.2278  0.4509  0.2999
10037SOL     OW31009   6.043   0.838   5.808 -0.4075  0.6473 -0.5398
10037SOL    HW131010   6.112   0.785   5.758  0.3458 -0.7822  1.8438
10037SOL    HW231011   6.089   0.900   5.872 -1.3125  0.1021  0.6605
10038SOL     OW31012   1.910   6.902   0.729  0.1234  0.0794  0.0870
10038SOL    HW131013   1.872   6.844   0.658 -0.7230 -0.8514  1.2706
10038SOL    HW231014   1.838   6.959   0.769  0.5750  0.5518  0.2545
10039SOL     OW31015   1.262   3.200   6.974 -0.2945 -0.0918  0.8527
10039SOL    HW131016   1.320   3.244   7.042  0.1654 -1.9465  1.6931
10039SOL    HW231017   1.225   3.115   7.010 -1.9953  0.0717 -0.3702
10040SOL     OW31018   2.931   0.613   1.341 -0.6727 -0.0545 -0.4889
10040SOL    HW131019   2.990   0.546   1.385  0.5983  1.8775  0.9149
10040SOL    HW231020   2.908   0.582   1.248 -2.2919 -3.5826  0.9156
10041SOL     OW31021   6.658   4.341   6.681 -0.1217  0.4895 -0.7273
10041SOL    HW131022   6.588   4.410   6.661 -0.6203  0.2863  0.2708
10041SOL    HW231023   6.635   4.256   6.635 -0.2783  0.5657 -0.7916
10042SOL     OW31024   0.632   1.455   5.005  0.2843  0.1633  0.0945
10042SOL    HW131025   0.720   1.453   4.958  0.4465 -1.3953  0.3934
10042SOL    HW231026   0.643   1.418   5.097 -0.6476  0.1615  0.2192
10043SOL     OW31027   1.476   0.516   2.814 -0.4090 -0.5937  0.5027
10043SOL    HW131028   1.455   0.503   2.912 -1.7194 -1.1094  0.1844
10043SOL    HW231029   1.403   0.570   2.772  1.1393  1.3408  0.1864
10044SOL     OW31030   2.255   1.510   5.357 -0.1658 -0.0276  0.1791
10044SOL    HW131031   2.206   1.596   5.367 -0.6468 -0.3145  0.3244
10044SOL    HW231032   2.346   1.527   5.320 -0.8904  0.3811 -1.4795
10045SOL     OW31033   4.508   2.016   4.005 -0.4743 -0.0281  0.9118
10045SOL    HW131034   4.530   2.104   3.963  1.1133  0.1185  1.9576
10045SOL    HW231035   4.540   1.941   3.947  2.0477  0.1760  1.9151
10046SOL     OW31036   4.918   1.167   6.345 -0.2009 -0.2890 -0.3615
10046SOL    HW131037   4.853   1.119   6.403 -1.3684  1.8043  0.1695
10046SOL    HW231038   5.001   1.188   6.397 -1.0507  1.1616  0.4705
10047SOL     OW31039   0.428   1.669   3.497 -0.0581  0.1147 -0.0028
10047SOL    HW131040   0.426   1.598   3.568  3.0469 -0.8898 -0.7668
10047SOL    HW231041   0.340   1.671   3.450 -0.3855 -3.0685  0.2478
10048SOL     OW31042   3.121   3.356   1.671  0.1051 -0.7221 -0.3293
10048SOL    HW131043   3.068   3.435   1.639  1.2992  1.6265  2.9649
10048SOL    HW231044   3.211   3.358   1.628 -0.1735 -0.8467 -0.9341
10049SOL     OW31045   5.876   5.275   4.585  0.4143 -0.2074 -0.1767
10049SOL    HW131046   5.795   5.218   4.570 -1.0742  1.8565 -0.2658
10049SOL    HW231047   5.877   5.350   4.520  1.4440  0.8294  0.9803
10050SOL     OW31048   0.740   3.402   5.023 -0.1608 -0.1542 -0.2174
10050SOL    HW131049   0.735   3.345   4.940 -1.7639  1.0048 -0.9738
10050SOL    HW231050   0.762   3.344   5.101 -0.3797 -1.5878 -1.1736
10051SOL     OW31051   5.616   1.470   0.534 -0.0102 -0.0230  0.2491
10051SOL    HW131052   5.669   1.553   0.522 -1.0278  0.7592  1.0360
10051SOL    HW231053   5.550   1.461   0.459 -0.6243  0.4644  0.7104
10052SOL     OW31054   0.599   5.076   1.704  0.0558  0.4506  0.7355
10052SOL    HW131055   0.518   5.050   1.652  2.6243 -4.4945 -1.5068
10052SOL    HW231056   0.580   5.069   1.802 -1.5941 -3.7262  0.2967
10053SOL     OW31057   4.330   6.157   3.759 -0.2220  0.0560  0.7266
10053SOL    HW131058   4.361   6.064   3.739  2.1091  0.8698  0.1301
10053SOL    HW231059   4.391   6.198   3.827 -0.5336  1.4857  0.1828
10054SOL     OW31060   4.622   4.432   4.996 -0.8795 -0.3733 -0.5237
10054SOL    HW131061   4.538   4.486   5.001 -0.2006  0.6184  0.5623
10054SOL    HW231062   4.611   4.348   5.049 -1.6938 -0.9867 -1.6310
10055SOL     OW31063   5.551   1.385   6.660 -0.1169  0.1659 -0.4265
10055SOL    HW131064   5.521   1.294   6.630 -0.7168  0.2097  0.0128
10055SOL    HW231065   5.650   1.392   6.654 -0.0472 -0.6050 -0.2392
10056SOL     OW31066   4.824   5.430   4.028 -1.0990 -0.1963 -0.5771
10056SOL    HW131067   4.923   5.436   4.013 -1.0291 -1.9911 -1.0635
10056SOL    HW231068   4.781   5.388   3.948 -2.2702  0.6008 -0.3864
10057SOL     OW31069   1.367   3.712   1.619 -0.2205  0.2797  0.0349
10057SOL    HW131070   1.434   3.762   1.674  1.3010 -2.0866  0.4525
10057SOL    HW231071   1.397   3.709   1.524  0.5133 -1.0767  0.2834
10058SOL     OW31072   1.377   5.618   5.345  0.1934  0.2475 -1.1112
10058SOL    HW131073   1.289   5.609   5.391  0.4294  0.2586 -0.6542
10058SOL    HW231074   1.392   5.538   5.286  0.3542 -0.2838 -0.3672
10059SOL     OW31075   3.354   5.674   0.780 -0.2058 -0.3516 -0.1412
10059SOL    HW131076   3.393   5.750   0.832  0.4206 -0.3656 -0.5750
10059SOL    HW231077   3.344   5.700   0.684 -2.2145 -0.0069  0.1223
10060SOL     OW31078   2.621   1.862   2.834  0.0600 -0.3362 -0.1784
10060SOL    HW131079   2.666   1.788   2.785 -0.3979 -0.5511 -0.2747
10060SOL    HW231080   2.690   1.928   2.865  0.5423 -1.0924  0.4095
10061SOL     OW31081   0.424   3.678   6.129  0.1212  0.1798 -0.2700
10061SOL    HW131082   0.499   3.715   6.183 -0.5746  1.1251  0.0746
10061SOL    HW231083   0.461   3.618   6.058  1.1034 -0.4859  0.7539
10062SOL     OW31084   5.607   6.424   3.487 -0.6907  0.6696 -0.4156
10062SOL    HW131085   5.586   6.473   3.402 -1.4800  1.4900  0.2321
10062SOL    HW231086   5.627   6.490   3.560 -0.8224 -0.0006  0.2412
10063SOL     OW31087   1.442   1.327   2.800  0.3172 -0.1851  0.3713
10063SOL    HW131088   1.531   1.343   2.757  0.8200  0.3391  1.5582
10063SOL    HW231089   1.389   1.413   2.800  0.3674 -0.1495  0.8796
10064SOL     OW31090   4.609   4.783   6.108 -0.1450 -0.5473 -0.0927
10064SOL    HW131091   4.592   4.850   6.181  0.8460  0.7307 -0.9898
10064SOL    HW231092   4.601   4.691   6.145  0.3739  0.0677  1.6579
10065SOL     OW31093   1.550   6.787   5.038  0.1261  0.2964 -0.1358
10065SOL    HW131094   1.554   6.727   5.118 -0.4653 -0.0782 -0.3798
10065SOL    HW231095   1.457   6.788   5.002  0.6006 -0.4358 -1.4830
10066SOL     OW31096   0.269   1.356   3.889  0.2739  0.6790 -0.0586
10066SOL    HW131097   0.225   1.442   3.916 -0.8338  0.0958  0.0550
10066SOL    HW231098   0.305   1.311   3.971 -1.0601  0.0160  0.1963
10067SOL     OW31099   6.163   5.046   3.622  0.7094  0.3522 -0.1942
10067SOL    HW131100   6.132   5.129   3.669  0.3069  0.4544 -0.6345
10067SOL    HW231101   6.104   5.028   3.544  1.7586  0.5479 -1.0517
10068SOL     OW31102   4.679   3.426   6.111 -0.5463 -0.3898 -0.4893
10068SOL    HW131103   4.763   3.461   6.152 -1.1187  0.3254  0.0959
10068SOL    HW231104   4.633   3.501   6.063 -1.9802 -0.2258  1.0899
10069SOL     OW31105   5.235   1.583   5.357 -0.3506 -0.0801 -0.1705
10069SOL    HW131106   5.163   1.530   5.313  0.2329 -1.1803  0.1571
10069SOL    HW231107   5.195   1.658   5.409 -1.1801 -0.0737 -0.8131
10070SOL     OW31108   2.466   0.375   4.906 -0.0218  0.2101 -0.0383
10070SOL    HW131109   2.383   0.358   4.960  0.3635 -0.1885  0.4367
10070SOL    HW231110   2.545   0.339   4.954  0.4982  1.0214 -0.2636
10071SOL     OW31111   5.910   5.239   4.287  0.3603 -0.0014  0.1383
10071SOL    HW131112   5.960   5.326   4.288  1.0766 -0.4061  1.3470
10071SOL    HW231113   5.857   5.230   4.371 -1.0091 -0.0257 -0.6923
10072SOL     OW31114   1.864   6.387   4.648 -0.4148  0.0086  0.0778
10072SOL    HW131115   1.854   6.352   4.741 -0.1474 -0.3763 -0.0387
10072SOL    HW231116   1.799   6.462   4.634  0.2925  0.8213  0.9402
10073SOL     OW31117   0.022   0.479   5.659  0.3255 -0.2583 -0.1141
10073SOL    HW131118  -0.007   0.537   5.735  1.0665 -2.4661  1.9937
10073SOL    HW231119   0.104   0.429   5.686  0.6414 -1.0958 -2.4362
10074SOL     OW31120   2.908   5.140   3.842 -1.0256  0.1953 -0.2492
10074SOL    HW131121   2.833   5.079   3.817 -1.1192 -0.1568  0.8220
10074SOL    HW231122   2.940   5.118   3.934 -2.3319  2.9453  0.9924
10075SOL     OW31123   1.159   2.831   5.149 -0.4197  0.1429  0.0271
10075SOL    HW131124   1.238   2.857   5.205 -1.4134  0.8434  1.1810
10075SOL    HW231125   1.119   2.747   5.185 -0.1363 -0.2832 -0.6363
10076SOL     OW31126   5.978   6.233   3.150  0.3630 -0.4074  0.0479
10076SOL    HW131127   6.046   6.307   3.147  0.6850 -0.6379  1.1920
10076SOL    HW231128   5.957   6.204   3.057  1.8795 -0.3512 -0.3457
10077SOL     OW31129   2.440   2.508   5.995  0.0608 -0.2747 -0.2630
10077SOL    HW131130   2.536   2.484   6.012 -0.4137  0.0793  4.2143
10077SOL    HW231131   2.435   2.604   5.967  1.0138  0.1814  0.9926
10078SOL     OW31132   5.497   6.349   5.898 -0.0455 -0.7596  0.0793
10078SOL    HW131133   5.586   6.323   5.861 -0.5666 -2.2314 -0.1866
10078SOL    HW231134   5.509   6.425   5.962  0.9665  1.3050 -2.4009
10079SOL     OW31135   0.091   3.152   5.862 -0.1019  0.3034  0.5065
10079SOL    HW131136   0.155   3.091   5.815 -1.4104  0.5669 -1.7427
10079SOL    HW231137   0.142   3.211   5.925  1.5941 -0.7936  0.2346
10080SOL     OW31138   0.231   3.651   3.118 -0.2481  0.3349 -0.2452
10080SOL    HW131139   0.211   3.582   3.048  1.5526  0.7599 -1.2564
10080SOL    HW231140   0.158   3.653   3.185 -0.9856 -1.6224 -0.9252
10081SOL     OW31141   0.674   1.621   1.392 -0.2141 -0.2382  0.0204
10081SOL    HW131142   0.592   1.578   1.355  0.6764 -1.0900 -1.0574
10081SOL    HW231143   0.715   1.561   1.461  0.9377 -1.1291 -1.3652
10082SOL     OW31144   5.543   6.464   1.515 -0.3522  0.4449 -0.0522
10082SOL    HW131145   5.610   6.391   1.528 -1.5457 -0.4862  1.1577
10082SOL    HW231146   5.463   6.446   1.571 -1.4792  1.7216 -1.1736
10083SOL     OW31147   6.747   6.859   4.476  0.5869 -0.0727  0.0646
10083SOL    HW131148   6.670   6.918   4.500  0.4721  0.0577 -0.6128
10083SOL    HW231149   6.792   6.827   4.559  1.7041  2.3382  0.4599
10084SOL     OW31150   3.266   1.148   6.922  0.5759  0.0283 -0.7660
10084SOL    HW131151   3.210   1.231   6.929  1.1516  0.4917 -1.4108
10084SOL    HW231152   3.324   1.140   7.003 -1.3145 -1.1673  0.5488
10085SOL     OW31153   0.886   0.334   2.370 -0.1070  0.5571 -0.1590
10085SOL    HW131154   0.943   0.297   2.444 -0.0604  0.1171 -0.4068
10085SOL    HW231155   0.937   0.404   2.321 -0.0403  0.6630  0.0584
10086SOL     OW31156   1.304   2.388   1.673 -0.4889 -0.3703  0.3347
10086SOL    HW131157   1.207   2.408   1.692 -0.5844 -0.1803 -0.3133
10086SOL    HW231158   1.346   2.347   1.754 -1.0225 -0.1339  0.7433
10087SOL     OW31159   1.061   5.743   3.751  0.2865 -0.5902 -0.0986
10087SOL    HW131160   1.155   5.762   3.722  0.6320 -0.9453  0.7502
10087SOL    HW231161   1.062   5.684   3.832 -0.6831 -0.9532 -0.3341
10088SOL     OW31162   5.717   0.060   5.517  0.1471  0.0933 -0.0108
10088SOL    HW131163   5.635   0.061   5.575  0.2608 -1.1585  0.2053
10088SOL    HW231164   5.766   0.147   5.527 -1.4535  1.1308 -0.6181
10089SOL     OW31165   2.470   2.506   2.757  0.0208 -0.4604  0.1733
10089SOL    HW131166   2.527   2.549   2.688 -0.0820  0.9568  0.9407
10089SOL    HW231167   2.517   2.425   2.793  0.3050 -0.9056 -1.1428
10090SOL     OW31168   5.885   6.182   2.884 -0.2324 -0.1626  0.0822
10090SOL    HW131169   5.969   6.188   2.829  0.1516  1.2233  0.7832
10090SOL    HW231170   5.875   6.089   2.919  1.1306 -0.2894  0.1743
10091SOL     OW31171   0.781   2.920   1.745  0.4436 -0.4816  0.4108
10091SOL    HW131172   0.876   2.893   1.728  0.7054  0.5664  0.1389
10091SOL    HW231173   0.764   3.008   1.701 -0.9380 -1.1033 -0.3454
10092SOL     OW31174   3.788   2.564   6.273  0.0993  0.0931 -0.5817
10092SOL    HW131175   3.702   2.525   6.238  0.3852  0.6313 -1.9477
10092SOL    HW231176   3.833   2.498   6.333 -1.3012 -0.1709  0.2270
10093SOL     OW31177   6.998   0.591   4.741  0.0071 -0.5961 -0.2876
10093SOL    HW131178   6.944   0.645   4.677  0.5133  0.6089  0.2738
10093SOL    HW231179   7.095   0.607   4.726  0.1331 -0.2360  0.8072
10094SOL     OW31180   2.753   6.523   6.264 -0.2970  0.2680  0.1233
10094SOL    HW131181   2.670   6.577   6.254 -1.2698 -0.8011  1.8051
10094SOL    HW231182   2.773   6.510   6.362  0.4968 -1.4612 -0.2246
10095SOL     OW31183   6.626   4.750   5.072  0.1868  0.5842 -0.2860
10095SOL    HW131184   6.678   4.818   5.124 -1.0364  1.0173  0.3865
10095SOL    HW231185   6.538   4.788   5.045  0.1748 -0.1632 -1.3909
10096SOL     OW31186   1.634   4.756   2.581 -0.0681 -0.1371 -0.2987
10096SOL    HW131187   1.565   4.806   2.634  0.2449 -0.8865  0.8517
10096SOL    HW231188   1.666   4.813   2.506 -1.4157  0.4976 -0.4293
10097SOL     OW31189   0.314   3.317   4.983  0.3266 -0.4540  0.0398
10097SOL    HW131190   0.330   3.405   5.026  1.7607 -0.1308 -1.0713
10097SOL    HW231191   0.275   3.331   4.892  1.2911 -0.9052 -0.4561
10098SOL     OW31192   4.333   3.910   0.150  0.7785 -0.0132 -0.0827
10098SOL    HW131193   4.241   3.889   0.117  0.9167 -0.6219 -0.0824
10098SOL    HW231194   4.330   3.993   0.205  0.0288 -0.6175  0.8168
10099SOL     OW31195   0.929   4.023   4.857  0.3407  0.1057  0.3227
10099SOL    HW131196   0.918   3.927   4.832  2.2913 -0.8062  2.5815
10099SOL    HW231197   0.850   4.052   4.912 -0.9471  0.2830 -1.5461
10100SOL     OW31198   4.578   6.482   6.129  0.4415 -0.5822 -0.2600
10100SOL    HW131199   4.509   6.429   6.079  0.8744 -2.7022  1.2515
10100SOL    HW231200   4.632   6.420   6.186  1.5208  1.4337  1.0050
10101SOL     OW31201   0.164   1.616   1.322  0.5599  0.2263 -0.5095
10101SOL    HW131202   0.125   1.583   1.236  0.9943  0.7726 -0.9212
10101SOL    HW231203   0.157   1.716   1.326  0.8578  0.2307 -0.0665
10102SOL     OW31204   5.851   0.663   4.160 -0.3506  0.0489 -0.1882
10102SOL    HW131205   5.811   0.630   4.075  0.0389  2.5392 -1.4337
10102SOL    HW231206   5.924   0.728   4.139  0.3784  0.0406  2.0724
10103SOL     OW31207   0.234   3.295   6.030  0.0280 -0.5151  0.2834
10103SOL    HW131208   0.307   3.289   5.962  0.3091 -1.8372  0.6875
10103SOL    HW231209   0.202   3.390   6.035  0.8502 -0.1560 -0.7895
10104SOL     OW31210   2.973   3.875   4.696  0.4347  0.2740  0.4979
10104SOL    HW131211   3.041   3.934   4.741  1.6714 -1.3097  0.7826
10104SOL    HW231212   2.992   3.870   4.598 -1.5192  2.7288 -0.0988
10105SOL     OW31213   3.832   0.067   6.342 -0.0106  0.3046 -0.1094
10105SOL    HW131214   3.783   0.033   6.422  1.0449  0.7001  0.7151
10105SOL    HW231215   3.906   0.005   6.319  2.5802  2.3861  2.0198
10106SOL     OW31216   3.556   5.920   1.162 -1.2299  0.3507 -0.8120
10106SOL    HW131217   3.606   5.834   1.165  0.1464  1.1327 -0.3799
10106SOL    HW231218   3.506   5.927   1.076 -1.6167 -1.0029 -0.7119
10107SOL     OW31219   6.972   2.899   0.023  0.0239 -0.1558 -0.0408
10107SOL    HW131220   7.052   2.939   0.068  0.0676 -1.0204  0.6817
10107SOL    HW231221   6.900   2.885   0.091 -0.9768  1.1286 -0.7818
10108SOL     OW31222   4.897   5.188   5.839 -0.1105  0.6727 -0.2455
10108SOL    HW131223   4.839   5.242   5.778 -0.8048  0.9439  0.6361
10108SOL    HW231224   4.915   5.240   5.923  0.2608  0.0369  0.0764
10109SOL     OW31225   4.001   6.630   3.833 -0.4560 -0.2985  0.9976
10109SOL    HW131226   4.060   6.709   3.854 -0.6981 -0.0728  0.8326
10109SOL    HW231227   4.048   6.546   3.860  0.1804 -0.1583  0.3665
10110SOL     OW31228   4.162   3.098   5.967  0.8147 -0.4112  0.3712
10110SOL    HW131229   4.144   3.106   5.869  1.1258 -0.6209  0.2952
10110SOL    HW231230   4.084   3.056   6.012  0.7735 -0.5443  0.1768
10111SOL     OW31231   1.886   2.677   2.892  0.1701  0.5167 -0.1462
10111SOL    HW131232   1.920   2.585   2.875  0.1717  0.8868 -2.3582
10111SOL    HW231233   1.794   2.673   2.931 -1.2111 -0.4691 -3.2574
10112SOL     OW31234   4.357   4.350   0.569 -0.4650  0.4009 -0.0231
10112SOL    HW131235   4.306   4.264   0.563  1.5951 -0.8522 -0.9977
10112SOL    HW231236   4.372   4.373   0.665  0.2341 -1.1885  0.2848
10113SOL     OW31237   2.783   0.247   2.573 -0.1823  0.0567  0.3347
10113SOL    HW131238   2.721   0.199   2.635  0.9058 -1.5321  0.2561
10113SOL    HW231239   2.837   0.314   2.624 -1.7049  1.2291  0.4553
10114SOL     OW31240   4.078   2.532   1.615 -1.0654  0.3297  0.5507
10114SOL    HW131241   4.081   2.629   1.638 -0.9636  0.2280  0.9776
10114SOL    HW231242   3.989   2.494   1.640 -2.1062  0.8854 -2.0118
10115SOL     OW31243   6.778   6.816   6.116 -0.1099  0.3860 -0.0211
10115SOL    HW131244   6.836   6.850   6.042  1.0014 -0.8881  0.2337
10115SOL    HW231245   6.797   6.719   6.132 -1.8540  0.0900  0.5239
10116SOL     OW31246   1.537   0.379   0.971 -0.5335  0.6635  0.4541
10116SOL    HW131247   1.511   0.455   1.032 -0.0509 -0.6109  2.3601
10116SOL    HW231248   1.529   0.293   1.021 -1.7453 -0.6569 -1.8578
10117SOL     OW31249   4.941   5.931   6.559 -0.3178  0.8690 -0.6372
10117SOL    HW131250   4.853   5.917   6.604  1.3558 -0.2845  2.6084
10117SOL    HW231251   4.955   5.860   6.490 -0.7801 -0.7877  0.8804
10118SOL     OW31252   5.378   4.911   4.386 -0.1741 -0.2467 -0.1293
10118SOL    HW131253   5.344   4.932   4.478 -0.8305 -0.0622 -0.4106
10118SOL    HW231254   5.308   4.863   4.334 -0.7752  1.8964 -1.3880
10119SOL     OW31255   0.737   0.081   5.643  0.0860 -0.1832  0.4649
10119SOL    HW131256   0.650   0.042   5.675 -0.7726  0.3170 -1.1354
10119SOL    HW231257   0.733   0.092   5.544  0.9826  2.2420  0.6452
10120SOL     OW31258   5.370   4.506   3.756 -0.5651 -0.1198  0.2105
10120SOL    HW131259   5.355   4.603   3.740  0.6643  0.1468  0.5454
10120SOL    HW231260   5.450   4.494   3.815 -1.4097 -1.2904  1.1672
10121SOL     OW31261   6.984   3.123   2.245 -0.3189  0.0660 -0.5262
10121SOL    HW131262   7.081   3.143   2.259 -0.5012 -0.6695  2.2326
10121SOL    HW231263   6.964   3.127   2.147  2.5272  0.0382 -1.2072
10122SOL     OW31264   5.948   0.758   2.859  0.0435  0.0438 -0.1657
10122SOL    HW131265   5.889   0.834   2.833 -0.3398  0.1705  1.0198
10122SOL    HW231266   5.995   0.780   2.944 -0.4466 -1.2333  0.4677
10123SOL     OW31267   2.026   1.494   0.707 -0.4001  0.1328  0.3907
10123SOL    HW131268   2.047   1.541   0.793  1.5066 -0.0896  0.0998
10123SOL    HW231269   2.036   1.558   0.631  0.8351 -0.3497  0.1156
10124SOL     OW31270   4.132   3.650   0.671  0.5759 -0.1701  0.2056
10124SOL    HW131271   4.049   3.702   0.652  1.1017  0.3760 -0.7214
10124SOL    HW231272   4.135   3.569   0.612  1.1413  0.3268 -0.4755
10125SOL     OW31273   2.047   6.368   5.442 -0.3458  0.3859 -1.0637
10125SOL    HW131274   2.107   6.300   5.397 -0.1897  0.7740 -1.4508
10125SOL    HW231275   2.023   6.335   5.533  1.0550  0.5534 -0.6086
10126SOL     OW31276   5.812   4.792   0.106 -0.3166  0.7071  0.2085
10126SOL    HW131277   5.743   4.781   0.177  0.3070  0.7033  0.8186
10126SOL    HW231278   5.898   4.752   0.136 -0.2611 -0.0187 -0.8776
10127SOL     OW31279   3.677   3.840   5.121  0.2500 -0.6926  0.1322
10127SOL    HW131280   3.610   3.856   5.193  0.3983 -2.1044  0.6145
10127SOL    HW231281   3.631   3.805   5.040  0.1531  0.3796 -0.2909
10128SOL     OW31282   1.378   6.305   1.943  0.2259  0.0894  0.2451
10128SOL    HW131283   1.452   6.342   1.887  0.1763  3.4200  2.1186
10128SOL    HW231284   1.357   6.369   2.018 -2.5567 -2.1171  1.5586
10129SOL     OW31285   5.863   2.684   1.506  0.1708  0.4839  0.3323
10129SOL    HW131286   5.804   2.760   1.531 -0.6453  0.4228 -1.2914
10129SOL    HW231287   5.816   2.625   1.441  1.7922  0.0936 -0.5465
10130SOL     OW31288   6.217   6.046   1.477 -0.2684 -0.5291  0.1185
10130SOL    HW131289   6.138   6.020   1.421 -0.4285 -0.3976  0.2818
10130SOL    HW231290   6.300   6.003   1.441 -0.5270 -1.2423  0.3721
10131SOL     OW31291   6.529   0.748   0.225 -0.8296  0.0975 -0.2806
10131SOL    HW131292   6.613   0.767   0.175 -0.9240 -1.4264 -1.1026
10131SOL    HW231293   6.453   0.796   0.181 -0.6659  0.0393 -0.6297
10132SOL     OW31294   2.242   5.664   3.902  0.1527  0.4749 -0.2070
10132SOL    HW131295   2.214   5.570   3.880  3.3679 -0.2362 -1.8871
10132SOL    HW231296   2.164   5.714   3.938 -1.8546 -2.6398  0.1695
10133SOL     OW31297   5.593   4.423   2.209  0.6285 -0.3833 -0.1316
10133SOL    HW131298   5.565   4.360   2.282 -1.2303 -0.0514 -0.5254
10133SOL    HW231299   5.592   4.374   2.122 -2.2060  0.4523 -0.6549
10134SOL     OW31300   1.175   1.659   1.304  0.6726 -0.2449  0.5405
10134SOL    HW131301   1.186   1.702   1.214 -1.3104 -0.5721  0.0900
10134SOL    HW231302   1.087   1.686   1.343  0.3939 -2.0604  1.2651
10135SOL     OW31303   4.424   0.484   3.483  0.2876  0.0662 -0.1668
10135SOL    HW131304   4.504   0.468   3.425  1.0117  0.7429  0.6191
10135SOL    HW231305   4.376   0.398   3.497  1.7114 -0.6557  0.5267
10136SOL     OW31306   5.436   6.335   3.895 -0.2826 -0.3328 -0.8357
10136SOL    HW131307   5.423   6.433   3.913  1.5380  0.1174 -1.7609
10136SOL    HW231308   5.404   6.314   3.803  1.5559 -0.0449 -1.5895
10137SOL     OW31309   6.949   4.326   2.721 -0.1300  0.0924  0.8917
10137SOL    HW131310   7.041   4.308   2.755 -0.2011 -0.2453  0.9186
10137SOL    HW231311   6.906   4.397   2.776  0.2101  0.4418  0.7087
10138SOL     OW31312   5.605   2.307   1.233  0.3830 -0.1417  0.4175
10138SOL    HW131313   5.511   2.335   1.215  0.2698 -1.1483 -0.6958
10138SOL    HW231314   5.606   2.212   1.263  1.0666 -0.2934 -0.0587
10139SOL     OW31315   3.036   3.655   2.510  0.2106  0.7143  0.5456
10139SOL    HW131316   3.006   3.568   2.548 -0.2765  1.4525  1.9279
10139SOL    HW231317   2.993   3.730   2.560  2.0065  1.7793  0.5664
10140SOL     OW31318   1.956   4.859   4.480  0.2890 -0.1649  0.0104
10140SOL    HW131319   1.898   4.801   4.538  0.7748  0.6570  1.3558
10140SOL    HW231320   2.048   4.822   4.476  0.6379  0.5735  0.9900
10141SOL     OW31321   1.633   5.912   3.709 -0.2664  0.3448  0.5141
10141SOL    HW131322   1.724   5.925   3.670 -0.9246 -1.1096 -1.6538
10141SOL    HW231323   1.583   5.999   3.706  0.8253  1.0313  1.2528
10142SOL     OW31324   6.071   5.457   4.180  0.0332  0.1054 -0.0718
10142SOL    HW131325   6.165   5.485   4.164  0.1120  0.0610  0.3115
10142SOL    HW231326   6.011   5.537   4.180  0.1559  0.1956  0.2968
10143SOL     OW31327   4.131   5.742   0.556 -0.3123 -0.3128 -0.0235
10143SOL    HW131328   4.053   5.805   0.559 -0.6512 -0.6892 -0.7176
10143SOL    HW231329   4.149   5.715   0.462 -0.1046 -1.1648  0.2491
10144SOL     OW31330   2.381   5.572   3.507 -0.1718 -0.7109 -0.1032
10144SOL    HW131331   2.413   5.583   3.413  0.6701  0.3623  0.2847
10144SOL    HW231332   2.313   5.642   3.528  1.7487  0.9736  0.9300
10145SOL     OW31333   3.019   6.789   5.841  0.3902 -0.4546  0.0625
10145SOL    HW131334   3.024   6.691   5.864 -0.3210 -0.3120  0.8732
10145SOL    HW231335   3.030   6.800   5.742 -0.9877 -1.5067 -0.2494
10146SOL     OW31336   5.979   3.835   3.618  0.0480  0.0200  1.0287
10146SOL    HW131337   5.978   3.927   3.657 -0.7938  0.4306  0.0882
10146SOL    HW231338   5.902   3.825   3.554  0.1794 -1.3086  1.0485
10147SOL     OW31339   6.253   6.665   5.041 -0.2076 -0.1111 -0.3113
10147SOL    HW131340   6.197   6.583   5.029  1.0235 -1.4250  2.2422
10147SOL    HW231341   6.193   6.746   5.041 -1.8946 -1.3018  0.5851
10148SOL     OW31342   6.223   0.199   0.862  0.0224 -0.8058  0.0054
10148SOL    HW131343   6.310   0.157   0.838  1.2205  1.3138  0.3639
10148SOL    HW231344   6.231   0.245   0.951 -0.6719  1.4977 -1.0458
10149SOL     OW31345   5.806   1.479   1.321  0.0008  0.0667 -0.1544
10149SOL    HW131346   5.825   1.407   1.254 -0.4936 -1.0374  0.8616
10149SOL    HW231347   5.882   1.544   1.322  0.0907  0.0268 -1.6571
10150SOL     OW31348   6.210   5.011   0.346 -0.0814  0.4885  0.0866
10150SOL    HW131349   6.120   5.021   0.388 -0.5278 -2.5187  0.0191
10150SOL    HW231350   6.204   4.949   0.268  2.0506  0.1858  0.1064
10151SOL     OW31351   6.752   3.341   5.178 -0.0730 -0.2837 -0.4554
10151SOL    HW131352   6.754   3.430   5.224  1.0962 -0.2021 -0.6341
10151SOL    HW231353   6.672   3.289   5.209 -0.8433  0.8820 -0.4596
10152SOL     OW31354   1.225   4.472   4.008  0.5666  0.5559 -0.1605
10152SOL    HW131355   1.187   4.423   3.930  2.1025  0.8616 -1.1531
10152SOL    HW231356   1.231   4.411   4.087  0.9755 -0.4000 -0.9127
10153SOL     OW31357   4.704   4.585   5.284 -0.6289  0.2086 -0.1080
10153SOL    HW131358   4.631   4.525   5.314 -1.1437  0.2877 -1.1526
10153SOL    HW231359   4.671   4.643   5.210  0.5711  0.0272 -0.8161
10154SOL     OW31360   4.990   6.461   0.012 -0.0854  0.0160  0.1513
10154SOL    HW131361   5.047   6.404  -0.047  0.2783 -1.1846  1.6028
10154SOL    HW231362   5.046   6.533   0.053 -0.1419  0.2771 -0.2181
10155SOL     OW31363   5.705   2.228   5.613 -0.0504  0.2956 -0.5115
10155SOL    HW131364   5.766   2.214   5.691 -1.8359  0.5160  0.9895
10155SOL    HW231365   5.612   2.203   5.639 -0.8041  1.0477 -2.3695
10156SOL     OW31366   4.795   0.084   1.966  0.4021 -0.3361 -0.5736
10156SOL    HW131367   4.754   0.175   1.954  0.5683 -0.0891  0.6056
10156SOL    HW231368   4.849   0.083   2.050 -1.1278 -2.0652  0.4454
10157SOL     OW31369   4.083   5.749   1.844 -0.2098 -0.3891  0.2891
10157SOL    HW131370   4.033   5.829   1.811 -1.5201 -0.9383  0.8810
10157SOL    HW231371   4.029   5.666   1.825  0.0796 -0.9211  1.7003
10158SOL     OW31372   4.717   2.840   4.277  0.7301  0.6090  0.1556
10158SOL    HW131373   4.699   2.771   4.347  0.2670  1.5879  1.0390
10158SOL    HW231374   4.765   2.798   4.200  1.0354 -0.5496  0.9479
10159SOL     OW31375   1.168   0.513   5.167 -0.2887  0.1550 -0.4864
10159SOL    HW131376   1.180   0.415   5.153 -1.0363  0.0997 -0.7555
10159SOL    HW231377   1.119   0.530   5.252  0.7311  0.3455  0.0858
10160SOL     OW31378   6.966   0.511   4.307  0.1616 -0.1076 -0.5246
10160SOL    HW131379   6.890   0.496   4.244  0.4355  1.2242 -1.2180
10160SOL    HW231380   7.049   0.530   4.254  0.3096  1.4571  0.2215
10161SOL     OW31381   3.143   5.952   5.430  0.2202  0.4993  0.3533
10161SOL    HW131382   3.127   6.039   5.478  0.8180  0.4710  0.6097
10161SOL    HW231383   3.189   5.969   5.344 -0.1259  0.4785  0.1628
10162SOL     OW31384   1.863   1.804   5.296 -0.1907 -0.3045  0.1547
10162SOL    HW131385   1.823   1.887   5.335 -1.2334 -0.3359 -0.8136
10162SOL    HW231386   1.791   1.737   5.278  0.6213 -1.3930  0.8070
10163SOL     OW31387   1.074   3.332   5.599 -0.0918 -0.1071  0.0912
10163SOL    HW131388   1.169   3.358   5.584 -0.0280 -0.2189  0.3006
10163SOL    HW231389   1.015   3.380   5.533  0.2003 -0.7403 -0.6432
10164SOL     OW31390   2.045   2.111   5.233  0.2463  0.2564 -0.1112
10164SOL    HW131391   2.093   2.068   5.309  1.0514  0.0932 -0.7053
10164SOL    HW231392   1.954   2.139   5.263 -0.0028 -1.1251  0.5177
10165SOL     OW31393   0.699   3.177   4.575 -0.5282  0.3171  0.3115
10165SOL    HW131394   0.671   3.081   4.571 -0.5323  0.3573 -1.5103
10165SOL    HW231395   0.799   3.183   4.575 -0.3755  0.2715 -3.3387
10166SOL     OW31396   6.073   1.688   2.860  0.1534  0.4409  0.2197
10166SOL    HW131397   6.134   1.724   2.930  0.3369  0.3337  0.1164
10166SOL    HW231398   6.119   1.691   2.771  0.1324  0.0473  0.1936
10167SOL     OW31399   3.373   6.556   2.454 -0.1813  0.5104 -0.1201
10167SOL    HW131400   3.392   6.608   2.537 -3.2575  0.9167  0.4454
10167SOL    HW231401   3.326   6.471   2.479  0.8068 -0.4397 -1.3522
10168SOL     OW31402   6.887   4.187   4.389 -0.8243  0.1191 -0.3385
10168SOL    HW131403   6.868   4.263   4.326  0.2143 -0.8021 -1.8300
10168SOL    HW231404   6.972   4.142   4.362 -1.7524 -1.9991  0.0585
10169SOL     OW31405   6.060   1.950   4.806  0.2887 -0.1136 -0.5091
10169SOL    HW131406   6.087   1.882   4.738 -0.8366 -1.4056  0.2727
10169SOL    HW231407   5.976   1.996   4.777  0.2257 -0.1298 -0.3579
10170SOL     OW31408   2.145   5.684   5.546 -0.1413 -0.7051  0.5304
10170SOL    HW131409   2.168   5.616   5.477 -2.1527  0.0834 -0.9899
10170SOL    HW231410   2.091   5.757   5.505 -1.5610 -0.2820  2.9677
10171SOL     OW31411   0.090   4.760   6.900  0.0617 -0.0816 -0.2039
10171SOL    HW131412   0.142   4.693   6.952 -0.0194 -0.2645 -0.3557
10171SOL    HW231413  -0.007   4.736   6.902 -0.2269  1.0153  1.2475
10172SOL     OW31414   4.893   6.797   6.517  0.1317  0.0061  0.7260
10172SOL    HW131415   4.921   6.706   6.487  0.2075 -0.3371  1.8028
10172SOL    HW231416   4.868   6.794   6.614 -0.8432  0.9187  0.5177
10173SOL     OW31417   1.941   3.530   0.077  0.1554  0.0098 -0.3748
10173SOL    HW131418   1.979   3.618   0.048 -0.8172  0.3305 -0.7207
10173SOL    HW231419   1.852   3.545   0.119  0.6984 -0.6565  1.0842
10174SOL     OW31420   6.632   5.676   0.509  0.0913 -0.4688 -0.6043
10174SOL    HW131421   6.688   5.613   0.455  0.3012  0.8255 -1.9802
10174SOL    HW231422   6.664   5.677   0.603  1.3599 -0.9370 -1.0103
10175SOL     OW31423   5.476   0.956   5.431 -0.9058 -0.8612 -0.2467
10175SOL    HW131424   5.456   1.052   5.450  2.3656  0.1820 -1.4126
10175SOL    HW231425   5.430   0.898   5.499 -0.8319  1.6910  2.1479
10176SOL     OW31426   3.197   0.965   6.532 -0.1670  0.0449 -0.1763
10176SOL    HW131427   3.149   0.953   6.619 -2.0124  0.5835 -1.0530
10176SOL    HW231428   3.241   1.055   6.531  1.6858 -0.8033  0.9813
10177SOL     OW31429   6.612   1.135   5.258 -0.1637  0.1314  0.4609
10177SOL    HW131430   6.550   1.104   5.330  1.0922  0.0923  1.5649
10177SOL    HW231431   6.590   1.087   5.173 -3.7407  2.4353 -0.1267
10178SOL     OW31432   3.081   3.864   5.481 -0.3207 -0.6392  0.4933
10178SOL    HW131433   2.983   3.841   5.482 -0.5152  0.0402 -0.5473
10178SOL    HW231434   3.126   3.810   5.410 -0.5544  1.2217 -1.1469
10179SOL     OW31435   0.068   3.796   1.254  0.2254  0.0762 -0.0166
10179SOL    HW131436   0.082   3.860   1.179 -0.6931  1.0883  0.6403
10179SOL    HW231437  -0.028   3.799   1.283  0.3760 -0.9229  0.6465
10180SOL     OW31438   1.418   6.657   6.168  0.0511  0.4472 -0.0539
10180SOL    HW131439   1.447   6.576   6.117  0.3908  0.7554 -0.3537
10180SOL    HW231440   1.445   6.647   6.264 -0.3778 -0.0266  0.0238
10181SOL     OW31441   5.325   2.124   1.508 -1.0328  0.6827 -0.6041
10181SOL    HW131442   5.370   2.066   1.577 -0.0717  0.5187 -1.3440
10181SOL    HW231443   5.266   2.190   1.553  0.7701  1.6190  0.5007
10182SOL     OW31444   4.139   0.848   1.187  0.0056 -0.1497 -0.1925
10182SOL    HW131445   4.181   0.893   1.265 -0.6350 -0.0462  0.1010
10182SOL    HW231446   4.083   0.772   1.218 -0.6110  0.1633 -0.5005
10183SOL     OW31447   1.475   0.178   5.279  0.0281  0.2722  0.1570
10183SOL    HW131448   1.522   0.217   5.358 -1.0357 -0.6997  1.3244
10183SOL    HW231449   1.391   0.132   5.310  0.1349 -1.0571 -1.4144
10184SOL     OW31450   4.559   6.594   0.454 -0.1792  0.6614 -0.2317
10184SOL    HW131451   4.656   6.575   0.474  0.2208  1.9370 -0.8451
10184SOL    HW231452   4.524   6.660   0.519 -0.8243 -0.2233  0.3387
10185SOL     OW31453   3.320   6.360   6.358 -0.3727  0.1099  0.1881
10185SOL    HW131454   3.348   6.445   6.314 -0.2318 -0.9435 -1.8583
10185SOL    HW231455   3.401   6.312   6.392 -0.5758  1.6273  3.1355
10186SOL     OW31456   5.318   2.496   2.291 -0.4731 -0.1382 -0.6651
10186SOL    HW131457   5.229   2.530   2.320  1.3313  3.7001  1.1644
10186SOL    HW231458   5.369   2.464   2.371  0.8835  0.7881 -1.1130
10187SOL     OW31459   0.045   2.258   1.465 -0.1166 -0.1023  0.1774
10187SOL    HW131460   0.067   2.237   1.369  1.8019  1.4292  0.2178
10187SOL    HW231461   0.032   2.357   1.475 -3.8855 -0.5112  0.8999
10188SOL     OW31462   3.939   0.355   0.373 -0.3144 -0.0683 -0.2050
10188SOL    HW131463   3.988   0.398   0.297  0.0932 -0.1055  0.0375
10188SOL    HW231464   3.844   0.386   0.373  0.1265  1.3589  0.3588
10189SOL     OW31465   6.848   5.696   6.179 -0.0403  0.3724  0.5350
10189SOL    HW131466   6.869   5.782   6.225 -0.1598  1.4525 -1.3372
10189SOL    HW231467   6.749   5.687   6.168  0.0398  1.2260 -1.3812
10190SOL     OW31468   6.705   0.879   0.042  0.0839  0.1853  0.1760
10190SOL    HW131469   6.664   0.929  -0.035  0.6650 -1.4395 -1.2559
10190SOL    HW231470   6.804   0.894   0.042  0.1275 -0.1067  0.3944
10191SOL     OW31471   6.813   3.604   6.605  0.8863  0.1352  0.2824
10191SOL    HW131472   6.762   3.643   6.682  0.8705 -0.5611  0.6365
10191SOL    HW231473   6.814   3.669   6.529  1.0387  0.8915  0.9276
10192SOL     OW31474   2.987   0.439   0.622  0.2064  0.1467  0.0836
10192SOL    HW131475   3.050   0.465   0.694 -0.1747  1.4998 -0.0497
10192SOL    HW231476   2.895   0.432   0.659 -0.3283  2.7494 -0.5889
10193SOL     OW31477   4.229   4.288   0.907 -0.3985 -0.1338 -0.2074
10193SOL    HW131478   4.269   4.371   0.867 -1.6471  1.1341  1.0429
10193SOL    HW231479   4.296   4.242   0.964  0.0560  0.5229 -0.1981
10194SOL     OW31480   4.051   1.569   5.061 -0.6450  0.2902  0.2926
10194SOL    HW131481   4.063   1.551   5.158  0.7839  2.5399  0.5923
10194SOL    HW231482   4.129   1.533   5.010 -0.1350  1.3395  0.3138
10195SOL     OW31483   6.202   5.814   1.706  0.0412  0.0909 -0.4864
10195SOL    HW131484   6.142   5.814   1.785 -2.1499 -1.9856 -1.9908
10195SOL    HW231485   6.261   5.895   1.708 -0.5729  0.5722  2.7098
10196SOL     OW31486   1.148   0.055   3.997  0.2770 -0.0082 -0.2305
10196SOL    HW131487   1.241   0.093   4.003 -0.1364  1.4251 -1.9254
10196SOL    HW231488   1.114   0.067   3.904 -2.2933  1.1944  0.7608
10197SOL     OW31489   2.983   2.189   0.157 -0.2169 -0.1964  0.2947
10197SOL    HW131490   3.081   2.205   0.164 -0.2712  0.2849  0.0308
10197SOL    HW231491   2.952   2.214   0.065 -0.7387  0.5201  0.6602
10198SOL     OW31492   4.081   0.232   2.446  0.0215 -0.1248  0.2981
10198SOL    HW131493   4.150   0.171   2.407 -0.2258  0.2247 -0.7058
10198SOL    HW231494   4.002   0.178   2.475 -0.0850 -0.3056 -0.3349
10199SOL     OW31495   0.228   1.320   5.900 -0.1076  0.1247  0.2195
10199SOL    HW131496   0.274   1.357   5.818 -0.1223  1.0845  0.6301
10199SOL    HW231497   0.280   1.347   5.981  0.6194 -1.8982  0.4722
10200SOL     OW31498   6.627   2.882   2.542  0.3331 -0.1033  0.3442
10200SOL    HW131499   6.682   2.881   2.626 -0.5904  1.0262  0.9811
10200SOL    HW231500   6.652   2.961   2.487 -2.2748  1.9000  1.8074
10201SOL     OW31501   2.215   2.022   1.264  0.3255  0.2074  0.0374
10201SOL    HW131502   2.278   1.954   1.302  0.5221  0.8637  0.9284
10201SOL    HW231503   2.140   1.975   1.218  1.3590 -0.5948 -0.9018
10202SOL     OW31504   2.475   5.185   2.932  0.6480 -0.4559 -0.1730
10202SOL    HW131505   2.398   5.208   2.872  0.2931  1.7477  1.0488
10202SOL    HW231506   2.443   5.127   3.007 -0.2968  1.8937  1.3366
10203SOL     OW31507   2.205   4.311   4.035  0.9067  0.1082  0.4142
10203SOL    HW131508   2.115   4.325   3.994  0.6387 -1.4174  0.4326
10203SOL    HW231509   2.270   4.283   3.964  1.0811  0.0153  0.6086
10204SOL     OW31510   4.657   5.325   0.424 -0.1774 -0.3823 -0.2482
10204SOL    HW131511   4.694   5.379   0.349 -0.9048  1.2757  0.5392
10204SOL    HW231512   4.568   5.288   0.398  0.4652 -1.5252 -0.9067
10205SOL     OW31513   6.670   2.011   6.809 -0.7758 -0.2298  0.2985
10205SOL    HW131514   6.649   1.993   6.905 -1.2367  1.0666  0.4617
10205SOL    HW231515   6.590   1.988   6.753 -0.7406 -0.3678  0.3058
10206SOL     OW31516   3.120   1.487   3.215  0.4967  0.1531 -0.3208
10206SOL    HW131517   3.031   1.515   3.179  0.2647 -1.8061 -1.4094
10206SOL    HW231518   3.114   1.475   3.314 -0.0237  1.4679 -0.1767
10207SOL     OW31519   1.437   3.386   0.544  0.3756  0.3029  0.1561
10207SOL    HW131520   1.469   3.411   0.636  1.3472 -0.4637  0.0462
10207SOL    HW231521   1.367   3.450   0.514 -2.9879 -1.6304  3.0786
10208SOL     OW31522   0.359   1.354   6.985  0.4795  0.4429  0.5012
10208SOL    HW131523   0.296   1.402   7.046  0.6539 -1.2348  2.0614
10208SOL    HW231524   0.449   1.347   7.029  0.9946  0.3978 -0.5334
10209SOL     OW31525   1.246   6.313   4.362  0.4316 -0.3015  0.0911
10209SOL    HW131526   1.225   6.405   4.329  1.7599  0.1641  0.4624
10209SOL    HW231527   1.172   6.280   4.420  0.0391  0.6244  0.1212
10210SOL     OW31528   2.610   0.649   2.921  0.2812 -0.4649  0.1028
10210SOL    HW131529   2.540   0.612   2.981  1.0657 -0.8394  0.8088
10210SOL    HW231530   2.631   0.743   2.949 -0.4807 -0.0792 -0.5974
10211SOL     OW31531   0.295   4.751   0.228  0.1084  0.2367  0.3137
10211SOL    HW131532   0.270   4.675   0.167  1.2749 -1.2321  1.5866
10211SOL    HW231533   0.365   4.721   0.292 -0.4993  1.9514  1.8880
10212SOL     OW31534   0.990   6.313   0.473 -0.3769  0.0504 -0.1907
10212SOL    HW131535   1.052   6.245   0.514 -1.7319 -1.2717 -0.2790
10212SOL    HW231536   0.990   6.395   0.530 -0.5102 -0.9192  1.2685
10213SOL     OW31537   6.627   2.211   1.473  0.0501  0.2671 -0.6321
10213SOL    HW131538   6.678   2.210   1.387 -0.4167  0.4313 -0.9167
10213SOL    HW231539   6.656   2.134   1.530  1.0832  0.7445 -0.5031
10214SOL     OW31540   1.867   1.700   2.135  0.3654 -0.4191 -0.0044
10214SOL    HW131541   1.811   1.760   2.078 -1.9209 -1.4927  0.9822
10214SOL    HW231542   1.810   1.660   2.207  2.7523 -0.5129  1.9405
10215SOL     OW31543   3.770   3.293   2.104  0.0542  0.1036 -0.1119
10215SOL    HW131544   3.750   3.387   2.132 -1.7191 -0.1316 -0.4896
10215SOL    HW231545   3.771   3.289   2.004 -2.8264 -0.7981 -0.1758
10216SOL     OW31546   0.460   0.546   3.114  0.3340  0.4273 -0.0184
10216SOL    HW131547   0.481   0.551   3.016  3.4141 -2.3557  0.3147
10216SOL    HW231548   0.519   0.609   3.164 -0.9095  1.5089  0.1194
10217SOL     OW31549   5.279   1.672   5.759  0.0111 -0.1396 -0.2371
10217SOL    HW131550   5.305   1.768   5.757  1.2351 -0.4451 -2.7842
10217SOL    HW231551   5.201   1.657   5.697 -1.0005 -0.6237  1.0914
10218SOL     OW31552   0.925   1.818   2.602 -0.0532 -0.0364 -0.2314
10218SOL    HW131553   0.915   1.916   2.584  0.0306 -0.2577 -1.5251
10218SOL    HW231554   0.838   1.772   2.584  0.6702 -0.6181 -2.5751
10219SOL     OW31555   5.711   5.502   3.465 -0.5678  0.1502 -0.1641
10219SOL    HW131556   5.740   5.584   3.416  0.9690  0.0368  0.5069
10219SOL    HW231557   5.789   5.462   3.514 -1.6885 -0.6514  1.0588
10220SOL     OW31558   3.309   3.162   6.947 -0.0781  0.2396 -0.0414
10220SOL    HW131559   3.215   3.155   6.982 -0.1977  1.7857  0.0206
10220SOL    HW231560   3.334   3.258   6.938  1.7218 -0.1429  0.5022
10221SOL     OW31561   1.491   5.625   4.287 -0.5286 -0.8497 -0.2497
10221SOL    HW131562   1.481   5.669   4.198  0.6137  0.1920  0.0947
10221SOL    HW231563   1.542   5.540   4.278 -1.6700 -1.4971 -0.7631
10222SOL     OW31564   3.343   2.878   3.215 -0.0324  0.3363 -0.5484
10222SOL    HW131565   3.334   2.845   3.121  0.7828  0.0012 -0.5183
10222SOL    HW231566   3.440   2.887   3.238 -0.1803 -1.1475  0.8044
10223SOL     OW31567   1.707   5.852   6.539 -0.1253  0.0501  0.1284
10223SOL    HW131568   1.735   5.947   6.532 -1.9596  0.7695  1.6437
10223SOL    HW231569   1.753   5.798   6.468 -0.6931  2.4262 -2.2021
10224SOL     OW31570   0.684   4.406   4.183 -0.2012 -0.3191 -0.1177
10224SOL    HW131571   0.723   4.400   4.091  1.5709  0.9997  0.4954
10224SOL    HW231572   0.627   4.326   4.200 -1.6688  0.0285 -2.8275
10225SOL     OW31573   1.675   4.848   6.429 -0.3010 -0.6186  0.0391
10225SOL    HW131574   1.604   4.909   6.395  0.7129  1.6026  1.6440
10225SOL    HW231575   1.638   4.791   6.503 -0.5867  0.0426  0.4126
10226SOL     OW31576   3.582   4.500   0.732  0.9312 -0.0352  0.2282
10226SOL    HW131577   3.634   4.417   0.716 -1.1697 -1.1662 -1.1964
10226SOL    HW231578   3.632   4.579   0.697  1.9592 -0.9779 -0.4532
10227SOL     OW31579   5.049   3.606   0.289  0.2200  0.2944 -0.2797
10227SOL    HW131580   5.032   3.526   0.346  0.9740  0.3208 -0.0018
10227SOL    HW231581   5.062   3.686   0.347 -1.3770  0.8047 -0.5831
10228SOL     OW31582   4.999   0.399   6.596 -0.1224  0.5148  0.4435
10228SOL    HW131583   4.956   0.464   6.533 -0.1246  1.3898  1.3166
10228SOL    HW231584   5.030   0.448   6.678  1.7469 -0.2448  0.2183
10229SOL     OW31585   1.077   3.542   4.021 -0.9507  0.9358 -0.5148
10229SOL    HW131586   0.988   3.568   3.984  0.1000  3.0737 -1.7625
10229SOL    HW231587   1.065   3.492   4.107 -3.3173  1.3276 -0.5695
10230SOL     OW31588   5.426   5.967   3.811 -0.3113 -0.1956  0.1225
10230SOL    HW131589   5.475   5.908   3.746  0.1848  1.8487 -1.4641
10230SOL    HW231590   5.490   6.029   3.855 -0.9891 -0.0034  0.8714
10231SOL     OW31591   0.454   2.443   2.862  0.0217  0.8070 -0.5765
10231SOL    HW131592   0.396   2.487   2.794  0.5533  2.6248  0.1013
10231SOL    HW231593   0.408   2.445   2.951  0.1533  0.1542 -0.4862
10232SOL     OW31594   4.148   5.314   1.237 -0.1213  0.0254 -0.2787
10232SOL    HW131595   4.222   5.324   1.171 -0.9169  1.6211 -0.9885
10232SOL    HW231596   4.150   5.222   1.276  1.7875 -0.1871 -0.7879
10233SOL     OW31597   3.171   3.701   5.732 -0.1206  0.5947  0.7113
10233SOL    HW131598   3.257   3.684   5.685 -0.0396 -0.4011  1.1868
10233SOL    HW231599   3.144   3.796   5.720  0.7680  0.7782  0.1055
10234SOL     OW31600   6.870   1.275   2.016  0.1945  0.0878 -0.0374
10234SOL    HW131601   6.918   1.319   2.092  2.5176 -1.1477 -0.6893
10234SOL    HW231602   6.877   1.176   2.026 -2.6482 -0.1889  0.0061
10235SOL     OW31603   6.384   6.563   4.336 -0.1711 -0.2589 -0.0366
10235SOL    HW131604   6.414   6.518   4.252  0.5790  1.4696 -0.7410
10235SOL    HW231605   6.463   6.591   4.389 -0.6347 -0.3371  0.7095
10236SOL     OW31606   0.763   1.060   3.458  0.3563  0.1401  0.1737
10236SOL    HW131607   0.752   1.106   3.370  0.7380 -0.3503 -0.1346
10236SOL    HW231608   0.859   1.063   3.485  0.2145  0.4285  0.6506
10237SOL     OW31609   0.872   3.785   6.852 -0.0467 -0.6820  0.1327
10237SOL    HW131610   0.785   3.800   6.805  0.5107 -0.0640 -0.7202
10237SOL    HW231611   0.906   3.872   6.888  1.2308 -0.5262 -1.3525
10238SOL     OW31612   1.607   6.875   1.874  0.3103 -0.2066  0.2710
10238SOL    HW131613   1.560   6.798   1.830 -0.8282  0.3655  0.4632
10238SOL    HW231614   1.704   6.852   1.885  0.9202  0.0279 -3.5034
10239SOL     OW31615   2.857   5.108   5.622 -0.5384  0.5006  0.4548
10239SOL    HW131616   2.897   5.021   5.596  0.1813  0.2804  2.1791
10239SOL    HW231617   2.916   5.183   5.590 -0.6697  0.3340 -0.1970
10240SOL     OW31618   2.249   1.132   2.067  0.2525  0.2704  0.5770
10240SOL    HW131619   2.194   1.145   1.985  0.7918  1.8959  0.4487
10240SOL    HW231620   2.234   1.039   2.102 -0.6953 -0.1362 -0.8082
10241SOL     OW31621   4.529   2.509   1.971  0.0789  0.2790 -0.3665
10241SOL    HW131622   4.476   2.484   1.890  1.1936 -0.1772 -0.9816
10241SOL    HW231623   4.575   2.596   1.955  0.5044  0.0620 -0.3275
10242SOL     OW31624   0.791   4.030   1.040  0.1455  0.0133  0.3895
10242SOL    HW131625   0.818   4.066   0.951  0.9821  0.6879  0.8908
10242SOL    HW231626   0.867   3.977   1.079  0.0338  0.2768  0.9789
10243SOL     OW31627   3.366   5.385   1.464 -0.2677 -0.4054 -0.6377
10243SOL    HW131628   3.421   5.307   1.495  0.1371 -0.2607 -0.9749
10243SOL    HW231629   3.412   5.470   1.489 -0.1056 -0.2866 -1.3287
10244SOL     OW31630   1.438   6.685   1.306  0.2111  0.5084 -0.4112
10244SOL    HW131631   1.496   6.718   1.232  0.1795 -1.5461 -1.4148
10244SOL    HW231632   1.455   6.588   1.321 -2.0987  0.1154  0.0705
10245SOL     OW31633   6.406   4.191   2.010  0.7726 -0.7910 -0.2371
10245SOL    HW131634   6.385   4.098   1.980  1.6184 -0.8272 -0.7509
10245SOL    HW231635   6.480   4.228   1.954  0.1631  0.3493 -0.3112
10246SOL     OW31636   3.220   4.191   1.472 -0.0093 -0.2615 -0.2004
10246SOL    HW131637   3.121   4.200   1.470  0.0029  0.0598  0.4472
10246SOL    HW231638   3.246   4.099   1.442 -0.6369 -1.0817  1.5968
10247SOL     OW31639   0.474   2.412   4.046  0.0586  0.4241  0.9248
10247SOL    HW131640   0.470   2.360   4.132 -1.1071 -2.4898 -0.7286
10247SOL    HW231641   0.383   2.443   4.022 -1.0096 -4.0998 -2.0471
10248SOL     OW31642   2.259   1.029   3.377 -0.4599  0.3158  0.0394
10248SOL    HW131643   2.271   1.104   3.443 -1.3678  0.7675 -0.2950
10248SOL    HW231644   2.345   1.014   3.328 -0.6459  2.1358 -0.9202
10249SOL     OW31645   2.927   5.355   6.341  0.3358 -0.0506 -0.1470
10249SOL    HW131646   2.853   5.373   6.276 -0.1490 -0.4278  0.2798
10249SOL    HW231647   3.010   5.330   6.292  0.2901  0.7627 -0.6501
10250SOL     OW31648   3.668   2.621   0.420 -0.5221 -0.0555  0.5903
10250SOL    HW131649   3.688   2.673   0.338  0.5432 -0.6767  0.4250
10250SOL    HW231650   3.593   2.557   0.403 -1.2503  0.8065  0.5401
10251SOL     OW31651   0.631   1.821   5.368 -0.0751 -0.6209 -0.4099
10251SOL    HW131652   0.631   1.771   5.455  0.8964  1.4324  0.8623
10251SOL    HW231653   0.664   1.914   5.384 -1.0050  0.1853 -2.8103
10252SOL     OW31654   6.418   3.341   1.241 -0.3986  0.0056  0.1421
10252SOL    HW131655   6.380   3.263   1.290 -0.3062  0.0992  0.3674
10252SOL    HW231656   6.379   3.426   1.278 -0.1474  0.0897  0.2212
10253SOL     OW31657   2.463   4.774   6.021 -0.1502 -0.2179 -0.1009
10253SOL    HW131658   2.464   4.874   6.026 -2.9254 -0.0719 -0.5959
10253SOL    HW231659   2.386   4.739   6.076  0.1275 -1.9987 -0.7842
10254SOL     OW31660   6.458   1.722   3.467 -0.9895 -0.0665  0.1147
10254SOL    HW131661   6.480   1.749   3.561 -0.8799  0.8965 -0.1766
10254SOL    HW231662   6.389   1.783   3.430  1.1740  1.5863 -1.4800
10255SOL     OW31663   3.433   3.969   0.118 -0.6189  0.4214  0.5311
10255SOL    HW131664   3.439   4.010   0.209 -0.0216 -0.9526  1.1303
10255SOL    HW231665   3.398   3.876   0.125  1.4418 -0.4790 -0.3986
10256SOL     OW31666   4.150   1.961   4.479 -0.2822 -0.2051 -0.6802
10256SOL    HW131667   4.191   1.925   4.395  1.6631 -2.1987  0.9949
10256SOL    HW231668   4.118   1.885   4.536 -0.2525  0.9874  1.0066
10257SOL     OW31669   3.602   5.744   3.655  0.3264  0.6492 -0.5634
10257SOL    HW131670   3.611   5.676   3.728  0.6721 -1.2716 -2.3144
10257SOL    HW231671   3.651   5.827   3.681 -0.7166  0.5604  1.9450
10258SOL     OW31672   4.343   2.361   2.710  0.2645 -0.3166 -0.1933
10258SOL    HW131673   4.407   2.376   2.635  0.3279  2.0627  0.2305
10258SOL    HW231674   4.251   2.388   2.681  0.1441 -0.1722  0.3018
10259SOL     OW31675   2.182   3.960   3.907 -0.6513  0.1468 -0.0213
10259SOL    HW131676   2.110   3.933   3.843 -0.3621 -0.5318 -0.0749
10259SOL    HW231677   2.207   3.881   3.963  1.7598 -0.3577 -1.6493
10260SOL     OW31678   6.955   1.171   4.452  0.3122 -0.1646 -0.7612
10260SOL    HW131679   6.935   1.163   4.549 -0.1538 -0.4516 -0.8783
10260SOL    HW231680   6.936   1.264   4.421 -1.5807 -0.6015 -1.0232
10261SOL     OW31681   5.742   4.309   0.335  0.4849  0.4335  0.0460
10261SOL    HW131682   5.718   4.305   0.239 -0.8385  0.0619  0.3781
10261SOL    HW231683   5.836   4.277   0.347 -0.0121 -1.5254 -0.8845
10262SOL     OW31684   4.466   1.482   6.047  0.4080  0.7499  0.0645
10262SOL    HW131685   4.511   1.404   6.091  1.4137  1.1237 -0.2745
10262SOL    HW231686   4.453   1.462   5.950  1.4995  1.3544 -0.2142
10263SOL     OW31687   4.242   0.088   2.834  0.1321 -0.0274  0.0212
10263SOL    HW131688   4.264   0.105   2.930  1.3326 -0.2509 -0.1996
10263SOL    HW231689   4.292   0.007   2.803  2.6789  2.0581 -1.7762
10264SOL     OW31690   6.873   1.483   5.796  1.2445  0.1858  0.2649
10264SOL    HW131691   6.872   1.577   5.830 -2.7666  0.4539 -0.0191
10264SOL    HW231692   6.851   1.421   5.871  1.9748 -0.3135  0.0702
10265SOL     OW31693   2.112   6.976   4.122 -0.6375 -0.0337  0.1699
10265SOL    HW131694   2.058   7.002   4.042 -1.0788  1.0477  0.8067
10265SOL    HW231695   2.052   6.951   4.197 -0.2220 -1.9276 -0.0827
10266SOL     OW31696   2.364   2.846   1.628 -0.7645 -0.3654 -0.5428
10266SOL    HW131697   2.277   2.805   1.654 -0.9220 -1.0129 -1.9793
10266SOL    HW231698   2.439   2.795   1.671 -1.0704  0.4401  1.0219
10267SOL     OW31699   4.499   6.459   2.268  0.2344 -0.4553 -0.5421
10267SOL    HW131700   4.499   6.547   2.221  2.4419  0.1159  0.4163
10267SOL    HW231701   4.525   6.473   2.364 -1.5886 -1.9062  0.2175
10268SOL     OW31702   3.304   5.025   3.411 -0.8975  0.2381  0.0848
10268SOL    HW131703   3.350   4.974   3.484  0.4930  0.4688 -0.5989
10268SOL    HW231704   3.359   5.105   3.386 -2.1579  1.0643 -0.1111
10269SOL     OW31705   3.974   0.125   5.694  0.2087  0.5701  0.1582
10269SOL    HW131706   3.964   0.061   5.770  0.1601 -0.7875 -0.9593
10269SOL    HW231707   4.070   0.133   5.669  0.5257  2.7849  1.7889
10270SOL     OW31708   2.644   6.860   2.087  0.4753 -0.9456  0.4838
10270SOL    HW131709   2.617   6.955   2.101  1.5904 -0.7508  1.4919
10270SOL    HW231710   2.636   6.809   2.173  0.1817 -1.6881  0.0288
10271SOL     OW31711   6.134   1.984   5.074 -0.6911  0.0302  0.1059
10271SOL    HW131712   6.104   1.978   4.978 -1.8464  0.8070  0.3957
10271SOL    HW231713   6.234   1.981   5.078 -0.6535 -2.6710 -0.9017
10272SOL     OW31714   6.522   6.669   5.059  0.9736  0.0603  0.6291
10272SOL    HW131715   6.566   6.703   5.142  1.1590 -2.3168  1.5904
10272SOL    HW231716   6.424   6.661   5.074  0.4327  2.8930 -0.6425
10273SOL     OW31717   2.639   5.892   3.452 -0.0071  0.4420  0.2221
10273SOL    HW131718   2.546   5.923   3.472 -0.5701 -1.1436  0.2682
10273SOL    HW231719   2.644   5.860   3.357 -0.1683 -1.5750  0.8390
10274SOL     OW31720   0.173   3.651   4.418 -0.2230  0.0465 -0.1889
10274SOL    HW131721   0.074   3.661   4.425 -0.4323 -1.9810  0.5736
10274SOL    HW231722   0.196   3.606   4.332 -0.2190 -1.6040  0.6278
10275SOL     OW31723   1.189   0.788   2.754  0.2389  0.3963 -0.2723
10275SOL    HW131724   1.150   0.774   2.845  0.6326  2.4066  0.2519
10275SOL    HW231725   1.195   0.886   2.735  3.0504  0.1462 -1.1939
10276SOL     OW31726   2.728   4.697   3.730 -0.2612  1.3344 -0.1780
10276SOL    HW131727   2.684   4.635   3.666 -0.3526 -1.0498  2.0593
10276SOL    HW231728   2.820   4.719   3.698 -0.1252 -0.1930 -0.8926
10277SOL     OW31729   6.977   0.320   5.444  0.0161  0.0574 -0.3167
10277SOL    HW131730   6.881   0.331   5.418 -0.1299  0.0056  0.1993
10277SOL    HW231731   6.994   0.367   5.531  0.6744  0.8519 -0.8507
10278SOL     OW31732   5.431   1.131   2.622 -0.2062 -0.1307 -0.6927
10278SOL    HW131733   5.468   1.127   2.714  0.7616 -0.9110 -1.1069
10278SOL    HW231734   5.331   1.137   2.626 -0.1032  2.7724  0.4685
10279SOL     OW31735   6.600   6.828   3.010  0.0353  0.0813  0.2399
10279SOL    HW131736   6.573   6.802   2.918 -2.7698  0.2636  0.9225
10279SOL    HW231737   6.564   6.761   3.076 -0.3192  1.3387  1.3785
10280SOL     OW31738   6.817   1.183   0.063  0.0986 -0.2341 -0.2989
10280SOL    HW131739   6.841   1.246  -0.011  0.9219  1.0836  1.0340
10280SOL    HW231740   6.888   1.114   0.073 -0.0010 -0.3990 -0.7079
10281SOL     OW31741   5.250   6.405   5.063  0.3484  0.1809 -0.0034
10281SOL    HW131742   5.220   6.358   5.146  0.9612  0.1794  0.2236
10281SOL    HW231743   5.332   6.361   5.027  1.0058  1.1288  0.2845
10282SOL     OW31744   5.139   1.798   3.106 -0.2533 -0.0266  0.2523
10282SOL    HW131745   5.204   1.769   3.036 -0.1762  1.1763 -0.2003
10282SOL    HW231746   5.184   1.857   3.173 -0.8782  0.9221 -0.1352
10283SOL     OW31747   0.731   1.801   0.314  0.1317 -0.5540 -0.4322
10283SOL    HW131748   0.695   1.740   0.385 -0.0754  0.5984  0.4899
10283SOL    HW231749   0.810   1.851   0.350 -0.8442  1.1105 -0.4859
10284SOL     OW31750   1.358   4.910   4.537 -0.4184 -0.1252 -0.0661
10284SOL    HW131751   1.382   5.004   4.511  0.1153 -0.4501 -0.7846
10284SOL    HW231752   1.296   4.871   4.468 -0.8643 -0.2125  0.3765
10285SOL     OW31753   0.853   1.181   5.732  0.0077 -0.2648  0.1461
10285SOL    HW131754   0.839   1.206   5.636  0.4363 -0.2174  0.0948
10285SOL    HW231755   0.806   1.248   5.790 -0.6395 -0.5525 -0.0349
10286SOL     OW31756   2.411   0.788   2.390  0.1456 -0.3159  0.3765
10286SOL    HW131757   2.401   0.826   2.482 -0.7065 -1.3766  0.7374
10286SOL    HW231758   2.323   0.793   2.342  0.2262 -1.0832  0.1433
10287SOL     OW31759   6.169   6.770   2.841 -0.1815  0.4524 -0.1078
10287SOL    HW131760   6.192   6.739   2.749 -0.8038 -0.9774  0.1953
10287SOL    HW231761   6.225   6.849   2.865 -0.3103  1.1222 -1.8712
10288SOL     OW31762   5.152   6.642   3.941  0.0515 -0.2165  0.2434
10288SOL    HW131763   5.087   6.628   4.015  1.2852  2.7322  2.0558
10288SOL    HW231764   5.140   6.571   3.871 -3.7832 -0.8313  1.3448
10289SOL     OW31765   3.144   6.710   6.993  0.3084 -0.2104 -0.0843
10289SOL    HW131766   3.049   6.739   6.986  0.6442  0.9312 -0.1935
10289SOL    HW231767   3.178   6.729   7.085 -0.1875 -2.6676  0.6602
10290SOL     OW31768   3.610   2.929   2.502 -0.1462  0.9796 -0.1624
10290SOL    HW131769   3.610   2.972   2.412  1.3178  1.2772 -0.0407
10290SOL    HW231770   3.692   2.957   2.552  1.0640 -2.1230 -0.1823
10291SOL     OW31771   1.995   2.744   7.016  0.1843 -0.0565  0.2967
10291SOL    HW131772   1.985   2.653   7.056  2.2313 -0.4468  0.0721
10291SOL    HW231773   1.924   2.759   6.948  0.4665 -1.9922 -0.4975
10292SOL     OW31774   0.945   1.666   5.704 -0.1416 -0.2135 -0.6099
10292SOL    HW131775   1.014   1.660   5.632 -0.2861  4.3133 -1.3854
10292SOL    HW231776   0.859   1.701   5.666 -1.5706 -1.5380  1.1469
10293SOL     OW31777   0.272   5.572   5.097 -0.5505  0.2593 -0.6115
10293SOL    HW131778   0.241   5.609   5.184 -0.9586 -1.1611 -0.1199
10293SOL    HW231779   0.243   5.476   5.090  1.4858 -0.3449 -1.2815
10294SOL     OW31780   0.662   5.784   1.829  0.5661 -0.0694  0.2376
10294SOL    HW131781   0.669   5.834   1.743  0.6673  0.9786  0.8465
10294SOL    HW231782   0.682   5.687   1.812 -0.8863 -0.1750 -1.1955
10295SOL     OW31783   1.243   1.921   1.882 -0.4168 -0.5822  0.8175
10295SOL    HW131784   1.220   1.981   1.959  0.5991  2.8297 -1.3134
10295SOL    HW231785   1.341   1.927   1.865 -0.6983 -0.8404 -1.0336
10296SOL     OW31786   0.035   2.556   6.290 -0.5055  0.5040  0.0144
10296SOL    HW131787  -0.006   2.466   6.280 -2.0502  1.3501 -2.2853
10296SOL    HW231788  -0.023   2.612   6.350 -1.1315  0.7833 -0.8255
10297SOL     OW31789   5.951   1.036   2.169 -0.5130  0.4650  0.3389
10297SOL    HW131790   5.970   1.086   2.254 -0.8741  1.3458 -0.0852
10297SOL    HW231791   5.962   1.098   2.091  0.6020 -0.5315 -0.3295
10298SOL     OW31792   1.755   0.726   3.023  0.5551  0.1777  0.0411
10298SOL    HW131793   1.658   0.736   3.046  0.6193 -0.6557  0.7373
10298SOL    HW231794   1.770   0.635   2.983  1.1641  0.0231  0.6064
10299SOL     OW31795   4.033   4.355   1.207  0.4860 -0.5570  0.6036
10299SOL    HW131796   4.040   4.267   1.256 -0.2473 -0.2267  1.3217
10299SOL    HW231797   4.119   4.373   1.159 -0.2953 -3.0939 -2.0449
10300SOL     OW31798   0.489   4.166   0.549 -0.4797 -0.3180  0.6554
10300SOL    HW131799   0.551   4.226   0.500  0.3909 -0.6804  1.3002
10300SOL    HW231800   0.538   4.085   0.581 -1.3336 -0.7286  0.9696
10301SOL     OW31801   4.208   2.520   0.311 -0.0542 -0.1253 -0.0682
10301SOL    HW131802   4.257   2.529   0.397  0.9158  0.0060 -0.6148
10301SOL    HW231803   4.272   2.492   0.239 -0.6144  0.8349 -0.9701
10302SOL     OW31804   3.100   5.650   5.070 -0.1343 -0.5479  0.3895
10302SOL    HW131805   3.157   5.634   5.150  0.9430  1.9648  0.2006
10302SOL    HW231806   3.111   5.574   5.006  0.6762 -1.5324  1.6407
10303SOL     OW31807   0.063   5.773   5.812  0.3260  0.1112 -0.0388
10303SOL    HW131808  -0.034   5.772   5.834 -0.6900 -0.7028 -3.8613
10303SOL    HW231809   0.090   5.684   5.775  2.4827  0.4357  0.6157
10304SOL     OW31810   4.218   6.133   1.200  0.5243 -0.4574  0.1962
10304SOL    HW131811   4.228   6.091   1.110 -0.1211 -1.0010  0.3779
10304SOL    HW231812   4.284   6.208   1.209  0.0839  0.0902 -1.0033
10305SOL     OW31813   3.161   2.769   5.493 -0.6376  0.4331  0.2470
10305SOL    HW131814   3.105   2.838   5.540 -2.0659  0.0299 -0.8028
10305SOL    HW231815   3.103   2.693   5.464  0.4370  0.0635 -1.0179
10306SOL     OW31816   4.892   0.770   2.633  0.0666  0.0827  0.3921
10306SOL    HW131817   4.843   0.807   2.554 -0.1117  0.4074  0.6562
10306SOL    HW231818   4.937   0.844   2.683 -0.7835  0.0207  1.2672
10307SOL     OW31819   2.008   6.007   4.527  0.1070  0.9600 -0.6337
10307SOL    HW131820   2.050   5.925   4.487 -3.0203 -1.1413 -0.0390
10307SOL    HW231821   2.030   6.011   4.625 -1.7881 -0.8251 -0.0464
10308SOL     OW31822   3.636   4.941   1.756 -0.4865  0.1399  0.1659
10308SOL    HW131823   3.600   4.883   1.683  2.3260 -2.9234  0.9424
10308SOL    HW231824   3.632   4.892   1.843  0.9191  1.5948  1.1053
10309SOL     OW31825   1.236   1.613   3.219  0.2600  0.1238  0.3149
10309SOL    HW131826   1.276   1.698   3.186 -0.6904  0.9191  1.1628
10309SOL    HW231827   1.182   1.570   3.146  1.7422 -0.4290 -0.5104
10310SOL     OW31828   3.208   2.963   4.759  0.9278  0.1610  0.4409
10310SOL    HW131829   3.256   2.928   4.839  0.6755  1.3140  1.1146
10310SOL    HW231830   3.112   2.980   4.782  1.1384  1.6762  0.2627
10311SOL     OW31831   3.820   6.337   0.037  0.1678 -0.6189 -0.0714
10311SOL    HW131832   3.841   6.280   0.116  0.6387  0.5767  0.6806
10311SOL    HW231833   3.812   6.279  -0.044  1.4173 -1.6683  0.5181
10312SOL     OW31834   1.786   6.174   0.378 -0.1088  0.1818 -0.2771
10312SOL    HW131835   1.735   6.140   0.299  0.8659  1.6595 -1.5977
10312SOL    HW231836   1.734   6.245   0.424 -0.2920 -0.0368 -0.1490
10313SOL     OW31837   5.739   6.385   3.157 -0.1260 -0.0896  0.6563
10313SOL    HW131838   5.775   6.478   3.162  0.2369 -0.2226  0.5478
10313SOL    HW231839   5.812   6.319   3.177 -0.5768 -0.3252  1.5869
10314SOL     OW31840   2.121   0.734   0.880 -0.8807 -0.3685 -0.1190
10314SOL    HW131841   2.035   0.693   0.909 -0.7324  0.6222  1.9182
10314SOL    HW231842   2.105   0.828   0.851 -0.4190  0.0343  0.8928
10315SOL     OW31843   5.155   5.063   5.498 -0.2166  0.1324  0.3762
10315SOL    HW131844   5.076   5.020   5.542 -0.7801 -0.8181 -1.4449
10315SOL    HW231845   5.126   5.146   5.452 -0.0775  0.0012  0.0479
10316SOL     OW31846   2.873   3.149   0.235 -0.0123 -0.4397 -0.1301
10316SOL    HW131847   2.820   3.193   0.163  0.4325 -0.1163 -0.2646
10316SOL    HW231848   2.873   3.206   0.317 -1.4976 -1.3433  0.5450
10317SOL     OW31849   5.364   6.564   5.483  0.2564 -0.0293 -0.7379
10317SOL    HW131850   5.405   6.645   5.524 -0.9069  0.0602  0.3203
10317SOL    HW231851   5.422   6.531   5.409  1.5801  0.7890 -0.0986
10318SOL     OW31852   0.608   0.502   6.624 -0.1259  0.1520  0.3215
10318SOL    HW131853   0.553   0.548   6.554  0.9930  1.1317  0.0617
10318SOL    HW231854   0.661   0.428   6.582 -0.9478 -0.5649  0.5112
10319SOL     OW31855   1.390   4.811   4.930  0.0590 -0.2144 -0.2781
10319SOL    HW131856   1.440   4.838   4.848 -0.1977 -0.6934 -0.5959
10319SOL    HW231857   1.410   4.716   4.951 -1.5261 -0.7516 -1.0280
10320SOL     OW31858   2.273   0.197   4.382  0.2279 -0.1411 -0.2202
10320SOL    HW131859   2.276   0.179   4.480 -1.0260 -2.1576 -0.4727
10320SOL    HW231860   2.305   0.115   4.333  0.1633  0.5796 -1.5015
10321SOL     OW31861   0.496   3.259   3.695  0.1775  0.0862  0.2749
10321SOL    HW131862   0.557   3.225   3.622  0.1151  1.6402 -0.5553
10321SOL    HW231863   0.408   3.212   3.690 -0.0176  0.5454 -1.0442
10322SOL     OW31864   4.073   4.886   2.831  0.7815 -0.3042 -0.0286
10322SOL    HW131865   4.101   4.832   2.751 -0.0400 -2.8959  1.3246
10322SOL    HW231866   3.983   4.856   2.861  0.5991  1.4015  1.2202
10323SOL     OW31867   6.050   4.846   3.215  0.4189 -0.1792  0.4231
10323SOL    HW131868   6.146   4.864   3.239  0.5052  0.6650 -0.4866
10323SOL    HW231869   6.046   4.804   3.124 -0.1079  0.3722  0.1908
10324SOL     OW31870   3.570   3.812   1.757  0.3465 -0.1356 -0.0500
10324SOL    HW131871   3.619   3.797   1.842 -2.3780 -1.6674  1.4038
10324SOL    HW231872   3.516   3.730   1.735 -1.0170  1.1595 -1.8731
10325SOL     OW31873   5.317   5.686   4.392  0.4886 -0.4294  0.0117
10325SOL    HW131874   5.388   5.673   4.324  0.8934 -0.1370  0.3735
10325SOL    HW231875   5.356   5.678   4.484  0.1480  0.1436  0.2170
10326SOL     OW31876   5.329   3.993   0.650  0.2277 -0.7569 -0.4933
10326SOL    HW131877   5.360   4.048   0.728 -0.4474  1.2200 -1.5757
10326SOL    HW231878   5.256   3.932   0.681  1.6271 -1.8186  0.9329
10327SOL     OW31879   2.755   0.242   0.268 -0.0911 -0.1463 -0.7459
10327SOL    HW131880   2.774   0.229   0.170 -1.9059 -0.7510 -1.0464
10327SOL    HW231881   2.784   0.333   0.295  0.2230  0.1217 -1.9102
10328SOL     OW31882   6.596   2.421   2.774 -0.1185  0.6848  0.3331
10328SOL    HW131883   6.551   2.413   2.862  0.8442  0.5096  0.8199
10328SOL    HW231884   6.561   2.502   2.726 -3.4663 -1.2498 -0.8259
10329SOL     OW31885   4.632   2.324   1.743  0.0233  0.0818 -0.2738
10329SOL    HW131886   4.663   2.409   1.700 -0.1464  0.7206  0.8416
10329SOL    HW231887   4.569   2.278   1.682  1.2037  0.0302 -1.5037
10330SOL     OW31888   4.184   6.387   2.372  0.3202 -0.2841  0.0953
10330SOL    HW131889   4.210   6.483   2.377  0.3538 -0.2089 -1.1496
10330SOL    HW231890   4.112   6.376   2.303 -1.4421 -0.8049  1.9320
10331SOL     OW31891   3.570   5.272   4.570 -0.0586 -0.1157 -0.7588
10331SOL    HW131892   3.620   5.266   4.657 -1.3396 -0.5953 -0.0245
10331SOL    HW231893   3.535   5.182   4.546  0.7573 -0.0975 -2.0908
10332SOL     OW31894   1.646   1.509   1.329  0.0872 -0.1524 -0.2911
10332SOL    HW131895   1.689   1.437   1.383 -1.4628 -0.5142  0.5196
10332SOL    HW231896   1.662   1.598   1.371 -1.2165 -0.4444  0.8811
10333SOL     OW31897   1.728   3.682   1.773  0.1183  0.0579  0.0923
10333SOL    HW131898   1.674   3.632   1.840  0.6663 -0.0058  0.4958
10333SOL    HW231899   1.825   3.680   1.800  0.3401  0.0390 -0.6981
10334SOL     OW31900   3.461   1.451   3.713  0.5222 -0.2564  0.9693
10334SOL    HW131901   3.399   1.517   3.670 -0.0932 -0.5655  1.3763
10334SOL    HW231902   3.438   1.440   3.809  0.5173 -1.1835  0.8716
10335SOL     OW31903   1.207   3.740   3.419  0.5760 -0.3391 -0.0054
10335SOL    HW131904   1.305   3.724   3.434  0.8848  1.3942  0.0440
10335SOL    HW231905   1.193   3.774   3.327 -0.2644 -2.4825 -0.7289
10336SOL     OW31906   5.853   4.510   3.805  0.1219 -0.3510 -0.0477
10336SOL    HW131907   5.845   4.413   3.829  1.1167 -0.4299  0.0196
10336SOL    HW231908   5.935   4.524   3.751 -1.2926  0.0772 -2.2012
10337SOL     OW31909   5.872   0.438   0.723 -0.1674  0.3892 -0.1915
10337SOL    HW131910   5.957   0.450   0.671 -0.9235  0.0598 -1.5333
10337SOL    HW231911   5.885   0.367   0.792  0.0495 -1.1576 -1.7651
10338SOL     OW31912   6.392   5.318   2.338  0.2051  0.6044  0.4530
10338SOL    HW131913   6.326   5.346   2.269 -0.2295  0.8077  0.9507
10338SOL    HW231914   6.386   5.378   2.418  1.1039  0.7348  0.4409
10339SOL     OW31915   4.329   1.476   6.320 -0.1015  0.4154 -1.0144
10339SOL    HW131916   4.268   1.403   6.291 -0.8267 -0.0172  1.3703
10339SOL    HW231917   4.392   1.499   6.246  0.5063 -2.9872 -1.6826
10340SOL     OW31918   4.032   4.997   6.884 -0.0271  0.5134  1.0096
10340SOL    HW131919   4.086   4.913   6.892  1.0945  1.1688  0.5758
10340SOL    HW231920   3.934   4.974   6.886  0.2492 -0.8861  0.0686
10341SOL     OW31921   2.678   4.776   1.767  0.0291 -0.0835 -0.0395
10341SOL    HW131922   2.738   4.771   1.687 -1.0243 -2.2981 -0.7612
10341SOL    HW231923   2.710   4.712   1.837 -1.1792 -0.9326 -0.2362
10342SOL     OW31924   7.009   1.453   4.607  1.0287 -0.0808  0.4181
10342SOL    HW131925   7.000   1.445   4.706 -0.5572  0.1612  0.3278
10342SOL    HW231926   6.919   1.441   4.565  1.8065 -1.0417 -1.0652
10343SOL     OW31927   4.655   5.302   0.693 -0.1640  0.4970 -0.6198
10343SOL    HW131928   4.617   5.376   0.749  0.5774  1.3309 -1.1942
10343SOL    HW231929   4.648   5.327   0.596  0.0760 -0.2015 -0.8222
10344SOL     OW31930   4.648   6.494   6.486  0.1166 -0.2480  0.0747
10344SOL    HW131931   4.612   6.576   6.441 -2.7964 -1.1505  0.5046
10344SOL    HW231932   4.669   6.425   6.417 -0.1275 -0.0924 -0.1599
10345SOL     OW31933   1.596   5.228   4.024  0.0249 -0.1617  0.5560
10345SOL    HW131934   1.582   5.196   3.930 -1.9903  0.2780  0.6704
10345SOL    HW231935   1.682   5.190   4.059 -0.1532 -1.9496 -0.7824
10346SOL     OW31936   2.239   6.386   0.566 -0.1684  0.1431 -0.0243
10346SOL    HW131937   2.274   6.459   0.508  0.7364  0.0174  0.3537
10346SOL    HW231938   2.147   6.360   0.535 -0.9991  2.1923  0.5182
10347SOL     OW31939   0.652   1.960   3.924  0.3639  0.1814  0.0021
10347SOL    HW131940   0.606   2.010   3.852 -1.0776 -2.1007 -0.7737
10347SOL    HW231941   0.678   1.869   3.891  0.9744 -0.4108  1.9279
10348SOL     OW31942   0.433   4.166   5.612  0.5244 -0.1238  0.1269
10348SOL    HW131943   0.504   4.136   5.675 -0.0045 -1.9467 -0.1014
10348SOL    HW231944   0.419   4.097   5.542  0.7059  1.6030 -1.7157
10349SOL     OW31945   6.562   5.574   0.104  0.2129  0.7118 -0.6657
10349SOL    HW131946   6.526   5.484   0.128  1.1599  0.1873 -1.1358
10349SOL    HW231947   6.545   5.638   0.179 -1.7302  0.5205 -0.9068
10350SOL     OW31948   2.534   0.412   0.861  0.0993 -0.2955 -0.1365
10350SOL    HW131949   2.516   0.452   0.951  2.4921 -1.1112  0.7950
10350SOL    HW231950   2.483   0.326   0.852 -2.0123  0.9604 -0.5747
10351SOL     OW31951   3.384   4.535   0.945  0.0409 -0.7387  0.4610
10351SOL    HW131952   3.473   4.525   0.899 -0.0141  0.4905  0.0610
10351SOL    HW231953   3.399   4.543   1.044  0.6702  2.2400  0.2231
10352SOL     OW31954   5.222   5.742   5.096 -0.1759  0.0729  0.1274
10352SOL    HW131955   5.137   5.731   5.147  0.3055 -0.1216  0.9131
10352SOL    HW231956   5.236   5.839   5.075 -0.6334  0.0933 -0.0973
10353SOL     OW31957   0.873   4.816   6.085  0.1694  0.4902 -0.1300
10353SOL    HW131958   0.957   4.807   6.032 -0.1481 -0.5001 -0.4851
10353SOL    HW231959   0.824   4.898   6.055  1.1905  1.3074  0.3659
10354SOL     OW31960   4.137   0.666   0.468  0.0496  0.4626 -0.0428
10354SOL    HW131961   4.092   0.600   0.528  0.4919 -0.4288 -0.6833
10354SOL    HW231962   4.228   0.688   0.503  1.2512 -1.7864 -1.5102
10355SOL     OW31963   0.794   5.991   2.232  0.0035  0.1591 -0.5293
10355SOL    HW131964   0.803   6.052   2.311  0.8786 -0.1179 -0.4043
10355SOL    HW231965   0.697   5.980   2.210 -0.2350  0.5337  0.2738
10356SOL     OW31966   0.476   3.498   5.585 -0.0818  0.5464 -0.5551
10356SOL    HW131967   0.533   3.438   5.528 -0.7089 -1.6359  1.0355
10356SOL    HW231968   0.382   3.465   5.586 -0.3788  1.3649  0.6263
10357SOL     OW31969   3.926   3.986   5.041  0.0616 -0.0975  0.2959
10357SOL    HW131970   3.967   3.992   4.950  1.7172 -0.5374  0.9841
10357SOL    HW231971   3.846   3.926   5.038  1.3426 -1.8592 -0.4705
10358SOL     OW31972   0.540   0.615   0.947 -0.2761  0.3125  0.1239
10358SOL    HW131973   0.578   0.636   1.037  1.7555 -0.2327 -0.5585
10358SOL    HW231974   0.599   0.654   0.876 -0.9051 -0.7410 -1.0139
10359SOL     OW31975   0.310   0.891   0.465 -0.0370 -0.5853  0.2439
10359SOL    HW131976   0.252   0.929   0.393  1.9693  1.1788 -0.5533
10359SOL    HW231977   0.312   0.791   0.455 -1.1667 -0.5202 -1.0634
10360SOL     OW31978   2.341   2.790   4.879 -0.3536 -0.1402 -0.3471
10360SOL    HW131979   2.344   2.702   4.927  0.5321 -0.5981 -1.2065
10360SOL    HW231980   2.358   2.864   4.944  1.5632 -0.7904 -0.0416
10361SOL     OW31981   2.322   3.920   1.490 -0.0870  0.0385  0.5506
10361SOL    HW131982   2.332   3.865   1.407  1.9950 -0.9572  1.3803
10361SOL    HW231983   2.357   3.868   1.568  0.0847  1.8065  1.6998
10362SOL     OW31984   0.013   4.794   5.228  0.3771  0.1853 -0.5677
10362SOL    HW131985   0.013   4.827   5.322 -0.0183 -1.1442 -0.0878
10362SOL    HW231986  -0.044   4.713   5.220 -1.0776  1.2872 -2.3497
10363SOL     OW31987   5.650   6.610   4.666 -0.4101 -0.0943  0.7620
10363SOL    HW131988   5.651   6.618   4.766 -1.1881 -0.7828  0.8315
10363SOL    HW231989   5.699   6.688   4.627 -1.0598  0.7817  1.6463
10364SOL     OW31990   2.767   3.138   1.347 -0.2521  0.2634 -0.3753
10364SOL    HW131991   2.709   3.057   1.339 -0.2393  0.2998 -0.8217
10364SOL    HW231992   2.710   3.219   1.360 -0.2439 -0.1701  3.5991
10365SOL     OW31993   6.474   5.090   6.722  0.0503 -0.3076 -0.4716
10365SOL    HW131994   6.383   5.080   6.762  0.1043  0.0789 -0.2456
10365SOL    HW231995   6.479   5.176   6.672  0.3929 -0.1691 -0.2035
10366SOL     OW31996   5.585   6.590   5.732  0.3245 -0.1763  0.3141
10366SOL    HW131997   5.683   6.576   5.718 -0.0633 -1.9264 -1.0435
10366SOL    HW231998   5.564   6.582   5.830  1.5764  0.7452  0.6787
10367SOL     OW31999   6.886   2.099   3.495  0.0831  0.0090 -0.3368
10367SOL    HW132000   6.906   2.034   3.422  0.4030 -0.1365 -0.1250
10367SOL    HW232001   6.818   2.060   3.557  1.2261 -0.6959  0.5304
10368SOL     OW32002   2.742   1.884   2.217  0.0342 -0.6153  0.0495
10368SOL    HW132003   2.685   1.856   2.294 -2.1529 -0.2489 -1.3430
10368SOL    HW232004   2.774   1.978   2.231 -1.7777  0.0819 -0.1970
10369SOL     OW32005   4.961   2.764   0.018  0.0444  0.0859  0.4206
10369SOL    HW132006   4.920   2.750  -0.072 -0.5222  1.3120  0.4642
10369SOL    HW232007   4.983   2.676   0.060 -0.4162 -0.5133 -0.5819
10370SOL     OW32008   2.771   1.156   3.849  0.0047 -0.3548  0.6820
10370SOL    HW132009   2.801   1.247   3.878 -2.2522  1.0157 -0.9325
10370SOL    HW232010   2.735   1.106   3.928  3.9779 -1.1715  2.2070
10371SOL     OW32011   3.553   0.485   4.062  0.3777 -0.3113  0.4516
10371SOL    HW132012   3.475   0.431   4.094  0.6052 -1.2602 -0.5259
10371SOL    HW232013   3.536   0.515   3.969 -0.7081  3.2583  1.6527
10372SOL     OW32014   6.407   1.082   5.432  0.5217 -0.1095 -0.1337
10372SOL    HW132015   6.350   1.028   5.494  1.2919 -0.3123  0.4139
10372SOL    HW232016   6.400   1.178   5.456  1.0720 -0.2187  0.4884
10373SOL     OW32017   1.031   0.831   6.058  0.0373  0.0883  0.0981
10373SOL    HW132018   1.100   0.904   6.055 -0.2201  0.2895 -1.3676
10373SOL    HW232019   0.987   0.822   5.969 -1.6399 -0.2458  0.9166
10374SOL     OW32020   1.886   6.731   5.668  0.4647 -0.7517 -0.0615
10374SOL    HW132021   1.831   6.768   5.593  1.2711  0.6868  0.0198
10374SOL    HW232022   1.826   6.693   5.738 -0.4108  0.2544 -0.2440
10375SOL     OW32023   0.856   3.861   0.480 -0.2435  0.0542 -0.4776
10375SOL    HW132024   0.841   3.876   0.382 -0.2051  0.0513 -0.4837
10375SOL    HW232025   0.914   3.781   0.494 -2.1856 -1.4268 -0.3862
10376SOL     OW32026   0.001   6.966   4.520 -0.2312  0.5581 -0.0732
10376SOL    HW132027  -0.095   6.951   4.496 -0.4817 -0.0079  1.1483
10376SOL    HW232028   0.060   6.916   4.456 -0.8706 -1.2306  0.6628
10377SOL     OW32029   0.853   6.129   1.954  0.1104  0.4929  0.1556
10377SOL    HW132030   0.816   6.071   2.026 -1.3140  0.9832 -0.1453
10377SOL    HW232031   0.830   6.225   1.973 -1.3666  0.5294 -1.5146
10378SOL     OW32032   6.948   0.099   5.722  0.4475  0.0453 -0.6945
10378SOL    HW132033   6.904   0.169   5.778  0.8911 -0.6709  0.5960
10378SOL    HW232034   6.890   0.079   5.642 -0.4630  0.7208 -0.2251
10379SOL     OW32035   5.222   0.331   4.974  0.1361  0.5706  0.0741
10379SOL    HW132036   5.129   0.302   4.996 -0.6002  2.7987  0.2131
10379SOL    HW232037   5.286   0.259   4.997 -1.6438 -1.6238 -1.3808
10380SOL     OW32038   2.733   6.811   5.708 -0.0927 -0.1560  0.0207
10380SOL    HW132039   2.830   6.803   5.728 -0.3995  0.5978  2.0419
10380SOL    HW232040   2.681   6.815   5.794 -1.9202 -0.5892 -1.0036
10381SOL     OW32041   3.802   0.217   3.945 -0.3914  0.1328  0.3222
10381SOL    HW132042   3.825   0.310   3.916  0.2623  0.2102  1.0730
10381SOL    HW232043   3.715   0.190   3.903 -0.0470  0.6684 -0.7674
10382SOL     OW32044   0.525   5.423   0.061 -0.4162  0.1192  0.0095
10382SOL    HW132045   0.570   5.454   0.144  1.6934 -1.3958 -0.4852
10382SOL    HW232046   0.485   5.332   0.076  0.4308 -0.3953 -0.7297
10383SOL     OW32047   5.625   4.198   1.018  0.4336 -0.3665 -0.2107
10383SOL    HW132048   5.651   4.232   1.109  2.2831  1.8567 -1.4840
10383SOL    HW232049   5.698   4.140   0.982  1.8539  2.2851 -1.9603
10384SOL     OW32050   5.509   1.107   6.574 -0.1861 -0.2433  0.4029
10384SOL    HW132051   5.431   1.119   6.635 -0.1407  2.6002  0.0576
10384SOL    HW232052   5.478   1.114   6.479  0.5095  1.6206  0.2725
10385SOL     OW32053   4.870   3.347   0.317  0.5929 -0.4533  0.0252
10385SOL    HW132054   4.942   3.355   0.386  1.4673 -2.3948 -0.6040
10385SOL    HW232055   4.787   3.312   0.359  0.3143  0.7843  0.5493
10386SOL     OW32056   5.590   3.393   4.250  0.2465 -0.1928 -0.0153
10386SOL    HW132057   5.681   3.383   4.291  0.4740 -1.9994 -0.8693
10386SOL    HW232058   5.520   3.363   4.315  0.4524 -1.0525 -0.1770
10387SOL     OW32059   1.938   2.866   2.690 -0.2446  0.0262  0.2533
10387SOL    HW132060   2.036   2.870   2.673 -0.5006  1.5080 -1.0519
10387SOL    HW232061   1.921   2.807   2.769  1.7280  0.1808  0.8549
10388SOL     OW32062   3.086   3.160   2.184 -0.1258 -0.4293  0.6755
10388SOL    HW132063   3.050   3.071   2.211 -0.3341 -0.4211  0.4175
10388SOL    HW232064   3.070   3.176   2.087 -1.2832  0.4476  0.9834
10389SOL     OW32065   1.276   3.927   1.363  0.2601  0.0895 -0.3721
10389SOL    HW132066   1.376   3.919   1.370  0.5162  2.8507  0.3308
10389SOL    HW232067   1.241   3.974   1.444 -1.2434  1.5766 -1.8130
10390SOL     OW32068   1.612   4.364   4.687  0.1499  0.2444  0.0218
10390SOL    HW132069   1.551   4.287   4.704  0.1566  0.1381 -0.4231
10390SOL    HW232070   1.686   4.364   4.755 -0.3476  0.3877  0.5785
10391SOL     OW32071   3.712   6.379   4.494  0.1843  0.1198 -0.0936
10391SOL    HW132072   3.615   6.372   4.469  0.1054  0.3648  0.1343
10391SOL    HW232073   3.749   6.464   4.457  0.8152 -0.8657 -1.8214
10392SOL     OW32074   0.727   4.575   4.850  0.2570 -0.0491  0.4745
10392SOL    HW132075   0.632   4.553   4.868 -0.4016  1.3033 -1.1266
10392SOL    HW232076   0.756   4.649   4.912 -0.8267  1.9007 -1.2080
10393SOL     OW32077   2.003   6.834   4.352  0.2100  0.2510 -0.7132
10393SOL    HW132078   2.038   6.754   4.304  0.7106  0.3615 -0.5472
10393SOL    HW232079   1.914   6.860   4.315  1.2207  1.2289 -2.6036
10394SOL     OW32080   3.099   0.489   0.995  0.8474 -0.2148 -0.4383
10394SOL    HW132081   3.014   0.534   1.021  2.1335  2.0043  0.2414
10394SOL    HW232082   3.135   0.532   0.912  0.9938 -1.5816 -1.1059
10395SOL     OW32083   6.668   6.182   4.207  0.6846 -0.2474 -0.4999
10395SOL    HW132084   6.728   6.103   4.222 -0.6653 -0.7673  2.7722
10395SOL    HW232085   6.660   6.235   4.291 -0.7191  1.8122 -1.8337
10396SOL     OW32086   0.191   0.159   4.600 -0.5715 -0.1648 -0.7311
10396SOL    HW132087   0.140   0.085   4.556 -0.3639  0.5222 -2.1815
10396SOL    HW232088   0.146   0.246   4.581  1.1177  0.4638 -2.0914
10397SOL     OW32089   5.093   2.603   1.909  0.2794  0.2508  0.2239
10397SOL    HW132090   5.188   2.597   1.878 -0.1954  0.1567 -1.3293
10397SOL    HW232091   5.047   2.515   1.893 -0.2589  0.5159  0.2808
10398SOL     OW32092   0.286   2.140   3.377 -0.0584 -0.2162  0.3858
10398SOL    HW132093   0.222   2.201   3.331  0.5919  0.8226  0.8489
10398SOL    HW232094   0.252   2.046   3.371 -0.6782  0.0714 -1.0102
10399SOL     OW32095   6.502   3.942   6.211  0.4467 -0.5382 -0.0500
10399SOL    HW132096   6.575   4.011   6.207  0.9366 -0.8570  2.0901
10399SOL    HW232097   6.436   3.959   6.138  0.1183  2.6932  0.8322
10400SOL     OW32098   0.071   6.006   3.070  0.2623  0.5284  0.6188
10400SOL    HW132099   0.054   6.060   2.988  1.8762  1.2923  0.7432
10400SOL    HW232100  -0.016   5.972   3.107 -0.5048  0.3575 -1.2464
10401SOL     OW32101   0.757   6.185   0.952  0.8643 -0.0913 -0.2406
10401SOL    HW132102   0.703   6.201   0.869  0.6232  0.4591  0.0153
10401SOL    HW232103   0.832   6.122   0.932  0.7742 -0.0070 -0.8613
10402SOL     OW32104   5.295   1.342   5.541  0.6437  0.0321  0.3750
10402SOL    HW132105   5.368   1.322   5.476 -0.7342 -0.4061 -1.0951
10402SOL    HW232106   5.282   1.441   5.549  0.4196  0.0772 -0.5086
10403SOL     OW32107   4.834   2.142   2.719  0.0002 -0.7283 -0.6539
10403SOL    HW132108   4.854   2.145   2.621  0.5959 -0.8488 -0.5402
10403SOL    HW232109   4.843   2.048   2.751  0.4075 -0.5891 -0.3612
10404SOL     OW32110   1.736   0.581   4.621  0.0870  0.1780  0.0273
10404SOL    HW132111   1.742   0.517   4.698  0.3979 -1.8864 -1.6136
10404SOL    HW232112   1.828   0.598   4.585 -0.2442 -1.0211 -1.4909
10405SOL     OW32113   3.652   1.220   6.889  0.1636  0.0897 -0.5619
10405SOL    HW132114   3.635   1.122   6.887  1.0698 -0.0768 -0.4185
10405SOL    HW232115   3.728   1.240   6.951 -1.1060  1.0574  0.7536
10406SOL     OW32116   0.379   6.866   5.072 -0.6922 -0.0091 -0.2595
10406SOL    HW132117   0.288   6.883   5.034 -0.3670  1.3700 -0.4836
10406SOL    HW232118   0.377   6.782   5.127 -1.9692 -0.2613 -0.6515
10407SOL     OW32119   3.078   1.923   6.283  0.4844 -0.0189  0.5523
10407SOL    HW132120   3.132   1.972   6.214 -1.2796 -1.0499 -1.6729
10407SOL    HW232121   3.134   1.850   6.322  0.6917 -1.4014 -2.0746
10408SOL     OW32122   4.012   6.553   1.653 -0.6351  0.2830  0.6093
10408SOL    HW132123   4.026   6.639   1.603  3.9649 -0.7532 -0.3373
10408SOL    HW232124   4.010   6.572   1.751  1.0587  1.4788  0.4638
10409SOL     OW32125   0.473   3.683   0.722  0.8299  0.2312 -0.6146
10409SOL    HW132126   0.510   3.694   0.815  0.7288  1.1605 -0.6732
10409SOL    HW232127   0.373   3.685   0.726  0.8207  0.0119 -0.7185
10410SOL     OW32128   6.150   5.328   0.916  0.2363 -0.7549  0.2074
10410SOL    HW132129   6.244   5.295   0.915  0.3245 -0.6422  1.8744
10410SOL    HW232130   6.150   5.428   0.919  0.0965 -0.7679  0.8937
10411SOL     OW32131   2.263   4.056   2.342  0.5875  0.0080  0.0106
10411SOL    HW132132   2.200   3.979   2.349  0.4651  0.1325  0.3168
10411SOL    HW232133   2.296   4.064   2.248 -1.4392  1.1672 -0.6800
10412SOL     OW32134   1.793   4.463   0.475  0.4438  0.2797 -0.0091
10412SOL    HW132135   1.781   4.516   0.391 -0.7880  0.3699  0.2064
10412SOL    HW232136   1.716   4.481   0.537  2.0763  1.4035  1.7973
10413SOL     OW32137   6.895   1.738   5.927  0.0423  0.1162 -0.5927
10413SOL    HW132138   6.992   1.757   5.909  0.1398 -1.1729 -1.5150
10413SOL    HW232139   6.842   1.822   5.913  1.1791  1.2986  1.5646
10414SOL     OW32140   5.444   3.965   4.978 -0.0470  0.1488 -0.1812
10414SOL    HW132141   5.411   3.891   4.919 -0.8601  1.7055 -1.8131
10414SOL    HW232142   5.534   3.995   4.947 -0.3372  0.7608 -0.4534
10415SOL     OW32143   1.186   3.615   2.122  0.1123 -0.1536 -0.7158
10415SOL    HW132144   1.190   3.598   2.024  0.5217  0.1898 -0.7607
10415SOL    HW232145   1.091   3.607   2.153 -0.4047  1.9987 -1.5662
10416SOL     OW32146   5.649   2.119   6.224  0.0517  0.2940  0.0176
10416SOL    HW132147   5.732   2.155   6.266  1.0729 -1.3141 -0.5221
10416SOL    HW232148   5.600   2.192   6.177  2.3023  0.9237 -1.4846
10417SOL     OW32149   4.980   4.235   3.810  0.1081  0.1186  0.2890
10417SOL    HW132150   4.945   4.328   3.799 -1.0401 -0.2959  0.2564
10417SOL    HW232151   4.903   4.172   3.822  0.8152 -0.9310 -0.4765
10418SOL     OW32152   2.163   2.961   1.854 -0.4864 -0.3065  0.4679
10418SOL    HW132153   2.168   3.059   1.838  1.3107 -0.5173 -0.5432
10418SOL    HW232154   2.177   2.941   1.951  1.7255  0.3316  0.3300
10419SOL     OW32155   6.951   6.608   3.044 -0.0422  0.0494  0.0154
10419SOL    HW132156   6.858   6.605   3.007  0.3618  2.6531 -1.4764
10419SOL    HW232157   6.963   6.692   3.097  1.0058 -1.0851  1.6552
10420SOL     OW32158   6.885   4.495   3.767 -0.6814 -0.4036 -0.0762
10420SOL    HW132159   6.873   4.593   3.777  0.0489 -0.2668 -0.5207
10420SOL    HW232160   6.834   4.448   3.839 -0.2812  0.3368  0.7074
10421SOL     OW32161   0.276   3.928   4.395  0.6493  0.6016  0.0286
10421SOL    HW132162   0.325   3.966   4.474 -1.2476  1.0346  1.0502
10421SOL    HW232163   0.245   3.835   4.417  1.8536 -0.0845 -1.0073
10422SOL     OW32164   5.469   3.308   6.950  0.0039 -0.3960 -0.0671
10422SOL    HW132165   5.509   3.400   6.951  0.0314 -0.4012 -0.7280
10422SOL    HW232166   5.423   3.293   6.863 -0.2784 -0.8925  0.1678
10423SOL     OW32167   2.973   4.737   1.012 -0.4567  0.0767 -0.1824
10423SOL    HW132168   2.887   4.778   0.982 -0.8745 -1.8244 -1.7801
10423SOL    HW232169   3.042   4.747   0.940  0.2318  0.3022  0.4933
10424SOL     OW32170   5.228   6.684   5.875  0.7432  0.1212  0.7342
10424SOL    HW132171   5.316   6.732   5.879  1.3033 -0.8447  0.2253
10424SOL    HW232172   5.186   6.686   5.966 -0.3093  3.4484  0.3205
10425SOL     OW32173   0.866   5.735   0.134  0.0855  0.3400 -0.8223
10425SOL    HW132174   0.779   5.723   0.180  0.2579  1.4124 -0.1729
10425SOL    HW232175   0.858   5.706   0.039 -0.7412 -0.3262 -0.5612
10426SOL     OW32176   0.833   4.254   6.043  0.4978 -0.1210  0.0147
10426SOL    HW132177   0.809   4.349   6.058 -2.3639 -0.5829 -1.0146
10426SOL    HW232178   0.854   4.240   5.946 -1.5815 -0.9188 -0.3814
10427SOL     OW32179   0.023   0.588   3.699  0.3734  0.3904 -0.0753
10427SOL    HW132180   0.103   0.628   3.654 -0.0507  0.6529 -0.6040
10427SOL    HW232181  -0.026   0.660   3.749 -0.2039  0.4744 -0.7528
10428SOL     OW32182   6.726   0.760   4.112  0.2461 -0.5543 -0.7769
10428SOL    HW132183   6.791   0.787   4.040  0.2763  0.7365 -0.2811
10428SOL    HW232184   6.735   0.662   4.129  2.3275 -0.3661 -0.4819
10429SOL     OW32185   1.523   5.008   1.506  0.8678  0.3790  1.0528
10429SOL    HW132186   1.492   5.069   1.432 -0.6764 -0.7547  0.7159
10429SOL    HW232187   1.515   5.056   1.593 -0.9761  0.4921  0.8696
10430SOL     OW32188   3.785   1.998   5.391  0.3798 -0.0427  0.6591
10430SOL    HW132189   3.841   1.959   5.317 -1.5364 -1.7020 -0.0143
10430SOL    HW232190   3.778   2.097   5.379 -1.0358 -0.3793 -2.3187
10431SOL     OW32191   5.446   2.586   5.003  0.0371 -0.2596  0.4841
10431SOL    HW132192   5.453   2.640   4.919 -2.7800 -0.7101 -0.1200
10431SOL    HW232193   5.431   2.648   5.080 -0.1854 -0.0016  0.2372
10432SOL     OW32194   1.561   3.739   0.859 -0.0363  0.4959 -0.1783
10432SOL    HW132195   1.627   3.687   0.805  1.2780  1.0583  0.8275
10432SOL    HW232196   1.575   3.721   0.956 -1.1210  0.9376  0.0790
10433SOL     OW32197   4.525   1.912   4.414  0.3009 -0.5183  0.0593
10433SOL    HW132198   4.488   1.829   4.457 -0.5900 -0.9731 -1.5197
10433SOL    HW232199   4.592   1.887   4.344  1.7153  0.2141  1.0901
10434SOL     OW32200   4.655   2.739   1.809 -0.8950  0.6883  0.0041
10434SOL    HW132201   4.661   2.836   1.831 -1.4375  0.3985  1.5448
10434SOL    HW232202   4.562   2.718   1.777 -1.2346  0.4301  1.1055
10435SOL     OW32203   2.931   0.765   0.767  0.2846  0.2292 -0.3765
10435SOL    HW132204   2.913   0.797   0.674 -0.6308  2.7120  0.5751
10435SOL    HW232205   2.849   0.721   0.804  0.5056 -0.3484 -0.5518
10436SOL     OW32206   1.760   4.873   6.855 -0.1188  0.0870 -0.1707
10436SOL    HW132207   1.758   4.971   6.836  1.4662  0.5246  1.6334
10436SOL    HW232208   1.774   4.858   6.953  0.3694 -1.9219 -0.5045
10437SOL     OW32209   5.256   1.217   6.026 -0.2107  0.4395  0.2296
10437SOL    HW132210   5.299   1.279   5.961  1.1247  0.8224  1.4211
10437SOL    HW232211   5.168   1.255   6.055 -0.9705  0.1123 -1.5217
10438SOL     OW32212   6.752   6.012   6.820  0.0672 -0.2054  0.7213
10438SOL    HW132213   6.744   5.920   6.782  0.6827 -0.2652  0.7283
10438SOL    HW232214   6.836   6.019   6.874  1.0200  0.8928 -0.8257
10439SOL     OW32215   6.028   5.044   4.151 -0.0858  0.6942 -0.0381
10439SOL    HW132216   5.976   4.973   4.197  0.6695  0.3786  0.3577
10439SOL    HW232217   6.005   5.133   4.191 -0.6292  0.6131 -0.1638
10440SOL     OW32218   5.176   3.439   1.751 -0.6853  0.2749 -0.0776
10440SOL    HW132219   5.177   3.390   1.837 -2.2844  0.9137  0.3489
10440SOL    HW232220   5.175   3.538   1.768 -1.0546  0.4115 -0.8044
10441SOL     OW32221   4.370   2.294   5.183 -0.0137 -0.2405 -0.6469
10441SOL    HW132222   4.364   2.215   5.121  1.0374  0.3703 -1.5520
10441SOL    HW232223   4.330   2.374   5.139 -1.3696 -0.3071  0.3970
10442SOL     OW32224   0.699   6.807   6.872  0.3237 -0.2534 -0.1855
10442SOL    HW132225   0.762   6.835   6.799  0.8844 -3.1980 -0.9426
10442SOL    HW232226   0.752   6.772   6.949 -0.3536 -1.2181 -0.1522
10443SOL     OW32227   1.228   0.553   0.802 -0.3853 -0.5998  0.0706
10443SOL    HW132228   1.225   0.596   0.712 -0.2726  0.8890  0.7560
10443SOL    HW232229   1.309   0.495   0.809  0.8637  1.0648 -0.0278
10444SOL     OW32230   5.460   5.725   4.628  0.9663 -0.9411  0.3330
10444SOL    HW132231   5.449   5.728   4.727  1.2617 -0.5639  0.3546
10444SOL    HW232232   5.479   5.816   4.593 -0.6568 -0.7844 -0.2612
10445SOL     OW32233   2.130   1.643   2.211  0.4447 -0.3400 -0.1117
10445SOL    HW132234   2.038   1.648   2.174  0.1650 -0.7268  0.5261
10445SOL    HW232235   2.170   1.553   2.192  0.7377 -0.1339 -0.4895
10446SOL     OW32236   4.377   4.674   6.426 -0.2559 -0.1704 -0.3155
10446SOL    HW132237   4.294   4.682   6.371  0.3469  0.3871 -1.1759
10446SOL    HW232238   4.438   4.751   6.405 -0.2529  0.3890  1.5677
10447SOL     OW32239   0.643   1.968   4.511 -0.3352 -0.0063  0.5614
10447SOL    HW132240   0.595   1.894   4.558 -1.6342  1.1193  1.0894
10447SOL    HW232241   0.633   1.957   4.412 -1.6742  0.1715  0.6606
10448SOL     OW32242   1.110   6.167   0.651  0.5195  0.6117  0.0847
10448SOL    HW132243   1.040   6.162   0.722 -0.3688 -0.2338 -0.8202
10448SOL    HW232244   1.174   6.092   0.662  0.3336  0.4321 -0.0549
10449SOL     OW32245   4.448   6.427   4.522 -0.0016 -0.4742  0.1753
10449SOL    HW132246   4.442   6.493   4.447  2.0945  2.2633  2.2357
10449SOL    HW232247   4.534   6.375   4.513 -1.1839 -2.3615 -0.8953
10450SOL     OW32248   1.629   2.001   5.841 -0.6203  0.3736 -0.0764
10450SOL    HW132249   1.552   1.970   5.897 -1.0899 -0.6451 -1.2354
10450SOL    HW232250   1.656   1.927   5.779 -0.1462  1.4832 -1.2205
10451SOL     OW32251   2.267   2.467   5.535  0.2647 -0.2858 -0.2115
10451SOL    HW132252   2.292   2.437   5.443  4.3474  0.4734  0.4360
10451SOL    HW232253   2.279   2.566   5.542 -0.8482 -0.2049  0.9573
10452SOL     OW32254   0.615   4.153   3.762  0.1321 -0.0398  0.0639
10452SOL    HW132255   0.581   4.106   3.681  2.4154 -1.5665 -0.0888
10452SOL    HW232256   0.540   4.167   3.827 -1.1617 -1.3315 -1.1005
10453SOL     OW32257   3.983   5.260   5.036  0.5765 -0.4031  0.3660
10453SOL    HW132258   3.935   5.218   4.958  0.5731  0.4184 -0.0818
10453SOL    HW232259   4.062   5.311   5.003  0.4020  0.2067  0.8686
10454SOL     OW32260   6.640   2.357   1.721 -0.2358  0.2079 -0.1767
10454SOL    HW132261   6.574   2.298   1.768  2.3250 -1.1261  2.0510
10454SOL    HW232262   6.639   2.337   1.623 -1.0818 -1.8751  0.2071
10455SOL     OW32263   0.338   6.874   3.005 -0.3228 -0.0304  0.2270
10455SOL    HW132264   0.271   6.933   3.050 -1.2449 -0.1942 -0.8676
10455SOL    HW232265   0.388   6.821   3.074 -0.7287  0.7191  1.1151
10456SOL     OW32266   1.916   6.791   6.884  0.0666 -0.3508 -0.5726
10456SOL    HW132267   1.979   6.855   6.840  0.5829  0.0706  0.7059
10456SOL    HW232268   1.966   6.710   6.914 -0.1497 -0.3676 -0.2492
10457SOL     OW32269   5.526   2.117   5.874  0.2207 -0.0619  0.0849
10457SOL    HW132270   5.496   2.161   5.959  1.3643  1.7572 -0.3871
10457SOL    HW232271   5.626   2.111   5.874  0.2754  0.5104 -1.3565
10458SOL     OW32272   0.321   1.138   1.030 -0.2745 -0.0278  0.5824
10458SOL    HW132273   0.346   1.080   0.953 -0.5949  0.8169 -0.1844
10458SOL    HW232274   0.244   1.098   1.079 -0.7165 -0.0879 -0.1485
10459SOL     OW32275   2.898   5.970   1.996  0.1194  0.4921  0.1069
10459SOL    HW132276   2.958   5.891   1.986  1.6550  1.3081  2.0522
10459SOL    HW232277   2.868   5.977   2.092 -1.4504  1.2696 -0.4029
10460SOL     OW32278   5.134   0.793   6.217  0.1981 -0.1410 -0.5893
10460SOL    HW132279   5.135   0.712   6.276  1.1340  0.1515 -0.1773
10460SOL    HW232280   5.054   0.848   6.237  0.7116  0.1735  0.7376
10461SOL     OW32281   0.031   3.572   5.434  0.9655  0.4054 -0.0947
10461SOL    HW132282   0.029   3.529   5.524 -0.1014  1.7549  0.5817
10461SOL    HW232283   0.126   3.589   5.406  1.3185 -0.5309  0.5012
10462SOL     OW32284   3.810   5.891   0.605  0.0539 -0.3356  0.2086
10462SOL    HW132285   3.763   5.873   0.519 -2.0036  1.4196  0.8600
10462SOL    HW232286   3.880   5.961   0.591 -0.0156 -0.3318 -0.1117
10463SOL     OW32287   4.090   3.390   4.524  0.0920  0.3054 -0.1519
10463SOL    HW132288   4.087   3.337   4.440  0.0154 -1.1795  0.7607
10463SOL    HW232289   4.012   3.366   4.582 -0.0022  1.5002  0.2471
10464SOL     OW32290   6.215   2.699   6.955 -0.2457  0.2344  0.5761
10464SOL    HW132291   6.239   2.624   7.016  1.3722  1.1922  1.1720
10464SOL    HW232292   6.272   2.778   6.975 -0.6598  1.0450 -1.2392
10465SOL     OW32293   5.300   4.710   0.835  0.1822 -0.0548 -0.3660
10465SOL    HW132294   5.271   4.736   0.927 -1.4172 -1.9718 -0.2555
10465SOL    HW232295   5.266   4.618   0.815  0.6617  0.2494 -2.8089
10466SOL     OW32296   5.610   3.618   5.819  0.1875 -1.0515 -0.0464
10466SOL    HW132297   5.604   3.633   5.917 -1.2810 -0.7537 -0.1538
10466SOL    HW232298   5.581   3.701   5.771  0.6321 -1.2833 -0.7264
10467SOL     OW32299   6.832   4.974   1.199  0.1571  0.6981 -0.3522
10467SOL    HW132300   6.798   4.889   1.158  2.0311 -0.0034 -0.5576
10467SOL    HW232301   6.775   5.051   1.171 -0.1825 -0.1549 -2.0856
10468SOL     OW32302   1.435   3.923   2.679  0.3159 -0.5295  0.2156
10468SOL    HW132303   1.395   3.955   2.765 -0.3810 -0.0868 -0.2719
10468SOL    HW232304   1.462   4.002   2.624 -0.4935 -0.7860 -0.5614
10469SOL     OW32305   1.032   1.631   4.085 -0.1736  0.6762  0.6331
10469SOL    HW132306   1.012   1.538   4.116 -0.4234 -0.3092 -2.1762
10469SOL    HW232307   1.119   1.661   4.122  0.8479 -1.4558  0.1234
10470SOL     OW32308   2.005   3.806   6.900  0.2457  0.3336 -0.0965
10470SOL    HW132309   1.979   3.833   6.993 -0.6719 -1.1202  0.0994
10470SOL    HW232310   1.934   3.835   6.836 -0.3349 -0.7800  0.0074
10471SOL     OW32311   1.022   4.490   6.478  0.0419  0.2420 -0.1486
10471SOL    HW132312   0.962   4.410   6.488 -1.0159  1.1880  1.5645
10471SOL    HW232313   0.983   4.551   6.409  0.7107 -0.5369 -1.2648
10472SOL     OW32314   5.978   5.542   5.656 -0.1112 -0.0783  0.1085
10472SOL    HW132315   5.943   5.461   5.610  0.3111 -1.0478  1.4142
10472SOL    HW232316   6.022   5.603   5.590 -0.2870 -0.9978 -0.8717
10473SOL     OW32317   5.617   6.275   0.074  0.0951 -0.3426 -0.1747
10473SOL    HW132318   5.620   6.262   0.173 -2.5113 -0.2726 -0.0367
10473SOL    HW232319   5.561   6.355   0.052  3.1214  1.5930 -1.6627
10474SOL     OW32320   5.751   6.339   5.821 -0.7940  0.6559 -0.0436
10474SOL    HW132321   5.800   6.259   5.855 -0.5655  1.6280  2.1551
10474SOL    HW232322   5.811   6.394   5.764 -0.5789 -0.1229 -0.5736
10475SOL     OW32323   4.181   0.293   0.984 -0.8419 -0.2754  0.1695
10475SOL    HW132324   4.252   0.360   0.965 -1.4964  0.3753 -0.0443
10475SOL    HW232325   4.203   0.242   1.067 -1.0977  1.3104  1.2430
10476SOL     OW32326   3.981   5.727   1.089 -0.0270 -0.1419 -0.3447
10476SOL    HW132327   4.062   5.677   1.059  1.1167  0.9853  0.7546
10476SOL    HW232328   3.989   5.823   1.063 -1.1623 -0.0764 -0.4925
10477SOL     OW32329   6.679   0.133   2.767 -0.1961  0.1383  0.0753
10477SOL    HW132330   6.766   0.097   2.800 -0.4581  0.5550  1.2779
10477SOL    HW232331   6.605   0.071   2.793 -0.3387  0.1356 -0.3291
10478SOL     OW32332   1.361   0.835   6.297 -0.3280  0.7557 -0.2807
10478SOL    HW132333   1.267   0.801   6.307 -0.3229 -0.3686 -3.1850
10478SOL    HW232334   1.358   0.933   6.277 -0.8300  0.8197  0.0641
10479SOL     OW32335   0.222   3.466   0.726  0.0288  0.2589  0.3388
10479SOL    HW132336   0.290   3.451   0.799 -0.4875 -0.1588  0.7494
10479SOL    HW232337   0.131   3.446   0.762 -0.1390 -1.0075 -0.7195
10480SOL     OW32338   5.680   0.577   4.357 -0.0521  0.5432 -0.0592
10480SOL    HW132339   5.586   0.582   4.325 -0.6409  1.0346  1.5944
10480SOL    HW232340   5.742   0.615   4.288 -0.8712 -1.1410 -1.7820
10481SOL     OW32341   5.871   0.479   3.563  0.3382 -0.1236 -0.2564
10481SOL    HW132342   5.879   0.505   3.467  1.5094 -1.2008 -0.4798
10481SOL    HW232343   5.945   0.522   3.616  0.4649 -0.5545 -0.0809
10482SOL     OW32344   5.030   4.360   5.145 -0.2833  0.1803  0.5767
10482SOL    HW132345   4.979   4.324   5.223 -0.8431 -0.1133  0.0828
10482SOL    HW232346   5.005   4.310   5.062  0.6758  0.1588  0.2907
10483SOL     OW32347   6.631   1.822   0.044 -0.3900 -0.7980  0.2361
10483SOL    HW132348   6.663   1.888   0.113  0.0327 -0.2447 -0.4780
10483SOL    HW232349   6.532   1.829   0.035 -0.1393  1.5803 -1.6372
10484SOL     OW32350   5.009   6.925   1.653 -0.0054  1.3659 -0.4827
10484SOL    HW132351   4.916   6.957   1.672  0.2486  2.0084 -0.3100
10484SOL    HW232352   5.027   6.933   1.555 -0.3183  0.7174 -0.6019
10485SOL     OW32353   4.788   2.965   4.609  0.0584  0.3549 -0.1838
10485SOL    HW132354   4.796   3.014   4.695 -1.6806 -1.2497  0.9680
10485SOL    HW232355   4.710   3.001   4.557 -0.8239 -0.6995  0.3727
10486SOL     OW32356   0.269   3.249   2.407 -0.1631 -0.2543  0.5271
10486SOL    HW132357   0.237   3.335   2.367 -0.4203 -0.6365 -0.1172
10486SOL    HW232358   0.368   3.241   2.395 -0.1867 -0.1970  0.2904
10487SOL     OW32359   3.717   1.366   3.628 -0.3669 -0.4489 -0.2128
10487SOL    HW132360   3.709   1.405   3.536 -1.1959 -0.5154 -0.1772
10487SOL    HW232361   3.640   1.398   3.684  0.5376  0.2059  0.6880
10488SOL     OW32362   4.108   3.228   6.720 -0.5562 -0.0029 -0.1448
10488SOL    HW132363   4.008   3.218   6.720 -0.5404 -1.0222  2.9751
10488SOL    HW232364   4.132   3.311   6.769  0.1786 -0.1823 -0.2017
10489SOL     OW32365   0.991   4.063   4.583  0.0754  0.1967 -0.1274
10489SOL    HW132366   0.916   4.112   4.539  0.7354  1.0885 -0.2814
10489SOL    HW232367   0.961   4.030   4.673 -0.4501  0.6670 -0.1245
10490SOL     OW32368   5.988   6.856   4.336  0.1740  0.5083 -0.3023
10490SOL    HW132369   5.907   6.832   4.282 -0.6002 -0.1939  1.1081
10490SOL    HW232370   6.032   6.773   4.370  1.7374  0.8674 -1.3499
10491SOL     OW32371   0.894   4.950   3.204 -0.2127 -0.0346 -0.1999
10491SOL    HW132372   0.829   4.954   3.128 -1.9142  0.6837  1.2282
10491SOL    HW232373   0.920   5.042   3.231  0.5491 -0.2899 -0.0344
10492SOL     OW32374   5.780   3.971   4.907  0.5655  0.1522  0.1397
10492SOL    HW132375   5.817   3.967   4.814 -0.0018 -0.9336 -0.0524
10492SOL    HW232376   5.780   4.066   4.939 -1.1963  0.8783 -1.7810
10493SOL     OW32377   4.688   1.441   7.010  0.2429 -0.6396 -0.1409
10493SOL    HW132378   4.736   1.353   7.014  1.2394 -0.1940 -1.6303
10493SOL    HW232379   4.721   1.500   7.083  0.5387 -1.0262  0.0396
10494SOL     OW32380   5.591   1.639   4.209  0.2091  0.3237  0.6350
10494SOL    HW132381   5.637   1.569   4.263 -0.6373 -0.9016 -0.1625
10494SOL    HW232382   5.501   1.658   4.248  0.9237  1.9582  1.5962
10495SOL     OW32383   0.616   6.376   5.468 -0.2942 -0.1722 -0.5829
10495SOL    HW132384   0.687   6.443   5.446 -0.3893 -0.2623 -1.1890
10495SOL    HW232385   0.528   6.424   5.476  0.3191  0.6108  4.0547
10496SOL     OW32386   0.107   5.710   3.597 -0.0059  0.1595 -0.4091
10496SOL    HW132387   0.126   5.781   3.665  0.2432 -1.1328  0.9521
10496SOL    HW232388   0.030   5.654   3.629 -0.5180  0.1010 -1.6897
10497SOL     OW32389   2.955   2.228   6.898 -0.0880 -0.1000  0.5248
10497SOL    HW132390   2.866   2.271   6.890 -0.1379 -0.3282 -0.1847
10497SOL    HW232391   2.958   2.145   6.842  0.3377 -0.4724  1.0881
10498SOL     OW32392   3.198   5.320   5.728  0.2605  0.3386  0.2860
10498SOL    HW132393   3.292   5.349   5.707  0.8861 -1.8464 -0.1184
10498SOL    HW232394   3.199   5.231   5.773 -1.6524 -0.2413 -0.6873
10499SOL     OW32395   3.927   0.409   2.321  0.0958  0.3132 -0.2633
10499SOL    HW132396   3.836   0.385   2.354 -0.3305  0.0398 -1.5406
10499SOL    HW232397   3.993   0.342   2.355 -0.3864 -0.1972 -0.3024
10500SOL     OW32398   1.289   0.831   6.844 -0.5669 -0.6534 -0.3042
10500SOL    HW132399   1.312   0.781   6.927 -1.7839 -2.3493 -0.9231
10500SOL    HW232400   1.346   0.913   6.837  0.6991 -1.3408  1.3401
10501SOL     OW32401   1.278   2.204   2.960  1.0493  0.0367 -0.1261
10501SOL    HW132402   1.289   2.137   2.888  1.0102 -1.5304  1.2627
10501SOL    HW232403   1.368   2.234   2.993  1.1796 -2.0971  1.6620
10502SOL     OW32404   4.342   6.012   5.316  0.4940  0.4474 -0.0593
10502SOL    HW132405   4.388   6.068   5.385  3.0545 -1.4733 -0.0610
10502SOL    HW232406   4.410   5.961   5.263 -1.5229 -0.0541 -2.3880
10503SOL     OW32407   3.746   2.916   1.120  0.2024 -0.1287 -0.2275
10503SOL    HW132408   3.821   2.932   1.055 -0.3298 -1.7070 -1.2816
10503SOL    HW232409   3.771   2.955   1.209  1.9972 -0.0579 -0.7100
10504SOL     OW32410   3.479   1.466   1.019 -0.0260 -0.4867  0.4535
10504SOL    HW132411   3.477   1.483   1.118 -0.3989 -1.9527  0.7096
10504SOL    HW232412   3.385   1.455   0.986  0.0615  0.5275 -0.1843
10505SOL     OW32413   0.404   0.061   0.739  0.3526  0.0656  0.3397
10505SOL    HW132414   0.417   0.155   0.708 -2.4551 -0.0565 -1.6046
10505SOL    HW232415   0.395   0.001   0.660  1.8766 -1.8790  1.5458
10506SOL     OW32416   6.538   4.657   0.435 -0.0920 -0.6889  0.0112
10506SOL    HW132417   6.454   4.694   0.475 -1.0091 -2.4505 -0.1703
10506SOL    HW232418   6.515   4.605   0.353  1.1159 -1.6627  0.2592
10507SOL     OW32419   4.811   0.423   4.448 -0.0146 -0.4115  0.4933
10507SOL    HW132420   4.800   0.332   4.407 -0.0807 -0.7436  1.2281
10507SOL    HW232421   4.838   0.488   4.377  1.3711 -1.2712  0.1835
10508SOL     OW32422   5.645   4.849   4.391  0.0749  0.0989  0.5839
10508SOL    HW132423   5.651   4.777   4.322 -0.1322  0.0401  0.6285
10508SOL    HW232424   5.553   4.887   4.393 -0.2270 -0.6302  1.5691
10509SOL     OW32425   0.151   1.978   4.785 -0.4663  0.1793  0.1673
10509SOL    HW132426   0.154   1.878   4.790 -1.0509  0.2078  1.4177
10509SOL    HW232427   0.074   2.006   4.727 -1.0650 -0.0956  0.8142
10510SOL     OW32428   5.234   6.889   6.310 -0.0716  0.5259  0.0899
10510SOL    HW132429   5.231   6.880   6.409 -1.5025 -0.8070 -0.0336
10510SOL    HW232430   5.301   6.958   6.285 -0.1591  1.3748  2.0053
10511SOL     OW32431   1.123   4.253   2.990 -0.6677  0.4526  0.1141
10511SOL    HW132432   1.190   4.307   3.040 -0.1548  0.2619 -0.3581
10511SOL    HW232433   1.130   4.274   2.893  0.9883 -1.9492 -0.3650
10512SOL     OW32434   4.907   0.578   6.106  0.9747 -0.1658  0.0392
10512SOL    HW132435   4.976   0.508   6.087  1.3840 -0.1375  1.3178
10512SOL    HW232436   4.885   0.628   6.022 -0.5324 -2.8659 -1.3219
10513SOL     OW32437   6.969   2.558   1.438 -0.2532  0.7839 -0.0905
10513SOL    HW132438   6.956   2.531   1.534  1.6814 -3.1676 -0.6983
10513SOL    HW232439   7.059   2.601   1.428 -0.6789  1.6945 -0.0966
10514SOL     OW32440   2.983   3.760   2.115 -0.7340  0.2252 -0.1774
10514SOL    HW132441   3.020   3.727   2.029 -0.9014 -1.0323  0.2116
10514SOL    HW232442   2.972   3.683   2.179 -0.8275  1.0910  0.8844
10515SOL     OW32443   2.221   3.823   6.007  0.2958 -0.5731 -0.5248
10515SOL    HW132444   2.234   3.779   5.918  0.0935  0.6253 -1.1607
10515SOL    HW232445   2.267   3.768   6.077  0.1148 -1.7552 -1.2878
10516SOL     OW32446   2.697   6.265   6.926  0.4018  0.2360  0.0459
10516SOL    HW132447   2.653   6.268   6.836  0.2215  2.4458  0.1606
10516SOL    HW232448   2.631   6.237   6.995 -0.3787  1.7438 -0.0554
10517SOL     OW32449   1.260   3.532   1.881 -0.2075  0.5141 -0.1992
10517SOL    HW132450   1.263   3.581   1.793 -0.7834  0.5351 -0.2085
10517SOL    HW232451   1.354   3.517   1.913 -0.0047  1.0201 -0.5330
10518SOL     OW32452   1.821   5.390   1.818  0.2536  0.3686 -0.3437
10518SOL    HW132453   1.742   5.330   1.809  0.2257  0.3695 -0.1147
10518SOL    HW232454   1.856   5.386   1.912 -0.0138  1.0414 -0.2066
10519SOL     OW32455   4.260   2.844   5.410  0.0278 -0.0288 -0.3115
10519SOL    HW132456   4.185   2.780   5.394 -1.2283  0.7474  1.9462
10519SOL    HW232457   4.224   2.929   5.448  2.1105 -0.3972  2.9257
10520SOL     OW32458   2.137   4.179   0.980  0.2588  0.2322  0.1645
10520SOL    HW132459   2.037   4.182   0.986  0.0682 -2.0522 -0.8366
10520SOL    HW232460   2.175   4.163   1.071 -0.2950  0.7158  0.4919
10521SOL     OW32461   5.688   5.830   0.316 -0.3658  0.1168 -0.0959
10521SOL    HW132462   5.696   5.919   0.361  2.1864  0.4013 -0.9155
10521SOL    HW232463   5.779   5.788   0.309 -1.4235 -2.2687 -0.3298
10522SOL     OW32464   4.752   1.081   3.653 -0.6677 -0.6240 -0.4097
10522SOL    HW132465   4.817   1.027   3.600  0.6878 -0.9790  1.4892
10522SOL    HW232466   4.670   1.027   3.672 -0.1428 -1.3454 -0.1471
10523SOL     OW32467   6.111   6.254   6.512  0.4280 -0.2396  0.2516
10523SOL    HW132468   6.181   6.307   6.561  1.5610 -1.8053  0.3918
10523SOL    HW232469   6.133   6.157   6.518 -2.2291 -0.8644  1.0090
10524SOL     OW32470   4.915   2.801   3.238 -0.3681 -0.3085  1.0558
10524SOL    HW132471   4.869   2.715   3.261  0.0607 -1.1733 -1.0371
10524SOL    HW232472   4.915   2.861   3.317  0.9641 -2.9599  3.2341
10525SOL     OW32473   2.756   1.295   4.952 -0.3632  0.9860 -0.5178
10525SOL    HW132474   2.804   1.354   4.887 -0.2166  1.6412  0.1801
10525SOL    HW232475   2.657   1.304   4.938 -0.3371  1.2763 -0.5218
10526SOL     OW32476   3.687   4.939   4.535  0.1235  0.0891 -0.2361
10526SOL    HW132477   3.756   4.888   4.587  0.1894 -0.0237 -0.4316
10526SOL    HW232478   3.698   4.920   4.438  0.9604  1.4586 -0.4303
10527SOL     OW32479   2.200   4.023   4.711 -0.4784 -0.0626 -0.4785
10527SOL    HW132480   2.263   4.013   4.788 -3.5212  1.8477  2.5533
10527SOL    HW232481   2.234   4.092   4.648  1.5884 -0.9278 -0.3851
10528SOL     OW32482   6.698   1.102   5.819 -0.4981 -0.0841  0.0707
10528SOL    HW132483   6.722   1.035   5.888  0.0583 -0.0445 -0.0731
10528SOL    HW232484   6.669   1.055   5.735  2.8053 -0.3115 -1.1136
10529SOL     OW32485   0.555   5.961   5.914  0.0175  0.2710 -0.0149
10529SOL    HW132486   0.543   6.027   5.988  0.3728  0.2274  0.0813
10529SOL    HW232487   0.519   6.000   5.829  2.0019  1.4034 -0.3978
10530SOL     OW32488   0.235   2.599   5.212  0.0637  0.6602 -0.0739
10530SOL    HW132489   0.218   2.564   5.304 -2.0916  2.2982  0.2256
10530SOL    HW232490   0.184   2.544   5.145  1.2440 -0.2243 -0.2967
10531SOL     OW32491   1.985   1.851   5.753 -0.0272 -0.3644 -0.0055
10531SOL    HW132492   1.930   1.890   5.679 -0.0091  1.8086  1.0706
10531SOL    HW232493   2.074   1.897   5.757 -0.1193 -0.2667  1.4989
10532SOL     OW32494   3.125   3.162   4.973  0.0032 -0.5346  0.1140
10532SOL    HW132495   3.118   3.067   5.003 -1.3590 -0.6842 -0.5514
10532SOL    HW232496   3.064   3.219   5.028  1.9937  0.2778  1.5727
10533SOL     OW32497   3.717   0.743   6.469 -0.0883 -0.3398 -0.2536
10533SOL    HW132498   3.787   0.814   6.457  0.6344 -0.1126  3.6740
10533SOL    HW232499   3.629   0.777   6.437  0.0703  2.7975  2.1078
10534SOL     OW32500   0.382   3.875   2.106 -0.2816 -0.3437  0.5389
10534SOL    HW132501   0.388   3.863   2.007 -0.2370  0.8160  0.3818
10534SOL    HW232502   0.409   3.791   2.152  0.7624 -0.5553 -0.4194
10535SOL     OW32503   5.831   2.661   0.429 -0.2527  0.3917 -0.3254
10535SOL    HW132504   5.766   2.589   0.453 -1.3361  1.9185  1.6049
10535SOL    HW232505   5.781   2.745   0.407  1.0161  1.6355  1.3190
10536SOL     OW32506   5.518   3.875   3.546 -0.1690 -0.4493 -0.1016
10536SOL    HW132507   5.526   3.777   3.569 -2.2163 -0.9837 -1.3991
10536SOL    HW232508   5.598   3.903   3.494 -0.4728 -2.0326 -1.5334
10537SOL     OW32509   5.228   5.758   1.092  0.0303 -0.4317  0.5560
10537SOL    HW132510   5.144   5.753   1.145 -0.9492 -0.4819 -0.9376
10537SOL    HW232511   5.206   5.776   0.996  1.6880 -1.0855  0.0114
10538SOL     OW32512   4.495   3.199   0.896 -0.1522 -0.1010 -0.1372
10538SOL    HW132513   4.514   3.151   0.982 -0.1157  0.0465 -0.0630
10538SOL    HW232514   4.420   3.153   0.848 -1.2737  0.7642  0.7394
10539SOL     OW32515   1.228   3.547   5.366 -0.5634  0.2394  0.5781
10539SOL    HW132516   1.275   3.512   5.447 -1.8507 -1.2302  0.7374
10539SOL    HW232517   1.267   3.505   5.284  0.7175  1.7019  0.3965
10540SOL     OW32518   3.477   0.133   6.433  0.6408 -0.0256 -0.2556
10540SOL    HW132519   3.527   0.219   6.433  1.0662 -0.2626  0.6170
10540SOL    HW232520   3.434   0.119   6.343  0.9959  0.8354 -0.5674
10541SOL     OW32521   4.661   2.921   1.370  1.1318  0.1477 -0.5909
10541SOL    HW132522   4.714   2.922   1.285  1.9585  0.9008 -0.0894
10541SOL    HW232523   4.718   2.954   1.445  0.1293  0.4048  0.0839
10542SOL     OW32524   2.364   1.306   0.005 -0.3001 -0.3526 -0.5370
10542SOL    HW132525   2.447   1.342   0.048 -0.1341  0.8902 -1.8099
10542SOL    HW232526   2.289   1.310   0.070  0.3860 -0.4533  0.2810
10543SOL     OW32527   4.192   2.249   3.081 -0.3627  0.5552 -0.3756
10543SOL    HW132528   4.158   2.180   3.145 -0.8109  0.7032 -0.4496
10543SOL    HW232529   4.237   2.203   3.004  0.0357  0.3741 -0.0345
10544SOL     OW32530   6.303   1.388   1.743  0.6395 -0.3273 -0.0216
10544SOL    HW132531   6.226   1.378   1.807  0.6176 -0.3949 -0.0585
10544SOL    HW232532   6.270   1.426   1.657  0.9400  1.4084  0.5891
10545SOL     OW32533   5.395   6.250   3.393 -0.1925  0.3260  0.0784
10545SOL    HW132534   5.441   6.181   3.336 -0.2749  0.1954  0.1702
10545SOL    HW232535   5.464   6.314   3.429  0.1433 -0.8193  1.5366
10546SOL     OW32536   4.101   6.559   4.909  0.1388  0.1053 -0.5460
10546SOL    HW132537   4.128   6.585   4.816  0.2619 -1.9788 -1.1250
10546SOL    HW232538   4.060   6.639   4.954 -1.3395  0.7913 -2.8908
10547SOL     OW32539   3.148   5.009   2.179 -0.0761 -0.3632  0.3234
10547SOL    HW132540   3.214   4.940   2.151 -0.8211 -0.8363 -0.2882
10547SOL    HW232541   3.143   5.080   2.109 -0.0197 -0.1845  0.4992
10548SOL     OW32542   6.488   3.607   4.118  0.5226  0.3838 -0.5721
10548SOL    HW132543   6.535   3.559   4.192 -0.2358 -0.6198 -0.7238
10548SOL    HW232544   6.416   3.665   4.156 -0.6236 -0.9927 -0.5564
10549SOL     OW32545   1.138   1.294   3.358  0.1379  0.2051  0.1266
10549SOL    HW132546   1.125   1.282   3.456 -1.2420 -0.7392 -0.1413
10549SOL    HW232547   1.235   1.304   3.338  0.5725 -1.1585  1.4273
10550SOL     OW32548   2.621   1.343   5.531  0.5235  0.0660  0.5775
10550SOL    HW132549   2.640   1.367   5.436  1.1142 -0.7457  0.4799
10550SOL    HW232550   2.666   1.409   5.592 -2.2287  2.3523  0.3285
10551SOL     OW32551   2.633   2.962   0.173 -0.1660 -0.9009  0.5060
10551SOL    HW132552   2.699   3.020   0.125 -0.8203 -0.0806  0.5823
10551SOL    HW232553   2.655   2.866   0.156  2.4465 -0.7324  2.3904
10552SOL     OW32554   4.877   1.210   4.902  0.1099  0.0979 -0.3437
10552SOL    HW132555   4.969   1.200   4.941 -0.6310  1.5183  2.0130
10552SOL    HW232556   4.883   1.247   4.810  1.9160 -1.0060 -0.7148
10553SOL     OW32557   2.725   5.565   1.046 -0.5311  0.2762 -0.2455
10553SOL    HW132558   2.680   5.480   1.022  0.1185 -0.5585  1.3217
10553SOL    HW232559   2.664   5.642   1.027 -1.9013 -0.6802  0.1085
10554SOL     OW32560   0.374   4.125   4.614 -0.4213  0.2427 -0.6960
10554SOL    HW132561   0.284   4.121   4.657 -1.1566  1.3688 -2.0484
10554SOL    HW232562   0.419   4.211   4.640 -0.6097  0.6368 -1.6512
10555SOL     OW32563   4.472   1.976   0.676 -0.1997 -0.0351 -0.3507
10555SOL    HW132564   4.527   1.928   0.743 -0.9114  2.8699  2.5393
10555SOL    HW232565   4.523   2.054   0.639 -0.2079 -0.9662 -2.4952
10556SOL     OW32566   2.504   5.388   2.340 -0.0654 -0.3326  0.5827
10556SOL    HW132567   2.533   5.292   2.341  0.4149 -0.2354 -0.7739
10556SOL    HW232568   2.536   5.431   2.255 -0.9687  0.8124  0.7948
10557SOL     OW32569   5.544   2.809   0.676 -0.6043  0.2144  0.0325
10557SOL    HW132570   5.482   2.800   0.754 -0.4061  0.3700  0.2075
10557SOL    HW232571   5.501   2.769   0.595 -0.8517  0.1420  0.1982
10558SOL     OW32572   0.266   6.487   6.561  0.3601  0.2511 -0.4222
10558SOL    HW132573   0.217   6.569   6.591 -1.2087 -1.2231  1.3503
10558SOL    HW232574   0.359   6.512   6.535 -0.8385  2.9642 -2.6160
10559SOL     OW32575   4.682   1.896   1.234 -0.0926  0.3740  0.7343
10559SOL    HW132576   4.713   1.878   1.141 -0.7462 -1.3563  0.8074
10559SOL    HW232577   4.629   1.980   1.236 -0.6444  0.0914 -0.6096
10560SOL     OW32578   6.271   1.121   3.078  0.1741 -0.2130  0.4981
10560SOL    HW132579   6.178   1.147   3.103 -0.6907 -1.5537 -1.1471
10560SOL    HW232580   6.271   1.075   2.989  2.2702 -1.2039  0.9271
10561SOL     OW32581   1.310   4.505   6.304  0.0195  0.1079  0.4427
10561SOL    HW132582   1.391   4.448   6.290  0.6218 -0.0964  3.8202
10561SOL    HW232583   1.336   4.601   6.308  0.4043 -0.0279  2.6586
10562SOL     OW32584   3.733   1.936   0.674 -0.2444 -0.4455  0.0372
10562SOL    HW132585   3.691   1.951   0.763  0.6414 -0.9782  0.5529
10562SOL    HW232586   3.826   1.902   0.685 -0.2004 -0.7584 -1.0877
10563SOL     OW32587   2.469   1.223   2.415  0.1448 -0.1748  0.9037
10563SOL    HW132588   2.524   1.221   2.332  0.5028 -0.7291  1.1537
10563SOL    HW232589   2.419   1.137   2.425 -1.5019  0.6527  0.2006
10564SOL     OW32590   2.532   1.320   0.881 -0.3660  0.5819 -0.4687
10564SOL    HW132591   2.499   1.226   0.880 -0.4562  0.6085 -0.0247
10564SOL    HW232592   2.454   1.383   0.879 -0.3683  0.6464  0.9090
10565SOL     OW32593   5.604   0.093   4.522 -0.4179  0.1960 -0.2856
10565SOL    HW132594   5.596   0.177   4.577  0.0747  1.0562 -1.4799
10565SOL    HW232595   5.653   0.113   4.437 -0.5482 -1.2525 -0.7350
10566SOL     OW32596   3.583   0.264   5.521 -0.1773 -0.0621  0.4870
10566SOL    HW132597   3.600   0.232   5.614  0.7172 -1.4114 -0.1299
10566SOL    HW232598   3.669   0.292   5.479 -0.6920  1.4139  0.3468
10567SOL     OW32599   3.166   4.957   5.324  0.0365  0.4972  0.0641
10567SOL    HW132600   3.143   4.986   5.232  0.5029 -0.8326 -0.4973
10567SOL    HW232601   3.152   4.859   5.333  0.5921  0.5009  1.2268
10568SOL     OW32602   4.646   0.951   4.521 -0.4516  0.1811  0.1239
10568SOL    HW132603   4.597   0.996   4.446 -1.3553 -0.7002  0.1560
10568SOL    HW232604   4.590   0.953   4.604 -0.1653 -0.3095  0.3345
10569SOL     OW32605   5.045   2.139   1.880 -0.3844  0.0073 -0.1861
10569SOL    HW132606   5.144   2.151   1.895 -0.6340  0.6408  1.1696
10569SOL    HW232607   5.001   2.228   1.879 -0.8386 -0.2183 -1.7655
10570SOL     OW32608   0.619   2.196   2.304  0.3875  0.3851  0.5075
10570SOL    HW132609   0.596   2.129   2.375 -0.8127  0.7420  0.4796
10570SOL    HW232610   0.630   2.286   2.346 -1.8653  0.9159  0.1227
10571SOL     OW32611   6.206   6.007   6.589 -0.0503  0.4687 -0.3214
10571SOL    HW132612   6.254   5.968   6.668  0.1864  0.5639 -0.4176
10571SOL    HW232613   6.245   5.970   6.505 -1.2009 -0.6908 -0.3819
10572SOL     OW32614   5.672   3.799   2.353 -0.6874  0.2285  0.1121
10572SOL    HW132615   5.632   3.774   2.265 -0.7165 -0.5069  0.3237
10572SOL    HW232616   5.601   3.797   2.423 -0.3696 -0.6940  0.4200
10573SOL     OW32617   0.087   4.476   4.960 -0.2426  0.8096  0.1116
10573SOL    HW132618  -0.008   4.450   4.973 -0.7084  2.3097 -0.1637
10573SOL    HW232619   0.104   4.498   4.864 -0.3245  3.0540  0.5456
10574SOL     OW32620   1.753   3.056   2.693  0.4673 -0.1569  0.3470
10574SOL    HW132621   1.820   2.982   2.685  0.8615  0.3491 -1.4097
10574SOL    HW232622   1.786   3.136   2.643 -0.5571  0.7712  1.1234
10575SOL     OW32623   6.070   6.425   0.002 -0.3464 -0.1211 -0.3557
10575SOL    HW132624   6.035   6.355  -0.059 -0.8118 -0.9104  0.7742
10575SOL    HW232625   6.164   6.403   0.029 -0.4410 -0.2425 -0.1181
10576SOL     OW32626   1.721   5.133   5.162  0.3011 -0.0534 -0.0850
10576SOL    HW132627   1.707   5.208   5.227  2.6296  0.9196 -0.5956
10576SOL    HW232628   1.679   5.050   5.197  0.2241  0.7953  1.9490
10577SOL     OW32629   6.676   2.440   5.282 -0.3316 -0.2332 -0.5973
10577SOL    HW132630   6.661   2.402   5.190  0.8404  0.6516 -1.1742
10577SOL    HW232631   6.631   2.529   5.289  0.1045 -0.0190 -0.5233
10578SOL     OW32632   6.276   1.489   6.074  0.0975  0.6914  0.2213
10578SOL    HW132633   6.363   1.527   6.107  0.9453 -0.8859 -0.1466
10578SOL    HW232634   6.225   1.561   6.026  0.8450  1.8302  1.0688
10579SOL     OW32635   4.854   5.575   1.985 -0.8359  0.1669 -0.6369
10579SOL    HW132636   4.868   5.495   2.043 -0.7244  0.0230 -0.8650
10579SOL    HW232637   4.927   5.581   1.917 -0.3555  0.9464 -0.0725
10580SOL     OW32638   0.350   4.798   6.793  0.5710 -0.1231  0.4389
10580SOL    HW132639   0.332   4.893   6.818 -1.3179 -0.8133  1.9377
10580SOL    HW232640   0.269   4.742   6.814  2.1747 -2.3255  1.0972
10581SOL     OW32641   4.861   2.574   2.586 -0.6407 -0.0667 -0.3456
10581SOL    HW132642   4.905   2.574   2.497  0.1160  0.9112  0.0111
10581SOL    HW232643   4.787   2.641   2.587 -0.8023 -0.2449 -0.3096
10582SOL     OW32644   5.181   4.660   1.482 -0.1005 -0.0837 -0.1650
10582SOL    HW132645   5.231   4.649   1.568  0.3563 -0.1019 -0.4331
10582SOL    HW232646   5.184   4.756   1.454  0.8317 -0.2838 -0.8081
10583SOL     OW32647   5.124   0.512   2.905 -0.2091  0.0731  0.0902
10583SOL    HW132648   5.054   0.452   2.943 -1.0715  0.8710 -0.2155
10583SOL    HW232649   5.106   0.606   2.933  2.0705  0.0488  1.9630
10584SOL     OW32650   5.139   5.944   2.018  0.2006 -0.5625  0.1071
10584SOL    HW132651   5.227   5.969   1.977 -0.2607  0.0680 -0.5138
10584SOL    HW232652   5.117   6.008   2.092 -0.5374  0.3352 -0.8674
10585SOL     OW32653   3.441   3.469   4.626  0.5723 -0.3692 -0.6031
10585SOL    HW132654   3.416   3.560   4.659 -0.1230 -0.6580 -0.3075
10585SOL    HW232655   3.358   3.420   4.599  0.6426 -1.8568  1.6548
10586SOL     OW32656   4.557   2.007   3.156  0.2873 -0.9784  0.2728
10586SOL    HW132657   4.539   1.916   3.192 -0.2871 -0.8426  0.3354
10586SOL    HW232658   4.514   2.076   3.215 -1.4959 -0.7974 -1.1843
10587SOL     OW32659   6.285   2.685   0.819 -0.5594 -0.1828  0.5330
10587SOL    HW132660   6.361   2.630   0.853  0.8333  0.8654 -0.7090
10587SOL    HW232661   6.208   2.679   0.881 -0.3231 -3.1742  0.6440
10588SOL     OW32662   0.558   6.305   3.695 -0.1200 -0.2014  0.1525
10588SOL    HW132663   0.501   6.299   3.613 -0.2477  0.7669  0.1559
10588SOL    HW232664   0.499   6.318   3.775  0.0869  0.8212  0.1532
10589SOL     OW32665   5.183   6.062   3.733 -0.3769 -0.5425  0.0427
10589SOL    HW132666   5.145   5.991   3.675  0.7082 -1.1135  0.0155
10589SOL    HW232667   5.271   6.033   3.769 -0.7167  0.0625  1.4648
10590SOL     OW32668   0.378   1.123   4.081  0.3276 -0.5195 -0.0339
10590SOL    HW132669   0.402   1.105   3.985  0.4548 -1.6938  0.2004
10590SOL    HW232670   0.327   1.046   4.117  1.4150 -0.6886  1.2182
10591SOL     OW32671   0.735   2.895   0.533  0.3444 -0.1022  0.0097
10591SOL    HW132672   0.802   2.849   0.474  0.4168 -1.1498  0.8666
10591SOL    HW232673   0.780   2.926   0.617  0.0699  0.6105 -0.0983
10592SOL     OW32674   6.291   2.624   4.255 -0.1465  0.5560  0.5567
10592SOL    HW132675   6.337   2.612   4.167 -0.8133  2.7579 -0.1544
10592SOL    HW232676   6.323   2.554   4.319  0.6770 -0.8382 -1.2783
10593SOL     OW32677   2.616   2.311   3.012  0.9586  0.0323  0.1810
10593SOL    HW132678   2.626   2.225   3.062 -0.6955 -0.0238  0.4594
10593SOL    HW232679   2.612   2.293   2.914  2.1661 -0.0459  0.1338
10594SOL     OW32680   0.175   1.105   3.760  0.1038 -0.3396 -0.0077
10594SOL    HW132681   0.156   1.133   3.667 -2.7401  0.9769  0.8625
10594SOL    HW232682   0.220   1.179   3.810 -2.0915  0.6194  0.6887
10595SOL     OW32683   4.445   5.206   5.209  0.4669  0.0836  0.4801
10595SOL    HW132684   4.501   5.288   5.222  0.2970  0.4242 -0.7626
10595SOL    HW232685   4.502   5.132   5.175  0.3555  0.1219  0.2087
10596SOL     OW32686   2.805   1.830   1.932 -0.5975  0.8415  0.1083
10596SOL    HW132687   2.803   1.925   1.903 -1.3818  0.7668 -0.1147
10596SOL    HW232688   2.813   1.825   2.032 -1.9544  1.1810  0.2548
10597SOL     OW32689   1.537   1.403   4.596 -0.0202 -0.4895 -0.1722
10597SOL    HW132690   1.479   1.338   4.546  1.3268 -0.8882 -1.2826
10597SOL    HW232691   1.594   1.453   4.531 -2.2950  3.2335  0.4132
10598SOL     OW32692   2.215   0.788   1.985  0.4096 -0.1209  0.2442
10598SOL    HW132693   2.286   0.762   1.920 -0.2743  1.4526 -1.1973
10598SOL    HW232694   2.125   0.784   1.940 -0.4994 -2.1518  2.0413
10599SOL     OW32695   4.538   0.879   5.950  0.5853 -0.3010 -0.0553
10599SOL    HW132696   4.616   0.927   5.909  0.5972  0.2718  0.6128
10599SOL    HW232697   4.453   0.913   5.909  0.6574 -0.5608 -0.4225
10600SOL     OW32698   1.723   3.064   3.473  0.1892 -0.8341  0.2706
10600SOL    HW132699   1.635   3.036   3.512 -0.8103  2.2209  0.4931
10600SOL    HW232700   1.731   3.031   3.379 -1.3403 -0.9167  0.1547
10601SOL     OW32701   5.136   5.501   5.867  0.7411 -0.0156  1.2428
10601SOL    HW132702   5.153   5.425   5.930  2.1118  0.5871  1.6298
10601SOL    HW232703   5.196   5.577   5.890 -0.9957  1.4269  1.2356
10602SOL     OW32704   5.372   3.567   2.825  0.3595 -0.8348 -0.6928
10602SOL    HW132705   5.460   3.614   2.830  0.4790 -0.8907 -1.8557
10602SOL    HW232706   5.385   3.469   2.836  0.2051 -0.7039  0.9356
10603SOL     OW32707   0.466   5.457   5.880  0.1925  0.6516  0.2285
10603SOL    HW132708   0.562   5.434   5.899 -0.1314  0.2625  1.4853
10603SOL    HW232709   0.458   5.556   5.867  1.0278  0.5227 -1.6965
10604SOL     OW32710   1.076   4.365   6.211 -0.6214  0.1495  0.7349
10604SOL    HW132711   1.097   4.435   6.279 -0.2881  0.3536  0.4224
10604SOL    HW232712   1.154   4.353   6.149 -1.0852  0.2942  0.1095
10605SOL     OW32713   2.188   5.652   1.565 -0.1813 -0.2475 -0.2902
10605SOL    HW132714   2.115   5.585   1.582  0.4291 -0.9174 -0.2685
10605SOL    HW232715   2.206   5.658   1.467  0.4829 -0.9074 -0.2201
10606SOL     OW32716   1.741   1.256   3.446  0.2280  0.2176 -0.0830
10606SOL    HW132717   1.749   1.186   3.375  0.8199 -1.2610  1.3641
10606SOL    HW232718   1.675   1.325   3.418  0.5989 -0.2052 -2.1346
10607SOL     OW32719   5.129   1.970   0.101  0.2271  0.6143 -0.3285
10607SOL    HW132720   5.226   1.982   0.122  0.5301 -1.2269 -0.4843
10607SOL    HW232721   5.092   2.055   0.066  1.4576  1.7337  0.9779
10608SOL     OW32722   4.151   5.682   4.117  0.8245 -0.5088 -1.1178
10608SOL    HW132723   4.239   5.723   4.139  0.4003 -1.0252  1.9662
10608SOL    HW232724   4.121   5.623   4.193 -1.6841 -1.2014 -2.5166
10609SOL     OW32725   3.822   0.500   3.874 -0.0602  0.5983  0.7245
10609SOL    HW132726   3.749   0.552   3.830  1.6722  1.7993 -0.9280
10609SOL    HW232727   3.802   0.489   3.971 -2.2110  1.2136  0.3998
10610SOL     OW32728   1.799   4.721   4.668  0.3034 -0.0940 -0.5127
10610SOL    HW132729   1.717   4.776   4.684 -0.9798 -2.3028  1.1074
10610SOL    HW232730   1.836   4.690   4.756  0.9305 -1.8185 -1.3382
10611SOL     OW32731   4.501   2.997   5.396 -0.1166 -0.0466 -0.0177
10611SOL    HW132732   4.424   2.936   5.378 -0.6190  0.9397 -1.4327
10611SOL    HW232733   4.469   3.077   5.446 -0.1506  0.6007 -1.0361
10612SOL     OW32734   0.694   6.764   1.773 -0.5361 -0.0183  0.0146
10612SOL    HW132735   0.757   6.795   1.845 -1.3272  1.3794  0.1181
10612SOL    HW232736   0.679   6.665   1.784  0.8709 -0.2061  0.5702
10613SOL     OW32737   2.294   0.193   6.375 -0.2413 -0.1263 -0.3177
10613SOL    HW132738   2.227   0.261   6.406 -1.0161 -1.5620  1.3504
10613SOL    HW232739   2.384   0.236   6.367 -0.6225  1.0122  1.1236
10614SOL     OW32740   0.175   6.589   4.430  0.1682  0.1489  0.1682
10614SOL    HW132741   0.157   6.662   4.364  1.0835  0.7128  0.5178
10614SOL    HW232742   0.144   6.618   4.520 -0.3123 -0.2810  0.1445
10615SOL     OW32743   6.413   7.011   6.772  0.0008  0.1884 -0.4507
10615SOL    HW132744   6.466   6.936   6.733  1.6276  1.3862 -0.6787
10615SOL    HW232745   6.465   7.052   6.848 -1.4100  0.2924  0.4825
10616SOL     OW32746   4.028   6.355   1.462  0.3398 -0.2870 -0.4120
10616SOL    HW132747   4.127   6.346   1.474  0.2110 -0.0894  1.0428
10616SOL    HW232748   3.998   6.443   1.500 -0.2746  0.1267 -1.7743
10617SOL     OW32749   6.871   3.060   0.420  0.7710  0.1470 -0.2536
10617SOL    HW132750   6.907   3.152   0.435  2.5515 -0.3810 -0.9864
10617SOL    HW232751   6.786   3.048   0.471  1.4348  1.6009  1.2777
10618SOL     OW32752   6.874   3.615   0.728 -0.0131 -0.4193 -0.6295
10618SOL    HW132753   6.889   3.516   0.734 -2.1838 -0.8228 -0.8259
10618SOL    HW232754   6.914   3.659   0.809  0.3788 -1.5421 -0.1805
10619SOL     OW32755   2.425   2.455   4.382 -0.2115  0.4030 -0.3278
10619SOL    HW132756   2.523   2.447   4.400  0.0286  2.1537 -0.6296
10619SOL    HW232757   2.402   2.405   4.298  0.5786  0.5962 -0.6653
10620SOL     OW32758   2.187   6.367   4.716 -0.4209 -0.2454  0.4640
10620SOL    HW132759   2.122   6.390   4.644  1.2638  0.3038 -0.9483
10620SOL    HW232760   2.180   6.434   4.791  0.3763  1.5024 -0.9393
10621SOL     OW32761   2.655   1.228   1.878  0.1872  0.4119 -0.0301
10621SOL    HW132762   2.640   1.312   1.931  0.9447  0.5990 -0.0930
10621SOL    HW232763   2.731   1.177   1.917  0.4353  0.3038 -0.6396
10622SOL     OW32764   4.081   1.937   6.275 -0.2842  0.0791  0.3844
10622SOL    HW132765   4.015   1.896   6.212  0.4891  0.7460 -0.8998
10622SOL    HW232766   4.110   2.026   6.239  1.5428 -0.3366  0.7420
10623SOL     OW32767   5.374   1.722   4.022 -0.2186 -0.3392 -0.1824
10623SOL    HW132768   5.352   1.625   4.011 -1.9888 -0.2703  2.2131
10623SOL    HW232769   5.425   1.736   4.107  0.0980  0.8475 -0.5396
10624SOL     OW32770   1.209   1.984   4.130  0.6168  0.2940 -0.6390
10624SOL    HW132771   1.150   1.986   4.211  0.1575 -0.6754 -0.9376
10624SOL    HW232772   1.243   1.891   4.117  0.8289  0.4860 -1.4657
10625SOL     OW32773   0.921   1.996   1.255 -0.2304  0.0866 -0.2898
10625SOL    HW132774   0.911   1.909   1.303 -0.3843  0.8435  1.0991
10625SOL    HW232775   0.913   1.981   1.157  1.8728 -1.7961 -0.2680
10626SOL     OW32776   5.852   7.013   4.837  0.0916 -0.3039  0.3430
10626SOL    HW132777   5.821   6.943   4.772  1.3017 -0.2301 -0.3499
10626SOL    HW232778   5.776   7.074   4.860 -0.9625 -1.7383  0.8531
10627SOL     OW32779   1.763   0.071   3.620  0.1203 -0.2259 -0.0690
10627SOL    HW132780   1.854   0.078   3.660 -0.1915  0.3238  0.5608
10627SOL    HW232781   1.755   0.135   3.543 -0.3179  1.0731  1.0259
10628SOL     OW32782   5.866   5.743   5.302  0.1353  0.1110 -0.2267
10628SOL    HW132783   5.784   5.786   5.339  1.2873  0.8378  1.5780
10628SOL    HW232784   5.839   5.676   5.232 -2.0659 -0.6775  1.2716
10629SOL     OW32785   2.458   3.443   0.603  0.0117  0.1062  0.3797
10629SOL    HW132786   2.418   3.386   0.675 -2.0375 -1.5896 -1.9431
10629SOL    HW232787   2.497   3.385   0.532  2.2615  1.7379  0.1426
10630SOL     OW32788   2.332   6.820   2.134 -0.2448 -0.0567  0.0824
10630SOL    HW132789   2.419   6.813   2.184 -0.2637  1.6734  0.4236
10630SOL    HW232790   2.286   6.905   2.160 -1.5074 -0.3990 -0.9543
10631SOL     OW32791   0.531   0.569   2.828 -0.5478  0.4320 -0.2661
10631SOL    HW132792   0.617   0.548   2.781 -1.0197 -0.6237 -0.7008
10631SOL    HW232793   0.491   0.652   2.791  0.1404  0.7715 -0.2588
10632SOL     OW32794   0.588   3.810   0.063 -0.2306 -0.0177 -0.1204
10632SOL    HW132795   0.531   3.808  -0.019  1.3391 -0.2545 -1.2606
10632SOL    HW232796   0.664   3.745   0.052 -0.4521 -0.6896  1.9020
10633SOL     OW32797   1.089   0.277   5.377  0.4272 -0.0143 -0.5412
10633SOL    HW132798   1.086   0.238   5.469  1.0588 -0.2324 -0.6096
10633SOL    HW232799   1.102   0.376   5.383 -0.7325  0.1361 -0.3768
10634SOL     OW32800   3.497   5.901   2.540 -0.3739 -0.2698  0.0301
10634SOL    HW132801   3.588   5.905   2.582 -0.1722  1.0563 -0.4961
10634SOL    HW232802   3.479   5.807   2.511  1.1718 -0.4332 -0.5405
10635SOL     OW32803   1.994   2.567   6.710  0.3086  0.1640 -0.6632
10635SOL    HW132804   1.927   2.639   6.728  1.3957  1.0549 -0.0113
10635SOL    HW232805   2.004   2.511   6.792  0.4870  0.1504 -0.6942
10636SOL     OW32806   4.352   1.819   6.304  0.1496 -0.0809  0.4325
10636SOL    HW132807   4.266   1.867   6.290  0.6436  0.5050 -0.8313
10636SOL    HW232808   4.346   1.761   6.385 -2.1779 -1.7779 -0.8480
10637SOL     OW32809   2.146   3.427   6.960 -0.0983  0.0519  0.9551
10637SOL    HW132810   2.130   3.478   6.876  0.4094 -0.2758  0.6609
10637SOL    HW232811   2.073   3.448   7.026 -0.8090 -0.1196  0.2381
10638SOL     OW32812   0.684   1.799   3.688  0.7567  0.3403  0.4350
10638SOL    HW132813   0.612   1.815   3.621  0.3504 -0.3659  0.6985
10638SOL    HW232814   0.763   1.856   3.665 -0.1376  1.6741  0.5747
10639SOL     OW32815   3.605   1.876   4.105 -0.0905  0.5645  0.6465
10639SOL    HW132816   3.643   1.864   4.197  0.0370 -1.9927  0.3435
10639SOL    HW232817   3.542   1.801   4.086 -0.4045  1.2583 -1.2183
10640SOL     OW32818   3.335   6.471   2.064 -0.2040 -0.4746  0.0720
10640SOL    HW132819   3.407   6.494   1.998 -0.4581  2.4458  0.6627
10640SOL    HW232820   3.286   6.390   2.032  2.0044 -1.3647 -1.3842
10641SOL     OW32821   3.473   6.024   0.477 -0.4931 -0.0296  0.5714
10641SOL    HW132822   3.417   6.107   0.476 -2.7388 -1.3797 -2.7985
10641SOL    HW232823   3.421   5.950   0.520  0.8417 -0.1601  2.0431
10642SOL     OW32824   0.705   6.749   1.500  0.4787  0.0260  0.3367
10642SOL    HW132825   0.798   6.746   1.465  0.3249  1.7364 -0.3392
10642SOL    HW232826   0.706   6.775   1.597  0.6875  0.9039  0.1084
10643SOL     OW32827   1.880   3.572   6.752  0.4726  0.2028 -0.3936
10643SOL    HW132828   1.876   3.587   6.653 -1.7440  0.7006 -0.2900
10643SOL    HW232829   1.922   3.650   6.796 -0.4919  0.9739 -0.7977
10644SOL     OW32830   3.366   2.069   5.562 -0.2617  0.3404 -0.7198
10644SOL    HW132831   3.406   2.011   5.492  0.3632 -0.0976 -0.0108
10644SOL    HW232832   3.435   2.133   5.597 -0.8006  1.1542 -1.1165
10645SOL     OW32833   0.866   0.458   4.636 -0.4106  0.3810 -0.3375
10645SOL    HW132834   0.909   0.462   4.546 -2.6026  1.9686 -1.4060
10645SOL    HW232835   0.923   0.405   4.698  1.1708 -0.7647 -2.6454
10646SOL     OW32836   0.565   5.300   1.175 -0.3509  0.0838 -0.3387
10646SOL    HW132837   0.564   5.253   1.086 -0.2380 -0.3750 -0.0978
10646SOL    HW232838   0.495   5.372   1.175  0.4648  0.9123 -1.2402
10647SOL     OW32839   5.701   5.701   0.730 -0.1799 -0.0486  0.1234
10647SOL    HW132840   5.737   5.607   0.727  1.1766  0.4717 -0.5165
10647SOL    HW232841   5.636   5.713   0.655  0.6622 -0.0991 -0.6371
10648SOL     OW32842   4.936   4.920   5.584 -0.0848 -0.7356 -0.3881
10648SOL    HW132843   4.946   4.831   5.539  2.4574 -1.1372  0.7605
10648SOL    HW232844   4.902   4.906   5.677  2.1367 -0.7938  0.4748
10649SOL     OW32845   5.749   5.001   4.880  0.0172 -0.0962 -0.0744
10649SOL    HW132846   5.748   4.947   4.964 -0.5958  0.0038 -0.0126
10649SOL    HW232847   5.681   4.965   4.816  0.8330 -0.4954 -0.7460
10650SOL     OW32848   0.295   0.368   5.212  0.1324 -0.1847  0.4439
10650SOL    HW132849   0.332   0.276   5.196 -2.2160 -1.0918 -0.3504
10650SOL    HW232850   0.365   0.437   5.196  1.5484 -1.7679 -0.4541
10651SOL     OW32851   1.122   1.030   6.519  0.9716 -0.1832  0.6902
10651SOL    HW132852   1.214   1.016   6.557  1.4580  0.0601 -0.3605
10651SOL    HW232853   1.062   0.958   6.553  1.8495 -1.0512  0.4573
10652SOL     OW32854   4.000   1.926   6.584 -0.3040 -0.4956  0.5366
10652SOL    HW132855   3.999   1.897   6.488 -2.7504  0.1177  0.2914
10652SOL    HW232856   3.922   1.987   6.600  1.3533  1.2707  2.4029
10653SOL     OW32857   6.745   4.699   0.619 -0.6594 -0.2467 -0.0385
10653SOL    HW132858   6.659   4.701   0.568 -0.3968  1.1705 -0.4780
10653SOL    HW232859   6.736   4.756   0.700  0.0966  0.5329 -0.4939
10654SOL     OW32860   4.047   0.586   1.297  0.0756  0.0195  0.1941
10654SOL    HW132861   4.135   0.543   1.318  0.1485 -0.0712 -0.2871
10654SOL    HW232862   3.977   0.516   1.288 -0.1331  0.1177  0.9656
10655SOL     OW32863   1.275   4.320   1.164  0.1880  0.1828 -0.1738
10655SOL    HW132864   1.176   4.326   1.153  0.3824  1.1284 -1.6594
10655SOL    HW232865   1.303   4.373   1.244 -0.5253 -0.3745  0.4530
10656SOL     OW32866   6.335   4.352   5.082 -0.2795 -0.1544  0.0549
10656SOL    HW132867   6.285   4.265   5.080  0.6302 -0.8321  2.6798
10656SOL    HW232868   6.294   4.413   5.149 -0.0635  0.9322 -0.7703
10657SOL     OW32869   3.856   0.154   0.081  0.0389 -0.4644  0.4282
10657SOL    HW132870   3.945   0.180   0.043 -1.1133 -0.2179 -2.2965
10657SOL    HW232871   3.812   0.088   0.021 -1.7120 -0.4441  1.6345
10658SOL     OW32872   1.631   5.959   3.295 -0.7579  0.4244  0.0222
10658SOL    HW132873   1.685   5.949   3.211 -2.6217 -1.0699 -1.0765
10658SOL    HW232874   1.617   6.056   3.314  0.3909  0.7996 -0.9138
10659SOL     OW32875   6.652   1.372   1.608  0.0947 -0.0458 -0.2039
10659SOL    HW132876   6.683   1.294   1.555 -0.9499  0.6275 -1.8995
10659SOL    HW232877   6.696   1.371   1.698  0.0240 -2.6029 -0.1307
10660SOL     OW32878   4.853   5.168   5.002 -0.4876 -0.5541 -0.2514
10660SOL    HW132879   4.769   5.220   4.990 -1.1400 -1.4348  0.3018
10660SOL    HW232880   4.863   5.143   5.099  0.8534  0.2488 -0.1661
10661SOL     OW32881   5.993   0.901   3.678 -0.3983  0.0610  0.2736
10661SOL    HW132882   6.057   0.840   3.724 -0.1029  0.8221  0.8967
10661SOL    HW232883   6.018   0.910   3.581 -0.0514 -0.2812  0.3306
10662SOL     OW32884   0.652   4.487   6.613 -0.3083  0.5390 -0.0657
10662SOL    HW132885   0.709   4.444   6.543  1.5222  1.5762  0.7009
10662SOL    HW232886   0.606   4.416   6.666  1.7961 -0.5041  0.4969
10663SOL     OW32887   1.580   3.588   3.206  0.0228  0.1382  0.6813
10663SOL    HW132888   1.510   3.540   3.152 -1.7013  3.6512 -0.5232
10663SOL    HW232889   1.651   3.622   3.144  0.2405  0.6494  1.2078
10664SOL     OW32890   3.321   3.922   6.509  0.5153  0.2909 -0.3380
10664SOL    HW132891   3.241   3.863   6.499  0.4945  0.4002 -0.8236
10664SOL    HW232892   3.399   3.867   6.539  0.5698 -0.0443 -1.0639
10665SOL     OW32893   6.516   1.174   0.835 -0.1826  0.3397  0.0361
10665SOL    HW132894   6.513   1.088   0.887 -0.3353  0.2180 -0.1718
10665SOL    HW232895   6.591   1.170   0.769 -1.2410 -0.3273 -1.1630
10666SOL     OW32896   6.392   5.625   1.748 -0.8352  0.1315  0.2092
10666SOL    HW132897   6.371   5.620   1.846  0.2392  1.7456  0.5571
10666SOL    HW232898   6.344   5.703   1.708 -0.6537 -0.0617 -0.3927
10667SOL     OW32899   3.935   3.153   5.507  0.1126  0.0960  0.2594
10667SOL    HW132900   3.851   3.098   5.511  0.8931 -1.2137 -0.5842
10667SOL    HW232901   3.922   3.228   5.442  0.7082 -2.2539 -2.8443
10668SOL     OW32902   1.008   0.774   0.687  0.1870  0.5708 -0.0830
10668SOL    HW132903   0.954   0.729   0.758 -0.4507  1.6701  0.1508
10668SOL    HW232904   0.990   0.872   0.688  1.5691  0.8612 -0.5546
10669SOL     OW32905   2.713   6.958   6.445 -0.4507 -0.1086 -0.3220
10669SOL    HW132906   2.671   7.049   6.444 -0.5242 -0.1445 -0.8222
10669SOL    HW232907   2.644   6.890   6.469 -0.5134 -0.0878 -0.4424
10670SOL     OW32908   5.169   3.644   5.703  0.0663  0.1377  0.2050
10670SOL    HW132909   5.104   3.580   5.744  0.8222  0.2381  1.5890
10670SOL    HW232910   5.223   3.596   5.634 -1.3589  0.0287 -0.9115
10671SOL     OW32911   1.868   3.219   3.882 -0.3999  1.0085  0.0595
10671SOL    HW132912   1.946   3.265   3.840  0.3491 -2.7447 -3.3234
10671SOL    HW232913   1.810   3.180   3.810 -0.2714 -4.2012  2.3323
10672SOL     OW32914   0.078   3.606   6.084  0.0151 -0.1184 -0.0636
10672SOL    HW132915   0.093   3.695   6.129  2.0412 -1.4111  2.0772
10672SOL    HW232916   0.159   3.582   6.030 -0.6737 -0.5277 -0.9392
10673SOL     OW32917   3.797   3.396   3.563 -0.2816 -0.0044  0.0469
10673SOL    HW132918   3.740   3.445   3.497 -1.4513  0.1592  1.1396
10673SOL    HW232919   3.867   3.458   3.599 -0.2884  0.1972 -0.2876
10674SOL     OW32920   4.508   2.524   2.859 -0.4470  0.0331 -0.2286
10674SOL    HW132921   4.598   2.489   2.838 -0.7432  0.9291 -3.4194
10674SOL    HW232922   4.438   2.471   2.811 -1.5653  0.1560  1.1581
10675SOL     OW32923   2.134   1.981   4.241 -0.0368 -0.1933  0.2951
10675SOL    HW132924   2.090   2.066   4.209  1.0951  0.8290  1.3323
10675SOL    HW232925   2.146   1.987   4.340  0.3768 -1.4428  0.3244
10676SOL     OW32926   0.304   2.363   0.713 -0.3251  0.2959  0.3313
10676SOL    HW132927   0.251   2.420   0.650 -0.6845  0.4537  0.7794
10676SOL    HW232928   0.327   2.277   0.668  0.2747  0.8110 -0.3739
10677SOL     OW32929   5.602   0.233   0.054 -0.2338  0.2817 -0.2292
10677SOL    HW132930   5.585   0.243   0.152 -0.4588  0.4426 -0.2853
10677SOL    HW232931   5.688   0.183   0.040  0.3340  1.1635  0.0527
10678SOL     OW32932   0.901   0.128   3.073 -0.4392  0.2690 -1.0390
10678SOL    HW132933   0.852   0.046   3.103 -0.1912  0.5370  0.1495
10678SOL    HW232934   0.882   0.144   2.977 -1.9139 -0.1991 -0.8592
10679SOL     OW32935   6.691   3.988   3.839 -0.5633 -0.1271 -0.0234
10679SOL    HW132936   6.759   3.948   3.901  0.9919 -0.3671 -1.7924
10679SOL    HW232937   6.648   3.916   3.786  1.4517  0.2730 -2.4321
10680SOL     OW32938   0.676   3.152   4.868  0.3743 -0.8925  0.1925
10680SOL    HW132939   0.704   3.073   4.922  0.8028 -1.3981 -0.7424
10680SOL    HW232940   0.687   3.131   4.771 -2.1867 -0.7218 -0.2143
10681SOL     OW32941   0.786   3.392   1.453 -0.0445 -0.6257  0.4016
10681SOL    HW132942   0.795   3.455   1.530  0.2912 -0.1421 -0.0236
10681SOL    HW232943   0.748   3.442   1.374  1.2033 -0.6972 -0.2608
10682SOL     OW32944   0.892   1.995   4.125 -0.0552 -0.3997  0.2042
10682SOL    HW132945   0.948   1.995   4.042  0.7597 -0.1361  0.7461
10682SOL    HW232946   0.839   1.911   4.129  1.4876 -1.4014  0.4617
10683SOL     OW32947   0.763   6.599   4.308  0.0967  0.3425 -0.2890
10683SOL    HW132948   0.830   6.526   4.318  0.0841  0.5438  1.6161
10683SOL    HW232949   0.733   6.605   4.212  1.2949 -1.0522 -0.7731
10684SOL     OW32950   5.559   6.290   1.876 -0.2148 -0.5757 -0.3799
10684SOL    HW132951   5.486   6.316   1.939  1.6059 -0.1961  1.6953
10684SOL    HW232952   5.591   6.197   1.898  0.8581 -0.2059 -0.3355
10685SOL     OW32953   5.221   0.982   3.960 -0.9557  0.3343 -0.3605
10685SOL    HW132954   5.162   1.062   3.946 -1.0085  0.3546 -0.0350
10685SOL    HW232955   5.218   0.955   4.056 -0.3345  0.4115 -0.3159
10686SOL     OW32956   0.128   3.474   2.291  0.3158  0.0765 -0.2162
10686SOL    HW132957   0.066   3.550   2.313 -1.9036 -1.3287 -1.2648
10686SOL    HW232958   0.170   3.490   2.202  0.9203  0.6978  0.1728
10687SOL     OW32959   6.497   5.962   0.591 -0.5833 -0.7327  0.2111
10687SOL    HW132960   6.562   5.893   0.557  0.7530  0.0361  1.1069
10687SOL    HW232961   6.526   6.052   0.560 -0.8063 -0.3050  1.2358
10688SOL     OW32962   2.045   6.665   0.401  0.0823 -0.5871 -0.0031
10688SOL    HW132963   1.985   6.661   0.482 -1.3565  2.9283 -0.7274
10688SOL    HW232964   2.000   6.618   0.325 -0.4424 -0.4344  0.2026
10689SOL     OW32965   6.402   2.213   2.662 -0.0202  0.0527 -0.1279
10689SOL    HW132966   6.466   2.240   2.734 -1.2531 -1.6979  1.7270
10689SOL    HW232967   6.448   2.154   2.596  0.2229 -1.6962  1.5184
10690SOL     OW32968   4.038   1.518   3.952  0.0570  0.1085  0.1177
10690SOL    HW132969   4.126   1.487   3.986 -0.5889  0.2423  2.0230
10690SOL    HW232970   4.030   1.496   3.855  1.1988 -2.0856  0.4586
10691SOL     OW32971   3.261   2.140   2.431  0.2973 -0.0685 -0.1377
10691SOL    HW132972   3.164   2.159   2.417  0.3528  0.6823  0.4079
10691SOL    HW232973   3.316   2.202   2.375  0.4915  1.8882  2.0858
10692SOL     OW32974   5.179   5.986   5.480 -0.1394  0.1849 -0.2672
10692SOL    HW132975   5.119   5.919   5.524 -0.8865  0.2906 -1.0822
10692SOL    HW232976   5.157   6.078   5.512  0.7838  0.0712  0.7382
10693SOL     OW32977   4.138   2.290   4.140 -0.3448  0.4243 -0.3890
10693SOL    HW132978   4.234   2.306   4.115 -0.3464  0.5087 -0.3414
10693SOL    HW232979   4.101   2.216   4.084  0.5343 -1.4792  1.3700
10694SOL     OW32980   2.959   6.563   3.276  0.3800  0.7638 -0.3170
10694SOL    HW132981   3.010   6.490   3.320  0.0036  0.4902 -0.3322
10694SOL    HW232982   2.892   6.600   3.341  0.6318  1.1625 -0.2769
10695SOL     OW32983   5.071   3.915   6.667 -0.5788 -0.2566  0.1911
10695SOL    HW132984   5.081   4.005   6.708 -0.8670 -0.1691  0.0737
10695SOL    HW232985   5.138   3.852   6.706 -1.7907 -0.5644  1.9239
10696SOL     OW32986   5.211   0.066   1.779  0.2008  0.1862 -0.3642
10696SOL    HW132987   5.146   0.016   1.721 -0.9681  0.1416  0.9289
10696SOL    HW232988   5.304   0.054   1.743 -0.2988 -1.1934 -1.2748
10697SOL     OW32989   2.828   5.135   2.518 -0.0960 -0.5145  0.3175
10697SOL    HW132990   2.786   5.109   2.605 -0.5451  0.6427  0.4664
10697SOL    HW232991   2.874   5.056   2.478 -2.0094 -1.7300  0.3828
10698SOL     OW32992   4.184   6.829   3.934 -0.2149  0.0438 -0.1334
10698SOL    HW132993   4.159   6.857   4.026 -0.3697 -0.1178 -0.1264
10698SOL    HW232994   4.284   6.833   3.924 -0.1788 -0.1850  0.1228
10699SOL     OW32995   0.787   2.956   3.657  0.6321 -0.0540  0.1203
10699SOL    HW132996   0.751   3.044   3.628 -0.4786 -0.1976  0.9677
10699SOL    HW232997   0.839   2.968   3.742  1.8437  0.0134 -0.6171
10700SOL     OW32998   6.112   2.563   3.182 -0.0367  0.2257 -0.0834
10700SOL    HW132999   6.177   2.599   3.249 -0.3212 -0.9304  0.8492
10700SOL    HW233000   6.056   2.638   3.146  1.2947  1.1259 -0.3530
10701SOL     OW33001   2.266   6.538   0.916  0.5570  0.2276 -0.4968
10701SOL    HW133002   2.352   6.580   0.889  0.7543  0.0810 -0.1005
10701SOL    HW233003   2.215   6.510   0.835  0.7170  0.6474 -0.7394
10702SOL     OW33004   4.146   1.641   6.527  0.0473  0.2953  0.0115
10702SOL    HW133005   4.176   1.579   6.455  0.2061  2.3079 -1.7627
10702SOL    HW233006   4.073   1.598   6.581  0.2701 -1.4522 -1.0183
10703SOL     OW33007   2.612   3.910   5.360  0.6812 -0.0019 -0.3562
10703SOL    HW133008   2.659   3.987   5.403  1.0433 -1.0642  1.2268
10703SOL    HW233009   2.545   3.945   5.294 -0.0166  1.7230  1.1657
10704SOL     OW33010   5.142   4.908   1.841 -0.1616  0.2036 -0.4020
10704SOL    HW133011   5.088   4.832   1.806 -3.9929  2.3722  0.2800
10704SOL    HW233012   5.084   4.969   1.895  2.7347  3.4330 -0.5628
10705SOL     OW33013   0.731   2.793   1.430 -0.4135  0.0336  0.1205
10705SOL    HW133014   0.691   2.800   1.521 -0.4899 -2.0744  0.2898
10705SOL    HW233015   0.677   2.731   1.374  0.0333  0.7522 -1.1661
10706SOL     OW33016   2.429   3.689   0.687  0.0413 -0.0788 -0.1889
10706SOL    HW133017   2.353   3.680   0.751 -0.8626 -0.2959 -1.2571
10706SOL    HW233018   2.459   3.598   0.657 -0.0247  0.0368 -0.6165
10707SOL     OW33019   6.524   2.461   6.260 -0.5947  0.0868 -0.6220
10707SOL    HW133020   6.425   2.447   6.264 -0.3475 -1.5450  1.3012
10707SOL    HW233021   6.543   2.559   6.251 -2.3619  0.4491 -0.8165
10708SOL     OW33022   5.099   2.979   0.568  0.3882  0.7584  0.1486
10708SOL    HW133023   5.025   3.046   0.570  0.9667  1.3907  2.1037
10708SOL    HW233024   5.178   3.017   0.520 -1.1015 -0.6776 -3.9279
10709SOL     OW33025   6.529   0.706   5.563 -0.4390  0.5917  0.0094
10709SOL    HW133026   6.565   0.613   5.574 -0.3679  0.6740  0.4852
10709SOL    HW233027   6.528   0.730   5.465  1.3155  0.7844  0.0050
10710SOL     OW33028   0.145   6.526   2.414  0.2886 -0.6600  0.0993
10710SOL    HW133029   0.192   6.614   2.414  0.6889 -0.8296  2.1936
10710SOL    HW233030   0.057   6.535   2.462 -1.1336 -0.7413 -2.3023
10711SOL     OW33031   1.673   2.997   6.217  0.1593  0.1369 -0.3089
10711SOL    HW133032   1.749   3.001   6.282  0.6923  1.9999 -0.9786
10711SOL    HW233033   1.692   2.927   6.148  1.3832  0.6943 -0.5655
10712SOL     OW33034   3.684   1.733   6.238  0.9162 -0.1346  0.6760
10712SOL    HW133035   3.776   1.697   6.245  1.0451 -0.5768 -2.1516
10712SOL    HW233036   3.683   1.811   6.175 -0.7300 -0.6316  0.0170
10713SOL     OW33037   2.229   0.228   1.525 -0.2909  0.4217 -0.5478
10713SOL    HW133038   2.234   0.154   1.592 -0.4864  0.2481 -0.7243
10713SOL    HW233039   2.223   0.316   1.572 -0.5757  0.2909 -0.3404
10714SOL     OW33040   6.806   4.212   3.727  0.0660  0.4202 -0.6376
10714SOL    HW133041   6.896   4.189   3.691  0.1805  0.2708 -0.2507
10714SOL    HW233042   6.758   4.129   3.754  0.4111  0.6100  0.5885
10715SOL     OW33043   4.546   6.534   3.547 -0.0448 -0.8441  0.1406
10715SOL    HW133044   4.488   6.612   3.572  0.6802  0.0401 -0.8735
10715SOL    HW233045   4.489   6.452   3.539 -0.8002 -0.4693  1.3276
10716SOL     OW33046   6.177   6.223   2.063  0.3995 -0.0768 -0.3279
10716SOL    HW133047   6.261   6.268   2.094 -0.1277 -0.6963  2.2168
10716SOL    HW233048   6.119   6.204   2.141 -1.1723 -1.6379 -1.7917
10717SOL     OW33049   6.374   6.567   1.533  0.1298 -0.1231  0.4709
10717SOL    HW133050   6.365   6.656   1.488 -2.3106 -1.3243 -1.7348
10717SOL    HW233051   6.450   6.517   1.493 -0.0050  0.0723 -0.0422
10718SOL     OW33052   5.805   5.675   3.119 -0.2646 -0.0764  0.4691
10718SOL    HW133053   5.838   5.664   3.213  0.4156  2.0528  0.5444
10718SOL    HW233054   5.711   5.641   3.112  0.4203 -2.2909  1.3311
10719SOL     OW33055   3.270   6.314   2.507  0.0568  0.3294  0.1922
10719SOL    HW133056   3.306   6.250   2.440  0.0657  0.0103  0.5005
10719SOL    HW233057   3.310   6.295   2.597 -2.3777 -1.3712  1.0101
10720SOL     OW33058   6.109   4.565   5.661 -0.0275 -0.6372 -0.5002
10720SOL    HW133059   6.035   4.628   5.683  0.0363 -0.7019 -0.0984
10720SOL    HW233060   6.177   4.566   5.734  1.7552  1.4727 -2.0636
10721SOL     OW33061   4.307   0.075   5.661  0.5114  0.1555  0.1824
10721SOL    HW133062   4.296  -0.022   5.640  2.2273 -0.2066  0.7533
10721SOL    HW233063   4.281   0.092   5.756  1.1222  0.0449  0.3766
10722SOL     OW33064   1.323   5.018   0.795  0.0324 -0.2824  0.0209
10722SOL    HW133065   1.228   5.014   0.766 -0.5370 -1.6360  1.8597
10722SOL    HW233066   1.351   4.929   0.831  1.8426  0.2353  0.0077
10723SOL     OW33067   5.848   5.483   6.886  0.1257 -0.3655 -0.2619
10723SOL    HW133068   5.752   5.507   6.870 -0.2443  0.4313  2.5612
10723SOL    HW233069   5.886   5.544   6.956  2.2182 -1.6990 -0.1505
10724SOL     OW33070   3.225   6.539   5.991 -0.0722  0.0398  0.5216
10724SOL    HW133071   3.295   6.552   6.061 -0.6476 -0.0971  1.1280
10724SOL    HW233072   3.138   6.515   6.034 -1.0320  2.2120 -0.0350
10725SOL     OW33073   6.136   1.696   5.860  0.0213  0.3234 -0.0840
10725SOL    HW133074   6.078   1.719   5.781 -1.0387  1.2251  0.9203
10725SOL    HW233075   6.222   1.748   5.854 -0.0831  0.4480 -0.5962
10726SOL     OW33076   5.226   0.858   2.323  0.5472  0.3863 -0.2106
10726SOL    HW133077   5.136   0.827   2.291  1.5223 -1.1237 -1.6236
10726SOL    HW233078   5.261   0.794   2.391  0.3730  1.2543  0.7341
10727SOL     OW33079   0.024   5.902   5.441  0.2103  0.1167  0.3945
10727SOL    HW133080   0.007   5.998   5.419 -0.0959 -0.1147 -0.4080
10727SOL    HW233081  -0.057   5.863   5.484 -0.2380 -0.1946 -0.7149
10728SOL     OW33082   3.331   0.635   4.376  0.2015  0.3108  0.5864
10728SOL    HW133083   3.313   0.705   4.306  0.4289 -1.1815 -1.0377
10728SOL    HW233084   3.290   0.663   4.462 -2.2237  1.1363 -0.7338
10729SOL     OW33085   5.394   2.776   5.167  0.8518  0.1702  0.6722
10729SOL    HW133086   5.330   2.820   5.230  0.8711 -0.0279  0.8323
10729SOL    HW233087   5.487   2.810   5.185  0.6685  1.1894 -0.2092
10730SOL     OW33088   1.408   0.022   3.689  0.3437 -0.1874 -0.5814
10730SOL    HW133089   1.316   0.038   3.725  0.2166  0.9807 -1.3695
10730SOL    HW233090   1.445   0.108   3.653  1.2058 -0.9326 -1.5144
10731SOL     OW33091   4.455   5.185   6.352 -0.3981 -0.1354 -0.7865
10731SOL    HW133092   4.375   5.245   6.353  1.1386  2.0992  0.9845
10731SOL    HW233093   4.479   5.161   6.446  0.8459 -1.0117 -1.2985
10732SOL     OW33094   5.012   0.166   3.598 -0.1547 -0.1905 -0.1037
10732SOL    HW133095   5.087   0.101   3.608  0.5774  0.3791 -1.6238
10732SOL    HW233096   4.988   0.175   3.502 -0.2722  1.7394  0.0659
10733SOL     OW33097   1.427   2.206   4.323  0.3764  0.5166 -0.1147
10733SOL    HW133098   1.520   2.189   4.355 -0.1974  0.2064  1.5088
10733SOL    HW233099   1.389   2.121   4.286  0.8492  0.7369 -1.1393
10734SOL     OW33100   6.362   0.390   4.574  0.3113 -0.2586 -0.1763
10734SOL    HW133101   6.295   0.442   4.626 -1.3490 -1.5267 -0.9708
10734SOL    HW233102   6.409   0.450   4.509 -0.3764  0.5593  0.0766
10735SOL     OW33103   6.983   1.747   4.018  0.4951  0.2709 -0.2672
10735SOL    HW133104   7.003   1.804   4.097  1.0758 -1.3216  0.8014
10735SOL    HW233105   7.065   1.740   3.960 -0.0523  1.7682 -1.2646
10736SOL     OW33106   3.394   0.263   5.311  0.0739 -0.4710 -0.2439
10736SOL    HW133107   3.470   0.243   5.373  1.1653  0.5060 -1.2152
10736SOL    HW233108   3.378   0.185   5.250  0.4878 -0.5627 -0.2328
10737SOL     OW33109   5.401   0.318   2.562 -0.0421 -0.4406 -0.2083
10737SOL    HW133110   5.339   0.329   2.484  0.9138 -0.5541 -0.9967
10737SOL    HW233111   5.367   0.371   2.639 -1.7375 -1.3949 -0.2523
10738SOL     OW33112   0.499   6.774   3.201 -0.9671  0.0345  0.0910
10738SOL    HW133113   0.489   6.702   3.270  0.7890  0.6022  1.0034
10738SOL    HW233114   0.495   6.863   3.245 -1.2191  0.4444 -0.7535
10739SOL     OW33115   5.990   1.742   2.093 -0.3449  0.1198  0.0517
10739SOL    HW133116   6.090   1.747   2.094 -0.3303 -0.2178  0.3516
10739SOL    HW233117   5.952   1.807   2.159 -0.4115  2.0885 -1.8157
10740SOL     OW33118   1.789   0.849   0.460  0.1383  0.0483  0.3978
10740SOL    HW133119   1.785   0.759   0.501 -0.8118 -1.4530 -2.6496
10740SOL    HW233120   1.882   0.867   0.427  0.1701 -0.1063  0.4054
10741SOL     OW33121   2.689   2.293   3.542 -0.1593 -0.0579  0.0112
10741SOL    HW133122   2.639   2.368   3.499  1.8148  0.7112 -1.0784
10741SOL    HW233123   2.749   2.250   3.475  1.3879 -0.2672  1.4585
10742SOL     OW33124   1.756   0.353   3.505  0.1026  0.3284  0.2827
10742SOL    HW133125   1.855   0.339   3.494  0.1723 -1.5978  2.5542
10742SOL    HW233126   1.716   0.376   3.417  2.5094  0.8159 -0.7714
10743SOL     OW33127   2.203   3.155   0.984 -0.4235 -0.0394  0.0526
10743SOL    HW133128   2.181   3.084   0.916  0.9896 -0.0712 -0.4114
10743SOL    HW233129   2.277   3.122   1.043  1.2649  1.5429 -1.0761
10744SOL     OW33130   0.979   1.277   2.207 -0.5918 -0.6906  0.3021
10744SOL    HW133131   1.044   1.352   2.219 -0.8863 -0.5681  1.2691
10744SOL    HW233132   0.904   1.306   2.148 -0.7312 -0.1966  0.7151
10745SOL     OW33133   3.495   5.551   1.799 -0.1004  0.2475 -0.4308
10745SOL    HW133134   3.425   5.595   1.855  0.7744  1.1430 -0.0012
10745SOL    HW233135   3.501   5.598   1.711 -0.3515 -0.1145 -0.6405
10746SOL     OW33136   3.641   4.885   3.429 -0.0810  0.6107  0.1624
10746SOL    HW133137   3.594   4.912   3.345 -0.7035  0.3104  0.4049
10746SOL    HW233138   3.574   4.849   3.494  0.7084 -1.9311 -0.2995
10747SOL     OW33139   0.277   0.551   4.776  0.0160  0.2385 -0.1389
10747SOL    HW133140   0.284   0.466   4.829  0.1480  0.5911  0.4250
10747SOL    HW233141   0.265   0.628   4.839  0.2476  0.6786 -0.6278
10748SOL     OW33142   4.234   0.579   3.672  0.1651 -0.0115  0.2514
10748SOL    HW133143   4.300   0.559   3.600 -1.3613 -0.0671 -1.2014
10748SOL    HW233144   4.228   0.501   3.735 -0.2384 -1.0299 -0.9996
10749SOL     OW33145   6.069   2.536   2.582  0.6817  0.1538  0.2875
10749SOL    HW133146   5.991   2.519   2.521  1.1463 -1.6096  0.1232
10749SOL    HW233147   6.037   2.540   2.677  0.2048  1.0016  0.0997
10750SOL     OW33148   4.339   1.288   3.688 -0.0013  0.2176 -0.1801
10750SOL    HW133149   4.294   1.328   3.768 -2.2785  0.6185 -1.5800
10750SOL    HW233150   4.395   1.358   3.643 -0.2500  0.5333 -0.0058
10751SOL     OW33151   5.918   6.491   2.593 -0.2218  0.1003 -0.3158
10751SOL    HW133152   5.879   6.556   2.528  1.3586  1.4548  0.0404
10751SOL    HW233153   5.848   6.425   2.619 -2.4940  2.6705  0.6436
10752SOL     OW33154   0.038   3.349   6.956  0.4756 -0.5770 -0.4091
10752SOL    HW133155  -0.016   3.307   7.029  2.0482 -1.4908  0.2730
10752SOL    HW233156  -0.014   3.425   6.915 -0.8121 -0.6600  0.9990
10753SOL     OW33157   6.122   6.951   5.777 -0.3999  0.0236 -0.5814
10753SOL    HW133158   6.041   6.917   5.730 -2.1088  2.3923  0.4850
10753SOL    HW233159   6.153   7.036   5.733  1.4882 -0.7855 -0.9076
10754SOL     OW33160   6.782   5.995   2.408  0.7366  0.1914 -0.5502
10754SOL    HW133161   6.707   5.936   2.437 -0.5791  1.0690 -2.0343
10754SOL    HW233162   6.805   5.976   2.313 -0.0316  2.3056 -1.2125
10755SOL     OW33163   0.262   1.326   4.967 -0.0907  0.7961 -0.2012
10755SOL    HW133164   0.184   1.302   5.025  1.9783 -0.0130  2.4491
10755SOL    HW233165   0.298   1.415   4.994  2.3054 -0.5789  1.5532
10756SOL     OW33166   1.741   0.066   0.422  0.8146  0.2071 -0.2262
10756SOL    HW133167   1.715  -0.024   0.458  1.8516  0.4635  1.2358
10756SOL    HW233168   1.746   0.132   0.497 -1.8367  2.0185 -1.4886
10757SOL     OW33169   0.187   3.724   1.475  0.2784 -0.1810 -0.3645
10757SOL    HW133170   0.226   3.807   1.513 -0.0767  0.3894 -1.2302
10757SOL    HW233171   0.132   3.746   1.394 -1.7752 -0.9496  0.7437
10758SOL     OW33172   0.207   0.955   2.232 -0.2630 -0.8903 -0.3605
10758SOL    HW133173   0.177   0.933   2.325  0.9297 -0.9183  0.0357
10758SOL    HW233174   0.174   0.885   2.168 -2.8082  0.1667 -0.3229
10759SOL     OW33175   3.710   5.724   5.527 -0.6125  0.4022 -0.1058
10759SOL    HW133176   3.634   5.659   5.533  0.3449 -0.5854  2.0318
10759SOL    HW233177   3.796   5.675   5.520 -0.0171  1.4944 -0.7779
10760SOL     OW33178   3.009   4.565   1.615 -0.2033  0.2672 -0.2927
10760SOL    HW133179   2.973   4.658   1.629 -0.6390 -0.0786  0.9271
10760SOL    HW233180   2.971   4.504   1.684  0.8698 -0.6179 -0.4741
10761SOL     OW33181   0.857   1.097   0.120 -0.6290 -0.1427 -0.2761
10761SOL    HW133182   0.911   1.013   0.126 -1.0853 -0.3356  2.6886
10761SOL    HW233183   0.916   1.173   0.092  0.5382 -0.8549  0.1954
10762SOL     OW33184   2.409   4.448   1.774 -0.1894 -0.2119 -0.3646
10762SOL    HW133185   2.488   4.447   1.713 -0.1240  0.2799 -0.2868
10762SOL    HW233186   2.338   4.508   1.736 -1.4605 -2.3489 -1.6000
10763SOL     OW33187   6.494   1.514   1.435 -0.3390 -0.0079  0.4717
10763SOL    HW133188   6.406   1.536   1.476 -0.4749  1.6630 -0.6356
10763SOL    HW233189   6.549   1.462   1.501 -1.7245 -0.1448  1.5745
10764SOL     OW33190   4.483   6.194   5.902 -0.3580 -0.2812 -0.1607
10764SOL    HW133191   4.567   6.230   5.943 -1.3224  0.2840  1.4107
10764SOL    HW233192   4.409   6.201   5.968 -1.0663 -3.3629 -0.5174
10765SOL     OW33193   6.504   2.055   1.837 -0.0548  0.2588 -0.3930
10765SOL    HW133194   6.561   1.973   1.836 -2.2310 -1.4039  1.0117
10765SOL    HW233195   6.424   2.042   1.778 -0.3995  1.4238 -0.2277
10766SOL     OW33196   2.253   5.683   1.039  0.0570 -0.3346  0.1814
10766SOL    HW133197   2.157   5.674   1.014 -0.1864  1.4427  0.3289
10766SOL    HW233198   2.291   5.593   1.058 -1.4105 -1.1259 -0.4610
10767SOL     OW33199   0.303   5.056   6.909 -0.0586 -0.8831  0.2543
10767SOL    HW133200   0.350   5.093   6.989  1.2334  0.9333 -1.2827
10767SOL    HW233201   0.238   5.123   6.874  2.4477  0.2041 -2.6889
10768SOL     OW33202   0.420   0.106   1.204 -0.4309 -0.4931  0.4998
10768SOL    HW133203   0.476   0.027   1.231  1.9264  0.5576 -0.9851
10768SOL    HW233204   0.425   0.176   1.275  1.9188  0.3960 -0.4466
10769SOL     OW33205   3.950   3.622   3.261  0.1589  0.0542 -0.0525
10769SOL    HW133206   3.978   3.529   3.236 -0.3940 -0.1642  0.1109
10769SOL    HW233207   3.985   3.643   3.352 -0.1531 -0.1993  0.1314
10770SOL     OW33208   4.517   1.208   6.438  0.1991  0.3452  0.1947
10770SOL    HW133209   4.543   1.236   6.346  0.1877  1.8636  0.6373
10770SOL    HW233210   4.418   1.192   6.441  0.3166 -0.5449 -0.2466
10771SOL     OW33211   5.620   4.582   5.493  0.3619 -0.4516  0.5005
10771SOL    HW133212   5.604   4.536   5.581 -1.8828 -0.1888  0.2903
10771SOL    HW233213   5.549   4.555   5.428  2.0904 -0.7931 -1.3426
10772SOL     OW33214   4.347   1.672   4.042 -0.0199  0.0740 -0.4768
10772SOL    HW133215   4.348   1.738   4.117  1.4035  1.1460 -1.3744
10772SOL    HW233216   4.420   1.694   3.978 -0.4535 -1.5213 -1.5807
10773SOL     OW33217   0.881   2.977   1.312  0.6009  0.3565 -0.2723
10773SOL    HW133218   0.971   2.941   1.289  0.6839  1.0105 -1.0072
10773SOL    HW233219   0.825   2.904   1.351  0.7087 -0.6339 -1.8688
10774SOL     OW33220   4.733   2.284   2.018  0.1083 -0.0276  0.4206
10774SOL    HW133221   4.676   2.243   2.090  1.1026 -0.0860  1.1952
10774SOL    HW233222   4.674   2.330   1.952 -0.9031 -0.9830  0.6211
10775SOL     OW33223   3.864   4.141   0.282 -0.3447  0.2272  0.3356
10775SOL    HW133224   3.938   4.075   0.301 -0.0727  0.5631  0.4593
10775SOL    HW233225   3.879   4.223   0.336 -1.7920 -0.3869  1.7619
10776SOL     OW33226   0.237   5.438   4.378  0.1833 -0.0855 -0.0236
10776SOL    HW133227   0.244   5.441   4.278  0.9097  2.5063  0.0252
10776SOL    HW233228   0.327   5.418   4.417 -0.0709 -0.9520  0.1341
10777SOL     OW33229   0.750   1.183   3.189 -0.5636 -0.1717 -0.3725
10777SOL    HW133230   0.712   1.276   3.186 -0.1606  0.2628  3.4674
10777SOL    HW233231   0.850   1.187   3.191 -0.5331 -0.7105 -0.6965
10778SOL     OW33232   4.694   6.511   4.035 -0.4015  0.5385  0.0122
10778SOL    HW133233   4.655   6.427   4.073  1.0442 -0.1421  0.0554
10778SOL    HW233234   4.627   6.555   3.976 -1.7804  0.2467  1.2846
10779SOL     OW33235   6.294   2.110   4.830 -0.1564  0.2608 -0.2434
10779SOL    HW133236   6.347   2.075   4.752  2.1648  0.9887  0.8870
10779SOL    HW233237   6.209   2.060   4.838  1.1519 -2.2940 -1.1148
10780SOL     OW33238   1.256   5.561   5.010  0.0609  0.4825 -0.4482
10780SOL    HW133239   1.304   5.581   4.925 -0.1175  3.1653 -0.0151
10780SOL    HW233240   1.322   5.544   5.083  0.3910  2.2268 -0.2851
10781SOL     OW33241   6.821   2.859   0.792 -0.0701  0.0406  0.1528
10781SOL    HW133242   6.848   2.769   0.828 -0.6024 -0.2955 -0.2590
10781SOL    HW233243   6.888   2.889   0.725 -0.1223 -0.2637 -0.0383
10782SOL     OW33244   2.014   4.632   4.221 -0.5043 -0.1863  0.4787
10782SOL    HW133245   2.038   4.634   4.124 -0.7250  0.3559  0.4319
10782SOL    HW233246   1.915   4.627   4.231 -0.4652 -0.5823  0.6757
10783SOL     OW33247   2.080   3.788   5.020 -0.1695 -0.2069  0.1918
10783SOL    HW133248   2.171   3.828   5.029 -0.1855  0.3428 -1.5730
10783SOL    HW233249   2.054   3.743   5.105  1.0308  1.1232  1.3176
10784SOL     OW33250   5.153   4.819   4.222  0.0682  0.7812  0.1346
10784SOL    HW133251   5.135   4.913   4.194 -0.0073  0.6601 -0.2315
10784SOL    HW233252   5.113   4.756   4.155  0.9930  0.4952 -0.1592
10785SOL     OW33253   1.102   6.168   1.211 -0.3476 -0.2500 -0.1342
10785SOL    HW133254   1.045   6.244   1.245  2.5875  0.6618  3.3672
10785SOL    HW233255   1.186   6.205   1.172 -0.1801 -1.6723 -1.1766
10786SOL     OW33256   4.684   1.365   2.053  0.5269  0.2587 -0.3321
10786SOL    HW133257   4.683   1.457   2.092  1.3916  0.1005  0.0893
10786SOL    HW233258   4.774   1.346   2.014  1.0394 -1.1680  1.4498
10787SOL     OW33259   1.311   1.734   4.094 -0.0520 -0.0823  0.1690
10787SOL    HW133260   1.329   1.676   4.014  0.3004  0.3816 -0.0924
10787SOL    HW233261   1.396   1.744   4.147  0.1416  1.0122 -0.3315
10788SOL     OW33262   0.703   2.363   0.571  0.2478 -0.2102 -0.2493
10788SOL    HW133263   0.749   2.447   0.599 -0.7380 -0.5482  2.6881
10788SOL    HW233264   0.657   2.322   0.649 -2.3122 -1.6201 -2.3181
10789SOL     OW33265   0.511   1.673   2.222 -0.5870  0.0861  0.0660
10789SOL    HW133266   0.480   1.768   2.233 -0.9572 -0.1036  0.7103
10789SOL    HW233267   0.530   1.634   2.312  1.7685  0.2598 -0.2980
10790SOL     OW33268   6.733   4.740   2.964  0.4436 -0.1100 -0.0429
10790SOL    HW133269   6.823   4.711   2.930  0.4713  1.0327 -0.9917
10790SOL    HW233270   6.683   4.786   2.890 -0.4363  0.3553  0.8301
10791SOL     OW33271   2.447   2.080   4.853 -0.3622  0.1778 -0.0783
10791SOL    HW133272   2.516   2.151   4.870  0.4667 -0.0848 -2.0602
10791SOL    HW233273   2.364   2.123   4.817  0.3051  0.1746 -1.7363
10792SOL     OW33274   2.998   6.308   0.969 -0.1356  0.5126  0.2241
10792SOL    HW133275   2.971   6.219   0.933  1.4074  0.2579 -0.3905
10792SOL    HW233276   3.097   6.309   0.985 -0.3771  1.5151  1.9842
10793SOL     OW33277   4.777   1.238   3.881 -0.1077 -0.2114 -0.1328
10793SOL    HW133278   4.754   1.168   3.813 -0.2992 -0.5899  0.3211
10793SOL    HW233279   4.795   1.195   3.969  2.1276  0.0695 -0.3923
10794SOL     OW33280   4.189   3.557   0.125 -0.1522  0.8541  0.2049
10794SOL    HW133281   4.193   3.523   0.219 -0.3783 -0.2153 -0.1502
10794SOL    HW233282   4.280   3.587   0.096  0.3518 -0.6473  0.1346
10795SOL     OW33283   4.325   1.243   3.340  0.0273 -0.3374 -0.0149
10795SOL    HW133284   4.283   1.158   3.374  1.3672 -1.1093 -0.2235
10795SOL    HW233285   4.309   1.316   3.406 -2.6555 -0.2573 -0.6162
10796SOL     OW33286   1.463   3.615   6.217  0.6709 -0.1547 -0.4098
10796SOL    HW133287   1.487   3.712   6.216  1.9452 -0.4387 -2.0101
10796SOL    HW233288   1.494   3.574   6.302 -0.7155  1.0020  0.7041
10797SOL     OW33289   3.632   4.281   1.145  0.1870 -0.0942  0.6794
10797SOL    HW133290   3.592   4.260   1.234  0.9591  0.3572  1.1477
10797SOL    HW233291   3.583   4.232   1.074 -0.8466  0.0280  1.2850
10798SOL     OW33292   2.243   6.179   0.774 -0.3459 -0.2840 -0.3150
10798SOL    HW133293   2.156   6.150   0.814 -0.0883  0.2564  0.6676
10798SOL    HW233294   2.226   6.239   0.696 -0.8841  1.4273  1.0653
10799SOL     OW33295   1.603   0.151   3.191  0.9405  0.1158 -0.0737
10799SOL    HW133296   1.649   0.239   3.205  1.3260 -0.1630  0.4157
10799SOL    HW233297   1.535   0.138   3.262  1.8612 -0.6200  0.6884
10800SOL     OW33298   1.208   7.013   5.763  0.3747 -0.1466  0.3526
10800SOL    HW133299   1.244   6.972   5.847 -0.0754  0.4786  0.8555
10800SOL    HW233300   1.110   6.996   5.757  0.8152 -2.5059 -1.3959
10801SOL     OW33301   2.824   0.105   1.161  0.3267 -0.1143 -0.3474
10801SOL    HW133302   2.809   0.084   1.064  0.1838 -0.3213 -0.2812
10801SOL    HW233303   2.743   0.079   1.213  0.2319  0.4053 -0.2325
10802SOL     OW33304   1.645   4.102   1.919 -0.5371 -0.0298 -0.4603
10802SOL    HW133305   1.694   4.055   1.845  0.0478  0.0630 -0.1392
10802SOL    HW233306   1.708   4.161   1.968 -0.8655 -0.2694  0.2650
10803SOL     OW33307   1.692   4.704   3.895  0.0220 -0.0525 -0.0376
10803SOL    HW133308   1.762   4.770   3.921  0.0065 -0.2492  0.4966
10803SOL    HW233309   1.733   4.613   3.886  0.1546  0.1153 -1.3101
10804SOL     OW33310   4.703   5.033   5.474 -0.5987  0.6636 -0.4916
10804SOL    HW133311   4.604   5.015   5.477 -0.6196  0.7764  2.4250
10804SOL    HW233312   4.747   4.989   5.553  1.6167  1.1239 -1.4021
10805SOL     OW33313   5.654   5.584   5.488  0.3528  0.3394 -0.4485
10805SOL    HW133314   5.626   5.508   5.546  1.2666 -0.7397 -1.3448
10805SOL    HW233315   5.732   5.631   5.530 -0.8813  1.4919  0.6238
10806SOL     OW33316   1.346   3.732   6.770 -0.5050 -0.7229  0.2714
10806SOL    HW133317   1.420   3.761   6.709  0.5503 -1.0274  1.3753
10806SOL    HW233318   1.289   3.664   6.723  0.6505 -1.4152 -0.1710
10807SOL     OW33319   4.677   1.704   5.032  0.4596  0.2988  0.4585
10807SOL    HW133320   4.715   1.759   5.107  2.4050  0.7125 -0.7400
10807SOL    HW233321   4.717   1.613   5.034 -0.2334 -0.0122  0.4778
10808SOL     OW33322   6.968   2.529   2.343  0.1596 -0.4134 -0.4740
10808SOL    HW133323   6.912   2.609   2.319 -0.4070 -0.4062  0.7424
10808SOL    HW233324   7.057   2.559   2.377 -0.3126 -0.2196  0.6664
10809SOL     OW33325   0.139   2.486   3.046 -0.5176  0.1654  0.5315
10809SOL    HW133326   0.227   2.439   3.053 -0.5041  0.0296 -0.4153
10809SOL    HW233327   0.109   2.486   2.950 -2.0202 -0.6469  0.9778
10810SOL     OW33328   2.372   0.652   6.371  0.4386 -0.1207  0.3134
10810SOL    HW133329   2.303   0.722   6.389  0.3768  0.4280 -1.7628
10810SOL    HW233330   2.397   0.654   6.274  3.0133 -0.6586  0.9031
10811SOL     OW33331   6.760   4.365   5.862 -0.1090  0.1175  0.1505
10811SOL    HW133332   6.838   4.339   5.806  0.9167  0.6181  1.2957
10811SOL    HW233333   6.681   4.382   5.804  0.9305  0.6713 -1.1369
10812SOL     OW33334   6.559   1.952   2.770 -0.0790  0.3583 -0.2417
10812SOL    HW133335   6.618   2.023   2.809  1.1842 -0.4925 -0.5404
10812SOL    HW233336   6.522   1.984   2.682  1.6696  0.1337 -1.1102
10813SOL     OW33337   1.321   6.254   1.085 -0.0842  0.0673 -0.4336
10813SOL    HW133338   1.357   6.323   1.148 -0.6571  0.0856 -0.1199
10813SOL    HW233339   1.261   6.298   1.018 -1.1766 -0.2490  0.3305
10814SOL     OW33340   2.833   6.717   4.290  0.0490 -0.2881  0.0966
10814SOL    HW133341   2.825   6.741   4.387 -0.4969  0.5142 -0.1356
10814SOL    HW233342   2.929   6.719   4.263  0.2294 -0.8012  0.6863
10815SOL     OW33343   6.562   2.763   6.268 -0.2312 -0.0101 -0.2986
10815SOL    HW133344   6.474   2.810   6.276  0.1146  0.3860  2.0084
10815SOL    HW233345   6.613   2.776   6.353  0.6471 -3.0382 -0.2698
10816SOL     OW33346   1.830   1.902   1.312 -0.3151 -0.2534  0.8000
10816SOL    HW133347   1.905   1.875   1.251 -0.2743 -1.7096  1.4426
10816SOL    HW233348   1.854   1.987   1.358  0.4982 -0.1541  0.2174
10817SOL     OW33349   3.748   1.580   2.258 -0.1681 -0.1667  0.0221
10817SOL    HW133350   3.673   1.645   2.270 -1.3676 -0.9867 -2.3270
10817SOL    HW233351   3.806   1.610   2.182 -0.2722 -1.4123 -0.5725
10818SOL     OW33352   3.366   2.963   5.626 -0.2872 -0.0304  0.3629
10818SOL    HW133353   3.424   2.993   5.550 -1.4537 -1.1542 -1.0283
10818SOL    HW233354   3.304   2.891   5.594 -0.3607 -1.0017  2.5637
10819SOL     OW33355   0.985   3.962   6.515 -0.0234  0.1875  0.1885
10819SOL    HW133356   0.992   4.024   6.437 -0.5751  0.1955  0.1418
10819SOL    HW233357   0.910   3.992   6.575  1.7619  1.5144  1.9072
10820SOL     OW33358   1.285   5.669   4.727  0.7296 -0.1523  0.4019
10820SOL    HW133359   1.378   5.678   4.693  0.9741  1.9544  1.4287
10820SOL    HW233360   1.222   5.652   4.650  1.9167 -1.5092 -0.3018
10821SOL     OW33361   6.642   1.484   6.027 -0.3367  0.3810  0.3546
10821SOL    HW133362   6.718   1.544   6.053  1.5026 -1.0166 -1.5046
10821SOL    HW233363   6.641   1.403   6.085 -0.1362  0.2041  0.1134
10822SOL     OW33364   0.720   4.382   5.764 -0.1360 -0.1753 -0.3642
10822SOL    HW133365   0.807   4.430   5.758 -0.1557 -0.0834  0.1168
10822SOL    HW233366   0.652   4.440   5.809  0.0953 -1.0078  1.0965
10823SOL     OW33367   2.586   2.728   6.779 -0.0467 -0.0686 -1.1913
10823SOL    HW133368   2.529   2.801   6.816  1.4093  1.4535 -1.8642
10823SOL    HW233369   2.545   2.639   6.803 -1.0320  0.8934  0.9744
10824SOL     OW33370   4.173   1.155   6.442  0.2046  0.0942  0.0114
10824SOL    HW133371   4.107   1.193   6.376  2.2039  0.8998 -1.6351
10824SOL    HW233372   4.197   1.062   6.414  1.2851  0.5469 -0.6210
10825SOL     OW33373   6.447   0.549   2.474 -0.2273  0.1594 -0.1724
10825SOL    HW133374   6.431   0.468   2.531 -0.1487  0.7439  0.6907
10825SOL    HW233375   6.372   0.614   2.487  0.6688  1.0705  0.6495
10826SOL     OW33376   0.231   2.626   2.370  0.4164 -0.3054  0.0179
10826SOL    HW133377   0.322   2.588   2.358  0.4643  0.0781 -0.8907
10826SOL    HW233378   0.234   2.725   2.365 -0.0050 -0.2655  0.3691
10827SOL     OW33379   5.774   5.576   5.120 -0.6439 -0.0119 -0.4199
10827SOL    HW133380   5.777   5.584   5.021 -2.5008 -0.3348 -0.5403
10827SOL    HW233381   5.721   5.495   5.145 -2.2718  1.3681  0.8316
10828SOL     OW33382   4.506   4.091   5.505  0.3786 -0.3503 -0.3322
10828SOL    HW133383   4.567   4.170   5.513  0.4279 -0.5190  1.0381
10828SOL    HW233384   4.516   4.051   5.413  0.3019  1.2505 -1.0729
10829SOL     OW33385   1.514   3.395   0.822  0.4397  0.0455  0.8593
10829SOL    HW133386   1.609   3.376   0.795  0.1524 -0.8710  0.4439
10829SOL    HW233387   1.489   3.336   0.899  0.4817  0.9216  1.5571
10830SOL     OW33388   6.245   1.357   4.250  0.3760  0.1741  0.1356
10830SOL    HW133389   6.343   1.340   4.247  0.2629 -0.3666 -0.5873
10830SOL    HW233390   6.211   1.380   4.159 -0.1855  0.2826  0.3617
10831SOL     OW33391   6.536   3.252   3.449 -0.9048 -0.4349  0.0542
10831SOL    HW133392   6.475   3.322   3.485 -0.2180  0.8076 -1.0859
10831SOL    HW233393   6.545   3.263   3.350  2.0581  0.2145  0.2874
10832SOL     OW33394   2.259   1.439   3.341  0.2645 -0.4770  1.0919
10832SOL    HW133395   2.292   1.533   3.335 -0.1513 -0.3446  0.8259
10832SOL    HW233396   2.159   1.439   3.349  0.3048 -0.8774  1.6684
10833SOL     OW33397   4.293   0.536   5.758 -0.7089 -0.6763  0.2672
10833SOL    HW133398   4.251   0.589   5.684  1.1452  0.0453 -0.3253
10833SOL    HW233399   4.317   0.445   5.725  1.0599 -0.0124 -0.3920
10834SOL     OW33400   0.067   3.650   3.359 -0.3116  0.4715 -0.3458
10834SOL    HW133401   0.071   3.651   3.459  0.8976  1.0927 -0.3732
10834SOL    HW233402   0.019   3.731   3.327 -4.1082 -1.5392 -0.2425
10835SOL     OW33403   1.071   0.249   6.897  0.4815 -0.1994 -0.6691
10835SOL    HW133404   1.050   0.344   6.921 -0.1448 -0.6426  0.6148
10835SOL    HW233405   1.125   0.207   6.969 -1.1822 -1.4838 -0.1197
10836SOL     OW33406   6.037   2.116   0.113 -0.4436  0.4624  0.0581
10836SOL    HW133407   6.125   2.098   0.155 -0.2437 -0.6812 -0.7910
10836SOL    HW233408   5.964   2.098   0.179 -0.1071 -0.4351  0.2003
10837SOL     OW33409   2.373   5.093   1.442  0.2275  0.1404  0.1436
10837SOL    HW133410   2.287   5.054   1.411  1.5494 -2.2391 -0.7991
10837SOL    HW233411   2.403   5.164   1.378  1.0591 -2.1013 -2.1186
10838SOL     OW33412   5.883   6.605   3.173 -0.3086 -0.1203 -0.3174
10838SOL    HW133413   5.960   6.594   3.109  0.9827 -1.7931  1.4240
10838SOL    HW233414   5.835   6.690   3.152  2.2793  1.2382 -1.1956
10839SOL     OW33415   3.224   1.277   0.351 -0.3735 -0.0298  0.5051
10839SOL    HW133416   3.236   1.312   0.258 -0.8806  0.7962  0.7386
10839SOL    HW233417   3.136   1.307   0.386 -0.4110 -0.7825  1.0662
10840SOL     OW33418   0.679   1.021   2.813 -0.3632 -0.1813  0.0889
10840SOL    HW133419   0.677   1.119   2.793 -0.2906 -0.3366 -0.7083
10840SOL    HW233420   0.663   0.970   2.729 -2.5862 -0.8401  0.8639
10841SOL     OW33421   4.208   4.064   6.420 -0.3529  0.2817 -0.1626
10841SOL    HW133422   4.307   4.071   6.431 -0.0028 -1.7939 -1.4267
10841SOL    HW233423   4.164   4.144   6.462  1.8281  1.2765  0.3857
10842SOL     OW33424   7.009   1.485   1.156  0.0460  0.2160 -0.2188
10842SOL    HW133425   7.002   1.456   1.061  2.8867  0.1868 -0.5013
10842SOL    HW233426   6.944   1.433   1.211 -1.0219 -0.4192 -1.9903
10843SOL     OW33427   0.028   0.330   1.193 -0.3709 -0.3427 -0.2328
10843SOL    HW133428   0.088   0.404   1.224 -0.4632 -0.4695  0.2483
10843SOL    HW233429  -0.037   0.366   1.126 -1.8531  0.5249  1.5790
10844SOL     OW33430   5.699   5.456   2.699 -0.2466  0.1483 -0.1151
10844SOL    HW133431   5.724   5.537   2.754  1.2981 -0.6896  0.4936
10844SOL    HW233432   5.602   5.458   2.679 -0.3277  1.9190  0.3001
10845SOL     OW33433   1.316   2.853   5.705 -0.8451 -0.1313  0.0896
10845SOL    HW133434   1.313   2.911   5.786 -0.8145  0.8428 -0.5900
10845SOL    HW233435   1.240   2.877   5.645  0.2783  0.5852 -1.1029
10846SOL     OW33436   3.349   1.557   2.299  0.4750  0.2066  0.0531
10846SOL    HW133437   3.397   1.548   2.211  1.6885  1.1416  0.5956
10846SOL    HW233438   3.252   1.577   2.282  0.4796 -0.6043 -1.0602
10847SOL     OW33439   5.670   1.035   4.267 -0.5875 -0.2172 -0.1329
10847SOL    HW133440   5.687   1.001   4.175 -1.7902  0.1843 -0.5120
10847SOL    HW233441   5.757   1.060   4.310 -0.1336  1.2697 -1.8012
10848SOL     OW33442   1.510   0.853   5.283 -0.1276  0.0046  0.3822
10848SOL    HW133443   1.522   0.784   5.212 -0.1768  0.2125  0.1728
10848SOL    HW233444   1.492   0.942   5.241  0.4106  0.2400  0.6349
10849SOL     OW33445   6.460   5.433   5.610  0.4474 -0.1970  0.4964
10849SOL    HW133446   6.473   5.344   5.654  0.6929 -0.4928 -0.1659
10849SOL    HW233447   6.439   5.420   5.513 -2.9785  0.3062  1.0505
10850SOL     OW33448   6.984   2.980   3.824  0.1998  0.7844  0.5228
10850SOL    HW133449   7.066   2.927   3.843 -0.3573  0.3470  1.8618
10850SOL    HW233450   6.951   3.022   3.909 -1.9984 -0.5604  0.4199
10851SOL     OW33451   5.418   1.739   1.661 -0.2793 -0.2211 -0.1499
10851SOL    HW133452   5.328   1.703   1.636 -0.3520  0.5826 -1.1068
10851SOL    HW233453   5.489   1.691   1.609 -0.2960  0.3125 -0.6715
10852SOL     OW33454   6.173   1.995   4.452  0.2196 -0.5960 -0.0311
10852SOL    HW133455   6.133   2.056   4.383 -0.4825 -0.6151  0.3475
10852SOL    HW233456   6.104   1.928   4.481  0.0503  0.2615  1.6812
10853SOL     OW33457   6.772   6.227   6.604  0.5972 -0.2940 -0.2704
10853SOL    HW133458   6.846   6.283   6.641  1.7235 -1.5587 -0.5127
10853SOL    HW233459   6.783   6.133   6.637 -1.4195 -0.3360  0.3913
10854SOL     OW33460   5.998   5.907   0.957  0.6398  0.8550  0.2098
10854SOL    HW133461   6.037   5.997   0.935 -0.3087  0.7887 -2.0338
10854SOL    HW233462   5.903   5.904   0.926  0.4220 -0.6919  0.9464
10855SOL     OW33463   0.132   3.956   5.263  0.7700 -0.0939 -0.1945
10855SOL    HW133464   0.084   3.874   5.233  0.9382 -1.0730  2.0623
10855SOL    HW233465   0.067   4.031   5.274  0.1170 -0.7559  0.5415
10856SOL     OW33466   3.553   6.791   6.869 -0.5225 -0.0330 -0.0920
10856SOL    HW133467   3.474   6.751   6.822 -0.4445  0.2739 -0.4952
10856SOL    HW233468   3.542   6.782   6.968 -0.3629 -1.3187 -0.1745
10857SOL     OW33469   6.095   6.560   6.318 -0.4453  0.3290 -0.9345
10857SOL    HW133470   6.087   6.490   6.389  1.7117 -0.9746 -1.8892
10857SOL    HW233471   6.013   6.618   6.319 -1.0409 -0.4415  1.7264
10858SOL     OW33472   0.181   1.865   0.747  0.3975  0.2788  0.1620
10858SOL    HW133473   0.165   1.898   0.840 -2.5079  1.5484 -0.6472
10858SOL    HW233474   0.110   1.799   0.723 -0.0425  1.3869 -1.7390
10859SOL     OW33475   1.042   4.241   0.959 -0.1886 -1.0255 -0.5999
10859SOL    HW133476   1.062   4.144   0.946  1.7294 -1.1381  2.3029
10859SOL    HW233477   1.014   4.256   1.054 -0.0445  1.3207 -0.8824
10860SOL     OW33478   3.924   0.073   2.956 -0.2945  0.4404  0.2054
10860SOL    HW133479   4.012   0.044   2.991  0.3914  1.1332 -0.8891
10860SOL    HW233480   3.871   0.116   3.029  0.4384  0.3821  0.7711
10861SOL     OW33481   2.895   4.214   6.278  0.5095  0.4404  0.1140
10861SOL    HW133482   2.905   4.260   6.190  0.5096  0.5648  0.1783
10861SOL    HW233483   2.983   4.180   6.310 -0.0261 -3.6496 -2.0869
10862SOL     OW33484   2.085   5.484   5.725  0.3876 -0.1448 -0.6773
10862SOL    HW133485   1.987   5.496   5.740  0.4128 -0.7574  0.0098
10862SOL    HW233486   2.117   5.552   5.659 -0.1793  1.0812  0.2881
10863SOL     OW33487   6.543   0.019   5.931 -0.3853 -0.4078 -0.4056
10863SOL    HW133488   6.604   0.005   5.853  0.4589  1.4353 -0.1493
10863SOL    HW233489   6.483  -0.060   5.942  1.9876 -2.3484 -0.6391
10864SOL     OW33490   3.385   3.698   2.110 -0.3284  0.7375 -0.6587
10864SOL    HW133491   3.333   3.774   2.071  2.0855  1.2455 -3.1946
10864SOL    HW233492   3.450   3.733   2.177 -0.7746  0.5547 -0.1160
10865SOL     OW33493   4.360   0.802   2.549  0.0731 -0.2176 -0.1032
10865SOL    HW133494   4.382   0.704   2.545 -1.4556 -0.7389  2.3253
10865SOL    HW233495   4.297   0.819   2.625  1.0960  2.8359  0.1764
10866SOL     OW33496   0.341   3.454   4.698  0.5806 -0.0649 -0.3501
10866SOL    HW133497   0.297   3.385   4.640  2.0769 -2.8779  1.6395
10866SOL    HW233498   0.438   3.458   4.677  1.3873 -1.9853  2.5788
10867SOL     OW33499   4.882   4.867   6.024  0.2181  0.1925  0.3373
10867SOL    HW133500   4.793   4.833   6.057 -0.7239  0.5721 -1.6448
10867SOL    HW233501   4.940   4.789   6.000 -0.7715 -0.1024 -1.2581
10868SOL     OW33502   6.673   0.054   5.069  0.3373  0.0777 -0.1527
10868SOL    HW133503   6.642   0.020   4.980 -0.0540  0.8719 -0.3241
10868SOL    HW233504   6.629   0.001   5.142  2.4511 -2.1895 -0.3962
10869NA      NA33505   0.540   1.930   0.518 -0.0410  0.0034 -0.1159
10870NA      NA33506   4.056   4.880   4.169 -0.1323 -0.3299 -0.0405
10871NA      NA33507   2.048   4.183   4.364 -0.0266  0.4007 -0.0524
10872NA      NA33508   5.321   3.838   3.433  0.5048  0.3888  0.0174
10873NA      NA33509   4.517   2.393   5.338  0.1238 -0.2639 -0.4208
10874NA      NA33510   4.201   3.328   6.064  0.2977 -0.6651 -0.4769
10875NA      NA33511   1.994   4.821   0.443  0.2969 -0.4863  0.3576
10876NA      NA33512   3.926   5.129   2.045 -0.3249  0.0912 -0.5587
10877NA      NA33513   5.426   3.587   0.916  0.3655 -0.0410 -0.1817
10878NA      NA33514   4.350   1.211   6.849 -0.4428  0.0107 -0.3027
10879NA      NA33515   4.259   5.656   1.964 -0.2023  0.4286 -0.2969
10880NA      NA33516   2.276   6.666   5.046 -0.2667  0.0275  0.5913
10881NA      NA33517   2.763   5.767   3.598 -0.0972  0.5357  0.5158
10882NA      NA33518   5.382   5.059   5.560  0.2150  0.1959  0.4179
   7.01723   7.01723   7.01723
