CNT in water
33518
    1C        C    1   2.849   2.775   4.746 -0.0184 -0.0014 -0.1281
    1C        C    2   2.901   2.723   4.866 -0.5175 -0.4450 -0.0971
    1C        C    3   2.845   2.778   4.983  0.3568  0.6249 -0.1654
    1C        C    4   2.847   2.773   4.259 -0.2762 -0.2871  0.1215
    1C        C    5   2.907   2.731   4.380 -0.2584 -0.1388  0.1633
    1C        C    6   2.852   2.774   4.503 -0.2542  0.3889 -0.0168
    1C        C    7   3.015   2.641   4.627 -0.3500 -0.2471  0.0300
    1C        C    8   2.900   2.723   4.625 -0.1448  0.0423 -0.2027
    1C        C    9   3.078   2.603   4.748 -0.3961 -0.1346  0.0913
    1C        C   10   3.014   2.639   4.868 -0.3475 -0.2147  0.1429
    1C        C   11   3.184   2.498   4.980  0.2561  0.1520  0.2111
    1C        C   12   3.065   2.570   4.980  0.1984  0.0566  0.0662
    1C        C   13   2.854   2.770   3.771 -0.0237 -0.1420  0.1962
    1C        C   14   2.904   2.721   3.893 -0.2392 -0.5250  0.1315
    1C        C   15   2.845   2.764   4.013  0.1802 -0.2103  0.2250
    1C        C   16   3.017   2.646   4.137 -0.4220 -0.9124  0.1542
    1C        C   17   2.898   2.722   4.137 -0.1887 -0.5467  0.2667
    1C        C   18   3.081   2.616   4.259 -0.3413 -1.1176  0.0588
    1C        C   19   3.019   2.644   4.383 -0.1128  0.0385 -0.0820
    1C        C   20   3.208   2.550   4.504 -0.2601  0.1494 -0.0066
    1C        C   21   3.078   2.607   4.505 -0.4638 -0.3083 -0.0143
    1C        C   22   3.277   2.527   4.625 -0.4555 -0.3251  0.0192
    1C        C   23   3.208   2.547   4.747 -0.6370 -0.7036 -0.0177
    1C        C   24   3.413   2.485   4.868  0.0448  0.2357 -0.0834
    1C        C   25   3.271   2.503   4.866  0.0810  0.5503  0.0920
    1C        C   26   3.491   2.477   4.984 -0.0876  0.0804 -0.0048
    1C        C   27   2.853   2.772   3.280 -0.5220 -1.0402  0.1296
    1C        C   28   2.908   2.724   3.401 -0.5367 -1.0038  0.1490
    1C        C   29   2.857   2.770   3.524 -0.3372 -0.6171  0.0821
    1C        C   30   3.019   2.638   3.650 -0.4434 -0.5751  0.0445
    1C        C   31   2.907   2.724   3.648 -0.1296 -0.1678  0.1644
    1C        C   32   3.076   2.599   3.773 -0.6911 -0.7520  0.1000
    1C        C   33   3.018   2.638   3.896 -0.1074 -0.3340  0.2414
    1C        C   34   3.211   2.550   4.016 -0.3798 -1.0025  0.1476
    1C        C   35   3.084   2.613   4.018  0.0829 -0.0540  0.1926
    1C        C   36   3.280   2.534   4.138 -0.3368 -0.6451  0.1712
    1C        C   37   3.211   2.562   4.259  0.0696 -0.1535  0.2907
    1C        C   38   3.412   2.502   4.381 -0.1510 -0.8223 -0.0824
    1C        C   39   3.274   2.530   4.381 -0.1938 -1.0224  0.2092
    1C        C   40   3.486   2.499   4.502 -0.2027 -0.3185 -0.0337
    1C        C   41   3.417   2.508   4.625 -0.4705 -0.4500 -0.1711
    1C        C   42   3.627   2.481   4.745 -0.2369  0.1506  0.1241
    1C        C   43   3.485   2.482   4.746 -0.2429 -0.2085 -0.2459
    1C        C   44   3.704   2.480   4.864 -0.0162 -0.5629 -0.0215
    1C        C   45   3.630   2.475   4.982 -0.0772  0.6717 -0.0050
    1C        C   46   2.841   2.753   2.794  0.5622 -0.1073  0.2585
    1C        C   47   2.894   2.708   2.917 -0.0764 -0.5071  0.3939
    1C        C   48   2.841   2.758   3.037 -0.6702 -0.3143  0.0559
    1C        C   49   3.012   2.629   3.159 -0.4429 -0.4825 -0.0446
    1C        C   50   2.899   2.715   3.159 -0.4057 -0.4356 -0.1137
    1C        C   51   3.074   2.594   3.281 -0.4349 -0.4335 -0.0373
    1C        C   52   3.020   2.637   3.404 -0.6223 -1.1120  0.1189
    1C        C   53   3.207   2.543   3.530 -0.0295 -0.0486 -0.3688
    1C        C   54   3.077   2.600   3.527 -0.2513 -0.5308  0.1257
    1C        C   55   3.274   2.522   3.652 -0.6293 -0.3781 -0.0943
    1C        C   56   3.205   2.542   3.774 -0.6431 -0.6384 -0.0601
    1C        C   57   3.416   2.500   3.890 -0.5411 -0.1944  0.1048
    1C        C   58   3.277   2.523   3.894 -0.6104 -0.5671 -0.0709
    1C        C   59   3.484   2.492   4.013 -0.3124 -0.2061 -0.0229
    1C        C   60   3.417   2.499   4.137 -0.3494 -0.6864 -0.0130
    1C        C   61   3.625   2.497   4.260 -0.2067  0.9301  0.1140
    1C        C   62   3.484   2.488   4.260 -0.1273 -0.4715 -0.1116
    1C        C   63   3.697   2.507   4.381 -0.2468  0.8636  0.1454
    1C        C   64   3.627   2.499   4.503 -0.1986  0.6288  0.1607
    1C        C   65   3.833   2.541   4.622 -0.0781  0.2699  0.1236
    1C        C   66   3.698   2.502   4.625 -0.3262  1.1028  0.2294
    1C        C   67   3.904   2.555   4.744  0.2357 -0.4605  0.0252
    1C        C   68   3.840   2.518   4.864 -0.1265 -0.1639 -0.0748
    1C        C   69   4.049   2.588   4.976 -0.0725  0.1906 -0.1769
    1C        C   70   3.924   2.523   4.976 -0.2385  0.5056 -0.0185
    1C        C   71   2.828   2.737   2.306  0.2624  0.1049  0.2349
    1C        C   72   2.883   2.693   2.429  0.3346  0.2162  0.2465
    1C        C   73   2.834   2.747   2.550 -0.8545 -0.3207  0.0253
    1C        C   74   3.009   2.625   2.672 -0.4814 -0.2595  0.0803
    1C        C   75   2.893   2.706   2.672 -0.6566 -0.5036 -0.1276
    1C        C   76   3.072   2.591   2.794 -0.0580 -0.5019 -0.2058
    1C        C   77   3.009   2.624   2.915 -0.1316 -0.5756 -0.2247
    1C        C   78   3.203   2.538   3.037 -0.0627  0.3165  0.0921
    1C        C   79   3.074   2.597   3.037 -0.1414  0.1366 -0.0564
    1C        C   80   3.271   2.522   3.160 -0.0438 -0.0082  0.0362
    1C        C   81   3.207   2.545   3.283 -0.0818  0.5061 -0.0798
    1C        C   82   3.411   2.496   3.402  0.1038 -0.5023  0.4989
    1C        C   83   3.272   2.524   3.407  0.2329  0.3065 -0.2828
    1C        C   84   3.483   2.495   3.523 -0.2619 -0.4206  0.7176
    1C        C   85   3.413   2.499   3.646 -0.5857 -0.2900  0.5316
    1C        C   86   3.627   2.498   3.771 -0.1913  0.5614 -0.1504
    1C        C   87   3.485   2.494   3.767 -0.1902 -0.1596  0.3024
    1C        C   88   3.695   2.508   3.894 -0.4848  0.5992  0.0138
    1C        C   89   3.625   2.502   4.016 -0.3533  0.3918  0.0812
    1C        C   90   3.831   2.549   4.137 -0.3003  0.5460  0.3980
    1C        C   91   3.696   2.509   4.138 -0.2549  0.3685  0.0286
    1C        C   92   3.902   2.564   4.259  0.0848  0.9073  0.1344
    1C        C   93   3.834   2.543   4.380 -0.2655  0.9407 -0.0530
    1C        C   94   4.028   2.630   4.498 -0.1619  0.2180  0.1028
    1C        C   95   3.902   2.566   4.502 -0.2478  0.3787  0.0468
    1C        C   96   4.089   2.669   4.619  0.1743  0.1654 -0.0467
    1C        C   97   4.025   2.629   4.739  0.1406 -0.3184 -0.2224
    1C        C   98   4.182   2.771   4.865 -0.2732  0.2402 -0.1939
    1C        C   99   4.090   2.662   4.861  0.3069 -0.2507 -0.3282
    1C        C  100   4.207   2.848   4.980  0.2847 -0.2031 -0.0110
    1C        C  101   2.823   2.735   2.072  0.1097  0.0381 -0.1082
    1C        C  102   2.993   2.591   2.188 -0.0955  0.1750 -0.2288
    1C        C  103   2.881   2.681   2.188 -0.2728 -0.0365  0.0539
    1C        C  104   3.062   2.572   2.311  0.1939  0.7528 -0.2982
    1C        C  105   3.003   2.619   2.431  0.3289  0.1943 -0.0061
    1C        C  106   3.199   2.528   2.549  0.0495  0.2867 -0.0203
    1C        C  107   3.071   2.587   2.551  0.0645  0.3117  0.1763
    1C        C  108   3.267   2.512   2.671  0.3034  0.5337 -0.1304
    1C        C  109   3.201   2.533   2.794  0.1873  0.0420 -0.1087
    1C        C  110   3.408   2.486   2.916 -0.2045 -0.2489  0.1369
    1C        C  111   3.270   2.516   2.915 -0.0780  0.3350  0.0836
    1C        C  112   3.481   2.482   3.037 -0.0870 -0.9061  0.0427
    1C        C  113   3.410   2.497   3.158 -0.1716 -0.7174 -0.0344
    1C        C  114   3.622   2.495   3.280 -0.3915 -0.3630 -0.1579
    1C        C  115   3.481   2.488   3.280 -0.4099 -0.0024  0.1644
    1C        C  116   3.691   2.511   3.402 -0.4201  0.2156 -0.2170
    1C        C  117   3.624   2.502   3.526 -0.2457 -0.2910 -0.1567
    1C        C  118   3.830   2.544   3.648 -0.1254 -0.2293  0.2036
    1C        C  119   3.696   2.502   3.647 -0.1993 -0.0063 -0.1812
    1C        C  120   3.898   2.566   3.770 -0.5229  0.5180  0.3021
    1C        C  121   3.832   2.544   3.892 -0.4747  0.5880  0.3460
    1C        C  122   4.024   2.632   4.012 -0.2973  0.2932 -0.4185
    1C        C  123   3.898   2.569   4.014 -0.4208  0.5497  0.3287
    1C        C  124   4.088   2.667   4.133 -0.0333 -0.3890 -0.3567
    1C        C  125   4.032   2.620   4.254  0.3273  0.3551  0.1118
    1C        C  126   4.195   2.757   4.376  0.5041 -0.1209 -0.0068
    1C        C  127   4.088   2.665   4.375 -0.0544  0.5149  0.2352
    1C        C  128   4.238   2.815   4.497 -0.3321  0.5508 -0.0253
    1C        C  129   4.189   2.769   4.621  0.1043  0.2360  0.0328
    1C        C  130   4.318   2.937   4.737  0.3756  0.1933  0.1570
    1C        C  131   4.236   2.821   4.743 -0.0682  0.4887 -0.0042
    1C        C  132   4.348   3.006   4.857 -0.0049  0.3734  0.1548
    1C        C  133   4.295   2.956   4.976 -0.3762  0.3453 -0.0225
    1C        C  134   3.177   2.466   2.083 -0.0862 -0.1973  0.1110
    1C        C  135   3.045   2.513   2.081 -0.0826 -0.1890  0.0378
    1C        C  136   3.262   2.485   2.192  0.1559  0.7079 -0.2297
    1C        C  137   3.195   2.524   2.310  0.0034  0.2158 -0.1539
    1C        C  138   3.407   2.480   2.429 -0.0037  0.2197 -0.0282
    1C        C  139   3.266   2.496   2.429  0.0334  0.5361 -0.0960
    1C        C  140   3.477   2.468   2.551  0.1093  0.1158 -0.1054
    1C        C  141   3.407   2.489   2.671  0.3466  0.8148 -0.0860
    1C        C  142   3.618   2.490   2.789 -0.1261  0.0010 -0.2100
    1C        C  143   3.478   2.479   2.793 -0.1349  0.2489  0.1495
    1C        C  144   3.689   2.502   2.911 -0.0996 -0.0499 -0.2236
    1C        C  145   3.622   2.494   3.034 -0.1934  0.3076 -0.2546
    1C        C  146   3.829   2.535   3.158 -0.2809 -0.1306 -0.0273
    1C        C  147   3.691   2.504   3.157 -0.4834  0.7705 -0.1284
    1C        C  148   3.897   2.556   3.280 -0.5536  0.6141  0.0012
    1C        C  149   3.829   2.537   3.402 -0.4774  0.5361  0.0339
    1C        C  150   4.022   2.627   3.524 -0.5041  0.5801  0.1704
    1C        C  151   3.896   2.564   3.524 -0.6980  0.9552  0.0691
    1C        C  152   4.086   2.663   3.645  0.2190  0.1673 -0.0747
    1C        C  153   4.021   2.636   3.767 -0.3763  0.2532 -0.3619
    1C        C  154   4.188   2.765   3.887 -0.1945  0.2221 -0.2022
    1C        C  155   4.080   2.674   3.889 -0.3400  0.3803 -0.4145
    1C        C  156   4.236   2.818   4.009  0.2235 -0.1715 -0.1911
    1C        C  157   4.192   2.763   4.131 -0.2617 -0.1372 -0.3468
    1C        C  158   4.329   2.921   4.254 -0.3899 -0.1476 -0.1461
    1C        C  159   4.245   2.809   4.254  0.0663 -0.4968 -0.3496
    1C        C  160   4.367   2.984   4.375 -0.2153  0.0733 -0.3120
    1C        C  161   4.323   2.928   4.496  0.4057 -0.0018 -0.1179
    1C        C  162   4.425   3.120   4.617  0.4153 -0.1762 -0.1645
    1C        C  163   4.357   2.996   4.615  0.3468 -0.1433 -0.0172
    1C        C  164   4.454   3.189   4.736  0.7219 -0.0519 -0.3085
    1C        C  165   4.421   3.127   4.859  0.1806  0.2735 -0.2842
    1C        C  166   4.513   3.320   4.971 -0.2770  0.5432  0.1880
    1C        C  167   4.478   3.186   4.973 -0.2457  0.5285 -0.2007
    1C        C  168   3.477   2.431   2.074  0.0713 -0.7396  0.0715
    1C        C  169   3.402   2.462   2.188  0.1902  0.9262 -0.2842
    1C        C  170   3.619   2.463   2.308 -0.0976  0.6353  0.0569
    1C        C  171   3.477   2.462   2.308 -0.0942  0.3927 -0.1037
    1C        C  172   3.693   2.469   2.428  0.2520  0.3956 -0.1470
    1C        C  173   3.619   2.465   2.548  0.1041  0.1185 -0.2479
    1C        C  174   3.826   2.528   2.668  0.0085 -0.1384  0.0982
    1C        C  175   3.690   2.490   2.667 -0.0227 -0.0145 -0.1467
    1C        C  176   3.892   2.555   2.790  0.0703 -0.1676  0.0707
    1C        C  177   3.826   2.539   2.914 -0.1839  0.2459 -0.0088
    1C        C  178   4.020   2.623   3.032 -0.6056  0.9777  0.1265
    1C        C  179   3.895   2.557   3.035 -0.3401  0.4679  0.0466
    1C        C  180   4.080   2.660   3.154 -0.0851  0.1441  0.1267
    1C        C  181   4.022   2.621   3.277 -0.3079  0.1495  0.0262
    1C        C  182   4.193   2.746   3.397 -0.3488  0.0790  0.0233
    1C        C  183   4.080   2.662   3.400 -0.5496  0.3425  0.0790
    1C        C  184   4.243   2.798   3.518  0.3642  0.0247 -0.2430
    1C        C  185   4.195   2.753   3.643 -0.0687  0.5241 -0.2212
    1C        C  186   4.332   2.916   3.762  0.2346  0.0063  0.3008
    1C        C  187   4.243   2.807   3.764  0.2497 -0.0185 -0.0946
    1C        C  188   4.377   2.972   3.884  0.2526  0.1277  0.2428
    1C        C  189   4.332   2.922   4.007  0.1157 -0.0630  0.1201
    1C        C  190   4.431   3.106   4.128  0.2354  0.0719  0.1971
    1C        C  191   4.370   2.979   4.131 -0.3780  0.3582  0.0870
    1C        C  192   4.460   3.172   4.249  0.6997  0.0143  0.1211
    1C        C  193   4.428   3.112   4.372 -0.1831  0.0650 -0.0750
    1C        C  194   4.496   3.315   4.489 -0.6155  0.2810 -0.0849
    1C        C  195   4.453   3.181   4.493  0.3054 -0.0287 -0.1183
    1C        C  196   4.510   3.388   4.609 -0.6578  0.1668 -0.0097
    1C        C  197   4.498   3.324   4.735  0.3866  0.0646  0.0477
    1C        C  198   4.553   3.537   4.849 -0.0257  0.2207  0.3279
    1C        C  199   4.528   3.396   4.854  0.3905  0.1363  0.0046
    1C        C  200   4.584   3.622   4.960 -0.2906  0.1690  0.4420
    1C        C  201   3.616   2.417   2.070  0.1483  0.0487 -0.0374
    1C        C  202   3.823   2.512   2.185  0.2189 -0.3138 -0.0135
    1C        C  203   3.690   2.458   2.185 -0.2566  0.8260 -0.0448
    1C        C  204   3.896   2.537   2.304  0.4499  0.1267 -0.2431
    1C        C  205   3.827   2.515   2.425  0.2883  0.2788 -0.3073
    1C        C  206   4.014   2.620   2.543 -0.2522  0.2758 -0.0758
    1C        C  207   3.893   2.546   2.546 -0.2957  0.3483  0.0010
    1C        C  208   4.077   2.658   2.664 -0.3919  0.4942 -0.0694
    1C        C  209   4.017   2.621   2.786  0.2027 -0.4213 -0.0404
    1C        C  210   4.189   2.745   2.908 -0.3722  0.2394 -0.0144
    1C        C  211   4.079   2.656   2.908 -0.2548  0.0918  0.0531
    1C        C  212   4.238   2.800   3.029 -0.2652  0.2729 -0.0711
    1C        C  213   4.190   2.749   3.151 -0.0255  0.0674 -0.0587
    1C        C  214   4.327   2.909   3.273 -0.4192  0.1837  0.1713
    1C        C  215   4.237   2.799   3.274 -0.2014  0.0008  0.0394
    1C        C  216   4.362   2.973   3.394  0.0367  0.0244  0.1264
    1C        C  217   4.322   2.916   3.517  0.3013  0.0801  0.2439
    1C        C  218   4.424   3.103   3.638  0.4830 -0.1033 -0.0201
    1C        C  219   4.360   2.977   3.638  0.2572  0.0044  0.3008
    1C        C  220   4.447   3.170   3.760  0.3745  0.0556 -0.0829
    1C        C  221   4.434   3.101   3.883  0.2188  0.1452 -0.0463
    1C        C  222   4.496   3.305   4.003  0.3582 -0.1937 -0.0547
    1C        C  223   4.459   3.169   4.004  0.6120 -0.2630  0.1063
    1C        C  224   4.508   3.380   4.122 -0.2426  0.0530 -0.1457
    1C        C  225   4.493   3.309   4.244 -0.2407  0.2446 -0.0335
    1C        C  226   4.508   3.522   4.363  0.3639  0.2617  0.1349
    1C        C  227   4.507   3.381   4.365 -0.1320  0.2636 -0.0564
    1C        C  228   4.507   3.596   4.484  0.9979  0.2997  0.1189
    1C        C  229   4.524   3.529   4.607  0.6992  0.0428  0.0198
    1C        C  230   4.506   3.744   4.722 -0.0797 -0.0842 -0.0914
    1C        C  231   4.535   3.604   4.725 -0.0653 -0.0762  0.1710
    1C        C  232   4.493   3.817   4.843 -0.1581 -0.1220 -0.0768
    1C        C  233   4.541   3.756   4.959  0.1142  0.2975  0.0312
    1C        C  234   4.009   2.620   2.065 -0.2246  0.4397  0.0949
    1C        C  235   3.893   2.545   2.068  0.4009 -0.5495  0.0283
    1C        C  236   4.079   2.655   2.182 -0.0695  0.6326 -0.0560
    1C        C  237   4.017   2.611   2.300  0.5131  0.0398  0.0297
    1C        C  238   4.190   2.738   2.424  0.4617 -0.1988  0.2296
    1C        C  239   4.075   2.654   2.421  0.4545 -0.1894  0.1418
    1C        C  240   4.249   2.784   2.543 -0.1568  0.4531  0.2905
    1C        C  241   4.191   2.741   2.664 -0.0637  0.0537  0.1988
    1C        C  242   4.320   2.911   2.784  0.3157  0.0037  0.0972
    1C        C  243   4.235   2.798   2.786 -0.4089  0.5421  0.1015
    1C        C  244   4.361   2.969   2.906 -1.0376  0.7855  0.1990
    1C        C  245   4.329   2.908   3.029 -0.3061  0.3085  0.1633
    1C        C  246   4.428   3.095   3.148 -0.3968  0.1861  0.2390
    1C        C  247   4.369   2.967   3.151 -0.0370  0.0151  0.2190
    1C        C  248   4.454   3.161   3.270 -0.3385  0.5243  0.0463
    1C        C  249   4.424   3.100   3.394 -0.1068  0.0978 -0.1019
    1C        C  250   4.486   3.304   3.513 -0.3647  0.0784  0.2040
    1C        C  251   4.448   3.168   3.515  0.4366 -0.1580 -0.0607
    1C        C  252   4.501   3.372   3.635 -0.0121 -0.0411  0.2297
    1C        C  253   4.484   3.307   3.759 -0.1014  0.1906  0.3419
    1C        C  254   4.518   3.516   3.877  0.5315  0.2503 -0.2583
    1C        C  255   4.507   3.375   3.880  0.3532  0.2736  0.2089
    1C        C  256   4.511   3.590   3.997 -0.2054  0.1667 -0.2498
    1C        C  257   4.515   3.521   4.120 -0.1509  0.0460 -0.3207
    1C        C  258   4.496   3.734   4.238 -0.2128 -0.2193  0.0672
    1C        C  259   4.513   3.594   4.241 -0.1132 -0.2124 -0.1649
    1C        C  260   4.478   3.804   4.359  0.3511  0.0083  0.0218
    1C        C  261   4.486   3.736   4.482  0.5076  0.2256  0.1318
    1C        C  262   4.429   3.943   4.602  0.1561  0.2970  0.0693
    1C        C  263   4.478   3.810   4.601  0.1528  0.2965  0.0650
    1C        C  264   4.396   4.010   4.722  0.3279 -0.1452  0.3654
    1C        C  265   4.431   3.943   4.842  0.2290  0.0746  0.5169
    1C        C  266   4.324   4.129   4.957 -0.5709  0.1542  0.4227
    1C        C  267   4.391   4.007   4.960 -0.5865  0.1397  0.2131
    1C        C  268   4.266   2.769   2.062  0.8440 -0.0332  0.2419
    1C        C  269   4.190   2.742   2.177  0.2405  0.2392 -0.0861
    1C        C  270   4.335   2.894   2.299  0.5216 -0.5216  0.1200
    1C        C  271   4.238   2.790   2.301  0.1398 -0.1727  0.1124
    1C        C  272   4.374   2.957   2.419 -0.3078  0.6455 -0.2027
    1C        C  273   4.331   2.899   2.541  0.2153  0.1863 -0.2286
    1C        C  274   4.440   3.084   2.661  0.1297 -0.1178  0.3751
    1C        C  275   4.364   2.965   2.661 -0.0074 -0.0366 -0.0416
    1C        C  276   4.469   3.151   2.782  0.0382  0.1566  0.2479
    1C        C  277   4.435   3.090   2.904 -0.2360  0.3064  0.2484
    1C        C  278   4.497   3.294   3.026 -0.0674  0.1836 -0.0923
    1C        C  279   4.457   3.159   3.026 -0.2681  0.2396  0.2942
    1C        C  280   4.507   3.366   3.147  0.2139  0.2488 -0.1508
    1C        C  281   4.492   3.297   3.269  0.3775  0.3299 -0.0840
    1C        C  282   4.508   3.511   3.389 -0.3538  0.0532  0.0982
    1C        C  283   4.505   3.370   3.389 -0.4427  0.0554  0.1784
    1C        C  284   4.509   3.582   3.511 -0.1547  0.3153 -0.0551
    1C        C  285   4.506   3.513   3.634  0.0811 -0.0482 -0.2513
    1C        C  286   4.495   3.726   3.753  0.2619  0.0526  0.1605
    1C        C  287   4.514   3.586   3.755  0.5151  0.0785 -0.3550
    1C        C  288   4.475   3.798   3.873 -0.1770  0.0175  0.1102
    1C        C  289   4.490   3.729   3.996 -0.2105  0.1704  0.1965
    1C        C  290   4.429   3.934   4.115 -0.0594  0.1997  0.0651
    1C        C  291   4.485   3.804   4.116 -0.3664  0.0714  0.2492
    1C        C  292   4.399   3.997   4.238  0.2770  0.2284  0.1325
    1C        C  293   4.429   3.937   4.362  0.5953  0.0976 -0.0081
    1C        C  294   4.321   4.125   4.478 -0.0476 -0.1106  0.4146
    1C        C  295   4.397   4.007   4.481  0.1954  0.0341 -0.0780
    1C        C  296   4.285   4.191   4.598 -0.0727  0.0353  0.3255
    1C        C  297   4.326   4.133   4.720  0.2051 -0.2216  0.1116
    1C        C  298   4.200   4.310   4.837 -0.0073 -0.1672 -0.4007
    1C        C  299   4.287   4.197   4.841 -0.2281 -0.3259  0.0294
    1C        C  300   4.177   4.403   4.944  0.3542 -0.4495 -0.0804
    1C        C  301   4.353   2.878   2.065  0.0176  0.6532 -0.0583
    1C        C  302   4.465   3.070   2.179  0.2252  0.0360  0.1228
    1C        C  303   4.391   2.948   2.180  0.4152 -0.0801  0.2670
    1C        C  304   4.476   3.145   2.299  0.0551 -0.0157  0.1715
    1C        C  305   4.436   3.084   2.420 -0.3139  0.6509  0.3938
    1C        C  306   4.508   3.285   2.538  0.3408 -0.0324 -0.0700
    1C        C  307   4.474   3.148   2.540  0.6155 -0.0964  0.5168
    1C        C  308   4.514   3.358   2.659  0.2227 -0.0126 -0.0734
    1C        C  309   4.506   3.288   2.781 -0.0914  0.1931  0.0275
    1C        C  310   4.522   3.501   2.899  0.7411  0.2018  0.3904
    1C        C  311   4.512   3.361   2.902  0.5486  0.2038 -0.0094
    1C        C  312   4.517   3.574   3.020  0.0084  0.3472  0.2777
    1C        C  313   4.514   3.507   3.144 -0.0399  0.2737  0.2367
    1C        C  314   4.488   3.719   3.266  0.3536  0.3449  0.2481
    1C        C  315   4.507   3.579   3.265 -0.0222  0.2932  0.2258
    1C        C  316   4.475   3.790   3.387  0.6515  0.4650  0.2080
    1C        C  317   4.492   3.722   3.510 -0.1063  0.3224  0.2388
    1C        C  318   4.428   3.926   3.624  0.2181  0.2796  0.1937
    1C        C  319   4.480   3.795   3.630  0.1882  0.2747  0.2960
    1C        C  320   4.396   3.990   3.746  0.1315  0.2090  0.2060
    1C        C  321   4.428   3.930   3.870  0.4501  0.2440  0.1390
    1C        C  322   4.331   4.118   3.988  0.2758  0.3131  0.1613
    1C        C  323   4.403   3.997   3.992  0.3307  0.3450  0.0579
    1C        C  324   4.287   4.173   4.110  0.1723 -0.1711  0.3422
    1C        C  325   4.326   4.117   4.234 -0.0686  0.0299  0.5085
    1C        C  326   4.190   4.285   4.350 -0.4766 -0.3424 -0.2913
    1C        C  327   4.287   4.182   4.353 -0.1154  0.0225  0.4953
    1C        C  328   4.139   4.341   4.469  0.3906  0.4837 -0.3008
    1C        C  329   4.192   4.297   4.592  0.1362  0.1888 -0.2956
    1C        C  330   4.027   4.434   4.710 -0.3335 -0.2322 -0.1423
    1C        C  331   4.143   4.351   4.713 -0.4241 -0.3624 -0.2745
    1C        C  332   3.975   4.490   4.829 -0.1480 -0.3330 -0.0117
    1C        C  333   4.061   4.480   4.939  0.2798 -0.5768 -0.3597
    1C        C  334   4.554   3.265   2.064  0.7406  0.3435 -0.0061
    1C        C  335   4.537   3.126   2.068  0.3314  0.4026  0.3737
    1C        C  336   4.530   3.349   2.173 -0.4396  0.0673 -0.0398
    1C        C  337   4.509   3.283   2.296 -0.2476  0.0548 -0.0137
    1C        C  338   4.525   3.497   2.413  0.2970  0.0731  0.0844
    1C        C  339   4.519   3.356   2.416 -0.0945  0.0846 -0.0433
    1C        C  340   4.522   3.570   2.534 -0.3346 -0.1437  0.2044
    1C        C  341   4.524   3.498   2.656 -0.3111  0.0403  0.3157
    1C        C  342   4.508   3.712   2.777  0.0790  0.0226  0.4050
    1C        C  343   4.523   3.572   2.777  0.5623  0.0722  0.3127
    1C        C  344   4.484   3.782   2.898  0.0379  0.3717  0.1976
    1C        C  345   4.501   3.715   3.021  0.4547  0.4010  0.1588
    1C        C  346   4.431   3.918   3.136  0.3697  0.2564 -0.2957
    1C        C  347   4.477   3.784   3.141  0.4158  0.2897  0.2145
    1C        C  348   4.403   3.986   3.257  0.2479  0.2161 -0.3018
    1C        C  349   4.439   3.926   3.380  0.4300  0.3831 -0.2758
    1C        C  350   4.320   4.103   3.500  0.1390 -0.4272 -0.0445
    1C        C  351   4.405   3.991   3.501  0.8857  0.1302 -0.0115
    1C        C  352   4.280   4.166   3.620  0.2289 -0.1330 -0.1667
    1C        C  353   4.321   4.110   3.744  0.7207  0.5737 -0.0045
    1C        C  354   4.179   4.265   3.865  0.3863  0.1194  0.1968
    1C        C  355   4.284   4.171   3.866  0.6355  0.3959  0.0581
    1C        C  356   4.125   4.309   3.988 -0.2334 -0.3983  0.1168
    1C        C  357   4.186   4.272   4.110  0.3134 -0.0293 -0.0416
    1C        C  358   4.007   4.393   4.229 -0.6349 -0.6085  0.2749
    1C        C  359   4.132   4.327   4.228 -0.4580 -0.2768 -0.2760
    1C        C  360   3.950   4.438   4.350 -0.5217 -0.5072  0.2908
    1C        C  361   4.019   4.417   4.471  0.1662  0.1217  0.0204
    1C        C  362   3.826   4.512   4.592 -0.1354  0.0144 -0.2980
    1C        C  363   3.957   4.460   4.591  0.2091  0.8760 -0.2292
    1C        C  364   3.763   4.540   4.715  0.0485  0.1598 -0.2357
    1C        C  365   3.841   4.534   4.833 -0.0810 -0.1052 -0.1615
    1C        C  366   3.627   4.586   4.945  0.0274  0.3870 -0.1712
    1C        C  367   3.765   4.563   4.946  0.0461  0.4918 -0.2262
    1C        C  368   4.504   3.562   2.053  0.7985 -0.0860  0.1008
    1C        C  369   4.523   3.490   2.171  0.5468  0.1256  0.2684
    1C        C  370   4.509   3.706   2.291  0.7175  0.2871  0.5660
    1C        C  371   4.526   3.566   2.290  0.4508  0.2568  0.1877
    1C        C  372   4.495   3.781   2.410  0.4432  0.2548  0.5522
    1C        C  373   4.505   3.710   2.532  0.8656  0.0120  0.3787
    1C        C  374   4.430   3.908   2.648  0.4551 -0.0708 -0.3807
    1C        C  375   4.487   3.779   2.654  0.7220  0.0767  0.3218
    1C        C  376   4.393   3.968   2.771 -0.0197 -0.0388 -0.5371
    1C        C  377   4.427   3.911   2.895 -0.5748  0.0924 -0.3221
    1C        C  378   4.329   4.103   3.012  0.5655  0.5659 -0.0308
    1C        C  379   4.402   3.982   3.014 -0.1579  0.1161 -0.2487
    1C        C  380   4.280   4.157   3.133  0.2873  0.3439 -0.0418
    1C        C  381   4.324   4.103   3.256  0.1023  0.1208 -0.0723
    1C        C  382   4.176   4.256   3.376  0.6181  0.2644  0.0927
    1C        C  383   4.278   4.158   3.377  0.4709  0.1085  0.0765
    1C        C  384   4.123   4.307   3.497  0.4363  0.4578 -0.0648
    1C        C  385   4.180   4.265   3.619  0.1137 -0.2481 -0.1527
    1C        C  386   4.007   4.385   3.741  0.2895 -0.5377 -0.0451
    1C        C  387   4.124   4.307   3.742  0.4324 -0.3279  0.0225
    1C        C  388   3.944   4.419   3.863 -0.2616 -0.7734 -0.2612
    1C        C  389   4.006   4.385   3.985 -0.3226 -0.5460 -0.1649
    1C        C  390   3.816   4.482   4.106 -0.0513 -0.4980 -0.2629
    1C        C  391   3.943   4.421   4.106 -0.3564 -1.1464  0.0015
    1C        C  392   3.751   4.512   4.228 -0.1703 -0.3317 -0.3637
    1C        C  393   3.820   4.492   4.349 -0.6676 -0.8571 -0.1591
    1C        C  394   3.617   4.548   4.473 -0.3391 -0.7908  0.1152
    1C        C  395   3.757   4.530   4.470 -0.2130  0.1799 -0.2316
    1C        C  396   3.546   4.558   4.595 -0.3702 -0.4605  0.0740
    1C        C  397   3.623   4.556   4.714 -0.0128 -0.3432 -0.1508
    1C        C  398   3.407   4.547   4.834  0.0559  0.1346  0.1978
    1C        C  399   3.547   4.565   4.832  0.0449  0.2150 -0.1537
    1C        C  400   3.343   4.506   4.951  0.1337 -0.1991  0.1266
    1C        C  401   4.503   3.701   2.052 -0.2904 -0.0843  0.5606
    1C        C  402   4.451   3.911   2.166 -0.0686 -0.0188 -0.3243
    1C        C  403   4.494   3.776   2.170  0.0682  0.0446  0.5073
    1C        C  404   4.409   3.975   2.284  0.1045  0.2043 -0.3834
    1C        C  405   4.442   3.912   2.406  0.4373  0.2278 -0.4602
    1C        C  406   4.324   4.091   2.527  0.0396 -0.1390 -0.0480
    1C        C  407   4.403   3.974   2.527 -0.2564 -0.3434 -0.3816
    1C        C  408   4.277   4.145   2.648 -0.2589 -0.2810 -0.0973
    1C        C  409   4.314   4.085   2.771  0.1027  0.0457 -0.0431
    1C        C  410   4.172   4.247   2.889  0.0845  0.0086 -0.0973
    1C        C  411   4.276   4.151   2.890  0.1692  0.0974 -0.0484
    1C        C  412   4.120   4.295   3.010  0.1273 -0.1017 -0.0291
    1C        C  413   4.176   4.252   3.132  0.0879  0.1315  0.0778
    1C        C  414   4.002   4.376   3.250  0.0548 -0.2456 -0.0793
    1C        C  415   4.119   4.296   3.253  0.3359  0.1657  0.1877
    1C        C  416   3.940   4.406   3.373  0.0379 -0.9685  0.1038
    1C        C  417   4.000   4.377   3.497 -0.1579 -0.5645  0.3034
    1C        C  418   3.810   4.467   3.619 -0.1983 -0.3938  0.1263
    1C        C  419   3.939   4.411   3.620 -0.2520 -0.5289  0.2516
    1C        C  420   3.747   4.502   3.741 -0.1598  0.0839  0.0126
    1C        C  421   3.814   4.475   3.861  0.0715  0.0111 -0.1287
    1C        C  422   3.607   4.519   3.986 -0.1894 -0.1884 -0.0471
    1C        C  423   3.747   4.500   3.983 -0.2451 -0.6094 -0.1734
    1C        C  424   3.541   4.532   4.110 -0.0995  0.3831 -0.0507
    1C        C  425   3.612   4.537   4.233 -0.1106 -0.0471 -0.0212
    1C        C  426   3.400   4.547   4.353 -0.2191  0.3434  0.0129
    1C        C  427   3.541   4.551   4.354 -0.1811 -0.6460  0.0162
    1C        C  428   3.330   4.545   4.475 -0.3356  0.5263 -0.0449
    1C        C  429   3.405   4.551   4.595 -0.3969  0.0143  0.0276
    1C        C  430   3.192   4.516   4.717 -0.0587  0.1301  0.2086
    1C        C  431   3.331   4.547   4.715 -0.0401  0.0664  0.2569
    1C        C  432   3.125   4.492   4.841 -0.1480  0.7671  0.2918
    1C        C  433   3.206   4.484   4.955  0.0279  0.4339  0.1506
    1C        C  434   4.391   4.127   2.058  0.2285  0.0698 -0.0226
    1C        C  435   4.440   3.996   2.055 -0.0075 -0.0126 -0.3258
    1C        C  436   4.309   4.168   2.167 -0.3725 -0.4499 -0.2724
    1C        C  437   4.334   4.096   2.287 -0.0862  0.0784 -0.0077
    1C        C  438   4.181   4.250   2.404 -0.3177 -0.2555 -0.2223
    1C        C  439   4.280   4.150   2.406 -0.1540 -0.0926  0.0424
    1C        C  440   4.125   4.297   2.525  0.3525  0.1003 -0.0446
    1C        C  441   4.179   4.247   2.645 -0.0099 -0.0312  0.0670
    1C        C  442   4.008   4.376   2.764 -0.4846 -0.4138 -0.0062
    1C        C  443   4.126   4.298   2.766 -0.2814 -0.1143 -0.0148
    1C        C  444   3.944   4.411   2.885 -0.1214 -0.8309  0.3167
    1C        C  445   4.004   4.377   3.008 -0.3284 -0.7146  0.4585
    1C        C  446   3.811   4.467   3.127 -0.6685 -0.6469 -0.0683
    1C        C  447   3.942   4.414   3.128 -0.3928  0.0074  0.2125
    1C        C  448   3.743   4.484   3.250 -0.1054  0.3051  0.1327
    1C        C  449   3.809   4.461   3.372  0.1101 -0.7826 -0.1722
    1C        C  450   3.607   4.517   3.496  0.0599 -1.1682 -0.1837
    1C        C  451   3.745   4.488   3.495  0.1270 -0.8756 -0.1355
    1C        C  452   3.538   4.537   3.618  0.0668 -0.4223 -0.2945
    1C        C  453   3.607   4.525   3.740 -0.2819 -0.6069 -0.1100
    1C        C  454   3.398   4.534   3.864 -0.1016  0.5211 -0.0585
    1C        C  455   3.539   4.533   3.863 -0.0988  0.2715 -0.0507
    1C        C  456   3.328   4.530   3.987 -0.2987  0.2665 -0.1712
    1C        C  457   3.400   4.534   4.109 -0.1022  0.3479 -0.2839
    1C        C  458   3.192   4.503   4.232  0.0273  0.3056  0.0071
    1C        C  459   3.330   4.534   4.231  0.1274 -0.1130 -0.1453
    1C        C  460   3.124   4.493   4.355 -0.2720 -0.6617 -0.2195
    1C        C  461   3.191   4.521   4.476 -0.2319 -0.1424 -0.3507
    1C        C  462   2.995   4.434   4.601  0.2129  0.3979  0.0275
    1C        C  463   3.120   4.499   4.597  0.1792  0.4722  0.0143
    1C        C  464   2.932   4.398   4.722 -0.0379  0.7688  0.0130
    1C        C  465   2.992   4.440   4.844  0.0414  0.2507  0.1613
    1C        C  466   2.798   4.337   4.957 -0.4745  0.3001 -0.4296
    1C        C  467   2.908   4.423   4.959 -0.3792  0.1754 -0.1493
    1C        C  468   4.130   4.290   2.044  0.1666  0.3697 -0.2887
    1C        C  469   4.196   4.256   2.163 -0.3184 -0.3756 -0.2204
    1C        C  470   4.008   4.371   2.277 -0.1652 -0.0122 -0.0454
    1C        C  471   4.129   4.296   2.282 -0.4219 -0.4460 -0.2526
    1C        C  472   3.941   4.401   2.398 -0.2888 -0.3222 -0.0335
    1C        C  473   4.002   4.366   2.521 -0.0238 -0.5722 -0.2313
    1C        C  474   3.809   4.455   2.641  0.0943 -0.1117  0.0845
    1C        C  475   3.939   4.399   2.643 -0.2842 -1.0139 -0.2431
    1C        C  476   3.744   4.487   2.762  0.0569  0.0817  0.0184
    1C        C  477   3.815   4.469   2.883  0.3000  0.1317 -0.1098
    1C        C  478   3.606   4.516   3.007  0.0323  0.4004 -0.1107
    1C        C  479   3.745   4.488   3.004  0.0193  0.3173 -0.2937
    1C        C  480   3.535   4.521   3.129  0.1416 -0.8606  0.0289
    1C        C  481   3.604   4.511   3.252 -0.2350 -0.3172  0.2978
    1C        C  482   3.394   4.524   3.376 -0.4946  0.3339  0.2039
    1C        C  483   3.535   4.519   3.374 -0.5117 -0.3879  0.1554
    1C        C  484   3.323   4.523   3.498 -0.3772  0.4509  0.2798
    1C        C  485   3.397   4.534   3.618  0.0462  0.1877  0.0491
    1C        C  486   3.191   4.503   3.741 -0.0670  0.2344 -0.1768
    1C        C  487   3.328   4.534   3.741 -0.1357  0.5627 -0.0443
    1C        C  488   3.126   4.477   3.864  0.1370  0.0802 -0.0956
    1C        C  489   3.190   4.504   3.987 -0.3491  0.4944  0.0765
    1C        C  490   2.998   4.417   4.114 -0.1858  0.0702  0.2626
    1C        C  491   3.124   4.480   4.110 -0.0046 -0.2816  0.1251
    1C        C  492   2.938   4.385   4.237 -0.8591  0.0474 -0.0618
    1C        C  493   2.999   4.427   4.357 -0.6394  0.0099 -0.1534
    1C        C  494   2.827   4.303   4.480 -0.4884  0.7268 -0.1209
    1C        C  495   2.938   4.390   4.479  0.0559  0.0523  0.2182
    1C        C  496   2.775   4.254   4.602  0.2032  0.1099 -0.0690
    1C        C  497   2.819   4.313   4.723  0.0308  0.6674 -0.2740
    1C        C  498   2.664   4.163   4.844 -0.0146  0.1223  0.0665
    1C        C  499   2.752   4.273   4.841 -0.1170  0.1926 -0.5140
    1C        C  500   2.593   4.115   4.955 -0.2581  0.2377 -0.0378
    1C        C  501   4.006   4.351   2.044  0.1586  0.3553 -0.3757
    1C        C  502   3.813   4.460   2.153  0.0386  0.0266  0.0685
    1C        C  503   3.944   4.407   2.157 -0.0919 -0.3161 -0.1768
    1C        C  504   3.743   4.475   2.275  0.1544 -0.0953  0.1511
    1C        C  505   3.812   4.458   2.398 -0.1302  0.0510  0.3335
    1C        C  506   3.604   4.505   2.520 -0.2580 -0.1075  0.3787
    1C        C  507   3.743   4.480   2.519 -0.2344  0.0170  0.2835
    1C        C  508   3.533   4.515   2.642 -0.1947 -0.1307  0.4208
    1C        C  509   3.605   4.511   2.763  0.0903  0.3066  0.2727
    1C        C  510   3.394   4.517   2.885 -0.3989 -0.6135  0.0554
    1C        C  511   3.535   4.520   2.885 -0.3924 -0.6543  0.0836
    1C        C  512   3.324   4.515   3.007 -0.0938 -0.2660  0.2409
    1C        C  513   3.394   4.524   3.130  0.1476 -0.2144  0.1063
    1C        C  514   3.188   4.488   3.255 -0.1119  0.2117  0.1567
    1C        C  515   3.325   4.520   3.253 -0.1103  0.2138 -0.0145
    1C        C  516   3.117   4.474   3.377 -0.3932  0.1296 -0.0099
    1C        C  517   3.183   4.504   3.499 -0.4213  0.7266 -0.1310
    1C        C  518   2.994   4.415   3.626 -0.0024 -0.1505  0.1316
    1C        C  519   3.118   4.482   3.622 -0.1966  0.2079 -0.0980
    1C        C  520   2.933   4.378   3.748 -0.7118  0.5243 -0.0065
    1C        C  521   2.999   4.415   3.867  0.0321  0.2692 -0.3294
    1C        C  522   2.832   4.289   3.993 -0.0461  0.8461 -0.0130
    1C        C  523   2.940   4.379   3.991  0.5228  0.1758 -0.1148
    1C        C  524   2.788   4.235   4.116 -0.0334  0.1132 -0.3212
    1C        C  525   2.829   4.295   4.237 -0.8782  0.0636 -0.0041
    1C        C  526   2.695   4.133   4.363 -0.1425 -0.0783 -0.0073
    1C        C  527   2.778   4.247   4.360 -0.9416  0.5208  0.1530
    1C        C  528   2.652   4.076   4.484 -0.4180  0.1967  0.0276
    1C        C  529   2.690   4.142   4.604  0.2805  0.0478 -0.1060
    1C        C  530   2.588   3.958   4.730  0.1845  0.3464 -0.2072
    1C        C  531   2.640   4.090   4.725 -0.3057  0.5409 -0.1331
    1C        C  532   2.542   3.900   4.851  0.3184  0.1995 -0.2254
    1C        C  533   2.520   3.995   4.956 -0.3842  0.3091 -0.4662
    1C        C  534   3.617   4.560   2.036 -0.1173 -0.0801 -0.1413
    1C        C  535   3.746   4.505   2.039 -0.0721  0.0374  0.1367
    1C        C  536   3.538   4.533   2.153  0.1797  0.1901  0.1228
    1C        C  537   3.605   4.507   2.276  0.1837  0.0350  0.0871
    1C        C  538   3.393   4.505   2.397  0.2122 -0.2042 -0.0697
    1C        C  539   3.534   4.506   2.398  0.2122  0.0936  0.1052
    1C        C  540   3.321   4.509   2.519 -0.0901 -0.5050 -0.2342
    1C        C  541   3.392   4.518   2.641 -0.2052 -0.4491 -0.1684
    1C        C  542   3.184   4.480   2.765 -0.1750 -0.6715 -0.2906
    1C        C  543   3.322   4.510   2.763 -0.0571 -1.1872 -0.1243
    1C        C  544   3.116   4.467   2.888  0.0995 -0.1878 -0.0814
    1C        C  545   3.184   4.494   3.008 -0.1449  0.0364  0.0120
    1C        C  546   2.995   4.407   3.135 -0.5635  1.3091 -0.2504
    1C        C  547   3.121   4.470   3.132 -0.1074  0.4407  0.1156
    1C        C  548   2.939   4.364   3.258 -0.2651  0.7431 -0.3050
    1C        C  549   2.992   4.409   3.381 -0.5456  0.4113 -0.0568
    1C        C  550   2.826   4.284   3.504 -0.1357  0.1512  0.3423
    1C        C  551   2.932   4.378   3.504 -0.0912  0.1070  0.0933
    1C        C  552   2.777   4.235   3.627 -0.1669 -0.0988  0.2358
    1C        C  553   2.825   4.288   3.749 -0.2711 -0.0100  0.2426
    1C        C  554   2.695   4.123   3.873 -0.0519  0.0413 -0.0871
    1C        C  555   2.778   4.237   3.873 -0.1808  0.1401  0.3420
    1C        C  556   2.660   4.062   3.995 -0.0350 -0.0790 -0.1393
    1C        C  557   2.702   4.123   4.116  0.1653 -0.0461 -0.2220
    1C        C  558   2.592   3.949   4.244  0.3131  0.1039  0.1513
    1C        C  559   2.656   4.075   4.240 -0.2250  0.3686 -0.1981
    1C        C  560   2.578   3.879   4.366  0.2738 -0.0912  0.0372
    1C        C  561   2.594   3.948   4.489  0.1517 -0.0625  0.0376
    1C        C  562   2.533   3.746   4.613  0.2854 -0.0854  0.3988
    1C        C  563   2.571   3.882   4.612  0.2281 -0.0693  0.0487
    1C        C  564   2.514   3.679   4.736 -0.0627 -0.3002  0.2319
    1C        C  565   2.524   3.758   4.854 -0.7732  0.3313 -0.1187
    1C        C  566   2.538   3.544   4.976  0.6369  0.2635  0.0524
    1C        C  567   2.521   3.682   4.972 -0.1797  0.1604 -0.2087
    1C        C  568   3.322   4.482   2.039 -0.3460  0.1527 -0.0055
    1C        C  569   3.398   4.508   2.154  0.3137 -0.5923 -0.2660
    1C        C  570   3.185   4.470   2.280  0.3450  0.2604  0.0839
    1C        C  571   3.323   4.503   2.274  0.4077 -0.0339 -0.1832
    1C        C  572   3.116   4.454   2.401  0.0088 -0.0590 -0.1471
    1C        C  573   3.182   4.484   2.522 -0.1887  0.0400 -0.0607
    1C        C  574   2.988   4.400   2.646 -0.4119  0.0935  0.0842
    1C        C  575   3.113   4.464   2.643 -0.5618  0.3793 -0.2147
    1C        C  576   2.931   4.362   2.770 -0.0258  0.2105  0.3016
    1C        C  577   2.994   4.396   2.892 -0.2898  0.4848  0.3655
    1C        C  578   2.821   4.278   3.016 -0.2709 -0.2169 -0.1719
    1C        C  579   2.936   4.361   3.015 -0.6417  0.3074  0.1549
    1C        C  580   2.777   4.225   3.139  0.3288 -0.2753  0.0268
    1C        C  581   2.828   4.276   3.260  0.3018  0.0196 -0.0803
    1C        C  582   2.692   4.119   3.383 -0.0447  0.7316  0.0630
    1C        C  583   2.770   4.236   3.383  0.1004  0.6381  0.0344
    1C        C  584   2.659   4.058   3.506 -0.1146  0.0679 -0.2751
    1C        C  585   2.694   4.121   3.628 -0.4577  0.1028 -0.1890
    1C        C  586   2.594   3.936   3.755  0.1381 -0.0821  0.0263
    1C        C  587   2.659   4.061   3.751  0.3596 -0.1975 -0.0927
    1C        C  588   2.568   3.872   3.878 -0.0251  0.1793  0.1316
    1C        C  589   2.598   3.936   4.001 -0.6141  0.2182  0.2593
    1C        C  590   2.540   3.737   4.124  0.4341 -0.1289 -0.4263
    1C        C  591   2.577   3.874   4.126 -0.3875  0.0980  0.2395
    1C        C  592   2.522   3.673   4.249  0.6285  0.1419 -0.2561
    1C        C  593   2.537   3.744   4.369  0.3561 -0.1192 -0.0640
    1C        C  594   2.518   3.533   4.493  0.0406  0.2650  0.0245
    1C        C  595   2.526   3.674   4.491  0.7670  0.2305  0.1794
    1C        C  596   2.525   3.464   4.616 -0.2206 -0.0559 -0.1385
    1C        C  597   2.521   3.537   4.737  1.0306 -0.2609  0.0380
    1C        C  598   2.540   3.326   4.861  0.4966 -0.0125  0.2349
    1C        C  599   2.530   3.467   4.859  0.7281  0.0046  0.2153
    1C        C  600   2.528   3.248   4.977 -0.5324 -0.1154  0.0669
    1C        C  601   3.193   4.434   2.041 -0.4664  0.4744  0.0261
    1C        C  602   2.983   4.387   2.159 -0.1724  0.7354  0.2034
    1C        C  603   3.117   4.438   2.159 -0.1056  0.5597  0.2563
    1C        C  604   2.926   4.352   2.285  0.1368 -0.4498  0.0231
    1C        C  605   2.989   4.391   2.405  0.0184 -0.0751 -0.0343
    1C        C  606   2.812   4.275   2.528 -0.1067  0.2097  0.2264
    1C        C  607   2.924   4.361   2.526 -0.3810  0.5617 -0.0875
    1C        C  608   2.763   4.228   2.652 -0.4024  0.0707  0.0595
    1C        C  609   2.821   4.273   2.772 -0.3011  0.5312 -0.1592
    1C        C  610   2.686   4.112   2.895 -0.4718  0.2505  0.0897
    1C        C  611   2.774   4.222   2.895 -0.2797  0.1059 -0.3233
    1C        C  612   2.649   4.056   3.019 -0.1541  0.0858  0.1175
    1C        C  613   2.691   4.113   3.141 -0.5643  0.3966  0.1191
    1C        C  614   2.590   3.929   3.266 -0.4448  0.4713  0.0503
    1C        C  615   2.653   4.055   3.264  0.3902  0.0675  0.2688
    1C        C  616   2.566   3.865   3.389 -0.0547 -0.2501 -0.2422
    1C        C  617   2.594   3.933   3.510  0.0649 -0.0321 -0.3888
    1C        C  618   2.533   3.734   3.635 -0.2959  0.3437 -0.1288
    1C        C  619   2.564   3.872   3.633  0.4153  0.1867 -0.1886
    1C        C  620   2.522   3.665   3.758 -0.9637  0.3475 -0.1767
    1C        C  621   2.539   3.734   3.880 -0.4789  0.2687 -0.1931
    1C        C  622   2.508   3.526   4.007  0.4228 -0.1859  0.0288
    1C        C  623   2.527   3.666   4.003 -0.4519 -0.0691 -0.3734
    1C        C  624   2.516   3.458   4.130  0.6309  0.0888  0.1670
    1C        C  625   2.509   3.533   4.250  0.2243  0.1795  0.0877
    1C        C  626   2.535   3.322   4.375  0.0294  0.1055  0.0238
    1C        C  627   2.513   3.461   4.372  0.3599  0.1604  0.0726
    1C        C  628   2.558   3.254   4.497  0.4151  0.1476 -0.0241
    1C        C  629   2.552   3.326   4.618  0.4244  0.0714  0.0220
    1C        C  630   2.603   3.121   4.740  0.4911  0.2245  0.2076
    1C        C  631   2.564   3.257   4.741  0.3165  0.1755  0.0908
    1C        C  632   2.619   3.050   4.862  0.3445  0.3063  0.2730
    1C        C  633   2.562   3.112   4.978  0.2728  0.0819  0.3579
    1C        C  634   2.779   4.306   2.057 -0.4819  0.7194  0.3940
    1C        C  635   2.887   4.395   2.053 -0.0102  0.1410  0.0072
    1C        C  636   2.750   4.225   2.167  0.4531 -0.4055 -0.1673
    1C        C  637   2.809   4.271   2.287 -0.3286  0.2168 -0.0181
    1C        C  638   2.672   4.111   2.411  0.4947 -0.1267  0.1089
    1C        C  639   2.755   4.226   2.409  0.0634  0.1909  0.1502
    1C        C  640   2.631   4.054   2.534 -0.2204  0.1994  0.0305
    1C        C  641   2.676   4.116   2.653 -0.5054  0.1459  0.1712
    1C        C  642   2.585   3.923   2.776  0.4549 -0.3086 -0.4275
    1C        C  643   2.644   4.051   2.774 -0.8774  0.3381  0.1810
    1C        C  644   2.563   3.860   2.900  0.7129  0.2958 -0.0657
    1C        C  645   2.588   3.928   3.021  0.3439 -0.1561  0.2743
    1C        C  646   2.520   3.729   3.148 -0.4867  0.0729 -0.0962
    1C        C  647   2.559   3.865   3.144 -0.2624  0.0241  0.2335
    1C        C  648   2.508   3.659   3.270 -0.0020 -0.2538 -0.2310
    1C        C  649   2.530   3.728   3.391 -0.5705 -0.1166 -0.2039
    1C        C  650   2.520   3.520   3.516  0.4610  0.1352 -0.0792
    1C        C  651   2.527   3.661   3.514 -0.0889  0.1658 -0.0335
    1C        C  652   2.519   3.453   3.641  0.2995  0.2551 -0.0152
    1C        C  653   2.513   3.524   3.762  0.2177  0.2600 -0.0212
    1C        C  654   2.541   3.318   3.887  0.3173 -0.0375 -0.3001
    1C        C  655   2.508   3.455   3.885  0.6950  0.0582 -0.1138
    1C        C  656   2.564   3.252   4.009  0.2805 -0.2512 -0.4088
    1C        C  657   2.543   3.319   4.131  0.4818  0.0521 -0.5424
    1C        C  658   2.609   3.121   4.255  0.5010  0.7235 -0.3104
    1C        C  659   2.555   3.251   4.254  0.0582  0.5404 -0.2278
    1C        C  660   2.637   3.054   4.376 -0.0473  0.4290 -0.3449
    1C        C  661   2.607   3.121   4.496  0.2619  0.0918 -0.0748
    1C        C  662   2.710   2.936   4.621 -0.4233 -0.0049 -0.0842
    1C        C  663   2.635   3.056   4.618 -0.1732  0.1558  0.0637
    1C        C  664   2.751   2.878   4.743  0.0085  0.0235 -0.2123
    1C        C  665   2.703   2.935   4.864  0.1475  0.1524 -0.2171
    1C        C  666   2.741   2.870   4.983  0.3083  0.5700 -0.0389
    1C        C  667   2.679   4.017   2.054  0.2861  0.5127 -0.6823
    1C        C  668   2.687   4.098   2.168  0.5047 -0.4316 -0.0127
    1C        C  669   2.584   3.915   2.292  0.1065  0.0958 -0.0828
    1C        C  670   2.642   4.045   2.291  0.0880  0.1083  0.0750
    1C        C  671   2.562   3.849   2.415 -0.1837 -0.1165 -0.2461
    1C        C  672   2.579   3.923   2.534 -0.7525  0.4049 -0.4852
    1C        C  673   2.518   3.720   2.663 -0.4652  0.2065  0.1765
    1C        C  674   2.554   3.856   2.656 -0.0137  0.0584 -0.5151
    1C        C  675   2.514   3.650   2.785  0.4215 -0.0741  0.0581
    1C        C  676   2.526   3.724   2.905  0.5202  0.3396 -0.2019
    1C        C  677   2.501   3.515   3.029  0.3612  0.3766 -0.0747
    1C        C  678   2.509   3.656   3.028 -0.7953  0.4507 -0.3040
    1C        C  679   2.509   3.444   3.151  0.4568  0.0031 -0.2922
    1C        C  680   2.509   3.517   3.271  0.0254 -0.2559 -0.1286
    1C        C  681   2.536   3.309   3.399  0.6430 -0.0022 -0.1837
    1C        C  682   2.516   3.449   3.394  0.6184  0.0020 -0.0103
    1C        C  683   2.561   3.246   3.523  0.9282  0.2069 -0.1335
    1C        C  684   2.549   3.315   3.645  0.4992  0.2908 -0.2203
    1C        C  685   2.604   3.111   3.770  0.3289  0.0967 -0.0878
    1C        C  686   2.556   3.244   3.767  0.1205  0.0164 -0.3566
    1C        C  687   2.640   3.052   3.892  0.0549 -0.2503 -0.1738
    1C        C  688   2.612   3.119   4.013  0.8079 -0.0546 -0.0993
    1C        C  689   2.715   2.934   4.132  0.2360 -0.0716 -0.0561
    1C        C  690   2.640   3.054   4.135  0.4639  0.0664  0.0453
    1C        C  691   2.753   2.878   4.256 -0.1839 -0.2089  0.0104
    1C        C  692   2.713   2.934   4.379 -0.1985  0.3364 -0.2441
    1C        C  693   2.756   2.878   4.501 -0.3406  0.3083 -0.2051
    1C        C  694   2.621   3.889   2.056  0.1569  0.5733  0.2262
    1C        C  695   2.517   3.708   2.177 -0.2148  0.0963 -0.2851
    1C        C  696   2.563   3.841   2.174  0.1309 -0.0130 -0.0218
    1C        C  697   2.508   3.640   2.300  0.0638  0.1316 -0.2417
    1C        C  698   2.531   3.711   2.420  0.2028 -0.1999 -0.0669
    1C        C  699   2.502   3.504   2.543  0.7952  0.1345 -0.0534
    1C        C  700   2.512   3.645   2.543  0.2830  0.1766  0.1509
    1C        C  701   2.505   3.435   2.666 -0.2086  0.0528 -0.0574
    1C        C  702   2.502   3.509   2.787 -0.1394 -0.0346  0.0021
    1C        C  703   2.526   3.300   2.911  0.1634  0.0978  0.0787
    1C        C  704   2.507   3.440   2.909  0.2849  0.1186  0.0785
    1C        C  705   2.543   3.232   3.034 -0.3967  0.1096  0.1700
    1C        C  706   2.529   3.304   3.154  0.8225  0.0638  0.3536
    1C        C  707   2.607   3.110   3.279  0.7229 -0.5238  0.0404
    1C        C  708   2.546   3.237   3.278  0.9337 -0.4192  0.0829
    1C        C  709   2.637   3.050   3.403  0.5785 -0.4709  0.1028
    1C        C  710   2.610   3.114   3.526  0.8418  0.1740 -0.1718
    1C        C  711   2.718   2.932   3.645  0.0167 -0.0800  0.0422
    1C        C  712   2.638   3.048   3.648  0.1835  0.0350 -0.0946
    1C        C  713   2.763   2.878   3.768 -0.3510 -0.4217  0.0292
    1C        C  714   2.716   2.932   3.889 -0.4614 -0.5828  0.0541
    1C        C  715   2.756   2.875   4.011  0.0136 -0.3508  0.0048
    1C        C  716   2.445   3.497   2.066 -0.1937 -0.2247  0.1174
    1C        C  717   2.483   3.632   2.064 -0.1660 -0.2326 -0.0806
    1C        C  718   2.472   3.420   2.184 -0.2101 -0.1272  0.1873
    1C        C  719   2.488   3.499   2.301  0.9849 -0.0033 -0.0474
    1C        C  720   2.517   3.290   2.423  0.4407 -0.0168 -0.2593
    1C        C  721   2.493   3.429   2.424  0.8112  0.0509 -0.0059
    1C        C  722   2.541   3.225   2.546 -0.0779  0.1583 -0.0612
    1C        C  723   2.532   3.297   2.667  0.2780  0.1423 -0.0217
    1C        C  724   2.599   3.099   2.791 -0.0612  0.1015 -0.0588
    1C        C  725   2.546   3.230   2.790  0.0923  0.1702  0.0195
    1C        C  726   2.627   3.034   2.914  0.5694  0.0035 -0.2453
    1C        C  727   2.596   3.101   3.034 -0.1649  0.1937 -0.5288
    1C        C  728   2.706   2.923   3.159 -0.7510 -0.2042  0.1682
    1C        C  729   2.631   3.042   3.158 -0.1542  0.1775 -0.5356
    1C        C  730   2.758   2.876   3.281 -0.1331 -0.6759 -0.2687
    1C        C  731   2.720   2.935   3.404 -0.0045 -0.8990 -0.1198
    1C        C  732   2.767   2.879   3.524 -0.1982 -0.5054  0.1399
    1C        C  733   2.494   3.201   2.069 -0.8484 -0.5047 -0.2317
    1C        C  734   2.485   3.278   2.186  0.0241 -0.1230 -0.4062
    1C        C  735   2.573   3.079   2.309  0.4422  0.2473  0.5277
    1C        C  736   2.518   3.210   2.306 -0.1495  0.0003 -0.2833
    1C        C  737   2.607   3.017   2.431 -0.4185  0.0461  0.6762
    1C        C  738   2.587   3.092   2.550  0.0152  0.2036  0.6572
    1C        C  739   2.701   2.911   2.672  0.2214 -0.4207 -0.0889
    1C        C  740   2.626   3.030   2.671  0.1965 -0.4263  0.2900
    1C        C  741   2.744   2.855   2.794  0.5850 -0.0802 -0.0509
    1C        C  742   2.702   2.915   2.915  0.8592  0.1825 -0.0808
    1C        C  743   2.743   2.860   3.038 -0.6258 -0.2713  0.2399
    1C        C  744   2.550   3.074   2.073 -0.0445 -0.1351  0.4977
    1C        C  745   2.682   2.896   2.187 -0.0243  0.0249 -0.2803
    1C        C  746   2.599   3.010   2.188 -0.2034 -0.1062  0.5834
    1C        C  747   2.731   2.841   2.308 -0.4465 -0.5348 -0.3563
    1C        C  748   2.687   2.901   2.428 -0.0406  0.3242 -0.6258
    1C        C  749   2.739   2.851   2.549 -0.2976  0.1978 -0.5622
    1C        C  750   2.731   2.839   2.068  0.0890  0.0163 -0.2321
    1C        C  751   3.666   2.315   1.975  0.4482 -0.0297  0.2009
    1C        O  752   3.678   2.197   2.015  0.0816 -0.3390 -0.5692
    1C        O  753   3.638   2.312   1.837  0.4149 -0.1652  0.2110
    1C        C  754   4.637   3.045   1.996 -0.0721  0.3539 -0.1402
    1C        O  755   4.590   2.998   1.888  0.3435 -0.0318 -0.1577
    1C        O  756   4.762   3.099   1.963 -0.0481  0.2635 -0.1999
    1C        C  757   4.458   4.227   1.970  0.5022 -0.3650 -0.3138
    1C        O  758   4.567   4.283   1.996  0.0196  0.1931  0.5605
    1C        O  759   4.426   4.230   1.834  0.1104  0.4345 -0.2112
    1C        C  760   3.600   4.672   1.941  0.0041  0.1475  0.1037
    1C        O  761   3.688   4.759   1.914  0.5723 -0.4441  0.0025
    1C        O  762   3.506   4.660   1.838  0.1545 -0.4141  0.0302
    1C        C  763   2.848   4.525   1.995 -0.4607 -0.0972 -0.2199
    1C        O  764   2.889   4.553   1.879 -0.2223 -0.0420 -0.1232
    1C        O  765   2.822   4.644   2.064  1.0270  0.0632  0.0973
    1C        C  766   2.319   3.465   1.996 -0.2355 -0.3178  0.2330
    1C        O  767   2.308   3.422   1.878 -0.9538  0.4597  0.0065
    1C        O  768   2.213   3.547   2.037  0.3538  0.5213  0.0904
    1C        C  769   4.686   3.583   5.059 -0.0529 -0.4871 -0.0589
    1C        O  770   4.660   3.563   5.180  0.3415 -0.2583  0.0658
    1C        O  771   4.823   3.607   5.039 -0.2231  0.6115  0.0247
    1C        C  772   4.290   4.463   5.018 -0.0623  0.1939  0.0349
    1C        O  773   4.311   4.413   5.132 -0.1681 -0.4700 -0.2326
    1C        O  774   4.371   4.566   4.968 -0.1665  0.0192 -0.4993
    1C        C  775   4.151   2.541   5.072  0.1842  0.2556 -0.4188
    1C        O  776   4.245   2.463   5.041 -0.1623 -0.6051  0.6460
    1C        O  777   4.131   2.554   5.210  0.2586 -0.3587 -0.3455
    1C        C  778   2.890   4.531   5.059 -0.1306 -0.0044  0.0896
    1C        O  779   2.811   4.628   5.054 -0.4335 -0.2370  0.3070
    1C        O  780   2.930   4.494   5.189  0.4202  0.3338  0.0225
    1C        C  781   2.467   3.037   5.064 -0.0424 -0.0222 -0.0775
    1C        O  782   2.362   2.986   5.019  0.3124  0.1222 -1.0974
    1C        O  783   2.497   3.030   5.200 -0.1537 -0.2091 -0.0621
    1C        C  784   2.398   3.993   5.039  0.0614 -0.2779  0.1847
    1C        O  785   2.285   4.020   4.990  0.3227  0.9243  0.2083
    1C        O  786   2.414   4.019   5.176 -0.2610 -0.1506  0.1996
    1C        C  787   2.956   2.414   2.015 -0.3353 -0.0018  0.0982
    1C        O  788   2.890   2.448   1.914  0.2209 -0.1063 -0.3048
    1C        O  789   2.895   2.318   2.095 -0.1269 -0.4664 -0.3008
    1C        C  790   3.173   2.374   5.060  0.2944 -0.3252 -0.5173
    1C        O  791   3.116   2.274   5.008  0.0405 -0.2684 -0.3527
    1C        O  792   3.241   2.359   5.181 -0.4615  1.1202  0.1132
    1C        H  793   4.293   3.023   5.059 -0.1022 -1.4771  1.5237
    1C        H  794   4.137   2.842   5.061 -0.9474  0.0333 -1.0309
    1C        H  795   4.517   3.123   5.050  0.0496  0.9213 -0.0262
    1C        H  796   4.536   3.360   5.067  0.9892 -1.2676  0.6914
    1C        H  797   4.596   3.817   5.028 -0.2585 -0.4221  0.9872
    1C        H  798   4.397   3.955   5.054  0.0049 -0.1195  0.0311
    1C        H  799   4.336   4.193   5.042 -0.6644  0.6311  0.0836
    1C        H  800   4.047   4.542   5.026  1.3663 -0.7534 -0.0491
    1C        H  801   3.819   4.578   5.038 -1.0125  0.3937  0.4365
    1C        H  802   3.593   4.660   5.014 -0.1714  0.7471 -0.6476
    1C        H  803   3.400   4.480   5.038  1.4906 -0.5219 -0.8411
    1C        H  804   3.167   4.478   5.055  0.5197 -0.6872  0.2883
    1C        H  805   3.904   2.454   5.055  0.1296  1.0883  0.5961
    1C        H  806   3.677   2.424   5.064 -0.0983  0.7206  0.0382
    1C        H  807   3.033   2.603   5.077  0.1363 -1.5082  0.6073
    1C        H  808   3.446   2.427   5.068 -1.2732  0.6446 -0.2854
    1C        H  809   2.834   2.711   5.065 -0.2925  0.8250 -0.0796
    1C        H  810   2.663   2.843   5.050 -0.0364 -0.1839 -0.7249
    1C        H  811   2.519   3.293   5.073 -1.3945 -0.4348  0.1444
    1C        H  812   2.538   3.500   5.074  1.6609 -1.0957 -0.5341
    1C        H  813   2.466   3.721   5.055  2.1188 -0.8005  1.8929
    1C        H  814   2.585   4.185   5.035 -0.9046 -0.5867  0.6435
    1C        H  815   2.728   4.341   5.037 -2.2361  0.0521 -1.8955
    1C        H  816   2.722   2.890   1.974  0.6193 -1.0896 -0.8987
    1C        H  817   2.817   2.668   1.989  0.9081 -0.4365  0.1975
    1C        H  818   3.221   2.438   1.989 -0.4745  0.5562 -0.3049
    1C        H  819   3.429   2.392   1.987  1.2532 -0.0851 -0.8898
    1C        H  820   3.837   2.545   1.976  1.2217  0.9865 -0.5001
    1C        H  821   4.041   2.666   1.974 -0.5097  2.3558  0.9108
    1C        H  822   4.257   2.716   1.970  1.3070 -1.3586  0.9441
    1C        H  823   4.374   2.922   1.970  0.4117 -0.6985 -0.6278
    1C        H  824   4.609   3.307   1.982  0.5751  0.5638 -0.0056
    1C        H  825   4.467   3.510   1.967  0.9731  0.3444 -0.2453
    1C        H  826   4.560   3.745   1.972 -1.1443  1.4453  0.7671
    1C        H  827   3.798   4.510   1.946 -0.4314 -2.4281 -0.2723
    1C        H  828   3.943   4.329   1.960  0.4256  0.8763 -0.7189
    1C        H  829   4.191   4.302   1.957 -0.8295 -1.9002 -1.3970
    1C        H  830   4.506   3.973   1.974 -0.1843 -1.8804  0.0024
    1C        H  831   2.637   3.828   1.970  0.7585  0.4509  0.4208
    1C        H  832   2.758   4.024   1.983 -0.1972  0.8203 -1.1935
    1C        H  833   2.695   4.324   1.994 -0.5793 -1.3844 -0.1557
    1C        H  834   3.361   4.520   1.946 -0.4088  0.9828  0.2967
    1C        H  835   3.164   4.364   1.966 -1.5794  3.5023 -2.6021
    1C        H  836   2.574   3.030   1.979 -0.1894 -1.4204  1.0409
    1C        H  837   2.417   3.215   1.996  0.3754 -0.9225 -1.6436
    1C        H  838   2.470   3.684   1.972 -0.5306  1.3008  0.8031
    2V3OU   H29  839   2.801   3.553   0.661 -0.6137  2.2269  1.5566
    2V3OU   C27  840   2.782   3.498   0.757  0.7128 -0.1386  0.5376
    2V3OU   H27  841   2.729   3.578   0.815  1.9027  0.4379  0.8636
    2V3OU   H28  842   2.727   3.401   0.751  1.1994 -0.3388 -1.3380
    2V3OU   O11  843   2.910   3.476   0.818  1.0256  0.2002  0.0187
    2V3OU   C15  844   2.922   3.393   0.928  0.1295 -0.2143 -0.1886
    2V3OU   C13  845   3.054   3.371   0.971  0.0675 -0.0833  0.0623
    2V3OU   C14  846   3.077   3.265   1.060 -0.0145 -0.1871 -0.0441
    2V3OU   C16  847   2.976   3.185   1.114 -0.1760 -0.0421 -0.1353
    2V3OU    H6  848   2.996   3.099   1.179  0.3389  0.6448  0.6277
    2V3OU   C12  849   3.218   3.229   1.088 -0.0592 -0.3852 -0.0846
    2V3OU    O2  850   3.243   3.123   1.150 -0.1159 -0.2830  0.1114
    2V3OU   C10  851   3.325   3.303   1.020 -0.1348 -0.2179 -0.0167
    2V3OU    C8  852   3.459   3.268   1.034 -0.0518 -0.0165 -0.3278
    2V3OU   O10  853   3.490   3.152   1.098  0.2297  0.3309  0.1648
    2V3OU   H26  854   3.406   3.117   1.132 -0.7788  0.9512 -1.5899
    2V3OU    C6  855   3.569   3.345   0.984 -0.2841 -0.0344 -0.8644
    2V3OU    C5  856   3.538   3.464   0.919 -0.1274  0.0964 -0.6936
    2V3OU    C4  857   3.707   3.289   0.984 -0.2954 -0.0618 -0.4746
    2V3OU    H4  858   3.721   3.229   1.078 -0.0704 -0.6429 -0.8723
    2V3OU    H5  859   3.710   3.224   0.892 -1.3211 -0.1579 -0.4466
    2V3OU    C2  860   3.819   3.393   0.976 -0.0852 -0.2067  0.4948
    2V3OU    O6  861   3.819   3.473   1.095 -0.1482 -0.0338  0.3800
    2V3OU   H21  862   3.767   3.551   1.070  0.0076  0.1161  0.5255
    2V3OU    C3  863   3.780   3.496   0.869 -0.4102 -0.3706  0.4549
    2V3OU    H2  864   3.859   3.575   0.868 -0.5613 -0.2059 -0.9002
    2V3OU    H3  865   3.777   3.443   0.770 -0.0508 -0.5161  0.5213
    2V3OU   C25  866   3.956   3.326   0.962  0.2501  0.5118  0.2728
    2V3OU    O7  867   4.005   3.295   0.854 -0.2021 -0.0073  0.2093
    2V3OU   C26  868   4.031   3.284   1.086  0.0873 -0.1258  0.1592
    2V3OU   H22  869   4.076   3.377   1.130 -0.9603  0.3528  0.2458
    2V3OU   H23  870   4.121   3.223   1.057 -0.3850 -0.5155 -0.5058
    2V3OU    O8  871   3.956   3.206   1.176 -0.2776  0.0615  0.0154
    2V3OU   H24  872   3.909   3.265   1.239 -4.2145 -2.0267 -0.6350
    2V3OU    C1  873   3.645   3.564   0.885 -0.1167  0.3292  0.0178
    2V3OU    H1  874   3.620   3.619   0.790 -0.5732 -0.1882 -0.1717
    2V3OU    O3  875   3.656   3.649   0.999  0.1219  0.2251  0.0741
    2V3OU   C19  876   3.618   3.787   0.993 -0.6071  0.0104 -0.3604
    2V3OU    H9  877   3.516   3.787   0.945 -1.0191 -2.8644  0.3260
    2V3OU    O4  878   3.710   3.844   0.903  0.3434 -0.3135  0.3944
    2V3OU   C20  879   3.843   3.870   0.949  0.3557 -0.3062  0.3545
    2V3OU   H10  880   3.899   3.774   0.968 -0.5180 -0.8485  0.2504
    2V3OU   C24  881   3.606   3.861   1.127 -0.1025 -0.0821 -0.2642
    2V3OU   H16  882   3.536   3.807   1.196 -0.9775  1.2032 -0.1176
    2V3OU   H17  883   3.559   3.958   1.100 -1.2927 -0.5989 -0.0979
    2V3OU   C23  884   3.748   3.875   1.183 -0.1863  0.2671 -0.1405
    2V3OU   H15  885   3.787   3.770   1.202 -1.5964 -0.7910 -2.5320
    2V3OU    N1  886   3.737   3.963   1.297  0.4711  0.5369 -0.2784
    2V3OU   H19  887   3.803   3.919   1.358  0.8285 -0.0432 -1.0662
    2V3OU   H20  888   3.643   3.937   1.320 -0.5321  1.9354 -2.4831
    2V3OU   C21  889   3.844   3.946   1.082  0.2107  0.1086  0.1218
    2V3OU   H11  890   3.947   3.927   1.124  1.3118  0.5709 -2.1931
    2V3OU    O5  891   3.821   4.086   1.081 -0.2270  0.0378 -0.4486
    2V3OU   H18  892   3.774   4.099   1.165  1.7289  2.0296  0.4378
    2V3OU   C22  893   3.909   3.948   0.835 -0.7374 -0.1164 -0.1601
    2V3OU   H12  894   3.856   4.046   0.824 -1.1120 -0.2338  0.4995
    2V3OU   H13  895   3.909   3.889   0.740  1.6041  0.7412 -0.7367
    2V3OU   H14  896   4.016   3.967   0.862 -1.1085  0.1304  1.2099
    2V3OU   C11  897   3.156   3.472   0.940  0.0015  0.0215  0.1940
    2V3OU    O1  898   3.132   3.593   0.917  0.0371  0.0385  0.2553
    2V3OU    C9  899   3.295   3.425   0.955 -0.0281 -0.0171  0.3189
    2V3OU    C7  900   3.401   3.501   0.905 -0.2249 -0.0831 -0.1991
    2V3OU    O9  901   3.379   3.614   0.829 -0.0132  0.7008  0.8723
    2V3OU   H25  902   3.284   3.628   0.815  0.2900  1.5647 -0.5138
    2V3OU   C17  903   2.820   3.316   0.988  0.1147 -0.2503 -0.2617
    2V3OU    H7  904   2.716   3.340   0.966  0.8903  2.4563 -1.2995
    2V3OU   C18  905   2.844   3.219   1.085 -0.1991  0.5607  0.6464
    2V3OU    H8  906   2.763   3.156   1.125  0.0044 -1.9691 -2.4455
    3SOL     OW  907   1.101   5.336   1.025  0.2587 -0.8167 -0.6131
    3SOL    HW1  908   1.193   5.298   1.036  0.5659  0.0731  0.0205
    3SOL    HW2  909   1.070   5.322   0.931  1.1623 -0.8562 -0.9110
    4SOL     OW  910   4.892   3.049   0.820  0.1436  0.1417  0.2765
    4SOL    HW1  911   4.818   3.012   0.876  0.1126  1.7308  1.3455
    4SOL    HW2  912   4.862   3.134   0.777  0.8692  0.0079 -0.5265
    5SOL     OW  913   5.581   2.346   0.244  0.2663  0.0901  0.2735
    5SOL    HW1  914   5.523   2.407   0.298  0.1498  0.3381 -0.1311
    5SOL    HW2  915   5.526   2.299   0.176  0.6663  0.9749 -0.6901
    6SOL     OW  916   2.512   2.201   0.011  0.2325 -0.4085 -0.2998
    6SOL    HW1  917   2.529   2.211   0.109 -0.1220  0.6785 -0.3296
    6SOL    HW2  918   2.552   2.116  -0.022  1.4624 -0.1906  0.5464
    7SOL     OW  919   6.131   0.768   0.798 -0.3127  0.3136  0.0617
    7SOL    HW1  920   6.177   0.681   0.812 -0.7707 -0.1224 -1.0317
    7SOL    HW2  921   6.054   0.777   0.861  1.2393  1.0758  1.9542
    8SOL     OW  922   2.675   2.296   2.863  0.0688  0.1177 -0.8670
    8SOL    HW1  923   2.757   2.253   2.826 -1.4651 -3.1140 -0.8048
    8SOL    HW2  924   2.693   2.327   2.956  1.2536 -0.4808 -0.8786
    9SOL     OW  925   5.924   4.747   6.966 -0.2847  0.9802 -0.4502
    9SOL    HW1  926   5.962   4.837   6.945 -0.4850  1.1437 -0.1152
    9SOL    HW2  927   5.834   4.738   6.923 -0.2230  0.9023 -0.5637
   10SOL     OW  928   6.889   4.135   0.750  0.5632  0.0937  0.0708
   10SOL    HW1  929   6.829   4.064   0.787 -0.1367  1.2049  1.1559
   10SOL    HW2  930   6.884   4.134   0.650 -1.2185  0.0764  0.1198
   11SOL     OW  931   2.997   6.648   0.612 -0.1418 -0.7815  0.2102
   11SOL    HW1  932   3.079   6.673   0.561 -1.2827  3.3795  0.0104
   11SOL    HW2  933   2.952   6.571   0.568  0.1496  1.0872 -3.8343
   12SOL     OW  934   4.126   1.266   0.719 -1.1456 -0.5139  0.1679
   12SOL    HW1  935   4.166   1.188   0.669  0.1334 -0.7503  1.4762
   12SOL    HW2  936   4.164   1.268   0.811  0.1547  2.6397 -0.3226
   13SOL     OW  937   2.607   1.303   2.501 -0.1349 -0.4273  0.1206
   13SOL    HW1  938   2.640   1.224   2.450  0.6318 -0.2375  0.3111
   13SOL    HW2  939   2.629   1.387   2.450  1.2356 -0.1932  1.0449
   14SOL     OW  940   1.719   1.337   3.190  1.0326  0.1498 -0.4918
   14SOL    HW1  941   1.755   1.405   3.254  0.2059 -0.5002  0.7281
   14SOL    HW2  942   1.635   1.298   3.228 -0.9009  1.4471 -3.0675
   15SOL     OW  943   2.938   7.017   6.128  0.5608 -0.4142 -0.2204
   15SOL    HW1  944   2.924   7.115   6.141 -0.7356 -0.8248  1.9201
   15SOL    HW2  945   3.019   7.002   6.072  0.3773  1.8774 -1.2200
   16SOL     OW  946   5.554   1.010   0.994 -0.0319  0.5378  0.0639
   16SOL    HW1  947   5.549   0.953   0.912 -0.3820 -0.1115  0.5347
   16SOL    HW2  948   5.469   1.061   1.004 -0.7195 -0.7399  0.9910
   17SOL     OW  949   3.384   6.569   2.236 -0.3918 -0.3696  0.9983
   17SOL    HW1  950   3.366   6.475   2.267 -1.1112 -0.1718  1.1873
   17SOL    HW2  951   3.298   6.619   2.230 -0.2159 -0.2171 -0.7731
   18SOL     OW  952   2.494   0.419   6.919  1.1023  0.3925 -0.1674
   18SOL    HW1  953   2.447   0.506   6.935  0.0089  0.0370 -1.3428
   18SOL    HW2  954   2.512   0.408   6.821  0.2934 -1.1744 -0.1571
   19SOL     OW  955   0.184   1.061   3.075  0.1828 -0.0328 -0.5376
   19SOL    HW1  956   0.085   1.046   3.072  0.2887 -0.6687 -0.7555
   19SOL    HW2  957   0.232   0.974   3.069  0.7381  0.1615  0.7899
   20SOL     OW  958   4.366   0.791   3.667 -0.3775  0.2372 -0.4516
   20SOL    HW1  959   4.357   0.695   3.644  0.9488 -0.0793  0.2767
   20SOL    HW2  960   4.320   0.810   3.754 -4.0357  1.1182 -2.3770
   21SOL     OW  961   2.464   2.594   1.255 -0.1697  0.4339  0.1108
   21SOL    HW1  962   2.434   2.677   1.301  1.4182  0.7299  0.6860
   21SOL    HW2  963   2.505   2.616   1.167 -0.6040  0.1485 -0.1712
   22SOL     OW  964   2.090   0.827   3.950  0.2393  0.7206  0.5623
   22SOL    HW1  965   2.130   0.769   3.879 -0.9114  0.4567  0.0995
   22SOL    HW2  966   2.019   0.885   3.909 -1.1660 -0.1553  1.6328
   23SOL     OW  967   1.237   6.592   4.014 -0.0796 -0.4635  1.1514
   23SOL    HW1  968   1.313   6.529   4.031  0.6997  0.0064 -0.4046
   23SOL    HW2  969   1.273   6.683   3.991 -1.0342 -0.4687 -0.5691
   24SOL     OW  970   4.231   3.193   6.649 -0.4227  0.1262 -0.3963
   24SOL    HW1  971   4.310   3.176   6.590 -1.0798 -1.6682 -0.8241
   24SOL    HW2  972   4.260   3.194   6.745  0.3891  1.4237 -0.6207
   25SOL     OW  973   2.991   0.488   0.277  0.7032 -0.0834 -0.1529
   25SOL    HW1  974   2.965   0.426   0.203 -3.7017 -0.0219  1.1021
   25SOL    HW2  975   2.973   0.582   0.250 -1.2160 -0.0768  0.9822
   26SOL     OW  976   5.912   0.461   4.049 -0.5110  0.0709  0.4662
   26SOL    HW1  977   5.960   0.547   4.065 -0.8375  0.1288  1.2019
   26SOL    HW2  978   5.954   0.388   4.103 -0.4791 -0.1423  0.1529
   27SOL     OW  979   5.822   0.226   1.450 -0.5900  0.2902  0.0954
   27SOL    HW1  980   5.890   0.175   1.503  0.3394  1.0484 -0.3349
   27SOL    HW2  981   5.744   0.166   1.431 -0.6717 -0.1843  1.7608
   28SOL     OW  982   1.447   3.478   1.364  0.3361 -0.6732  0.5832
   28SOL    HW1  983   1.468   3.526   1.279 -0.2333  0.5529  1.1043
   28SOL    HW2  984   1.468   3.381   1.354  1.1144 -0.3960 -0.6510
   29SOL     OW  985   4.467   3.174   0.927  0.6283  0.0180  0.0164
   29SOL    HW1  986   4.447   3.084   0.886 -0.7434  0.3312 -0.0536
   29SOL    HW2  987   4.476   3.164   1.026 -2.1885  0.1308  0.3796
   30SOL     OW  988   4.905   0.333   6.964  0.9398  0.4517  0.0570
   30SOL    HW1  989   4.983   0.289   7.008  0.8738  1.0653  0.8156
   30SOL    HW2  990   4.821   0.305   7.011  0.8709  1.1331  0.3452
   31SOL     OW  991   0.371   2.180   5.707  0.5412  0.1065 -0.2021
   31SOL    HW1  992   0.295   2.237   5.741  0.6248  0.2939 -0.3285
   31SOL    HW2  993   0.455   2.233   5.709  0.5726  0.0688 -0.5639
   32SOL     OW  994   6.336   6.405   2.153 -0.2537 -0.6485 -0.2036
   32SOL    HW1  995   6.352   6.398   2.054 -0.4765  0.8833 -0.3740
   32SOL    HW2  996   6.389   6.481   2.190 -0.8196 -0.6803  0.7079
   33SOL     OW  997   0.987   2.473   3.111 -0.0985 -0.0279  0.4714
   33SOL    HW1  998   1.065   2.441   3.057  0.7580  0.4231  1.4108
   33SOL    HW2  999   1.015   2.552   3.166 -0.7554 -0.8436  2.0446
   34SOL     OW 1000   1.368   1.543   4.690  0.1497  0.5695  0.0029
   34SOL    HW1 1001   1.321   1.524   4.776 -0.2048  0.4819 -0.2106
   34SOL    HW2 1002   1.411   1.459   4.656 -0.7059  0.3389 -0.5099
   35SOL     OW 1003   5.128   2.483   5.130  0.4846 -0.5087 -0.1316
   35SOL    HW1 1004   5.083   2.556   5.078 -0.6210  0.2994  1.8576
   35SOL    HW2 1005   5.227   2.489   5.117  0.3888  1.1342 -0.2811
   36SOL     OW 1006   0.273   4.034   0.301  0.1088 -0.1553 -0.1045
   36SOL    HW1 1007   0.340   3.989   0.242 -1.3394 -1.1248 -1.0847
   36SOL    HW2 1008   0.297   4.131   0.310  1.5001 -0.4267 -0.6143
   37SOL     OW 1009   2.896   6.847   2.836  0.4240 -0.2549  0.2686
   37SOL    HW1 1010   2.905   6.796   2.750 -1.0620 -0.2772  0.0884
   37SOL    HW2 1011   2.986   6.870   2.872  1.0991  0.5450 -1.7774
   38SOL     OW 1012   6.728   5.308   0.581  0.0984  0.1596 -0.9552
   38SOL    HW1 1013   6.716   5.397   0.625 -1.3300 -0.1688 -0.6531
   38SOL    HW2 1014   6.645   5.283   0.533 -0.2410 -1.9016  0.6000
   39SOL     OW 1015   6.565   3.963   5.513  0.3336  0.4105 -0.7844
   39SOL    HW1 1016   6.594   3.883   5.564  1.1002  1.2266  0.0880
   39SOL    HW2 1017   6.470   3.952   5.485 -0.4920  0.4127  1.7952
   40SOL     OW 1018   0.683   3.308   1.815 -0.1682 -0.0928  0.2320
   40SOL    HW1 1019   0.644   3.219   1.839 -1.2166  0.5182  0.8414
   40SOL    HW2 1020   0.643   3.340   1.729  0.3502 -0.2750 -0.0886
   41SOL     OW 1021   1.430   3.113   6.381  0.4970 -0.5672 -0.4587
   41SOL    HW1 1022   1.406   3.202   6.342  0.3019 -0.3925  0.0570
   41SOL    HW2 1023   1.347   3.058   6.393  0.1565  0.4106  2.2522
   42SOL     OW 1024   3.742   6.000   1.787  0.2452 -0.5311 -0.4895
   42SOL    HW1 1025   3.830   5.993   1.740  0.4583 -0.1631 -0.1564
   42SOL    HW2 1026   3.669   5.963   1.729  0.0862  2.3433 -2.2984
   43SOL     OW 1027   5.564   4.794   4.383 -0.1218 -0.8484  0.2333
   43SOL    HW1 1028   5.544   4.700   4.411  1.8960 -1.7962 -1.2216
   43SOL    HW2 1029   5.481   4.837   4.349 -0.4117 -3.6009 -3.0633
   44SOL     OW 1030   1.340   4.706   5.963  0.3732 -0.3039  0.4078
   44SOL    HW1 1031   1.367   4.644   5.890 -2.2349 -2.7560  1.3160
   44SOL    HW2 1032   1.400   4.694   6.042  1.5224  0.3538 -0.3502
   45SOL     OW 1033   4.535   1.634   0.515  0.2756  0.6597  0.1681
   45SOL    HW1 1034   4.481   1.712   0.481  0.9844  0.0499 -2.5221
   45SOL    HW2 1035   4.478   1.552   0.513  0.7268  0.3563 -0.9747
   46SOL     OW 1036   7.014   4.228   3.131 -0.1529 -0.1344  0.0597
   46SOL    HW1 1037   7.099   4.279   3.129  1.1676 -2.2541 -1.5302
   46SOL    HW2 1038   7.019   4.156   3.199  0.1336 -1.4966 -1.3518
   47SOL     OW 1039   5.378   5.673   2.282  0.3340  0.2556  0.3803
   47SOL    HW1 1040   5.430   5.757   2.298 -0.7926  1.1674 -0.5723
   47SOL    HW2 1041   5.358   5.628   2.369  0.7242  1.1119  0.9230
   48SOL     OW 1042   2.301   1.806   3.055 -0.3008 -0.1075  0.2225
   48SOL    HW1 1043   2.266   1.876   2.993 -0.2402  0.4420  0.7961
   48SOL    HW2 1044   2.224   1.750   3.088 -0.2969 -0.5883 -0.5605
   49SOL     OW 1045   5.700   1.976   0.836 -0.1951 -0.0752 -0.3577
   49SOL    HW1 1046   5.784   1.988   0.784  0.9571 -0.6008  1.3135
   49SOL    HW2 1047   5.693   2.047   0.906 -0.9723 -0.2519 -0.2391
   50SOL     OW 1048   0.406   2.530   4.980  0.3340 -0.4411  0.9871
   50SOL    HW1 1049   0.366   2.612   4.937  0.4463 -0.4274  0.9094
   50SOL    HW2 1050   0.451   2.556   5.065 -1.1961 -0.6836  1.9204
   51SOL     OW 1051   3.045   4.776   1.758 -0.0556  0.0092 -0.2884
   51SOL    HW1 1052   3.008   4.689   1.791  0.7749 -0.8215 -1.4950
   51SOL    HW2 1053   3.137   4.790   1.796  0.5039 -0.4801 -1.4177
   52SOL     OW 1054   0.422   1.602   4.135 -0.5624  0.2664  0.4294
   52SOL    HW1 1055   0.519   1.576   4.134 -1.1563 -2.2386  0.0859
   52SOL    HW2 1056   0.383   1.582   4.224 -0.8460  1.0376  0.4865
   53SOL     OW 1057   5.671   6.940   3.593 -0.6124 -0.0590  0.4451
   53SOL    HW1 1058   5.764   6.933   3.629 -0.4754  0.4113  0.1886
   53SOL    HW2 1059   5.662   6.880   3.514 -0.9112 -1.0865  1.2330
   54SOL     OW 1060   4.027   5.319   4.431  0.0240  0.2606 -0.1284
   54SOL    HW1 1061   4.093   5.265   4.379  0.8210  0.2721  0.8429
   54SOL    HW2 1062   4.061   5.413   4.440  0.3778  0.0180  1.2294
   55SOL     OW 1063   6.244   1.610   6.735 -0.1779  0.8990 -0.3788
   55SOL    HW1 1064   6.200   1.626   6.647 -0.5709 -0.3245 -0.4168
   55SOL    HW2 1065   6.193   1.657   6.807 -1.7371 -0.6921 -0.3844
   56SOL     OW 1066   0.939   6.792   1.927 -0.4412  0.3980 -0.0395
   56SOL    HW1 1067   0.970   6.880   1.889  1.2616  1.0720  2.6512
   56SOL    HW2 1068   1.017   6.740   1.959 -1.4387 -2.1296 -1.3833
   57SOL     OW 1069   3.377   6.749   5.694 -0.6170 -0.0365 -0.6032
   57SOL    HW1 1070   3.447   6.696   5.645  0.4030  0.5011  0.2396
   57SOL    HW2 1071   3.394   6.742   5.793 -1.1930  0.8822 -0.4374
   58SOL     OW 1072   0.918   0.661   0.241  0.0275 -0.3684 -0.3939
   58SOL    HW1 1073   0.910   0.703   0.331 -0.0952  0.0826 -0.6112
   58SOL    HW2 1074   0.915   0.562   0.250  2.2160 -0.4211  0.3252
   59SOL     OW 1075   0.853   5.439   0.679  0.3509 -0.1923  0.2303
   59SOL    HW1 1076   0.830   5.500   0.755  0.1343  2.0400 -1.5235
   59SOL    HW2 1077   0.811   5.349   0.694  0.8560 -0.0574  3.0036
   60SOL     OW 1078   5.196   6.835   5.322 -0.2475  0.4434  0.0391
   60SOL    HW1 1079   5.105   6.844   5.280  0.2700  1.5314 -0.9167
   60SOL    HW2 1080   5.228   6.741   5.312  0.5310  0.9114 -3.6291
   61SOL     OW 1081   2.871   1.300   4.875 -0.3436  0.5552 -0.2899
   61SOL    HW1 1082   2.794   1.302   4.940 -0.5702  1.0559 -0.5625
   61SOL    HW2 1083   2.908   1.208   4.869 -0.2566  0.5192  0.6314
   62SOL     OW 1084   4.082   0.095   4.186  0.0644 -0.0419 -0.0615
   62SOL    HW1 1085   3.998   0.145   4.209  1.4141  1.6889  1.4568
   62SOL    HW2 1086   4.102   0.107   4.088  0.8703  3.4596  0.3980
   63SOL     OW 1087   6.083   2.472   4.617  0.5091  0.2485 -0.3316
   63SOL    HW1 1088   6.041   2.525   4.543  0.7163  0.0604 -0.5876
   63SOL    HW2 1089   6.039   2.383   4.623  0.2730  0.3833 -0.0092
   64SOL     OW 1090   5.374   2.392   6.069 -0.1980 -0.4064 -0.2804
   64SOL    HW1 1091   5.329   2.303   6.067 -0.0753 -0.4782  0.0868
   64SOL    HW2 1092   5.410   2.414   5.978 -0.6771 -0.4999 -0.4937
   65SOL     OW 1093   2.127   2.767   5.765 -0.6204 -0.7786 -0.0478
   65SOL    HW1 1094   2.204   2.799   5.819  0.2421  0.7055 -2.0186
   65SOL    HW2 1095   2.041   2.797   5.807 -0.0801 -1.0584  1.3032
   66SOL     OW 1096   2.620   2.102   2.324 -0.0320  0.0874  0.0672
   66SOL    HW1 1097   2.679   2.027   2.296 -0.4288 -1.0992  2.1734
   66SOL    HW2 1098   2.610   2.167   2.249  1.5608 -1.1708 -1.2997
   67SOL     OW 1099   3.877   6.551   3.908  0.0773  0.2340 -0.2911
   67SOL    HW1 1100   3.784   6.519   3.924  0.5814 -1.6606 -0.9416
   67SOL    HW2 1101   3.908   6.604   3.986 -1.3077  0.3429  0.2094
   68SOL     OW 1102   3.338   3.111   6.400 -0.0854 -0.3606 -0.1086
   68SOL    HW1 1103   3.391   3.116   6.484  1.5577  0.3621 -1.1298
   68SOL    HW2 1104   3.400   3.116   6.321 -1.4265 -2.6413 -1.3959
   69SOL     OW 1105   3.850   3.043   5.237 -0.6340  0.2049 -0.1046
   69SOL    HW1 1106   3.936   3.072   5.195 -1.0364  0.8889 -0.4815
   69SOL    HW2 1107   3.813   2.965   5.187  0.1071 -0.5279  0.4800
   70SOL     OW 1108   5.563   0.159   4.038 -0.2001  0.4963  0.2665
   70SOL    HW1 1109   5.552   0.250   4.076  1.2111  0.7168  0.1935
   70SOL    HW2 1110   5.624   0.163   3.959 -2.7802  0.0124 -1.9313
   71SOL     OW 1111   1.538   4.730   3.130 -0.8106  0.4937  0.2841
   71SOL    HW1 1112   1.557   4.739   3.228  0.1191 -0.3643  0.2084
   71SOL    HW2 1113   1.442   4.750   3.113 -0.6822  2.0418  1.1608
   72SOL     OW 1114   3.269   0.420   5.249 -0.2583  0.0453 -0.0424
   72SOL    HW1 1115   3.273   0.335   5.300 -1.8661  0.2611  0.5207
   72SOL    HW2 1116   3.216   0.407   5.166  0.2921  0.2786 -0.4369
   73SOL     OW 1117   3.988   2.719   0.427 -0.0829 -0.1959 -0.2277
   73SOL    HW1 1118   3.930   2.774   0.488  0.2142  1.2515 -1.2027
   73SOL    HW2 1119   4.080   2.758   0.426  0.0812 -0.5987 -1.0947
   74SOL     OW 1120   6.303   4.849   2.975 -0.4730  0.0594 -0.4209
   74SOL    HW1 1121   6.350   4.792   2.908 -0.3497 -0.2531 -0.0765
   74SOL    HW2 1122   6.238   4.909   2.929 -1.5310 -1.2514 -0.6897
   75SOL     OW 1123   3.749   5.717   5.624  0.5205  0.2157  0.2575
   75SOL    HW1 1124   3.745   5.641   5.559  0.2084 -0.7365  1.3691
   75SOL    HW2 1125   3.839   5.762   5.617  0.6340 -0.1099 -0.5445
   76SOL     OW 1126   2.761   3.362   6.913 -0.0670  0.4434 -0.1756
   76SOL    HW1 1127   2.771   3.416   6.997  0.8119 -0.5437  0.3754
   76SOL    HW2 1128   2.788   3.418   6.834  1.8289  0.5252  0.4783
   77SOL     OW 1129   6.542   5.235   3.642  0.0222 -0.0205 -0.0819
   77SOL    HW1 1130   6.537   5.135   3.639 -0.7791 -0.0241  0.8363
   77SOL    HW2 1131   6.583   5.263   3.729  1.0773  0.4397 -0.7139
   78SOL     OW 1132   0.627   0.077   4.460 -0.5669 -0.7005 -0.2547
   78SOL    HW1 1133   0.690   0.107   4.532 -0.2210 -2.5517  0.2760
   78SOL    HW2 1134   0.536   0.115   4.477 -0.1240  0.1542  0.2608
   79SOL     OW 1135   3.016   6.679   5.413 -0.4303  0.6719 -0.6373
   79SOL    HW1 1136   3.099   6.733   5.429 -0.2104  0.1533  0.0276
   79SOL    HW2 1137   2.941   6.717   5.467  0.2021 -0.8095  1.4035
   80SOL     OW 1138   6.075   3.294   3.303 -0.1079  0.6094  0.0054
   80SOL    HW1 1139   6.163   3.343   3.304  0.9393 -1.1546 -0.0294
   80SOL    HW2 1140   6.020   3.326   3.226  0.5213  1.6954 -0.0255
   81SOL     OW 1141   1.888   5.923   1.614  0.0951 -0.2579 -0.4566
   81SOL    HW1 1142   1.810   5.912   1.675 -1.1183  0.6328 -1.7590
   81SOL    HW2 1143   1.914   6.020   1.610  0.7483 -0.4365 -0.6288
   82SOL     OW 1144   0.006   4.301   6.275  0.3281  0.0959 -0.1560
   82SOL    HW1 1145   0.087   4.243   6.286  0.5901  0.4614 -0.1089
   82SOL    HW2 1146  -0.006   4.356   6.357  0.7477  0.9310 -0.6413
   83SOL     OW 1147   3.845   6.902   6.537 -0.1398  0.0602  0.0272
   83SOL    HW1 1148   3.795   6.953   6.467 -0.5282 -0.0027  0.2542
   83SOL    HW2 1149   3.789   6.895   6.619 -0.1777 -0.9212 -0.0711
   84SOL     OW 1150   0.038   5.721   1.460  0.4044  0.0467 -0.3546
   84SOL    HW1 1151   0.074   5.796   1.404 -0.9959  2.3851  1.6561
   84SOL    HW2 1152   0.085   5.720   1.548 -1.2013  0.1495  0.5339
   85SOL     OW 1153   1.955   1.294   5.780 -0.1694  0.1680 -0.4919
   85SOL    HW1 1154   1.978   1.376   5.728  1.9352  0.9548  1.5263
   85SOL    HW2 1155   1.999   1.297   5.870 -0.2507 -3.0415 -0.2091
   86SOL     OW 1156   0.870   1.179   3.962 -0.6235 -0.3156 -0.1839
   86SOL    HW1 1157   0.961   1.218   3.971 -0.4975 -0.1439 -1.8454
   86SOL    HW2 1158   0.866   1.090   4.007  1.0745 -1.3938 -2.0369
   87SOL     OW 1159   5.821   0.922   0.612 -0.5185 -0.1027  0.0310
   87SOL    HW1 1160   5.841   0.913   0.514 -0.9658 -0.7468 -0.0082
   87SOL    HW2 1161   5.869   1.002   0.649 -1.9545  1.3520 -1.1295
   88SOL     OW 1162   6.572   0.394   6.968  0.3357 -0.6282 -0.0497
   88SOL    HW1 1163   6.550   0.331   7.042 -0.8326 -0.8772 -0.5797
   88SOL    HW2 1164   6.632   0.347   6.902 -0.1505 -1.0391 -0.2071
   89SOL     OW 1165   0.652   0.944   3.803 -0.1198 -0.1674 -0.4536
   89SOL    HW1 1166   0.637   1.039   3.775  1.5889 -0.2940 -1.9927
   89SOL    HW2 1167   0.710   0.898   3.735  1.0316 -1.6437  1.4204
   90SOL     OW 1168   6.061   4.843   1.921  0.1862  0.1066 -0.0001
   90SOL    HW1 1169   6.144   4.857   1.867  0.1902 -0.9396 -0.2921
   90SOL    HW2 1170   6.086   4.808   2.012  0.1185  0.7959  0.2875
   91SOL     OW 1171   6.072   5.995   1.785 -0.7488 -0.4123 -0.2897
   91SOL    HW1 1172   6.032   5.965   1.871 -0.8976 -0.8709 -0.5142
   91SOL    HW2 1173   6.164   6.031   1.801 -0.2655 -1.7000 -0.1122
   92SOL     OW 1174   3.327   6.004   1.516  0.5268  0.3006 -0.5095
   92SOL    HW1 1175   3.249   6.034   1.570  0.9878 -1.1342  1.0405
   92SOL    HW2 1176   3.303   6.003   1.419 -0.7167  1.7600 -0.2497
   93SOL     OW 1177   3.391   5.952   5.240  0.3285 -0.5731 -0.1576
   93SOL    HW1 1178   3.455   6.020   5.275 -0.9991  1.4538 -1.4441
   93SOL    HW2 1179   3.301   5.966   5.280  0.0375 -1.6262 -0.3990
   94SOL     OW 1180   0.553   6.354   1.550 -0.3352  0.6406 -0.5510
   94SOL    HW1 1181   0.477   6.417   1.535 -1.1017 -0.1614 -0.1537
   94SOL    HW2 1182   0.530   6.293   1.626  1.5066  1.6179  0.8521
   95SOL     OW 1183   5.626   6.914   3.185  0.0854  0.2753  0.1315
   95SOL    HW1 1184   5.714   6.913   3.233  0.0165 -2.5506  0.3641
   95SOL    HW2 1185   5.617   7.000   3.134  2.6653  0.9407  0.6426
   96SOL     OW 1186   0.900   0.009   4.578 -0.3122 -0.0982 -0.1714
   96SOL    HW1 1187   0.913  -0.079   4.623  0.4694 -0.1658 -0.5135
   96SOL    HW2 1188   0.892   0.082   4.646  1.9393 -0.0406  0.1118
   97SOL     OW 1189   6.082   1.738   3.668  0.1092 -0.3079  0.1206
   97SOL    HW1 1190   6.016   1.813   3.675  0.9495  0.3107  3.8629
   97SOL    HW2 1191   6.035   1.654   3.641 -1.5887  0.7510 -0.3640
   98SOL     OW 1192   5.949   0.705   5.387 -0.9797 -0.3673  0.0844
   98SOL    HW1 1193   6.031   0.746   5.346 -1.6989  1.0746  0.0203
   98SOL    HW2 1194   5.970   0.612   5.417  0.5432 -0.1993 -0.3587
   99SOL     OW 1195   5.371   6.656   1.052  0.4574  0.1751  0.2262
   99SOL    HW1 1196   5.286   6.606   1.070  0.3816  0.5362  0.9205
   99SOL    HW2 1197   5.350   6.739   1.000  0.2164  0.8371  1.3368
  100SOL     OW 1198   4.957   6.757   0.140  0.4437  0.0218  0.1978
  100SOL    HW1 1199   4.897   6.836   0.131  0.5822  0.1312  0.2303
  100SOL    HW2 1200   4.938   6.710   0.226  0.0873 -0.2109 -0.0037
  101SOL     OW 1201   0.572   6.841   4.299  0.1585  0.2853  0.2177
  101SOL    HW1 1202   0.652   6.889   4.333  0.3136  0.3674 -0.2594
  101SOL    HW2 1203   0.600   6.754   4.258  0.0162  0.3535 -0.0272
  102SOL     OW 1204   4.870   1.129   2.253  0.4842 -0.2613  0.4050
  102SOL    HW1 1205   4.854   1.205   2.316 -1.4247  1.0334 -1.4854
  102SOL    HW2 1206   4.969   1.116   2.241  0.8586  0.6955  2.1700
  103SOL     OW 1207   3.679   1.861   4.459  0.0684 -0.0926  0.0166
  103SOL    HW1 1208   3.739   1.811   4.521  1.1700 -0.3303 -1.2020
  103SOL    HW2 1209   3.642   1.798   4.391  1.4636  0.6735 -1.5322
  104SOL     OW 1210   0.211   0.104   2.302 -0.4312  0.7231  0.0686
  104SOL    HW1 1211   0.310   0.105   2.290 -0.6210 -0.9329 -2.4953
  104SOL    HW2 1212   0.185   0.035   2.370  0.1210  0.2627 -0.1861
  105SOL     OW 1213   5.718   0.175   5.723  0.6798  0.7091  0.5300
  105SOL    HW1 1214   5.679   0.267   5.720  2.2696  1.4336  0.9594
  105SOL    HW2 1215   5.644   0.108   5.735 -0.5370  1.8797 -0.1178
  106SOL     OW 1216   2.416   0.544   2.016 -0.2985 -0.1981 -0.5577
  106SOL    HW1 1217   2.327   0.504   1.992  0.2222 -1.5388 -0.3464
  106SOL    HW2 1218   2.413   0.576   2.111 -0.3342 -0.9287 -0.3058
  107SOL     OW 1219   3.082   4.981   6.372  0.5924 -0.0339  0.3602
  107SOL    HW1 1220   3.044   5.070   6.398 -1.7205 -0.9590  0.3737
  107SOL    HW2 1221   3.141   4.947   6.445 -3.5551 -1.3023  3.5073
  108SOL     OW 1222   6.110   3.889   4.597  0.3879  0.8994 -0.6389
  108SOL    HW1 1223   6.141   3.914   4.689  1.6119  0.2470 -0.8463
  108SOL    HW2 1224   6.164   3.811   4.564 -0.8422  0.3640 -1.4466
  109SOL     OW 1225   6.008   1.971   2.674 -0.4353  0.1623  0.1598
  109SOL    HW1 1226   6.026   1.976   2.576  0.7939  0.0364  0.3607
  109SOL    HW2 1227   5.964   1.884   2.695 -0.4031  0.0444 -0.2469
  110SOL     OW 1228   4.907   6.602   3.654  0.1536 -0.6369  0.2053
  110SOL    HW1 1229   4.844   6.603   3.577 -0.0251 -1.5286  0.3359
  110SOL    HW2 1230   4.999   6.582   3.622  0.7385  2.2306 -0.2189
  111SOL     OW 1231   2.675   0.836   4.494  0.2925  0.4403 -0.4724
  111SOL    HW1 1232   2.661   0.919   4.548  0.2982  0.4678 -0.5131
  111SOL    HW2 1233   2.683   0.758   4.556  0.5546  0.5079 -0.4185
  112SOL     OW 1234   1.008   1.747   6.920  0.3149  0.1104  0.2038
  112SOL    HW1 1235   0.935   1.802   6.879  1.1705  0.5137 -0.8322
  112SOL    HW2 1236   1.076   1.725   6.850  1.3043 -0.0749  1.1999
  113SOL     OW 1237   6.411   0.082   3.882  0.2322 -0.0853  0.2134
  113SOL    HW1 1238   6.313   0.080   3.901  0.2552  1.0808  0.4976
  113SOL    HW2 1239   6.427   0.072   3.784 -0.3048  2.1150 -0.1314
  114SOL     OW 1240   1.255   6.669   6.702  0.3870  0.6915  0.1408
  114SOL    HW1 1241   1.286   6.583   6.742 -1.3830  1.3174  3.1439
  114SOL    HW2 1242   1.196   6.650   6.623  0.6196 -0.7910  0.2986
  115SOL     OW 1243   6.407   1.357   4.437 -0.4996 -0.4317 -0.5269
  115SOL    HW1 1244   6.345   1.299   4.383  0.3394 -2.8168  0.9299
  115SOL    HW2 1245   6.499   1.319   4.432  0.0233  0.6520  0.7144
  116SOL     OW 1246   5.301   4.971   3.613 -0.4070 -0.0260  0.1751
  116SOL    HW1 1247   5.400   4.976   3.628 -0.5455 -0.1469  1.1772
  116SOL    HW2 1248   5.283   4.946   3.518  0.5187  0.5726 -0.1748
  117SOL     OW 1249   1.114   5.604   6.699  0.2563  0.0287  0.3322
  117SOL    HW1 1250   1.193   5.662   6.678  0.9779 -1.1321 -0.3099
  117SOL    HW2 1251   1.138   5.509   6.680 -1.5645 -0.2756 -0.6168
  118SOL     OW 1252   1.362   2.239   4.586  0.1168 -0.0228 -0.0891
  118SOL    HW1 1253   1.310   2.160   4.619  0.2214 -0.5833 -1.2264
  118SOL    HW2 1254   1.407   2.283   4.664  2.4740 -2.8378  0.3301
  119SOL     OW 1255   5.599   1.984   0.008 -0.3414  0.4177  0.1231
  119SOL    HW1 1256   5.627   1.934  -0.074  2.1795  0.3075  0.9741
  119SOL    HW2 1257   5.546   1.923   0.067 -1.6210  0.3076 -1.0911
  120SOL     OW 1258   2.498   6.448   0.483  0.4004 -0.4181  0.1283
  120SOL    HW1 1259   2.449   6.380   0.537  1.0897 -1.6451 -0.7286
  120SOL    HW2 1260   2.450   6.536   0.487 -0.5551 -0.9734  1.1955
  121SOL     OW 1261   2.165   3.341   6.534 -0.4484 -0.2156 -0.0418
  121SOL    HW1 1262   2.119   3.429   6.549 -1.0486 -0.3401 -1.0822
  121SOL    HW2 1263   2.166   3.289   6.619  0.2876  0.9673  0.7006
  122SOL     OW 1264   1.653   3.748   6.003 -0.5555 -0.4600  0.4429
  122SOL    HW1 1265   1.654   3.706   5.912  0.5321 -0.9547  0.6762
  122SOL    HW2 1266   1.631   3.845   5.994  1.2325 -0.0973 -0.5386
  123SOL     OW 1267   0.154   0.888   2.411 -0.1508  0.8237  0.2933
  123SOL    HW1 1268   0.125   0.984   2.402  1.0727  1.0485 -2.3078
  123SOL    HW2 1269   0.252   0.885   2.428 -0.3475  0.0131  1.3334
  124SOL     OW 1270   5.001   2.188   0.319  0.1490 -0.0082 -0.3841
  124SOL    HW1 1271   5.034   2.192   0.414 -1.5026 -1.7572  0.3391
  124SOL    HW2 1272   4.909   2.147   0.318 -0.7004  1.7646 -2.5781
  125SOL     OW 1273   2.244   2.268   2.409  0.1096  0.2653  0.4915
  125SOL    HW1 1274   2.230   2.234   2.315  0.3447  0.0964  0.5192
  125SOL    HW2 1275   2.328   2.230   2.446  0.3982  0.9222  0.5043
  126SOL     OW 1276   3.214   4.714   6.971 -0.1579  0.0921 -0.0803
  126SOL    HW1 1277   3.136   4.677   7.021  0.9408 -0.6427  1.1480
  126SOL    HW2 1278   3.216   4.675   6.879 -0.4885 -0.9334  0.3294
  127SOL     OW 1279   1.749   0.186   5.912  0.5977  0.0044  0.0584
  127SOL    HW1 1280   1.701   0.132   5.981  2.4131  1.3328  2.5373
  127SOL    HW2 1281   1.815   0.128   5.865 -1.1626 -1.0922 -1.1734
  128SOL     OW 1282   6.369   1.542   0.115 -0.0225  0.4160  0.1458
  128SOL    HW1 1283   6.435   1.576   0.049 -0.0834  1.3276  0.5391
  128SOL    HW2 1284   6.367   1.602   0.195  0.3364 -0.8691  1.1713
  129SOL     OW 1285   2.965   4.012   6.599  0.1772  0.1772 -0.4606
  129SOL    HW1 1286   2.966   4.056   6.510  0.2135  1.6215  0.2194
  129SOL    HW2 1287   2.938   4.079   6.669  1.1484 -0.6474  0.7513
  130SOL     OW 1288   1.553   2.556   2.975  0.2150  0.3289 -0.0539
  130SOL    HW1 1289   1.500   2.600   2.902  0.6202  1.7795  0.4970
  130SOL    HW2 1290   1.650   2.553   2.949  0.1368 -0.6326 -0.2624
  131SOL     OW 1291   5.092   1.399   1.990  0.7197 -0.7371 -0.2417
  131SOL    HW1 1292   5.099   1.495   1.963 -2.4713 -0.0600  0.8977
  131SOL    HW2 1293   5.144   1.384   2.073 -0.3414  0.5558  0.6953
  132SOL     OW 1294   6.520   2.052   2.660 -0.4555  0.5722 -0.3339
  132SOL    HW1 1295   6.426   2.047   2.692 -0.9628  2.7305 -1.2630
  132SOL    HW2 1296   6.577   2.093   2.732  0.1587 -2.0383  0.7904
  133SOL     OW 1297   5.356   0.198   2.126 -0.2657  0.1089  0.1347
  133SOL    HW1 1298   5.373   0.291   2.092  1.8972 -0.9616 -2.0486
  133SOL    HW2 1299   5.278   0.159   2.076 -0.2852  0.2746  0.0323
  134SOL     OW 1300   0.885   2.385   4.151  0.6496  0.5262 -0.0463
  134SOL    HW1 1301   0.984   2.401   4.146  0.6601  0.1328 -1.5361
  134SOL    HW2 1302   0.850   2.424   4.236  2.3145 -0.6913  1.2736
  135SOL     OW 1303   5.885   0.595   2.869 -0.2967 -0.0995 -0.2436
  135SOL    HW1 1304   5.879   0.685   2.912 -1.4275 -0.6551  0.8221
  135SOL    HW2 1305   5.961   0.544   2.910 -0.8435 -0.3157  0.5230
  136SOL     OW 1306   6.241   5.444   4.604 -0.6586  0.4192  0.4237
  136SOL    HW1 1307   6.310   5.382   4.565 -0.1997  0.8314  0.5686
  136SOL    HW2 1308   6.243   5.436   4.704 -1.9559 -0.7672  0.3873
  137SOL     OW 1309   3.287   1.009   4.915  0.0580  0.7003  0.0670
  137SOL    HW1 1310   3.267   1.107   4.915 -0.2350  0.6583 -1.0749
  137SOL    HW2 1311   3.236   0.964   4.989 -0.0272  1.3625  0.4142
  138SOL     OW 1312   0.077   4.599   6.440  0.0476 -0.3307  0.3078
  138SOL    HW1 1313  -0.017   4.623   6.465 -0.6885  0.1916 -2.5630
  138SOL    HW2 1314   0.111   4.665   6.373  2.3554 -0.7615  0.9550
  139SOL     OW 1315   5.025   4.589   6.704  0.3015 -0.4854 -0.1857
  139SOL    HW1 1316   5.039   4.510   6.645  0.3762 -0.4907 -0.1607
  139SOL    HW2 1317   4.934   4.584   6.745  0.7584 -1.1808  0.7608
  140SOL     OW 1318   6.372   4.313   4.117 -0.0813  0.0727  0.1336
  140SOL    HW1 1319   6.451   4.374   4.110 -0.5086  0.6477  0.1719
  140SOL    HW2 1320   6.308   4.349   4.185 -0.3639 -0.3985  0.1254
  141SOL     OW 1321   1.559   1.346   2.421  0.0482 -0.6603  0.4682
  141SOL    HW1 1322   1.622   1.373   2.495  2.6004 -0.5382 -1.6037
  141SOL    HW2 1323   1.489   1.285   2.458  0.8120 -0.0929  3.0866
  142SOL     OW 1324   2.108   6.373   1.188 -0.0401 -0.1353  0.7435
  142SOL    HW1 1325   2.030   6.405   1.133  0.7397  0.5886  0.0357
  142SOL    HW2 1326   2.193   6.401   1.145  0.6064  0.7215  2.4674
  143SOL     OW 1327   3.461   2.845   2.240  0.1743 -0.1219 -0.3628
  143SOL    HW1 1328   3.527   2.826   2.168  0.2349 -1.9689  0.1147
  143SOL    HW2 1329   3.460   2.942   2.260  0.8811  0.2935 -2.1444
  144SOL     OW 1330   4.513   4.968   0.252  0.3324 -0.4076  0.2680
  144SOL    HW1 1331   4.567   4.922   0.323 -1.0954  0.2039  1.8214
  144SOL    HW2 1332   4.571   5.032   0.202  1.1369 -0.0381  1.6267
  145SOL     OW 1333   6.894   6.349   1.548 -0.2210  0.8599  0.4637
  145SOL    HW1 1334   6.916   6.264   1.500 -1.0338  0.8257  0.1477
  145SOL    HW2 1335   6.875   6.329   1.644 -0.9417  0.6083  0.2719
  146SOL     OW 1336   6.768   3.606   0.392 -0.1915  0.2336  0.5317
  146SOL    HW1 1337   6.829   3.584   0.469  2.0199 -0.4157 -1.3120
  146SOL    HW2 1338   6.816   3.666   0.328 -1.0977 -1.0589 -1.4630
  147SOL     OW 1339   5.057   2.719   2.011  0.1245 -0.0496  0.1960
  147SOL    HW1 1340   5.109   2.801   2.037 -0.1014 -0.4171  1.9296
  147SOL    HW2 1341   5.110   2.637   2.032 -0.7029 -0.3985  0.9842
  148SOL     OW 1342   2.666   4.948   4.518  0.1141 -0.3000 -0.5218
  148SOL    HW1 1343   2.628   5.016   4.580 -2.9019 -2.0538 -0.2320
  148SOL    HW2 1344   2.630   4.964   4.426 -1.6701 -2.1092 -0.2086
  149SOL     OW 1345   3.469   0.271   6.450  0.3934 -0.5258 -0.2240
  149SOL    HW1 1346   3.370   0.261   6.437  0.4693 -1.0185 -0.4554
  149SOL    HW2 1347   3.502   0.348   6.396  0.3597 -1.2363 -1.2760
  150SOL     OW 1348   0.041   6.869   4.565  0.3092 -0.2553 -0.1086
  150SOL    HW1 1349   0.125   6.815   4.573  1.6318  1.0451 -3.4421
  150SOL    HW2 1350   0.060   6.964   4.588 -1.2585 -0.5276  2.7105
  151SOL     OW 1351   4.100   0.095   2.685  0.4912 -0.1251 -0.0924
  151SOL    HW1 1352   4.034   0.162   2.719  0.0474 -1.2227  1.3010
  151SOL    HW2 1353   4.126   0.033   2.759  1.6620 -0.8734 -1.0919
  152SOL     OW 1354   4.035   0.795   5.293  0.0055  0.1174  0.4585
  152SOL    HW1 1355   4.061   0.826   5.202 -0.2237  0.0637  0.3757
  152SOL    HW2 1356   3.999   0.871   5.346  0.1123  0.1428  0.4956
  153SOL     OW 1357   0.086   0.270   3.608  0.0998 -0.0174  0.2614
  153SOL    HW1 1358   0.146   0.350   3.612  0.6622 -0.3977 -0.1865
  153SOL    HW2 1359   0.131   0.193   3.653 -0.0992 -0.2785  0.0187
  154SOL     OW 1360   1.458   1.944   3.410  0.1717  0.0186 -0.0399
  154SOL    HW1 1361   1.370   1.911   3.445 -0.2296  1.0462 -0.0330
  154SOL    HW2 1362   1.470   1.913   3.315  1.2853 -2.8065  0.9370
  155SOL     OW 1363   0.345   1.505   1.967  0.1219 -0.2993  0.0390
  155SOL    HW1 1364   0.384   1.597   1.975  0.4988 -0.4787  0.3487
  155SOL    HW2 1365   0.296   1.482   2.052  1.8422 -1.1849  0.8577
  156SOL     OW 1366   5.448   1.226   1.906  0.0938 -0.1117  0.1868
  156SOL    HW1 1367   5.538   1.266   1.887 -0.3920  1.3070  0.7568
  156SOL    HW2 1368   5.414   1.180   1.824  1.6162 -1.2464  0.1516
  157SOL     OW 1369   0.492   3.852   3.005 -0.2953  0.0561 -0.1657
  157SOL    HW1 1370   0.582   3.888   2.979  0.0370 -0.1784  0.6202
  157SOL    HW2 1371   0.431   3.854   2.926  1.1684 -2.1970 -1.4626
  158SOL     OW 1372   3.125   1.937   4.277  0.2837 -0.8262 -0.7265
  158SOL    HW1 1373   3.051   1.876   4.308  0.2092 -0.4743 -0.2045
  158SOL    HW2 1374   3.165   1.983   4.356 -0.5026  0.7736 -1.2337
  159SOL     OW 1375   4.179   3.613   1.095 -0.3614  0.8959 -0.0828
  159SOL    HW1 1376   4.248   3.678   1.127  0.9135 -0.5011  0.0988
  159SOL    HW2 1377   4.119   3.587   1.172  0.7803 -0.1197  0.4947
  160SOL     OW 1378   6.143   3.508   4.803 -0.1873 -0.3017 -0.1179
  160SOL    HW1 1379   6.207   3.585   4.808  0.2092 -0.6982  1.5329
  160SOL    HW2 1380   6.087   3.517   4.721 -0.1517  1.7659  0.0150
  161SOL     OW 1381   3.854   3.995   5.091  0.8824  0.0525 -0.5590
  161SOL    HW1 1382   3.875   4.080   5.138 -1.6473 -0.1620  1.1867
  161SOL    HW2 1383   3.914   3.984   5.012  1.5668  3.2180 -0.5843
  162SOL     OW 1384   3.438   6.173   2.268 -0.9668  0.0611  0.5867
  162SOL    HW1 1385   3.385   6.119   2.202 -0.6513  0.3705  0.0728
  162SOL    HW2 1386   3.382   6.250   2.299 -1.0655 -0.0019  0.5683
  163SOL     OW 1387   4.845   0.525   2.382  0.1486 -0.4331 -0.2011
  163SOL    HW1 1388   4.857   0.464   2.303  1.6065  0.5721 -0.8008
  163SOL    HW2 1389   4.909   0.601   2.375 -2.6746  2.1029 -0.3277
  164SOL     OW 1390   0.463   2.409   0.766 -0.8920 -0.6684 -0.2727
  164SOL    HW1 1391   0.551   2.455   0.758 -0.5766 -0.7373  2.1647
  164SOL    HW2 1392   0.395   2.474   0.800 -1.9065 -0.5402 -2.3848
  165SOL     OW 1393   2.264   6.239   1.502 -0.4169 -0.4514  0.1502
  165SOL    HW1 1394   2.336   6.175   1.475  0.6278  1.0953 -0.8540
  165SOL    HW2 1395   2.305   6.320   1.542 -1.6707  0.0696  0.4270
  166SOL     OW 1396   1.766   5.228   0.454 -0.1429 -0.6708 -0.9591
  166SOL    HW1 1397   1.703   5.218   0.530  0.7767 -1.2905 -0.2520
  166SOL    HW2 1398   1.734   5.300   0.392 -0.7155  0.0937  0.2022
  167SOL     OW 1399   6.186   2.731   2.614  0.2188  0.6824  0.3436
  167SOL    HW1 1400   6.262   2.674   2.647  0.4056  1.4432  1.2652
  167SOL    HW2 1401   6.099   2.689   2.640  0.2925 -0.2478 -0.8041
  168SOL     OW 1402   1.799   5.413   2.321 -0.1754  0.0543 -0.4995
  168SOL    HW1 1403   1.890   5.450   2.301 -0.7778  1.0657 -1.4637
  168SOL    HW2 1404   1.801   5.367   2.410  1.1960  0.3400 -0.3590
  169SOL     OW 1405   6.968   6.898   0.316 -0.1294 -0.2001 -0.0019
  169SOL    HW1 1406   6.956   6.966   0.244  0.5738 -0.0987 -0.0272
  169SOL    HW2 1407   6.881   6.883   0.363 -0.5095 -0.0160 -0.6482
  170SOL     OW 1408   6.319   3.231   4.472  0.2914  0.5955 -0.1287
  170SOL    HW1 1409   6.376   3.240   4.390 -0.5525  1.5062 -0.6362
  170SOL    HW2 1410   6.223   3.222   4.445  0.2534 -1.9843  0.6707
  171SOL     OW 1411   3.372   5.065   6.705 -0.2902  0.0391 -0.4358
  171SOL    HW1 1412   3.417   5.021   6.627  2.2288  1.3550  0.1643
  171SOL    HW2 1413   3.436   5.127   6.750 -1.3657 -1.2454  3.2204
  172SOL     OW 1414   0.648   2.194   0.816  0.0803  0.1508  0.4142
  172SOL    HW1 1415   0.589   2.264   0.776 -0.3624 -0.8041 -0.6458
  172SOL    HW2 1416   0.744   2.217   0.800 -0.0634  0.5016  0.0569
  173SOL     OW 1417   1.230   1.758   5.559 -0.1460 -0.3152 -0.2032
  173SOL    HW1 1418   1.211   1.708   5.475 -0.3917 -0.2571 -0.1827
  173SOL    HW2 1419   1.172   1.839   5.565 -0.4620 -0.5710  0.2429
  174SOL     OW 1420   3.507   5.162   3.300  0.2441  0.0205  0.6242
  174SOL    HW1 1421   3.523   5.245   3.247  2.4891 -1.1713 -0.7438
  174SOL    HW2 1422   3.515   5.182   3.397  2.7970  1.1086  0.2811
  175SOL     OW 1423   0.521   0.347   2.104 -0.1652 -0.1550  0.1109
  175SOL    HW1 1424   0.474   0.337   2.016  0.9641  1.3712 -0.7101
  175SOL    HW2 1425   0.525   0.258   2.149  2.0351 -1.7514 -2.8628
  176SOL     OW 1426   2.356   5.048   6.700  0.1818 -0.3575 -0.2821
  176SOL    HW1 1427   2.435   5.090   6.743  0.2547 -0.0020 -0.7610
  176SOL    HW2 1428   2.362   5.058   6.601  0.4688 -1.9749 -0.4475
  177SOL     OW 1429   4.599   2.295   2.798 -0.0589  0.6232  0.5078
  177SOL    HW1 1430   4.521   2.232   2.793  0.2035  0.4063 -2.0285
  177SOL    HW2 1431   4.568   2.384   2.832 -2.5008  1.8720 -4.1318
  178SOL     OW 1432   3.927   4.836   6.425 -0.4514  0.0727 -0.2466
  178SOL    HW1 1433   3.953   4.925   6.388  1.2239  0.4774  1.7508
  178SOL    HW2 1434   3.827   4.832   6.436 -0.8524  0.5649 -3.0190
  179SOL     OW 1435   2.283   6.568   6.791 -0.1104  0.1253 -0.1675
  179SOL    HW1 1436   2.296   6.482   6.840  0.3390 -0.7028 -1.7088
  179SOL    HW2 1437   2.239   6.634   6.853  1.9804 -0.2914  1.9118
  180SOL     OW 1438   1.502   1.582   0.022 -0.3608 -0.6037 -0.1043
  180SOL    HW1 1439   1.580   1.524   0.046 -1.1904 -1.1170  1.4334
  180SOL    HW2 1440   1.422   1.525   0.003 -0.6179 -0.0390 -0.7837
  181SOL     OW 1441   2.920   3.569   3.418  0.1302  0.7133  0.6479
  181SOL    HW1 1442   3.005   3.607   3.382  0.5689  1.1703  2.1023
  181SOL    HW2 1443   2.909   3.595   3.513 -0.8081 -0.7580  0.9880
  182SOL     OW 1444   4.407   3.600   5.282  0.4116 -0.0133 -0.0809
  182SOL    HW1 1445   4.397   3.693   5.316 -0.6183 -0.4620  0.9198
  182SOL    HW2 1446   4.502   3.584   5.255  0.6337  1.2566 -0.0889
  183SOL     OW 1447   6.208   1.311   2.623  0.1181 -0.5573  0.0622
  183SOL    HW1 1448   6.257   1.308   2.537 -0.1307 -2.3750 -0.0496
  183SOL    HW2 1449   6.271   1.295   2.699 -0.1234 -2.1156 -0.0297
  184SOL     OW 1450   0.401   4.001   1.106  0.2724 -0.4421 -0.2340
  184SOL    HW1 1451   0.460   4.031   1.031  2.1578  2.5198  2.1849
  184SOL    HW2 1452   0.458   3.961   1.179 -1.2548 -1.4707  0.4443
  185SOL     OW 1453   4.170   3.520   4.982 -0.4307 -0.6776 -0.1378
  185SOL    HW1 1454   4.260   3.487   4.954  0.5625 -0.2401  2.2551
  185SOL    HW2 1455   4.139   3.591   4.920  0.7833 -0.9603 -1.1021
  186SOL     OW 1456   5.639   0.178   3.723 -0.0164 -0.2176 -0.3003
  186SOL    HW1 1457   5.718   0.186   3.784  0.1963 -0.7205 -0.5030
  186SOL    HW2 1458   5.652   0.100   3.663 -0.5964 -0.2013 -0.4491
  187SOL     OW 1459   6.005   0.732   3.427  0.0368  0.3165  0.2974
  187SOL    HW1 1460   5.911   0.765   3.421 -0.1165 -0.2328 -0.3963
  187SOL    HW2 1461   6.017   0.681   3.513 -0.1306  0.8803  0.6617
  188SOL     OW 1462   5.497   1.489   5.491  0.6085  0.6647 -0.2855
  188SOL    HW1 1463   5.580   1.545   5.490  1.1197 -0.0938 -1.2295
  188SOL    HW2 1464   5.468   1.471   5.398  1.8831 -2.7162 -0.1636
  189SOL     OW 1465   2.417   4.595   2.871 -0.0743 -0.2311  0.1336
  189SOL    HW1 1466   2.343   4.661   2.858  0.5306  0.3781 -0.3518
  189SOL    HW2 1467   2.489   4.614   2.804  0.9963 -0.1247  1.2875
  190SOL     OW 1468   2.902   6.040   6.864 -0.2964 -0.1172  0.1089
  190SOL    HW1 1469   2.985   6.061   6.811 -0.0307 -0.7023  0.2818
  190SOL    HW2 1470   2.923   6.048   6.962 -0.7839  0.9545  0.1382
  191SOL     OW 1471   6.272   5.814   6.045  0.1922  0.0385  0.2557
  191SOL    HW1 1472   6.223   5.742   6.094  0.0225 -0.5306 -0.7188
  191SOL    HW2 1473   6.340   5.855   6.105  0.0304 -0.6751  0.9451
  192SOL     OW 1474   0.440   0.410   6.482  0.5029  0.1918  0.7144
  192SOL    HW1 1475   0.523   0.404   6.537  1.2977 -3.9201 -0.5538
  192SOL    HW2 1476   0.464   0.432   6.387  0.2389 -0.9265  0.3603
  193SOL     OW 1477   0.917   4.557   0.962  0.1063  0.2615  0.1679
  193SOL    HW1 1478   1.013   4.548   0.988  0.3391 -0.1339 -0.7895
  193SOL    HW2 1479   0.907   4.539   0.864 -0.8995  0.6163  0.1927
  194SOL     OW 1480   4.631   6.040   4.295  0.1533 -0.0996 -0.8079
  194SOL    HW1 1481   4.543   6.083   4.275  0.8973  1.4066 -0.9869
  194SOL    HW2 1482   4.705   6.100   4.267  1.2774 -0.0421  1.9096
  195SOL     OW 1483   0.234   5.542   3.807  0.6565  0.1552 -0.1923
  195SOL    HW1 1484   0.230   5.445   3.832  0.0490  0.0755 -0.5735
  195SOL    HW2 1485   0.141   5.579   3.803  0.9813  1.3525  2.1942
  196SOL     OW 1486   6.678   0.897   1.783 -0.5230 -0.0853  0.0578
  196SOL    HW1 1487   6.637   0.985   1.804 -0.4646 -0.1701  0.5316
  196SOL    HW2 1488   6.741   0.907   1.706 -1.4792  0.0325 -0.7325
  197SOL     OW 1489   2.410   0.181   0.374  0.1713  0.3906  0.1234
  197SOL    HW1 1490   2.320   0.137   0.381  0.5572 -0.3073  0.7788
  197SOL    HW2 1491   2.440   0.180   0.278 -0.1165 -0.1924  0.0345
  198SOL     OW 1492   2.028   2.429   5.760 -0.0051  0.0880 -0.0272
  198SOL    HW1 1493   2.112   2.482   5.772  0.2256 -0.3044  0.1115
  198SOL    HW2 1494   2.038   2.368   5.681  0.4619 -1.1284  0.9246
  199SOL     OW 1495   0.771   1.631   4.901 -0.1855  0.3926 -0.1338
  199SOL    HW1 1496   0.823   1.615   4.818  0.6193  2.3696 -0.0651
  199SOL    HW2 1497   0.679   1.663   4.877 -0.7869 -1.2938 -0.2342
  200SOL     OW 1498   4.589   2.023   6.405  0.5263 -0.0117  0.1646
  200SOL    HW1 1499   4.613   2.098   6.467  0.5122  0.7313 -0.7044
  200SOL    HW2 1500   4.584   2.058   6.311  1.8090 -1.3671 -0.4547
  201SOL     OW 1501   6.907   2.993   5.165 -0.1796 -0.0856  0.0046
  201SOL    HW1 1502   6.946   3.048   5.092  0.5638 -0.4184  0.1482
  201SOL    HW2 1503   6.831   3.042   5.207 -1.5185 -0.4477 -1.8799
  202SOL     OW 1504   5.348   1.526   0.684  0.2344 -0.2434 -0.1948
  202SOL    HW1 1505   5.294   1.600   0.643 -0.2211 -1.2265 -1.4289
  202SOL    HW2 1506   5.319   1.513   0.779 -0.5956  0.2896 -0.3642
  203SOL     OW 1507   6.195   3.117   6.197  0.0105 -0.1357 -0.3265
  203SOL    HW1 1508   6.263   3.142   6.266 -0.5605 -3.3995  1.6041
  203SOL    HW2 1509   6.205   3.021   6.172 -2.2555 -0.0463 -1.9297
  204SOL     OW 1510   6.881   0.285   4.926  0.2655  0.5144  0.3066
  204SOL    HW1 1511   6.887   0.310   4.830  0.0942 -1.5074 -0.2739
  204SOL    HW2 1512   6.969   0.249   4.957  0.0346  0.2086  0.6178
  205SOL     OW 1513   2.580   5.278   4.261 -0.1048  0.3487 -0.2243
  205SOL    HW1 1514   2.548   5.293   4.355  1.6607  1.2035  0.2933
  205SOL    HW2 1515   2.674   5.243   4.263  1.5086  4.0677 -1.5989
  206SOL     OW 1516   6.906   4.597   6.956 -0.0921 -0.5090 -0.1001
  206SOL    HW1 1517   6.932   4.691   6.980  2.4670 -0.8335 -1.2662
  206SOL    HW2 1518   6.822   4.599   6.902  0.6057  1.2693 -1.2272
  207SOL     OW 1519   5.693   3.573   3.976  0.0135 -0.1867 -0.1478
  207SOL    HW1 1520   5.620   3.556   3.910  0.6853  0.6729 -1.1313
  207SOL    HW2 1521   5.661   3.635   4.047 -0.7877 -1.3017  0.4899
  208SOL     OW 1522   1.445   2.402   5.095  0.1791 -0.1783  0.3495
  208SOL    HW1 1523   1.431   2.305   5.076  0.9403  0.0300 -1.5014
  208SOL    HW2 1524   1.469   2.414   5.191 -0.8586 -1.7027  0.8400
  209SOL     OW 1525   0.218   1.556   0.793 -0.1474  0.2388  0.0289
  209SOL    HW1 1526   0.144   1.623   0.795  1.0868  1.8212 -2.3584
  209SOL    HW2 1527   0.257   1.547   0.884 -2.9444 -0.3844  1.2925
  210SOL     OW 1528   4.849   5.562   1.727  0.6900 -0.3711 -0.3067
  210SOL    HW1 1529   4.865   5.561   1.629  0.4991 -1.5693 -0.3402
  210SOL    HW2 1530   4.920   5.508   1.773 -0.4452 -1.6485 -0.0060
  211SOL     OW 1531   1.701   3.724   1.346 -0.5141  0.0388  0.2704
  211SOL    HW1 1532   1.768   3.746   1.276 -1.1522 -0.3882 -0.4844
  211SOL    HW2 1533   1.748   3.691   1.428  0.1662 -0.8907 -0.4730
  212SOL     OW 1534   2.393   3.929   1.388 -0.1526 -0.7484  0.2871
  212SOL    HW1 1535   2.462   3.857   1.385  1.4112  0.6628  0.7547
  212SOL    HW2 1536   2.319   3.902   1.450  1.6343 -0.9312  2.4495
  213SOL     OW 1537   0.794   5.754   1.560 -0.3348 -0.5547  0.2935
  213SOL    HW1 1538   0.706   5.753   1.608 -0.3492 -1.1509  0.2621
  213SOL    HW2 1539   0.812   5.663   1.521 -0.9996  0.2601 -2.0654
  214SOL     OW 1540   4.052   6.973   1.072 -0.2841  0.2979  0.1951
  214SOL    HW1 1541   4.118   7.044   1.095  2.0813 -2.2005  1.8207
  214SOL    HW2 1542   3.981   6.970   1.142  0.9174 -0.3670  1.4380
  215SOL     OW 1543   2.431   4.791   3.184  0.1088  0.0936  0.8662
  215SOL    HW1 1544   2.360   4.724   3.205  0.1706 -0.5924 -0.8969
  215SOL    HW2 1545   2.518   4.760   3.223 -0.0682 -0.3251  0.9377
  216SOL     OW 1546   2.109   4.762   2.535  0.5187  0.2963  0.2458
  216SOL    HW1 1547   2.099   4.812   2.448  1.2362 -1.0768 -0.6530
  216SOL    HW2 1548   2.203   4.732   2.545  0.3483  0.1084  1.3317
  217SOL     OW 1549   0.076   4.891   6.125  0.2751  0.1180  0.2050
  217SOL    HW1 1550   0.028   4.882   6.212 -0.1898 -1.0200 -0.1449
  217SOL    HW2 1551   0.024   4.950   6.063 -0.7745 -1.1584 -0.1969
  218SOL     OW 1552   3.777   3.691   4.874  0.1911  0.8013 -0.2563
  218SOL    HW1 1553   3.742   3.640   4.953  1.0758  0.0852 -0.3147
  218SOL    HW2 1554   3.706   3.753   4.841 -1.1527 -0.8688 -0.6149
  219SOL     OW 1555   3.144   2.064   1.131  0.1555 -0.0712 -0.5197
  219SOL    HW1 1556   3.186   2.150   1.100  1.3182  0.0158  1.1479
  219SOL    HW2 1557   3.094   2.080   1.216  1.0156 -1.1599  0.2259
  220SOL     OW 1558   3.380   6.037   6.234 -0.3869 -0.8443  0.4375
  220SOL    HW1 1559   3.407   6.054   6.328  0.7803 -0.7658  0.1064
  220SOL    HW2 1560   3.403   6.117   6.177 -0.0877 -1.3047 -0.1011
  221SOL     OW 1561   4.181   3.943   1.365  0.2266 -0.5005  0.3785
  221SOL    HW1 1562   4.269   3.934   1.318 -0.0171  0.5582 -0.3006
  221SOL    HW2 1563   4.130   3.857   1.358  0.6752 -0.7165 -0.2901
  222SOL     OW 1564   1.228   3.456   6.018 -0.2261  0.3476 -0.3714
  222SOL    HW1 1565   1.266   3.473   5.927 -1.5618  0.2282 -0.9821
  222SOL    HW2 1566   1.297   3.412   6.075  0.5834  0.2564 -1.3878
  223SOL     OW 1567   6.432   1.976   5.779  0.2858 -0.3974  0.0966
  223SOL    HW1 1568   6.489   2.057   5.762 -0.2412 -0.3849 -1.8292
  223SOL    HW2 1569   6.339   1.993   5.745 -0.0319 -1.5578  0.3376
  224SOL     OW 1570   2.860   2.040   5.291 -0.1173  0.5223  0.2854
  224SOL    HW1 1571   2.915   2.084   5.362  1.0428  0.3274 -0.4636
  224SOL    HW2 1572   2.855   2.100   5.211  1.0983 -0.4566 -0.5762
  225SOL     OW 1573   3.456   4.868   5.120 -0.4995 -0.3793  0.1437
  225SOL    HW1 1574   3.383   4.827   5.175 -0.6510 -1.9734 -1.1787
  225SOL    HW2 1575   3.543   4.825   5.141 -0.3025  0.0252  0.1732
  226SOL     OW 1576   2.651   1.577   1.255  0.3411  0.1027  0.3742
  226SOL    HW1 1577   2.622   1.517   1.330 -0.9866  0.3158  0.0559
  226SOL    HW2 1578   2.729   1.632   1.285  0.5171 -0.5817  1.2246
  227SOL     OW 1579   0.717   5.595   2.248 -0.6906 -0.1030 -0.3928
  227SOL    HW1 1580   0.814   5.571   2.237 -0.2489  0.6488  1.5841
  227SOL    HW2 1581   0.704   5.646   2.333 -2.6547  0.8640 -1.2122
  228SOL     OW 1582   1.652   5.870   1.185  0.2753 -0.5861 -0.4876
  228SOL    HW1 1583   1.561   5.847   1.148 -0.4074  0.0701  0.7293
  228SOL    HW2 1584   1.665   5.969   1.183  0.4463 -0.5796  0.5085
  229SOL     OW 1585   5.069   1.562   5.853 -0.0339 -0.0287  0.3392
  229SOL    HW1 1586   5.131   1.489   5.824 -0.8939 -1.0549  1.0037
  229SOL    HW2 1587   5.071   1.568   5.953  1.0736  1.8273  0.2496
  230SOL     OW 1588   5.519   3.329   5.690 -0.2955 -0.4732 -0.1667
  230SOL    HW1 1589   5.490   3.387   5.614 -0.7076  2.1648  1.8586
  230SOL    HW2 1590   5.610   3.292   5.671  0.8636  2.4081 -0.8753
  231SOL     OW 1591   4.628   0.923   0.437  0.6283 -0.8438  0.2198
  231SOL    HW1 1592   4.632   0.949   0.341  0.9200  1.3562  0.7844
  231SOL    HW2 1593   4.637   0.824   0.445  2.6958 -0.8928 -1.8752
  232SOL     OW 1594   3.228   3.856   5.364 -0.3054 -0.4778  0.4473
  232SOL    HW1 1595   3.308   3.857   5.304 -0.3685  0.3685  0.3552
  232SOL    HW2 1596   3.148   3.826   5.313 -0.0980 -1.1057  0.4799
  233SOL     OW 1597   3.486   2.219   5.205 -0.1243  0.3224 -0.2871
  233SOL    HW1 1598   3.452   2.125   5.198  0.7518 -0.2361  1.8860
  233SOL    HW2 1599   3.409   2.282   5.213 -0.7976 -0.7330  2.8500
  234SOL     OW 1600   4.687   5.736   5.641 -0.2467 -0.0716  0.0274
  234SOL    HW1 1601   4.685   5.717   5.543  0.3003 -0.2125  0.0404
  234SOL    HW2 1602   4.781   5.755   5.669 -0.6036  1.5889  0.2141
  235SOL     OW 1603   5.811   3.373   1.392 -0.3691  0.2871 -0.2499
  235SOL    HW1 1604   5.743   3.310   1.356  0.6704 -1.3641  0.5648
  235SOL    HW2 1605   5.787   3.398   1.486 -0.3235  0.4159 -0.2723
  236SOL     OW 1606   3.667   5.422   4.744  0.5725 -0.2302  0.6624
  236SOL    HW1 1607   3.612   5.406   4.826  0.0822  0.1671  0.4188
  236SOL    HW2 1608   3.763   5.404   4.764  0.4536 -0.1617  1.3211
  237SOL     OW 1609   6.094   3.469   2.649 -0.0610 -0.3693  0.0526
  237SOL    HW1 1610   6.120   3.404   2.720  0.3861 -1.1941 -0.8394
  237SOL    HW2 1611   6.031   3.537   2.687  0.6010 -0.4474  1.3717
  238SOL     OW 1612   6.452   1.379   0.892 -0.2745  0.2526  0.5072
  238SOL    HW1 1613   6.422   1.329   0.810  0.9437 -0.7417  0.6376
  238SOL    HW2 1614   6.422   1.330   0.973  0.3782  0.0598  0.6387
  239SOL     OW 1615   2.620   3.760   6.861  0.9791 -0.3114  0.0918
  239SOL    HW1 1616   2.685   3.835   6.852 -1.2184  1.5919 -1.1254
  239SOL    HW2 1617   2.546   3.788   6.923 -0.8098 -0.6914 -1.7584
  240SOL     OW 1618   6.826   1.453   4.936  0.5554  0.0378  0.2989
  240SOL    HW1 1619   6.777   1.395   4.871  0.2766  0.8366 -0.2210
  240SOL    HW2 1620   6.923   1.456   4.911  0.7399 -0.8864  0.8451
  241SOL     OW 1621   2.609   1.952   0.953  0.1149 -0.4747  0.1408
  241SOL    HW1 1622   2.661   1.909   0.878 -0.8055 -1.9565  0.3108
  241SOL    HW2 1623   2.666   1.954   1.035 -0.2305 -2.6911  0.5084
  242SOL     OW 1624   3.179   2.853   1.309  0.2366  0.0498 -0.0900
  242SOL    HW1 1625   3.262   2.845   1.254  0.6818  0.5728  0.4920
  242SOL    HW2 1626   3.105   2.802   1.266  1.2350 -1.6468  0.1213
  243SOL     OW 1627   5.001   1.797   6.217 -0.0352 -0.6486  0.3842
  243SOL    HW1 1628   5.045   1.877   6.176 -0.6309 -0.1443  0.7027
  243SOL    HW2 1629   5.048   1.772   6.302  0.7037 -1.1984 -0.1743
  244SOL     OW 1630   4.697   2.469   4.657 -0.0592 -0.5101 -0.3711
  244SOL    HW1 1631   4.728   2.379   4.687  0.3941  0.1193  1.0881
  244SOL    HW2 1632   4.598   2.466   4.640 -0.2020 -1.0670  0.5106
  245SOL     OW 1633   2.127   0.606   5.086  0.3119 -0.2525  0.0963
  245SOL    HW1 1634   2.038   0.568   5.059 -0.0644  2.2311 -2.6232
  245SOL    HW2 1635   2.126   0.625   5.185 -1.2284 -2.5024  0.6029
  246SOL     OW 1636   1.136   1.753   3.141  0.0816  0.1082 -0.7050
  246SOL    HW1 1637   1.096   1.830   3.192  1.5570 -0.0084  0.7112
  246SOL    HW2 1638   1.098   1.752   3.048 -2.9811  0.1195  0.4272
  247SOL     OW 1639   2.271   6.959   1.017 -0.2310  0.0478  0.3491
  247SOL    HW1 1640   2.270   7.037   0.955 -1.9370  1.1550  1.6847
  247SOL    HW2 1641   2.198   6.895   0.991 -0.8180  0.4162  1.0425
  248SOL     OW 1642   4.016   2.635   0.121 -0.0961 -0.3157 -0.1540
  248SOL    HW1 1643   4.007   2.634   0.221 -1.0385  2.0840 -0.1336
  248SOL    HW2 1644   3.985   2.724   0.086 -0.9568 -1.5325 -2.7154
  249SOL     OW 1645   5.738   6.193   6.795  0.2371 -0.1955 -0.2639
  249SOL    HW1 1646   5.669   6.254   6.835  0.9549  1.2699 -1.1740
  249SOL    HW2 1647   5.692   6.116   6.751 -0.8345  0.6734 -0.7168
  250SOL     OW 1648   2.351   3.427   0.418 -0.4063  0.0981 -0.3901
  250SOL    HW1 1649   2.432   3.484   0.427 -0.7411  0.7012 -1.0464
  250SOL    HW2 1650   2.369   3.336   0.455  0.5978  0.1960 -0.6197
  251SOL     OW 1651   4.459   4.921   4.947  0.0877  0.4633  0.1465
  251SOL    HW1 1652   4.490   4.829   4.924 -2.0689 -0.6000  1.1501
  251SOL    HW2 1653   4.476   4.982   4.870  1.4893 -0.7799 -0.5781
  252SOL     OW 1654   0.902   6.553   0.563 -0.5361 -0.0817  0.0913
  252SOL    HW1 1655   0.825   6.529   0.621 -0.1936  0.5875  0.8423
  252SOL    HW2 1656   0.962   6.617   0.612  0.5930 -0.7347 -0.4024
  253SOL     OW 1657   3.744   0.202   6.664 -0.6896  0.0952 -0.3586
  253SOL    HW1 1658   3.807   0.218   6.740 -1.4407  2.6540 -0.1929
  253SOL    HW2 1659   3.653   0.181   6.699 -0.8249  0.3416 -0.5601
  254SOL     OW 1660   5.912   2.982   5.313  0.5747 -0.1739 -0.0459
  254SOL    HW1 1661   5.868   3.071   5.325 -0.5231 -0.2806 -2.6648
  254SOL    HW2 1662   5.967   2.961   5.394  1.4469  3.1841  0.3726
  255SOL     OW 1663   1.854   6.281   0.386 -0.0899 -1.1181  0.4579
  255SOL    HW1 1664   1.895   6.223   0.315  3.4670  0.0923  1.3300
  255SOL    HW2 1665   1.760   6.303   0.360  0.7818 -1.3391 -3.5260
  256SOL     OW 1666   5.002   2.968   4.779 -0.6443  0.3230 -0.4657
  256SOL    HW1 1667   5.053   3.019   4.710  0.1680  0.0030 -0.1165
  256SOL    HW2 1668   4.973   3.031   4.852 -1.1183  0.5795 -0.8666
  257SOL     OW 1669   5.496   5.966   2.883 -0.3593 -0.8821  0.0655
  257SOL    HW1 1670   5.430   5.904   2.839 -0.4322 -1.7197  1.2950
  257SOL    HW2 1671   5.585   5.956   2.839 -0.6211 -1.0818 -0.4333
  258SOL     OW 1672   0.773   3.355   0.029  0.1544 -0.5757 -0.4971
  258SOL    HW1 1673   0.810   3.268  -0.003  0.6543 -0.4554 -0.2720
  258SOL    HW2 1674   0.832   3.391   0.102  0.5744  0.4655 -1.3211
  259SOL     OW 1675   0.308   6.769   5.916 -0.5287  0.0102  0.4615
  259SOL    HW1 1676   0.274   6.719   5.995 -1.5818 -1.6759 -0.9949
  259SOL    HW2 1677   0.231   6.813   5.869 -0.2254 -0.7932 -0.8194
  260SOL     OW 1678   2.258   5.581   3.902  0.1666  0.1069 -0.1048
  260SOL    HW1 1679   2.318   5.502   3.904  1.4713  1.0339 -1.1047
  260SOL    HW2 1680   2.312   5.665   3.901 -1.1758  1.0543  1.0687
  261SOL     OW 1681   3.713   2.576   6.763 -0.0093 -0.0208 -0.5726
  261SOL    HW1 1682   3.677   2.516   6.691 -0.0181  0.3193 -0.8557
  261SOL    HW2 1683   3.668   2.555   6.850  0.9564 -1.3675 -0.3578
  262SOL     OW 1684   1.987   2.873   4.631  0.5316  0.0750 -0.0031
  262SOL    HW1 1685   1.899   2.921   4.640  0.5085  0.3700 -1.5255
  262SOL    HW2 1686   2.058   2.926   4.677  0.3239  1.0915 -0.7992
  263SOL     OW 1687   2.267   6.009   2.209  0.0489 -0.1622  0.3889
  263SOL    HW1 1688   2.334   6.038   2.141  0.5952  0.3327  1.1116
  263SOL    HW2 1689   2.310   5.944   2.272 -0.6609 -1.1883 -0.1613
  264SOL     OW 1690   6.113   4.542   0.741  0.4067 -0.1296  0.1835
  264SOL    HW1 1691   6.163   4.622   0.710 -2.7438  1.4996 -1.1618
  264SOL    HW2 1692   6.102   4.477   0.665 -1.2637  0.5608 -0.2175
  265SOL     OW 1693   0.343   1.756   1.753 -0.0738 -0.5448 -0.0881
  265SOL    HW1 1694   0.431   1.759   1.707 -0.2532  1.4123 -0.3657
  265SOL    HW2 1695   0.353   1.790   1.847 -0.5769 -0.1087 -0.1902
  266SOL     OW 1696   4.079   3.157   6.973  0.5005 -0.1060  0.0150
  266SOL    HW1 1697   4.166   3.206   6.960  0.8614 -0.4471  1.0504
  266SOL    HW2 1698   4.096   3.070   7.018 -0.4269 -0.0217  0.5507
  267SOL     OW 1699   2.111   5.967   3.089  0.2938  0.5835 -0.0390
  267SOL    HW1 1700   2.018   5.937   3.112 -0.4109 -0.0107 -3.2249
  267SOL    HW2 1701   2.114   6.067   3.082  0.1269  0.6572  0.8289
  268SOL     OW 1702   3.016   3.264   0.429 -0.0459  0.4524 -0.3699
  268SOL    HW1 1703   3.069   3.336   0.385 -0.7334  0.4104 -1.3072
  268SOL    HW2 1704   3.035   3.177   0.385 -0.8746  0.4369 -0.7205
  269SOL     OW 1705   6.279   0.553   1.280  0.0075  0.3048  0.2027
  269SOL    HW1 1706   6.186   0.527   1.256  0.4371 -0.1219 -1.0686
  269SOL    HW2 1707   6.298   0.646   1.247  0.2356  0.1546 -0.0882
  270SOL     OW 1708   5.279   2.125   5.468  0.2569 -0.0345 -0.0494
  270SOL    HW1 1709   5.361   2.177   5.443  0.0514 -0.0527 -0.7811
  270SOL    HW2 1710   5.199   2.164   5.422 -0.3373  0.6719  1.5268
  271SOL     OW 1711   1.742   5.082   3.111  0.8509  0.0681 -0.1446
  271SOL    HW1 1712   1.773   4.996   3.069 -1.3085 -1.0907  0.4677
  271SOL    HW2 1713   1.764   5.158   3.050  0.3359 -1.2373 -2.0784
  272SOL     OW 1714   2.393   4.931   2.328 -0.1984  0.3490  0.3044
  272SOL    HW1 1715   2.439   4.880   2.401  1.2645  1.1720 -0.0043
  272SOL    HW2 1716   2.317   4.877   2.292  1.2681 -1.6040 -0.0013
  273SOL     OW 1717   2.193   0.123   5.882 -0.0372  0.3540  0.4895
  273SOL    HW1 1718   2.226   0.194   5.820 -0.5610  0.3403  0.1935
  273SOL    HW2 1719   2.167   0.165   5.970 -1.5285  0.7347 -0.1002
  274SOL     OW 1720   3.806   0.851   4.459  0.3917  0.0306  0.2977
  274SOL    HW1 1721   3.884   0.882   4.404  0.0383  0.6135  0.1104
  274SOL    HW2 1722   3.722   0.865   4.407  0.0007  1.0380  1.1529
  275SOL     OW 1723   6.076   1.831   6.866 -0.0594 -0.1366  0.2637
  275SOL    HW1 1724   6.029   1.904   6.915 -1.1585 -0.1892 -0.7035
  275SOL    HW2 1725   6.076   1.849   6.768  0.3770 -1.0294  0.0811
  276SOL     OW 1726   6.229   6.405   4.548 -0.5728  0.1043  0.1163
  276SOL    HW1 1727   6.262   6.418   4.454  0.8603 -0.6843  0.4635
  276SOL    HW2 1728   6.293   6.345   4.597 -0.3068  1.9136  2.1399
  277SOL     OW 1729   6.459   3.080   1.479  0.1429  0.3628  0.4370
  277SOL    HW1 1730   6.414   3.129   1.553 -0.8413  1.6433 -0.9521
  277SOL    HW2 1731   6.390   3.039   1.419  0.9106 -0.4218  0.0661
  278SOL     OW 1732   6.548   4.824   4.284 -0.3033  0.7979  0.1641
  278SOL    HW1 1733   6.606   4.750   4.317 -1.5054  0.1842  0.9908
  278SOL    HW2 1734   6.538   4.893   4.356 -2.6115 -0.3437  1.0118
  279SOL     OW 1735   6.134   2.021   3.113 -0.2673  0.3812  0.2034
  279SOL    HW1 1736   6.060   1.981   3.058  0.6738 -0.8883 -0.1991
  279SOL    HW2 1737   6.178   2.094   3.063 -3.1161  3.3024  1.6044
  280SOL     OW 1738   2.043   5.699   3.216  0.1400  0.3538  0.2692
  280SOL    HW1 1739   1.966   5.744   3.261 -1.8539 -3.5517  1.1870
  280SOL    HW2 1740   2.014   5.666   3.126  1.4136  0.5236 -0.2248
  281SOL     OW 1741   1.884   3.611   1.534 -0.0421  0.4374 -0.2835
  281SOL    HW1 1742   1.892   3.629   1.633  0.3149  0.3653 -0.2970
  281SOL    HW2 1743   1.935   3.528   1.512  0.4572  0.8300 -0.6367
  282SOL     OW 1744   1.140   3.912   5.701  0.3616 -0.3809 -0.1819
  282SOL    HW1 1745   1.106   3.827   5.662 -0.9203 -0.1431  0.3665
  282SOL    HW2 1746   1.095   3.989   5.655 -0.1017 -0.0656  0.7792
  283SOL     OW 1747   2.655   3.838   6.233 -0.7926 -0.0201 -0.4813
  283SOL    HW1 1748   2.607   3.883   6.308 -0.3532  0.7525 -0.6558
  283SOL    HW2 1749   2.700   3.907   6.176  0.5480 -0.7058 -0.3062
  284SOL     OW 1750   1.805   3.516   2.496  0.0325 -0.1173  0.0990
  284SOL    HW1 1751   1.902   3.524   2.518  0.3438 -2.3430 -0.1988
  284SOL    HW2 1752   1.793   3.516   2.396 -0.4746  1.7176  0.1310
  285SOL     OW 1753   4.810   4.023   4.468 -0.0976 -0.3380 -0.4706
  285SOL    HW1 1754   4.848   3.936   4.500  2.0266  0.7709  0.2304
  285SOL    HW2 1755   4.783   4.079   4.547  0.3541  0.3784 -0.8084
  286SOL     OW 1756   2.605   6.015   1.196  0.0651  0.0898  0.3418
  286SOL    HW1 1757   2.567   6.043   1.284 -0.4330  0.7296 -0.0599
  286SOL    HW2 1758   2.690   5.966   1.210  0.8570  1.6121  1.1173
  287SOL     OW 1759   0.093   3.458   6.532 -0.3192 -0.2154 -0.1375
  287SOL    HW1 1760   0.141   3.409   6.460  0.8963 -0.3719  0.7497
  287SOL    HW2 1761  -0.004   3.465   6.509 -0.0098 -0.5409 -1.6165
  288SOL     OW 1762   6.206   2.315   1.788 -0.1106  0.0986 -0.2130
  288SOL    HW1 1763   6.185   2.398   1.840 -0.5355 -0.8065  1.0938
  288SOL    HW2 1764   6.187   2.235   1.844 -1.3379 -0.9390 -2.0177
  289SOL     OW 1765   3.108   5.784   6.412  0.0521 -0.5534  0.0939
  289SOL    HW1 1766   3.154   5.836   6.483  0.0867 -0.9175  0.3409
  289SOL    HW2 1767   3.134   5.819   6.322  3.7819 -3.0724  0.0018
  290SOL     OW 1768   2.109   0.442   4.202  0.3438  0.6476  0.5871
  290SOL    HW1 1769   2.189   0.401   4.245 -0.6866  1.5924  3.6677
  290SOL    HW2 1770   2.128   0.539   4.184  0.9108  0.1835 -1.7054
  291SOL     OW 1771   0.540   6.717   2.294 -0.4736 -0.1300 -0.4518
  291SOL    HW1 1772   0.640   6.716   2.285 -0.2223  2.3435  1.1410
  291SOL    HW2 1773   0.501   6.776   2.223 -0.4273  1.6256  0.9020
  292SOL     OW 1774   3.752   6.440   3.143 -0.9457 -0.1514  0.7978
  292SOL    HW1 1775   3.839   6.425   3.096 -0.5670  0.0274  1.4322
  292SOL    HW2 1776   3.768   6.490   3.228 -1.4920 -1.4193  1.6646
  293SOL     OW 1777   1.678   4.664   2.703  0.4800 -0.5974 -0.1837
  293SOL    HW1 1778   1.747   4.607   2.658  0.9815  0.1202 -0.3508
  293SOL    HW2 1779   1.712   4.694   2.792  0.5583  0.0814 -0.4350
  294SOL     OW 1780   6.130   0.003   6.480 -0.2539  0.2995 -0.1392
  294SOL    HW1 1781   6.189   0.072   6.438  0.6411 -0.0510  0.5132
  294SOL    HW2 1782   6.057  -0.022   6.416  0.0250  1.0863 -0.7763
  295SOL     OW 1783   5.215   0.271   3.820  0.1181  0.3355 -0.0592
  295SOL    HW1 1784   5.256   0.181   3.836 -1.0670 -0.1996  0.0405
  295SOL    HW2 1785   5.284   0.342   3.835  0.9232 -0.5253  0.4087
  296SOL     OW 1786   2.218   3.066   2.764 -0.7269 -0.7940 -0.1082
  296SOL    HW1 1787   2.227   3.072   2.863 -0.0267 -0.4314 -0.1891
  296SOL    HW2 1788   2.181   3.151   2.728  1.5323  0.1158 -0.4161
  297SOL     OW 1789   1.788   4.543   2.323 -0.4656 -0.7830  0.2985
  297SOL    HW1 1790   1.839   4.546   2.409 -1.2250 -0.3490  0.7497
  297SOL    HW2 1791   1.848   4.568   2.248 -0.0821  0.0229  0.8584
  298SOL     OW 1792   6.714   4.824   0.027  0.3484  0.0599 -0.2360
  298SOL    HW1 1793   6.701   4.826  -0.072 -0.9606  0.4585 -0.0689
  298SOL    HW2 1794   6.648   4.762   0.068  1.0508 -0.2990  0.3743
  299SOL     OW 1795   4.993   1.922   2.909 -0.6988  0.1853  0.0302
  299SOL    HW1 1796   5.055   1.959   2.979 -1.1951 -0.9658  1.1211
  299SOL    HW2 1797   4.913   1.982   2.901 -0.2950  0.7192 -0.0999
  300SOL     OW 1798   6.841   6.452   3.080  0.3599  0.5444 -0.0193
  300SOL    HW1 1799   6.800   6.367   3.114 -1.5386  1.1268 -0.7314
  300SOL    HW2 1800   6.818   6.527   3.142  1.9774  0.5834  0.5691
  301SOL     OW 1801   3.617   3.894   4.986 -0.5187  0.5374  0.3471
  301SOL    HW1 1802   3.610   3.928   4.892  0.3052  2.4364  0.9006
  301SOL    HW2 1803   3.707   3.918   5.022 -0.4887 -0.9794  1.3458
  302SOL     OW 1804   1.551   6.686   4.773  0.3685  0.2648 -0.1590
  302SOL    HW1 1805   1.511   6.638   4.851 -0.6040  1.1926 -0.0578
  302SOL    HW2 1806   1.645   6.712   4.794  0.3337 -0.0732  0.4433
  303SOL     OW 1807   0.131   0.524   4.338 -0.3124  0.0162  0.3238
  303SOL    HW1 1808   0.084   0.580   4.271  0.6324  1.4965  0.8437
  303SOL    HW2 1809   0.069   0.502   4.414 -1.0173 -0.6426 -0.4210
  304SOL     OW 1810   4.091   5.894   1.942  0.3376  0.2982 -0.3442
  304SOL    HW1 1811   4.163   5.824   1.951  0.2599  0.0038 -1.7414
  304SOL    HW2 1812   4.026   5.865   1.872  0.0670  1.5758 -0.6391
  305SOL     OW 1813   2.530   3.301   5.682  0.2275  0.4422 -0.3029
  305SOL    HW1 1814   2.464   3.343   5.619 -0.1911  0.9742  0.4770
  305SOL    HW2 1815   2.602   3.367   5.703  0.4865  0.1892 -0.3984
  306SOL     OW 1816   1.635   1.033   2.684  0.4328 -0.1036  0.8430
  306SOL    HW1 1817   1.567   0.994   2.622  0.4635  1.8104 -0.4890
  306SOL    HW2 1818   1.603   1.122   2.716  1.6256  0.1339  1.4215
  307SOL     OW 1819   3.698   0.323   2.091  0.2233 -0.1731  0.2454
  307SOL    HW1 1820   3.695   0.402   2.030 -0.7427  0.4224  1.0463
  307SOL    HW2 1821   3.666   0.349   2.182  0.8769 -1.2461  0.7989
  308SOL     OW 1822   0.520   4.447   4.799  0.0873 -0.1056  0.7622
  308SOL    HW1 1823   0.539   4.427   4.895  0.5805 -0.7768  0.5331
  308SOL    HW2 1824   0.453   4.521   4.793  0.6983  0.5322  1.6075
  309SOL     OW 1825   4.971   4.313   5.836 -0.3459 -0.1483  0.0331
  309SOL    HW1 1826   4.967   4.367   5.920  2.6854  1.0026 -0.4327
  309SOL    HW2 1827   4.957   4.217   5.858 -3.2582  0.4512  1.2634
  310SOL     OW 1828   0.414   0.405   1.017  0.2418 -0.4230  0.0773
  310SOL    HW1 1829   0.419   0.497   1.055  1.0447 -0.8639  1.0869
  310SOL    HW2 1830   0.503   0.361   1.023 -0.6155 -2.1010  1.8427
  311SOL     OW 1831   6.194   0.282   1.135  0.0749  0.2185  0.2287
  311SOL    HW1 1832   6.188   0.349   1.060  0.0359  0.5659  0.5397
  311SOL    HW2 1833   6.286   0.285   1.174  0.3507 -0.5412 -0.3312
  312SOL     OW 1834   4.542   6.499   6.056  0.3613 -0.4339 -0.0280
  312SOL    HW1 1835   4.504   6.528   6.144  0.5547  0.3152 -0.1891
  312SOL    HW2 1836   4.478   6.438   6.010  0.2133 -0.7469  0.5817
  313SOL     OW 1837   0.165   4.546   6.767  0.2829  0.6771  0.4647
  313SOL    HW1 1838   0.172   4.535   6.866  0.3402  1.3829  0.5488
  313SOL    HW2 1839   0.199   4.464   6.721 -0.6540 -0.0563  1.0394
  314SOL     OW 1840   3.138   4.851   2.465 -0.0595 -0.6149  0.0176
  314SOL    HW1 1841   3.043   4.883   2.455  0.2008 -0.1130 -0.9906
  314SOL    HW2 1842   3.145   4.757   2.434  0.1253 -0.0497 -1.7538
  315SOL     OW 1843   0.936   4.606   2.461  0.0467  0.0220 -0.8833
  315SOL    HW1 1844   1.021   4.566   2.496 -0.5479  0.1170  0.7405
  315SOL    HW2 1845   0.862   4.540   2.470 -0.3528  0.4622 -0.9215
  316SOL     OW 1846   2.376   2.765   4.558  0.3092  0.3058 -0.0958
  316SOL    HW1 1847   2.385   2.678   4.509  1.9487  0.8379 -0.8019
  316SOL    HW2 1848   2.341   2.835   4.495  2.9233  1.1213 -0.7412
  317SOL     OW 1849   6.266   2.999   1.265 -0.3135  0.3587  0.2364
  317SOL    HW1 1850   6.257   2.903   1.239  0.8455  0.1552  0.5579
  317SOL    HW2 1851   6.177   3.044   1.253 -0.3051 -0.1212 -2.4264
  318SOL     OW 1852   6.178   6.508   0.577  0.0076  0.5348 -0.4171
  318SOL    HW1 1853   6.132   6.584   0.531  2.0537  1.8980 -0.3734
  318SOL    HW2 1854   6.157   6.422   0.531 -0.9488  1.3694 -1.5894
  319SOL     OW 1855   0.744   0.801   5.662  0.3463  0.2982 -0.1797
  319SOL    HW1 1856   0.709   0.879   5.610  1.5435  0.7765 -0.2912
  319SOL    HW2 1857   0.667   0.745   5.693 -0.4148 -0.9896 -3.8818
  320SOL     OW 1858   5.369   1.732   3.903  0.7829  0.3593  0.0733
  320SOL    HW1 1859   5.385   1.634   3.886 -0.8671 -0.2882  1.8397
  320SOL    HW2 1860   5.273   1.753   3.885  0.3844  0.9309  2.5101
  321SOL     OW 1861   2.253   0.875   2.364 -0.1785 -0.3067 -0.5020
  321SOL    HW1 1862   2.192   0.886   2.442 -0.6974 -0.8902 -0.8107
  321SOL    HW2 1863   2.348   0.883   2.394 -0.3710  3.9397 -0.5307
  322SOL     OW 1864   4.851   3.635   5.378  0.4295 -0.1297  0.6302
  322SOL    HW1 1865   4.816   3.615   5.287 -0.1028 -0.6779  0.9448
  322SOL    HW2 1866   4.809   3.720   5.411  1.6977  0.8506 -0.1829
  323SOL     OW 1867   1.399   4.216   4.246  0.0311  0.1404  0.1424
  323SOL    HW1 1868   1.455   4.260   4.317 -0.4453  1.5207 -0.3086
  323SOL    HW2 1869   1.317   4.177   4.287  0.3305 -0.1069  0.5121
  324SOL     OW 1870   6.698   3.070   4.340  0.6303 -0.1429 -0.6454
  324SOL    HW1 1871   6.685   3.067   4.439 -0.0336  0.1734 -0.7231
  324SOL    HW2 1872   6.770   3.005   4.315 -0.6627 -1.8205 -0.2066
  325SOL     OW 1873   1.116   1.173   2.598  0.2645 -0.2607  0.2024
  325SOL    HW1 1874   1.023   1.152   2.568  0.3851  0.7994 -0.9798
  325SOL    HW2 1875   1.139   1.116   2.677 -1.4791 -0.3459  0.6904
  326SOL     OW 1876   2.958   2.188   3.068 -0.4234  0.4981 -0.2927
  326SOL    HW1 1877   3.047   2.143   3.076  0.0951  1.4792 -0.4220
  326SOL    HW2 1878   2.960   2.253   2.992 -1.0556  0.9466  0.0659
  327SOL     OW 1879   6.661   4.763   5.868  0.1693 -0.1385  0.5309
  327SOL    HW1 1880   6.570   4.730   5.844 -1.1338  0.5888  3.9714
  327SOL    HW2 1881   6.664   4.863   5.861  0.5764 -0.1276  0.8139
  328SOL     OW 1882   5.643   5.108   2.347  0.6117 -0.0776  0.2045
  328SOL    HW1 1883   5.660   5.087   2.443  0.1021  0.3562  0.3947
  328SOL    HW2 1884   5.606   5.201   2.339  1.1727  0.1009 -0.4589
  329SOL     OW 1885   4.164   3.734   2.011  0.2584 -0.2427 -0.0428
  329SOL    HW1 1886   4.109   3.685   2.078  0.0982 -0.6847 -0.4922
  329SOL    HW2 1887   4.261   3.732   2.039  0.0675  0.5136  0.7321
  330SOL     OW 1888   0.869   2.798   1.990  0.0084 -0.2145  0.1715
  330SOL    HW1 1889   0.860   2.831   1.896  0.9180 -0.0420  0.1343
  330SOL    HW2 1890   0.918   2.711   1.989 -1.3053 -0.9842  0.3730
  331SOL     OW 1891   0.865   6.270   6.493 -0.4862 -0.0840 -0.0422
  331SOL    HW1 1892   0.863   6.340   6.563 -0.1565  0.7719 -0.8707
  331SOL    HW2 1893   0.773   6.232   6.481 -0.7667  0.5670  0.0506
  332SOL     OW 1894   3.868   1.871   3.809  0.3067 -0.4538 -0.0818
  332SOL    HW1 1895   3.773   1.871   3.779  0.9047  1.2266 -2.1683
  332SOL    HW2 1896   3.889   1.957   3.855  0.2513 -1.7752  2.6374
  333SOL     OW 1897   4.468   5.958   0.377  0.3523 -0.0809 -0.1539
  333SOL    HW1 1898   4.492   5.873   0.424 -0.6144 -0.2426  0.0625
  333SOL    HW2 1899   4.467   5.941   0.278 -0.4815 -0.5050 -0.0832
  334SOL     OW 1900   5.227   6.371   4.378 -0.1972  0.0368 -0.4235
  334SOL    HW1 1901   5.210   6.298   4.312  0.1227  0.3279 -0.8334
  334SOL    HW2 1902   5.282   6.336   4.453 -0.3933 -0.2464 -0.4112
  335SOL     OW 1903   4.491   6.625   1.124  0.1908 -0.7375 -0.0722
  335SOL    HW1 1904   4.532   6.697   1.180 -0.4305 -1.6257  1.5994
  335SOL    HW2 1905   4.477   6.659   1.031  0.1159  1.2260  0.6039
  336SOL     OW 1906   2.226   1.333   4.388 -0.7808  0.1803 -0.0393
  336SOL    HW1 1907   2.193   1.320   4.482 -0.0127  0.9897  0.3566
  336SOL    HW2 1908   2.191   1.419   4.352  1.0902  1.2074  0.4974
  337SOL     OW 1909   0.723   4.061   2.389  0.4454  0.0742 -0.3853
  337SOL    HW1 1910   0.756   4.063   2.483 -0.5569  1.0343 -0.0344
  337SOL    HW2 1911   0.639   4.114   2.382  0.7428  0.3889 -1.9210
  338SOL     OW 1912   2.349   3.104   0.547 -0.0475  0.0359  0.0664
  338SOL    HW1 1913   2.260   3.102   0.501 -0.2076  0.2427  0.3645
  338SOL    HW2 1914   2.377   3.011   0.571 -0.5168  0.0260  0.6022
  339SOL     OW 1915   3.160   1.351   1.835 -0.2867 -0.0072 -0.0333
  339SOL    HW1 1916   3.235   1.417   1.825  0.9314 -1.4819 -1.0545
  339SOL    HW2 1917   3.154   1.295   1.753 -0.9101 -1.5527  1.0237
  340SOL     OW 1918   4.388   4.941   4.461 -0.2129  0.0831 -0.2471
  340SOL    HW1 1919   4.330   5.007   4.415 -0.5083 -0.9743 -1.4235
  340SOL    HW2 1920   4.332   4.870   4.503  0.1111  0.4683  0.8818
  341SOL     OW 1921   4.680   2.586   6.608  0.4557  0.3437 -0.2311
  341SOL    HW1 1922   4.701   2.672   6.561  0.7980  0.2116 -0.3173
  341SOL    HW2 1923   4.581   2.579   6.620  0.4107  0.6581 -0.4026
  342SOL     OW 1924   4.984   2.507   1.009 -0.8033 -0.1431  0.3812
  342SOL    HW1 1925   5.057   2.542   1.069  0.3252 -1.6572 -0.0576
  342SOL    HW2 1926   4.907   2.477   1.064 -0.1965 -0.5665  1.0086
  343SOL     OW 1927   2.485   1.473   3.344  0.1472 -0.1753 -0.3455
  343SOL    HW1 1928   2.487   1.548   3.277  1.9515  1.7553  1.7029
  343SOL    HW2 1929   2.470   1.386   3.296  0.4143  1.1829 -3.1072
  344SOL     OW 1930   5.676   5.743   1.069 -0.1510  0.2006 -0.2196
  344SOL    HW1 1931   5.616   5.807   1.118  1.6454  0.5874  1.5996
  344SOL    HW2 1932   5.738   5.699   1.134 -0.9146 -3.0253 -1.4954
  345SOL     OW 1933   0.901   0.360   5.109 -0.0492 -0.4941  0.5364
  345SOL    HW1 1934   0.876   0.287   5.046  0.6805 -1.2916  1.1542
  345SOL    HW2 1935   0.819   0.411   5.135 -0.5412 -0.9780 -0.0353
  346SOL     OW 1936   2.032   6.534   4.351  0.2694  0.3625  0.7534
  346SOL    HW1 1937   2.083   6.491   4.426  0.3193  0.2167  0.6356
  346SOL    HW2 1938   2.058   6.630   4.346  0.5363  0.2891  0.6939
  347SOL     OW 1939   6.406   5.682   5.487 -0.1751 -0.2658  0.2097
  347SOL    HW1 1940   6.335   5.724   5.543  0.8454 -0.2179  1.5223
  347SOL    HW2 1941   6.440   5.749   5.421  1.4898  1.1401  2.3349
  348SOL     OW 1942   2.580   6.113   4.198 -0.2548  0.2995  0.2594
  348SOL    HW1 1943   2.517   6.098   4.122  0.4936  1.7404 -0.6877
  348SOL    HW2 1944   2.615   6.025   4.231 -0.5532 -0.3444 -1.0947
  349SOL     OW 1945   2.157   6.403   2.359 -0.1294  0.2610  0.3208
  349SOL    HW1 1946   2.239   6.401   2.416  0.2074  0.6452 -0.1430
  349SOL    HW2 1947   2.076   6.412   2.418  0.1432 -0.3284  0.7922
  350SOL     OW 1948   6.733   2.746   2.325 -0.1497  0.3172 -0.2299
  350SOL    HW1 1949   6.641   2.707   2.332 -0.1887  0.5520  0.6538
  350SOL    HW2 1950   6.728   2.845   2.333  0.0954  0.3995 -1.0709
  351SOL     OW 1951   3.821   1.583   1.366 -0.0689 -0.0414 -0.5333
  351SOL    HW1 1952   3.854   1.559   1.457  1.8123 -0.1742 -1.2033
  351SOL    HW2 1953   3.734   1.631   1.374  0.5984  0.9524  1.4008
  352SOL     OW 1954   3.230   0.636   2.087 -0.2925 -0.3704  0.1699
  352SOL    HW1 1955   3.232   0.584   2.172  0.7524  0.5608  0.7378
  352SOL    HW2 1956   3.289   0.592   2.019 -1.7572 -1.5700 -0.3855
  353SOL     OW 1957   2.058   5.716   1.621 -0.1670 -0.5658  0.2638
  353SOL    HW1 1958   1.992   5.789   1.601  0.9843  1.1528  2.3276
  353SOL    HW2 1959   2.092   5.678   1.535 -0.3176  1.7902 -0.9286
  354SOL     OW 1960   4.002   0.862   2.555  0.2284  0.5180 -0.2508
  354SOL    HW1 1961   4.066   0.885   2.628 -0.7817 -1.6724  1.4626
  354SOL    HW2 1962   4.052   0.825   2.477  1.1366 -2.7587  1.6815
  355SOL     OW 1963   0.585   4.849   2.258 -0.2857 -0.0437  0.5589
  355SOL    HW1 1964   0.612   4.771   2.202  1.5359 -0.2484  1.6384
  355SOL    HW2 1965   0.536   4.915   2.202 -0.2525 -1.1183 -0.7973
  356SOL     OW 1966   3.452   0.527   1.928  0.0643 -0.4913  0.1225
  356SOL    HW1 1967   3.549   0.541   1.948  0.2039 -2.1389  0.7369
  356SOL    HW2 1968   3.419   0.447   1.977 -2.4313  1.7911  2.5798
  357SOL     OW 1969   1.927   3.811   5.197  0.2269 -0.3783  0.3283
  357SOL    HW1 1970   1.878   3.887   5.155 -0.8446 -0.0530  2.0673
  357SOL    HW2 1971   2.020   3.839   5.219  0.7668 -0.5184 -1.6172
  358SOL     OW 1972   5.072   0.299   5.805  0.4665 -0.2148  0.1255
  358SOL    HW1 1973   5.052   0.219   5.861 -0.0240 -0.0711  0.1649
  358SOL    HW2 1974   5.099   0.375   5.863  1.4849 -0.5029  0.0490
  359SOL     OW 1975   0.511   1.680   6.414 -0.8491 -0.4420  0.4558
  359SOL    HW1 1976   0.507   1.648   6.509 -0.3489 -1.9845  0.0013
  359SOL    HW2 1977   0.551   1.608   6.357 -0.7532  0.6192 -0.8617
  360SOL     OW 1978   4.544   0.967   6.554  0.6620  0.5674  0.0583
  360SOL    HW1 1979   4.503   0.880   6.525  2.5885  0.4411 -2.6937
  360SOL    HW2 1980   4.575   0.959   6.649 -0.0485 -1.4203  0.1760
  361SOL     OW 1981   2.532   1.708   3.169 -0.0692 -0.3817  0.3357
  361SOL    HW1 1982   2.464   1.740   3.103  0.9287 -0.4762 -0.7657
  361SOL    HW2 1983   2.624   1.731   3.137  0.4740 -0.9238  1.4266
  362SOL     OW 1984   3.322   4.115   6.863 -0.5213 -0.1538  0.4986
  362SOL    HW1 1985   3.415   4.115   6.900 -0.6678  0.4274  0.8890
  362SOL    HW2 1986   3.262   4.166   6.925 -0.1595  3.7624 -2.0610
  363SOL     OW 1987   4.447   5.269   2.970  0.4104  0.0165 -0.2739
  363SOL    HW1 1988   4.400   5.300   2.887  0.0218 -0.5748 -0.2737
  363SOL    HW2 1989   4.545   5.259   2.950  0.5160  1.0562 -0.3246
  364SOL     OW 1990   2.759   5.532   5.505  0.2254  0.5352 -0.2029
  364SOL    HW1 1991   2.845   5.482   5.513 -1.4305 -2.3055  1.4242
  364SOL    HW2 1992   2.715   5.508   5.418 -0.2999 -0.4600  0.3216
  365SOL     OW 1993   4.809   6.710   2.472 -0.0826 -0.0108 -0.2588
  365SOL    HW1 1994   4.787   6.658   2.555  0.8375  0.0219  0.0195
  365SOL    HW2 1995   4.735   6.700   2.406 -0.7802 -0.1252  0.5245
  366SOL     OW 1996   0.011   6.669   0.180  0.5207 -0.5149 -0.1215
  366SOL    HW1 1997  -0.029   6.744   0.234  0.4698 -1.0470  0.6056
  366SOL    HW2 1998   0.073   6.707   0.111 -2.0774  0.4525 -2.1122
  367SOL     OW 1999   5.905   1.790   1.492  0.1592  0.3452  0.1699
  367SOL    HW1 2000   5.879   1.854   1.419 -0.5973  2.2638  2.0318
  367SOL    HW2 2001   5.985   1.826   1.540 -0.0436 -0.3165  1.0066
  368SOL     OW 2002   6.834   5.358   4.701 -0.0241 -0.1820 -0.5862
  368SOL    HW1 2003   6.774   5.430   4.737  0.0375 -0.2991 -0.2453
  368SOL    HW2 2004   6.874   5.307   4.777 -0.7081 -1.1094 -0.8290
  369SOL     OW 2005   0.914   4.779   0.644 -0.1857  0.1227 -0.3061
  369SOL    HW1 2006   0.895   4.795   0.548 -0.0781 -0.2103 -0.3834
  369SOL    HW2 2007   0.936   4.682   0.659 -0.4679  0.1185  0.0967
  370SOL     OW 2008   4.048   1.889   0.400  0.1471  0.2605 -0.0349
  370SOL    HW1 2009   3.959   1.935   0.392 -2.8357 -4.7850 -0.9012
  370SOL    HW2 2010   4.096   1.894   0.312 -1.1555 -0.0111 -0.8042
  371SOL     OW 2011   1.819   2.483   5.946  0.0183 -0.3214 -0.1150
  371SOL    HW1 2012   1.882   2.495   5.870  1.1135 -1.0246  0.6473
  371SOL    HW2 2013   1.857   2.417   6.011  0.3451  2.0966  2.3434
  372SOL     OW 2014   2.589   4.793   0.349  0.1970 -0.2889  0.4058
  372SOL    HW1 2015   2.557   4.771   0.257 -1.1058  2.8066  0.0035
  372SOL    HW2 2016   2.582   4.711   0.407 -0.3161 -1.9344 -1.8309
  373SOL     OW 2017   6.257   0.155   5.567 -0.0087  0.3873 -0.2095
  373SOL    HW1 2018   6.338   0.210   5.549 -0.9421  1.8392 -0.0928
  373SOL    HW2 2019   6.181   0.187   5.510 -0.3798 -1.3108 -0.7395
  374SOL     OW 2020   6.576   1.952   0.240 -0.0352 -0.0434  0.5629
  374SOL    HW1 2021   6.670   1.947   0.273 -0.4782  0.7224  2.0170
  374SOL    HW2 2022   6.545   2.047   0.240 -0.8816 -0.3097  0.2744
  375SOL     OW 2023   6.608   2.625   1.680 -0.3784  0.2573  0.5873
  375SOL    HW1 2024   6.569   2.537   1.706 -1.2131  0.1742 -0.8582
  375SOL    HW2 2025   6.548   2.671   1.615  1.5978  0.4031 -1.2698
  376SOL     OW 2026   1.802   4.388   4.716 -0.1204  0.4890  0.0423
  376SOL    HW1 2027   1.727   4.340   4.762  0.4510  2.1083  2.9043
  376SOL    HW2 2028   1.768   4.475   4.679  0.3335  1.3848  1.6416
  377SOL     OW 2029   4.701   0.219   3.285 -0.6272 -0.0858 -0.1717
  377SOL    HW1 2030   4.800   0.220   3.275 -0.6020 -0.8536 -0.0802
  377SOL    HW2 2031   4.673   0.282   3.357 -0.1768 -0.1338  0.0446
  378SOL     OW 2032   4.361   5.412   6.973 -0.3194 -0.2551 -0.5152
  378SOL    HW1 2033   4.322   5.386   6.885 -0.2027  0.3016 -0.7329
  378SOL    HW2 2034   4.349   5.510   6.988  0.9816 -0.0654 -0.5832
  379SOL     OW 2035   6.839   0.648   0.959  0.1809 -0.7644  0.1994
  379SOL    HW1 2036   6.909   0.577   0.951  1.2512  0.3525 -0.8082
  379SOL    HW2 2037   6.835   0.700   0.874 -1.6709 -0.5822  0.3646
  380SOL     OW 2038   6.712   2.616   0.149  0.3888 -0.8284  0.5425
  380SOL    HW1 2039   6.725   2.543   0.082  3.6694 -0.3964  0.5470
  380SOL    HW2 2040   6.721   2.705   0.104  1.0100 -0.5193  1.2497
  381SOL     OW 2041   6.206   3.834   5.729  0.0374  0.1714 -0.3191
  381SOL    HW1 2042   6.178   3.756   5.673 -1.7816  0.3972  0.2123
  381SOL    HW2 2043   6.144   3.911   5.713  0.6453  0.8743  0.5955
  382SOL     OW 2044   2.178   5.475   1.115  0.4222  0.2763  0.4176
  382SOL    HW1 2045   2.164   5.379   1.137  0.0330 -0.4177 -2.4353
  382SOL    HW2 2046   2.091   5.523   1.115  0.4939  0.4085  0.9101
  383SOL     OW 2047   5.938   1.811   6.118 -0.0490 -0.1170  0.4878
  383SOL    HW1 2048   6.027   1.780   6.152  1.6736  1.1852 -2.4322
  383SOL    HW2 2049   5.889   1.733   6.078  1.6392 -0.2552 -1.4914
  384SOL     OW 2050   1.636   0.166   4.096  0.2213 -0.4044  0.4554
  384SOL    HW1 2051   1.595   0.077   4.074 -0.5175  0.5134 -2.1875
  384SOL    HW2 2052   1.602   0.196   4.185 -1.5598 -1.6087  0.2412
  385SOL     OW 2053   3.562   4.754   1.158 -0.4752 -0.1074  0.0231
  385SOL    HW1 2054   3.622   4.682   1.123  0.1854  0.0262  0.8672
  385SOL    HW2 2055   3.577   4.766   1.256 -1.4382  0.3607  0.1305
  386SOL     OW 2056   4.357   6.072   4.390  0.1705 -0.4509  0.3205
  386SOL    HW1 2057   4.338   6.044   4.484  1.0769  1.3537  1.0952
  386SOL    HW2 2058   4.287   6.035   4.329  1.3737 -4.4492  1.1240
  387SOL     OW 2059   1.406   6.983   5.657  0.2628  0.4557 -0.6651
  387SOL    HW1 2060   1.351   6.899   5.664  0.2361  0.3702 -1.7642
  387SOL    HW2 2061   1.384   7.043   5.734  2.4897 -1.7989  1.9955
  388SOL     OW 2062   0.055   2.277   6.691 -0.1776  0.6936 -0.5429
  388SOL    HW1 2063   0.125   2.245   6.627  0.8250 -1.7762  1.6121
  388SOL    HW2 2064   0.059   2.377   6.697  1.2462  0.8165 -2.5417
  389SOL     OW 2065   4.695   4.707   3.163  0.1399 -0.1743  0.4606
  389SOL    HW1 2066   4.622   4.654   3.119 -0.4566  0.3096  0.8595
  389SOL    HW2 2067   4.661   4.798   3.186  1.6475  1.0815 -1.8338
  390SOL     OW 2068   3.169   3.897   6.767  0.3375 -0.0569  0.1350
  390SOL    HW1 2069   3.096   3.899   6.698  0.2278 -0.1305  0.2480
  390SOL    HW2 2070   3.214   3.986   6.771  1.4055 -0.5072 -1.1618
  391SOL     OW 2071   3.303   3.411   2.150  0.3019  0.2626  0.5072
  391SOL    HW1 2072   3.257   3.498   2.129  1.7059  0.9925  0.3184
  391SOL    HW2 2073   3.349   3.378   2.068  0.8991  0.0347  0.9338
  392SOL     OW 2074   1.222   3.294   2.497  0.1020  0.1423 -0.3246
  392SOL    HW1 2075   1.184   3.238   2.570 -0.8333 -0.5274 -1.2933
  392SOL    HW2 2076   1.228   3.240   2.413  0.5664  1.0743 -0.9166
  393SOL     OW 2077   6.972   6.817   0.746  0.0331  0.0876  0.1955
  393SOL    HW1 2078   6.987   6.774   0.835  1.5444  1.4164  0.6145
  393SOL    HW2 2079   6.981   6.748   0.674  1.4921 -0.4998  0.9029
  394SOL     OW 2080   6.503   3.016   6.892 -0.1444  0.2301  0.1292
  394SOL    HW1 2081   6.469   2.934   6.937  1.6298 -1.0068 -0.6657
  394SOL    HW2 2082   6.529   3.084   6.961 -1.3656  0.0543  0.7983
  395SOL     OW 2083   0.918   6.046   6.945  0.4736  0.4403 -0.3390
  395SOL    HW1 2084   0.885   6.063   7.038 -1.6432  0.9587 -1.1185
  395SOL    HW2 2085   0.939   5.948   6.935 -0.3636  0.1746  0.3701
  396SOL     OW 2086   1.074   0.980   1.615 -0.1243 -0.4439 -0.5228
  396SOL    HW1 2087   1.084   1.070   1.659 -0.6272 -0.2012 -0.9025
  396SOL    HW2 2088   1.042   0.992   1.522 -0.6971 -1.0512 -0.4076
  397SOL     OW 2089   4.370   2.448   6.094  0.3085  0.3014  0.3319
  397SOL    HW1 2090   4.468   2.433   6.093  0.2489 -0.3640  1.7053
  397SOL    HW2 2091   4.324   2.379   6.037  0.6301  0.7106 -0.4371
  398SOL     OW 2092   6.302   1.565   3.806  0.4875 -0.0485 -0.2335
  398SOL    HW1 2093   6.234   1.626   3.766 -0.8920 -1.8867 -0.8328
  398SOL    HW2 2094   6.266   1.472   3.808  3.0393 -1.1197 -0.6274
  399SOL     OW 2095   1.215   4.400   4.957 -0.1178  0.2985 -0.5555
  399SOL    HW1 2096   1.233   4.493   4.990 -0.9485  0.4829 -0.6168
  399SOL    HW2 2097   1.237   4.335   5.030  0.0616  0.5631 -0.3668
  400SOL     OW 2098   2.288   6.045   3.714 -0.0928  0.0763  0.2084
  400SOL    HW1 2099   2.319   6.118   3.653 -0.6557  0.3962  0.2996
  400SOL    HW2 2100   2.358   5.974   3.718 -0.5119 -0.5064 -1.7093
  401SOL     OW 2101   0.062   5.504   4.782  0.7150 -0.6335 -0.3094
  401SOL    HW1 2102   0.016   5.569   4.842  0.4428 -0.2769 -0.8908
  401SOL    HW2 2103  -0.006   5.459   4.723  1.0287 -0.5847 -0.7165
  402SOL     OW 2104   0.985   2.596   4.809 -0.2356 -0.2466 -0.0981
  402SOL    HW1 2105   1.055   2.572   4.876 -2.1069 -0.0671  2.0125
  402SOL    HW2 2106   0.933   2.515   4.783 -2.4635  0.3068  2.2475
  403SOL     OW 2107   0.096   1.909   5.683 -0.0539  0.3670 -0.2017
  403SOL    HW1 2108   0.008   1.862   5.689  0.0741  0.0985 -0.3667
  403SOL    HW2 2109   0.136   1.918   5.774  0.8370 -1.6427 -0.3354
  404SOL     OW 2110   3.998   3.247   6.506 -0.2003 -0.3923  0.0969
  404SOL    HW1 2111   4.079   3.250   6.564 -0.6754 -1.9659  0.9036
  404SOL    HW2 2112   3.967   3.340   6.487  0.0634  0.1954  2.2794
  405SOL     OW 2113   2.839   6.822   4.528  0.0316  0.1659  0.0044
  405SOL    HW1 2114   2.930   6.801   4.493  0.1316  0.1003  0.2962
  405SOL    HW2 2115   2.847   6.866   4.617 -0.2536 -3.2688  1.9266
  406SOL     OW 2116   2.313   6.797   0.004  0.3713  0.0194 -0.0802
  406SOL    HW1 2117   2.267   6.869   0.056 -1.6559 -1.2469 -0.0195
  406SOL    HW2 2118   2.400   6.832  -0.031  0.0139  2.0950  0.9401
  407SOL     OW 2119   1.421   4.091   3.840 -0.4902 -0.1332 -0.4255
  407SOL    HW1 2120   1.359   4.168   3.821 -0.7664 -0.4972 -1.0283
  407SOL    HW2 2121   1.378   4.030   3.906 -2.3616 -2.1991 -3.3028
  408SOL     OW 2122   3.452   2.176   1.296 -0.1321  0.2583  0.6744
  408SOL    HW1 2123   3.539   2.226   1.286  0.0601 -0.0548  0.7758
  408SOL    HW2 2124   3.376   2.240   1.287  0.1247  0.6889  1.4366
  409SOL     OW 2125   0.732   2.378   1.711  0.7129  0.1191  0.2724
  409SOL    HW1 2126   0.690   2.295   1.674  1.1616 -0.5751  1.2636
  409SOL    HW2 2127   0.671   2.456   1.696  0.1287 -0.4539 -0.3759
  410SOL     OW 2128   1.372   5.945   1.220  0.5539  0.3564 -0.0743
  410SOL    HW1 2129   1.380   5.876   1.148  1.8146  0.8093 -0.3915
  410SOL    HW2 2130   1.317   5.909   1.295  0.9862 -0.8902 -0.3388
  411SOL     OW 2131   0.533   0.826   2.829  0.6748 -0.8835 -0.1155
  411SOL    HW1 2132   0.569   0.757   2.766  0.9453 -1.2678  0.4501
  411SOL    HW2 2133   0.538   0.916   2.786  1.5900 -1.0372 -0.3409
  412SOL     OW 2134   2.369   4.240   3.299  0.6774 -0.5228  0.1764
  412SOL    HW1 2135   2.426   4.312   3.260  1.4075 -0.9711  0.3987
  412SOL    HW2 2136   2.357   4.167   3.233  0.1475 -0.3162  0.0414
  413SOL     OW 2137   5.533   4.103   2.353 -0.1735  0.0877  0.0825
  413SOL    HW1 2138   5.605   4.160   2.314 -1.4356  1.8551  0.2053
  413SOL    HW2 2139   5.469   4.160   2.404 -1.5682 -1.4433  0.1576
  414SOL     OW 2140   1.574   2.038   4.128  0.1600 -0.0304 -0.5856
  414SOL    HW1 2141   1.580   2.060   4.226  0.3734 -0.4068 -0.5115
  414SOL    HW2 2142   1.646   2.087   4.079  0.8603 -0.8193 -0.3703
  415SOL     OW 2143   3.746   2.300   0.751  0.3914  0.5471  0.2255
  415SOL    HW1 2144   3.731   2.331   0.657 -1.4683  1.2490  0.7125
  415SOL    HW2 2145   3.840   2.267   0.760  0.9848  1.5918 -1.5584
  416SOL     OW 2146   6.674   2.221   6.820 -0.1480 -0.0210  0.5211
  416SOL    HW1 2147   6.580   2.199   6.792  0.6406 -0.8122 -1.7232
  416SOL    HW2 2148   6.673   2.303   6.877 -2.0800  0.9830 -0.8302
  417SOL     OW 2149   4.086   2.910   6.113 -0.0687 -0.3231  0.3628
  417SOL    HW1 2150   4.061   2.999   6.151  0.9331 -0.3334  1.0677
  417SOL    HW2 2151   4.010   2.876   6.057 -0.5996  0.8083  0.3609
  418SOL     OW 2152   4.589   4.728   5.615  0.5850 -0.2354  0.1177
  418SOL    HW1 2153   4.513   4.757   5.557  0.6466 -1.4823 -0.6255
  418SOL    HW2 2154   4.630   4.645   5.577  0.8903 -0.8638  1.7351
  419SOL     OW 2155   4.301   6.453   1.920  0.3894 -0.1610  0.3653
  419SOL    HW1 2156   4.227   6.519   1.928  0.8612  0.1857  2.4545
  419SOL    HW2 2157   4.322   6.415   2.010  1.2119 -1.9768 -0.5440
  420SOL     OW 2158   2.565   6.279   0.185  0.7766 -0.2141 -0.2827
  420SOL    HW1 2159   2.533   6.267   0.279 -0.9241 -2.1736 -1.0466
  420SOL    HW2 2160   2.603   6.371   0.175  0.2102  0.3489  2.0853
  421SOL     OW 2161   5.766   3.138   3.433  0.0994  0.0432  0.0136
  421SOL    HW1 2162   5.812   3.084   3.504 -0.4820  1.6833  1.7130
  421SOL    HW2 2163   5.826   3.146   3.354  1.5594 -0.2975  1.0367
  422SOL     OW 2164   3.483   0.763   2.344  0.4880  0.0702 -0.6083
  422SOL    HW1 2165   3.430   0.678   2.348 -0.2238  0.3336 -2.8057
  422SOL    HW2 2166   3.422   0.842   2.347  0.8130  0.4044 -1.8632
  423SOL     OW 2167   3.259   6.392   6.627 -0.3255 -0.6166  0.0163
  423SOL    HW1 2168   3.270   6.406   6.528 -1.8407  0.1343 -0.0775
  423SOL    HW2 2169   3.322   6.321   6.657  0.4239 -0.6162 -1.4192
  424SOL     OW 2170   2.147   3.717   4.244  0.0040 -0.5809 -0.0085
  424SOL    HW1 2171   2.160   3.810   4.277  0.9279 -0.2522 -1.2236
  424SOL    HW2 2172   2.049   3.699   4.232 -0.2128  0.0130  0.8210
  425SOL     OW 2173   2.776   1.009   0.586  0.4695 -0.0627  0.0414
  425SOL    HW1 2174   2.715   1.019   0.508 -0.0341 -1.0330  0.2988
  425SOL    HW2 2175   2.817   1.098   0.608  1.4436  0.0210 -1.9714
  426SOL     OW 2176   1.079   1.994   2.150  0.0023  0.1765 -0.3709
  426SOL    HW1 2177   0.990   2.039   2.153 -0.3657 -0.5611  0.2048
  426SOL    HW2 2178   1.151   2.060   2.171 -0.3602  0.8905 -1.3346
  427SOL     OW 2179   5.156   6.993   6.198 -0.7324 -0.0260 -0.1006
  427SOL    HW1 2180   5.152   7.080   6.247 -0.5192  1.2055 -2.1585
  427SOL    HW2 2181   5.247   6.954   6.208 -0.2885  0.8578 -0.5580
  428SOL     OW 2182   2.967   1.287   0.353 -0.0455  0.4930  0.6529
  428SOL    HW1 2183   2.993   1.315   0.261 -2.5151 -1.7234 -0.8323
  428SOL    HW2 2184   2.927   1.365   0.401 -0.9539  1.1227 -1.0464
  429SOL     OW 2185   6.462   6.033   3.911  0.2586  0.3697  0.1369
  429SOL    HW1 2186   6.537   6.078   3.863  1.0463 -2.3858 -1.4808
  429SOL    HW2 2187   6.418   5.967   3.850 -1.6166 -0.1754  1.9372
  430SOL     OW 2188   1.463   1.713   2.858  0.0850  0.1321 -0.5863
  430SOL    HW1 2189   1.502   1.628   2.824  1.3228  0.0583  0.8899
  430SOL    HW2 2190   1.403   1.753   2.789  0.7569 -1.1005 -1.9234
  431SOL     OW 2191   1.061   5.254   2.040  0.1318  0.2841 -0.3768
  431SOL    HW1 2192   1.079   5.285   1.946  1.1465  0.2729 -0.1900
  431SOL    HW2 2193   1.110   5.168   2.057  0.9942  0.9517  0.5801
  432SOL     OW 2194   0.005   1.576   3.060 -0.5731 -0.3025  0.2828
  432SOL    HW1 2195   0.034   1.597   3.154 -0.0611 -0.7688  0.2357
  432SOL    HW2 2196  -0.064   1.504   3.062 -1.0077  0.1103  0.3339
  433SOL     OW 2197   0.809   5.111   0.353 -0.1607  0.2896 -0.6015
  433SOL    HW1 2198   0.715   5.131   0.324 -0.2152  0.6469 -0.1770
  433SOL    HW2 2199   0.818   5.012   0.370 -0.9550  0.4709  1.0977
  434SOL     OW 2200   3.367   6.550   1.819 -0.0477  0.4768 -0.0707
  434SOL    HW1 2201   3.426   6.603   1.881  0.0609  0.4671 -0.1666
  434SOL    HW2 2202   3.320   6.479   1.871  1.4802 -0.7701 -0.3074
  435SOL     OW 2203   3.376   2.819   0.164 -1.0384 -0.6876  0.3364
  435SOL    HW1 2204   3.387   2.789   0.069  2.0078  0.9044  0.0660
  435SOL    HW2 2205   3.342   2.912   0.166  1.0090  0.1181  0.6131
  436SOL     OW 2206   4.643   5.552   3.722 -0.0752 -0.0278  0.2339
  436SOL    HW1 2207   4.724   5.553   3.781 -0.9574 -0.0908  1.4721
  436SOL    HW2 2208   4.630   5.460   3.685  0.4150 -0.0182  0.0308
  437SOL     OW 2209   5.853   1.328   5.808  0.1517  0.5583  0.5825
  437SOL    HW1 2210   5.776   1.275   5.842  0.0933  0.8357  0.8865
  437SOL    HW2 2211   5.833   1.426   5.816 -0.4702  0.6706 -1.5913
  438SOL     OW 2212   2.487   3.581   1.455  0.2831  0.1528  0.3636
  438SOL    HW1 2213   2.571   3.555   1.503  0.0927 -1.3240 -0.0606
  438SOL    HW2 2214   2.408   3.564   1.514  0.2664  1.9070  0.9112
  439SOL     OW 2215   0.939   1.981   6.134  0.0431  0.0693 -0.0149
  439SOL    HW1 2216   0.973   2.024   6.051 -0.2533  0.2826 -0.0258
  439SOL    HW2 2217   0.856   1.928   6.113  0.7220 -0.9938 -0.1210
  440SOL     OW 2218   2.768   1.828   0.782  0.8128  0.5129  0.1680
  440SOL    HW1 2219   2.825   1.759   0.827  1.8292  2.1305  1.4900
  440SOL    HW2 2220   2.695   1.783   0.731  0.9054 -1.5138  1.6973
  441SOL     OW 2221   1.833   3.108   2.873 -0.1204  0.3662  0.4001
  441SOL    HW1 2222   1.808   3.173   2.801  0.4557  0.0700 -0.0798
  441SOL    HW2 2223   1.754   3.092   2.932 -0.5726  0.7009 -0.1042
  442SOL     OW 2224   3.234   4.431   5.578 -0.4678 -0.0152  0.2556
  442SOL    HW1 2225   3.258   4.518   5.622  0.7127 -0.0799 -0.2322
  442SOL    HW2 2226   3.211   4.448   5.482 -1.6042 -0.0673  0.5095
  443SOL     OW 2227   4.912   3.676   4.293 -0.3197 -0.4730  0.9181
  443SOL    HW1 2228   4.850   3.634   4.360 -2.1875  1.4824  0.5690
  443SOL    HW2 2229   4.995   3.707   4.339 -0.0798 -2.1106  1.6476
  444SOL     OW 2230   3.841   0.501   1.756 -0.9783 -0.2094 -0.1002
  444SOL    HW1 2231   3.896   0.422   1.729 -0.7449 -0.3982  0.8862
  444SOL    HW2 2232   3.870   0.581   1.704  0.2582 -0.2966  0.4221
  445SOL     OW 2233   1.819   6.918   3.569 -0.5365 -0.6705  0.1123
  445SOL    HW1 2234   1.816   6.859   3.650 -0.4907  0.1604  0.7290
  445SOL    HW2 2235   1.807   6.862   3.487  0.7797 -1.7225  0.5986
  446SOL     OW 2236   1.406   0.023   0.864  0.2792  0.2795 -0.3191
  446SOL    HW1 2237   1.418  -0.068   0.823 -1.2500 -0.4620  0.7621
  446SOL    HW2 2238   1.491   0.074   0.857  1.8542 -2.0020  0.8530
  447SOL     OW 2239   6.120   2.281   0.873 -0.1235  0.1812  0.3459
  447SOL    HW1 2240   6.137   2.239   0.963  1.7862  0.5624  0.2143
  447SOL    HW2 2241   6.039   2.339   0.878 -0.3510 -0.2124  1.6783
  448SOL     OW 2242   4.631   6.465   3.052 -0.7018  0.0452 -0.0932
  448SOL    HW1 2243   4.621   6.468   3.152  0.1250  0.3309 -0.0158
  448SOL    HW2 2244   4.584   6.544   3.012 -1.8058 -0.5408 -0.0118
  449SOL     OW 2245   1.253   5.256   4.429  0.0490 -0.7046  0.3401
  449SOL    HW1 2246   1.228   5.305   4.513 -0.3400 -0.8139  0.2888
  449SOL    HW2 2247   1.255   5.158   4.447 -0.8377 -0.7888  0.0242
  450SOL     OW 2248   5.398   3.281   5.312  0.7425 -0.3288 -0.1396
  450SOL    HW1 2249   5.394   3.206   5.378 -1.1872 -0.5829 -0.4857
  450SOL    HW2 2250   5.442   3.249   5.229  0.5721 -0.8786 -0.0272
  451SOL     OW 2251   3.332   0.879   5.867 -0.0314 -0.1496  0.3370
  451SOL    HW1 2252   3.415   0.873   5.922 -0.2181 -1.0880  0.5435
  451SOL    HW2 2253   3.280   0.794   5.876  0.3874 -0.7338 -2.0167
  452SOL     OW 2254   3.832   3.941   6.890  0.1398  0.0287  0.2794
  452SOL    HW1 2255   3.819   4.040   6.888  2.7761  0.4777  1.3678
  452SOL    HW2 2256   3.836   3.906   6.797  0.7686  1.2151 -0.1596
  453SOL     OW 2257   6.763   0.937   2.551  0.6521 -0.4119  0.1629
  453SOL    HW1 2258   6.705   0.872   2.600  0.7033  0.8230  1.9855
  453SOL    HW2 2259   6.774   1.020   2.607  0.5660  1.1852 -2.0666
  454SOL     OW 2260   6.034   2.959   2.802  0.7181 -0.2967 -0.5533
  454SOL    HW1 2261   5.948   2.923   2.767  0.8340 -1.4233  0.2488
  454SOL    HW2 2262   6.061   2.907   2.884  1.9875  0.2456 -0.6013
  455SOL     OW 2263   5.694   0.018   6.387 -0.3439  0.0712 -0.6023
  455SOL    HW1 2264   5.786   0.001   6.354 -0.6451  0.1912 -1.5280
  455SOL    HW2 2265   5.696   0.090   6.457  0.1209  0.9283 -1.4780
  456SOL     OW 2266   2.439   5.876   3.236 -0.0895 -0.6532  0.7247
  456SOL    HW1 2267   2.380   5.797   3.226 -1.9211  0.5539  1.5060
  456SOL    HW2 2268   2.527   5.848   3.276 -0.5131 -2.3271  0.5387
  457SOL     OW 2269   2.355   5.684   1.142  0.2084 -0.0005  0.4773
  457SOL    HW1 2270   2.272   5.652   1.096 -0.3981  0.6680  1.0845
  457SOL    HW2 2271   2.429   5.692   1.075  0.0272 -1.4151  0.0825
  458SOL     OW 2272   2.790   2.327   5.863 -0.5858  0.2631 -0.0712
  458SOL    HW1 2273   2.756   2.269   5.937 -0.5808 -0.6942 -0.7948
  458SOL    HW2 2274   2.864   2.279   5.814 -2.2227 -0.2240 -2.2383
  459SOL     OW 2275   1.533   0.540   3.476  0.2577 -0.3719 -0.0626
  459SOL    HW1 2276   1.560   0.517   3.569  0.0586  0.6864  0.2609
  459SOL    HW2 2277   1.606   0.516   3.413  1.2504  0.8163  0.5990
  460SOL     OW 2278   2.100   1.691   6.467  0.1843  0.2755 -0.0803
  460SOL    HW1 2279   2.187   1.712   6.511 -0.9766  1.7978  1.6294
  460SOL    HW2 2280   2.039   1.770   6.475 -1.4449 -0.8374 -1.0221
  461SOL     OW 2281   0.597   6.528   4.856  0.2371  0.3159  0.0240
  461SOL    HW1 2282   0.682   6.475   4.864  1.3360  1.2127 -3.5081
  461SOL    HW2 2283   0.617   6.625   4.874 -0.1564  0.4543 -0.2741
  462SOL     OW 2284   3.181   3.709   3.466  0.7169  0.1694  0.2250
  462SOL    HW1 2285   3.161   3.806   3.456 -0.6582 -0.2187 -0.9990
  462SOL    HW2 2286   3.176   3.685   3.563 -0.0263  1.0924  0.4358
  463SOL     OW 2287   4.195   6.266   3.607  0.3368  0.2143  0.1388
  463SOL    HW1 2288   4.164   6.329   3.678  0.8388  0.1375  0.4333
  463SOL    HW2 2289   4.119   6.209   3.577 -0.5673  2.1100 -1.3759
  464SOL     OW 2290   6.188   5.293   4.054 -0.1203  0.1183  0.1689
  464SOL    HW1 2291   6.282   5.287   4.088  0.0755 -0.9473 -0.5017
  464SOL    HW2 2292   6.189   5.296   3.954 -0.8079 -0.4089  0.1361
  465SOL     OW 2293   0.856   4.665   2.200  0.0009  0.2087  0.2188
  465SOL    HW1 2294   0.925   4.601   2.165  1.6815  2.1464 -0.1710
  465SOL    HW2 2295   0.873   4.684   2.296  1.0575  1.9137 -0.2654
  466SOL     OW 2296   5.302   5.416   2.110  0.4071  0.2396 -0.0227
  466SOL    HW1 2297   5.319   5.494   2.170 -0.6920  0.4311  0.0549
  466SOL    HW2 2298   5.383   5.399   2.054  1.3777  0.2056  1.3405
  467SOL     OW 2299   1.024   6.888   1.331  0.1811 -0.3273  0.1617
  467SOL    HW1 2300   1.075   6.806   1.304  0.0225  0.1174 -1.6338
  467SOL    HW2 2301   1.069   6.969   1.292 -1.2519  0.1665 -0.5371
  468SOL     OW 2302   4.004   0.817   1.239  0.4295 -0.2327  0.5870
  468SOL    HW1 2303   3.962   0.884   1.300 -0.1084  0.2363 -0.2732
  468SOL    HW2 2304   4.021   0.860   1.150 -0.5708 -1.4198 -0.2112
  469SOL     OW 2305   3.451   5.064   6.231 -0.6585 -0.3835  0.6649
  469SOL    HW1 2306   3.487   5.045   6.322 -0.9543  1.2430  1.1435
  469SOL    HW2 2307   3.467   5.160   6.208 -2.6217 -0.1863 -0.0507
  470SOL     OW 2308   2.147   3.471   3.296  0.1378 -0.3135  0.1547
  470SOL    HW1 2309   2.067   3.411   3.295 -0.1174  0.0159  0.2649
  470SOL    HW2 2310   2.144   3.531   3.216 -1.0122  1.3283  1.3408
  471SOL     OW 2311   7.021   1.786   4.569 -0.2270  0.0196 -0.2746
  471SOL    HW1 2312   6.921   1.787   4.565 -0.2066  1.4627 -1.0822
  471SOL    HW2 2313   7.058   1.851   4.503  1.1971  0.8306  1.2387
  472SOL     OW 2314   2.991   2.561   5.842  0.2609 -0.2835  0.3099
  472SOL    HW1 2315   2.925   2.502   5.889  0.4941  0.5333  1.7312
  472SOL    HW2 2316   2.945   2.608   5.766 -0.3725 -0.9333  0.2764
  473SOL     OW 2317   0.110   3.083   5.692  0.0071  0.2803  0.1640
  473SOL    HW1 2318   0.013   3.095   5.670  0.0177  0.0801  0.0018
  473SOL    HW2 2319   0.120   3.011   5.761  0.0456  0.2459  0.1225
  474SOL     OW 2320   4.311   6.043   3.986 -1.0665 -0.1808 -0.5888
  474SOL    HW1 2321   4.348   5.988   3.912 -0.5314 -2.3148  1.1656
  474SOL    HW2 2322   4.274   5.983   4.058 -1.8234  1.7847  0.7702
  475SOL     OW 2323   6.352   0.951   0.790  0.3327  0.1178 -0.5475
  475SOL    HW1 2324   6.428   0.891   0.768  0.6132  1.2397 -2.9125
  475SOL    HW2 2325   6.266   0.899   0.789  0.6921 -0.4740 -1.3676
  476SOL     OW 2326   1.130   2.802   1.632  0.0656 -0.3658 -0.0795
  476SOL    HW1 2327   1.166   2.883   1.585 -0.8682 -0.4435 -0.9617
  476SOL    HW2 2328   1.031   2.800   1.623  0.0538 -1.4432  0.2165
  477SOL     OW 2329   5.347   6.059   3.812 -0.0129 -0.2345 -0.2689
  477SOL    HW1 2330   5.433   6.051   3.762  0.1682 -0.7644  0.1171
  477SOL    HW2 2331   5.283   6.113   3.759  0.6125  0.3067 -0.4920
  478SOL     OW 2332   6.393   6.537   1.416  0.5342  0.2767  0.1621
  478SOL    HW1 2333   6.426   6.511   1.325 -0.9166 -1.0611 -0.0355
  478SOL    HW2 2334   6.408   6.461   1.480  0.9732  0.9725  0.9042
  479SOL     OW 2335   3.143   3.094   1.685  0.8303  0.0626 -0.2262
  479SOL    HW1 2336   3.096   3.014   1.721 -1.0027  0.8509 -0.7870
  479SOL    HW2 2337   3.242   3.083   1.700  0.4834 -1.4423  1.3399
  480SOL     OW 2338   0.227   6.784   0.425  0.7872  0.4536 -0.3426
  480SOL    HW1 2339   0.150   6.837   0.389  0.7534  1.9495  1.7323
  480SOL    HW2 2340   0.307   6.843   0.431  0.5667  0.5884  2.7071
  481SOL     OW 2341   5.049   4.589   1.276  0.0402 -0.7316  0.3472
  481SOL    HW1 2342   4.974   4.638   1.232 -0.2699 -0.8414  0.7447
  481SOL    HW2 2343   5.112   4.554   1.206 -0.9492 -1.7171 -0.0748
  482SOL     OW 2344   3.795   5.087   3.871  0.0523  0.1267 -0.1608
  482SOL    HW1 2345   3.794   5.143   3.787  1.5882  1.5191  0.6890
  482SOL    HW2 2346   3.757   5.140   3.946  1.1057 -0.1276  0.5702
  483SOL     OW 2347   5.455   0.811   5.649  0.5987  0.2457 -0.3178
  483SOL    HW1 2348   5.477   0.773   5.559 -1.2555  1.3846 -1.3275
  483SOL    HW2 2349   5.380   0.760   5.690 -0.7817  1.6776 -0.9439
  484SOL     OW 2350   1.131   0.039   3.771 -0.0385  0.3701 -0.0092
  484SOL    HW1 2351   1.122  -0.031   3.700  1.9887  0.2512 -0.2125
  484SOL    HW2 2352   1.125  -0.004   3.861 -1.3069  0.3273 -0.1018
  485SOL     OW 2353   6.457   4.995   1.992  0.0024  0.9027  0.1222
  485SOL    HW1 2354   6.538   4.987   1.935 -0.4716 -0.7721 -0.3655
  485SOL    HW2 2355   6.421   5.088   1.986  1.3542  1.4115 -0.3652
  486SOL     OW 2356   6.817   5.896   4.977  0.0784  0.2803  0.1775
  486SOL    HW1 2357   6.787   5.923   5.069 -0.3555 -0.1006  0.1457
  486SOL    HW2 2358   6.812   5.797   4.968  2.5445  0.0429  0.6098
  487SOL     OW 2359   6.176   1.109   0.946  0.0387 -0.1960 -0.7189
  487SOL    HW1 2360   6.249   1.064   0.894  0.7543 -0.5443  0.5311
  487SOL    HW2 2361   6.217   1.171   1.013 -0.8464  0.1836 -0.5162
  488SOL     OW 2362   6.975   6.854   4.035 -0.6135  0.0438 -0.0223
  488SOL    HW1 2363   6.903   6.911   3.997 -3.5253 -2.4607  1.3017
  488SOL    HW2 2364   7.001   6.888   4.126 -1.8896 -0.3222  0.5018
  489SOL     OW 2365   2.018   4.388   4.561  0.0898  0.0839  0.8694
  489SOL    HW1 2366   1.940   4.390   4.624 -0.9434 -1.1162 -0.2948
  489SOL    HW2 2367   2.004   4.314   4.495  2.4693 -0.4828  0.9295
  490SOL     OW 2368   6.887   3.944   4.328  0.0389 -0.2566 -0.0488
  490SOL    HW1 2369   6.822   3.966   4.400  0.4297  1.1569 -0.0888
  490SOL    HW2 2370   6.932   3.858   4.348  0.8283  0.5611  1.9229
  491SOL     OW 2371   5.087   2.100   2.222  0.1910  0.7264 -0.1101
  491SOL    HW1 2372   5.020   2.123   2.293 -2.0927  0.7557 -2.1476
  491SOL    HW2 2373   5.163   2.164   2.227 -1.6124  2.9878  0.1543
  492SOL     OW 2374   1.651   1.613   0.543  0.3136  0.2027  0.1481
  492SOL    HW1 2375   1.596   1.530   0.539 -0.6815  0.7682  1.3097
  492SOL    HW2 2376   1.746   1.592   0.518 -0.5139 -0.6572 -2.5975
  493SOL     OW 2377   0.027   6.144   5.655 -0.3047 -0.7400 -0.4859
  493SOL    HW1 2378   0.021   6.179   5.748 -0.7777 -1.8222 -0.0974
  493SOL    HW2 2379   0.109   6.181   5.611 -0.9623  1.1473 -0.2489
  494SOL     OW 2380   3.050   1.001   3.580 -0.0098  0.1678  0.4152
  494SOL    HW1 2381   3.106   0.970   3.657 -2.0673  0.4067  2.1312
  494SOL    HW2 2382   2.977   0.935   3.563  0.3916  0.1372 -1.3796
  495SOL     OW 2383   3.012   4.919   6.944  0.3497  1.0018  0.2346
  495SOL    HW1 2384   3.053   4.901   6.855 -0.6708 -0.7832  0.0740
  495SOL    HW2 2385   3.060   4.866   7.014 -0.6615  0.1135  0.2783
  496SOL     OW 2386   4.788   0.968   1.995 -0.3439  0.5148  0.6112
  496SOL    HW1 2387   4.860   0.944   2.061  2.5408  0.2132 -2.3743
  496SOL    HW2 2388   4.766   1.065   2.004  0.1011  0.5155  1.9026
  497SOL     OW 2389   5.802   1.549   1.115 -0.4225  0.0471  0.3962
  497SOL    HW1 2390   5.827   1.639   1.079  0.1406 -0.7934 -1.4008
  497SOL    HW2 2391   5.861   1.527   1.193  0.8642  0.3603 -0.4594
  498SOL     OW 2392   1.977   0.992   0.057 -0.2032 -0.3951  0.6250
  498SOL    HW1 2393   1.903   0.995   0.125  0.5206 -0.7799  1.4505
  498SOL    HW2 2394   2.036   1.071   0.069  0.3788 -0.8741  0.9738
  499SOL     OW 2395   2.401   6.432   5.796 -0.2169 -0.1652  0.1177
  499SOL    HW1 2396   2.397   6.424   5.896  0.8268 -0.9581  0.1065
  499SOL    HW2 2397   2.484   6.481   5.770 -0.1607 -0.5303 -0.3884
  500SOL     OW 2398   7.003   1.293   6.293 -0.1841  0.2064 -0.3735
  500SOL    HW1 2399   7.028   1.265   6.386  0.3271  1.0813 -0.2414
  500SOL    HW2 2400   7.073   1.353   6.255 -0.7709  0.5075 -1.0275
  501SOL     OW 2401   0.196   1.623   3.964 -0.2521 -0.0457  0.7713
  501SOL    HW1 2402   0.169   1.528   3.949 -1.5312  0.1860  1.5186
  501SOL    HW2 2403   0.285   1.625   4.011 -0.9377 -0.9163  2.1663
  502SOL     OW 2404   1.708   6.420   6.606  0.1076 -0.3702  0.9931
  502SOL    HW1 2405   1.722   6.369   6.521 -0.7132  0.6161  0.2454
  502SOL    HW2 2406   1.789   6.473   6.628  0.2208 -0.4186  0.6865
  503SOL     OW 2407   4.879   6.944   5.564 -0.1209 -0.3764 -1.0031
  503SOL    HW1 2408   4.813   6.991   5.504 -0.6016 -1.9537 -1.7569
  503SOL    HW2 2409   4.881   6.847   5.541  0.7695 -0.7604  0.5959
  504SOL     OW 2410   0.516   1.061   6.548 -0.3384  0.5013  0.0492
  504SOL    HW1 2411   0.431   1.050   6.600  0.0966 -2.1703  0.3153
  504SOL    HW2 2412   0.502   1.028   6.454  0.1737  0.9118 -0.1794
  505SOL     OW 2413   5.221   3.494   5.310 -0.1693  0.1023  0.6120
  505SOL    HW1 2414   5.148   3.471   5.246 -0.9043  1.1439  1.0552
  505SOL    HW2 2415   5.280   3.414   5.324 -0.0582 -0.1745 -1.2471
  506SOL     OW 2416   2.572   5.873   2.119 -0.1278  0.4887 -0.2990
  506SOL    HW1 2417   2.659   5.867   2.070 -0.0246  1.1313 -0.2052
  506SOL    HW2 2418   2.576   5.949   2.184 -0.9710  0.9071 -0.7199
  507SOL     OW 2419   3.234   1.482   2.995 -0.7685  0.2026  0.1200
  507SOL    HW1 2420   3.145   1.440   2.976 -0.8845  0.1609  0.7365
  507SOL    HW2 2421   3.301   1.449   2.929 -1.0021 -0.4686  0.2145
  508SOL     OW 2422   1.538   3.984   1.702 -0.1453  0.5789 -0.0657
  508SOL    HW1 2423   1.595   3.937   1.770 -1.8331 -0.6977  0.5641
  508SOL    HW2 2424   1.442   3.958   1.717 -0.7919  1.9124 -1.6575
  509SOL     OW 2425   4.939   5.882   5.002  0.0726 -0.0744  0.0240
  509SOL    HW1 2426   5.007   5.953   4.985  2.0411 -1.7393  0.5421
  509SOL    HW2 2427   4.915   5.838   4.916  0.2784 -0.0277 -0.0587
  510SOL     OW 2428   0.393   6.219   4.480 -0.4415 -0.0380  0.2848
  510SOL    HW1 2429   0.386   6.172   4.392  1.7803  1.2360 -0.6451
  510SOL    HW2 2430   0.301   6.233   4.517 -1.8686  2.6883 -3.6635
  511SOL     OW 2431   0.103   4.317   0.272 -0.2968  0.1865 -0.6330
  511SOL    HW1 2432   0.048   4.277   0.199  1.0530 -0.1216 -1.5158
  511SOL    HW2 2433   0.105   4.417   0.261 -0.3650  0.1683 -0.8172
  512SOL     OW 2434   1.468   1.309   4.602  0.2693  0.2958  0.0947
  512SOL    HW1 2435   1.508   1.220   4.625  1.3359  0.3874 -1.3006
  512SOL    HW2 2436   1.446   1.313   4.505  0.0712  1.5040  0.1664
  513SOL     OW 2437   6.311   2.871   2.114 -0.3134 -0.0998  0.2122
  513SOL    HW1 2438   6.243   2.828   2.172 -1.5499 -0.1148 -1.1855
  513SOL    HW2 2439   6.286   2.967   2.099 -0.9765 -0.5062 -1.6005
  514SOL     OW 2440   6.255   0.474   5.828 -0.3980 -0.0468  0.0862
  514SOL    HW1 2441   6.253   0.574   5.831  1.7707  0.1192 -1.7785
  514SOL    HW2 2442   6.161   0.439   5.826 -1.2099  1.8579  1.5867
  515SOL     OW 2443   3.876   0.139   0.294  0.2730 -0.1238  0.0356
  515SOL    HW1 2444   3.878   0.220   0.235  2.1325 -0.8434 -1.0094
  515SOL    HW2 2445   3.782   0.115   0.315 -0.4149  0.9503 -1.5841
  516SOL     OW 2446   6.239   5.214   2.592 -0.0940 -0.1987 -0.0761
  516SOL    HW1 2447   6.187   5.264   2.661 -0.1647 -0.2401 -0.0996
  516SOL    HW2 2448   6.221   5.116   2.601  0.8876 -0.3232  0.6787
  517SOL     OW 2449   5.168   3.890   0.113  0.2138 -0.2353 -0.1205
  517SOL    HW1 2450   5.175   3.953   0.190  0.6437  0.7187 -0.9134
  517SOL    HW2 2451   5.106   3.815   0.137 -2.2112  1.6729  0.0929
  518SOL     OW 2452   0.808   0.964   1.703  0.2025  0.3938 -0.3589
  518SOL    HW1 2453   0.895   0.964   1.655  0.5714 -1.4398  0.2100
  518SOL    HW2 2454   0.822   0.996   1.797  0.2543  0.1370 -0.2792
  519SOL     OW 2455   6.552   5.861   1.973  0.8797 -0.1110 -0.2293
  519SOL    HW1 2456   6.524   5.920   2.050  1.7102  0.4284 -0.3269
  519SOL    HW2 2457   6.616   5.911   1.915  0.8378 -0.7853 -0.8623
  520SOL     OW 2458   2.938   0.518   6.379 -0.2901 -0.0160  0.2544
  520SOL    HW1 2459   2.955   0.602   6.327 -0.9528  0.5881  0.9709
  520SOL    HW2 2460   2.993   0.519   6.463 -0.5195 -0.1526  0.4075
  521SOL     OW 2461   6.188   0.738   5.827 -0.1839  0.1284  1.3998
  521SOL    HW1 2462   6.143   0.762   5.740  0.4212  0.3276  1.1349
  521SOL    HW2 2463   6.205   0.821   5.879 -0.2159  0.0415  1.5499
  522SOL     OW 2464   3.591   5.828   0.103  0.4112 -0.3735  0.2824
  522SOL    HW1 2465   3.504   5.851   0.147 -0.3795 -0.6324 -1.1037
  522SOL    HW2 2466   3.604   5.729   0.105  0.6254 -0.3448  0.3752
  523SOL     OW 2467   1.789   6.765   6.022 -0.1462 -0.2123 -0.0439
  523SOL    HW1 2468   1.817   6.860   6.013 -0.6589 -0.1159 -0.6521
  523SOL    HW2 2469   1.846   6.707   5.964  0.6740 -0.3891  0.8993
  524SOL     OW 2470   1.003   1.082   0.928 -0.0412  0.2615 -0.0348
  524SOL    HW1 2471   1.074   1.150   0.946 -1.3984  2.3145 -1.9088
  524SOL    HW2 2472   0.923   1.101   0.984  0.0113 -0.6299  0.3658
  525SOL     OW 2473   6.225   3.830   3.535 -0.0104 -0.4655  0.0706
  525SOL    HW1 2474   6.165   3.777   3.476 -0.1592  0.0696 -0.2668
  525SOL    HW2 2475   6.209   3.928   3.520 -0.2662 -0.3197  1.2194
  526SOL     OW 2476   5.039   5.077   5.579  0.0451 -0.0712  0.3744
  526SOL    HW1 2477   4.957   5.021   5.596  0.6469 -0.7179  1.2528
  526SOL    HW2 2478   5.121   5.023   5.601  0.7374  0.4260 -0.8824
  527SOL     OW 2479   5.624   1.280   0.848  0.0323  0.0153 -0.7741
  527SOL    HW1 2480   5.604   1.344   0.922 -0.6259  0.1244 -1.0450
  527SOL    HW2 2481   5.705   1.227   0.872  0.6951  1.0649 -0.6219
  528SOL     OW 2482   0.211   0.554   3.354  0.4295  0.7315 -0.4178
  528SOL    HW1 2483   0.289   0.499   3.325 -0.1039  0.3079 -1.0762
  528SOL    HW2 2484   0.126   0.514   3.319 -0.3535 -0.1864  2.2615
  529SOL     OW 2485   0.313   1.718   6.715 -0.3601  0.2188  0.2358
  529SOL    HW1 2486   0.392   1.658   6.705 -0.4103  0.2016 -0.0783
  529SOL    HW2 2487   0.332   1.789   6.782 -0.0175  0.3146  0.0400
  530SOL     OW 2488   3.904   3.911   3.181  0.1077 -0.1671 -0.4033
  530SOL    HW1 2489   3.884   3.921   3.279 -0.7606  0.4144 -0.6399
  530SOL    HW2 2490   3.823   3.934   3.127  0.3578 -1.1741 -1.2450
  531SOL     OW 2491   1.495   2.340   4.779 -0.1125  0.0767 -0.4935
  531SOL    HW1 2492   1.508   2.439   4.789 -0.8983  0.1987 -0.5869
  531SOL    HW2 2493   1.545   2.292   4.851  1.5505  0.4438 -1.3573
  532SOL     OW 2494   3.591   1.054   0.115 -0.6286 -0.3803  0.0221
  532SOL    HW1 2495   3.620   1.068   0.210 -0.1928 -0.3760 -0.1111
  532SOL    HW2 2496   3.523   1.123   0.090 -0.3264 -0.0330  0.1541
  533SOL     OW 2497   3.053   5.265   5.743 -0.4307  0.2328 -0.2894
  533SOL    HW1 2498   3.009   5.191   5.794  0.3172 -0.6163 -0.8443
  533SOL    HW2 2499   3.064   5.344   5.803  2.9397 -1.6070  1.9119
  534SOL     OW 2500   2.245   3.927   0.457 -0.5600  0.5335  0.6722
  534SOL    HW1 2501   2.259   4.026   0.448 -0.2051  0.4564  0.3281
  534SOL    HW2 2502   2.328   3.885   0.493 -0.7136  0.3608  0.8247
  535SOL     OW 2503   3.556   5.431   4.477 -0.1881 -0.0562  0.4899
  535SOL    HW1 2504   3.606   5.444   4.563 -0.1609  0.1838  0.4406
  535SOL    HW2 2505   3.622   5.428   4.401 -0.2517  0.3282  0.4180
  536SOL     OW 2506   5.412   0.434   1.001 -0.2797  0.3987 -0.4846
  536SOL    HW1 2507   5.390   0.523   0.961 -0.4569  0.7555  0.4024
  536SOL    HW2 2508   5.502   0.438   1.044 -0.7610  0.4659  0.5212
  537SOL     OW 2509   1.392   2.684   2.071 -0.1518  0.1642 -0.1343
  537SOL    HW1 2510   1.341   2.703   1.988  1.0287  1.3500 -0.6208
  537SOL    HW2 2511   1.481   2.645   2.048 -0.1799 -0.3561  0.6113
  538SOL     OW 2512   6.102   6.009   6.874 -1.0404 -0.1341 -0.1908
  538SOL    HW1 2513   6.092   6.058   6.788 -0.9813  2.8642  1.3699
  538SOL    HW2 2514   6.152   5.923   6.859 -0.0891  0.8139 -2.9434
  539SOL     OW 2515   2.767   6.921   1.043 -0.5867  0.2751 -0.5278
  539SOL    HW1 2516   2.807   6.905   0.953  0.3711  0.9277 -0.2346
  539SOL    HW2 2517   2.728   7.013   1.047 -1.7011 -0.1721 -0.6444
  540SOL     OW 2518   2.007   1.181   6.282 -0.7208  0.0338 -0.1859
  540SOL    HW1 2519   2.074   1.215   6.347 -0.6098 -1.9614  0.8327
  540SOL    HW2 2520   2.008   1.081   6.283 -3.0522 -0.0587 -0.8035
  541SOL     OW 2521   5.495   4.482   1.721  0.3109 -0.1454 -0.1974
  541SOL    HW1 2522   5.515   4.557   1.657 -0.3267  0.9526  0.8541
  541SOL    HW2 2523   5.576   4.425   1.731  1.1867  1.0621 -0.1611
  542SOL     OW 2524   4.316   5.202   4.622 -0.4607  0.1087 -0.2093
  542SOL    HW1 2525   4.237   5.169   4.675  0.4270 -0.4429  0.8154
  542SOL    HW2 2526   4.294   5.197   4.524 -1.7985  0.2523  0.0571
  543SOL     OW 2527   1.337   0.739   4.916  0.2596  0.1542  0.0553
  543SOL    HW1 2528   1.244   0.709   4.895 -0.2763  1.2435  0.7617
  543SOL    HW2 2529   1.347   0.836   4.894  0.4281  0.7066  2.3056
  544SOL     OW 2530   0.149   0.439   0.585 -0.4602 -0.7137  0.3822
  544SOL    HW1 2531   0.150   0.402   0.678  2.9101 -0.9076  0.4075
  544SOL    HW2 2532   0.173   0.366   0.520  1.5523  0.2676 -0.0733
  545SOL     OW 2533   6.928   5.933   1.664  0.4614 -0.4110 -0.6145
  545SOL    HW1 2534   6.949   5.845   1.621 -2.9108 -0.9452 -1.4097
  545SOL    HW2 2535   6.901   5.998   1.594  1.0598  0.6985  0.1635
  546SOL     OW 2536   5.203   4.687   3.701  0.1896 -0.2617  0.2387
  546SOL    HW1 2537   5.248   4.774   3.683  0.0886 -0.1719  0.4129
  546SOL    HW2 2538   5.265   4.612   3.678 -0.7206 -0.2260 -2.6749
  547SOL     OW 2539   4.486   1.039   6.894  0.1533 -0.1005  0.2428
  547SOL    HW1 2540   4.493   0.939   6.895 -0.2183 -0.2443 -2.7002
  547SOL    HW2 2541   4.393   1.065   6.868  0.6463  0.9586 -0.5320
  548SOL     OW 2542   3.228   4.197   0.281  0.1009 -0.2524  0.1951
  548SOL    HW1 2543   3.301   4.133   0.255 -0.3050 -0.5995 -0.1040
  548SOL    HW2 2544   3.267   4.271   0.336  0.9789  0.4689 -1.3258
  549SOL     OW 2545   4.204   2.276   3.856 -0.1958  0.3190 -0.3319
  549SOL    HW1 2546   4.257   2.314   3.932  0.4831 -0.7889 -0.2294
  549SOL    HW2 2547   4.253   2.198   3.817 -0.5306  0.8816 -1.9292
  550SOL     OW 2548   1.540   4.948   3.934  0.4623  0.2237  0.1208
  550SOL    HW1 2549   1.629   4.928   3.895  0.6555 -0.9276  1.1148
  550SOL    HW2 2550   1.498   4.864   3.969 -0.4911  0.9247  0.7378
  551SOL     OW 2551   4.647   0.587   6.574  0.2385  0.0554 -0.1407
  551SOL    HW1 2552   4.730   0.612   6.524 -0.1150  1.0656 -0.2312
  551SOL    HW2 2553   4.670   0.563   6.668  0.9963 -2.4546 -0.8874
  552SOL     OW 2554   6.596   2.382   4.438 -0.2980 -0.4083 -0.3932
  552SOL    HW1 2555   6.498   2.366   4.428 -0.0266 -2.0549 -0.6749
  552SOL    HW2 2556   6.647   2.310   4.392  1.0390 -0.5276  1.1810
  553SOL     OW 2557   3.825   2.989   4.436  0.3019  0.3778  0.7414
  553SOL    HW1 2558   3.912   3.026   4.470  0.2324  0.2650  1.0522
  553SOL    HW2 2559   3.788   2.926   4.504  0.5953 -0.5445  0.0602
  554SOL     OW 2560   6.631   4.141   0.078  0.1899  0.3821  0.4355
  554SOL    HW1 2561   6.582   4.228   0.070 -0.7514 -0.0279  1.5347
  554SOL    HW2 2562   6.629   4.094  -0.010 -0.9483  0.6159  0.3243
  555SOL     OW 2563   4.093   3.297   0.274  0.8559 -0.1514 -0.3494
  555SOL    HW1 2564   4.006   3.309   0.226  0.1944  0.4055  0.9442
  555SOL    HW2 2565   4.155   3.372   0.250 -0.1622  1.2121  1.0655
  556SOL     OW 2566   6.665   5.450   1.045 -0.7941  0.7624 -0.2932
  556SOL    HW1 2567   6.743   5.510   1.028  0.3998 -1.0123 -1.4553
  556SOL    HW2 2568   6.585   5.484   0.995 -0.1216  1.3209 -1.0211
  557SOL     OW 2569   2.332   3.916   6.002  0.3883 -0.2328  0.3358
  557SOL    HW1 2570   2.299   4.004   6.035 -1.8763 -0.2850 -1.5110
  557SOL    HW2 2571   2.341   3.852   6.078  1.8301  1.4542  1.6703
  558SOL     OW 2572   3.089   3.095   1.438  0.7198  0.0582  0.3609
  558SOL    HW1 2573   3.126   3.016   1.389  0.0160  0.5249 -0.9651
  558SOL    HW2 2574   3.110   3.086   1.536 -1.0402 -2.7712  0.5862
  559SOL     OW 2575   6.308   5.983   5.531 -0.3352 -0.1905 -0.0188
  559SOL    HW1 2576   6.228   5.946   5.483  0.1797 -0.8590 -0.3658
  559SOL    HW2 2577   6.298   5.967   5.629 -0.2923 -0.9209 -0.1286
  560SOL     OW 2578   1.522   3.545   2.105 -0.2495  0.2788  0.2872
  560SOL    HW1 2579   1.472   3.491   2.172 -2.2511  1.5823 -0.0778
  560SOL    HW2 2580   1.478   3.536   2.015  1.6410 -0.4402 -0.6236
  561SOL     OW 2581   6.900   6.524   1.347  0.3009  0.9272 -0.1176
  561SOL    HW1 2582   6.853   6.456   1.402 -0.3059  0.7032 -0.8855
  561SOL    HW2 2583   6.896   6.613   1.393  0.2202  0.6507  0.4136
  562SOL     OW 2584   3.065   6.603   1.002  0.1165  0.3685 -0.2054
  562SOL    HW1 2585   3.026   6.686   0.962  0.8376  0.2552 -1.1753
  562SOL    HW2 2586   3.126   6.628   1.078 -0.2362  0.6720 -0.0188
  563SOL     OW 2587   0.575   0.075   2.557  0.3858 -0.4001 -0.9200
  563SOL    HW1 2588   0.564   0.128   2.642  1.4620  0.5898 -1.3588
  563SOL    HW2 2589   0.659   0.021   2.563  0.6190 -0.1053 -1.4533
  564SOL     OW 2590   5.785   2.797   6.605  0.1720 -0.2442 -0.5212
  564SOL    HW1 2591   5.820   2.732   6.537 -1.9610 -1.3304 -0.6717
  564SOL    HW2 2592   5.801   2.762   6.697  1.7903  0.5501 -0.4686
  565SOL     OW 2593   4.143   3.579   3.200 -0.2232 -0.0417  0.3508
  565SOL    HW1 2594   4.121   3.615   3.291 -0.5579 -0.8964  0.6155
  565SOL    HW2 2595   4.121   3.647   3.131 -2.3868 -0.3193  0.7119
  566SOL     OW 2596   1.141   2.993   2.961 -0.4750  0.7511 -1.4079
  566SOL    HW1 2597   1.149   2.895   2.979 -0.2252  0.8061 -1.2229
  566SOL    HW2 2598   1.162   3.011   2.865  1.1260  0.8316 -1.0597
  567SOL     OW 2599   6.808   1.963   4.877 -0.6300 -0.1348 -0.1692
  567SOL    HW1 2600   6.762   1.874   4.882  1.1103 -1.1217 -0.9123
  567SOL    HW2 2601   6.781   2.009   4.792 -0.9114 -0.3105 -0.1792
  568SOL     OW 2602   0.680   7.015   0.325 -0.1563 -0.0988  0.5388
  568SOL    HW1 2603   0.717   7.103   0.356  1.8263  0.6453 -3.3553
  568SOL    HW2 2604   0.737   6.941   0.359  0.2722  0.4202  0.9766
  569SOL     OW 2605   5.439   4.205   3.825 -0.1246 -0.5279 -0.2492
  569SOL    HW1 2606   5.435   4.252   3.913 -0.7222 -0.4526 -0.3124
  569SOL    HW2 2607   5.530   4.167   3.812  0.6324  1.3109 -0.5628
  570SOL     OW 2608   2.443   5.568   5.567 -0.1414 -0.0954  0.1959
  570SOL    HW1 2609   2.461   5.619   5.483  1.8362  0.2808  0.7717
  570SOL    HW2 2610   2.360   5.602   5.611 -0.8080  0.1712 -1.2430
  571SOL     OW 2611   2.294   5.607   4.770 -0.3705 -0.3300  0.0968
  571SOL    HW1 2612   2.219   5.542   4.765 -2.7629  2.0410  2.1662
  571SOL    HW2 2613   2.303   5.655   4.683  0.1013 -1.9733 -0.7927
  572SOL     OW 2614   2.070   2.898   3.509 -0.1435  0.2333 -0.2734
  572SOL    HW1 2615   2.135   2.865   3.441 -0.7424  0.4541 -0.9638
  572SOL    HW2 2616   2.023   2.821   3.551 -0.2798  0.1253 -0.6225
  573SOL     OW 2617   5.920   4.985   5.716 -0.2022  0.0029 -0.6657
  573SOL    HW1 2618   5.913   4.890   5.748 -0.6753 -0.0244 -0.8502
  573SOL    HW2 2619   5.963   5.041   5.787  0.6288 -0.4617 -0.7809
  574SOL     OW 2620   3.458   0.690   0.255  0.0536 -0.6121  0.3470
  574SOL    HW1 2621   3.558   0.678   0.256  0.2764  0.9842  0.1907
  574SOL    HW2 2622   3.430   0.738   0.338 -0.5462 -0.7071  0.2019
  575SOL     OW 2623   5.087   2.553   1.294 -0.4455 -0.0055  0.4331
  575SOL    HW1 2624   5.156   2.486   1.322  0.7559  1.1702  0.3691
  575SOL    HW2 2625   4.996   2.516   1.313  0.1908 -1.3801  1.0040
  576SOL     OW 2626   6.330   6.750   3.884  0.2511 -0.3582 -0.5498
  576SOL    HW1 2627   6.328   6.655   3.916 -1.2955 -0.5359 -1.0850
  576SOL    HW2 2628   6.363   6.809   3.957  0.6412 -1.2369  0.0009
  577SOL     OW 2629   5.617   0.180   6.115 -0.1810 -0.2413  0.0099
  577SOL    HW1 2630   5.605   0.108   6.182  3.7664 -1.3586 -0.2307
  577SOL    HW2 2631   5.627   0.140   6.023  2.1605  0.4577 -0.1150
  578SOL     OW 2632   4.573   6.868   1.469 -1.0607 -0.0046 -0.2955
  578SOL    HW1 2633   4.610   6.777   1.454 -1.9953 -0.4210 -0.1733
  578SOL    HW2 2634   4.536   6.874   1.562 -1.0573  0.4800 -0.3230
  579SOL     OW 2635   1.889   3.934   4.174 -0.3920 -0.5467 -0.2279
  579SOL    HW1 2636   1.799   3.967   4.201 -0.8600 -1.0809 -1.0705
  579SOL    HW2 2637   1.883   3.836   4.153  0.2193 -0.4375 -0.9645
  580SOL     OW 2638   5.552   5.067   3.871  0.3323  0.1195  0.1154
  580SOL    HW1 2639   5.469   5.028   3.911 -0.9380  1.7035 -0.8233
  580SOL    HW2 2640   5.563   5.032   3.778  0.4855  0.1926  0.1065
  581SOL     OW 2641   2.918   1.807   4.376  0.2649 -0.2768  0.2904
  581SOL    HW1 2642   2.957   1.875   4.439 -1.5255  0.4651  0.6677
  581SOL    HW2 2643   2.893   1.725   4.427  1.7879 -0.9865 -0.0492
  582SOL     OW 2644   0.277   4.770   2.180 -0.3065 -0.3833 -0.3866
  582SOL    HW1 2645   0.348   4.706   2.151 -0.9932 -1.0355 -0.6540
  582SOL    HW2 2646   0.280   4.779   2.280  0.0442 -0.5270 -0.3814
  583SOL     OW 2647   1.349   5.140   2.691  0.3480  0.1393 -0.3663
  583SOL    HW1 2648   1.408   5.081   2.636 -1.5484 -1.3400 -0.9158
  583SOL    HW2 2649   1.314   5.215   2.634 -2.0296 -1.6776 -1.4746
  584SOL     OW 2650   3.274   2.292   5.675  0.2051  0.0163  0.2388
  584SOL    HW1 2651   3.364   2.326   5.701  0.0193  0.1103  0.7631
  584SOL    HW2 2652   3.281   2.241   5.589  0.8448 -0.4202  0.5444
  585SOL     OW 2653   2.998   0.494   6.830  0.0257  1.2651 -0.0447
  585SOL    HW1 2654   3.048   0.536   6.755 -0.1968  0.2292 -0.7990
  585SOL    HW2 2655   2.958   0.407   6.799 -2.4507  2.1511  0.4402
  586SOL     OW 2656   2.758   6.726   1.248 -0.1788  0.3560  0.1778
  586SOL    HW1 2657   2.745   6.632   1.218  0.4251  0.0927  0.7146
  586SOL    HW2 2658   2.755   6.788   1.169  0.0634 -0.1781 -0.2516
  587SOL     OW 2659   5.743   1.405   4.863  0.2868  0.2964  0.0856
  587SOL    HW1 2660   5.724   1.343   4.940  1.9129  0.0519  0.3323
  587SOL    HW2 2661   5.700   1.369   4.780  0.1172 -0.4829  0.4958
  588SOL     OW 2662   1.782   3.863   3.697 -0.3535  0.4549  0.5893
  588SOL    HW1 2663   1.874   3.829   3.681 -0.4478  0.1338  0.7159
  588SOL    HW2 2664   1.758   3.849   3.794 -1.0663 -0.7940  0.2575
  589SOL     OW 2665   3.606   5.845   6.194  0.1346  0.1197  0.2406
  589SOL    HW1 2666   3.534   5.896   6.147  0.0940  0.6909  0.9051
  589SOL    HW2 2667   3.591   5.850   6.293 -0.1265 -1.5827  0.3038
  590SOL     OW 2668   2.602   6.975   5.927  0.3403 -0.1408  0.8244
  590SOL    HW1 2669   2.523   6.917   5.948 -0.4998  0.7314  0.1752
  590SOL    HW2 2670   2.686   6.923   5.938 -0.2563 -0.7638  2.6518
  591SOL     OW 2671   1.016   1.634   4.057 -0.2653 -0.2381 -0.1423
  591SOL    HW1 2672   0.950   1.575   4.102  1.2096 -1.1963  0.8412
  591SOL    HW2 2673   0.978   1.668   3.971 -2.4975  0.2614  0.9689
  592SOL     OW 2674   4.874   2.512   4.869  0.3401 -0.4848 -0.5525
  592SOL    HW1 2675   4.797   2.515   4.805 -2.2566  0.6813  2.3371
  592SOL    HW2 2676   4.927   2.596   4.861  0.7787 -0.8696 -1.9220
  593SOL     OW 2677   2.656   6.930   4.966  0.1889 -0.0814 -0.0729
  593SOL    HW1 2678   2.562   6.942   4.998 -0.4016 -1.4984 -1.1749
  593SOL    HW2 2679   2.714   6.902   5.043 -0.1423  1.3250  0.7296
  594SOL     OW 2680   1.608   1.913   4.510 -0.0464  0.7275 -0.2939
  594SOL    HW1 2681   1.578   1.989   4.452 -2.1177 -0.1143 -0.3997
  594SOL    HW2 2682   1.598   1.939   4.606  0.0743  0.8877 -0.3242
  595SOL     OW 2683   5.911   4.600   1.794  0.4575 -0.1591 -0.5349
  595SOL    HW1 2684   5.971   4.666   1.751 -1.0890  1.6501 -0.0544
  595SOL    HW2 2685   5.820   4.640   1.807  0.0582 -1.5770  1.8166
  596SOL     OW 2686   6.183   5.556   6.131 -0.4413 -0.6669 -0.5225
  596SOL    HW1 2687   6.234   5.474   6.158 -1.0624 -0.9547 -0.1919
  596SOL    HW2 2688   6.135   5.538   6.045 -1.6202 -1.1121  0.2061
  597SOL     OW 2689   4.020   2.203   0.018 -0.6660 -0.2374 -0.1880
  597SOL    HW1 2690   3.972   2.290   0.022  0.5322  0.4321  0.0005
  597SOL    HW2 2691   4.027   2.173  -0.077  0.2135  0.6214 -0.4050
  598SOL     OW 2692   3.586   3.887   1.906 -0.0381 -1.1621  0.5568
  598SOL    HW1 2693   3.605   3.985   1.911 -3.0779 -0.3962 -0.7803
  598SOL    HW2 2694   3.585   3.849   1.998  1.3783 -0.0312  1.0905
  599SOL     OW 2695   1.958   5.801   2.808  0.3831  0.2411  0.0467
  599SOL    HW1 2696   1.937   5.899   2.810  1.3809  0.4772 -0.1680
  599SOL    HW2 2697   2.053   5.787   2.836  0.0314 -0.7465  0.8243
  600SOL     OW 2698   1.708   5.469   0.275  0.2886  0.6000 -0.1366
  600SOL    HW1 2699   1.723   5.535   0.349  0.9376 -0.3750  0.6187
  600SOL    HW2 2700   1.776   5.482   0.203 -0.4573  1.6738 -0.6723
  601SOL     OW 2701   6.613   0.094   5.421 -0.3612 -0.7526 -0.3270
  601SOL    HW1 2702   6.580   0.184   5.450  0.5784 -0.0843 -1.2672
  601SOL    HW2 2703   6.647   0.099   5.328  1.8839 -1.5146  0.3894
  602SOL     OW 2704   5.650   2.797   4.254 -0.1890 -0.2035 -0.5762
  602SOL    HW1 2705   5.626   2.746   4.171 -0.9347 -1.2931  0.2700
  602SOL    HW2 2706   5.570   2.801   4.314  0.8784 -1.2623  1.0028
  603SOL     OW 2707   6.659   1.298   3.167  0.4019 -0.2995 -0.5971
  603SOL    HW1 2708   6.593   1.223   3.172 -0.8271  0.8105  0.3729
  603SOL    HW2 2709   6.621   1.379   3.210  1.4050  1.1435 -2.3063
  604SOL     OW 2710   6.118   2.499   0.536  0.8502  0.2565  0.0621
  604SOL    HW1 2711   6.133   2.563   0.612  0.1108  1.5966 -0.8828
  604SOL    HW2 2712   6.192   2.431   0.535  0.7810  0.0951  2.0660
  605SOL     OW 2713   4.482   5.552   2.514 -0.1601 -0.5093 -0.2586
  605SOL    HW1 2714   4.531   5.568   2.428  0.3925 -1.2119 -0.0919
  605SOL    HW2 2715   4.397   5.503   2.495 -0.3019 -0.1931 -0.4523
  606SOL     OW 2716   1.223   5.764   5.971 -0.1812  0.1017 -0.4381
  606SOL    HW1 2717   1.262   5.795   6.058 -1.1139 -0.5876  0.2405
  606SOL    HW2 2718   1.178   5.676   5.984 -1.3643  0.5489 -1.3521
  607SOL     OW 2719   1.543   2.688   6.462 -0.2257  0.0654  0.2487
  607SOL    HW1 2720   1.619   2.693   6.396 -0.3082 -1.0566  0.0420
  607SOL    HW2 2721   1.456   2.694   6.413 -0.2852  1.0973  0.4607
  608SOL     OW 2722   3.309   1.143   1.104  0.1831  0.3239  0.2368
  608SOL    HW1 2723   3.294   1.151   1.202  1.7463  0.2465  0.5159
  608SOL    HW2 2724   3.231   1.180   1.054 -0.7245  0.1496  1.5049
  609SOL     OW 2725   3.490   3.601   2.499 -0.2040 -0.6344 -0.3438
  609SOL    HW1 2726   3.555   3.527   2.481  1.4905  1.2770 -2.8258
  609SOL    HW2 2727   3.533   3.669   2.558 -0.7405 -0.3570 -0.2685
  610SOL     OW 2728   6.347   1.192   3.692  0.1354 -0.4739 -0.5616
  610SOL    HW1 2729   6.320   1.096   3.701 -1.0801 -0.3813 -2.5566
  610SOL    HW2 2730   6.412   1.201   3.617 -0.0232  0.3143 -0.6070
  611SOL     OW 2731   4.117   0.840   2.298  0.1980  0.0679  0.3444
  611SOL    HW1 2732   4.210   0.822   2.265  0.3143  0.0697  0.6665
  611SOL    HW2 2733   4.069   0.897   2.232  0.0377 -0.8940 -0.3989
  612SOL     OW 2734   4.733   4.978   4.991  0.3067  0.0269  0.3481
  612SOL    HW1 2735   4.739   5.043   5.067  0.3216 -0.0803  0.4382
  612SOL    HW2 2736   4.648   4.927   4.997  1.0245 -1.1163  1.2070
  613SOL     OW 2737   4.582   6.367   0.567  0.5363  0.0880  0.3047
  613SOL    HW1 2738   4.509   6.299   0.578 -2.9773  3.3905 -0.2556
  613SOL    HW2 2739   4.630   6.350   0.481 -1.8833 -0.3679 -1.0570
  614SOL     OW 2740   2.205   6.202   6.039 -0.1914  0.1199  0.2875
  614SOL    HW1 2741   2.227   6.148   6.121  1.5694  0.4504  0.0702
  614SOL    HW2 2742   2.195   6.141   5.961  2.0219  0.0573 -0.0028
  615SOL     OW 2743   6.481   5.349   4.130  0.2040 -0.0403  1.0639
  615SOL    HW1 2744   6.516   5.314   4.217  0.2695 -0.2986  0.9347
  615SOL    HW2 2745   6.481   5.449   4.132 -0.4202 -0.0435  1.6061
  616SOL     OW 2746   4.878   3.561   4.601 -0.1221 -0.6553 -0.1019
  616SOL    HW1 2747   4.879   3.508   4.686 -1.2132 -2.4439 -1.1215
  616SOL    HW2 2748   4.909   3.503   4.526  0.7579  0.8703 -0.9594
  617SOL     OW 2749   1.314   6.904   6.817 -0.2827 -0.3218  0.3859
  617SOL    HW1 2750   1.308   6.821   6.762  0.7228  0.8793 -1.6916
  617SOL    HW2 2751   1.223   6.942   6.830 -0.5461 -0.5987 -0.5680
  618SOL     OW 2752   2.724   5.672   2.676  0.0165  0.7561  0.2470
  618SOL    HW1 2753   2.777   5.591   2.650  0.3540  1.0840 -0.1095
  618SOL    HW2 2754   2.634   5.644   2.710  0.2653  0.2142  0.4711
  619SOL     OW 2755   1.356   3.493   6.536 -0.2454 -0.0812  0.0510
  619SOL    HW1 2756   1.332   3.586   6.510 -0.9599 -1.2094 -3.9104
  619SOL    HW2 2757   1.455   3.487   6.549 -0.0791  1.0557 -0.5464
  620SOL     OW 2758   4.870   4.780   1.188  0.0217  0.8481  0.1588
  620SOL    HW1 2759   4.842   4.838   1.111 -0.4902 -0.1747 -0.4381
  620SOL    HW2 2760   4.805   4.790   1.263 -1.3273 -0.5995 -0.7702
  621SOL     OW 2761   0.919   3.847   2.686  0.0892 -0.2489 -0.0992
  621SOL    HW1 2762   0.987   3.861   2.614  0.8469  1.3872  0.8700
  621SOL    HW2 2763   0.962   3.804   2.765 -0.1647  0.1762  0.2726
  622SOL     OW 2764   2.072   2.131   6.495 -0.1118  0.1954  0.1826
  622SOL    HW1 2765   2.138   2.183   6.440 -0.3354  0.0259 -0.2557
  622SOL    HW2 2766   2.117   2.091   6.574  0.0854  0.9808  0.4759
  623SOL     OW 2767   0.237   5.127   6.165  0.2118 -0.0519  0.2293
  623SOL    HW1 2768   0.139   5.114   6.153  0.4601 -2.2150  0.1511
  623SOL    HW2 2769   0.253   5.192   6.239 -1.2944 -1.3255  1.7380
  624SOL     OW 2770   2.421   0.734   2.969  0.4259 -0.5728 -0.2620
  624SOL    HW1 2771   2.460   0.665   2.908 -0.7262  0.4483 -2.2248
  624SOL    HW2 2772   2.325   0.710   2.989  0.5463 -0.4517  0.4933
  625SOL     OW 2773   0.808   0.244   2.283  0.0968 -0.3355 -0.4949
  625SOL    HW1 2774   0.743   0.289   2.222  1.3650 -0.1716 -1.7689
  625SOL    HW2 2775   0.775   0.153   2.306 -0.0685 -0.6844 -2.0337
  626SOL     OW 2776   4.679   6.155   4.951 -0.2880 -0.1453  0.4810
  626SOL    HW1 2777   4.756   6.212   4.981  0.2772  0.0961 -1.3283
  626SOL    HW2 2778   4.711   6.087   4.885 -1.5143 -0.5031  0.2290
  627SOL     OW 2779   5.060   6.546   0.969 -0.2934 -0.1303  0.5232
  627SOL    HW1 2780   4.981   6.599   0.936 -0.9245 -1.0318  0.5394
  627SOL    HW2 2781   5.130   6.544   0.898 -0.4739  0.2966  0.3265
  628SOL     OW 2782   5.817   2.552   4.206 -0.0630 -0.3154 -0.3616
  628SOL    HW1 2783   5.729   2.510   4.228  0.0937 -0.7909 -0.6339
  628SOL    HW2 2784   5.817   2.648   4.236 -0.0759 -0.7746  1.1933
  629SOL     OW 2785   6.129   0.827   1.864 -0.3343 -0.0866  0.2226
  629SOL    HW1 2786   6.132   0.886   1.783 -0.5410 -1.4795 -0.8504
  629SOL    HW2 2787   6.221   0.817   1.902  0.4765 -2.1560 -1.9826
  630SOL     OW 2788   2.908   0.574   2.100 -0.1685 -0.4253  0.0621
  630SOL    HW1 2789   2.935   0.604   2.191 -1.1325 -1.3632  0.6804
  630SOL    HW2 2790   2.949   0.485   2.081  0.2606 -0.1057 -0.5516
  631SOL     OW 2791   2.318   2.246   3.965 -0.2431  0.1585  0.3900
  631SOL    HW1 2792   2.372   2.219   3.885  0.5626 -0.7515  1.2108
  631SOL    HW2 2793   2.240   2.185   3.976  0.2599 -0.4119  0.9006
  632SOL     OW 2794   3.529   2.564   1.185 -0.6920 -0.2538  0.4095
  632SOL    HW1 2795   3.600   2.614   1.135 -0.1087 -1.7010 -0.2660
  632SOL    HW2 2796   3.552   2.563   1.283  0.1779 -0.6273  0.2078
  633SOL     OW 2797   2.864   0.043   5.390  0.1413 -0.4690  0.2960
  633SOL    HW1 2798   2.768   0.070   5.377  0.1265 -0.2717  0.7919
  633SOL    HW2 2799   2.921   0.125   5.392  0.0635 -0.4120  2.1062
  634SOL     OW 2800   1.699   6.158   1.135  0.2036  0.0126  0.4223
  634SOL    HW1 2801   1.657   6.229   1.078  0.9623  0.6190  0.5981
  634SOL    HW2 2802   1.798   6.167   1.132  0.3273 -1.3182  0.1239
  635SOL     OW 2803   1.063   7.014   3.185  0.3820 -0.4276  0.3066
  635SOL    HW1 2804   1.112   7.094   3.219  0.4538 -0.3148 -0.0652
  635SOL    HW2 2805   0.987   7.043   3.127  0.9996 -0.6435 -0.6324
  636SOL     OW 2806   4.790   5.456   5.859  0.6376  0.2118  0.0449
  636SOL    HW1 2807   4.787   5.420   5.766  1.4092 -0.5038  0.2819
  636SOL    HW2 2808   4.754   5.389   5.923 -1.9394  1.5076  0.0868
  637SOL     OW 2809   5.391   5.072   6.162 -0.0597 -0.0642  0.2221
  637SOL    HW1 2810   5.425   5.051   6.253  0.1412  0.4202  0.2645
  637SOL    HW2 2811   5.431   5.159   6.131 -0.8148  0.2284  0.0406
  638SOL     OW 2812   6.729   0.593   3.166 -0.2573  0.3091  0.0247
  638SOL    HW1 2813   6.786   0.550   3.236 -1.1890 -0.2387  0.4709
  638SOL    HW2 2814   6.633   0.571   3.184 -0.5696  0.7881 -1.0017
  639SOL     OW 2815   4.103   3.182   2.777 -0.2243  0.4640  0.0537
  639SOL    HW1 2816   4.063   3.100   2.735  2.1309 -0.0622 -1.3864
  639SOL    HW2 2817   4.094   3.177   2.876 -0.8521 -1.1664 -0.0530
  640SOL     OW 2818   3.051   3.217   6.070  0.1092 -0.5476  0.0006
  640SOL    HW1 2819   3.081   3.150   6.002 -0.6543 -0.8604 -0.0419
  640SOL    HW2 2820   3.081   3.308   6.043 -0.5403 -0.6100 -0.9848
  641SOL     OW 2821   0.552   0.249   5.242 -0.3557 -0.4608  0.1986
  641SOL    HW1 2822   0.565   0.327   5.182 -1.9141 -1.0249 -0.9600
  641SOL    HW2 2823   0.639   0.222   5.283  0.6456  0.3263 -1.3398
  642SOL     OW 2824   5.482   5.689   3.590  0.0061  0.3724 -0.6292
  642SOL    HW1 2825   5.467   5.614   3.526  1.3687 -0.7337  0.2871
  642SOL    HW2 2826   5.546   5.755   3.550 -2.0705  1.7217 -1.9072
  643SOL     OW 2827   5.166   6.366   4.954 -0.5596  0.4293  0.0686
  643SOL    HW1 2828   5.235   6.411   4.897 -0.0797 -1.3689 -0.8231
  643SOL    HW2 2829   5.089   6.428   4.968  0.2007  1.6258 -0.8565
  644SOL     OW 2830   2.957   4.987   2.973  0.4221 -0.0294  0.0540
  644SOL    HW1 2831   2.935   5.081   2.950 -0.0085 -0.0655  0.3164
  644SOL    HW2 2832   2.927   4.926   2.899 -0.8739 -0.1350  0.6400
  645SOL     OW 2833   1.210   2.384   2.960  0.2755 -0.0232 -0.1520
  645SOL    HW1 2834   1.211   2.433   2.873 -0.4338 -0.4894 -0.4302
  645SOL    HW2 2835   1.208   2.286   2.943 -0.1631 -0.1133  0.3787
  646SOL     OW 2836   1.410   3.266   3.543  0.0983 -0.5337 -0.1185
  646SOL    HW1 2837   1.499   3.228   3.515  0.5285  0.2825  0.1264
  646SOL    HW2 2838   1.343   3.248   3.471  0.3328 -1.5742 -0.1055
  647SOL     OW 2839   6.635   4.987   0.498 -0.1164 -0.0557 -1.0556
  647SOL    HW1 2840   6.669   5.010   0.407  2.5304  2.1867  0.3680
  647SOL    HW2 2841   6.700   4.928   0.545 -0.1284  0.9856  0.3213
  648SOL     OW 2842   3.783   1.757   3.066  0.1781  0.1974  0.2977
  648SOL    HW1 2843   3.704   1.807   3.101  0.3295  0.7653 -0.1605
  648SOL    HW2 2844   3.867   1.798   3.101  0.2957 -2.1618  3.2145
  649SOL     OW 2845   4.892   3.019   0.309  0.0483  0.2463  0.4325
  649SOL    HW1 2846   4.986   3.015   0.273 -0.1079  2.3040 -0.3604
  649SOL    HW2 2847   4.834   2.956   0.258  0.7383 -0.0713  0.0262
  650SOL     OW 2848   6.146   5.130   6.173  0.1298 -0.2571 -0.3817
  650SOL    HW1 2849   6.052   5.144   6.205  0.1805  0.0818 -0.3742
  650SOL    HW2 2850   6.144   5.084   6.084 -0.0563  0.1597 -0.5938
  651SOL     OW 2851   6.947   4.893   6.364 -0.7845 -0.4223  0.2584
  651SOL    HW1 2852   6.957   4.912   6.462 -0.1111 -1.1340  0.3398
  651SOL    HW2 2853   6.898   4.807   6.351 -1.2611 -0.1069 -0.0393
  652SOL     OW 2854   3.692   0.715   0.616  0.0627 -0.5386 -0.1548
  652SOL    HW1 2855   3.712   0.618   0.626  0.7840 -0.3643  0.1110
  652SOL    HW2 2856   3.755   0.768   0.672  1.4013  0.2306 -2.2642
  653SOL     OW 2857   2.677   4.846   1.959  0.2025  0.2390 -0.6135
  653SOL    HW1 2858   2.753   4.907   1.934 -0.2487  1.5893  1.1129
  653SOL    HW2 2859   2.714   4.767   2.007  0.5567  0.8843  0.2140
  654SOL     OW 2860   4.813   3.165   6.723  0.2650  0.0289 -0.2313
  654SOL    HW1 2861   4.903   3.130   6.748  0.2421  1.0102  1.3439
  654SOL    HW2 2862   4.776   3.219   6.799 -1.4595  0.0149 -1.0277
  655SOL     OW 2863   0.436   3.040   1.098 -0.1810  0.0523  0.1745
  655SOL    HW1 2864   0.525   3.019   1.056  0.4770  0.0115  1.5513
  655SOL    HW2 2865   0.396   2.956   1.135  0.5464  0.4883  2.0488
  656SOL     OW 2866   2.569   4.442   6.923 -0.8358  0.1086  0.1276
  656SOL    HW1 2867   2.498   4.433   6.854  1.2472 -0.0635 -2.1244
  656SOL    HW2 2868   2.584   4.354   6.968 -0.9755 -0.2393 -0.5042
  657SOL     OW 2869   6.271   6.119   3.283  0.7037 -0.0251 -0.5417
  657SOL    HW1 2870   6.354   6.133   3.338  1.1544 -0.5660 -1.0663
  657SOL    HW2 2871   6.246   6.205   3.238  1.7970 -0.1812 -1.4869
  658SOL     OW 2872   6.776   6.512   0.185 -0.5412  0.0951 -0.4032
  658SOL    HW1 2873   6.857   6.563   0.156  0.4109 -0.8040  0.5641
  658SOL    HW2 2874   6.749   6.542   0.276  1.0286 -2.1244  0.9074
  659SOL     OW 2875   4.069   1.243   6.794 -0.4220  0.2150 -0.2270
  659SOL    HW1 2876   3.991   1.230   6.855 -0.1777  0.6079  0.1743
  659SOL    HW2 2877   4.036   1.259   6.701 -0.8920  1.9252  0.2075
  660SOL     OW 2878   1.456   6.411   3.758 -0.1487 -0.5989  0.6221
  660SOL    HW1 2879   1.537   6.443   3.710 -0.0707  0.1573  1.2436
  660SOL    HW2 2880   1.374   6.444   3.711 -0.0710  0.4395  1.1833
  661SOL     OW 2881   0.402   4.510   2.258  0.3420  0.6459 -0.1017
  661SOL    HW1 2882   0.479   4.514   2.195 -0.2802  2.2464 -0.8077
  661SOL    HW2 2883   0.421   4.566   2.338 -0.2198  1.3589 -0.4543
  662SOL     OW 2884   6.257   2.512   0.954 -0.2444 -0.2638 -0.1194
  662SOL    HW1 2885   6.222   2.427   0.915  2.8250 -0.8233 -1.9694
  662SOL    HW2 2886   6.241   2.587   0.890 -1.7838  0.3473  0.9350
  663SOL     OW 2887   1.889   4.141   3.608  0.1424  0.6664 -0.3898
  663SOL    HW1 2888   1.965   4.150   3.544  0.7833  0.3218  0.3201
  663SOL    HW2 2889   1.831   4.065   3.578  1.1098 -0.2858  0.0987
  664SOL     OW 2890   6.255   1.167   5.235  0.0112  0.4625 -0.0186
  664SOL    HW1 2891   6.269   1.265   5.219 -0.2683  0.5374  0.1872
  664SOL    HW2 2892   6.344   1.121   5.239  0.1245  0.5936 -0.8111
  665SOL     OW 2893   0.572   2.629   1.932 -0.0207  0.0013  0.6361
  665SOL    HW1 2894   0.612   2.541   1.959  0.4603  0.1468  0.4069
  665SOL    HW2 2895   0.626   2.669   1.858 -0.8538 -0.0034  0.0085
  666SOL     OW 2896   3.724   1.053   4.636 -0.3369  0.0253 -0.3708
  666SOL    HW1 2897   3.753   1.035   4.543  1.1833 -0.2151  0.1189
  666SOL    HW2 2898   3.793   1.110   4.682  0.2496 -1.9664  1.3664
  667SOL     OW 2899   6.222   6.790   1.169 -0.3488  0.3094  0.3383
  667SOL    HW1 2900   6.256   6.714   1.225 -1.7298 -0.9329 -0.4580
  667SOL    HW2 2901   6.288   6.809   1.096 -0.6639 -1.1539 -0.3633
  668SOL     OW 2902   6.032   3.642   6.861  0.5941 -0.4592  0.1342
  668SOL    HW1 2903   6.032   3.559   6.917 -0.1508 -0.4661  0.1295
  668SOL    HW2 2904   5.943   3.687   6.867  1.1418  0.6152  0.5231
  669SOL     OW 2905   5.882   0.493   6.035  0.0855  0.0807  0.5842
  669SOL    HW1 2906   5.873   0.417   6.098  1.9912  0.9960  2.0786
  669SOL    HW2 2907   5.793   0.536   6.019 -0.5327 -0.6044  2.1103
  670SOL     OW 2908   4.710   2.295   1.888 -0.3496 -0.3521 -0.4838
  670SOL    HW1 2909   4.718   2.281   1.987  2.5486  1.2513 -0.3933
  670SOL    HW2 2910   4.619   2.330   1.867 -1.5517 -2.0809  1.3753
  671SOL     OW 2911   6.575   6.432   3.264  0.3112 -0.4772 -0.1011
  671SOL    HW1 2912   6.527   6.344   3.268  1.0733 -0.9279 -0.5376
  671SOL    HW2 2913   6.521   6.497   3.210  0.7467 -1.3636 -1.6814
  672SOL     OW 2914   1.198   0.094   1.982  0.3422 -0.3101 -0.0246
  672SOL    HW1 2915   1.235   0.187   1.985  1.1015 -0.5231 -1.5321
  672SOL    HW2 2916   1.220   0.046   2.067  0.7281  0.6039  0.4010
  673SOL     OW 2917   1.610   0.479   4.947 -0.6939 -0.3529 -0.5718
  673SOL    HW1 2918   1.531   0.485   5.008 -0.3085 -1.3486  0.0382
  673SOL    HW2 2919   1.597   0.405   4.882  0.5431 -1.7883  0.7531
  674SOL     OW 2920   4.968   5.614   3.699  0.3769  0.1160  0.1095
  674SOL    HW1 2921   4.907   5.586   3.773 -0.3494 -0.2227 -0.6084
  674SOL    HW2 2922   4.996   5.709   3.714 -3.9175  1.9386 -1.7921
  675SOL     OW 2923   6.111   5.714   0.974  0.2291 -0.1824  0.4200
  675SOL    HW1 2924   6.088   5.769   1.055 -1.3282 -1.4360  0.8918
  675SOL    HW2 2925   6.062   5.627   0.978 -0.1832 -0.1406 -2.0712
  676SOL     OW 2926   3.185   5.206   0.339  0.3321 -0.1558  0.9008
  676SOL    HW1 2927   3.265   5.175   0.288  0.7701  0.3082  1.2983
  676SOL    HW2 2928   3.130   5.266   0.281  2.7948  3.5541  2.0177
  677SOL     OW 2929   6.499   0.655   1.720  0.2254 -0.2197 -0.1763
  677SOL    HW1 2930   6.438   0.635   1.644 -0.8321  1.0418  0.3154
  677SOL    HW2 2931   6.533   0.749   1.713  2.5006 -0.9927 -0.6657
  678SOL     OW 2932   6.712   4.973   6.583 -0.0861 -0.1315  0.0222
  678SOL    HW1 2933   6.810   4.956   6.588 -0.2477 -1.0422  0.5039
  678SOL    HW2 2934   6.674   4.973   6.675 -0.7703 -1.3708 -0.2395
  679SOL     OW 2935   5.639   6.156   5.911 -0.9488 -0.2579  0.6482
  679SOL    HW1 2936   5.639   6.252   5.885  0.2193 -0.4970 -0.3028
  679SOL    HW2 2937   5.545   6.126   5.927 -1.3749  0.8721  0.3691
  680SOL     OW 2938   6.807   1.212   4.580 -0.3486  0.3575 -0.1360
  680SOL    HW1 2939   6.761   1.253   4.659 -0.4968 -1.0172  0.5244
  680SOL    HW2 2940   6.897   1.178   4.608  0.3866  1.5180 -1.0233
  681SOL     OW 2941   4.473   4.179   1.189 -0.6224  0.1807 -0.2054
  681SOL    HW1 2942   4.399   4.129   1.143 -0.1104 -0.2338 -0.5886
  681SOL    HW2 2943   4.507   4.125   1.266 -0.4688  0.2085 -0.2546
  682SOL     OW 2944   5.960   2.057   3.322  0.0872 -0.1091  0.4661
  682SOL    HW1 2945   5.875   2.031   3.276  0.6259 -0.1161 -0.5483
  682SOL    HW2 2946   6.038   2.027   3.267  0.7406  0.9998  0.7665
  683SOL     OW 2947   5.511   5.061   0.925  0.0753  0.0166 -0.1411
  683SOL    HW1 2948   5.437   5.019   0.977  1.0457 -0.6761  0.7205
  683SOL    HW2 2949   5.535   5.149   0.965 -1.4682  1.1225 -1.5117
  684SOL     OW 2950   4.915   2.289   6.666 -0.4036  0.1510  0.3446
  684SOL    HW1 2951   4.907   2.220   6.595  0.4740 -1.3833  1.6498
  684SOL    HW2 2952   4.825   2.309   6.704 -0.5241 -1.4880  0.9998
  685SOL     OW 2953   3.462   6.793   3.118 -0.4193  0.7871 -0.0827
  685SOL    HW1 2954   3.483   6.890   3.129  1.2724  0.5336 -0.6984
  685SOL    HW2 2955   3.460   6.770   3.021 -3.3634  0.6619 -0.0751
  686SOL     OW 2956   2.400   1.565   6.770 -0.1066 -0.2808 -0.2390
  686SOL    HW1 2957   2.382   1.566   6.868  1.0656  0.5023 -0.0145
  686SOL    HW2 2958   2.428   1.473   6.742 -0.2725 -0.4613  0.1906
  687SOL     OW 2959   0.393   1.266   4.159  0.1239  0.5407  0.1062
  687SOL    HW1 2960   0.491   1.250   4.164 -0.2089 -1.2881  1.9352
  687SOL    HW2 2961   0.368   1.338   4.224 -0.0044 -0.5418  1.2810
  688SOL     OW 2962   3.892   4.248   0.666  0.9197  0.1131 -0.2743
  688SOL    HW1 2963   3.981   4.209   0.645  0.4659  0.2732 -2.7191
  688SOL    HW2 2964   3.821   4.204   0.611  0.0845  2.7696 -1.5198
  689SOL     OW 2965   1.397   0.552   6.459  0.4467  0.0259  0.2040
  689SOL    HW1 2966   1.422   0.604   6.540 -0.2914 -0.1448  0.5491
  689SOL    HW2 2967   1.298   0.533   6.460  0.4607 -0.1383 -0.6353
  690SOL     OW 2968   5.504   2.679   3.341  0.4228  0.1273  0.0089
  690SOL    HW1 2969   5.458   2.761   3.308  0.4750 -0.5424 -1.8185
  690SOL    HW2 2970   5.520   2.687   3.440 -2.1159  1.0742  0.4120
  691SOL     OW 2971   5.405   0.136   4.561 -0.0990  0.2586  0.0951
  691SOL    HW1 2972   5.493   0.123   4.608 -1.2457  0.6108  2.4511
  691SOL    HW2 2973   5.419   0.127   4.462  2.8842  1.8971  0.2432
  692SOL     OW 2974   0.550   6.888   5.065  0.0211 -0.2179  0.5930
  692SOL    HW1 2975   0.595   6.871   4.977 -0.1599 -1.5499  0.7342
  692SOL    HW2 2976   0.503   6.976   5.062 -0.9583 -0.7347 -1.0780
  693SOL     OW 2977   6.782   2.259   1.781 -0.5584  0.8775  0.2239
  693SOL    HW1 2978   6.852   2.330   1.790 -0.1786  0.3548  1.6088
  693SOL    HW2 2979   6.691   2.301   1.788 -0.3432  1.2800  0.6573
  694SOL     OW 2980   3.014   4.986   4.035  0.4608  0.1982 -0.5470
  694SOL    HW1 2981   2.960   4.949   3.959 -0.8621 -1.7885  1.2590
  694SOL    HW2 2982   2.984   5.080   4.055 -3.4354 -1.2038  1.1893
  695SOL     OW 2983   3.210   6.429   4.785 -0.5628 -0.2699  0.4905
  695SOL    HW1 2984   3.266   6.490   4.841  0.9238 -1.0239 -0.1286
  695SOL    HW2 2985   3.142   6.483   4.736 -0.1545  0.7232  0.9901
  696SOL     OW 2986   0.485   4.012   2.610  0.1376  0.1311  0.1570
  696SOL    HW1 2987   0.582   4.020   2.633  0.0597  1.6190  0.0317
  696SOL    HW2 2988   0.434   4.087   2.652 -0.8669 -0.2497 -0.3358
  697SOL     OW 2989   0.549   6.055   1.764  0.3707 -0.1787 -0.1509
  697SOL    HW1 2990   0.638   6.026   1.799  0.0598 -1.9865 -0.7544
  697SOL    HW2 2991   0.528   6.146   1.798  1.2157 -0.8003  2.2210
  698SOL     OW 2992   6.857   0.710   4.477 -0.4107  0.2022  0.1547
  698SOL    HW1 2993   6.763   0.724   4.510 -0.4408 -0.5864  0.4237
  698SOL    HW2 2994   6.877   0.777   4.406 -0.9290  0.8393  0.5943
  699SOL     OW 2995   3.711   2.352   0.475 -0.0718 -0.8331 -0.2449
  699SOL    HW1 2996   3.807   2.347   0.450  0.0868  2.2886 -0.6074
  699SOL    HW2 2997   3.655   2.346   0.392 -0.1497 -1.2766 -0.1663
  700SOL     OW 2998   3.016   0.532   3.740  0.4557 -0.2691 -0.5467
  700SOL    HW1 2999   3.113   0.547   3.760  0.1990  1.2358 -0.3031
  700SOL    HW2 3000   2.961   0.590   3.800 -0.5186  0.5693 -2.1825
  701SOL     OW 3001   5.441   4.641   1.344 -0.2192 -0.1155 -0.1177
  701SOL    HW1 3002   5.434   4.672   1.250 -1.3568  1.3394  0.4052
  701SOL    HW2 3003   5.522   4.681   1.387  0.7944 -1.4694 -0.6777
  702SOL     OW 3004   4.923   3.440   5.602  0.1519  0.2897 -0.0099
  702SOL    HW1 3005   4.906   3.535   5.629  0.4931  0.2919  0.2059
  702SOL    HW2 3006   4.866   3.417   5.524  0.8687  1.0197 -0.7725
  703SOL     OW 3007   2.815   3.128   0.109  0.1651 -0.0182  0.3004
  703SOL    HW1 3008   2.869   3.101   0.188 -1.1924 -0.7845  0.9949
  703SOL    HW2 3009   2.792   3.047   0.054 -1.3104  0.1032  0.7024
  704SOL     OW 3010   4.604   0.081   0.977  0.2690  0.0594 -0.5123
  704SOL    HW1 3011   4.630   0.070   0.881 -0.9697  1.3392 -1.0295
  704SOL    HW2 3012   4.510   0.115   0.982  0.1058 -0.5747  1.1828
  705SOL     OW 3013   1.361   5.791   6.659  0.5217  0.3278  0.1364
  705SOL    HW1 3014   1.431   5.721   6.648  1.1519  0.9730 -0.0870
  705SOL    HW2 3015   1.393   5.861   6.722 -0.4411  0.0004  1.0109
  706SOL     OW 3016   4.632   1.271   4.890  0.5225 -0.6545  0.1856
  706SOL    HW1 3017   4.548   1.257   4.943  0.3991  0.9075  0.4303
  706SOL    HW2 3018   4.707   1.292   4.952  0.6128  0.1058 -0.1726
  707SOL     OW 3019   3.135   6.153   4.216 -0.5210  0.3688 -0.0525
  707SOL    HW1 3020   3.203   6.211   4.171  1.5380  0.2369  2.6540
  707SOL    HW2 3021   3.065   6.210   4.258 -0.0407  0.7632  0.2303
  708SOL     OW 3022   2.486   5.964   5.133 -0.5511  0.4047 -0.3541
  708SOL    HW1 3023   2.437   5.898   5.076 -2.3156  1.4263 -0.0750
  708SOL    HW2 3024   2.487   6.053   5.088  1.3122  0.3742 -0.4617
  709SOL     OW 3025   1.105   0.572   1.472 -0.4397  0.7750  0.4328
  709SOL    HW1 3026   1.136   0.646   1.532  0.9006  0.1103  0.6133
  709SOL    HW2 3027   1.125   0.484   1.515 -2.8664  0.2695  0.6389
  710SOL     OW 3028   3.746   1.610   3.648  0.0014  0.2698  0.2351
  710SOL    HW1 3029   3.799   1.596   3.732  0.9278  1.9818 -0.0426
  710SOL    HW2 3030   3.807   1.609   3.569 -0.6021  0.6318 -0.2418
  711SOL     OW 3031   1.524   2.849   7.013 -0.0877 -0.1710 -0.5436
  711SOL    HW1 3032   1.623   2.862   7.013  0.2802 -2.5726 -0.7191
  711SOL    HW2 3033   1.485   2.896   7.093  1.2815  0.1983 -0.0581
  712SOL     OW 3034   5.131   5.757   0.300  0.2998  0.3308 -0.4288
  712SOL    HW1 3035   5.075   5.810   0.364 -0.6266  1.0745 -1.7993
  712SOL    HW2 3036   5.085   5.671   0.278 -0.2145  0.8269 -1.3567
  713SOL     OW 3037   2.715   3.979   5.576 -0.5035  0.3060 -0.0133
  713SOL    HW1 3038   2.790   4.023   5.528 -1.3419  0.1339 -1.5209
  713SOL    HW2 3039   2.631   3.989   5.524 -1.1337 -1.2744  0.6292
  714SOL     OW 3040   3.122   6.582   2.019 -0.2945 -0.5219  0.2732
  714SOL    HW1 3041   3.035   6.611   1.979 -0.2847 -1.8697 -0.8300
  714SOL    HW2 3042   3.150   6.646   2.090 -2.4450 -0.3427  1.0129
  715SOL     OW 3043   6.211   5.720   6.888  0.2817  0.5213  1.1358
  715SOL    HW1 3044   6.138   5.692   6.951 -0.7944 -0.0379 -0.2905
  715SOL    HW2 3045   6.280   5.649   6.883  0.0642  0.2989  1.2370
  716SOL     OW 3046   1.331   2.666   2.796 -0.0175  0.6111 -0.0651
  716SOL    HW1 3047   1.259   2.632   2.735  0.8089  0.0643 -0.7616
  716SOL    HW2 3048   1.396   2.722   2.745  0.2911  0.7422  0.4562
  717SOL     OW 3049   4.745   4.709   3.908 -0.1068  0.1279  0.2449
  717SOL    HW1 3050   4.836   4.670   3.926 -0.3983 -0.1278  1.2145
  717SOL    HW2 3051   4.679   4.635   3.895 -0.0885  0.3122 -1.0014
  718SOL     OW 3052   6.909   1.386   4.140 -0.7133 -0.0848 -0.0292
  718SOL    HW1 3053   6.871   1.401   4.231 -1.9736  0.1759 -0.5772
  718SOL    HW2 3054   6.852   1.432   4.072  1.1891  1.2201 -0.8132
  719SOL     OW 3055   4.173   6.670   2.595  0.2921 -0.0170  0.1203
  719SOL    HW1 3056   4.252   6.650   2.653  0.2662 -0.4911 -0.0051
  719SOL    HW2 3057   4.095   6.616   2.625  0.5279 -0.9951 -0.9265
  720SOL     OW 3058   3.259   1.379   0.403 -0.1936 -0.1514 -0.0438
  720SOL    HW1 3059   3.283   1.399   0.308  0.0850 -1.2372 -0.2121
  720SOL    HW2 3060   3.216   1.460   0.444 -0.3037  0.3353 -1.0815
  721SOL     OW 3061   5.576   3.386   1.083  0.0759  0.1763 -0.1297
  721SOL    HW1 3062   5.525   3.319   1.137  0.0210  1.1327  1.0540
  721SOL    HW2 3063   5.518   3.420   1.009 -0.7856  0.7164  0.7646
  722SOL     OW 3064   6.987   0.338   1.408  0.3248  0.1535  0.4677
  722SOL    HW1 3065   6.951   0.402   1.340 -0.9648  1.3294  2.1496
  722SOL    HW2 3066   6.918   0.267   1.426  0.2972  0.3465  1.1410
  723SOL     OW 3067   3.232   0.274   4.638  0.3061 -0.0568  0.6980
  723SOL    HW1 3068   3.260   0.326   4.720  0.8332 -1.6446  1.5676
  723SOL    HW2 3069   3.210   0.180   4.664  0.7015 -0.6610 -1.0335
  724SOL     OW 3070   0.801   2.398   4.794 -0.7423 -0.1064  0.7593
  724SOL    HW1 3071   0.794   2.332   4.869 -2.0841  1.4377  2.0649
  724SOL    HW2 3072   0.740   2.370   4.719  0.9119 -1.8769 -0.0129
  725SOL     OW 3073   2.426   5.239   3.708 -0.7143  0.2091  0.2281
  725SOL    HW1 3074   2.345   5.225   3.652  0.0281  1.1481 -1.1632
  725SOL    HW2 3075   2.503   5.263   3.649  0.5730 -0.5748  1.5065
  726SOL     OW 3076   2.471   4.501   1.535  0.6924  0.1292  1.0034
  726SOL    HW1 3077   2.456   4.402   1.536  1.8718 -0.0721  0.6559
  726SOL    HW2 3078   2.549   4.522   1.476 -1.4068  1.5800 -1.4542
  727SOL     OW 3079   4.271   5.985   4.641 -0.0837  0.6366 -0.0024
  727SOL    HW1 3080   4.319   5.908   4.681 -2.7207 -0.2267  1.7306
  727SOL    HW2 3081   4.271   6.062   4.705  0.7110  1.3611 -0.8455
  728SOL     OW 3082   5.256   3.636   5.808 -0.4150  1.0556  0.2140
  728SOL    HW1 3083   5.214   3.645   5.718 -0.0288  0.2981 -0.0508
  728SOL    HW2 3084   5.190   3.600   5.873  0.2473 -2.0124 -0.6335
  729SOL     OW 3085   0.422   4.414   1.756  0.2994  0.6110  0.2558
  729SOL    HW1 3086   0.326   4.420   1.781  0.3466  2.8525  0.0584
  729SOL    HW2 3087   0.430   4.365   1.669 -0.7366  1.0880 -0.1251
  730SOL     OW 3088   1.836   6.172   3.907 -0.1014 -0.7202  0.1411
  730SOL    HW1 3089   1.847   6.208   4.000  1.7058  0.0528 -0.3387
  730SOL    HW2 3090   1.770   6.096   3.909 -2.6720  1.3419  1.4884
  731SOL     OW 3091   6.423   4.992   3.843 -0.1711  0.4756  0.6494
  731SOL    HW1 3092   6.435   4.957   3.750  0.3048  2.7307 -0.2031
  731SOL    HW2 3093   6.329   5.025   3.854  0.1540  1.4856  0.4810
  732SOL     OW 3094   3.526   0.115   4.732 -0.1369 -0.4167  0.1889
  732SOL    HW1 3095   3.496   0.156   4.818 -1.4017  1.1633 -0.9221
  732SOL    HW2 3096   3.471   0.034   4.712 -1.0015  0.1716  0.1053
  733SOL     OW 3097   1.455   2.996   4.431  0.0950  0.2517 -0.6545
  733SOL    HW1 3098   1.528   3.065   4.426  1.2119 -0.7672  0.7469
  733SOL    HW2 3099   1.397   3.015   4.510 -0.3796  0.2914 -1.0065
  734SOL     OW 3100   0.159   5.350   2.479 -0.0018  0.3343  0.0103
  734SOL    HW1 3101   0.060   5.346   2.493 -0.1887  0.3536 -1.1987
  734SOL    HW2 3102   0.199   5.260   2.494 -0.2490  0.2613  0.2205
  735SOL     OW 3103   5.024   0.700   1.172  0.5790  0.4008  0.2379
  735SOL    HW1 3104   5.062   0.635   1.237 -0.4011 -0.8298 -0.3609
  735SOL    HW2 3105   4.948   0.749   1.214  0.3880  0.1046  0.2398
  736SOL     OW 3106   1.911   2.638   2.400 -0.4682  0.0663  0.2401
  736SOL    HW1 3107   1.999   2.606   2.365  0.5041  1.4074  1.3487
  736SOL    HW2 3108   1.895   2.598   2.491 -0.0230  1.3788  0.9155
  737SOL     OW 3109   3.692   0.606   5.671 -0.0409 -0.0296 -0.3785
  737SOL    HW1 3110   3.790   0.588   5.661 -0.2068 -0.7403 -0.7864
  737SOL    HW2 3111   3.653   0.630   5.582 -0.4459 -0.8315 -0.4213
  738SOL     OW 3112   2.940   4.987   0.771 -0.5804 -0.0098 -0.1068
  738SOL    HW1 3113   2.883   4.905   0.764  1.3205 -1.3481 -0.7533
  738SOL    HW2 3114   2.955   5.024   0.679 -1.6901  1.3046  0.2089
  739SOL     OW 3115   2.962   1.597   1.871 -0.1031 -0.1873  0.2149
  739SOL    HW1 3116   2.864   1.614   1.866 -0.1191 -0.3678 -0.1316
  739SOL    HW2 3117   2.984   1.517   1.815  0.7267  1.8208 -2.5272
  740SOL     OW 3118   4.755   2.882   3.362  0.4315 -0.1944 -0.3871
  740SOL    HW1 3119   4.790   2.817   3.429  0.8721 -0.5910 -0.9932
  740SOL    HW2 3120   4.687   2.837   3.304 -0.6597  0.4119  0.4062
  741SOL     OW 3121   2.729   2.098   3.212  0.4771 -0.1743 -0.1720
  741SOL    HW1 3122   2.647   2.125   3.162 -0.1853 -1.4607  0.1891
  741SOL    HW2 3123   2.810   2.126   3.160 -0.1663  1.0154 -0.5795
  742SOL     OW 3124   2.700   0.891   0.146  0.2762 -0.7510 -0.4146
  742SOL    HW1 3125   2.646   0.810   0.120  0.0941 -0.9925  0.6562
  742SOL    HW2 3126   2.778   0.862   0.201  0.5544 -0.2384 -0.5382
  743SOL     OW 3127   0.253   6.539   1.839 -0.3266 -0.1580 -0.7067
  743SOL    HW1 3128   0.194   6.573   1.913  0.4430 -0.3114 -0.0099
  743SOL    HW2 3129   0.196   6.516   1.760 -1.1876 -0.1660 -0.1084
  744SOL     OW 3130   6.141   0.032   0.694 -0.2368  0.0005 -0.0900
  744SOL    HW1 3131   6.136   0.040   0.595  1.5980 -0.9933 -0.3046
  744SOL    HW2 3132   6.236   0.030   0.723 -0.7184 -0.7390  1.6062
  745SOL     OW 3133   2.296   4.477   6.324  0.0837 -0.1559  0.0744
  745SOL    HW1 3134   2.310   4.382   6.295 -0.1017 -0.3544  0.6046
  745SOL    HW2 3135   2.378   4.530   6.307  0.3123 -0.4984  0.0914
  746SOL     OW 3136   0.534   3.972   0.435 -0.0304  0.2531  0.2760
  746SOL    HW1 3137   0.461   3.922   0.483  0.4146 -1.1028 -0.4340
  746SOL    HW2 3138   0.507   3.987   0.340 -0.5290  2.1745  0.6602
  747SOL     OW 3139   3.553   4.952   3.895 -0.3069  0.3607  0.0352
  747SOL    HW1 3140   3.498   4.934   3.976  1.2996 -3.9407  0.4160
  747SOL    HW2 3141   3.641   4.992   3.922 -0.7523  1.3769  0.0512
  748SOL     OW 3142   0.599   6.940   3.985  0.6837 -0.1650 -0.2275
  748SOL    HW1 3143   0.620   6.913   3.891  1.0671  1.2376 -0.5710
  748SOL    HW2 3144   0.612   6.862   4.046 -1.7320 -1.7734 -1.5777
  749SOL     OW 3145   6.218   5.498   3.617 -0.1183  0.2298 -0.5174
  749SOL    HW1 3146   6.121   5.514   3.636 -0.2197 -1.1665  0.3091
  749SOL    HW2 3147   6.272   5.574   3.652 -1.0085  1.7688 -2.3372
  750SOL     OW 3148   0.530   2.121   1.989 -0.8316  0.2413 -0.4088
  750SOL    HW1 3149   0.590   2.048   1.955 -1.1018 -0.7781  1.1410
  750SOL    HW2 3150   0.466   2.082   2.056 -1.1052  1.8850  0.3363
  751SOL     OW 3151   3.008   0.293   5.433 -0.1633  0.0298  0.4401
  751SOL    HW1 3152   3.060   0.252   5.357 -0.8325 -0.6143  0.3152
  751SOL    HW2 3153   3.070   0.310   5.510  0.0238 -1.9477  0.7808
  752SOL     OW 3154   3.143   3.054   5.836 -0.2008 -0.0968 -0.5091
  752SOL    HW1 3155   3.174   2.975   5.783 -0.9642 -0.0638 -1.0056
  752SOL    HW2 3156   3.167   3.138   5.788  0.9873  0.0171  0.2153
  753SOL     OW 3157   3.225   3.549   2.561 -0.1013  0.5124 -0.2638
  753SOL    HW1 3158   3.325   3.556   2.560 -0.1482  1.3535  0.1770
  753SOL    HW2 3159   3.185   3.640   2.555 -0.8474  0.1917 -0.2576
  754SOL     OW 3160   4.776   5.680   5.384 -0.4444 -0.2578  0.4281
  754SOL    HW1 3161   4.722   5.607   5.342  0.2208 -0.4183 -0.1730
  754SOL    HW2 3162   4.865   5.644   5.411 -0.4299  0.1326  0.9204
  755SOL     OW 3163   5.244   4.966   2.318  0.5204  0.0842 -0.7879
  755SOL    HW1 3164   5.321   4.943   2.259  0.0511 -0.1484 -1.3197
  755SOL    HW2 3165   5.170   4.900   2.303  0.8330 -0.7200  0.9331
  756SOL     OW 3166   4.144   0.102   3.934 -0.3179 -0.1914  0.0226
  756SOL    HW1 3167   4.155   0.174   3.866 -1.1267  1.0027  1.1093
  756SOL    HW2 3168   4.221   0.038   3.927  0.3187  0.6612 -1.1049
  757SOL     OW 3169   5.872   0.287   6.778  0.4129  0.2093 -0.6814
  757SOL    HW1 3170   5.898   0.368   6.725  0.7080  0.2904 -0.4208
  757SOL    HW2 3171   5.879   0.205   6.721  1.3710  0.2159 -0.5867
  758SOL     OW 3172   3.821   1.227   6.928 -0.3281  0.2758 -0.0355
  758SOL    HW1 3173   3.807   1.325   6.910 -0.0023  0.2120 -0.6586
  758SOL    HW2 3174   3.737   1.188   6.965 -0.7770  0.5898 -0.6982
  759SOL     OW 3175   0.974   1.642   3.754  0.2523  0.3028  0.3744
  759SOL    HW1 3176   1.018   1.658   3.666  0.2509  2.0444  0.6541
  759SOL    HW2 3177   0.986   1.547   3.781  1.9134  0.2018 -0.6091
  760SOL     OW 3178   6.860   6.479   3.895  0.0922 -0.4080 -0.6688
  760SOL    HW1 3179   6.766   6.459   3.868 -0.2572 -0.2213  0.3362
  760SOL    HW2 3180   6.891   6.561   3.848 -0.5131 -0.0613 -0.4799
  761SOL     OW 3181   5.447   3.940   4.370  0.2433 -0.3773 -0.2770
  761SOL    HW1 3182   5.546   3.940   4.388  0.1067  1.9388  0.7576
  761SOL    HW2 3183   5.404   3.868   4.424  1.0668  0.3388  1.4248
  762SOL     OW 3184   4.323   0.086   4.611  0.0344  0.3570  0.0479
  762SOL    HW1 3185   4.402   0.148   4.606  0.5349 -0.3780 -2.0073
  762SOL    HW2 3186   4.286   0.072   4.520 -1.1374 -1.0500  0.7044
  763SOL     OW 3187   5.983   1.445   6.889  0.0887 -0.4696 -0.1228
  763SOL    HW1 3188   6.037   1.522   6.923  0.7223 -0.4138 -1.2235
  763SOL    HW2 3189   6.010   1.362   6.938 -0.5910 -0.0238  1.0606
  764SOL     OW 3190   1.908   6.582   4.597  0.2042  0.1494 -0.0182
  764SOL    HW1 3191   1.958   6.578   4.510  1.0487 -0.6721  0.4832
  764SOL    HW2 3192   1.842   6.507   4.601 -1.2779  1.3769 -0.7810
  765SOL     OW 3193   5.365   0.175   6.428  0.1088  0.2662  0.3717
  765SOL    HW1 3194   5.354   0.088   6.380 -0.6991  0.0855  0.8648
  765SOL    HW2 3195   5.462   0.189   6.451  0.3966  0.0153 -0.6587
  766SOL     OW 3196   3.210   1.217   4.737  0.3595  0.3904 -0.0215
  766SOL    HW1 3197   3.156   1.141   4.772  1.0764 -0.8304 -1.4391
  766SOL    HW2 3198   3.187   1.301   4.788 -0.6506 -0.6863  1.3926
  767SOL     OW 3199   1.634   0.078   3.419 -0.2555 -0.0604  0.3119
  767SOL    HW1 3200   1.570   0.116   3.486  0.8316  1.6406  0.4557
  767SOL    HW2 3201   1.698   0.017   3.466 -0.9806 -0.7932  0.3761
  768SOL     OW 3202   1.598   5.806   1.441 -0.0033  0.3303 -0.0375
  768SOL    HW1 3203   1.634   5.835   1.352  2.2171  0.6508  0.8697
  768SOL    HW2 3204   1.581   5.887   1.497  2.5489  0.1588  1.1732
  769SOL     OW 3205   5.091   2.018   6.092 -0.5515  0.1248 -0.5552
  769SOL    HW1 3206   5.103   1.950   6.019 -1.4643 -0.2256 -0.3842
  769SOL    HW2 3207   5.178   2.066   6.106 -0.2482 -0.0938 -1.5782
  770SOL     OW 3208   1.973   4.667   5.899  0.0681  0.3138 -0.3128
  770SOL    HW1 3209   1.900   4.658   5.831 -1.0098  0.4125  0.7859
  770SOL    HW2 3210   1.940   4.633   5.987  1.1630  0.9044  0.3433
  771SOL     OW 3211   0.801   5.128   2.661  0.3657 -0.6618 -0.0339
  771SOL    HW1 3212   0.897   5.155   2.656  0.7008 -1.5408  1.1443
  771SOL    HW2 3213   0.766   5.114   2.569  1.8094 -1.7860 -0.4553
  772SOL     OW 3214   5.137   5.156   6.161 -0.2987  0.2091  0.2611
  772SOL    HW1 3215   5.234   5.132   6.172  0.0326  0.8711 -1.0554
  772SOL    HW2 3216   5.096   5.096   6.092 -1.4598 -1.6134  2.3980
  773SOL     OW 3217   1.275   4.809   2.478  0.2328  0.1389 -0.3376
  773SOL    HW1 3218   1.182   4.822   2.514  0.2353 -0.3276 -0.1589
  773SOL    HW2 3219   1.329   4.759   2.545  0.3784 -0.3112 -0.7860
  774SOL     OW 3220   0.766   4.636   4.076  0.5118  0.0929 -0.0952
  774SOL    HW1 3221   0.836   4.620   4.146  0.8584  1.3155 -0.1425
  774SOL    HW2 3222   0.675   4.618   4.115  0.8260 -1.4056 -0.0048
  775SOL     OW 3223   5.615   5.597   2.884  0.1176  0.4502  0.1030
  775SOL    HW1 3224   5.679   5.662   2.925 -1.0671  1.6871  0.0871
  775SOL    HW2 3225   5.562   5.643   2.813  0.4069 -1.0060 -1.1119
  776SOL     OW 3226   1.599   4.361   6.632  0.1101  0.0237 -0.3199
  776SOL    HW1 3227   1.552   4.414   6.703 -0.0416  0.7197 -0.9331
  776SOL    HW2 3228   1.532   4.326   6.567  0.3262  0.0945 -0.5828
  777SOL     OW 3229   0.681   3.823   6.806 -0.1758  0.1705 -0.0211
  777SOL    HW1 3230   0.746   3.871   6.748 -2.8399  3.2826 -0.7103
  777SOL    HW2 3231   0.623   3.764   6.750  2.4503 -3.4720  0.7119
  778SOL     OW 3232   1.838   5.766   0.697 -0.1662 -0.1392 -0.1526
  778SOL    HW1 3233   1.760   5.824   0.673  0.9721  0.9916 -1.2280
  778SOL    HW2 3234   1.838   5.685   0.638 -0.1712  0.1819 -0.6016
  779SOL     OW 3235   5.866   3.965   3.139 -0.2483  0.2090  0.0476
  779SOL    HW1 3236   5.852   3.948   3.237  0.0379  0.4195  0.1240
  779SOL    HW2 3237   5.942   4.029   3.126 -0.6189  0.5913 -0.2885
  780SOL     OW 3238   6.836   4.710   4.622 -0.6065  0.6042 -0.2883
  780SOL    HW1 3239   6.919   4.762   4.603  0.6263 -1.0523  0.3351
  780SOL    HW2 3240   6.799   4.736   4.711 -0.6371  1.1788 -0.4656
  781SOL     OW 3241   5.501   5.625   6.536 -0.2393 -0.1445 -0.1592
  781SOL    HW1 3242   5.570   5.625   6.464 -0.5058  1.2774 -0.4407
  781SOL    HW2 3243   5.431   5.557   6.516  0.7566 -1.2028 -0.1633
  782SOL     OW 3244   2.231   6.354   0.278  0.2388  0.1049 -0.1255
  782SOL    HW1 3245   2.187   6.362   0.368  0.4522  0.5565 -0.0621
  782SOL    HW2 3246   2.218   6.439   0.227 -0.7842 -0.5199 -0.9355
  783SOL     OW 3247   0.552   4.321   5.358 -0.7716 -0.1694 -0.1023
  783SOL    HW1 3248   0.562   4.222   5.367 -1.5006 -0.1330  1.4036
  783SOL    HW2 3249   0.461   4.343   5.323 -0.7964 -0.0074  0.0636
  784SOL     OW 3250   1.761   6.387   0.675  0.0672  0.3947 -0.4084
  784SOL    HW1 3251   1.800   6.357   0.588 -0.0242 -0.0477 -0.3017
  784SOL    HW2 3252   1.775   6.315   0.744  0.3517  0.8403  0.0044
  785SOL     OW 3253   0.844   6.997   2.988 -0.3252 -0.0201 -0.4983
  785SOL    HW1 3254   0.926   6.998   2.932  0.3081  0.1584  0.4056
  785SOL    HW2 3255   0.770   6.950   2.939  0.3778 -0.3826 -1.2288
  786SOL     OW 3256   4.707   2.033   5.782 -0.1476 -0.1449  0.5373
  786SOL    HW1 3257   4.685   2.033   5.880  1.3530  0.3119  0.9064
  786SOL    HW2 3258   4.757   1.949   5.760 -0.9989 -0.5287  0.0157
  787SOL     OW 3259   4.198   6.050   0.324 -0.4642  0.2996 -0.1094
  787SOL    HW1 3260   4.107   6.010   0.330 -0.0551 -0.4555  2.3279
  787SOL    HW2 3261   4.266   5.983   0.353  0.9459  0.7414 -2.1805
  788SOL     OW 3262   2.577   2.070   5.062  0.1248 -0.5578  0.0517
  788SOL    HW1 3263   2.667   2.095   5.026 -0.5181  1.0231 -0.5424
  788SOL    HW2 3264   2.507   2.127   5.020 -1.1564 -1.6488  0.6308
  789SOL     OW 3265   3.533   5.271   0.869 -0.1788 -0.5718 -0.2700
  789SOL    HW1 3266   3.466   5.335   0.831 -0.1323  0.8416  1.8733
  789SOL    HW2 3267   3.485   5.193   0.910 -0.3749 -0.6895 -0.7156
  790SOL     OW 3268   0.486   3.886   2.100 -0.2339  0.3666 -0.3433
  790SOL    HW1 3269   0.529   3.797   2.119  2.0712  1.1680 -1.3701
  790SOL    HW2 3270   0.457   3.927   2.185  2.0840  0.1961  0.6152
  791SOL     OW 3271   1.818   5.487   5.472 -0.7245 -0.5003 -0.4614
  791SOL    HW1 3272   1.725   5.500   5.437 -1.2332 -1.6307  0.4032
  791SOL    HW2 3273   1.846   5.568   5.524 -1.5472 -0.4747 -0.0439
  792SOL     OW 3274   3.143   6.539   6.018 -0.3015 -0.1553 -0.1045
  792SOL    HW1 3275   3.184   6.569   6.105  1.4378 -1.3054 -0.4702
  792SOL    HW2 3276   3.120   6.620   5.963 -0.5158  0.5716  1.0234
  793SOL     OW 3277   1.755   6.369   4.589 -0.3820 -0.4571  0.4974
  793SOL    HW1 3278   1.740   6.363   4.688  0.3945 -0.3090  0.6290
  793SOL    HW2 3279   1.691   6.308   4.542 -0.0455 -1.3393  1.1513
  794SOL     OW 3280   3.624   2.873   0.961 -0.3558 -0.3383 -0.7003
  794SOL    HW1 3281   3.698   2.905   1.020  0.5190 -1.2690 -1.2550
  794SOL    HW2 3282   3.649   2.783   0.923 -1.3887 -0.2635 -1.5839
  795SOL     OW 3283   4.333   5.530   5.647 -0.0286  0.3781 -0.9806
  795SOL    HW1 3284   4.433   5.538   5.654 -0.2485  2.5050  1.0729
  795SOL    HW2 3285   4.304   5.447   5.695  0.6551  0.7866  0.2066
  796SOL     OW 3286   1.762   0.860   6.918 -0.2752  0.3719  0.2059
  796SOL    HW1 3287   1.751   0.770   6.960 -0.6081  0.5570  0.5132
  796SOL    HW2 3288   1.835   0.910   6.965 -1.2702  0.9412  1.1904
  797SOL     OW 3289   2.214   5.299   1.957 -1.0158  0.2131  0.2497
  797SOL    HW1 3290   2.162   5.381   1.937 -1.5564 -0.4563 -1.2717
  797SOL    HW2 3291   2.267   5.273   1.876  1.8932  0.9721  1.7662
  798SOL     OW 3292   5.245   3.925   1.800 -0.2683 -0.3157  0.1126
  798SOL    HW1 3293   5.246   4.019   1.836 -0.1514 -0.9867  1.9585
  798SOL    HW2 3294   5.240   3.928   1.700 -3.4284  1.6583  0.1914
  799SOL     OW 3295   3.355   3.896   6.066  0.2235  0.0353  0.2535
  799SOL    HW1 3296   3.321   3.809   6.104  0.1126 -0.1150 -0.1864
  799SOL    HW2 3297   3.290   3.930   5.998  1.1138 -0.4525 -0.8872
  800SOL     OW 3298   4.251   2.329   3.531 -0.7739 -0.2727 -0.1800
  800SOL    HW1 3299   4.177   2.264   3.548 -1.4458  0.2261 -1.1503
  800SOL    HW2 3300   4.217   2.406   3.478  0.4740 -0.1018 -0.7676
  801SOL     OW 3301   0.976   4.033   0.470 -0.5857 -0.4035  0.4684
  801SOL    HW1 3302   1.057   4.086   0.494  0.8029 -1.3529 -1.7358
  801SOL    HW2 3303   0.991   3.937   0.491 -2.0162 -0.3395  1.9608
  802SOL     OW 3304   2.801   3.017   1.447 -0.4099  0.5436  0.4545
  802SOL    HW1 3305   2.901   3.023   1.441 -0.2317  0.1287  2.2782
  802SOL    HW2 3306   2.762   3.109   1.444  0.1337  0.8016  1.0310
  803SOL     OW 3307   3.014   2.250   4.123 -0.0839 -0.1610 -0.1961
  803SOL    HW1 3308   3.009   2.220   4.218  0.9491 -0.2379 -0.1638
  803SOL    HW2 3309   2.925   2.287   4.096 -0.2735  0.2403  0.9196
  804SOL     OW 3310   4.259   5.146   2.224  0.0998  0.0627  0.0714
  804SOL    HW1 3311   4.263   5.052   2.258 -1.1285 -0.5856 -1.4594
  804SOL    HW2 3312   4.345   5.168   2.179  0.1499 -0.6014 -0.1794
  805SOL     OW 3313   2.980   1.553   4.222  0.2008  0.2296  0.0806
  805SOL    HW1 3314   3.031   1.589   4.300 -1.9779  1.2893  1.0941
  805SOL    HW2 3315   2.973   1.624   4.152  0.0652  0.0999 -0.0358
  806SOL     OW 3316   3.260   7.013   5.667 -0.2155  0.0732 -0.7305
  806SOL    HW1 3317   3.312   6.938   5.705 -0.2635  0.2292 -0.3544
  806SOL    HW2 3318   3.321   7.091   5.649 -0.6717  1.2802  2.2747
  807SOL     OW 3319   0.508   6.233   6.932  0.3599  0.0305  0.1495
  807SOL    HW1 3320   0.436   6.262   6.868  1.2297  0.3256 -0.7149
  807SOL    HW2 3321   0.584   6.194   6.881 -0.3068 -2.9366  1.1806
  808SOL     OW 3322   4.468   0.103   0.688 -0.0891 -0.5552  0.2104
  808SOL    HW1 3323   4.566   0.085   0.683  0.1754  0.9601 -1.1840
  808SOL    HW2 3324   4.419   0.019   0.708  1.4678 -1.4205  0.5369
  809SOL     OW 3325   0.985   5.806   5.832 -0.4176 -0.1644  0.2396
  809SOL    HW1 3326   0.964   5.715   5.797  1.7502 -0.6308  0.0456
  809SOL    HW2 3327   1.082   5.813   5.853 -0.7239  1.7731  1.3001
  810SOL     OW 3328   3.708   3.205   0.611 -0.1756 -0.2114 -0.3938
  810SOL    HW1 3329   3.801   3.171   0.595 -0.5286 -0.4335 -2.2726
  810SOL    HW2 3330   3.657   3.138   0.666  0.8155  0.0088  0.8224
  811SOL     OW 3331   6.815   4.819   3.527  0.0450 -0.4706 -0.4812
  811SOL    HW1 3332   6.906   4.851   3.499  0.4263  0.3259  1.5383
  811SOL    HW2 3333   6.775   4.764   3.453  2.4341 -1.4128 -1.1633
  812SOL     OW 3334   2.093   2.834   2.668  0.7091 -0.0022  0.0288
  812SOL    HW1 3335   2.141   2.917   2.696 -0.9493 -0.0106  3.2833
  812SOL    HW2 3336   2.153   2.755   2.680  0.9727  0.3156  0.8303
  813SOL     OW 3337   3.221   0.110   5.276 -0.1637  0.0157  0.2469
  813SOL    HW1 3338   3.210   0.124   5.178 -0.3201  1.2255  0.4204
  813SOL    HW2 3339   3.308   0.064   5.294  0.1458  0.3301 -0.4229
  814SOL     OW 3340   6.494   5.837   1.620 -0.2618 -0.8786 -0.2022
  814SOL    HW1 3341   6.540   5.842   1.532  0.3332  1.0146  0.1896
  814SOL    HW2 3342   6.395   5.843   1.606 -0.1767 -0.6991 -0.7489
  815SOL     OW 3343   4.215   1.333   4.407 -0.0407  0.2970  0.0889
  815SOL    HW1 3344   4.204   1.234   4.397 -1.0618  0.2781  1.1669
  815SOL    HW2 3345   4.291   1.352   4.469  1.6336  0.2726 -1.8539
  816SOL     OW 3346   5.701   2.311   5.333  0.7340  0.3666  0.0441
  816SOL    HW1 3347   5.774   2.282   5.395  0.8298 -1.5519 -0.9070
  816SOL    HW2 3348   5.642   2.377   5.380 -0.4067 -2.4778  2.9797
  817SOL     OW 3349   6.721   6.095   2.596  0.0658  0.1925  0.1698
  817SOL    HW1 3350   6.802   6.140   2.632  0.2206 -1.4015  1.9666
  817SOL    HW2 3351   6.649   6.163   2.580  1.6549  1.6020 -1.2918
  818SOL     OW 3352   6.840   1.259   2.454  0.4621 -0.2653 -0.5841
  818SOL    HW1 3353   6.844   1.317   2.536  2.5380 -0.5515 -0.4486
  818SOL    HW2 3354   6.929   1.219   2.437 -0.0573 -0.5976 -2.7562
  819SOL     OW 3355   6.265   4.506   1.463 -0.1666  0.0729  0.3050
  819SOL    HW1 3356   6.208   4.582   1.495  0.7346  1.0578 -0.3711
  819SOL    HW2 3357   6.250   4.491   1.365  1.7659  1.3357 -0.2401
  820SOL     OW 3358   0.566   1.801   6.148  0.1644  0.5844  0.1690
  820SOL    HW1 3359   0.654   1.752   6.152  0.3968  0.7475 -1.8381
  820SOL    HW2 3360   0.519   1.793   6.236  1.3174 -1.1329  0.6721
  821SOL     OW 3361   4.634   2.806   5.221  0.1372  0.0383  0.2711
  821SOL    HW1 3362   4.673   2.812   5.129  0.1116 -0.3245  0.2344
  821SOL    HW2 3363   4.707   2.812   5.289  0.1862  0.0225  0.2194
  822SOL     OW 3364   0.445   5.748   5.325  0.1536  0.3891  0.0297
  822SOL    HW1 3365   0.523   5.809   5.339  0.3347  0.0577  0.5077
  822SOL    HW2 3366   0.476   5.666   5.276  0.4494 -0.4375  1.5226
  823SOL     OW 3367   1.354   4.100   6.040 -0.2895 -0.0743 -0.0043
  823SOL    HW1 3368   1.344   4.093   6.140  0.3625  0.0446  0.0719
  823SOL    HW2 3369   1.315   4.018   5.997 -0.8601  0.0180  0.3239
  824SOL     OW 3370   4.815   0.165   0.356 -0.3783 -0.0795 -0.2272
  824SOL    HW1 3371   4.886   0.117   0.305  1.3396 -0.2233  2.1394
  824SOL    HW2 3372   4.748   0.098   0.390  0.2144 -0.4128  0.3182
  825SOL     OW 3373   5.939   1.039   1.064  0.2941  0.4753  0.5188
  825SOL    HW1 3374   5.908   1.101   1.136  2.1085 -0.8980  2.5941
  825SOL    HW2 3375   6.022   1.074   1.023  0.0893  0.5158  0.1373
  826SOL     OW 3376   3.217   2.490   1.703 -0.8554  0.1566 -0.4604
  826SOL    HW1 3377   3.150   2.419   1.724  0.1963 -1.1717 -1.3909
  826SOL    HW2 3378   3.176   2.558   1.642 -1.9371  0.4830  0.5925
  827SOL     OW 3379   3.323   2.525   5.365  0.3614 -0.1581 -0.2656
  827SOL    HW1 3380   3.292   2.468   5.289 -0.4691  0.1195 -0.1503
  827SOL    HW2 3381   3.248   2.584   5.394  1.4526  1.6128 -0.9320
  828SOL     OW 3382   1.624   5.788   6.214  0.5819  0.2829  0.0177
  828SOL    HW1 3383   1.687   5.789   6.292  1.1925 -0.3817 -0.4523
  828SOL    HW2 3384   1.615   5.880   6.177 -0.1276  0.6986  1.1922
  829SOL     OW 3385   2.901   3.836   1.586  0.0233 -0.0534 -0.1526
  829SOL    HW1 3386   2.829   3.905   1.588 -0.3338 -0.4364  1.0802
  829SOL    HW2 3387   2.954   3.840   1.671  0.3201 -0.9473 -0.2879
  830SOL     OW 3388   6.801   3.999   6.035 -0.2698 -0.2380  0.6975
  830SOL    HW1 3389   6.847   3.924   6.083 -0.3783  0.0821  1.3108
  830SOL    HW2 3390   6.802   4.081   6.092  3.0263  1.3329 -1.2897
  831SOL     OW 3391   5.886   1.548   3.305 -0.3238  0.1986  0.0737
  831SOL    HW1 3392   5.946   1.618   3.266 -1.3906  1.2741  0.3064
  831SOL    HW2 3393   5.865   1.479   3.235  2.5181 -1.1890  0.4430
  832SOL     OW 3394   3.591   2.848   6.208 -0.5653 -0.5411  0.2883
  832SOL    HW1 3395   3.603   2.880   6.114  3.0424 -0.5624  0.6031
  832SOL    HW2 3396   3.623   2.918   6.271 -2.0006 -0.9298  1.4869
  833SOL     OW 3397   3.564   4.212   7.018 -0.4310 -0.9302  0.2200
  833SOL    HW1 3398   3.588   4.148   7.091 -0.2091  1.2082  2.0991
  833SOL    HW2 3399   3.648   4.239   6.969 -0.3689 -1.1294  0.2143
  834SOL     OW 3400   6.496   2.121   1.411 -0.0507 -0.3607  0.0572
  834SOL    HW1 3401   6.397   2.111   1.406 -0.3461  1.4133  1.5102
  834SOL    HW2 3402   6.520   2.218   1.407  1.5747 -0.7128  0.6220
  835SOL     OW 3403   0.310   6.589   0.795  0.0203  0.3199  0.3800
  835SOL    HW1 3404   0.242   6.518   0.774  1.0899 -0.7288  0.3649
  835SOL    HW2 3405   0.284   6.635   0.879 -2.2263  1.9051 -1.0661
  836SOL     OW 3406   0.197   0.675   4.692 -0.1392 -0.4044 -0.2256
  836SOL    HW1 3407   0.260   0.630   4.629 -0.7287 -0.5815 -0.7064
  836SOL    HW2 3408   0.210   0.774   4.689 -0.0449 -0.4247 -0.5061
  837SOL     OW 3409   1.247   0.967   1.881 -0.0204  0.4560 -0.5808
  837SOL    HW1 3410   1.182   0.894   1.903 -0.4342  1.0097  0.1188
  837SOL    HW2 3411   1.256   1.028   1.961  1.3276  0.4178 -0.6862
  838SOL     OW 3412   1.465   3.420   3.221 -0.3309 -0.2513  0.3591
  838SOL    HW1 3413   1.408   3.467   3.154 -1.2050 -0.0425  1.2216
  838SOL    HW2 3414   1.462   3.468   3.308  0.2059 -0.9137  0.7601
  839SOL     OW 3415   2.511   1.903   1.260 -0.0318 -0.7239  0.9372
  839SOL    HW1 3416   2.508   1.823   1.200  2.1984 -0.9968  1.0963
  839SOL    HW2 3417   2.466   1.881   1.347 -1.6083 -0.9521  0.0982
  840SOL     OW 3418   3.472   4.784   6.572 -0.4593 -0.0601  0.0046
  840SOL    HW1 3419   3.521   4.704   6.538  0.9220  0.6241  0.3071
  840SOL    HW2 3420   3.537   4.857   6.593 -1.7593  1.7268 -1.7098
  841SOL     OW 3421   4.398   6.108   0.604  0.3749  0.1006 -0.2499
  841SOL    HW1 3422   4.483   6.056   0.618  0.4924 -0.2040 -1.8385
  841SOL    HW2 3423   4.376   6.108   0.506 -2.1856 -0.9812  0.2534
  842SOL     OW 3424   2.211   6.218   0.026 -0.4061  0.4474 -0.4582
  842SOL    HW1 3425   2.207   6.118   0.033 -2.3194  0.3585 -2.1956
  842SOL    HW2 3426   2.206   6.258   0.118 -1.0571 -1.0098  0.1692
  843SOL     OW 3427   2.402   6.954   2.183  0.4284  0.3386 -1.0355
  843SOL    HW1 3428   2.462   6.894   2.129  0.8156  0.0865 -0.3306
  843SOL    HW2 3429   2.456   7.032   2.216  0.1364  0.6092 -1.1903
  844SOL     OW 3430   1.289   1.214   1.456 -0.5307 -0.3496 -0.7056
  844SOL    HW1 3431   1.316   1.163   1.537 -0.1295 -0.3983 -0.8689
  844SOL    HW2 3432   1.218   1.281   1.480 -0.1945 -0.1517 -0.2574
  845SOL     OW 3433   4.255   1.512   1.206 -0.3058 -0.3207  0.4812
  845SOL    HW1 3434   4.207   1.583   1.258  1.0154  0.6340  0.4522
  845SOL    HW2 3435   4.344   1.547   1.176 -0.5833 -1.2028 -1.5337
  846SOL     OW 3436   0.737   0.862   1.332 -0.6182  0.5914 -0.3867
  846SOL    HW1 3437   0.704   0.832   1.243 -1.9883 -1.5399  0.7395
  846SOL    HW2 3438   0.662   0.904   1.383 -0.4417 -0.1502  0.5227
  847SOL     OW 3439   4.046   2.878   1.482 -0.1549 -0.1653 -0.4842
  847SOL    HW1 3440   4.121   2.828   1.438 -0.8955 -0.6421 -1.2339
  847SOL    HW2 3441   4.031   2.842   1.574  0.4317 -0.1577 -0.3789
  848SOL     OW 3442   6.450   5.584   0.881 -0.3383 -0.1753 -0.4264
  848SOL    HW1 3443   6.412   5.493   0.862 -2.4451  0.5473 -0.0185
  848SOL    HW2 3444   6.426   5.646   0.806 -1.4396  0.6999  0.6124
  849SOL     OW 3445   4.648   5.109   6.421  0.9274 -0.5204 -0.3259
  849SOL    HW1 3446   4.573   5.084   6.483  1.2977 -0.1701  0.2718
  849SOL    HW2 3447   4.635   5.204   6.390  1.7966 -0.0055  0.8083
  850SOL     OW 3448   2.904   0.549   4.377  0.7137  0.4887  0.1866
  850SOL    HW1 3449   2.815   0.516   4.345  0.1256  1.6721  0.5467
  850SOL    HW2 3450   2.970   0.474   4.375 -0.8135 -1.0106  1.9589
  851SOL     OW 3451   4.103   3.200   5.076  0.0046  0.3995  0.4883
  851SOL    HW1 3452   4.156   3.263   5.020  0.7248 -0.7389 -0.1659
  851SOL    HW2 3453   4.143   3.193   5.167 -0.2349  1.0722  0.6465
  852SOL     OW 3454   1.500   4.922   1.573 -0.2247  0.8776 -0.4990
  852SOL    HW1 3455   1.515   5.020   1.587  0.3338  0.6105  0.9457
  852SOL    HW2 3456   1.402   4.904   1.566 -0.5762  1.2179  2.3147
  853SOL     OW 3457   2.482   4.738   5.895  0.1201  0.0828 -0.8351
  853SOL    HW1 3458   2.430   4.652   5.900  0.9230 -0.3602  0.1144
  853SOL    HW2 3459   2.422   4.811   5.861 -2.0053  0.2361  2.7054
  854SOL     OW 3460   6.929   2.092   5.832 -0.5685 -0.4450 -0.1876
  854SOL    HW1 3461   6.933   2.124   5.738  0.3657 -0.0924 -0.0414
  854SOL    HW2 3462   7.022   2.080   5.867 -0.9053 -1.4322  0.4061
  855SOL     OW 3463   5.033   1.179   0.404 -0.2333 -0.0271 -0.0961
  855SOL    HW1 3464   4.994   1.236   0.477 -0.9461 -0.3638 -0.1981
  855SOL    HW2 3465   5.118   1.220   0.371 -0.4982  0.7337  0.1381
  856SOL     OW 3466   1.287   6.347   1.576 -0.7234  0.5264 -0.4210
  856SOL    HW1 3467   1.295   6.338   1.477  3.4630 -2.6193 -0.0604
  856SOL    HW2 3468   1.369   6.391   1.613 -1.4060  0.0650  1.7926
  857SOL     OW 3469   6.596   6.967   5.122 -0.3791  0.4139 -0.8061
  857SOL    HW1 3470   6.595   6.904   5.044 -1.5701  1.3562 -1.5736
  857SOL    HW2 3471   6.677   7.025   5.118  2.2089 -2.6652  1.3079
  858SOL     OW 3472   2.700   4.823   0.974  0.3885  0.4601  0.1354
  858SOL    HW1 3473   2.649   4.748   0.932  2.2258 -0.1404 -1.1531
  858SOL    HW2 3474   2.743   4.791   1.058  1.4213 -0.0565 -0.5718
  859SOL     OW 3475   5.267   5.341   5.135  0.0329  0.8175 -0.0260
  859SOL    HW1 3476   5.175   5.330   5.097 -0.1893 -0.1552  0.7573
  859SOL    HW2 3477   5.331   5.361   5.061 -0.4310 -0.7744 -0.9091
  860SOL     OW 3478   5.241   0.888   6.575  0.0804  0.2083 -0.3592
  860SOL    HW1 3479   5.261   0.836   6.658 -2.1773 -0.9229 -0.4386
  860SOL    HW2 3480   5.326   0.922   6.536  1.4842 -1.7840  0.7702
  861SOL     OW 3481   2.087   3.646   2.807 -0.2735 -0.6554 -0.3580
  861SOL    HW1 3482   2.060   3.734   2.767  1.2798  0.9086  1.8038
  861SOL    HW2 3483   2.117   3.584   2.735 -1.4957  0.5216 -1.9542
  862SOL     OW 3484   1.156   4.940   5.663  0.0844 -0.0884 -0.7885
  862SOL    HW1 3485   1.102   4.987   5.733  0.4245  1.2797 -1.4204
  862SOL    HW2 3486   1.122   4.846   5.653  0.2153 -0.4234  1.3950
  863SOL     OW 3487   3.869   1.754   0.097  0.3172 -0.5457  0.3715
  863SOL    HW1 3488   3.930   1.710   0.163 -0.2110 -0.4299  0.9363
  863SOL    HW2 3489   3.833   1.685   0.035 -0.1653 -0.8507  0.9823
  864SOL     OW 3490   6.550   3.010   5.856  0.5140  0.4298  0.6384
  864SOL    HW1 3491   6.587   2.971   5.772  0.8825 -0.1293  1.0568
  864SOL    HW2 3492   6.460   3.051   5.837 -0.8822 -2.4164  0.5637
  865SOL     OW 3493   2.387   4.913   3.884 -0.2995 -0.2876  0.0739
  865SOL    HW1 3494   2.342   4.993   3.922 -0.9805  0.7347 -2.6704
  865SOL    HW2 3495   2.485   4.932   3.872 -0.3910 -0.0126 -0.2283
  866SOL     OW 3496   4.477   6.966   6.133 -0.1410  0.0269 -0.0103
  866SOL    HW1 3497   4.538   6.896   6.097 -1.1429 -0.8823  0.0415
  866SOL    HW2 3498   4.439   7.020   6.058 -1.1726 -0.9953 -0.2476
  867SOL     OW 3499   5.472   3.085   4.614 -0.1141 -0.0070  0.0013
  867SOL    HW1 3500   5.551   3.142   4.592 -0.4547  0.3718 -0.2581
  867SOL    HW2 3501   5.440   3.107   4.706  0.1778 -0.2753  0.1697
  868SOL     OW 3502   1.117   1.500   2.780 -0.5293  0.0804 -0.1239
  868SOL    HW1 3503   1.113   1.583   2.836 -1.0868  0.0872 -0.1689
  868SOL    HW2 3504   1.124   1.420   2.839  1.7212  0.2245 -0.0960
  869SOL     OW 3505   6.657   4.560   3.708  0.2558 -0.1442  0.4083
  869SOL    HW1 3506   6.742   4.604   3.738 -0.0142  1.9351 -1.5967
  869SOL    HW2 3507   6.677   4.469   3.672  1.7090  0.4800 -0.4343
  870SOL     OW 3508   3.622   4.446   1.556  0.4047  0.1197  0.2252
  870SOL    HW1 3509   3.697   4.496   1.599  0.3370  0.0801  0.3889
  870SOL    HW2 3510   3.536   4.466   1.604  0.4157 -0.3510  0.4548
  871SOL     OW 3511   4.337   1.037   3.973  0.5028  0.0325 -0.3241
  871SOL    HW1 3512   4.428   1.044   4.015 -0.6856  2.1175  2.2946
  871SOL    HW2 3513   4.335   1.090   3.889  1.5311  0.6537  0.0227
  872SOL     OW 3514   3.493   3.112   5.639  0.2693  0.3457 -0.2018
  872SOL    HW1 3515   3.439   3.065   5.709  1.5905  0.3150  0.8548
  872SOL    HW2 3516   3.494   3.057   5.556  1.0272 -1.0937  0.7018
  873SOL     OW 3517   3.870   1.893   5.981  0.0995  0.4027  0.2248
  873SOL    HW1 3518   3.836   1.881   5.888 -0.2719 -1.6681  0.5876
  873SOL    HW2 3519   3.797   1.877   6.047  0.6964  0.4237  0.9133
  874SOL     OW 3520   6.493   3.764   2.368 -0.3966  0.2009  0.1706
  874SOL    HW1 3521   6.476   3.716   2.454 -1.5302 -0.8423 -0.6117
  874SOL    HW2 3522   6.552   3.843   2.386  3.6388 -2.6708  1.1933
  875SOL     OW 3523   3.528   5.060   2.614  0.0769  0.0352  0.1585
  875SOL    HW1 3524   3.589   5.099   2.545 -0.1122 -0.9818 -0.6215
  875SOL    HW2 3525   3.526   5.118   2.695 -0.5256  1.8411 -1.0995
  876SOL     OW 3526   0.053   1.194   6.552 -0.2742 -0.5666  0.1108
  876SOL    HW1 3527   0.120   1.126   6.581 -0.3923 -0.4558  0.6531
  876SOL    HW2 3528  -0.011   1.212   6.626  0.5846  1.1512  0.4675
  877SOL     OW 3529   0.663   2.179   6.122 -0.0716 -0.1417 -0.3515
  877SOL    HW1 3530   0.689   2.258   6.067 -2.8840  1.9075  0.9534
  877SOL    HW2 3531   0.667   2.097   6.066  2.2673  0.9719 -1.9938
  878SOL     OW 3532   3.711   0.019   6.364 -0.4270 -0.6539  0.5299
  878SOL    HW1 3533   3.648   0.058   6.297 -0.5132 -2.8241 -0.7595
  878SOL    HW2 3534   3.696   0.061   6.453 -3.0774 -0.4668  0.0692
  879SOL     OW 3535   0.115   0.649   1.099  0.4033 -0.3603 -1.0186
  879SOL    HW1 3536   0.203   0.678   1.060  1.7598  0.3747  2.2687
  879SOL    HW2 3537   0.074   0.725   1.149  0.4956 -1.9977  1.7666
  880SOL     OW 3538   3.927   4.336   5.829 -0.2680 -0.1379 -0.0625
  880SOL    HW1 3539   3.954   4.348   5.924  0.7713  2.7980 -0.6185
  880SOL    HW2 3540   4.008   4.323   5.772 -0.7533 -0.2261 -0.7521
  881SOL     OW 3541   5.925   2.032   0.015  0.1324 -0.0441 -0.2083
  881SOL    HW1 3542   5.880   2.010   0.101  1.8493  1.4060  1.1526
  881SOL    HW2 3543   5.881   2.112  -0.026 -0.1096 -0.1801 -0.2165
  882SOL     OW 3544   0.658   2.403   2.309  0.2653 -0.0375 -0.0963
  882SOL    HW1 3545   0.609   2.490   2.311 -0.1173 -0.0674 -3.3047
  882SOL    HW2 3546   0.628   2.345   2.385  0.0051  2.2919  1.6714
  883SOL     OW 3547   2.646   0.111   2.443 -0.9441  0.5043 -0.1178
  883SOL    HW1 3548   2.667   0.072   2.533  2.0231  1.3205 -0.3565
  883SOL    HW2 3549   2.564   0.167   2.450 -1.1058  0.1027  1.9327
  884SOL     OW 3550   3.206   4.587   6.729  0.7043  0.5603 -0.8099
  884SOL    HW1 3551   3.257   4.501   6.722 -1.2718 -0.8090  0.5042
  884SOL    HW2 3552   3.237   4.650   6.657  1.2698 -1.7352 -2.7144
  885SOL     OW 3553   5.170   3.010   0.253  0.0627 -0.0600 -0.1617
  885SOL    HW1 3554   5.212   2.941   0.313 -0.6316  0.2929  0.7572
  885SOL    HW2 3555   5.205   3.100   0.276 -0.8943  0.1908  0.3564
  886SOL     OW 3556   3.432   3.669   6.443 -0.6734  0.1201 -0.0854
  886SOL    HW1 3557   3.347   3.691   6.394  0.1338  2.5760 -0.5027
  886SOL    HW2 3558   3.430   3.711   6.534 -0.0781 -0.1994  0.0784
  887SOL     OW 3559   2.162   1.088   6.863  0.3090  0.1258  0.3990
  887SOL    HW1 3560   2.117   1.009   6.906  0.8465 -0.5578 -0.2622
  887SOL    HW2 3561   2.111   1.114   6.781  0.6189 -0.0903  0.1359
  888SOL     OW 3562   2.685   6.481   1.156  0.1896 -0.4861  0.2876
  888SOL    HW1 3563   2.620   6.496   1.082 -0.1549 -1.3593  0.4010
  888SOL    HW2 3564   2.748   6.407   1.131  1.3007  0.4896  0.0844
  889SOL     OW 3565   1.916   0.012   0.937 -0.4708  0.1957  0.4062
  889SOL    HW1 3566   1.988   0.081   0.939 -0.7678  0.4939  1.9540
  889SOL    HW2 3567   1.921  -0.039   0.851  1.5864  0.1838  0.4951
  890SOL     OW 3568   3.739   1.878   6.368  0.5471 -0.6317  0.0678
  890SOL    HW1 3569   3.786   1.794   6.341  1.5357 -0.9659  2.5504
  890SOL    HW2 3570   3.805   1.953   6.375  0.0400 -0.1646 -0.0755
  891SOL     OW 3571   2.217   4.093   2.461  0.6436  0.4006  0.4203
  891SOL    HW1 3572   2.209   4.034   2.381  0.5363 -1.0885  1.5067
  891SOL    HW2 3573   2.155   4.171   2.451 -1.2868 -1.1142  0.2233
  892SOL     OW 3574   2.659   4.051   6.560  0.6336  0.1571  0.0724
  892SOL    HW1 3575   2.750   4.008   6.557  0.1213 -0.9168 -1.9606
  892SOL    HW2 3576   2.590   3.981   6.577  0.0590  0.7357  0.1310
  893SOL     OW 3577   2.236   4.125   2.745  0.1400 -0.5679 -1.0501
  893SOL    HW1 3578   2.244   4.103   2.647 -0.7497 -0.2855 -1.1895
  893SOL    HW2 3579   2.206   4.043   2.794 -1.0938 -0.2709 -1.2697
  894SOL     OW 3580   0.079   2.439   1.617 -0.0125  0.4072 -0.2645
  894SOL    HW1 3581   0.093   2.468   1.711 -1.3166  0.4303 -0.0587
  894SOL    HW2 3582   0.003   2.489   1.577 -1.0686 -1.2987 -0.5198
  895SOL     OW 3583   6.266   6.466   6.859  0.0853  0.0923  0.5739
  895SOL    HW1 3584   6.334   6.538   6.847 -0.8721  1.0910  1.0032
  895SOL    HW2 3585   6.194   6.476   6.790 -0.6854  0.3102  1.3871
  896SOL     OW 3586   1.531   0.816   4.137  0.0861 -0.4476 -0.0972
  896SOL    HW1 3587   1.603   0.749   4.119  0.9801  1.1872 -3.3779
  896SOL    HW2 3588   1.572   0.897   4.180  0.8510  1.3045 -3.7264
  897SOL     OW 3589   5.496   0.707   1.106 -0.4279  0.1940 -0.5666
  897SOL    HW1 3590   5.511   0.702   1.008 -1.3993  0.9010 -0.7660
  897SOL    HW2 3591   5.545   0.785   1.144 -0.4131  0.1821 -0.5612
  898SOL     OW 3592   4.985   1.540   4.179 -0.2019  0.0253  0.1539
  898SOL    HW1 3593   5.042   1.461   4.203 -0.3953 -0.3285 -0.5367
  898SOL    HW2 3594   5.014   1.576   4.091 -1.7769 -0.8656 -0.7599
  899SOL     OW 3595   2.311   1.614   1.318 -0.1621  0.0003  0.6962
  899SOL    HW1 3596   2.262   1.687   1.366 -1.0563  0.0984 -0.3265
  899SOL    HW2 3597   2.338   1.646   1.227  1.1836 -0.3071  0.9562
  900SOL     OW 3598   6.132   3.934   4.884  0.2835  0.0702 -0.2438
  900SOL    HW1 3599   6.137   3.948   4.983  1.0275  0.3407 -0.3149
  900SOL    HW2 3600   6.063   3.865   4.864  0.7754 -0.6648  0.5231
  901SOL     OW 3601   1.171   1.604   2.113 -0.1106  0.4549  0.2419
  901SOL    HW1 3602   1.096   1.593   2.049  0.4601  2.5343 -0.8742
  901SOL    HW2 3603   1.257   1.612   2.063  0.9469 -1.8874  1.4882
  902SOL     OW 3604   6.513   3.221   2.233  0.0912 -0.1661  0.2919
  902SOL    HW1 3605   6.477   3.273   2.310 -0.0508 -1.5398  1.1830
  902SOL    HW2 3606   6.533   3.283   2.157  2.4656  1.5692  2.1999
  903SOL     OW 3607   5.320   2.216   1.967 -0.5103  0.5403  0.2572
  903SOL    HW1 3608   5.259   2.261   1.902 -1.5162 -1.1972 -0.0540
  903SOL    HW2 3609   5.296   2.244   2.060 -2.6895 -1.0558  0.2502
  904SOL     OW 3610   3.187   0.833   4.285 -0.0092  0.7797  0.2671
  904SOL    HW1 3611   3.204   0.887   4.203 -2.0941  0.4600 -0.4499
  904SOL    HW2 3612   3.088   0.824   4.299  0.2890 -0.5992  1.8700
  905SOL     OW 3613   5.583   1.689   6.447 -0.3130  0.3904 -0.0834
  905SOL    HW1 3614   5.512   1.759   6.452  0.1312  0.8037  0.4595
  905SOL    HW2 3615   5.624   1.689   6.355  0.3834  1.5397  0.2047
  906SOL     OW 3616   6.112   2.780   1.281 -0.4529  0.0082  0.4185
  906SOL    HW1 3617   6.143   2.685   1.280  1.0696  0.4482 -1.8706
  906SOL    HW2 3618   6.033   2.790   1.222  1.0794  0.5680 -1.6721
  907SOL     OW 3619   5.334   6.931   6.991 -0.5254  1.0945 -0.3081
  907SOL    HW1 3620   5.310   6.894   6.902 -0.1743 -2.2590  0.8626
  907SOL    HW2 3621   5.430   6.962   6.990  0.1770 -0.9782 -0.5657
  908SOL     OW 3622   6.335   2.263   4.245  0.3809 -0.0696 -0.2232
  908SOL    HW1 3623   6.422   2.299   4.210  1.2061 -0.9522  0.8391
  908SOL    HW2 3624   6.259   2.314   4.204  1.3470  0.0946 -1.9040
  909SOL     OW 3625   6.688   3.872   5.219  0.0486  0.2897  0.0311
  909SOL    HW1 3626   6.629   3.851   5.296  0.3810  2.6125  1.0137
  909SOL    HW2 3627   6.756   3.941   5.247 -0.2498  1.7217 -2.4929
  910SOL     OW 3628   4.228   4.311   0.045  0.4126  0.3889 -0.6038
  910SOL    HW1 3629   4.231   4.318   0.145 -0.1262  1.5425 -0.6519
  910SOL    HW2 3630   4.135   4.287   0.017  0.6229 -0.1779 -0.8217
  911SOL     OW 3631   2.817   3.066   6.139 -0.1413 -0.0733  0.8591
  911SOL    HW1 3632   2.913   3.073   6.113 -0.3019 -0.9071 -0.0324
  911SOL    HW2 3633   2.782   2.977   6.111 -1.0923  0.1018  1.4579
  912SOL     OW 3634   5.681   1.650   4.233 -0.2403 -0.0631  0.1584
  912SOL    HW1 3635   5.605   1.651   4.299 -0.3549  0.3995  0.0268
  912SOL    HW2 3636   5.748   1.719   4.259  0.9027 -1.4861  1.1389
  913SOL     OW 3637   0.017   0.345   3.076 -0.5431 -0.0098 -0.5441
  913SOL    HW1 3638   0.049   0.349   2.981  2.0271  0.3899  0.2721
  913SOL    HW2 3639   0.002   0.437   3.111 -0.5866 -0.1231 -0.2604
  914SOL     OW 3640   1.874   0.551   3.745 -0.0726  0.2208 -0.1327
  914SOL    HW1 3641   1.937   0.573   3.670 -1.4245  0.1246 -1.3382
  914SOL    HW2 3642   1.927   0.518   3.823  1.3581 -0.1831 -1.2099
  915SOL     OW 3643   6.404   4.898   1.363 -0.1558  0.2261 -0.1042
  915SOL    HW1 3644   6.352   4.968   1.412  0.1672  0.1929  0.2895
  915SOL    HW2 3645   6.492   4.934   1.335 -0.9000  0.7090 -1.9613
  916SOL     OW 3646   1.058   6.230   2.838 -0.4653  0.5651  0.0477
  916SOL    HW1 3647   1.067   6.136   2.871 -0.6982  1.1393  1.8473
  916SOL    HW2 3648   0.971   6.241   2.789 -0.8364  0.0583  0.5927
  917SOL     OW 3649   1.209   6.800   1.019 -0.0218 -0.1685  0.2240
  917SOL    HW1 3650   1.240   6.851   1.100 -0.3620  0.8612 -0.2801
  917SOL    HW2 3651   1.156   6.720   1.049 -2.9947  1.9367  1.0823
  918SOL     OW 3652   4.975   6.527   4.757 -0.0081  0.5750  0.0510
  918SOL    HW1 3653   4.885   6.485   4.743  1.0436 -2.0961  0.7185
  918SOL    HW2 3654   4.985   6.554   4.853  0.4145 -0.5101  0.3243
  919SOL     OW 3655   5.810   6.800   5.707  0.1071  0.2529  0.0226
  919SOL    HW1 3656   5.758   6.875   5.667 -0.7500 -0.0799  0.4872
  919SOL    HW2 3657   5.906   6.826   5.711 -0.2539  1.6021  0.7754
  920SOL     OW 3658   2.763   4.800   6.896  0.8779 -0.3231  0.2598
  920SOL    HW1 3659   2.846   4.822   6.947  0.9822 -1.7916  0.7800
  920SOL    HW2 3660   2.761   4.853   6.811  1.2153  1.3924  1.2724
  921SOL     OW 3661   0.436   5.672   3.669 -0.2895 -0.0441 -0.7008
  921SOL    HW1 3662   0.389   5.760   3.676  0.6012  0.5633 -2.0093
  921SOL    HW2 3663   0.377   5.600   3.705 -0.9398  1.1071  0.6189
  922SOL     OW 3664   3.079   3.790   1.833 -0.3849 -0.1150  0.1411
  922SOL    HW1 3665   3.164   3.741   1.814 -0.4450  0.0510 -0.5750
  922SOL    HW2 3666   3.097   3.867   1.894 -0.1343 -0.4708  0.5187
  923SOL     OW 3667   1.058   2.579   6.310 -0.5119 -0.0495  0.3785
  923SOL    HW1 3668   0.963   2.551   6.297  0.0282 -2.0469  0.3545
  923SOL    HW2 3669   1.113   2.498   6.334  1.3475  0.8993 -0.5075
  924SOL     OW 3670   2.620   2.818   1.574  0.2266  0.3241  0.1888
  924SOL    HW1 3671   2.665   2.901   1.540  0.6090 -0.7111 -2.0056
  924SOL    HW2 3672   2.689   2.755   1.609 -0.0360  0.7452  1.5369
  925SOL     OW 3673   6.604   2.258   0.273  0.5223 -0.0883 -0.6951
  925SOL    HW1 3674   6.575   2.305   0.356 -0.0742  1.3577 -1.6767
  925SOL    HW2 3675   6.547   2.287   0.196  1.9255 -0.3309 -1.8855
  926SOL     OW 3676   0.479   2.917   1.589 -0.2953 -0.2174 -0.1421
  926SOL    HW1 3677   0.518   2.947   1.502 -0.2992  0.4990  0.0947
  926SOL    HW2 3678   0.430   2.831   1.576 -0.6902  0.1204 -0.9469
  927SOL     OW 3679   0.755   3.461   5.389  1.0741 -0.3867 -0.0114
  927SOL    HW1 3680   0.675   3.472   5.330  0.6573  0.3271  0.6722
  927SOL    HW2 3681   0.836   3.443   5.332  0.4872 -0.8350 -0.7223
  928SOL     OW 3682   3.608   4.103   5.463  0.2827  0.1478  0.1779
  928SOL    HW1 3683   3.590   4.122   5.366 -0.4272 -1.6851 -0.0938
  928SOL    HW2 3684   3.704   4.119   5.483  0.5209  0.2101 -0.9314
  929SOL     OW 3685   1.162   2.364   4.158 -0.3056  0.1950 -0.2840
  929SOL    HW1 3686   1.258   2.391   4.154 -0.4404  0.8181  0.3986
  929SOL    HW2 3687   1.153   2.281   4.214 -0.0708 -0.3778 -1.0822
  930SOL     OW 3688   6.358   6.634   3.616 -0.1666 -0.1552 -0.1559
  930SOL    HW1 3689   6.387   6.539   3.623 -0.4096 -0.3300 -1.2674
  930SOL    HW2 3690   6.375   6.681   3.702  1.9767 -0.6309 -0.2750
  931SOL     OW 3691   4.994   0.250   2.738  0.5923  0.3703 -0.3262
  931SOL    HW1 3692   5.058   0.203   2.799  0.8615  0.5787 -0.4466
  931SOL    HW2 3693   5.045   0.300   2.668  0.3326  1.3133  0.1395
  932SOL     OW 3694   1.970   4.802   4.485  0.0129 -0.7828 -0.5865
  932SOL    HW1 3695   1.936   4.799   4.579  1.7054 -2.3958  0.0364
  932SOL    HW2 3696   2.069   4.816   4.486 -0.0661  0.1121 -2.1942
  933SOL     OW 3697   0.076   5.050   1.861  0.2633  0.3831  0.5587
  933SOL    HW1 3698   0.127   5.099   1.790 -1.6074  2.9319  0.8469
  933SOL    HW2 3699   0.030   4.971   1.820  0.4581  0.9062 -0.7242
  934SOL     OW 3700   3.777   3.004   1.164 -0.0512  0.1893 -0.4065
  934SOL    HW1 3701   3.698   3.041   1.213  0.3334 -0.0397  0.4021
  934SOL    HW2 3702   3.847   3.074   1.156 -0.8300  0.8125 -2.2984
  935SOL     OW 3703   5.382   2.407   5.390 -0.0639 -0.3715 -0.0021
  935SOL    HW1 3704   5.290   2.406   5.429  0.2706  1.1608  0.9178
  935SOL    HW2 3705   5.379   2.443   5.297 -0.3420  0.2366  0.2365
  936SOL     OW 3706   1.422   1.579   6.459  0.1533 -0.0192 -0.2580
  936SOL    HW1 3707   1.359   1.657   6.458  0.7874  0.5668  1.8214
  936SOL    HW2 3708   1.480   1.582   6.377 -1.4664  0.2676 -1.4496
  937SOL     OW 3709   2.761   2.102   6.129  0.6817 -0.2434  0.6855
  937SOL    HW1 3710   2.738   2.044   6.051 -2.3032  1.7722 -0.1167
  937SOL    HW2 3711   2.850   2.144   6.114 -0.3339  1.1244 -2.4436
  938SOL     OW 3712   4.370   0.457   4.905 -0.3289  0.0352 -0.4683
  938SOL    HW1 3713   4.282   0.447   4.858 -0.4271  0.3402 -0.3438
  938SOL    HW2 3714   4.356   0.458   5.004 -0.4994  2.9562 -0.4535
  939SOL     OW 3715   1.254   6.249   4.330  0.1796 -0.3471  0.1332
  939SOL    HW1 3716   1.187   6.323   4.326 -0.3768 -0.8138  0.7399
  939SOL    HW2 3717   1.260   6.206   4.240  0.6355  0.5357 -0.2738
  940SOL     OW 3718   4.126   5.035   0.152 -0.3978  0.3493  0.2139
  940SOL    HW1 3719   4.170   5.093   0.084  0.3308 -0.5304 -0.0775
  940SOL    HW2 3720   4.099   4.948   0.110 -0.9019  0.2155  0.7967
  941SOL     OW 3721   3.717   6.247   0.057  0.5011 -0.4985 -0.1147
  941SOL    HW1 3722   3.719   6.283  -0.037  1.2104 -0.0889  0.0451
  941SOL    HW2 3723   3.738   6.321   0.120  0.2137 -0.8184  0.3571
  942SOL     OW 3724   6.860   3.785   0.189  0.5595  0.1377 -0.3006
  942SOL    HW1 3725   6.846   3.870   0.240  0.0721 -0.0775 -0.0571
  942SOL    HW2 3726   6.787   3.775   0.122 -0.9267 -1.3154  1.4073
  943SOL     OW 3727   5.027   0.977   1.061 -0.0613  0.1261 -0.0919
  943SOL    HW1 3728   5.015   0.880   1.084 -0.7552 -0.5139 -2.7708
  943SOL    HW2 3729   4.946   1.010   1.014  0.9050  1.4975 -0.8598
  944SOL     OW 3730   1.346   5.454   3.808  0.2959  0.0216 -0.1740
  944SOL    HW1 3731   1.322   5.411   3.721 -1.1659  0.3757  0.0446
  944SOL    HW2 3732   1.322   5.393   3.884  1.7347 -0.3683  0.0145
  945SOL     OW 3733   1.044   6.934   0.841  0.4536  0.7298 -0.0913
  945SOL    HW1 3734   0.965   6.874   0.854  0.6205  0.5121 -0.0880
  945SOL    HW2 3735   1.101   6.933   0.923 -0.4586  2.2528  0.6096
  946SOL     OW 3736   4.851   0.050   4.355  0.5959  0.4833 -0.2306
  946SOL    HW1 3737   4.924   0.045   4.288  1.0785  0.9032  0.2579
  946SOL    HW2 3738   4.803   0.138   4.346  0.5490  0.4673 -0.1381
  947SOL     OW 3739   3.261   3.334   3.515 -0.3401  0.1475  0.1624
  947SOL    HW1 3740   3.291   3.394   3.589 -0.2976  4.1694 -2.7700
  947SOL    HW2 3741   3.165   3.311   3.527 -0.2725  0.4989  1.5395
  948SOL     OW 3742   2.700   0.521   4.016 -0.0286 -0.3050  0.6000
  948SOL    HW1 3743   2.656   0.478   4.094 -1.0875  1.3444  0.9512
  948SOL    HW2 3744   2.740   0.451   3.957 -3.9893 -2.0557 -0.2913
  949SOL     OW 3745   1.235   2.209   3.865  0.4751 -0.1177 -0.0393
  949SOL    HW1 3746   1.318   2.244   3.823  0.7168 -0.8589 -0.1799
  949SOL    HW2 3747   1.258   2.141   3.934 -0.0064 -0.2065  0.0383
  950SOL     OW 3748   5.222   6.820   0.235 -0.2496  0.2373  0.8915
  950SOL    HW1 3749   5.143   6.803   0.176  1.1684 -1.2313 -0.7393
  950SOL    HW2 3750   5.283   6.886   0.191  0.2593  0.0267  1.2672
  951SOL     OW 3751   6.498   0.020   1.674  0.0670  0.5668 -0.2963
  951SOL    HW1 3752   6.502   0.032   1.773 -0.1308 -0.8733 -0.0985
  951SOL    HW2 3753   6.432  -0.051   1.651 -0.1232  1.1018 -1.4913
  952SOL     OW 3754   3.968   2.176   4.606 -0.2229  0.5671 -1.0739
  952SOL    HW1 3755   3.871   2.182   4.583 -0.4623  0.3498 -0.1733
  952SOL    HW2 3756   4.023   2.212   4.531 -1.0683  2.2656 -0.9132
  953SOL     OW 3757   0.695   5.552   3.636 -0.1792  0.0823  0.7690
  953SOL    HW1 3758   0.709   5.453   3.629  2.6249  0.4770 -0.4447
  953SOL    HW2 3759   0.600   5.573   3.611 -0.3419 -2.1242 -0.8400
  954SOL     OW 3760   4.967   6.992   0.902 -0.2247  0.2582  0.5910
  954SOL    HW1 3761   4.902   6.973   0.976  0.2241 -1.1985  0.6493
  954SOL    HW2 3762   5.006   7.082   0.915 -0.7850  0.3743  1.6560
  955SOL     OW 3763   3.740   3.055   1.655 -0.4096 -0.1108  0.2284
  955SOL    HW1 3764   3.802   3.006   1.716 -0.2482  0.9220  0.9250
  955SOL    HW2 3765   3.778   3.145   1.633 -0.9302 -0.0786 -0.6104
  956SOL     OW 3766   3.312   6.337   1.308  0.6652 -0.1606  0.6741
  956SOL    HW1 3767   3.304   6.368   1.403  0.0417  0.8522  0.3079
  956SOL    HW2 3768   3.405   6.353   1.276  0.5423  0.7077  0.7211
  957SOL     OW 3769   1.464   0.585   1.342 -0.6932  0.3608  0.2006
  957SOL    HW1 3770   1.447   0.487   1.354 -1.2083  0.6070  1.7516
  957SOL    HW2 3771   1.500   0.623   1.428 -0.9113  1.6108 -0.2440
  958SOL     OW 3772   4.315   4.889   1.968  0.3705  0.2910  0.0637
  958SOL    HW1 3773   4.318   4.792   1.991  0.6228  0.5770  1.2983
  958SOL    HW2 3774   4.332   4.900   1.870  2.4154 -0.7865  0.2373
  959SOL     OW 3775   3.248   6.328   1.053  0.0150 -0.1138  0.5541
  959SOL    HW1 3776   3.162   6.318   1.004  0.7553  1.2291 -1.1167
  959SOL    HW2 3777   3.231   6.331   1.152 -1.9079  0.7498  0.2270
  960SOL     OW 3778   0.874   0.601   6.703 -0.1299  0.1957  0.5973
  960SOL    HW1 3779   0.942   0.674   6.709  0.3862 -0.3722  2.4610
  960SOL    HW2 3780   0.878   0.545   6.786 -0.2184 -2.2113 -0.9381
  961SOL     OW 3781   4.921   1.530   2.326  0.3943 -0.1763 -0.3122
  961SOL    HW1 3782   4.911   1.440   2.368  0.3011  0.5215  1.2389
  961SOL    HW2 3783   5.010   1.536   2.282  0.4245 -1.0031 -0.3810
  962SOL     OW 3784   0.026   1.739   4.828  0.0236  0.1448 -0.3413
  962SOL    HW1 3785   0.019   1.744   4.728 -0.9117 -0.1512 -0.2941
  962SOL    HW2 3786  -0.052   1.786   4.869  1.0215  1.3315  0.2770
  963SOL     OW 3787   5.060   1.211   1.791  0.1337  0.5656  0.5338
  963SOL    HW1 3788   5.144   1.178   1.747 -0.2076  0.0218  0.2851
  963SOL    HW2 3789   5.078   1.232   1.887  1.1634  2.7833 -0.0878
  964SOL     OW 3790   3.562   0.251   3.305 -0.1752 -0.7508 -0.6208
  964SOL    HW1 3791   3.613   0.247   3.219  1.9849  0.5940  0.5090
  964SOL    HW2 3792   3.519   0.340   3.314  1.2966 -0.1120  0.5272
  965SOL     OW 3793   4.533   1.230   3.768 -0.1809 -0.2562 -0.4065
  965SOL    HW1 3794   4.504   1.203   3.677  0.3993 -2.7079  0.0580
  965SOL    HW2 3795   4.620   1.186   3.790 -0.2469  0.3648  1.2724
  966SOL     OW 3796   5.418   1.223   2.669  0.1505  0.2567 -0.2295
  966SOL    HW1 3797   5.478   1.294   2.630  0.5594  0.5999  0.9766
  966SOL    HW2 3798   5.426   1.140   2.615 -0.2424  1.0763 -1.6040
  967SOL     OW 3799   3.774   5.500   5.420 -0.8099 -0.4189 -0.1070
  967SOL    HW1 3800   3.733   5.434   5.358  0.1076  0.2470 -1.4734
  967SOL    HW2 3801   3.838   5.454   5.481  0.2697 -0.7394 -1.4398
  968SOL     OW 3802   5.474   0.978   2.935 -0.0972 -0.4695 -0.2430
  968SOL    HW1 3803   5.526   1.054   2.973  1.6793 -1.8275  0.1491
  968SOL    HW2 3804   5.378   0.986   2.964  0.0734  1.5126 -0.1151
  969SOL     OW 3805   2.673   2.941   5.355  0.3353  0.0161 -0.7466
  969SOL    HW1 3806   2.673   2.998   5.438  0.1165  0.2730 -0.9246
  969SOL    HW2 3807   2.612   2.980   5.287 -1.5246 -1.5861 -0.0899
  970SOL     OW 3808   6.202   5.097   4.940 -0.0795  0.2820 -0.2243
  970SOL    HW1 3809   6.170   5.008   4.971 -0.3586  0.5046  0.1453
  970SOL    HW2 3810   6.154   5.123   4.856  1.4918 -0.8273 -1.5119
  971SOL     OW 3811   5.628   2.833   3.619 -0.0349 -0.6589  0.0058
  971SOL    HW1 3812   5.611   2.750   3.672 -0.6885 -0.8966 -0.5609
  971SOL    HW2 3813   5.581   2.910   3.662 -1.5279 -1.0668 -0.8260
  972SOL     OW 3814   1.966   0.874   1.685 -0.4470  0.0889  0.7058
  972SOL    HW1 3815   2.003   0.797   1.737 -0.2179  0.3012  0.8616
  972SOL    HW2 3816   1.880   0.904   1.728 -0.7169 -0.3012  0.4386
  973SOL     OW 3817   6.614   3.476   4.978 -0.0490  0.0492 -0.6025
  973SOL    HW1 3818   6.665   3.561   4.986  0.2128 -0.1924  0.3527
  973SOL    HW2 3819   6.673   3.399   5.002 -0.7211 -0.2757  0.0414
  974SOL     OW 3820   1.414   3.201   1.630  0.4401 -0.4281 -0.1292
  974SOL    HW1 3821   1.469   3.207   1.714  0.8948  3.4080 -0.5245
  974SOL    HW2 3822   1.474   3.204   1.551 -0.1509 -0.7586 -0.5978
  975SOL     OW 3823   1.869   0.603   2.639 -1.0249 -0.3601  0.6272
  975SOL    HW1 3824   1.910   0.640   2.556 -0.5829  1.2396  1.5207
  975SOL    HW2 3825   1.841   0.678   2.699  0.6698 -1.4501  2.9189
  976SOL     OW 3826   1.511   3.830   2.772 -0.0575  0.5444  0.1498
  976SOL    HW1 3827   1.500   3.750   2.830  1.1689 -1.0143 -1.6560
  976SOL    HW2 3828   1.450   3.903   2.803 -0.9696 -0.9553  2.0335
  977SOL     OW 3829   5.789   2.733   2.227 -0.1244 -0.0474 -0.2670
  977SOL    HW1 3830   5.813   2.668   2.299  1.8890 -0.1739 -0.9614
  977SOL    HW2 3831   5.838   2.819   2.242  0.8371 -0.2858 -1.7624
  978SOL     OW 3832   6.661   1.499   0.841 -0.3882  0.1570 -0.4767
  978SOL    HW1 3833   6.712   1.446   0.774 -0.0842  0.3203 -0.3812
  978SOL    HW2 3834   6.574   1.454   0.861 -0.0690 -0.3798 -0.2849
  979SOL     OW 3835   1.375   4.987   0.902 -0.3882 -0.1612 -0.0403
  979SOL    HW1 3836   1.293   4.955   0.950 -0.1543 -0.8764 -0.1081
  979SOL    HW2 3837   1.403   5.075   0.939 -0.4510 -0.5147  0.8551
  980SOL     OW 3838   3.559   0.487   5.293  0.1950  0.1608 -0.4261
  980SOL    HW1 3839   3.466   0.451   5.296  0.7389 -1.2820 -0.3534
  980SOL    HW2 3840   3.584   0.506   5.198 -0.5740  1.7342 -0.3600
  981SOL     OW 3841   2.010   4.730   6.599 -0.0149  0.0045  0.0575
  981SOL    HW1 3842   1.956   4.650   6.626 -0.7342  0.8521  1.2296
  981SOL    HW2 3843   2.089   4.739   6.660  0.1886  0.0790 -0.2124
  982SOL     OW 3844   0.574   1.480   6.183 -0.3409  0.0353  0.0452
  982SOL    HW1 3845   0.513   1.486   6.104 -1.8007  0.2378  1.1467
  982SOL    HW2 3846   0.576   1.386   6.217 -0.9433  0.2555  0.6965
  983SOL     OW 3847   6.277   5.145   0.905 -0.4692  0.1065  0.0267
  983SOL    HW1 3848   6.286   5.058   0.855  2.3399  1.2947 -1.8040
  983SOL    HW2 3849   6.320   5.135   0.995 -1.8645 -0.8656  0.6321
  984SOL     OW 3850   6.532   2.419   4.117  0.5705  0.1149  0.7807
  984SOL    HW1 3851   6.606   2.408   4.049 -0.0474 -1.9021  0.3466
  984SOL    HW2 3852   6.479   2.500   4.095  0.5415 -0.3423 -1.0412
  985SOL     OW 3853   0.257   4.576   4.757 -0.4491 -0.1921 -0.4277
  985SOL    HW1 3854   0.290   4.585   4.663  0.4075 -0.8121 -0.1975
  985SOL    HW2 3855   0.158   4.565   4.757 -0.3533 -1.1929 -1.3365
  986SOL     OW 3856   4.327   5.473   1.744  0.2442  0.3158  0.2843
  986SOL    HW1 3857   4.239   5.486   1.699  0.2680 -0.9770 -0.1674
  986SOL    HW2 3858   4.313   5.447   1.840 -0.0127 -2.6463 -0.4544
  987SOL     OW 3859   5.124   6.245   4.144 -0.2272  0.2284 -0.2968
  987SOL    HW1 3860   5.044   6.221   4.199  1.0597 -1.1930  1.0535
  987SOL    HW2 3861   5.111   6.336   4.104 -2.0157  0.5201  0.8494
  988SOL     OW 3862   1.876   5.459   0.792 -0.3664 -0.0563 -0.1594
  988SOL    HW1 3863   1.918   5.369   0.796 -0.9802 -0.3790 -0.7941
  988SOL    HW2 3864   1.899   5.510   0.875  0.5184 -0.5480 -0.0897
  989SOL     OW 3865   2.325   1.218   1.144  0.8625 -0.0661  0.1371
  989SOL    HW1 3866   2.238   1.245   1.186  0.5650 -0.2000 -0.3748
  989SOL    HW2 3867   2.394   1.204   1.215 -0.2793 -2.7603  0.8614
  990SOL     OW 3868   3.437   1.183   4.032  0.6576  0.6044  0.4023
  990SOL    HW1 3869   3.452   1.280   4.010 -2.2339  1.2657  0.8270
  990SOL    HW2 3870   3.500   1.155   4.104  2.1602  1.8960 -0.3520
  991SOL     OW 3871   1.105   1.059   3.680  0.0882 -0.1551 -0.1881
  991SOL    HW1 3872   1.073   1.104   3.596 -1.1879  0.1513  0.4357
  991SOL    HW2 3873   1.153   1.126   3.737  0.0132 -0.0882 -0.2017
  992SOL     OW 3874   1.042   3.869   1.289  0.1379 -0.2340  0.3838
  992SOL    HW1 3875   1.118   3.932   1.276 -0.3929  0.2107 -0.6641
  992SOL    HW2 3876   1.076   3.784   1.328  1.1485  0.0329  0.1130
  993SOL     OW 3877   2.425   3.587   6.422 -0.1340 -0.4289 -0.6185
  993SOL    HW1 3878   2.437   3.591   6.521  0.7689  0.0131 -0.7390
  993SOL    HW2 3879   2.399   3.494   6.395  2.4119 -1.3305 -0.2364
  994SOL     OW 3880   3.047   6.033   1.396  0.2876  0.2450  0.2722
  994SOL    HW1 3881   2.976   5.976   1.353  0.9198 -0.3705  0.0239
  994SOL    HW2 3882   3.016   6.128   1.398 -1.1861 -0.2216  1.5412
  995SOL     OW 3883   6.077   5.263   5.302  0.3117  0.4840  0.6370
  995SOL    HW1 3884   6.150   5.202   5.332 -1.6105 -2.2535  0.1580
  995SOL    HW2 3885   6.046   5.234   5.211 -1.5142  1.3786  0.9359
  996SOL     OW 3886   3.138   5.940   4.902 -0.7992  0.2021  0.0864
  996SOL    HW1 3887   3.181   6.020   4.946 -1.2588  1.2404 -1.2834
  996SOL    HW2 3888   3.146   5.861   4.963  4.1757 -0.0879 -0.5313
  997SOL     OW 3889   2.199   6.399   3.701 -0.0802 -0.0275  0.2026
  997SOL    HW1 3890   2.159   6.465   3.766 -0.6011 -0.9797  0.8811
  997SOL    HW2 3891   2.249   6.329   3.752  0.3866 -0.2128 -0.5024
  998SOL     OW 3892   6.185   1.274   6.326  0.4261  0.1042  0.1565
  998SOL    HW1 3893   6.239   1.206   6.277  0.9097  0.6701 -0.1065
  998SOL    HW2 3894   6.107   1.302   6.271 -0.8808 -1.6376  1.0414
  999SOL     OW 3895   5.698   3.477   2.063 -0.5669  0.6497  0.0076
  999SOL    HW1 3896   5.728   3.514   2.151  1.7449 -0.5673 -0.1747
  999SOL    HW2 3897   5.710   3.378   2.064 -1.5573  0.5021 -1.3210
 1000SOL     OW 3898   0.104   3.562   1.330  0.2700  0.1459  0.5187
 1000SOL    HW1 3899   0.150   3.473   1.326  1.9434  1.0205 -1.4851
 1000SOL    HW2 3900   0.153   3.622   1.394 -1.1952 -0.4926  2.3121
 1001SOL     OW 3901   2.692   0.233   4.453 -0.7207  0.6453 -0.0366
 1001SOL    HW1 3902   2.781   0.242   4.498 -0.4241 -1.6505 -0.0837
 1001SOL    HW2 3903   2.621   0.220   4.522 -0.5721 -0.6429 -0.1125
 1002SOL     OW 3904   3.977   1.159   1.882 -0.0198 -0.0005 -0.0115
 1002SOL    HW1 3905   3.978   1.258   1.869  0.7196 -0.1176 -0.9265
 1002SOL    HW2 3906   4.061   1.119   1.845 -0.5483 -1.0319 -0.1349
 1003SOL     OW 3907   1.350   3.649   5.080 -0.1734 -0.2421 -0.1522
 1003SOL    HW1 3908   1.334   3.590   5.001 -1.3781  0.4377 -0.4420
 1003SOL    HW2 3909   1.341   3.596   5.164  0.2903 -0.7902 -0.4428
 1004SOL     OW 3910   3.458   0.734   3.281 -0.2540 -0.0578  0.1457
 1004SOL    HW1 3911   3.429   0.726   3.186  0.2426 -0.7926  0.0441
 1004SOL    HW2 3912   3.550   0.695   3.291  0.1341  0.9830  0.7202
 1005SOL     OW 3913   2.241   4.728   2.217  1.0440  0.1385 -0.3749
 1005SOL    HW1 3914   2.153   4.682   2.201  0.9125  0.3220 -0.1794
 1005SOL    HW2 3915   2.315   4.662   2.204  0.9578  0.2959 -1.8692
 1006SOL     OW 3916   2.000   4.265   1.691  0.2152 -0.4480 -0.1261
 1006SOL    HW1 3917   2.044   4.255   1.602  0.4954 -2.3416  0.1677
 1006SOL    HW2 3918   1.942   4.346   1.692  1.4492  0.4848 -1.4868
 1007SOL     OW 3919   3.951   0.999   5.441 -0.2507  0.4316  0.5291
 1007SOL    HW1 3920   3.869   0.956   5.403 -0.7558  3.1313 -1.8029
 1007SOL    HW2 3921   3.931   1.039   5.530 -0.9173 -0.4420  0.7846
 1008SOL     OW 3922   6.655   5.381   6.773  0.4985 -0.2245  0.1066
 1008SOL    HW1 3923   6.662   5.307   6.840  0.1480  1.1312  1.7067
 1008SOL    HW2 3924   6.691   5.466   6.813  0.6558  0.5457 -1.5816
 1009SOL     OW 3925   0.763   6.859   5.708 -0.4715 -0.6757  0.2092
 1009SOL    HW1 3926   0.753   6.765   5.675 -1.0963 -0.6703  0.3708
 1009SOL    HW2 3927   0.725   6.867   5.800 -0.6982 -0.2014  0.0813
 1010SOL     OW 3928   3.700   2.219   6.605 -0.0748  0.2359 -0.5343
 1010SOL    HW1 3929   3.668   2.165   6.527  0.8987  1.8601 -2.1240
 1010SOL    HW2 3930   3.726   2.310   6.574 -0.9721  1.4168  1.9518
 1011SOL     OW 3931   6.322   4.810   1.840  0.6379  0.1746  0.0476
 1011SOL    HW1 3932   6.353   4.814   1.745 -0.3128 -0.3579 -0.2930
 1011SOL    HW2 3933   6.372   4.879   1.894 -1.3331  3.1076 -1.5802
 1012SOL     OW 3934   4.872   6.704   1.927 -0.0462  0.0604 -0.0730
 1012SOL    HW1 3935   4.869   6.790   1.875 -1.6336  0.3460  0.4113
 1012SOL    HW2 3936   4.875   6.725   2.025 -1.1076 -0.4051  0.0718
 1013SOL     OW 3937   1.095   1.413   5.950  1.0296 -0.3106  0.2477
 1013SOL    HW1 3938   1.004   1.404   5.990  0.9306  0.0507  0.1103
 1013SOL    HW2 3939   1.086   1.434   5.852  1.2296  1.3232  0.5472
 1014SOL     OW 3940   1.868   4.567   5.420  0.4019  0.4167  0.7222
 1014SOL    HW1 3941   1.953   4.569   5.368  0.1305 -1.1818  0.1583
 1014SOL    HW2 3942   1.860   4.479   5.467  0.5230  1.6972  3.3203
 1015SOL     OW 3943   3.478   0.951   5.637  0.0500  0.3623 -0.6151
 1015SOL    HW1 3944   3.406   0.943   5.706  0.2693  2.1539 -0.1357
 1015SOL    HW2 3945   3.558   0.898   5.666  0.0158  0.8189  0.3461
 1016SOL     OW 3946   0.786   4.639   6.241 -0.3172 -0.0943 -0.4244
 1016SOL    HW1 3947   0.695   4.633   6.199 -0.6116  1.6008 -0.1038
 1016SOL    HW2 3948   0.777   4.649   6.340  0.3856 -4.4015  0.2679
 1017SOL     OW 3949   1.763   0.516   6.851 -0.2664 -0.4823  0.4300
 1017SOL    HW1 3950   1.689   0.450   6.855  1.2049 -2.2877 -0.4342
 1017SOL    HW2 3951   1.797   0.523   6.757 -0.5154  1.6968  0.4550
 1018SOL     OW 3952   5.589   4.324   6.646  0.4629  0.6039 -0.1222
 1018SOL    HW1 3953   5.549   4.370   6.567 -1.8784 -0.4132  0.3872
 1018SOL    HW2 3954   5.654   4.255   6.615 -0.7684 -0.1117 -1.2131
 1019SOL     OW 3955   5.557   2.940   1.565 -0.0417 -0.5005  0.1008
 1019SOL    HW1 3956   5.578   2.948   1.663  0.2291 -0.6374  0.0545
 1019SOL    HW2 3957   5.459   2.925   1.554 -0.5361  2.2046  0.2215
 1020SOL     OW 3958   4.785   2.349   1.161 -0.5683  0.4151  0.2506
 1020SOL    HW1 3959   4.766   2.261   1.206  2.6419 -1.1717 -1.1713
 1020SOL    HW2 3960   4.739   2.352   1.073  0.9359 -0.8200 -0.6151
 1021SOL     OW 3961   1.209   0.891   0.669 -0.2833 -0.0403 -0.2735
 1021SOL    HW1 3962   1.161   0.866   0.753 -0.0741 -3.1258 -0.9430
 1021SOL    HW2 3963   1.299   0.848   0.668 -0.4844 -0.5069 -2.2758
 1022SOL     OW 3964   1.904   3.808   6.747 -0.4426  0.1887 -0.2535
 1022SOL    HW1 3965   1.838   3.837   6.815 -0.6342  1.0616 -0.7931
 1022SOL    HW2 3966   1.928   3.885   6.689  1.8790  0.2024  0.5951
 1023SOL     OW 3967   0.569   1.798   1.547 -0.1021  0.3342  0.0280
 1023SOL    HW1 3968   0.645   1.846   1.502  0.9273  2.0170  3.2468
 1023SOL    HW2 3969   0.485   1.852   1.538 -0.3310 -0.2030 -1.2553
 1024SOL     OW 3970   2.564   2.224   5.319  0.3652  0.8982 -1.1214
 1024SOL    HW1 3971   2.614   2.200   5.402 -0.4409  0.0077 -0.8699
 1024SOL    HW2 3972   2.576   2.152   5.251 -1.3874  0.1172 -0.6686
 1025SOL     OW 3973   4.161   3.863   0.044  0.1438 -0.1704  0.2281
 1025SOL    HW1 3974   4.249   3.904   0.025  0.2183 -0.0553  0.8195
 1025SOL    HW2 3975   4.117   3.910   0.120 -1.4415  1.2679 -1.4578
 1026SOL     OW 3976   3.075   0.694   1.557  0.4594  0.1019  0.0635
 1026SOL    HW1 3977   3.159   0.720   1.509 -0.4842  4.2269  0.2304
 1026SOL    HW2 3978   3.096   0.676   1.653  1.1686  1.4173  0.1842
 1027SOL     OW 3979   0.235   0.307   0.845  0.0102  0.5408  0.0041
 1027SOL    HW1 3980   0.303   0.344   0.909  2.1709 -1.5264 -0.9626
 1027SOL    HW2 3981   0.252   0.210   0.831 -2.3078  0.2796 -1.4254
 1028SOL     OW 3982   6.785   5.510   0.199 -0.0014 -0.1208 -0.1437
 1028SOL    HW1 3983   6.715   5.483   0.264  2.1776 -2.5329  1.4108
 1028SOL    HW2 3984   6.843   5.581   0.240  0.2999 -0.3364 -0.1985
 1029SOL     OW 3985   2.742   6.917   6.308 -0.5227  0.1841 -0.2268
 1029SOL    HW1 3986   2.788   6.857   6.374 -1.5224 -0.4864 -0.1089
 1029SOL    HW2 3987   2.803   6.937   6.232  0.3955  0.3615  0.5427
 1030SOL     OW 3988   6.390   4.120   0.967 -0.2679  0.1678 -0.0974
 1030SOL    HW1 3989   6.386   4.035   0.915  1.8086  0.2977 -0.5429
 1030SOL    HW2 3990   6.384   4.100   1.065  1.0460 -0.6046 -0.1520
 1031SOL     OW 3991   4.590   3.377   0.348  0.0812  0.8546  0.1005
 1031SOL    HW1 3992   4.615   3.405   0.441 -0.9541  1.9772  0.0725
 1031SOL    HW2 3993   4.513   3.314   0.351  0.5016  0.3325  0.0277
 1032SOL     OW 3994   2.391   1.277   0.702  0.3647 -0.0720  0.8512
 1032SOL    HW1 3995   2.489   1.286   0.722  0.5684  1.3143 -0.5056
 1032SOL    HW2 3996   2.372   1.184   0.672  2.0483  0.4369 -2.2815
 1033SOL     OW 3997   6.319   1.055   1.303 -0.1526 -0.0233  0.0941
 1033SOL    HW1 3998   6.323   1.134   1.242 -0.1064 -0.6102 -0.6745
 1033SOL    HW2 3999   6.227   1.049   1.344  0.2816  1.2936  1.3592
 1034SOL     OW 4000   2.126   6.860   5.778  0.2373 -0.1055  0.6342
 1034SOL    HW1 4001   2.167   6.794   5.715 -0.8089  0.1250 -0.3205
 1034SOL    HW2 4002   2.026   6.857   5.768  0.0818  0.2830  1.9469
 1035SOL     OW 4003   2.516   6.560   6.651 -0.0359 -0.5436 -0.5114
 1035SOL    HW1 4004   2.498   6.525   6.559 -0.1934  0.0269 -0.7028
 1035SOL    HW2 4005   2.434   6.551   6.707  0.7384 -3.1752  0.3515
 1036SOL     OW 4006   0.041   2.191   3.369 -0.0758 -0.4441 -0.6271
 1036SOL    HW1 4007   0.010   2.280   3.404  2.3863  0.0123  0.5815
 1036SOL    HW2 4008  -0.037   2.143   3.328 -2.4134  0.5088  2.3255
 1037SOL     OW 4009   1.191   2.592   3.884 -0.1957  0.3356 -0.2837
 1037SOL    HW1 4010   1.146   2.515   3.929  0.6784 -0.0317 -0.0235
 1037SOL    HW2 4011   1.186   2.580   3.785  0.7162 -0.5188 -0.2370
 1038SOL     OW 4012   1.950   6.947   0.665 -0.4023 -0.1273 -0.6998
 1038SOL    HW1 4013   2.046   6.924   0.679 -0.0256  2.4023  1.8550
 1038SOL    HW2 4014   1.925   6.930   0.569  2.4423 -1.2285 -1.3451
 1039SOL     OW 4015   3.366   3.754   2.293  0.0860  0.4876 -0.1747
 1039SOL    HW1 4016   3.292   3.707   2.246 -0.0345 -0.6898  1.1478
 1039SOL    HW2 4017   3.406   3.694   2.362  0.5352  2.0065  0.9501
 1040SOL     OW 4018   4.351   0.457   2.558 -0.0156  0.8232  0.4126
 1040SOL    HW1 4019   4.418   0.383   2.544  1.9762  2.8619 -1.5341
 1040SOL    HW2 4020   4.273   0.443   2.497  0.7503  0.7499 -0.5716
 1041SOL     OW 4021   6.904   6.173   6.218  0.0989  0.3981  0.1708
 1041SOL    HW1 4022   6.850   6.189   6.136  0.2908  1.8134  0.2969
 1041SOL    HW2 4023   6.896   6.077   6.245  0.0389 -0.0891 -1.4808
 1042SOL     OW 4024   5.465   2.663   4.063  0.5181  0.1193  0.4294
 1042SOL    HW1 4025   5.457   2.649   3.964 -1.2761  0.1994  0.5310
 1042SOL    HW2 4026   5.434   2.580   4.110 -1.9543  1.2413  0.9256
 1043SOL     OW 4027   3.062   2.188   3.363 -0.0956  0.1530 -0.3772
 1043SOL    HW1 4028   2.991   2.216   3.427 -0.4872  2.7499 -1.8025
 1043SOL    HW2 4029   3.056   2.243   3.280  3.0564 -0.0799 -0.9057
 1044SOL     OW 4030   4.751   4.776   1.451  0.0074  0.2890  0.2070
 1044SOL    HW1 4031   4.783   4.683   1.433  0.8159  0.0744  2.3413
 1044SOL    HW2 4032   4.682   4.773   1.524 -1.9936  1.1483 -1.5696
 1045SOL     OW 4033   3.000   0.303   3.498 -0.0593  0.4420  0.2024
 1045SOL    HW1 4034   3.049   0.371   3.553 -1.7659  1.3288  0.6883
 1045SOL    HW2 4035   3.038   0.212   3.515  1.0135  1.0300  0.9991
 1046SOL     OW 4036   4.560   3.386   0.617 -0.6688  0.1955  0.2842
 1046SOL    HW1 4037   4.648   3.366   0.660  0.0269  1.3615 -0.5465
 1046SOL    HW2 4038   4.492   3.404   0.688 -0.4080 -1.3022  0.9500
 1047SOL     OW 4039   3.921   1.414   4.594 -0.0106  0.6908 -0.5932
 1047SOL    HW1 4040   3.983   1.484   4.628 -1.8205  1.4699  1.3495
 1047SOL    HW2 4041   3.838   1.457   4.559 -0.1755 -0.3946 -1.6151
 1048SOL     OW 4042   1.781   0.147   2.367  0.3995 -0.7319  0.0225
 1048SOL    HW1 4043   1.770   0.202   2.284 -2.5082  0.2625  0.9337
 1048SOL    HW2 4044   1.790   0.207   2.446 -0.9726 -1.5359  0.8394
 1049SOL     OW 4045   3.181   6.998   1.323  0.2698 -0.2305  0.0777
 1049SOL    HW1 4046   3.081   7.003   1.332  0.3500 -0.1164  1.0574
 1049SOL    HW2 4047   3.216   7.086   1.291 -0.0456 -0.6669 -1.5727
 1050SOL     OW 4048   2.841   0.715   5.359 -0.1889  0.0911  0.3529
 1050SOL    HW1 4049   2.859   0.704   5.261 -0.8911  1.4748  0.0438
 1050SOL    HW2 4050   2.744   0.739   5.373  0.0356  0.4889  1.3284
 1051SOL     OW 4051   1.555   2.229   0.530  0.6461  0.4063 -0.2250
 1051SOL    HW1 4052   1.490   2.211   0.604 -1.5254  0.9171 -1.9049
 1051SOL    HW2 4053   1.563   2.148   0.472  3.2515 -0.4096  1.1172
 1052SOL     OW 4054   5.069   1.486   6.155  0.7508 -0.3920  0.5505
 1052SOL    HW1 4055   5.004   1.545   6.205 -0.7205 -1.7536  0.3242
 1052SOL    HW2 4056   5.022   1.402   6.126  2.2913 -0.8335 -0.7951
 1053SOL     OW 4057   2.667   1.561   3.818  0.3837  0.5373  0.1963
 1053SOL    HW1 4058   2.763   1.587   3.827  0.5287  0.3810 -0.8217
 1053SOL    HW2 4059   2.659   1.463   3.806  0.1091  0.5816  0.0081
 1054SOL     OW 4060   5.006   5.440   6.778 -0.7125  0.6913 -0.0162
 1054SOL    HW1 4061   4.958   5.498   6.712 -0.6747  0.3668 -0.3313
 1054SOL    HW2 4062   5.017   5.348   6.740 -0.1488  0.6684  0.1966
 1055SOL     OW 4063   5.847   4.983   3.640  0.3881 -0.5286 -0.0888
 1055SOL    HW1 4064   5.816   4.977   3.734 -2.1276  2.3199 -0.5623
 1055SOL    HW2 4065   5.938   5.026   3.637 -0.0241  0.4511  1.0077
 1056SOL     OW 4066   3.035   2.885   6.554 -0.4801 -0.3452 -0.0325
 1056SOL    HW1 4067   3.097   2.881   6.476 -0.4137 -0.6334  0.0347
 1056SOL    HW2 4068   3.080   2.930   6.631 -1.2735  1.9849 -0.8337
 1057SOL     OW 4069   1.821   3.217   5.614 -0.7390 -0.4549 -0.2033
 1057SOL    HW1 4070   1.908   3.170   5.597 -0.6885  0.6262 -3.6374
 1057SOL    HW2 4071   1.746   3.152   5.606 -0.3898 -1.0361  0.9901
 1058SOL     OW 4072   3.516   1.245   2.254  0.2567  0.2310  0.1370
 1058SOL    HW1 4073   3.432   1.287   2.287  0.0147 -0.0404 -0.1303
 1058SOL    HW2 4074   3.585   1.245   2.327 -0.0864  0.1438  0.4609
 1059SOL     OW 4075   6.187   6.797   0.792  0.5759 -0.0044 -0.4296
 1059SOL    HW1 4076   6.162   6.892   0.771  0.0876 -0.2188 -0.8334
 1059SOL    HW2 4077   6.286   6.787   0.787  0.8225  0.9350  1.4916
 1060SOL     OW 4078   6.434   5.006   5.947  0.2211 -0.1802  0.2084
 1060SOL    HW1 4079   6.488   5.015   6.031 -0.0076  0.5831  0.2843
 1060SOL    HW2 4080   6.490   5.032   5.869 -0.3834  1.9468  0.4097
 1061SOL     OW 4081   6.546   4.131   4.715 -1.4078 -0.2096 -0.1708
 1061SOL    HW1 4082   6.475   4.119   4.784 -1.9598  0.6063 -0.5753
 1061SOL    HW2 4083   6.545   4.226   4.684  1.1097  0.3424  1.1744
 1062SOL     OW 4084   3.626   5.226   4.996  0.4304 -0.5675 -0.4524
 1062SOL    HW1 4085   3.665   5.152   4.941 -0.3402 -0.5046 -1.0985
 1062SOL    HW2 4086   3.527   5.214   5.005  0.1845  0.6948 -1.1045
 1063SOL     OW 4087   3.564   6.518   3.496 -0.4374  0.0386  0.2768
 1063SOL    HW1 4088   3.641   6.513   3.560 -0.7494 -1.2738  0.5976
 1063SOL    HW2 4089   3.547   6.427   3.458  0.2831  0.9192 -2.3703
 1064SOL     OW 4090   0.837   5.727   6.215  0.0050  0.7881  0.1660
 1064SOL    HW1 4091   0.827   5.705   6.118 -1.0951  2.3775 -0.1088
 1064SOL    HW2 4092   0.933   5.720   6.241  0.3429  0.5497 -1.0805
 1065SOL     OW 4093   6.408   1.661   6.148 -0.1550 -0.1839 -0.3235
 1065SOL    HW1 4094   6.436   1.612   6.066 -1.6023 -1.7544  0.0712
 1065SOL    HW2 4095   6.479   1.651   6.218  0.2964 -0.3252 -0.7945
 1066SOL     OW 4096   3.055   4.308   1.306  0.7591  0.1194 -0.5885
 1066SOL    HW1 4097   3.135   4.315   1.365  0.4744  1.0220 -0.3012
 1066SOL    HW2 4098   3.058   4.380   1.236 -0.2176  0.6961 -0.0559
 1067SOL     OW 4099   4.648   0.374   0.283  0.1423  0.0934 -0.0120
 1067SOL    HW1 4100   4.719   0.311   0.315 -0.1293 -0.4244 -0.4024
 1067SOL    HW2 4101   4.584   0.393   0.358 -0.3008 -0.8454 -0.1369
 1068SOL     OW 4102   5.779   3.180   2.109  0.1763  0.0021  0.2165
 1068SOL    HW1 4103   5.756   3.116   2.182  0.6339  0.0298  0.3909
 1068SOL    HW2 4104   5.782   3.132   2.021  0.0156 -0.1101  0.2725
 1069SOL     OW 4105   0.031   1.821   2.361 -0.0272 -0.2862  0.0480
 1069SOL    HW1 4106   0.088   1.799   2.441  0.0524  3.8981  1.3541
 1069SOL    HW2 4107  -0.065   1.809   2.385 -0.1423  2.8972  1.6941
 1070SOL     OW 4108   3.001   1.307   2.379 -0.3143  0.1344  0.3743
 1070SOL    HW1 4109   2.937   1.360   2.435  0.9003  0.2385  1.7512
 1070SOL    HW2 4110   2.952   1.237   2.328 -1.4600 -0.1292  1.7868
 1071SOL     OW 4111   0.676   3.044   0.218 -0.0164  0.1919  1.0105
 1071SOL    HW1 4112   0.608   3.062   0.147  1.4419  1.5175 -0.1121
 1071SOL    HW2 4113   0.712   2.952   0.208  1.0925  0.7876 -0.8259
 1072SOL     OW 4114   3.002   6.908   6.945 -0.4174 -0.1632  0.1800
 1072SOL    HW1 4115   2.979   6.878   7.038 -0.1545  1.3146  0.7656
 1072SOL    HW2 4116   2.997   6.831   6.882 -1.8943 -0.9388  1.1906
 1073SOL     OW 4117   4.385   1.889   2.777 -0.5447  0.9280 -0.1912
 1073SOL    HW1 4118   4.412   1.984   2.767 -1.4423  1.3518  1.1340
 1073SOL    HW2 4119   4.308   1.882   2.840  0.5638 -0.7945  1.1057
 1074SOL     OW 4120   3.569   5.991   1.284 -0.0058  0.7540 -0.1899
 1074SOL    HW1 4121   3.638   6.057   1.315  2.4811 -0.7806 -2.1113
 1074SOL    HW2 4122   3.566   5.991   1.184 -0.5986 -1.3931 -0.2145
 1075SOL     OW 4123   6.191   3.367   5.225  0.4240 -0.4698 -0.2145
 1075SOL    HW1 4124   6.178   3.277   5.269  1.3891 -0.4350  0.1706
 1075SOL    HW2 4125   6.136   3.371   5.141  0.1560 -1.3190 -0.0951
 1076SOL     OW 4126   2.275   4.883   4.224 -0.0099 -0.5990 -0.3997
 1076SOL    HW1 4127   2.195   4.938   4.197 -0.2216 -1.3037 -1.2499
 1076SOL    HW2 4128   2.271   4.865   4.322 -0.9754 -0.7311 -0.4498
 1077SOL     OW 4129   6.848   6.236   1.819 -0.0630  0.9297 -0.5217
 1077SOL    HW1 4130   6.803   6.154   1.784 -0.5927  1.6519 -1.5868
 1077SOL    HW2 4131   6.935   6.211   1.862 -0.2313 -0.1821 -0.8092
 1078SOL     OW 4132   0.076   0.893   3.603  0.5038  0.3105 -0.0725
 1078SOL    HW1 4133   0.169   0.923   3.582  0.1495  1.9031  0.5039
 1078SOL    HW2 4134   0.073   0.860   3.698  0.3805  0.7330  0.0723
 1079SOL     OW 4135   0.477   4.464   6.640 -0.0422  0.6879 -0.3402
 1079SOL    HW1 4136   0.536   4.437   6.565  1.4043  1.7470  0.3696
 1079SOL    HW2 4137   0.399   4.402   6.645 -0.5790  0.9996 -3.1422
 1080SOL     OW 4138   5.204   4.798   0.061  0.2658  0.0980 -0.0167
 1080SOL    HW1 4139   5.208   4.745  -0.023 -0.3684 -0.4235  0.2730
 1080SOL    HW2 4140   5.211   4.736   0.140  0.0319  0.4950  0.3210
 1081SOL     OW 4141   5.966   6.043   3.922  1.0164  0.1848 -0.1096
 1081SOL    HW1 4142   5.982   6.061   4.019 -0.1305  0.4520  0.0455
 1081SOL    HW2 4143   5.972   6.129   3.870  0.3667  0.2520 -0.0815
 1082SOL     OW 4144   5.280   0.857   0.560 -0.5878 -0.1572  0.0427
 1082SOL    HW1 4145   5.199   0.835   0.506  0.9515 -1.9295 -1.7113
 1082SOL    HW2 4146   5.353   0.890   0.500  0.8895 -1.2450  1.1487
 1083SOL     OW 4147   6.609   3.552   1.107  0.2405  0.6077  0.0883
 1083SOL    HW1 4148   6.565   3.463   1.122  1.2938  0.0605  0.0804
 1083SOL    HW2 4149   6.629   3.595   1.195 -1.6734  1.5946  0.0958
 1084SOL     OW 4150   3.694   0.130   5.258  0.2327 -0.2528 -0.1463
 1084SOL    HW1 4151   3.758   0.148   5.183  0.4421  0.4560  0.1923
 1084SOL    HW2 4152   3.710   0.195   5.332 -0.5106 -0.4240  0.1769
 1085SOL     OW 4153   1.203   3.044   6.197 -0.2768 -0.4505  0.5811
 1085SOL    HW1 4154   1.256   2.989   6.133 -0.4781  1.1079 -0.9988
 1085SOL    HW2 4155   1.256   3.125   6.224 -1.1836  0.2554  0.3000
 1086SOL     OW 4156   3.474   6.202   3.401  0.1430 -0.0881  0.1537
 1086SOL    HW1 4157   3.441   6.257   3.323 -0.1717  0.6854  0.8147
 1086SOL    HW2 4158   3.437   6.240   3.486  3.0946  1.1110  1.0114
 1087SOL     OW 4159   3.572   6.129   5.554 -0.1636  0.3644 -0.0982
 1087SOL    HW1 4160   3.504   6.190   5.596 -0.1467  1.2667 -1.3192
 1087SOL    HW2 4161   3.660   6.142   5.599 -0.0411  1.6396 -0.6647
 1088SOL     OW 4162   6.634   6.397   3.531 -0.2803  0.3896  1.0957
 1088SOL    HW1 4163   6.676   6.485   3.553  1.3319 -0.4246  1.4012
 1088SOL    HW2 4164   6.631   6.385   3.432  1.0820  0.0921  1.0657
 1089SOL     OW 4165   0.433   5.381   6.200 -0.2944  0.1281  0.2782
 1089SOL    HW1 4166   0.455   5.326   6.120 -0.1684  2.2292 -1.2243
 1089SOL    HW2 4167   0.462   5.334   6.283  1.5237 -1.1853 -1.0361
 1090SOL     OW 4168   5.820   0.625   4.875 -0.1998 -0.1371 -0.3183
 1090SOL    HW1 4169   5.827   0.627   4.975  2.8063  2.2598 -0.4342
 1090SOL    HW2 4170   5.773   0.707   4.844  1.2447  0.5020 -0.9063
 1091SOL     OW 4171   2.192   3.905   2.934  0.6805 -0.2196  0.0929
 1091SOL    HW1 4172   2.184   3.812   2.969 -0.3080 -0.4640 -0.7290
 1091SOL    HW2 4173   2.233   3.964   3.003  0.8903 -1.1628  0.7873
 1092SOL     OW 4174   6.418   0.072   0.919  0.5181 -0.3028  0.0344
 1092SOL    HW1 4175   6.493   0.119   0.873  0.6218 -1.1260 -0.6720
 1092SOL    HW2 4176   6.348   0.138   0.946  0.5641  0.2321 -1.1155
 1093SOL     OW 4177   2.742   0.349   4.806  0.1790 -0.1312  0.4232
 1093SOL    HW1 4178   2.655   0.335   4.758  0.4516  3.5121 -1.5396
 1093SOL    HW2 4179   2.816   0.305   4.756 -0.1711 -0.7819  0.4686
 1094SOL     OW 4180   6.043   3.687   3.349  0.7624 -0.4726  0.5421
 1094SOL    HW1 4181   6.047   3.722   3.256  1.4816 -2.0796 -0.0684
 1094SOL    HW2 4182   5.951   3.650   3.366  0.6162 -0.1377  0.4926
 1095SOL     OW 4183   6.434   4.763   1.598 -0.3599 -0.9526 -0.2387
 1095SOL    HW1 4184   6.399   4.786   1.507 -0.7094  2.1944  0.5938
 1095SOL    HW2 4185   6.534   4.763   1.597 -0.3455  0.7438 -0.2840
 1096SOL     OW 4186   1.898   6.341   2.517  0.5928  0.4014  0.3755
 1096SOL    HW1 4187   1.860   6.410   2.579  0.3937 -0.6245  1.4202
 1096SOL    HW2 4188   1.850   6.255   2.529  1.1258 -0.0552 -0.6167
 1097SOL     OW 4189   2.302   0.348   4.812  0.0394 -0.0904  0.2926
 1097SOL    HW1 4190   2.253   0.278   4.865 -2.2409 -0.5023 -2.1632
 1097SOL    HW2 4191   2.358   0.403   4.874  0.1477 -2.5980  2.6221
 1098SOL     OW 4192   6.373   3.598   6.550  0.4976 -0.2038  0.4290
 1098SOL    HW1 4193   6.312   3.521   6.534  0.1583  0.5489 -2.5030
 1098SOL    HW2 4194   6.454   3.567   6.599 -0.3103 -2.0726  0.6516
 1099SOL     OW 4195   6.436   6.469   5.545  0.0057  0.3002 -0.1082
 1099SOL    HW1 4196   6.446   6.506   5.453 -0.1889  2.1264  0.5644
 1099SOL    HW2 4197   6.342   6.438   5.559 -0.2826  1.1576 -0.1288
 1100SOL     OW 4198   3.817   0.187   4.109  0.2496 -0.4709 -0.5011
 1100SOL    HW1 4199   3.834   0.183   4.011  0.2359  0.2635 -0.5411
 1100SOL    HW2 4200   3.739   0.248   4.127  0.0189 -0.8879 -0.0615
 1101SOL     OW 4201   5.838   2.718   6.863 -0.9623 -0.3703  0.4703
 1101SOL    HW1 4202   5.854   2.792   6.928 -0.9275  1.8063 -1.8714
 1101SOL    HW2 4203   5.919   2.660   6.858 -0.5993  0.0109  1.5968
 1102SOL     OW 4204   4.695   6.339   2.699 -0.0417  0.2488  0.9705
 1102SOL    HW1 4205   4.787   6.303   2.682 -0.1039  0.3494  0.3985
 1102SOL    HW2 4206   4.648   6.280   2.764  0.6776  0.5888  1.8258
 1103SOL     OW 4207   2.217   0.639   2.211 -0.5641 -0.8043 -0.0362
 1103SOL    HW1 4208   2.236   0.715   2.273 -1.6010  0.2264 -0.9209
 1103SOL    HW2 4209   2.196   0.675   2.120 -1.1480 -2.1552 -0.4591
 1104SOL     OW 4210   5.117   1.814   3.786 -0.6034 -0.1544  0.5216
 1104SOL    HW1 4211   5.055   1.794   3.710 -2.3328  1.6325  1.3761
 1104SOL    HW2 4212   5.092   1.902   3.826  2.2507  0.4275  1.2096
 1105SOL     OW 4213   4.693   6.403   0.314 -0.4369 -0.0060  0.3524
 1105SOL    HW1 4214   4.755   6.351   0.254  0.5378 -1.2934  2.3808
 1105SOL    HW2 4215   4.598   6.383   0.289 -0.0836  0.1363 -1.2523
 1106SOL     OW 4216   6.612   1.117   6.325  0.5808 -0.2324  0.4340
 1106SOL    HW1 4217   6.657   1.074   6.404 -0.7063  0.3408  1.5025
 1106SOL    HW2 4218   6.630   1.215   6.327 -0.8167  0.0288  0.9709
 1107SOL     OW 4219   1.000   2.251   5.576 -0.0267  0.8236 -0.4996
 1107SOL    HW1 4220   0.976   2.259   5.673  2.2383 -0.1123  0.2084
 1107SOL    HW2 4221   1.011   2.154   5.553 -0.1783  1.0599 -1.6078
 1108SOL     OW 4222   0.369   2.337   1.818 -0.4409  0.2046  0.1087
 1108SOL    HW1 4223   0.443   2.281   1.857  0.0228  0.6054 -0.1802
 1108SOL    HW2 4224   0.386   2.352   1.721  0.7758  2.8753  0.6494
 1109SOL     OW 4225   4.586   0.730   5.069  0.3048  0.8449  0.3021
 1109SOL    HW1 4226   4.507   0.764   5.120  0.5799  3.1742 -0.6970
 1109SOL    HW2 4227   4.667   0.728   5.128 -0.5255 -2.1753  1.5197
 1110SOL     OW 4228   1.029   4.858   2.094  0.1006 -0.1206  0.3524
 1110SOL    HW1 4229   0.957   4.794   2.120  0.5052 -1.6870 -2.0356
 1110SOL    HW2 4230   0.999   4.912   2.016  1.1493 -0.0973 -0.0577
 1111SOL     OW 4231   4.475   1.679   1.170  0.4366  0.8375  0.3879
 1111SOL    HW1 4232   4.555   1.637   1.215 -0.1188  0.7059  1.2732
 1111SOL    HW2 4233   4.503   1.716   1.081  1.1085 -0.7510 -0.1025
 1112SOL     OW 4234   4.905   0.688   1.927  0.1303 -0.2665  0.2375
 1112SOL    HW1 4235   4.923   0.763   1.864  2.4984 -1.0552 -0.1109
 1112SOL    HW2 4236   4.929   0.716   2.020  1.3520 -0.6523  0.0597
 1113SOL     OW 4237   2.153   1.011   2.785 -1.2157  0.5165 -0.1222
 1113SOL    HW1 4238   2.143   0.965   2.874 -0.0230 -0.0551 -0.2637
 1113SOL    HW2 4239   2.176   1.107   2.800 -1.9471  0.6539  0.1759
 1114SOL     OW 4240   3.093   3.009   3.975 -0.1951 -0.3702 -0.4914
 1114SOL    HW1 4241   3.155   3.031   3.900  0.9187 -2.7366 -0.3656
 1114SOL    HW2 4242   3.016   2.955   3.941 -1.8906  1.8868 -0.5111
 1115SOL     OW 4243   1.834   6.214   0.098  0.3717 -0.0292  0.7785
 1115SOL    HW1 4244   1.892   6.244   0.022 -0.3429 -0.0202  0.2241
 1115SOL    HW2 4245   1.752   6.271   0.102 -0.9555 -1.7696 -0.2140
 1116SOL     OW 4246   5.413   6.756   1.309 -0.2894 -0.0538 -0.0579
 1116SOL    HW1 4247   5.501   6.721   1.339 -0.4933  0.6390  1.4461
 1116SOL    HW2 4248   5.398   6.731   1.213  0.9170 -1.3446  0.0558
 1117SOL     OW 4249   1.960   3.376   3.534 -0.0828  0.0614 -0.0122
 1117SOL    HW1 4250   2.027   3.303   3.547 -1.1649 -0.7015  1.5201
 1117SOL    HW2 4251   1.911   3.361   3.448 -1.1576 -1.7972  0.8504
 1118SOL     OW 4252   4.494   6.056   6.516 -0.7711  0.1716  0.1636
 1118SOL    HW1 4253   4.518   6.119   6.590  0.3416  1.0479 -0.8884
 1118SOL    HW2 4254   4.564   6.060   6.445 -0.5673 -2.3918  0.1015
 1119SOL     OW 4255   3.235   5.617   3.766 -0.6506  0.2358 -0.1677
 1119SOL    HW1 4256   3.320   5.603   3.715 -0.4655  0.1168  0.1738
 1119SOL    HW2 4257   3.175   5.677   3.714 -0.2055  0.6217 -0.2381
 1120SOL     OW 4258   0.550   3.761   2.680 -0.6690  0.8554 -0.3227
 1120SOL    HW1 4259   0.502   3.842   2.646 -2.6921 -0.8242 -1.8092
 1120SOL    HW2 4260   0.603   3.720   2.606 -1.6504 -0.4768 -0.3358
 1121SOL     OW 4261   0.778   4.832   6.757  0.1737  0.0486  0.3372
 1121SOL    HW1 4262   0.809   4.918   6.797  0.2512 -0.1885  0.8020
 1121SOL    HW2 4263   0.684   4.814   6.784 -0.3674  0.7339 -1.0183
 1122SOL     OW 4264   6.504   1.457   2.034  0.2355 -0.3370  0.5261
 1122SOL    HW1 4265   6.563   1.439   2.113  0.9529 -0.4991 -0.0243
 1122SOL    HW2 4266   6.487   1.555   2.026 -0.2187 -0.3619  1.1381
 1123SOL     OW 4267   4.013   2.173   3.677 -0.3198 -0.3750 -0.1341
 1123SOL    HW1 4268   4.105   2.180   3.715 -0.5062 -1.1670  0.4979
 1123SOL    HW2 4269   3.946   2.178   3.752 -0.7289 -1.0440 -0.4501
 1124SOL     OW 4270   2.969   1.952   3.841  0.6361 -0.6118 -0.3936
 1124SOL    HW1 4271   2.947   1.881   3.774  1.6077 -2.2736  0.9831
 1124SOL    HW2 4272   3.035   2.016   3.802  1.4326 -1.7406 -0.9284
 1125SOL     OW 4273   6.926   3.604   3.601 -0.1073  0.1560 -0.7686
 1125SOL    HW1 4274   6.901   3.541   3.675  3.1748  0.8959  1.1715
 1125SOL    HW2 4275   6.994   3.561   3.542  1.1630  1.3419 -0.2217
 1126SOL     OW 4276   5.377   4.941   4.253 -0.2980  0.3328  0.2318
 1126SOL    HW1 4277   5.389   5.041   4.258 -0.6347  0.3060  2.1119
 1126SOL    HW2 4278   5.297   4.920   4.198 -0.5685  1.1181  0.3085
 1127SOL     OW 4279   6.872   0.977   1.503  1.1432  0.3029 -0.2584
 1127SOL    HW1 4280   6.941   0.963   1.574 -1.0427  2.9048  2.6969
 1127SOL    HW2 4281   6.882   1.069   1.465 -0.6015  0.7439  0.2547
 1128SOL     OW 4282   2.745   2.088   4.642 -0.5914  0.0850  0.1421
 1128SOL    HW1 4283   2.652   2.096   4.606 -0.3660 -2.3239 -1.1736
 1128SOL    HW2 4284   2.742   2.067   4.739 -1.4956 -1.1478 -0.1357
 1129SOL     OW 4285   2.381   6.843   6.040 -0.1918 -0.6863  0.9189
 1129SOL    HW1 4286   2.287   6.867   6.018  0.3890  1.7314  0.7154
 1129SOL    HW2 4287   2.400   6.868   6.135  1.1681  2.4211 -0.0338
 1130SOL     OW 4288   3.217   6.308   5.893  0.3436  0.0084  0.5008
 1130SOL    HW1 4289   3.195   6.394   5.940  2.3080  1.1097 -0.4963
 1130SOL    HW2 4290   3.150   6.291   5.822 -1.3452 -0.4919  2.1211
 1131SOL     OW 4291   6.704   6.524   2.860  0.0769  0.3863 -0.2149
 1131SOL    HW1 4292   6.763   6.523   2.941 -0.5705  1.2791  0.2993
 1131SOL    HW2 4293   6.760   6.524   2.778  0.7361 -1.2610  0.2086
 1132SOL     OW 4294   2.099   3.129   3.906 -0.3396  0.0226 -0.0302
 1132SOL    HW1 4295   2.105   3.111   4.004  1.3681 -0.4211 -0.1865
 1132SOL    HW2 4296   2.083   3.227   3.891 -0.2884  0.1426  0.6825
 1133SOL     OW 4297   1.515   5.588   1.587  0.0064  0.0483  0.1114
 1133SOL    HW1 4298   1.591   5.597   1.652  1.1901  1.4603 -1.3846
 1133SOL    HW2 4299   1.511   5.670   1.530 -0.7473 -1.2867 -1.8407
 1134SOL     OW 4300   4.544   4.123   0.300 -0.1547  0.2256  0.7484
 1134SOL    HW1 4301   4.552   4.222   0.284  0.2176  0.2241  0.8942
 1134SOL    HW2 4302   4.478   4.084   0.236 -0.3683  0.5831  0.7452
 1135SOL     OW 4303   0.774   5.045   2.392  0.3380  0.4472 -0.1903
 1135SOL    HW1 4304   0.805   5.130   2.348  2.3204 -0.1189 -0.0083
 1135SOL    HW2 4305   0.705   5.001   2.336  1.2899  0.8062 -1.7064
 1136SOL     OW 4306   3.666   5.209   3.533  0.1052 -0.3813 -0.0678
 1136SOL    HW1 4307   3.747   5.192   3.477  1.4029  1.7026  1.0639
 1136SOL    HW2 4308   3.640   5.125   3.580  1.7528 -1.0283 -0.2701
 1137SOL     OW 4309   2.463   3.601   5.749 -0.2129 -0.0441  0.4739
 1137SOL    HW1 4310   2.535   3.598   5.819 -0.9337 -3.4343  1.2415
 1137SOL    HW2 4311   2.492   3.550   5.669 -0.5790  1.2751 -0.5290
 1138SOL     OW 4312   2.877   6.954   4.771 -0.6094 -0.1443 -0.1128
 1138SOL    HW1 4313   2.809   6.962   4.843 -1.4032 -2.1028 -0.5623
 1138SOL    HW2 4314   2.961   7.002   4.798 -2.0004  2.0065  0.6054
 1139SOL     OW 4315   3.673   3.647   5.928 -0.0301  0.0287  0.6963
 1139SOL    HW1 4316   3.630   3.737   5.916 -1.3581 -0.4653  1.4661
 1139SOL    HW2 4317   3.753   3.656   5.986 -0.3579  0.6739  1.0687
 1140SOL     OW 4318   1.959   3.203   2.381  0.3948  0.1987 -0.1158
 1140SOL    HW1 4319   2.011   3.284   2.352 -0.0914  1.0893  1.4162
 1140SOL    HW2 4320   1.868   3.205   2.340  0.4673  0.2913 -0.2737
 1141SOL     OW 4321   1.058   4.718   6.025  0.1925 -0.3555  0.2182
 1141SOL    HW1 4322   1.144   4.727   5.975 -1.1315 -0.8702 -2.3317
 1141SOL    HW2 4323   1.041   4.622   6.047  0.4072 -0.2162  1.0251
 1142SOL     OW 4324   0.955   6.121   4.637 -1.3592 -0.1251  0.3729
 1142SOL    HW1 4325   1.006   6.167   4.710 -0.0866 -0.1144 -0.4960
 1142SOL    HW2 4326   0.869   6.170   4.622 -1.1009  0.5731  1.0531
 1143SOL     OW 4327   0.609   3.383   3.514  0.3252 -0.7790  0.2291
 1143SOL    HW1 4328   0.521   3.419   3.483 -0.2660 -2.4025 -0.0936
 1143SOL    HW2 4329   0.620   3.400   3.611 -1.0770 -1.8716  0.6155
 1144SOL     OW 4330   5.140   4.354   0.413  0.3832  0.1027  1.1020
 1144SOL    HW1 4331   5.135   4.256   0.394 -2.1438  0.6483 -1.9738
 1144SOL    HW2 4332   5.232   4.388   0.396  1.7132 -1.8535  3.6931
 1145SOL     OW 4333   0.054   0.540   2.184 -0.0527 -0.1065 -0.2765
 1145SOL    HW1 4334   0.086   0.531   2.090  1.7130  1.6021  0.1101
 1145SOL    HW2 4335  -0.040   0.574   2.184  0.0485  0.2005 -1.4261
 1146SOL     OW 4336   2.119   0.087   1.248  0.0961 -0.1852 -0.2180
 1146SOL    HW1 4337   2.162   0.051   1.165 -0.3092 -0.4913 -0.3000
 1146SOL    HW2 4338   2.180   0.073   1.326  1.0604  1.3127 -0.6674
 1147SOL     OW 4339   0.283   6.700   1.051  0.0597 -0.4892  0.2952
 1147SOL    HW1 4340   0.317   6.759   1.125  0.4700  2.0515 -1.7860
 1147SOL    HW2 4341   0.213   6.638   1.087  0.1085  0.7684  2.7512
 1148SOL     OW 4342   2.308   4.700   1.646  0.6304  0.5800 -0.5474
 1148SOL    HW1 4343   2.367   4.768   1.690  0.6511  0.3150 -0.1649
 1148SOL    HW2 4344   2.364   4.636   1.594  0.6490  0.5584 -0.5009
 1149SOL     OW 4345   6.558   2.406   0.780 -0.2120 -0.6189 -0.3045
 1149SOL    HW1 4346   6.576   2.488   0.835  2.5942 -1.1855 -0.1879
 1149SOL    HW2 4347   6.517   2.335   0.838 -0.6020 -0.0303  0.1511
 1150SOL     OW 4348   2.048   0.757   1.980  0.5797  0.0926 -0.3895
 1150SOL    HW1 4349   1.969   0.778   1.923 -0.0032 -0.6963  0.0996
 1150SOL    HW2 4350   2.093   0.674   1.946  0.6574  0.0313 -0.1411
 1151SOL     OW 4351   6.878   5.156   4.222  0.2762 -0.1732  0.1309
 1151SOL    HW1 4352   6.961   5.211   4.219 -0.4643  1.0522  1.2700
 1151SOL    HW2 4353   6.827   5.167   4.137  1.6148 -1.5198 -0.8837
 1152SOL     OW 4354   2.666   4.756   5.288 -0.2039  0.0245  0.3436
 1152SOL    HW1 4355   2.689   4.705   5.204 -1.3283  0.1894 -0.0748
 1152SOL    HW2 4356   2.668   4.854   5.268  1.1474  0.1401  0.9424
 1153SOL     OW 4357   6.722   0.012   0.638 -0.3400 -0.0368 -0.0181
 1153SOL    HW1 4358   6.723   0.107   0.669 -0.3483 -0.5676  1.6771
 1153SOL    HW2 4359   6.810  -0.031   0.658  0.8279  0.3797 -3.4997
 1154SOL     OW 4360   1.498   1.383   0.495 -0.6828  0.3486 -0.0249
 1154SOL    HW1 4361   1.440   1.436   0.434 -0.4095  3.3145  2.1062
 1154SOL    HW2 4362   1.447   1.361   0.579 -0.1389 -1.1099 -0.0444
 1155SOL     OW 4363   4.086   5.380   3.049 -0.3070 -0.1048 -0.6309
 1155SOL    HW1 4364   4.174   5.359   3.007 -0.6767  0.3543 -1.6649
 1155SOL    HW2 4365   4.026   5.423   2.981 -1.5290 -0.9152 -0.1008
 1156SOL     OW 4366   3.419   6.193   7.008  0.1656 -0.1614 -0.4612
 1156SOL    HW1 4367   3.518   6.180   7.012  0.2803  0.5163 -0.9496
 1156SOL    HW2 4368   3.381   6.190   7.100  0.5202 -1.2592 -0.3305
 1157SOL     OW 4369   1.776   3.209   1.539 -0.1837  0.2194  0.3564
 1157SOL    HW1 4370   1.791   3.128   1.482 -1.0369  0.1601  0.2022
 1157SOL    HW2 4371   1.860   3.230   1.590  0.1412 -0.5790  0.1696
 1158SOL     OW 4372   5.199   5.431   3.631  0.0245  0.0176 -0.3117
 1158SOL    HW1 4373   5.121   5.488   3.657 -0.4668 -1.0591  0.6972
 1158SOL    HW2 4374   5.268   5.487   3.586 -0.7327  1.2687  0.0360
 1159SOL     OW 4375   6.855   4.202   0.490  0.0660 -0.5905  0.0334
 1159SOL    HW1 4376   6.859   4.294   0.528 -2.6904 -0.2722 -0.2064
 1159SOL    HW2 4377   6.938   4.183   0.439  1.6239  0.9181  1.8384
 1160SOL     OW 4378   5.607   0.413   5.737 -0.3034  0.2558  0.2694
 1160SOL    HW1 4379   5.616   0.453   5.828 -1.3936  0.8414  0.1389
 1160SOL    HW2 4380   5.608   0.486   5.668  0.2339 -0.1566 -0.1773
 1161SOL     OW 4381   1.987   3.976   6.978 -0.8022 -0.2566  0.3471
 1161SOL    HW1 4382   1.893   3.986   6.946 -0.7071 -0.2183  0.0797
 1161SOL    HW2 4383   1.990   3.905   7.049 -0.8210 -1.2265 -0.5948
 1162SOL     OW 4384   3.713   4.170   4.582 -0.2600  0.2627 -0.4404
 1162SOL    HW1 4385   3.669   4.168   4.492  0.3279 -0.0446 -0.7263
 1162SOL    HW2 4386   3.733   4.264   4.608  1.3074  0.2584 -1.4975
 1163SOL     OW 4387   4.382   0.600   1.978  0.4518  0.5831 -0.1331
 1163SOL    HW1 4388   4.331   0.585   2.063  1.2320 -1.6147  0.0077
 1163SOL    HW2 4389   4.359   0.528   1.912  1.7499  0.7961 -0.8563
 1164SOL     OW 4390   3.189   0.536   0.463 -0.2408  0.9159 -0.0017
 1164SOL    HW1 4391   3.137   0.515   0.380 -0.3358  1.7361 -0.1582
 1164SOL    HW2 4392   3.205   0.634   0.468  2.1942  0.6124 -0.5098
 1165SOL     OW 4393   3.943   1.069   2.147  0.1093  0.4239  0.0372
 1165SOL    HW1 4394   3.940   1.099   2.051 -0.5701  1.6787  0.4399
 1165SOL    HW2 4395   4.026   1.104   2.190 -0.8310  2.0620  0.5906
 1166SOL     OW 4396   3.748   3.828   5.528 -0.0982  0.0125  0.5161
 1166SOL    HW1 4397   3.809   3.830   5.449  0.8703 -1.7248  1.1627
 1166SOL    HW2 4398   3.662   3.783   5.503 -0.0596  0.0713  0.2784
 1167SOL     OW 4399   5.499   4.937   2.185 -0.7077  0.1892 -0.1693
 1167SOL    HW1 4400   5.552   5.006   2.234  1.6703 -0.2042 -1.9996
 1167SOL    HW2 4401   5.539   4.846   2.201 -0.6064 -0.0848 -1.8429
 1168SOL     OW 4402   1.814   0.182   6.349 -0.2576 -0.4948  0.3823
 1168SOL    HW1 4403   1.811   0.103   6.288  0.0786 -1.4264  1.5247
 1168SOL    HW2 4404   1.843   0.263   6.298 -0.8606 -1.0361 -0.8700
 1169SOL     OW 4405   5.262   1.528   2.804  0.9095  0.2466  0.2388
 1169SOL    HW1 4406   5.236   1.560   2.712  2.5232  3.3814  0.7292
 1169SOL    HW2 4407   5.225   1.591   2.872 -1.4077 -2.7609  1.9872
 1170SOL     OW 4408   5.100   3.124   3.384  0.5537  0.7440 -0.6214
 1170SOL    HW1 4409   5.156   3.085   3.457  3.0591  0.2672 -2.6290
 1170SOL    HW2 4410   5.126   3.220   3.371 -0.1942  0.9517 -0.6078
 1171SOL     OW 4411   6.699   6.469   6.966 -0.0530 -0.0254 -0.0076
 1171SOL    HW1 4412   6.728   6.381   6.928 -2.2173 -1.0455  0.5679
 1171SOL    HW2 4413   6.719   6.471   7.064  0.1582  0.2049 -0.0549
 1172SOL     OW 4414   5.525   2.595   6.741  0.1787  0.5123 -0.1338
 1172SOL    HW1 4415   5.517   2.649   6.825  0.6953 -0.9475  0.9078
 1172SOL    HW2 4416   5.534   2.655   6.662 -0.4772  1.9264  0.8421
 1173SOL     OW 4417   4.275   2.472   0.721 -0.0258  0.2786  0.2906
 1173SOL    HW1 4418   4.332   2.393   0.697 -0.0875  0.8655 -1.9943
 1173SOL    HW2 4419   4.180   2.454   0.692 -0.4744  0.3941  1.6230
 1174SOL     OW 4420   3.589   4.634   5.967 -0.2304  0.0066  0.2213
 1174SOL    HW1 4421   3.601   4.727   6.003 -1.5614  0.1138  0.4309
 1174SOL    HW2 4422   3.500   4.599   5.994  0.4586 -1.5552  0.5862
 1175SOL     OW 4423   2.969   3.884   2.766 -0.2148 -0.3320  0.2627
 1175SOL    HW1 4424   3.010   3.909   2.853 -0.5078 -0.9744  0.5917
 1175SOL    HW2 4425   2.917   3.799   2.777 -1.7808  0.5600 -0.1168
 1176SOL     OW 4426   4.762   2.719   5.620 -0.0742 -0.1390 -0.1729
 1176SOL    HW1 4427   4.761   2.789   5.549 -1.4978  0.6484  0.5768
 1176SOL    HW2 4428   4.675   2.721   5.671  0.5587 -1.2496  1.0310
 1177SOL     OW 4429   3.045   1.421   6.254  0.4435  0.5069  0.0054
 1177SOL    HW1 4430   3.136   1.454   6.280  1.3299 -2.1759  0.6811
 1177SOL    HW2 4431   3.055   1.344   6.190 -1.3990  0.5266 -0.3495
 1178SOL     OW 4432   5.149   0.258   6.561  0.1588 -0.5372  0.3121
 1178SOL    HW1 4433   5.147   0.182   6.626 -0.1912 -0.1316  0.7914
 1178SOL    HW2 4434   5.222   0.244   6.494 -2.3978 -3.3839 -2.1790
 1179SOL     OW 4435   6.210   6.432   0.972  0.1660  0.0379  0.2922
 1179SOL    HW1 4436   6.115   6.450   0.948  0.1404 -0.2235  0.1924
 1179SOL    HW2 4437   6.229   6.471   1.063 -0.3862 -0.9599  0.8542
 1180SOL     OW 4438   2.830   0.267   0.405 -0.1442  0.2795  0.0288
 1180SOL    HW1 4439   2.896   0.337   0.378 -1.6372  1.4397 -0.7605
 1180SOL    HW2 4440   2.764   0.306   0.469  1.9304 -1.7912  3.8248
 1181SOL     OW 4441   6.369   0.658   6.472 -0.3614 -0.2953 -0.5786
 1181SOL    HW1 4442   6.293   0.679   6.534 -0.3358 -0.4848 -0.4854
 1181SOL    HW2 4443   6.423   0.583   6.508  0.6561  0.6866  0.0170
 1182SOL     OW 4444   6.044   2.518   1.906 -0.1715 -0.1628 -0.3915
 1182SOL    HW1 4445   6.024   2.570   1.824 -1.4613  1.2069  0.7276
 1182SOL    HW2 4446   6.096   2.575   1.970  0.3801 -1.0351 -0.0430
 1183SOL     OW 4447   2.213   5.072   6.949 -0.2806  0.2437  0.3644
 1183SOL    HW1 4448   2.298   5.023   6.967 -0.3149  0.0003 -0.1380
 1183SOL    HW2 4449   2.200   5.083   6.850  0.0043  1.7458  0.4556
 1184SOL     OW 4450   0.605   1.986   4.287 -0.1046  0.4032 -0.0811
 1184SOL    HW1 4451   0.585   1.912   4.223 -2.2856 -0.8422  1.8487
 1184SOL    HW2 4452   0.654   2.059   4.240  0.1774 -1.2841 -2.6111
 1185SOL     OW 4453   1.253   2.275   6.114  0.0997 -0.0361  0.1362
 1185SOL    HW1 4454   1.283   2.289   6.019 -0.1081 -1.5272 -0.1717
 1185SOL    HW2 4455   1.154   2.259   6.116  0.1512 -0.3090  0.5773
 1186SOL     OW 4456   3.926   6.536   2.691 -0.0735  0.5359 -0.3878
 1186SOL    HW1 4457   3.901   6.619   2.741 -0.5637 -0.4068  1.0020
 1186SOL    HW2 4458   3.859   6.464   2.711  1.6092 -0.8969  0.3223
 1187SOL     OW 4459   5.864   0.971   5.780 -0.3319 -0.1788  0.0471
 1187SOL    HW1 4460   5.836   1.023   5.700 -2.9829 -1.4400  0.0272
 1187SOL    HW2 4461   5.900   1.033   5.850 -2.2299  1.5643 -0.4150
 1188SOL     OW 4462   5.216   1.991   6.383  0.5957 -0.1008  0.1931
 1188SOL    HW1 4463   5.303   2.006   6.430 -0.2465 -0.2459  1.8835
 1188SOL    HW2 4464   5.192   1.894   6.387  0.5959 -0.1452 -0.7235
 1189SOL     OW 4465   5.282   4.026   2.260 -0.2990 -0.6595 -0.0113
 1189SOL    HW1 4466   5.376   4.051   2.283 -0.8045 -0.7234  2.3936
 1189SOL    HW2 4467   5.227   4.109   2.252 -0.1306 -0.6403 -1.0021
 1190SOL     OW 4468   2.018   2.152   5.840 -0.3231 -0.1117  0.1177
 1190SOL    HW1 4469   2.026   2.250   5.854  0.0249 -0.1612  0.2707
 1190SOL    HW2 4470   1.922   2.125   5.846 -0.4081  0.2025  0.1772
 1191SOL     OW 4471   2.347   0.804   3.255  0.1433 -0.4279 -0.1516
 1191SOL    HW1 4472   2.392   0.819   3.167 -0.7546  0.5895 -0.4610
 1191SOL    HW2 4473   2.388   0.864   3.324  1.8177 -2.2265  0.5149
 1192SOL     OW 4474   5.773   6.439   4.791  0.4597  0.1461 -0.1765
 1192SOL    HW1 4475   5.802   6.479   4.705  1.4212  1.3821  0.6901
 1192SOL    HW2 4476   5.675   6.421   4.788  0.5728 -0.3838 -1.7159
 1193SOL     OW 4477   5.867   6.307   4.038  0.1888 -0.4189 -0.1526
 1193SOL    HW1 4478   5.773   6.339   4.027 -0.0289 -1.1973 -0.6735
 1193SOL    HW2 4479   5.877   6.259   4.125  0.2950  0.2772  0.2285
 1194SOL     OW 4480   3.152   0.168   1.572  0.6925 -0.0915  0.8762
 1194SOL    HW1 4481   3.244   0.134   1.554  0.7279  0.8240 -0.8726
 1194SOL    HW2 4482   3.109   0.194   1.486 -1.5190 -1.2410  1.5662
 1195SOL     OW 4483   4.641   3.380   5.399 -0.0577  0.0760  1.1406
 1195SOL    HW1 4484   4.646   3.447   5.325 -1.0584  1.0293  1.9113
 1195SOL    HW2 4485   4.626   3.427   5.485  0.9212 -1.0317  1.9553
 1196SOL     OW 4486   1.014   6.683   5.935 -0.8156 -0.2511 -0.0361
 1196SOL    HW1 4487   0.949   6.619   5.976 -0.3727  0.5833  2.1024
 1196SOL    HW2 4488   0.992   6.776   5.964 -0.4079  0.3801 -1.6719
 1197SOL     OW 4489   2.112   6.693   0.968 -0.6189 -0.2403 -0.3745
 1197SOL    HW1 4490   2.204   6.675   0.934 -0.1359  0.7894  0.3499
 1197SOL    HW2 4491   2.049   6.704   0.890 -0.2940 -1.6660 -0.8606
 1198SOL     OW 4492   0.423   0.683   1.152  0.3153 -0.3784 -0.0407
 1198SOL    HW1 4493   0.501   0.735   1.117  0.4441  0.7571  1.8103
 1198SOL    HW2 4494   0.455   0.620   1.223 -0.2765 -0.9482 -0.2653
 1199SOL     OW 4495   5.123   4.553   2.516 -0.5016 -0.2564 -0.3336
 1199SOL    HW1 4496   5.136   4.534   2.613 -2.7742 -0.1299  0.0414
 1199SOL    HW2 4497   5.091   4.470   2.469  0.4515 -0.2827 -0.9686
 1200SOL     OW 4498   4.375   3.090   1.741  0.5863  0.3056 -0.0221
 1200SOL    HW1 4499   4.406   3.114   1.649  0.2801 -0.3010 -0.2878
 1200SOL    HW2 4500   4.451   3.050   1.793  0.4773 -0.3771 -0.3827
 1201SOL     OW 4501   0.793   2.238   5.015  0.1198  0.3312 -0.1079
 1201SOL    HW1 4502   0.722   2.302   5.043  0.8098  0.4126  1.5445
 1201SOL    HW2 4503   0.882   2.268   5.050  0.8496 -0.2324 -1.4006
 1202SOL     OW 4504   1.084   6.250   4.870 -0.0120  0.2026 -0.3826
 1202SOL    HW1 4505   1.095   6.337   4.917  2.9929  0.7219 -1.7564
 1202SOL    HW2 4506   1.170   6.199   4.874 -1.2994 -2.1488 -0.7359
 1203SOL     OW 4507   5.306   4.852   4.598  0.1039  0.0521  0.1164
 1203SOL    HW1 4508   5.286   4.817   4.507  3.5057 -1.6314 -0.1690
 1203SOL    HW2 4509   5.254   4.801   4.666  0.5497 -1.5311 -0.6885
 1204SOL     OW 4510   1.174   0.306   3.792  0.3386  0.3243 -0.1444
 1204SOL    HW1 4511   1.203   0.295   3.887 -0.8622  0.4651  0.2624
 1204SOL    HW2 4512   1.132   0.221   3.760 -0.8286  0.8032  0.0434
 1205SOL     OW 4513   6.569   3.692   4.334  0.1409 -0.2664  0.0726
 1205SOL    HW1 4514   6.494   3.642   4.290  0.0603 -0.1589  0.0868
 1205SOL    HW2 4515   6.621   3.630   4.392  0.6767 -0.5725 -0.7164
 1206SOL     OW 4516   3.663   2.919   3.822 -0.1925 -0.1434  0.7777
 1206SOL    HW1 4517   3.720   2.984   3.773 -1.4080  1.1389  1.0004
 1206SOL    HW2 4518   3.702   2.827   3.814  0.8037  0.3796 -0.7092
 1207SOL     OW 4519   0.994   6.916   5.096  0.4549 -0.1399 -0.1680
 1207SOL    HW1 4520   1.061   6.942   5.166  0.0454  1.1066 -0.2209
 1207SOL    HW2 4521   1.024   6.951   5.007 -0.3736  0.6212 -0.1539
 1208SOL     OW 4522   3.204   1.981   0.310  0.1744 -0.0308 -0.1448
 1208SOL    HW1 4523   3.143   1.967   0.388 -0.9872  1.6365 -0.6849
 1208SOL    HW2 4524   3.292   2.017   0.342  0.1214 -0.4542  0.4871
 1209SOL     OW 4525   3.606   6.023   4.955 -0.2733 -0.0437 -0.2184
 1209SOL    HW1 4526   3.528   6.004   5.015 -0.0392  1.6655  0.6870
 1209SOL    HW2 4527   3.690   6.026   5.010 -0.1795  2.5395 -0.3819
 1210SOL     OW 4528   2.297   0.384   3.499 -0.3144  0.0895 -0.5985
 1210SOL    HW1 4529   2.242   0.334   3.431 -0.7178  0.7560 -0.7691
 1210SOL    HW2 4530   2.361   0.320   3.542 -2.0613 -0.9979  0.5142
 1211SOL     OW 4531   1.632   2.879   1.538  0.4557  0.1483 -0.3579
 1211SOL    HW1 4532   1.707   2.892   1.473 -1.0205 -0.6480 -2.3151
 1211SOL    HW2 4533   1.648   2.797   1.593  1.3015  0.3396 -0.3074
 1212SOL     OW 4534   2.441   0.760   1.109 -0.5486 -0.8113 -0.1702
 1212SOL    HW1 4535   2.503   0.753   1.188 -2.4551 -0.5751  1.4074
 1212SOL    HW2 4536   2.463   0.843   1.058 -0.1044 -0.2606  0.8727
 1213SOL     OW 4537   4.783   3.939   2.788 -0.5167 -0.3032 -0.6974
 1213SOL    HW1 4538   4.733   3.895   2.862 -0.6317 -1.4850 -1.4389
 1213SOL    HW2 4539   4.877   3.957   2.816 -0.8580  0.2658  0.0937
 1214SOL     OW 4540   6.962   2.418   4.139  0.1186 -0.4820  0.5817
 1214SOL    HW1 4541   6.903   2.497   4.122  0.8337 -0.3617 -1.5374
 1214SOL    HW2 4542   6.977   2.368   4.054  0.6315 -2.2652  1.6605
 1215SOL     OW 4543   0.805   3.862   3.027 -0.6280 -0.0850  0.0401
 1215SOL    HW1 4544   0.838   3.921   3.101  1.6732 -0.8024 -0.3401
 1215SOL    HW2 4545   0.837   3.768   3.043  0.9099 -0.0609 -2.3581
 1216SOL     OW 4546   3.573   0.268   0.483 -0.3245  0.5894  0.3467
 1216SOL    HW1 4547   3.511   0.304   0.413  0.3156  2.2609  0.5919
 1216SOL    HW2 4548   3.600   0.175   0.459 -0.0134  1.1618 -1.7031
 1217SOL     OW 4549   2.559   3.346   6.320 -0.1943  0.1746  0.5614
 1217SOL    HW1 4550   2.600   3.255   6.315 -0.2738  0.1916 -2.2991
 1217SOL    HW2 4551   2.630   3.415   6.305 -0.6563  0.3705 -0.8795
 1218SOL     OW 4552   1.340   5.978   3.225  0.1709  0.0092  0.1446
 1218SOL    HW1 4553   1.261   6.015   3.273  0.1835 -0.4625  0.5353
 1218SOL    HW2 4554   1.389   5.915   3.285  1.2669  0.8468  0.1770
 1219SOL     OW 4555   2.236   4.140   2.075 -0.1927 -0.4083 -0.0489
 1219SOL    HW1 4556   2.330   4.164   2.052 -0.1634 -0.7562 -0.2999
 1219SOL    HW2 4557   2.237   4.067   2.144 -0.2721 -1.2188 -0.8939
 1220SOL     OW 4558   0.500   5.033   1.883  0.6355  0.1027  0.2124
 1220SOL    HW1 4559   0.468   5.047   1.977 -0.3006  0.6126 -0.1704
 1220SOL    HW2 4560   0.492   4.936   1.860 -0.0962  0.1319  0.3251
 1221SOL     OW 4561   3.940   3.325   6.796 -0.0795  0.0789  0.0496
 1221SOL    HW1 4562   3.927   3.261   6.720  0.9416 -0.2235  0.1108
 1221SOL    HW2 4563   3.969   3.275   6.877 -0.2452  0.5084  0.3766
 1222SOL     OW 4564   0.209   1.530   6.285 -0.6352 -0.3825 -0.0552
 1222SOL    HW1 4565   0.225   1.481   6.370 -0.9798  0.1781  0.3392
 1222SOL    HW2 4566   0.295   1.570   6.252 -0.5499 -0.3894  0.1620
 1223SOL     OW 4567   3.331   5.832   0.504 -0.6242 -0.1320  0.4547
 1223SOL    HW1 4568   3.411   5.852   0.448 -1.8620  1.1690 -0.9417
 1223SOL    HW2 4569   3.314   5.908   0.566 -0.6371 -0.5054  0.9105
 1224SOL     OW 4570   3.800   6.957   3.063 -0.3524  0.1133 -0.0149
 1224SOL    HW1 4571   3.893   6.965   3.027  0.0817 -1.3992  0.6665
 1224SOL    HW2 4572   3.798   6.985   3.158 -0.9189  1.4923 -0.4105
 1225SOL     OW 4573   4.854   3.291   0.246 -0.4192 -0.3609  0.1059
 1225SOL    HW1 4574   4.855   3.195   0.273 -0.8330 -0.2816  0.4230
 1225SOL    HW2 4575   4.767   3.332   0.272 -0.5618 -0.0985 -0.7496
 1226SOL     OW 4576   1.113   5.583   0.246  0.5972 -0.2648 -0.1156
 1226SOL    HW1 4577   1.139   5.486   0.248 -2.1863 -1.0737  0.4315
 1226SOL    HW2 4578   1.184   5.637   0.292  2.2177 -2.0030 -0.4479
 1227SOL     OW 4579   1.299   4.979   4.097  0.0875  0.4497  0.0033
 1227SOL    HW1 4580   1.348   4.991   4.010  0.6419 -0.3396  0.1929
 1227SOL    HW2 4581   1.235   4.903   4.089 -0.2246  0.6928  0.1434
 1228SOL     OW 4582   4.677   1.566   1.300 -0.3683  0.0919 -0.0697
 1228SOL    HW1 4583   4.763   1.612   1.324 -0.5765 -0.0505  1.0148
 1228SOL    HW2 4584   4.698   1.472   1.271 -0.2598 -0.6294  2.1290
 1229SOL     OW 4585   4.379   4.960   6.844  0.0095 -0.2153 -0.0753
 1229SOL    HW1 4586   4.456   5.024   6.850 -1.8653  2.2279 -0.3827
 1229SOL    HW2 4587   4.409   4.869   6.874  2.6850  0.8702  0.8978
 1230SOL     OW 4588   4.502   0.716   3.290  0.0568  0.0771 -0.4466
 1230SOL    HW1 4589   4.601   0.715   3.277  0.1354 -0.3144  0.1383
 1230SOL    HW2 4590   4.478   0.660   3.370 -0.6205  0.2879 -0.4938
 1231SOL     OW 4591   0.429   3.644   4.563 -0.6266  0.6376 -0.0020
 1231SOL    HW1 4592   0.456   3.625   4.469  2.2573  1.0129  0.6416
 1231SOL    HW2 4593   0.393   3.560   4.605 -0.0617 -0.0625 -0.8668
 1232SOL     OW 4594   2.857   1.427   1.685 -0.1659 -0.1765  0.6216
 1232SOL    HW1 4595   2.871   1.385   1.596  2.5221 -0.0710  0.9009
 1232SOL    HW2 4596   2.772   1.479   1.685  1.1375  2.2960 -2.8918
 1233SOL     OW 4597   0.067   2.711   5.623 -0.1819 -0.0976  0.1863
 1233SOL    HW1 4598   0.070   2.715   5.722 -0.9421 -0.3677  0.2321
 1233SOL    HW2 4599   0.158   2.728   5.585  0.3227 -1.0244  0.9609
 1234SOL     OW 4600   6.437   5.410   3.261  0.3036 -0.0766 -0.1399
 1234SOL    HW1 4601   6.519   5.443   3.309 -0.3303  2.0894 -0.4117
 1234SOL    HW2 4602   6.444   5.436   3.164 -1.7250  2.4365  0.2699
 1235SOL     OW 4603   6.548   5.519   2.682  0.1766  0.6601  0.0388
 1235SOL    HW1 4604   6.628   5.573   2.656 -0.3331  1.7548  0.6540
 1235SOL    HW2 4605   6.542   5.438   2.625  0.4668  1.7076 -1.5486
 1236SOL     OW 4606   6.313   0.940   0.220 -0.2147  0.5692  0.5553
 1236SOL    HW1 4607   6.308   0.863   0.156  1.0240  0.1109  0.9834
 1236SOL    HW2 4608   6.229   0.944   0.273 -0.9656  0.5199 -0.5959
 1237SOL     OW 4609   1.485   6.444   0.577  0.1231 -0.6147 -0.0714
 1237SOL    HW1 4610   1.509   6.423   0.482 -1.2835  1.6875 -1.0150
 1237SOL    HW2 4611   1.569   6.449   0.632  1.1451 -0.2621 -1.5816
 1238SOL     OW 4612   2.613   2.129   1.413 -0.4619  0.0515  0.7935
 1238SOL    HW1 4613   2.585   2.122   1.509 -2.5036 -1.2300  0.1739
 1238SOL    HW2 4614   2.568   2.057   1.360 -0.3083  1.4423 -1.3298
 1239SOL     OW 4615   6.608   6.735   6.038 -0.1179  0.0411 -0.6922
 1239SOL    HW1 4616   6.549   6.779   6.105 -2.2704  0.8270 -2.9347
 1239SOL    HW2 4617   6.600   6.635   6.046 -2.1731  0.1082 -1.1598
 1240SOL     OW 4618   3.178   5.456   1.423 -0.1601 -0.3183 -0.0622
 1240SOL    HW1 4619   3.242   5.530   1.398 -1.3826  0.4420 -1.1082
 1240SOL    HW2 4620   3.229   5.372   1.440  1.3124  0.8445  1.5697
 1241SOL     OW 4621   1.597   1.777   3.987  0.1418  0.4082 -0.2138
 1241SOL    HW1 4622   1.596   1.870   4.025 -1.2731  0.1546  0.4556
 1241SOL    HW2 4623   1.523   1.724   4.029 -0.5568 -0.3356 -2.2786
 1242SOL     OW 4624   1.833   2.195   5.540 -0.6620 -0.1578 -0.4469
 1242SOL    HW1 4625   1.811   2.101   5.566 -1.2301  0.5959  2.0069
 1242SOL    HW2 4626   1.928   2.215   5.564 -0.3395 -0.2621 -1.5632
 1243SOL     OW 4627   3.828   5.465   0.537 -0.3803 -0.3024 -0.6540
 1243SOL    HW1 4628   3.816   5.564   0.535  0.8321 -0.1293 -0.3089
 1243SOL    HW2 4629   3.790   5.428   0.621  1.1255  0.1798  0.2722
 1244SOL     OW 4630   0.404   0.209   3.497 -0.5709 -0.5933  0.3105
 1244SOL    HW1 4631   0.350   0.211   3.412 -1.6473 -0.6715  0.9763
 1244SOL    HW2 4632   0.490   0.259   3.483 -1.0867  0.0685 -0.5914
 1245SOL     OW 4633   3.897   2.990   4.915  0.6271 -0.3968 -0.0781
 1245SOL    HW1 4634   3.969   3.055   4.894 -1.0833  1.4352 -0.6213
 1245SOL    HW2 4635   3.842   2.974   4.833 -0.8257 -0.0669  0.7958
 1246SOL     OW 4636   0.054   0.220   2.059  0.3370  0.0699  0.5982
 1246SOL    HW1 4637   0.097   0.172   2.136 -1.3050 -1.4457  0.6401
 1246SOL    HW2 4638  -0.035   0.255   2.087  0.0854  0.2540 -0.3894
 1247SOL     OW 4639   0.522   6.466   6.228 -0.3019  0.3408  0.4241
 1247SOL    HW1 4640   0.469   6.417   6.298  0.4842  0.9522  1.4908
 1247SOL    HW2 4641   0.503   6.427   6.138 -0.8725 -0.8949  1.0515
 1248SOL     OW 4642   1.846   1.416   6.189  0.0461 -0.0684 -0.1397
 1248SOL    HW1 4643   1.880   1.346   6.252 -0.0539  0.0219  0.0158
 1248SOL    HW2 4644   1.869   1.390   6.095 -0.7421 -0.7472 -0.1622
 1249SOL     OW 4645   5.357   2.421   4.147 -0.2268  0.5118  0.0143
 1249SOL    HW1 4646   5.349   2.342   4.087 -1.5560  2.4576 -2.5977
 1249SOL    HW2 4647   5.293   2.411   4.223  0.5913 -1.4718  0.5047
 1250SOL     OW 4648   6.044   2.656   4.385  0.0585 -0.5171 -0.1912
 1250SOL    HW1 4649   6.041   2.611   4.296  0.8626  2.4283 -1.8660
 1250SOL    HW2 4650   6.133   2.701   4.397 -1.2591  2.1522  0.4307
 1251SOL     OW 4651   3.733   1.069   6.367  0.5457 -0.0953 -0.7103
 1251SOL    HW1 4652   3.663   1.139   6.379 -0.7752 -1.6557  1.8573
 1251SOL    HW2 4653   3.824   1.108   6.382 -0.0003  1.4289 -1.3096
 1252SOL     OW 4654   3.974   3.101   0.644 -0.8186  0.2144 -0.4487
 1252SOL    HW1 4655   4.008   3.139   0.731 -1.4387 -1.0211  0.3650
 1252SOL    HW2 4656   4.051   3.082   0.584 -0.0711 -1.7839  1.0451
 1253SOL     OW 4657   4.616   2.069   1.769 -0.0370 -0.1809 -0.6388
 1253SOL    HW1 4658   4.651   2.154   1.811  1.0119 -0.5182 -0.8067
 1253SOL    HW2 4659   4.561   2.092   1.689 -0.4986  0.3782 -0.1758
 1254SOL     OW 4660   4.652   1.912   5.230  0.0559  0.5044  0.5447
 1254SOL    HW1 4661   4.732   1.909   5.170 -0.4688  1.1021 -0.1961
 1254SOL    HW2 4662   4.608   1.822   5.233  0.0605  0.4853  0.0068
 1255SOL     OW 4663   5.205   0.790   1.937 -0.1096 -0.2699  0.0719
 1255SOL    HW1 4664   5.134   0.838   1.888  0.7395 -0.0354 -0.9663
 1255SOL    HW2 4665   5.189   0.691   1.931  0.6379 -0.3138 -1.7655
 1256SOL     OW 4666   5.062   2.748   4.583  0.6366  0.3934  0.2429
 1256SOL    HW1 4667   5.031   2.832   4.630 -2.4823 -0.5721  0.1693
 1256SOL    HW2 4668   5.049   2.759   4.485 -0.9366 -0.5140  0.3123
 1257SOL     OW 4669   6.509   2.106   5.398  0.1352 -0.0140 -0.3111
 1257SOL    HW1 4670   6.540   2.125   5.491 -0.6396  0.4302 -0.1305
 1257SOL    HW2 4671   6.416   2.069   5.401 -1.2456  3.0592 -1.0152
 1258SOL     OW 4672   6.451   3.893   2.948  0.4642 -0.4720  0.2982
 1258SOL    HW1 4673   6.551   3.885   2.948  0.5697  0.2178 -1.7596
 1258SOL    HW2 4674   6.425   3.988   2.965  0.1235 -0.6868  1.0359
 1259SOL     OW 4675   5.029   3.872   5.232  0.1532  0.0293  0.6106
 1259SOL    HW1 4676   5.095   3.818   5.179 -0.0093  0.3809  0.0359
 1259SOL    HW2 4677   4.980   3.812   5.295 -1.2029 -0.8432 -1.1771
 1260SOL     OW 4678   2.178   1.265   5.388 -0.6175 -0.1195 -0.1235
 1260SOL    HW1 4679   2.176   1.356   5.346 -0.9397  0.5599  1.2768
 1260SOL    HW2 4680   2.174   1.275   5.488 -1.5024 -1.6989  0.0305
 1261SOL     OW 4681   0.012   3.742   1.132  0.2916  0.1614  0.0072
 1261SOL    HW1 4682   0.099   3.746   1.083 -0.1607  1.3258 -0.7471
 1261SOL    HW2 4683   0.023   3.690   1.217  1.9615  1.0961  0.3979
 1262SOL     OW 4684   5.569   5.247   1.313  0.0236  0.2074 -0.2991
 1262SOL    HW1 4685   5.577   5.148   1.301 -1.7692  0.0050 -0.0853
 1262SOL    HW2 4686   5.648   5.280   1.365  1.3151 -0.8844 -1.4960
 1263SOL     OW 4687   1.664   2.361   4.282 -0.3423 -0.4419 -0.3623
 1263SOL    HW1 4688   1.697   2.441   4.331  0.2442 -0.7531 -0.2433
 1263SOL    HW2 4689   1.741   2.313   4.240 -0.5179 -1.7056  0.7102
 1264SOL     OW 4690   0.596   3.962   6.125  0.2870  0.1147  0.4606
 1264SOL    HW1 4691   0.581   4.058   6.100  1.7590  0.2107 -0.1197
 1264SOL    HW2 4692   0.531   3.904   6.077  0.4694  0.6785 -0.4780
 1265SOL     OW 4693   5.424   6.437   0.371  0.7146  0.8860 -0.1745
 1265SOL    HW1 4694   5.414   6.519   0.314  2.0257  1.7796  0.8172
 1265SOL    HW2 4695   5.378   6.450   0.458 -1.9310 -0.7733 -1.2119
 1266SOL     OW 4696   3.325   2.345   0.170 -0.4086  0.1245 -0.1391
 1266SOL    HW1 4697   3.236   2.356   0.215 -0.1129  0.9000  0.2755
 1266SOL    HW2 4698   3.311   2.336   0.072 -1.0463 -1.3504  0.0460
 1267SOL     OW 4699   3.223   1.007   4.074  0.2182 -0.1447  0.4395
 1267SOL    HW1 4700   3.294   1.068   4.038 -0.7239  0.1271 -1.0700
 1267SOL    HW2 4701   3.145   1.061   4.105 -0.4797 -0.5423 -0.5764
 1268SOL     OW 4702   4.851   2.942   3.775  0.0626  0.3051  0.0311
 1268SOL    HW1 4703   4.837   2.953   3.873  0.8628  0.4848  0.1245
 1268SOL    HW2 4704   4.906   3.018   3.740  2.7054 -1.4897  0.0619
 1269SOL     OW 4705   5.464   0.908   4.449  0.4960  0.1838  0.7340
 1269SOL    HW1 4706   5.429   0.887   4.540 -0.6569  2.8745  1.0116
 1269SOL    HW2 4707   5.430   0.840   4.384 -1.4683  0.1016  1.7819
 1270SOL     OW 4708   6.916   5.410   1.550 -0.3611  0.7040  0.2558
 1270SOL    HW1 4709   6.850   5.399   1.476  0.4341  3.4254 -0.9830
 1270SOL    HW2 4710   6.917   5.506   1.579  0.2249 -0.0547  3.0025
 1271SOL     OW 4711   1.968   0.227   1.643 -0.1294  0.2388  0.1520
 1271SOL    HW1 4712   1.877   0.250   1.676  0.2593  0.3461  1.2106
 1271SOL    HW2 4713   1.961   0.159   1.570 -1.2247  2.6744 -2.1432
 1272SOL     OW 4714   4.946   1.380   6.428  0.2541 -0.3060 -0.3386
 1272SOL    HW1 4715   4.947   1.363   6.526  1.0997  4.3636  0.6898
 1272SOL    HW2 4716   5.036   1.356   6.390  1.3539  1.4463  0.9586
 1273SOL     OW 4717   2.073   5.611   5.928  0.1563  0.9521 -0.2998
 1273SOL    HW1 4718   1.995   5.549   5.934  0.2963  0.7158 -0.9050
 1273SOL    HW2 4719   2.098   5.641   6.020  2.6378 -3.0492  0.5692
 1274SOL     OW 4720   6.794   3.440   5.595  0.2118  0.0109 -0.0504
 1274SOL    HW1 4721   6.752   3.362   5.642 -0.4813  1.7025  2.3531
 1274SOL    HW2 4722   6.892   3.443   5.614 -0.0574  0.6559  1.3669
 1275SOL     OW 4723   2.116   1.427   3.065  0.1937 -0.3685 -0.0528
 1275SOL    HW1 4724   2.155   1.342   3.100  1.8769  0.1277 -0.6555
 1275SOL    HW2 4725   2.058   1.407   2.986 -2.5326 -1.3422  2.0481
 1276SOL     OW 4726   6.787   4.796   2.476  0.1495  0.1410  0.3826
 1276SOL    HW1 4727   6.854   4.858   2.435 -0.2634  0.1471 -0.2783
 1276SOL    HW2 4728   6.821   4.766   2.566  0.3593  1.3069  0.7110
 1277SOL     OW 4729   4.265   5.036   6.293  0.0816  0.3188  0.3485
 1277SOL    HW1 4730   4.267   4.995   6.385  1.1435  0.1345  0.2564
 1277SOL    HW2 4731   4.350   5.014   6.245  0.8888  2.9253  0.4169
 1278SOL     OW 4732   6.220   0.912   3.815 -0.3020  0.0471  0.7399
 1278SOL    HW1 4733   6.287   0.879   3.881  2.1447  2.4940 -0.3038
 1278SOL    HW2 4734   6.166   0.836   3.780  0.8523 -1.8039  2.7956
 1279SOL     OW 4735   3.653   2.911   6.732 -0.0305 -0.4328  0.2616
 1279SOL    HW1 4736   3.723   2.967   6.688 -1.1185  0.1474 -0.7606
 1279SOL    HW2 4737   3.683   2.816   6.734  0.7434 -0.2063 -0.2422
 1280SOL     OW 4738   3.198   1.486   3.896  0.0414 -0.0535  1.0161
 1280SOL    HW1 4739   3.260   1.470   3.820 -0.8136 -0.3300  0.3620
 1280SOL    HW2 4740   3.123   1.419   3.893 -0.3448  0.3304  1.7302
 1281SOL     OW 4741   1.565   5.012   4.284 -0.5761  0.1418  0.0722
 1281SOL    HW1 4742   1.478   4.975   4.252 -0.9868 -0.3083  1.6301
 1281SOL    HW2 4743   1.600   5.077   4.217 -1.4919 -0.5838 -1.1588
 1282SOL     OW 4744   2.613   0.707   2.613  0.6157 -0.1145  0.0791
 1282SOL    HW1 4745   2.669   0.657   2.548 -1.9864 -1.2877 -1.4178
 1282SOL    HW2 4746   2.561   0.642   2.669 -1.2260  0.8494 -0.4349
 1283SOL     OW 4747   1.116   5.288   6.596  0.1754 -0.2888  0.6773
 1283SOL    HW1 4748   1.138   5.192   6.582 -0.7125 -0.3732 -0.2819
 1283SOL    HW2 4749   1.056   5.320   6.522  2.8993  1.8420 -0.7822
 1284SOL     OW 4750   4.705   1.438   6.980 -0.4313 -0.0445 -0.3921
 1284SOL    HW1 4751   4.769   1.483   7.043  0.3635 -0.6614 -0.7540
 1284SOL    HW2 4752   4.742   1.350   6.952 -2.4254 -1.4489  1.1158
 1285SOL     OW 4753   3.230   3.496   5.482 -0.1805  0.9910  0.1535
 1285SOL    HW1 4754   3.181   3.568   5.530  0.1942  2.7267 -1.9111
 1285SOL    HW2 4755   3.169   3.451   5.418  0.2585  1.3640 -0.5344
 1286SOL     OW 4756   4.862   0.276   0.675  0.3230  0.1682  0.0026
 1286SOL    HW1 4757   4.928   0.330   0.728 -1.6478  2.1093  0.6104
 1286SOL    HW2 4758   4.868   0.301   0.579  1.1900 -0.4717 -0.1232
 1287SOL     OW 4759   6.064   4.780   6.603  0.5952 -0.0961 -0.3888
 1287SOL    HW1 4760   6.080   4.751   6.509 -1.7235 -1.7735 -0.3714
 1287SOL    HW2 4761   5.976   4.827   6.609 -0.2659 -1.7769  1.1883
 1288SOL     OW 4762   6.566   5.008   5.132 -0.8676  0.6056 -0.4585
 1288SOL    HW1 4763   6.585   5.014   5.034 -1.6088  1.0983 -0.5859
 1288SOL    HW2 4764   6.602   5.090   5.178  1.9210 -0.8530  0.1429
 1289SOL     OW 4765   0.906   6.008   0.839 -0.3874  0.6224 -0.2630
 1289SOL    HW1 4766   0.813   6.020   0.874 -0.5625  0.0270 -0.5284
 1289SOL    HW2 4767   0.968   5.989   0.915 -0.9799 -1.9857 -0.3438
 1290SOL     OW 4768   2.051   5.880   3.703 -0.1074 -0.7610 -0.2419
 1290SOL    HW1 4769   2.117   5.955   3.695 -0.4260 -0.4505  0.0090
 1290SOL    HW2 4770   2.071   5.811   3.634  0.0878 -0.3665 -0.5837
 1291SOL     OW 4771   3.160   4.925   3.149 -0.1616 -0.2224 -0.0037
 1291SOL    HW1 4772   3.093   4.938   3.076  0.8434 -0.5262 -1.0155
 1291SOL    HW2 4773   3.252   4.941   3.113  0.3873 -0.8024  1.0882
 1292SOL     OW 4774   6.440   6.557   1.930 -0.8173  0.2220  0.4768
 1292SOL    HW1 4775   6.373   6.619   1.888  1.6839  1.2642 -2.3951
 1292SOL    HW2 4776   6.492   6.607   2.000 -0.7239  0.5119  0.2042
 1293SOL     OW 4777   3.399   1.523   0.680 -0.0433  0.0115 -0.1499
 1293SOL    HW1 4778   3.455   1.450   0.641  1.2652  0.2961  1.0907
 1293SOL    HW2 4779   3.314   1.532   0.628  1.6770  0.5810 -3.0975
 1294SOL     OW 4780   1.621   5.291   0.055 -0.3865 -0.2512  0.7701
 1294SOL    HW1 4781   1.657   5.350   0.128  1.9765 -1.8691  1.0597
 1294SOL    HW2 4782   1.581   5.209   0.096 -0.2014 -0.5782  0.3079
 1295SOL     OW 4783   0.370   5.473   0.417 -0.4538  0.3468 -0.9572
 1295SOL    HW1 4784   0.425   5.545   0.374 -1.4018  1.2263 -0.7310
 1295SOL    HW2 4785   0.359   5.397   0.354  0.5184  0.4207 -1.2220
 1296SOL     OW 4786   3.237   0.580   5.462  0.6439  0.3982 -0.2130
 1296SOL    HW1 4787   3.223   0.515   5.536  0.9331 -0.4137 -0.8585
 1296SOL    HW2 4788   3.237   0.532   5.375 -1.9774  1.6089 -0.9739
 1297SOL     OW 4789   5.897   0.059   5.879 -0.5556 -0.1498  0.9349
 1297SOL    HW1 4790   5.836   0.120   5.828  0.1339 -1.7427 -2.0737
 1297SOL    HW2 4791   5.991   0.092   5.871 -0.1195 -1.6248 -1.0661
 1298SOL     OW 4792   5.399   1.045   3.914 -0.3797  0.1124 -0.1315
 1298SOL    HW1 4793   5.303   1.019   3.923 -0.5156  0.6349 -0.0600
 1298SOL    HW2 4794   5.411   1.141   3.938  0.5391 -0.5005  2.1078
 1299SOL     OW 4795   0.912   4.793   4.698 -0.5355  0.2217  0.0417
 1299SOL    HW1 4796   0.946   4.702   4.724 -3.4217 -1.0784 -0.3118
 1299SOL    HW2 4797   0.892   4.793   4.600  0.3324  1.6013 -0.1540
 1300SOL     OW 4798   1.395   6.525   0.175  0.0475 -0.1153  0.2797
 1300SOL    HW1 4799   1.301   6.501   0.149  0.4175 -1.9237  0.4831
 1300SOL    HW2 4800   1.404   6.624   0.178 -1.4057  0.1194 -1.3871
 1301SOL     OW 4801   0.178   1.527   0.040  0.2544  0.0945  0.0873
 1301SOL    HW1 4802   0.237   1.453   0.073  0.8369  0.5526  0.1060
 1301SOL    HW2 4803   0.212   1.560  -0.048 -0.5477 -0.2733 -0.3709
 1302SOL     OW 4804   5.966   1.383   4.679  0.0758 -0.5534 -0.0996
 1302SOL    HW1 4805   5.910   1.413   4.756  1.1299 -0.0123  0.4737
 1302SOL    HW2 4806   5.974   1.457   4.612 -2.2984 -1.5829 -1.6428
 1303SOL     OW 4807   3.860   7.002   0.753 -0.2783  0.3824 -0.1735
 1303SOL    HW1 4808   3.877   6.968   0.846 -0.1223 -0.8819 -0.6409
 1303SOL    HW2 4809   3.846   7.100   0.755 -0.9257  0.2751  1.2740
 1304SOL     OW 4810   6.708   0.331   5.799 -0.6860 -0.0873  0.0962
 1304SOL    HW1 4811   6.766   0.250   5.799 -0.0898  0.2877 -1.9332
 1304SOL    HW2 4812   6.620   0.309   5.841 -0.0045 -1.3487  0.9338
 1305SOL     OW 4813   3.594   2.859   0.373 -0.1671 -0.1962 -0.6454
 1305SOL    HW1 4814   3.637   2.937   0.328 -1.4381  0.1322 -1.3369
 1305SOL    HW2 4815   3.543   2.805   0.305 -0.1980 -1.0111  0.0072
 1306SOL     OW 4816   2.618   5.485   3.671 -0.5515  0.2497  0.1200
 1306SOL    HW1 4817   2.678   5.542   3.727  0.4128 -0.8621  0.2493
 1306SOL    HW2 4818   2.672   5.414   3.626 -1.7338 -0.6226  0.0407
 1307SOL     OW 4819   2.530   4.796   3.492 -0.0454  0.2560 -0.0078
 1307SOL    HW1 4820   2.535   4.701   3.522  0.4234  0.6933  1.3981
 1307SOL    HW2 4821   2.623   4.831   3.477 -0.2587 -0.1409 -2.8011
 1308SOL     OW 4822   1.811   3.989   5.725  0.1588  0.0130  0.0735
 1308SOL    HW1 4823   1.741   4.017   5.660 -0.4403  2.2590  1.5862
 1308SOL    HW2 4824   1.842   3.896   5.703 -3.0752 -0.9801 -0.7969
 1309SOL     OW 4825   6.849   4.274   6.677  0.5460  0.0543  1.0500
 1309SOL    HW1 4826   6.932   4.224   6.656 -0.4633 -0.6362 -1.6359
 1309SOL    HW2 4827   6.870   4.350   6.738  3.0473 -0.2664  0.6653
 1310SOL     OW 4828   0.808   3.297   3.996 -0.3758 -0.1940 -0.4455
 1310SOL    HW1 4829   0.877   3.369   4.004 -0.5691  0.1477 -1.6122
 1310SOL    HW2 4830   0.842   3.225   3.936  0.1026 -1.4695  1.2829
 1311SOL     OW 4831   0.809   4.963   6.381 -0.0909  0.0947 -0.5774
 1311SOL    HW1 4832   0.810   4.883   6.440  0.4436  0.3364 -0.2522
 1311SOL    HW2 4833   0.806   4.934   6.285 -1.5323 -0.2883 -0.4343
 1312SOL     OW 4834   2.387   2.746   5.907  0.0312 -0.4222 -0.0971
 1312SOL    HW1 4835   2.468   2.744   5.848 -0.2648 -1.0708 -0.5024
 1312SOL    HW2 4836   2.387   2.829   5.961  1.1069 -0.5339  0.1011
 1313SOL     OW 4837   1.302   5.270   5.950  0.0373  0.4051  0.1306
 1313SOL    HW1 4838   1.336   5.177   5.936 -0.8245 -0.0417  0.8276
 1313SOL    HW2 4839   1.206   5.266   5.977  0.1388  1.4722  0.7087
 1314SOL     OW 4840   3.556   1.528   3.046  0.2927  0.1094 -0.3046
 1314SOL    HW1 4841   3.555   1.451   3.110  1.0324 -0.3777 -0.8715
 1314SOL    HW2 4842   3.610   1.505   2.966 -0.2966  0.8622 -0.9421
 1315SOL     OW 4843   4.955   5.040   4.271 -0.3244 -0.6267  0.8016
 1315SOL    HW1 4844   4.882   5.091   4.225 -1.4826 -1.9831  1.0737
 1315SOL    HW2 4845   5.016   5.105   4.318 -0.4639  0.6198 -0.6665
 1316SOL     OW 4846   0.912   1.614   5.341 -0.0625  0.8668  0.0889
 1316SOL    HW1 4847   0.933   1.623   5.244  2.7041 -0.7261  0.4177
 1316SOL    HW2 4848   0.858   1.692   5.371 -0.7091  1.5708 -2.6186
 1317SOL     OW 4849   3.388   3.694   4.674  0.1284  0.0689  0.2280
 1317SOL    HW1 4850   3.366   3.778   4.626 -1.4129  0.1568  1.0328
 1317SOL    HW2 4851   3.349   3.616   4.626  0.2504 -0.0383  0.2999
 1318SOL     OW 4852   2.560   2.656   0.602 -0.1156  0.3939  0.0266
 1318SOL    HW1 4853   2.505   2.739   0.610  1.0889  1.2443 -0.1908
 1318SOL    HW2 4854   2.619   2.647   0.682 -1.7106 -1.4104  1.0723
 1319SOL     OW 4855   0.306   1.915   4.997 -0.5109  0.1712 -0.1519
 1319SOL    HW1 4856   0.251   1.933   5.079 -0.8699  0.6489 -0.4930
 1319SOL    HW2 4857   0.384   1.978   4.994  0.0757 -0.5059  0.3324
 1320SOL     OW 4858   3.214   2.829   5.643 -0.3026 -0.1396 -0.4441
 1320SOL    HW1 4859   3.162   2.865   5.566 -0.8502 -2.7002 -1.3705
 1320SOL    HW2 4860   3.189   2.734   5.658 -0.0884  0.2156  2.8449
 1321SOL     OW 4861   5.957   3.828   1.793  0.0602  0.0249  0.0111
 1321SOL    HW1 4862   5.932   3.753   1.855 -0.5381 -0.3546 -0.6704
 1321SOL    HW2 4863   5.983   3.790   1.704  2.9000  0.4173  0.5934
 1322SOL     OW 4864   1.876   3.005   0.749 -0.0857  0.9279  0.3149
 1322SOL    HW1 4865   1.863   3.096   0.712 -0.0197  0.8075 -0.0116
 1322SOL    HW2 4866   1.878   2.938   0.674 -1.0809  0.5429  0.6092
 1323SOL     OW 4867   5.607   0.444   0.684 -0.7839  0.4926  0.4534
 1323SOL    HW1 4868   5.648   0.419   0.597 -1.3042 -0.9569  0.5987
 1323SOL    HW2 4869   5.644   0.533   0.714  0.3799  0.3914 -0.5908
 1324SOL     OW 4870   0.958   2.301   5.843  0.0890  0.1783 -0.6146
 1324SOL    HW1 4871   0.942   2.301   5.942  0.3387 -0.5199 -0.5712
 1324SOL    HW2 4872   1.006   2.385   5.818 -1.2401  1.0438 -0.3641
 1325SOL     OW 4873   3.164   6.120   4.536 -0.3815  0.5329 -0.0623
 1325SOL    HW1 4874   3.074   6.114   4.494 -0.4784  1.2948  0.0060
 1325SOL    HW2 4875   3.154   6.151   4.630 -0.3015 -2.8439  1.1621
 1326SOL     OW 4876   4.583   2.205   4.898 -0.0930 -0.4060 -0.4425
 1326SOL    HW1 4877   4.494   2.251   4.891  0.1601  0.2951  0.6633
 1326SOL    HW2 4878   4.599   2.177   4.993  1.4985  0.8027 -0.3082
 1327SOL     OW 4879   4.993   5.407   3.234 -0.1020  0.1139 -0.1596
 1327SOL    HW1 4880   4.974   5.440   3.326  2.3558 -1.2446  0.9247
 1327SOL    HW2 4881   5.073   5.455   3.197 -1.1822  0.8006 -1.7250
 1328SOL     OW 4882   2.305   2.498   5.840  0.1795 -1.1927 -0.2219
 1328SOL    HW1 4883   2.311   2.591   5.877 -1.5453 -1.1917  0.1253
 1328SOL    HW2 4884   2.316   2.432   5.914 -3.3525 -1.1905  0.4763
 1329SOL     OW 4885   2.051   3.759   4.564 -0.1250  0.0437 -0.0249
 1329SOL    HW1 4886   2.109   3.797   4.636 -2.3336 -0.2250  2.0204
 1329SOL    HW2 4887   2.049   3.821   4.486 -1.2690  2.7186  2.0059
 1330SOL     OW 4888   6.658   3.050   1.955 -0.1512  0.0037 -0.0643
 1330SOL    HW1 4889   6.749   3.048   1.998  0.0361  0.5461 -0.4237
 1330SOL    HW2 4890   6.611   3.134   1.981 -0.3552 -0.0460 -0.2767
 1331SOL     OW 4891   2.954   2.076   1.346 -0.1242 -0.2912 -0.0303
 1331SOL    HW1 4892   2.955   2.171   1.376  0.4416  0.2881 -1.7520
 1331SOL    HW2 4893   2.974   2.016   1.424 -1.2872  0.9119  1.2474
 1332SOL     OW 4894   0.754   0.497   0.561 -0.0687  0.0479 -0.6393
 1332SOL    HW1 4895   0.851   0.484   0.541 -0.1798 -0.3560 -0.9496
 1332SOL    HW2 4896   0.732   0.594   0.562 -0.2117  0.1197 -3.4001
 1333SOL     OW 4897   3.877   3.323   2.646  0.1117  0.5316  0.1822
 1333SOL    HW1 4898   3.972   3.353   2.643  0.6015 -1.0171 -1.1168
 1333SOL    HW2 4899   3.873   3.224   2.656 -1.3229  0.4271 -0.9754
 1334SOL     OW 4900   6.038   6.236   2.602  0.1000 -0.3718  0.0591
 1334SOL    HW1 4901   6.111   6.305   2.597  0.0579 -0.3423 -0.1435
 1334SOL    HW2 4902   5.984   6.250   2.685  0.2697 -0.3381  0.1645
 1335SOL     OW 4903   0.560   1.106   4.541 -0.1434 -0.1056 -0.0922
 1335SOL    HW1 4904   0.601   1.183   4.590 -2.4975  0.9327  0.3967
 1335SOL    HW2 4905   0.566   1.024   4.599  2.1875 -0.3257 -0.5289
 1336SOL     OW 4906   1.829   5.437   5.908  0.2804  0.1698 -0.0424
 1336SOL    HW1 4907   1.744   5.488   5.916  1.1620  1.3832  2.3509
 1336SOL    HW2 4908   1.819   5.367   5.837 -3.5524 -1.4024  1.7902
 1337SOL     OW 4909   6.964   6.926   1.119  0.0237  0.5954  0.6267
 1337SOL    HW1 4910   6.922   7.007   1.077  1.4127  0.5210 -1.0083
 1337SOL    HW2 4911   6.990   6.946   1.213  0.9142  2.2841  0.0543
 1338SOL     OW 4912   6.914   4.311   5.721  0.6515  0.6897  0.1637
 1338SOL    HW1 4913   6.820   4.324   5.752  1.0944 -0.0951  1.9780
 1338SOL    HW2 4914   6.971   4.283   5.799  2.3595  1.0021 -0.9240
 1339SOL     OW 4915   0.553   0.982   0.421  0.2445 -0.5000 -0.1179
 1339SOL    HW1 4916   0.596   1.029   0.344 -1.3611  0.0941 -0.6855
 1339SOL    HW2 4917   0.474   1.034   0.452  0.2062 -1.3096  1.2161
 1340SOL     OW 4918   4.758   2.052   0.322  0.0511 -0.1528  0.7412
 1340SOL    HW1 4919   4.725   2.014   0.236  0.7045 -0.6526  0.7021
 1340SOL    HW2 4920   4.693   2.121   0.355 -0.8204 -0.8362  0.4876
 1341SOL     OW 4921   5.801   6.952   0.386 -0.2722 -0.2688 -0.1216
 1341SOL    HW1 4922   5.746   6.878   0.348 -0.7686  0.4130 -0.7602
 1341SOL    HW2 4923   5.808   7.027   0.320 -0.6701  0.7052  0.8857
 1342SOL     OW 4924   6.510   6.031   2.178  0.1220  0.0902 -0.2039
 1342SOL    HW1 4925   6.414   6.043   2.205 -0.8023 -2.2937 -2.0725
 1342SOL    HW2 4926   6.560   5.985   2.251 -0.5257  0.0398  0.2124
 1343SOL     OW 4927   3.324   5.543   2.221 -0.0670 -0.0836 -0.3065
 1343SOL    HW1 4928   3.241   5.490   2.238 -0.8064  1.2542  0.4187
 1343SOL    HW2 4929   3.336   5.556   2.123 -0.1671 -1.1163 -0.4627
 1344SOL     OW 4930   0.032   1.620   3.595 -0.1544 -0.4252 -0.2443
 1344SOL    HW1 4931  -0.046   1.565   3.627 -0.2556 -2.0074 -2.9709
 1344SOL    HW2 4932   0.117   1.568   3.607  0.0923 -0.0403 -0.2993
 1345SOL     OW 4933   2.192   5.591   6.606  0.0895 -0.5193 -0.0469
 1345SOL    HW1 4934   2.271   5.650   6.620 -0.4467  0.0781  0.6080
 1345SOL    HW2 4935   2.209   5.527   6.532  1.6022 -1.1353  0.7966
 1346SOL     OW 4936   1.717   3.770   4.613 -0.3732 -0.1012 -0.4510
 1346SOL    HW1 4937   1.773   3.690   4.635 -0.6176 -0.2551 -0.3814
 1346SOL    HW2 4938   1.740   3.803   4.521  1.7944  1.5089  0.5762
 1347SOL     OW 4939   1.437   6.599   5.570 -0.9561  0.0525  0.0552
 1347SOL    HW1 4940   1.516   6.615   5.630 -1.3025  0.2326  0.4692
 1347SOL    HW2 4941   1.359   6.652   5.603 -0.8498  1.0210 -1.1970
 1348SOL     OW 4942   1.909   5.351   3.917  0.0783  0.0948  0.6768
 1348SOL    HW1 4943   1.991   5.363   3.972  1.3704  0.1183 -1.1775
 1348SOL    HW2 4944   1.926   5.381   3.824 -1.4570 -1.6185 -0.2263
 1349SOL     OW 4945   4.443   5.295   3.770  0.2557  0.1442 -0.0962
 1349SOL    HW1 4946   4.488   5.260   3.687  0.3218 -1.2262  0.4921
 1349SOL    HW2 4947   4.345   5.275   3.766 -0.1155  1.9437 -0.7687
 1350SOL     OW 4948   5.518   4.677   7.001  0.7504  0.5713 -0.1205
 1350SOL    HW1 4949   5.436   4.695   6.947  0.8315  2.4939  0.3117
 1350SOL    HW2 4950   5.599   4.700   6.946  0.9945 -0.7240 -0.3286
 1351SOL     OW 4951   7.020   4.513   4.802  0.0164  0.4915  0.7114
 1351SOL    HW1 4952   7.005   4.448   4.876 -2.0210  0.1534  0.0649
 1351SOL    HW2 4953   6.966   4.596   4.819 -0.8225  0.2445 -0.5453
 1352SOL     OW 4954   6.763   6.674   3.583 -0.2402  0.6013 -0.3748
 1352SOL    HW1 4955   6.736   6.723   3.666  1.7906  0.0311  0.7043
 1352SOL    HW2 4956   6.861   6.688   3.566 -0.6129  0.7810 -2.7669
 1353SOL     OW 4957   6.520   0.664   5.927 -0.5584 -0.1639  0.1046
 1353SOL    HW1 4958   6.445   0.717   5.889 -1.3425  0.3371  2.2770
 1353SOL    HW2 4959   6.514   0.661   6.026  1.8091 -0.8603  0.3095
 1354SOL     OW 4960   4.466   4.863   1.141  0.0689  0.0737  0.2312
 1354SOL    HW1 4961   4.401   4.804   1.095  1.9015 -1.9977  0.1659
 1354SOL    HW2 4962   4.445   4.865   1.239  0.2450 -1.0726  0.3040
 1355SOL     OW 4963   3.623   4.016   2.414  0.1688  0.1679 -0.5429
 1355SOL    HW1 4964   3.632   3.935   2.472 -0.8854  0.7462  0.4819
 1355SOL    HW2 4965   3.534   4.058   2.430  0.5447  1.3189 -1.3419
 1356SOL     OW 4966   2.987   3.662   6.183 -0.0161  0.3788  0.5811
 1356SOL    HW1 4967   2.962   3.695   6.091  0.2205 -2.0529 -0.4426
 1356SOL    HW2 4968   3.029   3.736   6.235 -0.1454  1.8336 -1.2679
 1357SOL     OW 4969   6.358   3.105   3.534 -0.2476 -0.2747  0.7057
 1357SOL    HW1 4970   6.363   3.205   3.543 -0.3072 -0.3368  1.4665
 1357SOL    HW2 4971   6.267   3.079   3.501 -0.3523 -0.1018  0.8592
 1358SOL     OW 4972   2.452   6.249   4.411  0.2101  0.1208 -0.7510
 1358SOL    HW1 4973   2.377   6.203   4.459  0.1876 -0.4407 -1.3058
 1358SOL    HW2 4974   2.502   6.182   4.356  1.7403  0.2881  0.3600
 1359SOL     OW 4975   5.601   4.754   0.256  0.3690 -0.0413 -0.0594
 1359SOL    HW1 4976   5.691   4.718   0.232  0.4264 -0.4617  0.7535
 1359SOL    HW2 4977   5.540   4.747   0.177  0.7108 -0.8597 -0.2609
 1360SOL     OW 4978   0.383   2.622   6.750  0.2716 -0.3794 -0.0256
 1360SOL    HW1 4979   0.395   2.681   6.670  2.9972  2.1674  2.0305
 1360SOL    HW2 4980   0.345   2.534   6.721  0.0030  0.8195 -3.8865
 1361SOL     OW 4981   6.168   3.795   4.052  0.2754 -0.4861 -0.2872
 1361SOL    HW1 4982   6.069   3.797   4.041  0.2639  1.8063 -0.1579
 1361SOL    HW2 4983   6.207   3.881   4.021  1.7422  0.6244  4.0192
 1362SOL     OW 4984   3.590   3.858   3.987  0.2554 -0.3144  0.0963
 1362SOL    HW1 4985   3.536   3.921   3.933  0.9549  0.4085  0.2152
 1362SOL    HW2 4986   3.536   3.823   4.064 -0.2553 -0.1633 -0.1978
 1363SOL     OW 4987   1.911   6.248   1.867 -0.2472  0.0596 -0.2139
 1363SOL    HW1 4988   1.926   6.295   1.780  0.2402  1.2144  0.4675
 1363SOL    HW2 4989   1.993   6.254   1.923 -0.2135 -1.5418 -0.0511
 1364SOL     OW 4990   5.815   5.304   5.365 -0.0129  0.1071  0.0308
 1364SOL    HW1 4991   5.766   5.236   5.311 -0.6876  1.2635 -0.8713
 1364SOL    HW2 4992   5.913   5.286   5.360 -0.2599 -2.0589  1.6131
 1365SOL     OW 4993   6.676   1.979   6.139  0.3936  0.5180  0.1345
 1365SOL    HW1 4994   6.585   1.940   6.124  0.2575 -0.0426  2.0950
 1365SOL    HW2 4995   6.743   1.929   6.085  0.0274 -1.6142  1.5136
 1366SOL     OW 4996   2.493   1.737   3.714  0.1444  0.1851 -0.3631
 1366SOL    HW1 4997   2.542   1.673   3.772  0.3441  0.3552 -0.3461
 1366SOL    HW2 4998   2.524   1.728   3.620 -0.4182 -0.3309 -0.5105
 1367SOL     OW 4999   3.624   0.395   2.343 -0.2482  0.1777 -0.4657
 1367SOL    HW1 5000   3.693   0.467   2.345  1.6419 -1.5313 -0.3491
 1367SOL    HW2 5001   3.616   0.354   2.435  1.7239 -2.3493 -1.2926
 1368SOL     OW 5002   1.340   5.805   3.526 -0.3347 -0.5908  0.5042
 1368SOL    HW1 5003   1.400   5.725   3.520 -0.3878 -0.7189  1.5082
 1368SOL    HW2 5004   1.359   5.855   3.610 -0.9822 -0.0923  0.3642
 1369SOL     OW 5005   6.990   6.722   2.535 -0.1180  0.1411 -0.1902
 1369SOL    HW1 5006   6.988   6.641   2.476  0.3953  1.2448 -1.7821
 1369SOL    HW2 5007   7.071   6.776   2.514 -0.5940  1.2117  0.6587
 1370SOL     OW 5008   0.493   1.856   2.718 -0.0738 -0.4287  0.1510
 1370SOL    HW1 5009   0.531   1.893   2.633 -0.4305 -1.6062 -0.5588
 1370SOL    HW2 5010   0.444   1.928   2.767 -0.3220  0.1591 -0.9173
 1371SOL     OW 5011   0.428   0.791   4.240 -0.2508 -0.5527 -0.4616
 1371SOL    HW1 5012   0.407   0.704   4.196 -0.3197 -1.7912  1.8949
 1371SOL    HW2 5013   0.451   0.776   4.336  2.0624  1.7687 -0.5144
 1372SOL     OW 5014   3.268   0.351   5.858  0.2644  0.2797 -0.5523
 1372SOL    HW1 5015   3.366   0.367   5.875  0.7628 -1.7500 -1.1724
 1372SOL    HW2 5016   3.231   0.294   5.932 -0.7271  1.8338  0.1874
 1373SOL     OW 5017   1.441   6.802   0.305  0.1650  0.3685  0.2339
 1373SOL    HW1 5018   1.410   6.734   0.371 -3.4918  0.8063 -0.7838
 1373SOL    HW2 5019   1.497   6.871   0.351  0.1380 -0.8604  2.2088
 1374SOL     OW 5020   5.365   3.154   4.857 -0.2761  0.2490  0.1097
 1374SOL    HW1 5021   5.416   3.083   4.906  3.2193  3.2159  1.2586
 1374SOL    HW2 5022   5.291   3.188   4.914  0.5272  0.1763  1.2218
 1375SOL     OW 5023   1.284   2.826   4.315  0.2386 -0.0590 -0.2072
 1375SOL    HW1 5024   1.284   2.849   4.218  2.1668 -1.2183 -0.5432
 1375SOL    HW2 5025   1.347   2.887   4.364 -0.1714  0.0492  0.1949
 1376SOL     OW 5026   6.379   6.324   3.705 -0.3231 -0.3928  0.8434
 1376SOL    HW1 5027   6.305   6.283   3.653  1.1069 -4.3764  1.5462
 1376SOL    HW2 5028   6.446   6.365   3.643 -0.7021 -1.2142 -0.1246
 1377SOL     OW 5029   0.286   2.704   5.478  0.0016  0.1650 -0.2328
 1377SOL    HW1 5030   0.380   2.673   5.491  0.1157  0.2077 -0.8796
 1377SOL    HW2 5031   0.262   2.695   5.381 -0.9710 -0.7191  0.0744
 1378SOL     OW 5032   1.090   3.154   1.312 -0.0144  0.2749 -0.3741
 1378SOL    HW1 5033   1.150   3.080   1.280  1.5133  1.1927  0.3093
 1378SOL    HW2 5034   1.108   3.237   1.260 -0.3567  0.6914  0.1588
 1379SOL     OW 5035   4.957   4.449   0.937  0.0278  0.6472  0.1770
 1379SOL    HW1 5036   4.994   4.415   0.851  0.8917 -2.0952  1.5006
 1379SOL    HW2 5037   4.859   4.428   0.941  0.1268  0.1467  0.1094
 1380SOL     OW 5038   6.356   4.521   1.804 -0.2134  0.0199  0.1240
 1380SOL    HW1 5039   6.314   4.565   1.883  0.5868  0.5380  0.2685
 1380SOL    HW2 5040   6.405   4.589   1.749  0.1675 -0.5136 -0.2104
 1381SOL     OW 5041   3.468   0.258   1.066 -0.5572  0.1891 -0.2931
 1381SOL    HW1 5042   3.549   0.315   1.056 -0.0522 -0.3417  0.6350
 1381SOL    HW2 5043   3.494   0.162   1.058 -0.6696 -0.1157  2.2850
 1382SOL     OW 5044   4.569   4.304   6.725  0.3735  0.0074  0.5118
 1382SOL    HW1 5045   4.587   4.281   6.821  0.2798 -0.6371  0.3826
 1382SOL    HW2 5046   4.626   4.247   6.666 -0.8803 -0.9017  0.1424
 1383SOL     OW 5047   2.076   6.691   6.252  0.6291  0.4933  0.5076
 1383SOL    HW1 5048   2.029   6.750   6.318 -0.4342  0.4341 -0.1643
 1383SOL    HW2 5049   2.069   6.732   6.161  0.7150 -0.1935  0.1888
 1384SOL     OW 5050   0.561   4.063   5.011  0.1976 -0.4217 -0.2394
 1384SOL    HW1 5051   0.481   4.023   4.968  0.4621 -1.4045  0.1620
 1384SOL    HW2 5052   0.636   4.068   4.945 -0.3858  1.1363 -0.8115
 1385SOL     OW 5053   4.928   3.032   5.048 -0.6101  0.1145 -0.5031
 1385SOL    HW1 5054   4.846   2.981   5.026 -0.9543  0.8740 -1.0457
 1385SOL    HW2 5055   4.945   3.029   5.146 -1.1188 -0.2889 -0.4270
 1386SOL     OW 5056   1.331   3.870   4.889  0.0270 -0.8334  0.6334
 1386SOL    HW1 5057   1.366   3.835   4.802  1.0771  0.1937  0.6151
 1386SOL    HW2 5058   1.299   3.794   4.945  1.4251 -1.7419  0.2450
 1387SOL     OW 5059   4.198   0.021   4.868 -0.4230 -0.5731  0.4303
 1387SOL    HW1 5060   4.125   0.089   4.876 -0.4573 -0.4952 -0.4557
 1387SOL    HW2 5061   4.239   0.026   4.777 -0.1235 -1.4379  0.5042
 1388SOL     OW 5062   4.957   3.562   3.543  0.1081 -0.3187  0.1622
 1388SOL    HW1 5063   4.962   3.588   3.640 -0.6904  0.2468  0.0612
 1388SOL    HW2 5064   4.954   3.644   3.486  2.1712 -0.6278 -0.4625
 1389SOL     OW 5065   6.947   0.965   4.665  0.2045 -0.1321  0.0455
 1389SOL    HW1 5066   7.042   0.970   4.695  0.5108  0.3536 -0.9562
 1389SOL    HW2 5067   6.943   0.945   4.567 -0.6995  0.3793 -0.0455
 1390SOL     OW 5068   6.553   4.320   0.882 -0.1594  0.5290  0.0088
 1390SOL    HW1 5069   6.551   4.320   0.782  0.7966  2.5299 -0.0509
 1390SOL    HW2 5070   6.501   4.241   0.915 -1.8395  0.6679 -2.0281
 1391SOL     OW 5071   6.941   3.071   5.998  0.2839 -0.5027 -0.3340
 1391SOL    HW1 5072   6.909   3.079   6.092  1.1224 -0.6091 -0.0268
 1391SOL    HW2 5073   6.954   3.162   5.959 -0.1918 -0.4601 -0.3947
 1392SOL     OW 5074   3.471   1.108   3.778  0.0253  0.6356 -0.3066
 1392SOL    HW1 5075   3.453   1.128   3.874 -0.8629 -4.0107  0.7237
 1392SOL    HW2 5076   3.387   1.118   3.725  0.0367  1.1908 -0.2329
 1393SOL     OW 5077   3.896   7.002   0.015 -0.0400  0.0071  0.8081
 1393SOL    HW1 5078   3.935   7.014   0.106  1.4171 -0.1091  0.2292
 1393SOL    HW2 5079   3.957   6.945  -0.040 -1.7393 -1.4058  0.2847
 1394SOL     OW 5080   3.595   1.738   4.244  0.4986  0.0304 -0.0522
 1394SOL    HW1 5081   3.514   1.684   4.220  0.9193 -0.6207 -0.0377
 1394SOL    HW2 5082   3.593   1.826   4.195  1.1364 -1.0894 -2.2549
 1395SOL     OW 5083   6.085   5.369   2.205  0.0901  0.7728  0.1011
 1395SOL    HW1 5084   6.064   5.452   2.152 -0.5923  1.5969  1.6136
 1395SOL    HW2 5085   6.056   5.382   2.300  1.4177 -0.6205  0.7252
 1396SOL     OW 5086   1.902   3.319   3.216 -0.2390  0.1021 -0.5742
 1396SOL    HW1 5087   1.868   3.402   3.172 -0.4699  0.0881 -0.4248
 1396SOL    HW2 5088   1.901   3.244   3.150 -0.0397  0.2147 -0.7063
 1397SOL     OW 5089   3.195   5.754   5.928 -0.0217 -0.0603  0.5887
 1397SOL    HW1 5090   3.210   5.808   6.010 -0.9160  0.9924  0.0722
 1397SOL    HW2 5091   3.126   5.797   5.871 -0.8405 -1.7880  0.1968
 1398SOL     OW 5092   2.379   5.301   5.061 -0.1745  0.2219  0.0061
 1398SOL    HW1 5093   2.286   5.334   5.050  0.2709  1.3428 -0.5239
 1398SOL    HW2 5094   2.377   5.206   5.093 -1.5112 -0.3480 -1.6364
 1399SOL     OW 5095   2.414   0.629   4.741 -0.4238 -0.5574 -0.1701
 1399SOL    HW1 5096   2.400   0.668   4.832 -1.5843 -4.4786  1.5842
 1399SOL    HW2 5097   2.333   0.645   4.685 -0.9413 -0.6008  0.5484
 1400SOL     OW 5098   6.898   3.141   5.551  0.7277  0.0879  0.3544
 1400SOL    HW1 5099   6.924   3.202   5.477 -0.0928  1.2977  1.0248
 1400SOL    HW2 5100   6.837   3.070   5.517 -0.7394  1.4352  0.1056
 1401SOL     OW 5101   3.896   0.312   2.678  0.1339  0.0669  0.2351
 1401SOL    HW1 5102   3.919   0.341   2.585 -1.5885  3.1943  0.6411
 1401SOL    HW2 5103   3.843   0.227   2.674  2.3555 -1.3710 -1.3361
 1402SOL     OW 5104   5.655   3.753   5.973 -0.3527 -0.4908 -0.4002
 1402SOL    HW1 5105   5.596   3.681   5.937  0.6190 -1.8754  0.6316
 1402SOL    HW2 5106   5.665   3.741   6.072  0.1835  0.8148 -0.2806
 1403SOL     OW 5107   3.437   2.569   6.574  0.6181 -0.3445  0.7031
 1403SOL    HW1 5108   3.423   2.652   6.628  1.8701 -0.3837  1.1204
 1403SOL    HW2 5109   3.425   2.590   6.477  2.4670  0.7387  0.6557
 1404SOL     OW 5110   4.606   5.619   1.487 -0.0532 -0.0639  0.1664
 1404SOL    HW1 5111   4.556   5.559   1.425  0.0528  1.3406 -1.3563
 1404SOL    HW2 5112   4.703   5.592   1.489 -0.4283 -1.4569  1.4632
 1405SOL     OW 5113   2.034   3.679   6.322  0.0426 -0.2168 -0.0554
 1405SOL    HW1 5114   2.033   3.636   6.412 -4.1207  1.6292  1.0069
 1405SOL    HW2 5115   2.112   3.742   6.316  0.7204 -0.7778  1.9957
 1406SOL     OW 5116   6.940   2.526   6.156  0.1478  0.5930  0.2326
 1406SOL    HW1 5117   6.853   2.523   6.205  0.6731 -0.3067  1.1576
 1406SOL    HW2 5118   6.986   2.437   6.166  1.8506  1.5257  1.0331
 1407SOL     OW 5119   5.819   1.222   1.239  0.3759  0.7945 -0.2390
 1407SOL    HW1 5120   5.755   1.294   1.267 -1.1436 -0.9536  1.0122
 1407SOL    HW2 5121   5.913   1.255   1.251 -0.2647  2.0664  1.7392
 1408SOL     OW 5122   0.174   0.701   1.758  1.1980 -0.7525 -0.2041
 1408SOL    HW1 5123   0.272   0.717   1.744  1.0097 -0.0938 -0.8360
 1408SOL    HW2 5124   0.161   0.627   1.824  2.1019 -0.0208  0.8040
 1409SOL     OW 5125   0.220   1.306   6.836 -0.8951  0.3859 -0.3680
 1409SOL    HW1 5126   0.158   1.245   6.885 -1.2823  1.2014  0.1729
 1409SOL    HW2 5127   0.308   1.309   6.884 -0.9303  0.3864 -0.3033
 1410SOL     OW 5128   4.056   6.923   0.328 -0.3664  0.5968 -0.3020
 1410SOL    HW1 5129   4.029   7.019   0.325 -1.5018  0.3455  0.8217
 1410SOL    HW2 5130   4.105   6.904   0.413 -3.4375 -0.5462  1.3806
 1411SOL     OW 5131   3.959   0.496   5.664 -0.0680 -0.4723 -0.5917
 1411SOL    HW1 5132   4.033   0.535   5.610  0.8008 -1.7922 -0.4010
 1411SOL    HW2 5133   3.983   0.402   5.691 -1.3945 -0.5872  0.2868
 1412SOL     OW 5134   3.062   0.941   6.853  0.0248  0.0972 -0.3096
 1412SOL    HW1 5135   2.974   0.974   6.885  0.2241 -0.9023  1.4246
 1412SOL    HW2 5136   3.102   0.880   6.922  1.7372 -0.0608 -1.3701
 1413SOL     OW 5137   0.479   2.642   4.074  0.3023  0.3436 -0.3928
 1413SOL    HW1 5138   0.525   2.560   4.110  1.4318  1.5839  1.1668
 1413SOL    HW2 5139   0.528   2.675   3.994  1.6852  1.1346  0.7232
 1414SOL     OW 5140   0.172   4.096   2.034  0.2154  0.1936 -0.4002
 1414SOL    HW1 5141   0.088   4.151   2.038 -0.8922 -1.4913  2.0895
 1414SOL    HW2 5142   0.250   4.155   2.013 -1.3681  2.0804 -1.2139
 1415SOL     OW 5143   1.659   0.863   5.311 -0.4646 -0.1665  0.0488
 1415SOL    HW1 5144   1.595   0.821   5.375  1.2128 -1.0526  1.1897
 1415SOL    HW2 5145   1.644   0.825   5.219  1.9620 -4.6380  1.2316
 1416SOL     OW 5146   3.251   4.679   5.721 -0.3857  0.0449  0.1757
 1416SOL    HW1 5147   3.176   4.708   5.663 -0.0864 -0.8617 -0.6959
 1416SOL    HW2 5148   3.226   4.689   5.817 -1.4984  0.0314 -0.1091
 1417SOL     OW 5149   4.133   3.345   3.312 -0.1002  0.2634  0.2147
 1417SOL    HW1 5150   4.136   3.429   3.257  0.2164  0.4723  0.5487
 1417SOL    HW2 5151   4.131   3.369   3.409  0.2048 -0.1205  0.3171
 1418SOL     OW 5152   3.625   3.164   6.909  0.0886 -0.8413  0.1281
 1418SOL    HW1 5153   3.678   3.194   6.988 -0.5141  0.5184  0.0526
 1418SOL    HW2 5154   3.674   3.092   6.860  0.7766 -1.2204  1.3545
 1419SOL     OW 5155   6.674   4.953   1.835 -0.0118 -0.4276 -0.4809
 1419SOL    HW1 5156   6.679   4.997   1.745 -0.4325 -0.8762 -0.7206
 1419SOL    HW2 5157   6.751   4.984   1.891  1.6882 -2.0063 -1.8297
 1420SOL     OW 5158   1.493   0.613   4.552 -0.6994 -0.1135  0.0672
 1420SOL    HW1 5159   1.433   0.589   4.475 -1.3351 -1.3368  0.9211
 1420SOL    HW2 5160   1.446   0.593   4.638  0.8085 -0.7755  0.7630
 1421SOL     OW 5161   0.249   6.144   1.479 -0.6234 -0.0510  0.5066
 1421SOL    HW1 5162   0.340   6.154   1.438 -0.1500  0.7581  1.7064
 1421SOL    HW2 5163   0.243   6.200   1.561 -1.5824 -1.5411  1.5089
 1422SOL     OW 5164   6.446   2.015   4.677 -0.5802 -0.6955  0.1169
 1422SOL    HW1 5165   6.368   2.003   4.616 -0.7969  1.4340 -0.1058
 1422SOL    HW2 5166   6.413   2.022   4.771 -0.6365 -0.2168  0.0657
 1423SOL     OW 5167   4.418   6.350   4.490  0.0258 -0.6247  0.0579
 1423SOL    HW1 5168   4.406   6.267   4.436  1.5841  0.3333 -1.9177
 1423SOL    HW2 5169   4.341   6.412   4.473 -2.1896 -2.3080  3.0635
 1424SOL     OW 5170   6.831   3.860   0.528  0.0065 -0.1294 -0.0688
 1424SOL    HW1 5171   6.785   3.946   0.510 -0.5658 -0.4550 -0.1684
 1424SOL    HW2 5172   6.918   3.858   0.479 -0.5374 -0.1111 -1.0536
 1425SOL     OW 5173   6.925   0.485   3.361  0.1068  0.7261 -0.0347
 1425SOL    HW1 5174   6.909   0.393   3.397 -1.1968  0.8802 -0.1502
 1425SOL    HW2 5175   6.920   0.551   3.435 -0.6758  0.8533 -0.1844
 1426SOL     OW 5176   5.084   0.206   0.114  0.0857  0.4229  0.0378
 1426SOL    HW1 5177   5.181   0.232   0.115  0.0151  0.6758  0.3504
 1426SOL    HW2 5178   5.069   0.135   0.184 -0.0186  0.6140  0.2088
 1427SOL     OW 5179   1.841   2.838   2.780 -0.4640  0.5261 -0.3045
 1427SOL    HW1 5180   1.920   2.808   2.727 -0.4782 -1.3329  0.6533
 1427SOL    HW2 5181   1.854   2.934   2.806  1.3166  0.3760 -0.4580
 1428SOL     OW 5182   2.603   4.593   3.280  0.2987  0.0333  0.0058
 1428SOL    HW1 5183   2.602   4.582   3.380  0.2125 -3.1435 -0.2393
 1428SOL    HW2 5184   2.698   4.594   3.248  0.3065 -0.5782  0.0033
 1429SOL     OW 5185   6.239   1.616   3.068  0.0917  0.2431 -0.3498
 1429SOL    HW1 5186   6.294   1.654   2.994  0.0807 -0.5638 -0.7904
 1429SOL    HW2 5187   6.299   1.570   3.133 -0.0823 -1.3018 -1.2266
 1430SOL     OW 5188   2.342   3.194   5.326 -0.1558  0.0817 -0.0002
 1430SOL    HW1 5189   2.400   3.144   5.262  0.1640  1.3925 -0.7804
 1430SOL    HW2 5190   2.247   3.165   5.315  0.1561 -1.1482  0.3802
 1431SOL     OW 5191   4.254   1.532   0.089 -0.4913 -0.0563 -0.0920
 1431SOL    HW1 5192   4.315   1.463   0.051  0.1449 -0.4824  1.5926
 1431SOL    HW2 5193   4.308   1.611   0.120 -0.9602  0.2186  0.0373
 1432SOL     OW 5194   2.066   1.700   3.133 -0.1689  0.3192 -0.7454
 1432SOL    HW1 5195   1.972   1.730   3.126  0.0917  1.0704 -1.1309
 1432SOL    HW2 5196   2.070   1.600   3.124 -0.9092  0.2950 -0.8481
 1433SOL     OW 5197   3.569   1.918   3.932  0.4403  0.1723 -0.6231
 1433SOL    HW1 5198   3.587   1.959   3.843  1.2196  0.9804 -0.0998
 1433SOL    HW2 5199   3.471   1.895   3.938  0.4024 -0.0328 -1.7279
 1434SOL     OW 5200   6.782   3.521   2.461 -0.1463  0.9632  0.2593
 1434SOL    HW1 5201   6.760   3.522   2.363 -3.3536  1.7865  0.8844
 1434SOL    HW2 5202   6.811   3.429   2.488 -1.5495  0.0905 -1.0394
 1435SOL     OW 5203   6.971   6.695   3.804  0.1374  0.2366 -0.2293
 1435SOL    HW1 5204   6.971   6.751   3.886  0.8867 -1.0628  0.6968
 1435SOL    HW2 5205   7.003   6.750   3.726  0.6637  1.1478  0.6026
 1436SOL     OW 5206   1.928   0.504   0.628 -0.1553  0.2307  0.2510
 1436SOL    HW1 5207   1.870   0.425   0.648  0.9746 -1.3237 -2.0990
 1436SOL    HW2 5208   1.910   0.577   0.694 -2.6599 -1.2389  1.3211
 1437SOL     OW 5209   4.430   0.134   1.373 -0.2643  0.1841  0.5716
 1437SOL    HW1 5210   4.527   0.159   1.374 -0.1032 -0.0354  3.9671
 1437SOL    HW2 5211   4.375   0.212   1.402 -0.8933 -0.2735  0.6416
 1438SOL     OW 5212   1.100   6.484   2.929  0.0585 -0.7198  0.1276
 1438SOL    HW1 5213   1.067   6.392   2.907  0.6394 -1.3057  1.5774
 1438SOL    HW2 5214   1.034   6.552   2.897 -0.3169 -1.6304 -1.0801
 1439SOL     OW 5215   0.167   4.154   4.751  0.1306  0.2841 -0.0998
 1439SOL    HW1 5216   0.172   4.172   4.850 -1.4893 -2.3519  0.5646
 1439SOL    HW2 5217   0.074   4.127   4.727  0.8132 -0.4601 -2.1020
 1440SOL     OW 5218   3.819   3.796   1.775  0.5261  0.4446  0.0429
 1440SOL    HW1 5219   3.882   3.873   1.767 -0.9690  1.7562  0.5034
 1440SOL    HW2 5220   3.742   3.821   1.833  0.0419 -1.4507  0.3052
 1441SOL     OW 5221   6.923   0.200   6.734 -0.2744 -0.2607 -0.0963
 1441SOL    HW1 5222   7.019   0.177   6.717 -0.6874 -1.0425 -1.5693
 1441SOL    HW2 5223   6.916   0.296   6.759  0.8009  0.0616 -0.9258
 1442SOL     OW 5224   2.211   0.042   1.524 -0.0071 -0.3917 -0.0609
 1442SOL    HW1 5225   2.247   0.130   1.493 -0.0708 -0.2752  0.1975
 1442SOL    HW2 5226   2.250   0.019   1.613  0.1707 -0.7252 -0.2221
 1443SOL     OW 5227   2.274   1.921   4.910  0.0072  0.0478  0.1345
 1443SOL    HW1 5228   2.287   1.894   5.006 -2.8616  1.0378  0.9178
 1443SOL    HW2 5229   2.203   1.992   4.905  1.1588  1.1210 -2.6276
 1444SOL     OW 5230   2.006   5.960   5.497  0.2177 -0.1419 -0.0672
 1444SOL    HW1 5231   2.001   5.935   5.593  2.1568  2.9816  0.9978
 1444SOL    HW2 5232   2.059   5.891   5.447  0.9329 -0.8118  1.5554
 1445SOL     OW 5233   6.935   3.869   1.428 -0.0372 -0.1079  0.5846
 1445SOL    HW1 5234   7.031   3.841   1.430 -0.2248 -0.7147  1.6434
 1445SOL    HW2 5235   6.928   3.960   1.387  0.6109 -1.4072 -2.6997
 1446SOL     OW 5236   3.107   5.337   3.433 -0.4163 -0.7378 -0.9510
 1446SOL    HW1 5237   3.102   5.431   3.466  2.4363 -0.3257 -1.4689
 1446SOL    HW2 5238   3.116   5.274   3.510 -1.9842 -0.6178 -0.6257
 1447SOL     OW 5239   5.664   2.217   4.795 -0.6865  0.1366  0.3743
 1447SOL    HW1 5240   5.614   2.181   4.874 -0.6535  1.5948  1.0952
 1447SOL    HW2 5241   5.610   2.289   4.752  0.7115  1.7336  1.1499
 1448SOL     OW 5242   6.627   1.117   6.706  0.3797  0.1447 -0.0815
 1448SOL    HW1 5243   6.621   1.200   6.652  3.7366 -0.3560 -1.4776
 1448SOL    HW2 5244   6.590   1.133   6.797  1.1380  3.2411 -0.2246
 1449SOL     OW 5245   5.709   5.308   0.738  0.2115 -0.6984 -0.2522
 1449SOL    HW1 5246   5.683   5.299   0.642 -2.0618  0.7292  0.1408
 1449SOL    HW2 5247   5.725   5.404   0.760 -2.2527 -0.5754  1.3847
 1450SOL     OW 5248   5.139   0.026   5.504  0.1542 -0.0886  0.2534
 1450SOL    HW1 5249   5.179  -0.048   5.449  0.6878 -0.2098  0.7999
 1450SOL    HW2 5250   5.054  -0.007   5.546 -0.3551  0.0613 -0.6352
 1451SOL     OW 5251   0.892   0.110   3.476 -0.3640  0.2014 -0.0328
 1451SOL    HW1 5252   0.866   0.036   3.415 -1.5015 -0.4736  1.2228
 1451SOL    HW2 5253   0.979   0.150   3.445  0.1680 -1.5089 -0.8472
 1452SOL     OW 5254   2.694   0.143   6.444 -0.1758  0.2626 -0.0094
 1452SOL    HW1 5255   2.707   0.072   6.375 -0.1649  1.0864 -0.8711
 1452SOL    HW2 5256   2.615   0.200   6.420 -2.3568 -1.4749  2.4430
 1453SOL     OW 5257   6.138   3.612   2.346 -0.1816  0.3613  0.0704
 1453SOL    HW1 5258   6.102   3.539   2.287 -0.0197  0.2598  0.0994
 1453SOL    HW2 5259   6.190   3.572   2.421 -0.5839  0.4804  0.4154
 1454SOL     OW 5260   4.485   5.421   1.333  1.3369  0.1883  1.0749
 1454SOL    HW1 5261   4.465   5.323   1.332 -0.5572  0.5451  0.7788
 1454SOL    HW2 5262   4.489   5.455   1.239  3.9472  0.0867  1.0651
 1455SOL     OW 5263   2.041   0.992   0.758 -0.4274  0.2285 -0.1325
 1455SOL    HW1 5264   2.051   1.012   0.856 -2.0233 -1.0632  0.3472
 1455SOL    HW2 5265   2.054   0.894   0.743  0.4039  0.4995 -1.3352
 1456SOL     OW 5266   5.171   5.817   3.725 -0.4057 -0.1692 -0.1751
 1456SOL    HW1 5267   5.163   5.775   3.635  0.2185  0.0625 -0.3449
 1456SOL    HW2 5268   5.267   5.822   3.751 -0.6203 -0.9993  0.8740
 1457SOL     OW 5269   1.656   2.640   2.014 -0.1634  0.1366 -0.1219
 1457SOL    HW1 5270   1.636   2.704   2.088 -1.3671  0.2152 -0.4866
 1457SOL    HW2 5271   1.694   2.555   2.052 -1.4172 -0.0980  0.6767
 1458SOL     OW 5272   0.995   5.036   1.532 -0.2179  0.5540  0.1769
 1458SOL    HW1 5273   0.988   5.004   1.438 -0.2255  0.6230  0.1539
 1458SOL    HW2 5274   1.053   5.118   1.535  1.8792 -0.8585  0.5485
 1459SOL     OW 5275   2.963   6.302   1.367 -0.6382 -0.5243  0.0593
 1459SOL    HW1 5276   3.023   6.382   1.374  1.8843 -2.4508  2.2131
 1459SOL    HW2 5277   2.927   6.296   1.274 -1.0900  3.1468 -0.1393
 1460SOL     OW 5278   1.648   2.188   6.573 -0.1793  0.2820 -0.1305
 1460SOL    HW1 5279   1.600   2.223   6.493 -0.5090 -0.4705 -0.2715
 1460SOL    HW2 5280   1.743   2.221   6.572 -0.1129  0.0979 -0.9562
 1461SOL     OW 5281   3.835   2.581   1.196 -0.4674  0.2752  0.0492
 1461SOL    HW1 5282   3.888   2.507   1.236  1.8302  1.1223 -1.2168
 1461SOL    HW2 5283   3.824   2.655   1.262  0.0374  0.1232  0.3042
 1462SOL     OW 5284   5.734   0.827   5.464  0.5294  0.6732  0.1950
 1462SOL    HW1 5285   5.716   0.901   5.399 -0.7616 -0.9883 -1.4518
 1462SOL    HW2 5286   5.822   0.786   5.444  0.1273  0.1543 -0.5520
 1463SOL     OW 5287   5.785   4.196   5.660 -0.5975  0.0295  0.5199
 1463SOL    HW1 5288   5.700   4.200   5.607  0.0012 -0.1500 -0.4934
 1463SOL    HW2 5289   5.835   4.113   5.636 -0.7349 -0.5299  2.0768
 1464SOL     OW 5290   1.426   0.481   2.282 -0.2186 -0.3525  0.0168
 1464SOL    HW1 5291   1.525   0.493   2.271 -0.5840  1.3925 -1.8585
 1464SOL    HW2 5292   1.390   0.555   2.339 -0.4645 -0.9719  0.6773
 1465SOL     OW 5293   2.826   0.797   3.500 -0.1266  0.6846 -0.5692
 1465SOL    HW1 5294   2.779   0.724   3.449  0.2449  1.1010 -1.5430
 1465SOL    HW2 5295   2.762   0.840   3.563 -0.5868  0.1032 -0.6288
 1466SOL     OW 5296   5.215   5.671   4.825  0.8909  0.1250  0.3253
 1466SOL    HW1 5297   5.280   5.746   4.814  0.9542 -0.1787 -1.9913
 1466SOL    HW2 5298   5.146   5.676   4.753 -0.2140 -0.9685  1.2732
 1467SOL     OW 5299   0.481   3.215   5.368  0.4174 -0.3318  0.0604
 1467SOL    HW1 5300   0.416   3.150   5.408  0.2907 -0.6685 -0.6831
 1467SOL    HW2 5301   0.431   3.291   5.328  0.5923  0.6355  1.5909
 1468SOL     OW 5302   4.152   0.945   3.603 -0.5953 -0.7185 -0.0140
 1468SOL    HW1 5303   4.157   1.036   3.644  0.2596 -0.3030 -0.9895
 1468SOL    HW2 5304   4.217   0.884   3.647 -0.4364 -0.5732 -0.0498
 1469SOL     OW 5305   4.613   6.379   2.284  0.2797 -0.0761 -0.0869
 1469SOL    HW1 5306   4.683   6.411   2.220 -0.2659  0.3072 -0.5036
 1469SOL    HW2 5307   4.630   6.416   2.375  0.4290  0.2855 -0.2625
 1470SOL     OW 5308   2.164   0.722   1.051  0.4867  0.0380 -0.3992
 1470SOL    HW1 5309   2.166   0.711   0.952 -0.4701 -0.0645 -0.4178
 1470SOL    HW2 5310   2.257   0.724   1.087  0.8336 -0.0432 -1.2861
 1471SOL     OW 5311   5.967   1.156   0.711  0.4727  0.0241 -0.7557
 1471SOL    HW1 5312   5.950   1.254   0.719  3.1157  0.6880 -2.1812
 1471SOL    HW2 5313   6.018   1.125   0.791 -1.4504 -0.5551  0.3273
 1472SOL     OW 5314   5.790   5.968   4.911  0.6452  0.2365 -0.2560
 1472SOL    HW1 5315   5.784   5.998   4.816  0.9476 -0.3550 -0.4663
 1472SOL    HW2 5316   5.708   5.917   4.936  0.9227 -0.3136 -0.4541
 1473SOL     OW 5317   1.489   4.434   3.085 -0.1736  0.0986  0.2313
 1473SOL    HW1 5318   1.478   4.378   3.167 -2.1015 -0.6453 -0.4964
 1473SOL    HW2 5319   1.534   4.520   3.110  2.2525 -1.4206  1.4858
 1474SOL     OW 5320   6.137   6.538   3.267 -0.2167  0.1050 -0.0580
 1474SOL    HW1 5321   6.082   6.586   3.199 -0.5349  1.8593  1.3508
 1474SOL    HW2 5322   6.219   6.592   3.288  1.1605 -1.6015 -0.8091
 1475SOL     OW 5323   6.148   5.837   2.289  0.1906  0.8184 -0.2135
 1475SOL    HW1 5324   6.197   5.762   2.334 -1.2727 -1.1337 -1.6497
 1475SOL    HW2 5325   6.099   5.891   2.358 -3.0243 -2.8238  0.7666
 1476SOL     OW 5326   2.293   2.322   1.723 -0.0521  0.2788  0.0395
 1476SOL    HW1 5327   2.260   2.262   1.650 -0.3255  0.5479 -0.0606
 1476SOL    HW2 5328   2.353   2.392   1.684 -0.7694  0.8694 -0.0511
 1477SOL     OW 5329   2.538   6.192   3.880  0.1475 -0.1665 -0.0539
 1477SOL    HW1 5330   2.620   6.192   3.823  0.8939  0.6749  0.9645
 1477SOL    HW2 5331   2.486   6.275   3.862 -0.9434 -1.0790 -1.2869
 1478SOL     OW 5332   0.462   3.685   0.833 -0.3159 -0.2677 -0.1035
 1478SOL    HW1 5333   0.553   3.714   0.862  0.4060 -0.1281 -2.2814
 1478SOL    HW2 5334   0.464   3.587   0.811 -0.2967  0.0297 -1.4889
 1479SOL     OW 5335   2.375   4.239   0.099  0.0225  0.2097 -0.2523
 1479SOL    HW1 5336   2.429   4.166   0.141 -2.0015 -0.6874  0.9646
 1479SOL    HW2 5337   2.379   4.320   0.157  2.1178  1.0899 -1.5091
 1480SOL     OW 5338   3.443   1.028   6.736 -0.6177  0.3012  0.8212
 1480SOL    HW1 5339   3.503   1.091   6.688 -2.3246 -0.5292 -2.7746
 1480SOL    HW2 5340   3.350   1.063   6.735 -1.5863 -2.0506 -1.1688
 1481SOL     OW 5341   2.240   2.199   1.477  0.8284  0.4131 -0.5283
 1481SOL    HW1 5342   2.148   2.226   1.505  0.5187 -0.7768 -0.3430
 1481SOL    HW2 5343   2.285   2.275   1.429  0.3798  1.5718  0.8434
 1482SOL     OW 5344   5.548   0.073   5.056 -0.3303  0.2110 -0.3273
 1482SOL    HW1 5345   5.504   0.122   4.981  0.3149 -0.2697 -1.0269
 1482SOL    HW2 5346   5.647   0.087   5.052 -0.1341 -1.0864 -0.5040
 1483SOL     OW 5347   0.353   2.362   1.554 -0.2355  0.1684 -0.4036
 1483SOL    HW1 5348   0.260   2.357   1.590  0.0367  0.8933  0.4127
 1483SOL    HW2 5349   0.365   2.290   1.485 -1.3295 -0.0606 -0.3785
 1484SOL     OW 5350   5.003   6.384   1.546  0.5000  0.0282  0.3436
 1484SOL    HW1 5351   4.940   6.410   1.473  0.1448 -2.5529 -0.3629
 1484SOL    HW2 5352   4.952   6.354   1.626  0.8478 -0.0120  0.5535
 1485SOL     OW 5353   5.112   3.329   4.750 -0.8324 -0.2888  0.1549
 1485SOL    HW1 5354   5.099   3.258   4.682 -0.1441 -1.1018  0.8400
 1485SOL    HW2 5355   5.099   3.291   4.842 -1.6426  0.7574  0.4941
 1486SOL     OW 5356   4.639   2.671   3.203 -0.4837  0.1208 -0.3471
 1486SOL    HW1 5357   4.719   2.645   3.149  1.1553 -0.1911  2.0602
 1486SOL    HW2 5358   4.568   2.601   3.193 -0.2869  0.1261 -2.0954
 1487SOL     OW 5359   0.988   0.777   5.348 -0.1885 -0.1365  0.0393
 1487SOL    HW1 5360   1.016   0.806   5.257 -1.6514  0.6516 -0.1948
 1487SOL    HW2 5361   0.893   0.746   5.346  0.1555 -1.3436  1.0516
 1488SOL     OW 5362   2.918   0.819   4.335  0.0836 -0.4268 -0.0360
 1488SOL    HW1 5363   2.843   0.847   4.395 -1.4828 -0.8940 -1.6905
 1488SOL    HW2 5364   2.938   0.722   4.350 -0.6400 -0.6666 -0.5989
 1489SOL     OW 5365   4.127   6.249   4.007 -0.1284  0.2001  0.1013
 1489SOL    HW1 5366   4.136   6.308   4.087  1.0884  0.7674 -0.4322
 1489SOL    HW2 5367   4.203   6.184   4.004  0.2113  0.6215 -0.9265
 1490SOL     OW 5368   2.722   3.500   5.846  0.1594  0.4546 -0.4892
 1490SOL    HW1 5369   2.690   3.422   5.901 -2.3080 -1.6931 -4.4827
 1490SOL    HW2 5370   2.732   3.580   5.905 -2.0214 -1.6110  3.0712
 1491SOL     OW 5371   1.678   1.458   2.941 -0.3043  0.4403 -0.1568
 1491SOL    HW1 5372   1.768   1.497   2.923 -0.3345 -0.3294 -2.2052
 1491SOL    HW2 5373   1.683   1.400   3.022  0.8192  1.0657  0.2536
 1492SOL     OW 5374   5.717   1.161   1.547  0.4061 -0.1268  0.5355
 1492SOL    HW1 5375   5.813   1.160   1.573 -0.1389 -0.9849  2.8141
 1492SOL    HW2 5376   5.704   1.221   1.468  2.7578  0.1014  0.2447
 1493SOL     OW 5377   0.307   3.622   5.187  0.8784  0.0120 -0.1483
 1493SOL    HW1 5378   0.228   3.614   5.248  1.5208  0.7223  0.7867
 1493SOL    HW2 5379   0.292   3.564   5.106  0.3698 -1.5633  1.0335
 1494SOL     OW 5380   3.382   0.821   4.461 -0.1411 -0.0859 -0.4079
 1494SOL    HW1 5381   3.400   0.916   4.487  0.1156  0.4479 -2.3286
 1494SOL    HW2 5382   3.306   0.819   4.396 -0.0945 -1.1857 -0.4436
 1495SOL     OW 5383   1.939   3.884   3.412 -0.2577  0.2388  0.4108
 1495SOL    HW1 5384   2.038   3.878   3.422 -0.1921 -0.7849 -0.7300
 1495SOL    HW2 5385   1.914   3.974   3.378  0.2530  0.5684  0.8936
 1496SOL     OW 5386   6.064   0.886   2.467  0.1173 -0.0643  0.3141
 1496SOL    HW1 5387   6.049   0.953   2.540 -1.8605  0.7792 -0.7812
 1496SOL    HW2 5388   6.158   0.895   2.432  0.6780  0.3808  1.8655
 1497SOL     OW 5389   5.700   5.538   4.008 -0.6014  1.1970 -0.4465
 1497SOL    HW1 5390   5.725   5.533   4.105  0.8582  0.2148 -0.8441
 1497SOL    HW2 5391   5.622   5.478   3.990  1.5883 -1.8535 -0.5520
 1498SOL     OW 5392   1.770   6.294   5.320 -0.5867 -0.3563 -0.0096
 1498SOL    HW1 5393   1.771   6.198   5.349 -2.1951  0.4122  2.9018
 1498SOL    HW2 5394   1.689   6.311   5.263 -0.1013 -0.7537 -0.8463
 1499SOL     OW 5395   0.977   2.829   4.643 -0.0541 -0.6651 -0.2456
 1499SOL    HW1 5396   0.987   2.736   4.677  2.0143 -0.8166 -1.0777
 1499SOL    HW2 5397   0.981   2.828   4.543 -1.1202  0.2226 -0.3135
 1500SOL     OW 5398   3.995   0.196   4.865 -0.4761 -0.1873 -0.4135
 1500SOL    HW1 5399   3.913   0.189   4.809  0.1327  0.5535 -1.4267
 1500SOL    HW2 5400   3.970   0.189   4.962 -1.9507  1.6155 -0.6166
 1501SOL     OW 5401   4.073   0.773   1.897 -0.1468  0.0688  0.2634
 1501SOL    HW1 5402   4.128   0.694   1.870 -0.5245  0.3285 -1.3976
 1501SOL    HW2 5403   4.074   0.841   1.823 -0.2053  1.4235  1.4693
 1502SOL     OW 5404   2.325   0.583   0.534  0.0984  0.7676 -0.3805
 1502SOL    HW1 5405   2.375   0.669   0.549  2.0922 -0.1796 -1.1420
 1502SOL    HW2 5406   2.390   0.507   0.535 -1.6929 -0.8259  0.8597
 1503SOL     OW 5407   2.867   3.008   5.764  0.1020 -0.3864 -0.3850
 1503SOL    HW1 5408   2.909   2.920   5.741 -0.7344 -1.0131  0.4115
 1503SOL    HW2 5409   2.938   3.073   5.792  0.5711 -1.4099  0.8967
 1504SOL     OW 5410   4.142   0.552   4.465 -0.1425  0.5561 -0.6230
 1504SOL    HW1 5411   4.181   0.495   4.537  1.8087  1.9113 -0.5325
 1504SOL    HW2 5412   4.051   0.518   4.441 -0.7066 -0.1688  2.1920
 1505SOL     OW 5413   0.502   5.921   4.162  0.3860  0.5291 -0.0205
 1505SOL    HW1 5414   0.488   5.923   4.063 -3.0807 -0.1217  0.3260
 1505SOL    HW2 5415   0.456   5.998   4.204  0.2318 -0.2158  1.2235
 1506SOL     OW 5416   1.479   5.405   4.333 -0.1086 -0.8092 -0.0148
 1506SOL    HW1 5417   1.474   5.437   4.238  1.5485 -2.5487 -0.7625
 1506SOL    HW2 5418   1.409   5.337   4.350  0.5831 -1.6625 -0.5115
 1507SOL     OW 5419   1.255   3.821   6.578 -0.0751 -0.0962 -0.0229
 1507SOL    HW1 5420   1.231   3.918   6.588  0.8335  0.0471  0.9885
 1507SOL    HW2 5421   1.335   3.812   6.519 -1.1780 -0.3910 -1.5293
 1508SOL     OW 5422   4.872   5.494   1.448  0.6068 -0.1656  0.4029
 1508SOL    HW1 5423   4.843   5.413   1.397  2.5320 -0.8387  0.2821
 1508SOL    HW2 5424   4.953   5.533   1.405  0.0434  1.5181  0.7994
 1509SOL     OW 5425   6.700   2.444   6.303  0.4032 -0.2514  0.1586
 1509SOL    HW1 5426   6.756   2.402   6.374 -0.5123 -0.4861  0.7595
 1509SOL    HW2 5427   6.676   2.375   6.235 -0.6361 -0.5954  0.8522
 1510SOL     OW 5428   0.102   0.316   2.808  0.2633  0.5134  0.0725
 1510SOL    HW1 5429   0.109   0.216   2.801  1.0646  0.6364 -1.2090
 1510SOL    HW2 5430   0.051   0.351   2.730 -0.6876  1.0541  0.9255
 1511SOL     OW 5431   6.659   0.457   1.094 -1.0204 -0.0203 -0.0492
 1511SOL    HW1 5432   6.746   0.477   1.139 -0.2702 -2.5550 -0.2081
 1511SOL    HW2 5433   6.643   0.524   1.021  0.3913  0.9694  0.5017
 1512SOL     OW 5434   1.473   0.080   2.924 -0.4509  0.4713  0.3594
 1512SOL    HW1 5435   1.489   0.166   2.874 -1.0247  0.8517  0.8121
 1512SOL    HW2 5436   1.534   0.077   3.003  0.0136  0.1629 -0.0068
 1513SOL     OW 5437   2.241   0.374   3.065  0.2190  0.2125  0.1157
 1513SOL    HW1 5438   2.166   0.360   3.000 -0.8790 -1.0165  1.5593
 1513SOL    HW2 5439   2.321   0.323   3.036 -0.4378 -0.7712 -0.0134
 1514SOL     OW 5440   4.641   0.296   0.028 -0.2008 -0.5702 -0.9499
 1514SOL    HW1 5441   4.561   0.349   0.000  1.5129  2.2822 -0.8835
 1514SOL    HW2 5442   4.663   0.316   0.123  0.8844 -0.8870 -1.1204
 1515SOL     OW 5443   0.664   3.850   4.431 -0.0921  0.0399 -0.2526
 1515SOL    HW1 5444   0.756   3.881   4.405  0.1580 -0.6845 -0.2586
 1515SOL    HW2 5445   0.622   3.918   4.491  0.4792  0.3447 -0.1851
 1516SOL     OW 5446   5.324   3.047   3.558  0.2459  0.4050  0.2415
 1516SOL    HW1 5447   5.345   2.994   3.475 -0.5931  2.6244 -1.4855
 1516SOL    HW2 5448   5.409   3.085   3.596  0.5242  0.2786 -0.2424
 1517SOL     OW 5449   2.096   3.552   2.510 -0.1559 -0.6603  0.4837
 1517SOL    HW1 5450   2.135   3.644   2.515 -1.2694 -0.1817  0.6076
 1517SOL    HW2 5451   2.133   3.505   2.430 -1.0458  0.6155 -0.7180
 1518SOL     OW 5452   0.210   5.521   1.248 -0.2633  0.0138  0.2962
 1518SOL    HW1 5453   0.175   5.428   1.234  1.7197 -0.7310 -0.0245
 1518SOL    HW2 5454   0.157   5.566   1.319 -1.7870 -1.0544 -0.1096
 1519SOL     OW 5455   2.065   4.312   2.460 -0.1497 -0.0151 -0.3770
 1519SOL    HW1 5456   2.011   4.247   2.513 -1.4467  2.0228  0.9331
 1519SOL    HW2 5457   2.108   4.378   2.522 -2.1863  2.8224 -1.7593
 1520SOL     OW 5458   1.383   4.307   2.501  0.3435  0.5489 -0.0506
 1520SOL    HW1 5459   1.456   4.241   2.512 -0.7340 -0.7917 -0.6284
 1520SOL    HW2 5460   1.417   4.388   2.454  1.4787 -0.0002 -0.1913
 1521SOL     OW 5461   2.180   1.244   4.641  0.2896  0.6960  0.3289
 1521SOL    HW1 5462   2.152   1.177   4.709 -1.8918  0.5194 -0.6817
 1521SOL    HW2 5463   2.204   1.330   4.687  0.8329 -0.0265  1.4351
 1522SOL     OW 5464   0.271   2.340   6.429  0.4804  0.8976  0.3816
 1522SOL    HW1 5465   0.298   2.361   6.334 -0.2044  1.4293  0.2961
 1522SOL    HW2 5466   0.213   2.259   6.430 -0.4531  1.5520  0.2060
 1523SOL     OW 5467   2.253   2.017   6.669 -0.1269 -0.2898  0.3460
 1523SOL    HW1 5468   2.285   1.926   6.641  1.8409  0.5031 -0.1317
 1523SOL    HW2 5469   2.305   2.087   6.621 -0.2541  1.1122  2.1382
 1524SOL     OW 5470   1.464   0.851   1.377 -0.0447  0.5436  0.7234
 1524SOL    HW1 5471   1.434   0.911   1.303  0.6882  0.0456  0.0034
 1524SOL    HW2 5472   1.449   0.755   1.350  3.4534  0.1636 -0.3342
 1525SOL     OW 5473   2.984   1.936   6.828  0.2090  0.8189  0.1857
 1525SOL    HW1 5474   2.928   1.986   6.762 -0.0044  2.2691  1.4161
 1525SOL    HW2 5475   2.979   1.981   6.917  0.9224 -0.7781  1.0759
 1526SOL     OW 5476   0.769   1.595   2.187  0.0526 -0.5909  0.2794
 1526SOL    HW1 5477   0.681   1.639   2.169  0.7788  0.0522 -2.0298
 1526SOL    HW2 5478   0.827   1.602   2.106  1.5440 -2.7072  1.0788
 1527SOL     OW 5479   3.254   0.015   4.222  0.7578 -0.0484  0.2960
 1527SOL    HW1 5480   3.250   0.108   4.186  0.7756  0.4317  1.5037
 1527SOL    HW2 5481   3.174  -0.037   4.190  0.3441  0.6186  0.2383
 1528SOL     OW 5482   5.468   6.677   3.403 -0.3730  0.0196 -0.2961
 1528SOL    HW1 5483   5.537   6.670   3.331  0.4348 -0.8135  0.5293
 1528SOL    HW2 5484   5.442   6.585   3.432 -0.8586  0.3466  0.3212
 1529SOL     OW 5485   1.661   0.438   6.368 -0.3518 -0.4335 -0.0115
 1529SOL    HW1 5486   1.563   0.424   6.380 -0.4967 -0.8293 -1.4555
 1529SOL    HW2 5487   1.707   0.350   6.360 -0.2497 -0.2497 -1.8527
 1530SOL     OW 5488   5.805   6.691   1.956  0.3452  0.5374 -0.8227
 1530SOL    HW1 5489   5.834   6.630   1.882  1.4941 -0.9722  0.8066
 1530SOL    HW2 5490   5.879   6.700   2.023 -0.2767  2.7174 -0.3393
 1531SOL     OW 5491   5.917   1.165   5.544 -0.0876  0.2972 -0.2469
 1531SOL    HW1 5492   5.864   1.246   5.522  0.0902  0.5658  0.3059
 1531SOL    HW2 5493   6.007   1.192   5.577 -1.3286  0.1049  3.8235
 1532SOL     OW 5494   2.094   1.839   5.714  1.0608 -0.3909  0.4097
 1532SOL    HW1 5495   2.013   1.898   5.710  0.6733 -0.6134  3.1754
 1532SOL    HW2 5496   2.176   1.895   5.709  0.7455  0.0277 -0.3169
 1533SOL     OW 5497   4.644   2.972   0.494  0.9962  0.2155  0.2079
 1533SOL    HW1 5498   4.721   2.964   0.431  1.3768  0.8344  0.5878
 1533SOL    HW2 5499   4.642   2.892   0.554 -0.7904 -1.6161 -2.1166
 1534SOL     OW 5500   5.574   6.989   5.816 -0.1586  0.2472 -0.2785
 1534SOL    HW1 5501   5.573   6.954   5.910 -1.9310  0.9933  0.0147
 1534SOL    HW2 5502   5.484   6.976   5.774  0.4904  0.2860 -1.7604
 1535SOL     OW 5503   4.751   4.563   5.066  0.2598 -0.3519  0.9556
 1535SOL    HW1 5504   4.764   4.464   5.064  2.3658 -0.1170  0.4656
 1535SOL    HW2 5505   4.738   4.593   5.160 -0.4784 -1.0882  1.0999
 1536SOL     OW 5506   2.544   4.866   2.926 -0.2823  0.6485 -0.1750
 1536SOL    HW1 5507   2.495   4.843   3.011 -0.0488  1.1421  0.0946
 1536SOL    HW2 5508   2.493   4.935   2.876 -0.0474  0.8949 -0.0747
 1537SOL     OW 5509   2.621   5.204   5.814  0.2955  0.2049  0.0324
 1537SOL    HW1 5510   2.553   5.189   5.886 -0.6840 -0.7150 -1.0621
 1537SOL    HW2 5511   2.639   5.302   5.805 -0.6111  0.4272  0.5692
 1538SOL     OW 5512   3.334   6.822   1.673 -0.0822  0.1069 -0.2718
 1538SOL    HW1 5513   3.262   6.770   1.626 -0.7070  0.3903  0.3473
 1538SOL    HW2 5514   3.307   6.837   1.768  1.2706 -0.6607  0.2580
 1539SOL     OW 5515   1.909   0.581   0.905  0.0813  0.4280 -0.3296
 1539SOL    HW1 5516   1.906   0.652   0.974  1.0334  0.8008 -0.6659
 1539SOL    HW2 5517   1.820   0.536   0.900  0.0817  0.2150  1.3101
 1540SOL     OW 5518   0.319   0.992   5.570 -0.6656 -0.3327 -0.0893
 1540SOL    HW1 5519   0.250   0.939   5.619 -0.6809 -2.4328 -2.1840
 1540SOL    HW2 5520   0.278   1.074   5.531 -1.1521  0.1834  1.4435
 1541SOL     OW 5521   4.844   3.112   3.458  0.8831 -0.2002 -0.0800
 1541SOL    HW1 5522   4.814   3.022   3.428  0.6473 -0.6323  1.4066
 1541SOL    HW2 5523   4.940   3.126   3.431  0.5875 -0.4075 -1.3133
 1542SOL     OW 5524   1.296   5.905   1.683  0.3318  0.5663  0.3916
 1542SOL    HW1 5525   1.306   5.812   1.718 -0.1534 -0.1097 -1.1436
 1542SOL    HW2 5526   1.308   5.971   1.757 -0.3347 -0.7492  1.7064
 1543SOL     OW 5527   3.449   3.197   3.870  0.2109  0.5386 -0.3882
 1543SOL    HW1 5528   3.483   3.160   3.784 -0.3345 -0.3281 -0.2434
 1543SOL    HW2 5529   3.447   3.125   3.939  0.9593  1.2979  0.4563
 1544SOL     OW 5530   3.132   3.051   2.334  0.2307 -0.0574  0.6563
 1544SOL    HW1 5531   3.043   3.082   2.301 -0.5858  0.4738  3.1765
 1544SOL    HW2 5532   3.185   3.129   2.366  0.7876 -0.5726  1.0093
 1545SOL     OW 5533   1.438   5.419   6.162  0.5887 -0.7743 -0.6794
 1545SOL    HW1 5534   1.427   5.362   6.243  0.2609 -1.2219 -1.0375
 1545SOL    HW2 5535   1.373   5.391   6.092 -0.0882  0.5095 -0.6000
 1546SOL     OW 5536   6.256   5.534   0.503 -0.2580  0.1835  0.4478
 1546SOL    HW1 5537   6.243   5.519   0.405 -0.5440 -2.2775  0.7786
 1546SOL    HW2 5538   6.168   5.522   0.550  0.0834  0.2414  1.1144
 1547SOL     OW 5539   4.507   0.378   0.761  0.4115 -0.7659  0.1087
 1547SOL    HW1 5540   4.488   0.284   0.731  0.2414 -0.3362 -1.2155
 1547SOL    HW2 5541   4.469   0.442   0.694  0.1256  0.2660  1.2399
 1548SOL     OW 5542   4.746   4.191   4.688  0.3191  0.0316 -0.3377
 1548SOL    HW1 5543   4.718   4.183   4.784  1.1400 -0.0237 -0.0933
 1548SOL    HW2 5544   4.687   4.258   4.642  0.4658  0.7181  0.4350
 1549SOL     OW 5545   6.273   2.998   2.586 -0.2083  0.1977  0.0128
 1549SOL    HW1 5546   6.235   2.909   2.612 -0.4978  0.7744  1.6842
 1549SOL    HW2 5547   6.326   2.988   2.503 -0.4655 -1.4870  0.0114
 1550SOL     OW 5548   2.810   4.834   3.166 -0.1371  0.1316  0.5721
 1550SOL    HW1 5549   2.757   4.818   3.083 -0.4646  0.2334  0.7594
 1550SOL    HW2 5550   2.907   4.838   3.143 -0.2099 -0.0503  0.2252
 1551SOL     OW 5551   6.715   1.814   1.604  0.2436 -0.0010  0.0843
 1551SOL    HW1 5552   6.633   1.833   1.658 -0.2941 -1.2474 -0.2567
 1551SOL    HW2 5553   6.693   1.819   1.507  0.8817  0.8707 -0.0301
 1552SOL     OW 5554   1.698   6.499   1.243  0.7363 -0.3221 -0.3674
 1552SOL    HW1 5555   1.719   6.410   1.284 -0.6625  0.7131  2.9669
 1552SOL    HW2 5556   1.599   6.505   1.227  0.6110  1.0210  0.6880
 1553SOL     OW 5557   6.900   3.014   0.582  0.0292 -0.4334  0.3036
 1553SOL    HW1 5558   6.886   3.053   0.491  0.7466 -0.6029  0.1130
 1553SOL    HW2 5559   6.825   3.043   0.642 -0.1800  0.1067 -0.1993
 1554SOL     OW 5560   3.440   4.455   0.902 -0.2042  0.7015  0.4941
 1554SOL    HW1 5561   3.523   4.404   0.883  0.3512  1.9318 -0.5121
 1554SOL    HW2 5562   3.461   4.553   0.908 -1.0503  0.8186  3.3460
 1555SOL     OW 5563   5.199   5.974   6.812 -0.4009  0.2403  0.1390
 1555SOL    HW1 5564   5.202   5.949   6.909  0.5082 -0.1358  0.0186
 1555SOL    HW2 5565   5.232   5.897   6.757 -1.8307  0.0808 -0.5513
 1556SOL     OW 5566   0.567   2.432   5.923 -0.0322 -0.0419  0.5911
 1556SOL    HW1 5567   0.636   2.501   5.944  0.5418  0.2378 -1.8684
 1556SOL    HW2 5568   0.486   2.477   5.884 -0.2988 -0.6168  0.4693
 1557SOL     OW 5569   2.443   3.882   6.604 -0.2006 -0.6281 -0.3034
 1557SOL    HW1 5570   2.482   3.790   6.615  0.7570 -0.3488 -1.2348
 1557SOL    HW2 5571   2.352   3.884   6.645 -0.1899 -1.9656 -0.1589
 1558SOL     OW 5572   6.224   1.134   5.623  0.0237  0.3103  0.7842
 1558SOL    HW1 5573   6.201   1.051   5.674 -0.1100  0.3614  0.8057
 1558SOL    HW2 5574   6.281   1.110   5.545  3.2589  0.5377  2.8753
 1559SOL     OW 5575   1.443   5.888   3.779  0.4366 -0.1044 -0.6767
 1559SOL    HW1 5576   1.375   5.825   3.816  1.0403 -1.8482 -2.3500
 1559SOL    HW2 5577   1.419   5.982   3.804 -2.9079 -0.5686 -1.5992
 1560SOL     OW 5578   5.707   3.453   1.631  0.1543 -0.0042  0.1310
 1560SOL    HW1 5579   5.782   3.471   1.695 -1.0499 -1.9672  2.2405
 1560SOL    HW2 5580   5.621   3.488   1.669 -0.7534 -2.1068  0.1448
 1561SOL     OW 5581   6.973   4.175   1.006  0.1443 -0.3002 -0.2838
 1561SOL    HW1 5582   6.945   4.160   0.912 -0.5807  0.4044 -0.1879
 1561SOL    HW2 5583   6.916   4.120   1.067  1.2476 -1.5218 -0.2933
 1562SOL     OW 5584   2.793   0.869   3.219 -0.2891  0.4322 -0.4819
 1562SOL    HW1 5585   2.702   0.855   3.180 -1.2789  0.7645  1.5943
 1562SOL    HW2 5586   2.796   0.833   3.312  0.4940  3.6812  0.9167
 1563SOL     OW 5587   1.857   5.666   3.603 -0.1117 -0.4380 -0.0739
 1563SOL    HW1 5588   1.912   5.638   3.682  0.2326 -0.7590 -0.4253
 1563SOL    HW2 5589   1.783   5.727   3.634  0.5916  0.2044  0.3590
 1564SOL     OW 5590   1.255   2.734   3.052 -0.6719  0.0216 -0.1499
 1564SOL    HW1 5591   1.279   2.709   2.958 -1.0843  1.2028 -0.5797
 1564SOL    HW2 5592   1.291   2.664   3.114 -0.6218 -0.9193 -1.1926
 1565SOL     OW 5593   0.065   1.932   0.877 -0.0165 -0.1278  0.6174
 1565SOL    HW1 5594   0.041   1.836   0.861  0.3099 -0.1178  0.0324
 1565SOL    HW2 5595   0.127   1.938   0.956 -0.4535 -0.3401  0.9788
 1566SOL     OW 5596   6.753   1.539   1.657 -0.3241 -0.3098 -0.3818
 1566SOL    HW1 5597   6.711   1.480   1.589  2.0486 -1.2572 -1.1346
 1566SOL    HW2 5598   6.726   1.634   1.641 -0.8562 -0.6822 -1.8040
 1567SOL     OW 5599   5.152   2.495   2.804 -0.1725  0.0136  0.2637
 1567SOL    HW1 5600   5.102   2.480   2.889  0.6200 -2.4546  0.3967
 1567SOL    HW2 5601   5.195   2.585   2.805  0.6278 -0.3222  2.9461
 1568SOL     OW 5602   1.016   5.930   1.075 -0.2523  0.3162 -0.2083
 1568SOL    HW1 5603   0.923   5.895   1.084 -1.1592  2.7342  0.7947
 1568SOL    HW2 5604   1.036   5.990   1.153  2.0925  0.0300 -0.5163
 1569SOL     OW 5605   1.168   1.017   2.807 -0.4852  0.5578 -0.0603
 1569SOL    HW1 5606   1.240   0.947   2.804 -1.1156 -0.1596 -3.7596
 1569SOL    HW2 5607   1.079   0.973   2.790 -1.3478  1.9125  0.7675
 1570SOL     OW 5608   5.001   5.278   6.428  0.2758  0.6198 -0.3920
 1570SOL    HW1 5609   4.950   5.254   6.345 -1.1695 -0.2651  0.7004
 1570SOL    HW2 5610   4.985   5.375   6.450 -1.9046  0.1199  0.5114
 1571SOL     OW 5611   2.457   2.677   3.773  0.5279 -0.0623  0.5851
 1571SOL    HW1 5612   2.382   2.611   3.773  0.8851 -0.4959  1.7376
 1571SOL    HW2 5613   2.474   2.708   3.679 -1.0949  0.0821  0.3180
 1572SOL     OW 5614   2.235   6.474   4.505 -0.0946  0.0174 -0.0512
 1572SOL    HW1 5615   2.330   6.488   4.477 -0.4749  0.5102 -1.1669
 1572SOL    HW2 5616   2.232   6.436   4.597  1.1869 -0.2600 -0.1127
 1573SOL     OW 5617   6.922   5.458   5.694  0.0548 -0.2230 -0.0371
 1573SOL    HW1 5618   6.914   5.433   5.598  0.0282  0.7008 -0.2792
 1573SOL    HW2 5619   6.920   5.557   5.704  1.9232 -0.2156  0.7297
 1574SOL     OW 5620   6.687   2.784   3.646  0.2775 -0.3328  0.0087
 1574SOL    HW1 5621   6.655   2.853   3.582  0.9217 -0.3534 -0.3385
 1574SOL    HW2 5622   6.784   2.797   3.664  0.2587 -0.7527  0.4478
 1575SOL     OW 5623   0.533   2.713   1.311  0.2083  0.6960  0.8204
 1575SOL    HW1 5624   0.452   2.717   1.370 -1.1182  1.6749 -0.9656
 1575SOL    HW2 5625   0.573   2.804   1.303  0.6400  0.4880  0.5748
 1576SOL     OW 5626   0.828   6.999   2.142  0.5093 -0.4733 -0.1934
 1576SOL    HW1 5627   0.825   7.098   2.123  1.9483 -0.1858  0.9035
 1576SOL    HW2 5628   0.852   6.950   2.058 -0.7421  0.0323 -0.8822
 1577SOL     OW 5629   4.732   6.052   3.536 -0.3001  0.5051 -0.2779
 1577SOL    HW1 5630   4.704   6.061   3.441  0.4567  1.7200 -0.4115
 1577SOL    HW2 5631   4.752   5.956   3.557 -1.6000  0.0618 -0.9995
 1578SOL     OW 5632   0.388   0.585   2.173 -0.3707  0.2633  0.2339
 1578SOL    HW1 5633   0.460   0.517   2.159 -0.8086  0.3136 -3.2419
 1578SOL    HW2 5634   0.325   0.554   2.244  0.3895 -2.1469 -0.0746
 1579SOL     OW 5635   2.202   3.935   3.443  0.4542  0.6707  0.2428
 1579SOL    HW1 5636   2.230   3.844   3.473  0.4070  0.4781 -0.2889
 1579SOL    HW2 5637   2.266   4.003   3.479  0.9301  0.3513  0.0097
 1580SOL     OW 5638   3.865   4.005   4.331  0.3052 -0.7219  0.1500
 1580SOL    HW1 5639   3.931   4.027   4.402  0.7921 -0.6327 -0.3277
 1580SOL    HW2 5640   3.799   3.938   4.366 -1.0320  1.2031  1.5462
 1581SOL     OW 5641   3.918   6.233   4.655  0.1138  0.4301 -0.2530
 1581SOL    HW1 5642   3.947   6.215   4.561 -0.8732  0.9378 -0.6772
 1581SOL    HW2 5643   3.994   6.272   4.706  0.2611  1.5361 -1.2635
 1582SOL     OW 5644   4.626   4.720   2.575  0.3250  0.4433 -0.2437
 1582SOL    HW1 5645   4.715   4.759   2.551 -0.1392  0.6259 -1.8139
 1582SOL    HW2 5646   4.562   4.794   2.595  0.1945  0.3667 -0.3809
 1583SOL     OW 5647   5.981   5.420   2.435 -0.5906 -0.0761  0.1759
 1583SOL    HW1 5648   6.033   5.486   2.490  2.0141 -1.4611 -0.4747
 1583SOL    HW2 5649   5.931   5.359   2.496  1.0883 -0.6737  1.0024
 1584SOL     OW 5650   0.663   3.735   0.593  0.3549 -0.0322  0.1314
 1584SOL    HW1 5651   0.598   3.758   0.666  0.4119  0.7606 -0.0606
 1584SOL    HW2 5652   0.662   3.807   0.523  0.8892 -0.3873 -0.2484
 1585SOL     OW 5653   4.882   0.119   5.024 -0.1942 -0.4140  0.0574
 1585SOL    HW1 5654   4.981   0.107   5.034 -0.2938 -1.6342 -0.3036
 1585SOL    HW2 5655   4.864   0.186   4.951  0.3562  0.0555  0.3423
 1586SOL     OW 5656   2.603   6.849   3.525 -0.1654  0.4902  0.8716
 1586SOL    HW1 5657   2.574   6.845   3.430 -0.2396  0.4000  0.8979
 1586SOL    HW2 5658   2.522   6.849   3.585 -0.1026 -0.3881  0.9675
 1587SOL     OW 5659   2.630   4.917   2.462  0.1097  0.5009 -0.0428
 1587SOL    HW1 5660   2.643   4.817   2.464 -0.6988  0.3303 -1.3510
 1587SOL    HW2 5661   2.668   4.953   2.376 -0.3787  1.1842  0.0204
 1588SOL     OW 5662   5.361   3.409   3.272 -1.0328 -0.2368 -0.2763
 1588SOL    HW1 5663   5.370   3.482   3.339 -1.0612  0.0445 -0.5765
 1588SOL    HW2 5664   5.265   3.383   3.263 -1.0546 -0.1301 -0.3578
 1589SOL     OW 5665   5.376   1.070   3.494  0.3304  0.6179  0.1423
 1589SOL    HW1 5666   5.408   0.983   3.532  3.4444  1.4448 -0.3265
 1589SOL    HW2 5667   5.282   1.059   3.461 -0.0337 -2.0007  1.7904
 1590SOL     OW 5668   6.630   0.298   2.619 -0.0883  0.7104  0.1903
 1590SOL    HW1 5669   6.535   0.283   2.590 -0.1642  1.4924 -0.0150
 1590SOL    HW2 5670   6.640   0.276   2.716 -1.2115  3.3519  0.9977
 1591SOL     OW 5671   0.462   5.226   1.261  0.0017 -0.3281  0.5440
 1591SOL    HW1 5672   0.381   5.194   1.310 -0.6549 -0.1494 -0.4006
 1591SOL    HW2 5673   0.515   5.147   1.229  0.6203 -0.4467  1.8094
 1592SOL     OW 5674   0.331   5.479   5.813 -0.1590 -0.3176  0.5416
 1592SOL    HW1 5675   0.333   5.404   5.747 -0.0912 -0.2599  0.4775
 1592SOL    HW2 5676   0.243   5.479   5.860 -0.8737  0.6572 -0.7368
 1593SOL     OW 5677   3.927   4.390   1.500 -0.2000 -0.1155 -0.3775
 1593SOL    HW1 5678   3.996   4.322   1.475  0.1143  0.3474 -0.7869
 1593SOL    HW2 5679   3.837   4.347   1.503  0.0126 -0.5719 -0.5263
 1594SOL     OW 5680   4.869   1.554   2.654 -0.3559  1.0253 -0.5929
 1594SOL    HW1 5681   4.879   1.567   2.753 -0.8332 -0.9259 -0.2401
 1594SOL    HW2 5682   4.960   1.556   2.611  0.2814 -1.5723  0.4289
 1595SOL     OW 5683   6.490   4.628   6.625  0.0366 -0.0395  0.0747
 1595SOL    HW1 5684   6.496   4.713   6.574  1.0428  0.2054  0.5810
 1595SOL    HW2 5685   6.505   4.551   6.563  1.5048  0.2631  0.0240
 1596SOL     OW 5686   3.868   4.857   3.995 -0.0726 -0.0868  0.0063
 1596SOL    HW1 5687   3.869   4.930   3.927  2.0887 -1.2445 -1.2926
 1596SOL    HW2 5688   3.792   4.795   3.976 -1.1061  1.0437  0.3131
 1597SOL     OW 5689   2.583   5.649   2.361  0.0951 -0.2000  0.3830
 1597SOL    HW1 5690   2.658   5.710   2.383  0.4796  0.4471 -2.3184
 1597SOL    HW2 5691   2.601   5.558   2.398  0.1914  0.9035  3.2417
 1598SOL     OW 5692   1.911   5.541   0.024 -0.5771 -0.2323 -0.2662
 1598SOL    HW1 5693   1.982   5.597  -0.020  0.4549 -0.9728  0.4133
 1598SOL    HW2 5694   1.835   5.529  -0.039 -0.3859  1.0998 -0.7925
 1599SOL     OW 5695   4.738   6.145   4.014 -0.5121 -0.2677  0.6556
 1599SOL    HW1 5696   4.697   6.236   4.021  1.9114  0.9251  0.4477
 1599SOL    HW2 5697   4.838   6.153   4.019 -0.2291 -2.9545  0.7799
 1600SOL     OW 5698   0.109   1.398   1.777 -0.2109  0.0124  0.2794
 1600SOL    HW1 5699   0.112   1.300   1.758 -0.0049  0.3040 -1.3561
 1600SOL    HW2 5700   0.194   1.426   1.821  0.1594 -0.3820 -0.1750
 1601SOL     OW 5701   6.947   0.613   6.105  0.6453  0.1585  0.7313
 1601SOL    HW1 5702   7.021   0.570   6.157 -0.8297 -2.5432  0.7883
 1601SOL    HW2 5703   6.859   0.589   6.146 -0.4244  0.5141 -1.2229
 1602SOL     OW 5704   4.903   5.560   3.445  0.1966  0.2290 -0.0892
 1602SOL    HW1 5705   4.913   5.583   3.542 -0.7493  1.2560 -0.2214
 1602SOL    HW2 5706   4.819   5.600   3.409  1.1941  1.0345 -1.6673
 1603SOL     OW 5707   2.673   5.361   2.419  0.4311  0.0437 -0.2717
 1603SOL    HW1 5708   2.706   5.328   2.331  0.6079 -0.7433  0.0838
 1603SOL    HW2 5709   2.599   5.302   2.452 -0.9856  1.4398 -0.7835
 1604SOL     OW 5710   4.995   6.032   0.902  0.6110  0.3781  0.0181
 1604SOL    HW1 5711   4.970   6.076   0.988  1.6486  0.4166  0.3211
 1604SOL    HW2 5712   5.034   5.942   0.921 -1.6466 -0.7962 -0.6013
 1605SOL     OW 5713   2.494   5.416   6.070  0.6957 -0.3269  0.2392
 1605SOL    HW1 5714   2.469   5.321   6.050  0.3273 -0.0704 -0.5022
 1605SOL    HW2 5715   2.436   5.478   6.019  0.2752  0.3282  1.4787
 1606SOL     OW 5716   5.784   5.741   6.106 -0.3266  0.7724  0.8697
 1606SOL    HW1 5717   5.824   5.807   6.170  3.4315  0.0960 -0.5288
 1606SOL    HW2 5718   5.743   5.790   6.029  0.8375  1.5342  0.7154
 1607SOL     OW 5719   3.313   5.531   5.231  0.0210  0.3918  0.2390
 1607SOL    HW1 5720   3.235   5.548   5.291 -1.1650  2.2086 -1.6866
 1607SOL    HW2 5721   3.388   5.592   5.255 -0.3444  0.9108  0.0818
 1608SOL     OW 5722   5.485   4.555   3.060 -0.1906  0.0465 -0.0643
 1608SOL    HW1 5723   5.545   4.544   2.981 -0.3274  0.3867 -0.2194
 1608SOL    HW2 5724   5.392   4.574   3.028  0.0931  1.9896  0.1721
 1609SOL     OW 5725   1.023   0.797   2.020  0.0422 -0.5107  0.3263
 1609SOL    HW1 5726   0.979   0.855   2.089  1.0487  1.8644 -0.8879
 1609SOL    HW2 5727   0.954   0.757   1.961 -0.6642  0.4570  0.4658
 1610SOL     OW 5728   4.995   5.180   6.696 -0.3598  0.3907  0.7526
 1610SOL    HW1 5729   4.950   5.200   6.609 -0.5906  0.7643  0.9511
 1610SOL    HW2 5730   5.092   5.164   6.681 -0.7661 -1.7307  0.1337
 1611SOL     OW 5731   1.624   5.363   0.746 -0.1160 -0.7430  0.3368
 1611SOL    HW1 5732   1.705   5.412   0.776 -0.7820  1.7296 -1.5333
 1611SOL    HW2 5733   1.603   5.388   0.652 -1.2151 -3.8681 -0.3903
 1612SOL     OW 5734   3.551   0.261   2.574  0.2402  0.1590 -0.1636
 1612SOL    HW1 5735   3.610   0.186   2.604 -0.7040  0.0131  1.4887
 1612SOL    HW2 5736   3.460   0.224   2.552 -0.2592  0.7853  0.7564
 1613SOL     OW 5737   0.753   5.395   3.055 -0.0319 -0.6448 -0.7196
 1613SOL    HW1 5738   0.711   5.387   3.146 -1.2478  1.1300 -1.0596
 1613SOL    HW2 5739   0.697   5.346   2.988  1.0674 -2.2736 -0.5022
 1614SOL     OW 5740   6.635   2.487   6.886  0.1370 -0.2367  0.0472
 1614SOL    HW1 5741   6.582   2.564   6.850 -1.2083 -1.0422  0.2166
 1614SOL    HW2 5742   6.731   2.514   6.896 -0.6321  2.1320  2.1052
 1615SOL     OW 5743   5.956   3.070   6.099  0.2266 -0.1632  0.2712
 1615SOL    HW1 5744   5.887   3.038   6.164 -0.5694 -0.8300 -0.8662
 1615SOL    HW2 5745   6.037   3.100   6.149 -0.9158  0.7503  1.6375
 1616SOL     OW 5746   5.507   6.724   4.565 -0.2096 -0.8706  0.4665
 1616SOL    HW1 5747   5.594   6.764   4.534 -1.3733  0.7372 -0.9022
 1616SOL    HW2 5748   5.488   6.642   4.512 -0.2391 -0.3753 -0.3041
 1617SOL     OW 5749   6.446   6.161   5.403 -0.5269  0.5458  0.2662
 1617SOL    HW1 5750   6.377   6.210   5.348 -1.9428 -0.2709  1.2487
 1617SOL    HW2 5751   6.402   6.084   5.449  1.2050 -0.3602  0.4599
 1618SOL     OW 5752   3.403   6.153   2.576 -0.4188 -0.3851 -0.1517
 1618SOL    HW1 5753   3.421   6.057   2.598  0.2339 -0.4103 -0.7462
 1618SOL    HW2 5754   3.389   6.163   2.477 -0.2592  0.1661 -0.1236
 1619SOL     OW 5755   0.667   5.663   7.010 -0.1539 -0.0372 -0.6185
 1619SOL    HW1 5756   0.765   5.662   7.031 -0.4984  1.3390  1.2750
 1619SOL    HW2 5757   0.648   5.734   6.943  0.2899 -1.2309 -2.0677
 1620SOL     OW 5758   2.028   0.503   5.606  0.2172 -0.0773  0.2217
 1620SOL    HW1 5759   2.004   0.479   5.700 -1.4229  0.8607  0.0839
 1620SOL    HW2 5760   1.975   0.583   5.577 -1.3018 -1.8594 -2.3563
 1621SOL     OW 5761   5.834   5.173   0.959  0.0384  0.3021 -0.3164
 1621SOL    HW1 5762   5.806   5.255   1.008 -1.2465  0.5554 -1.4165
 1621SOL    HW2 5763   5.814   5.183   0.861 -0.7993 -1.5607 -0.3936
 1622SOL     OW 5764   5.195   3.346   4.138  0.5074 -0.4802  0.5564
 1622SOL    HW1 5765   5.292   3.323   4.133  0.5927 -0.3396  1.3218
 1622SOL    HW2 5766   5.161   3.368   4.047  1.1634 -0.6587  0.2607
 1623SOL     OW 5767   0.328   1.432   5.529 -0.2794  0.5024 -0.0692
 1623SOL    HW1 5768   0.321   1.442   5.430 -1.1989  0.2998 -0.0322
 1623SOL    HW2 5769   0.246   1.468   5.572  1.1173  2.9315  0.8212
 1624SOL     OW 5770   5.337   1.531   1.382 -0.3501  0.0296  0.7073
 1624SOL    HW1 5771   5.331   1.628   1.357 -0.5266 -0.0842  0.3052
 1624SOL    HW2 5772   5.298   1.518   1.473 -2.0482  0.0380  0.0032
 1625SOL     OW 5773   1.340   5.868   5.727 -0.1142  0.2286  0.6279
 1625SOL    HW1 5774   1.273   5.942   5.725  0.9980  1.2631  0.5062
 1625SOL    HW2 5775   1.322   5.809   5.805 -1.7491 -0.0902  0.0489
 1626SOL     OW 5776   2.236   1.165   1.457 -0.2844 -0.4704 -0.7852
 1626SOL    HW1 5777   2.221   1.096   1.528 -2.3890 -0.6124 -1.3067
 1626SOL    HW2 5778   2.172   1.240   1.468  0.7391  0.5256 -1.3369
 1627SOL     OW 5779   3.997   5.785   5.695  0.7354  0.7806  0.2577
 1627SOL    HW1 5780   4.049   5.865   5.664  0.2181  1.2637  0.6056
 1627SOL    HW2 5781   4.033   5.703   5.651  0.8404  1.2847 -0.6349
 1628SOL     OW 5782   3.550   5.713   1.885  0.6995  0.7608 -0.7326
 1628SOL    HW1 5783   3.625   5.747   1.942  0.6094  1.4971 -1.0446
 1628SOL    HW2 5784   3.544   5.768   1.801 -0.3567  0.8741 -0.5912
 1629SOL     OW 5785   2.146   5.616   2.465  0.1175  0.6329  0.6033
 1629SOL    HW1 5786   2.154   5.704   2.418  0.6656  0.7452  0.8974
 1629SOL    HW2 5787   2.210   5.550   2.426 -0.6170  0.2187  0.0783
 1630SOL     OW 5788   6.321   4.687   3.173  0.3643 -0.2593  0.5135
 1630SOL    HW1 5789   6.242   4.674   3.233  0.2803  0.2988  0.5348
 1630SOL    HW2 5790   6.306   4.767   3.114  1.2343  0.3489  1.0795
 1631SOL     OW 5791   4.632   4.719   6.226 -0.0217 -0.6095 -0.6753
 1631SOL    HW1 5792   4.684   4.767   6.297 -0.3384 -0.4397 -0.5568
 1631SOL    HW2 5793   4.576   4.648   6.268 -2.1601  1.1387 -0.4235
 1632SOL     OW 5794   6.645   4.633   2.261  0.0597  0.1028  0.0863
 1632SOL    HW1 5795   6.663   4.616   2.358 -1.5421 -1.7901  0.0971
 1632SOL    HW2 5796   6.606   4.725   2.251 -1.3041 -0.2643  1.4930
 1633SOL     OW 5797   6.068   3.278   4.370 -0.1528 -0.1067 -1.2715
 1633SOL    HW1 5798   6.044   3.375   4.377 -2.0949 -0.6262  0.5731
 1633SOL    HW2 5799   6.089   3.256   4.275 -1.2048  1.7891 -2.0086
 1634SOL     OW 5800   0.602   5.198   4.791 -0.4451 -0.2818 -0.4194
 1634SOL    HW1 5801   0.623   5.224   4.697  0.0449  2.8859  0.4416
 1634SOL    HW2 5802   0.679   5.146   4.829 -0.1885 -0.6531 -1.4085
 1635SOL     OW 5803   3.215   6.861   5.446 -0.0792 -0.7256 -0.2335
 1635SOL    HW1 5804   3.264   6.911   5.518 -1.9720 -0.1725  0.7446
 1635SOL    HW2 5805   3.183   6.925   5.377  1.0783 -1.1694 -1.2332
 1636SOL     OW 5806   5.064   6.788   2.419  0.6505  0.0265  1.0083
 1636SOL    HW1 5807   5.134   6.719   2.433 -0.0943 -0.7870  0.8152
 1636SOL    HW2 5808   4.981   6.762   2.467  0.0004  0.2177  0.0285
 1637SOL     OW 5809   1.439   2.932   1.801  0.0187  0.1305  0.1264
 1637SOL    HW1 5810   1.503   2.964   1.870  0.1842 -0.9608  0.5064
 1637SOL    HW2 5811   1.489   2.897   1.722 -0.1445  0.4343 -0.1140
 1638SOL     OW 5812   4.275   0.753   4.725  0.7308 -0.0584 -0.1839
 1638SOL    HW1 5813   4.333   0.798   4.657 -0.1188 -0.2805 -1.0891
 1638SOL    HW2 5814   4.182   0.747   4.689  0.0753  0.5351  1.3355
 1639SOL     OW 5815   5.491   0.564   2.878  0.1783  0.0263  0.2557
 1639SOL    HW1 5816   5.545   0.623   2.937 -0.0552  0.5024 -0.0004
 1639SOL    HW2 5817   5.439   0.498   2.933  0.4792  0.0251  0.5372
 1640SOL     OW 5818   6.709   0.628   0.084  0.0701 -0.4297 -0.0449
 1640SOL    HW1 5819   6.654   0.565   0.028  0.9887 -0.6452 -0.7182
 1640SOL    HW2 5820   6.781   0.577   0.130 -0.6772 -0.2536  1.3757
 1641SOL     OW 5821   5.963   0.620   1.848 -0.5487  0.1978  0.3413
 1641SOL    HW1 5822   6.017   0.703   1.834 -0.0092  0.0712  1.5565
 1641SOL    HW2 5823   5.923   0.591   1.761  0.3423  0.9790 -0.3492
 1642SOL     OW 5824   1.265   5.139   6.338  0.0616  0.4252 -0.2962
 1642SOL    HW1 5825   1.363   5.148   6.357  0.0248  0.9140 -0.3271
 1642SOL    HW2 5826   1.229   5.058   6.385  0.3703  0.5390  0.1426
 1643SOL     OW 5827   0.805   5.047   4.105  0.3625 -0.1850 -0.0365
 1643SOL    HW1 5828   0.891   5.030   4.154  0.1543 -1.6215 -0.1101
 1643SOL    HW2 5829   0.808   5.001   4.017  0.1925  1.2395 -0.8136
 1644SOL     OW 5830   6.126   1.313   3.459 -0.0558 -0.1480 -0.0089
 1644SOL    HW1 5831   6.164   1.255   3.532  0.4888  1.5871  1.1525
 1644SOL    HW2 5832   6.058   1.375   3.498  0.4333  0.9867 -0.9241
 1645SOL     OW 5833   0.942   2.002   4.113 -0.0871 -0.0738 -0.3354
 1645SOL    HW1 5834   0.866   2.067   4.123 -0.4501 -0.6824  1.1478
 1645SOL    HW2 5835   0.970   1.999   4.018 -0.1664  2.1309 -0.4943
 1646SOL     OW 5836   6.291   0.228   2.957  1.0071  0.5776  0.1325
 1646SOL    HW1 5837   6.194   0.212   2.977  0.7682  1.4368 -0.2573
 1646SOL    HW2 5838   6.298   0.290   2.878  1.8426  1.8955  1.2006
 1647SOL     OW 5839   1.204   5.585   3.358 -0.8524  0.0598  0.2366
 1647SOL    HW1 5840   1.234   5.501   3.312 -1.9284 -1.2097  1.7064
 1647SOL    HW2 5841   1.281   5.626   3.407 -0.6382 -1.0336  0.8620
 1648SOL     OW 5842   4.194   6.649   3.616 -0.5335  0.4459 -0.7866
 1648SOL    HW1 5843   4.141   6.567   3.637  0.4898 -0.1944 -0.5945
 1648SOL    HW2 5844   4.166   6.724   3.676  1.4197 -0.9766  2.1045
 1649SOL     OW 5845   2.983   1.853   3.582 -0.4820 -0.3980 -0.0741
 1649SOL    HW1 5846   3.010   1.886   3.492 -0.6139 -3.5088 -1.3779
 1649SOL    HW2 5847   2.891   1.887   3.604  0.1771  1.6889 -0.3110
 1650SOL     OW 5848   2.695   2.106   5.538 -0.0999 -0.0732  0.4913
 1650SOL    HW1 5849   2.708   2.008   5.553 -0.7829  0.1261  2.7899
 1650SOL    HW2 5850   2.781   2.154   5.551  0.3538 -0.3789 -1.1593
 1651SOL     OW 5851   1.809   2.529   4.479  0.2238  0.1623  0.7967
 1651SOL    HW1 5852   1.730   2.588   4.498 -0.8454 -1.2357  0.8236
 1651SOL    HW2 5853   1.882   2.549   4.545 -0.0587  1.5256  0.7247
 1652SOL     OW 5854   0.881   4.014   1.452  0.3060 -0.1418  0.0471
 1652SOL    HW1 5855   0.926   3.968   1.376  1.5198 -0.8423  1.1432
 1652SOL    HW2 5856   0.940   4.011   1.533 -1.3112 -0.2217  1.2780
 1653SOL     OW 5857   5.619   4.782   3.369  0.7628 -0.4805 -0.1029
 1653SOL    HW1 5858   5.605   4.702   3.428  3.2405 -0.5416  0.5201
 1653SOL    HW2 5859   5.602   4.865   3.421  2.9058 -0.5351  0.8066
 1654SOL     OW 5860   0.323   2.076   2.674 -0.5906 -0.6639 -1.2624
 1654SOL    HW1 5861   0.291   2.083   2.768  0.4559 -0.1089 -0.9362
 1654SOL    HW2 5862   0.258   2.123   2.613 -0.1309  1.0022 -0.5395
 1655SOL     OW 5863   6.817   0.926   6.485 -0.3444 -0.0805 -0.0773
 1655SOL    HW1 5864   6.875   1.006   6.468  0.9348 -0.5083  1.9261
 1655SOL    HW2 5865   6.856   0.846   6.440 -0.5694  0.0495 -0.5041
 1656SOL     OW 5866   2.268   5.177   2.295 -0.7660 -0.5887 -0.7308
 1656SOL    HW1 5867   2.311   5.098   2.337  1.2168  0.3958 -0.7864
 1656SOL    HW2 5868   2.327   5.214   2.223 -0.6877  2.0269  0.5384
 1657SOL     OW 5869   7.002   2.544   5.901  0.2468 -0.6704 -0.6104
 1657SOL    HW1 5870   6.986   2.547   6.000  2.1081 -0.3514 -0.2939
 1657SOL    HW2 5871   6.923   2.582   5.854  0.5934  2.1458  0.9063
 1658SOL     OW 5872   2.675   0.603   3.356 -0.0847 -0.6083  0.1067
 1658SOL    HW1 5873   2.591   0.578   3.309  0.9973 -0.4288 -2.0749
 1658SOL    HW2 5874   2.713   0.524   3.403 -1.9364 -0.4554  1.9849
 1659SOL     OW 5875   2.782   1.957   1.169 -0.2362  0.9404  0.1952
 1659SOL    HW1 5876   2.697   1.959   1.221  0.3140  1.4957  1.1075
 1659SOL    HW2 5877   2.849   2.018   1.212  1.0200 -0.3646  0.1645
 1660SOL     OW 5878   3.577   1.219   1.047 -0.8072 -0.2357 -0.4470
 1660SOL    HW1 5879   3.489   1.203   1.093 -0.2995 -3.2049 -0.3165
 1660SOL    HW2 5880   3.611   1.310   1.070 -4.0681  1.2569 -0.9431
 1661SOL     OW 5881   3.779   5.402   4.336  0.5287 -0.1720 -0.2930
 1661SOL    HW1 5882   3.756   5.307   4.318 -0.0494 -0.2407  0.7267
 1661SOL    HW2 5883   3.866   5.407   4.384 -0.7297 -0.4374  2.2120
 1662SOL     OW 5884   1.227   1.237   3.461  0.3450 -0.1040  0.3093
 1662SOL    HW1 5885   1.204   1.255   3.366  0.7177 -0.7452  0.0917
 1662SOL    HW2 5886   1.317   1.194   3.467 -0.1647 -1.1431  0.8455
 1663SOL     OW 5887   5.983   3.790   2.165 -0.4263  0.2682  0.9178
 1663SOL    HW1 5888   6.062   3.736   2.137 -1.4008 -1.0058  0.5382
 1663SOL    HW2 5889   5.911   3.729   2.197 -2.3772  1.1256 -1.4981
 1664SOL     OW 5890   6.579   0.800   6.372  0.1316  0.2045 -0.1640
 1664SOL    HW1 5891   6.532   0.742   6.438  1.3494 -0.4248  0.1812
 1664SOL    HW2 5892   6.644   0.859   6.420 -0.5441  1.3315 -0.5939
 1665SOL     OW 5893   1.479   4.108   0.092 -0.5341 -0.3889  0.5711
 1665SOL    HW1 5894   1.441   4.025   0.051 -1.0816  0.5885 -0.9648
 1665SOL    HW2 5895   1.405   4.167   0.123 -0.1558 -0.2647  1.2671
 1666SOL     OW 5896   4.333   4.723   4.212 -0.3298 -0.0360 -0.6521
 1666SOL    HW1 5897   4.233   4.734   4.210 -0.5199 -1.5732 -1.1895
 1666SOL    HW2 5898   4.372   4.759   4.127 -0.4902  0.0919 -0.6718
 1667SOL     OW 5899   0.289   0.100   1.928 -0.0844 -0.3991 -0.6317
 1667SOL    HW1 5900   0.381   0.065   1.908  0.3993  0.5688 -0.1382
 1667SOL    HW2 5901   0.283   0.196   1.900 -0.9750 -0.4699 -0.7200
 1668SOL     OW 5902   5.623   2.912   1.850 -0.2241 -0.2853  0.3125
 1668SOL    HW1 5903   5.704   2.938   1.904 -1.8416  1.5617  1.9828
 1668SOL    HW2 5904   5.567   2.848   1.903 -0.5436 -0.5174 -0.2948
 1669SOL     OW 5905   5.457   2.103   6.733  0.0739  0.0374  0.2030
 1669SOL    HW1 5906   5.361   2.131   6.727 -0.0735 -0.2634  0.9931
 1669SOL    HW2 5907   5.502   2.153   6.807  1.0619  1.6192 -1.3804
 1670SOL     OW 5908   2.101   4.519   5.318  0.0931 -0.2247  0.4922
 1670SOL    HW1 5909   2.170   4.510   5.390  0.7494  0.5169 -0.0217
 1670SOL    HW2 5910   2.147   4.531   5.230 -0.6999  0.2149  0.1317
 1671SOL     OW 5911   0.117   1.911   0.416 -0.2650  0.0807  0.4000
 1671SOL    HW1 5912   0.093   1.994   0.366  0.6919  1.4222  2.0691
 1671SOL    HW2 5913   0.072   1.911   0.505  1.5213 -0.0424  1.3498
 1672SOL     OW 5914   1.395   2.627   1.618  0.0970  0.0654  0.3607
 1672SOL    HW1 5915   1.332   2.705   1.616  1.1514  0.9939  1.5732
 1672SOL    HW2 5916   1.483   2.656   1.657 -0.2100 -2.2255  3.0974
 1673SOL     OW 5917   0.791   0.071   6.692  0.2549 -0.0688  0.0663
 1673SOL    HW1 5918   0.846   0.008   6.638  0.9420  0.8652 -0.3586
 1673SOL    HW2 5919   0.734   0.127   6.631 -0.6603 -0.5434  0.4615
 1674SOL     OW 5920   4.325   2.247   5.228  0.0844  0.3734  0.4557
 1674SOL    HW1 5921   4.258   2.174   5.241  0.1790  0.3013  0.5438
 1674SOL    HW2 5922   4.400   2.213   5.170  0.3164  0.2790  0.8044
 1675SOL     OW 5923   4.204   1.846   3.016 -0.1173 -0.4990  0.1003
 1675SOL    HW1 5924   4.178   1.750   3.033 -1.7570 -0.0602  0.2758
 1675SOL    HW2 5925   4.131   1.906   3.049  1.1149  0.8522  0.4470
 1676SOL     OW 5926   4.784   1.405   3.148  0.5615  0.3311  0.4632
 1676SOL    HW1 5927   4.777   1.502   3.127 -0.1950  0.4873  1.3628
 1676SOL    HW2 5928   4.862   1.365   3.100  0.4792  1.2349 -0.4353
 1677SOL     OW 5929   3.103   3.046   2.905  0.3742  0.0227 -0.1851
 1677SOL    HW1 5930   3.053   3.089   2.829  2.4108  2.5612 -0.2326
 1677SOL    HW2 5931   3.184   3.000   2.869  0.5511 -0.0429  0.3035
 1678SOL     OW 5932   0.843   0.334   1.294 -0.6243 -0.2950  0.3124
 1678SOL    HW1 5933   0.844   0.336   1.394 -0.8472 -0.1490  0.3120
 1678SOL    HW2 5934   0.771   0.271   1.263 -0.8930  0.0455  0.2417
 1679SOL     OW 5935   5.374   2.488   1.778  0.8944 -0.1380 -0.0847
 1679SOL    HW1 5936   5.327   2.553   1.718  1.1051  0.6585  0.6069
 1679SOL    HW2 5937   5.414   2.415   1.722  1.4517  0.8168 -0.9613
 1680SOL     OW 5938   5.843   2.413   3.964  0.4703 -0.1885  0.4025
 1680SOL    HW1 5939   5.795   2.326   3.955  1.6116 -0.6718 -1.3557
 1680SOL    HW2 5940   5.830   2.448   4.057 -1.1950 -1.4998  0.7179
 1681SOL     OW 5941   3.288   6.450   1.576  0.2292 -0.6197  0.2967
 1681SOL    HW1 5942   3.205   6.491   1.539  0.9812 -1.2325 -2.2214
 1681SOL    HW2 5943   3.320   6.504   1.654 -2.3221 -0.2059  1.1393
 1682SOL     OW 5944   4.239   1.799   6.610 -0.0108 -0.3798 -0.3062
 1682SOL    HW1 5945   4.241   1.736   6.688 -2.1067  0.1561  0.2459
 1682SOL    HW2 5946   4.331   1.805   6.570  1.1871 -0.5543  2.1955
 1683SOL     OW 5947   5.276   5.234   2.543 -0.1620  0.8096 -0.5564
 1683SOL    HW1 5948   5.317   5.203   2.629  0.1828  0.5413 -0.8149
 1683SOL    HW2 5949   5.297   5.168   2.471 -1.4348  0.4211 -0.5990
 1684SOL     OW 5950   2.483   6.637   2.366 -0.6967 -0.4224  0.5389
 1684SOL    HW1 5951   2.484   6.632   2.267  0.0987 -1.0386  0.5711
 1684SOL    HW2 5952   2.403   6.690   2.396 -1.0846 -0.4538 -0.4113
 1685SOL     OW 5953   0.504   0.400   6.216 -0.3367 -0.0563 -0.6642
 1685SOL    HW1 5954   0.581   0.357   6.263 -1.1476 -0.6420  0.1623
 1685SOL    HW2 5955   0.475   0.343   6.139 -2.7451 -2.2336  1.6457
 1686SOL     OW 5956   4.080   5.166   1.744  0.0362 -0.1610  0.2342
 1686SOL    HW1 5957   4.149   5.101   1.713  0.2607 -0.2000  0.8164
 1686SOL    HW2 5958   3.992   5.119   1.755  0.0033 -0.1899 -0.1322
 1687SOL     OW 5959   4.258   5.025   0.381 -0.0477 -0.3953  0.1629
 1687SOL    HW1 5960   4.206   5.033   0.296 -0.7792 -0.6022  0.5723
 1687SOL    HW2 5961   4.355   5.015   0.361  0.1335  2.0699 -0.6038
 1688SOL     OW 5962   1.929   0.999   2.390 -0.0594 -0.0408  0.3483
 1688SOL    HW1 5963   1.845   0.962   2.350  0.4961 -0.9070 -0.0505
 1688SOL    HW2 5964   1.907   1.074   2.452 -1.0173  0.6279 -0.7807
 1689SOL     OW 5965   3.385   1.509   1.787  0.3990  0.9317  0.8497
 1689SOL    HW1 5966   3.446   1.502   1.708 -1.2125  0.8281 -0.4345
 1689SOL    HW2 5967   3.396   1.599   1.829 -0.6098  2.0514 -1.1451
 1690SOL     OW 5968   0.531   4.372   3.953  0.1677  0.4804  0.1996
 1690SOL    HW1 5969   0.471   4.451   3.941 -0.6804 -0.1421  0.2547
 1690SOL    HW2 5970   0.476   4.291   3.977  1.1950  0.2910  2.0877
 1691SOL     OW 5971   4.598   3.097   7.014 -0.1294  0.2415  0.1036
 1691SOL    HW1 5972   4.581   3.102   7.112 -1.2553 -1.0476  0.0021
 1691SOL    HW2 5973   4.676   3.035   6.997  1.3088  1.9261  0.2526
 1692SOL     OW 5974   5.244   4.020   3.812 -0.3050 -0.6165 -0.3408
 1692SOL    HW1 5975   5.307   4.097   3.810  0.4394 -1.2199 -1.1345
 1692SOL    HW2 5976   5.216   4.002   3.906  0.1225  0.1285 -0.0643
 1693SOL     OW 5977   0.107   5.289   4.173 -0.2299 -0.4457 -0.5236
 1693SOL    HW1 5978   0.191   5.342   4.158 -0.6617  0.0357 -1.3226
 1693SOL    HW2 5979   0.028   5.345   4.147 -0.7585 -1.1412 -0.4323
 1694SOL     OW 5980   0.156   0.598   5.023 -0.2682  0.1136 -0.1753
 1694SOL    HW1 5981   0.144   0.582   4.925  0.7233  0.6490 -0.3941
 1694SOL    HW2 5982   0.227   0.668   5.037  1.1638 -1.4911  0.9679
 1695SOL     OW 5983   5.038   1.207   5.309 -0.2593 -0.1190  0.4287
 1695SOL    HW1 5984   4.962   1.184   5.369  0.1917 -2.8881  0.1076
 1695SOL    HW2 5985   5.124   1.207   5.361 -0.2484  0.9544  0.4176
 1696SOL     OW 5986   6.079   1.286   1.346 -0.4181  0.2133 -0.1730
 1696SOL    HW1 5987   6.127   1.313   1.262  0.5887  1.3464  0.7397
 1696SOL    HW2 5988   6.138   1.301   1.425 -1.8708  0.5950  0.8868
 1697SOL     OW 5989   5.046   3.071   6.842 -0.4943 -0.1987 -0.2682
 1697SOL    HW1 5990   5.097   2.996   6.885  0.0371 -0.2652 -0.9849
 1697SOL    HW2 5991   5.088   3.093   6.754 -0.7488  0.8276 -0.1480
 1698SOL     OW 5992   4.439   2.128   1.547  0.4452 -0.2600  0.8696
 1698SOL    HW1 5993   4.402   2.074   1.472 -0.7515  0.9760  0.5307
 1698SOL    HW2 5994   4.365   2.172   1.597  1.2628 -0.5724  2.4279
 1699SOL     OW 5995   0.267   0.916   1.180 -0.1623  0.1659  0.2067
 1699SOL    HW1 5996   0.291   0.825   1.214  0.4326 -0.4550 -1.6999
 1699SOL    HW2 5997   0.351   0.971   1.171 -0.1939  0.0874 -0.7601
 1700SOL     OW 5998   5.808   2.652   3.861  0.3346  0.1413  0.3170
 1700SOL    HW1 5999   5.866   2.708   3.920 -0.4890  1.2553  0.1175
 1700SOL    HW2 6000   5.817   2.556   3.886  1.8838  0.3403  0.5886
 1701SOL     OW 6001   0.169   5.839   4.664  0.2930 -0.5507  0.3233
 1701SOL    HW1 6002   0.199   5.930   4.695 -0.1837 -0.4713  0.5635
 1701SOL    HW2 6003   0.153   5.781   4.743  0.5514 -0.8337  0.1686
 1702SOL     OW 6004   2.849   3.769   0.502 -0.0526 -0.3357  0.0358
 1702SOL    HW1 6005   2.846   3.868   0.492  3.8519 -0.0829 -0.4482
 1702SOL    HW2 6006   2.860   3.727   0.412 -1.0331 -1.1720  0.2944
 1703SOL     OW 6007   2.051   0.279   2.878 -0.1010  0.4240 -0.4567
 1703SOL    HW1 6008   1.956   0.286   2.908  0.0856 -2.8860  1.3403
 1703SOL    HW2 6009   2.060   0.205   2.811  1.2298  0.7494 -0.6820
 1704SOL     OW 6010   2.133   0.763   0.181 -0.6528 -0.7857  0.0293
 1704SOL    HW1 6011   2.122   0.832   0.253  1.1539 -1.4714  1.0226
 1704SOL    HW2 6012   2.105   0.802   0.093  0.6852  1.3904  0.4922
 1705SOL     OW 6013   5.915   4.006   2.329 -0.0407 -0.2302 -0.1842
 1705SOL    HW1 6014   5.979   3.957   2.387  1.2198  1.4500 -0.0849
 1705SOL    HW2 6015   5.900   3.955   2.244  0.7870 -1.0386  0.1466
 1706SOL     OW 6016   6.381   0.988   5.467 -0.2895 -0.2169 -0.2594
 1706SOL    HW1 6017   6.468   0.969   5.513 -0.6303 -0.9123  0.1208
 1706SOL    HW2 6018   6.377   0.937   5.381 -1.1221 -1.7775  0.6648
 1707SOL     OW 6019   2.027   6.660   3.522  0.0273 -0.4961  0.1962
 1707SOL    HW1 6020   1.934   6.623   3.514 -2.0629  4.0223  0.2861
 1707SOL    HW2 6021   2.049   6.672   3.619  0.5939 -1.2765  0.1671
 1708SOL     OW 6022   1.982   3.874   0.423  0.1297 -0.1314  0.2216
 1708SOL    HW1 6023   2.076   3.900   0.447 -0.2999  0.2531  1.5754
 1708SOL    HW2 6024   1.944   3.816   0.495 -1.1470  0.8661  0.3788
 1709SOL     OW 6025   6.998   5.100   1.551 -0.5681 -0.3490 -0.6787
 1709SOL    HW1 6026   6.979   5.140   1.461 -1.2418  1.0965  0.0798
 1709SOL    HW2 6027   7.095   5.110   1.572 -0.4409 -0.5312 -1.1701
 1710SOL     OW 6028   5.492   3.142   3.320 -0.0757  0.0977 -0.0262
 1710SOL    HW1 6029   5.576   3.104   3.361  1.2133  1.3244 -1.4324
 1710SOL    HW2 6030   5.503   3.240   3.306 -1.2147  0.0354 -1.5580
 1711SOL     OW 6031   4.664   4.850   0.458  0.1708 -0.2945  0.4864
 1711SOL    HW1 6032   4.694   4.936   0.498  2.7139 -0.0833 -1.6118
 1711SOL    HW2 6033   4.728   4.777   0.484  0.3443 -0.6892 -0.9752
 1712SOL     OW 6034   1.344   3.276   2.047  0.5689 -0.1354  0.0187
 1712SOL    HW1 6035   1.394   3.243   2.127  0.4596 -0.1132  0.0977
 1712SOL    HW2 6036   1.397   3.260   1.964 -0.0628 -1.7688 -0.0995
 1713SOL     OW 6037   4.228   1.414   1.772  0.0191  0.4274  0.2892
 1713SOL    HW1 6038   4.229   1.513   1.758  2.2967  0.3506 -0.5848
 1713SOL    HW2 6039   4.165   1.391   1.846 -0.0608  2.5836  0.9472
 1714SOL     OW 6040   3.575   6.667   0.242  0.1215 -0.0452  0.4825
 1714SOL    HW1 6041   3.653   6.611   0.214  0.4619  0.8551 -0.4629
 1714SOL    HW2 6042   3.510   6.611   0.294  1.0079 -1.0030  0.5947
 1715SOL     OW 6043   6.930   5.280   1.806 -0.4050 -0.2250 -0.1292
 1715SOL    HW1 6044   6.995   5.204   1.810 -1.6806 -1.4231 -1.3420
 1715SOL    HW2 6045   6.927   5.317   1.713 -0.9403  0.2982  0.0891
 1716SOL     OW 6046   4.634   1.509   2.543  0.2128  0.4346 -0.2157
 1716SOL    HW1 6047   4.591   1.597   2.523  0.4206  1.2193  2.4578
 1716SOL    HW2 6048   4.725   1.524   2.582  0.0092 -0.9030  0.8642
 1717SOL     OW 6049   4.408   6.426   3.849  0.1168 -0.3099  0.3369
 1717SOL    HW1 6050   4.317   6.466   3.854 -0.7627 -2.1391 -0.0772
 1717SOL    HW2 6051   4.400   6.327   3.842  2.1061 -0.4144 -1.1961
 1718SOL     OW 6052   0.279   4.108   1.706 -0.3851  0.0950 -0.2859
 1718SOL    HW1 6053   0.221   4.036   1.744 -1.0983  0.0981 -1.3230
 1718SOL    HW2 6054   0.373   4.074   1.698 -0.8243 -0.9954 -1.3660
 1719SOL     OW 6055   2.286   5.768   4.986 -0.2894 -0.4383 -0.3174
 1719SOL    HW1 6056   2.216   5.733   5.048 -0.8045 -0.6931 -1.0407
 1719SOL    HW2 6057   2.288   5.714   4.902  1.3616 -0.9757  0.0232
 1720SOL     OW 6058   2.892   4.169   5.496 -0.0738 -0.3154  0.0245
 1720SOL    HW1 6059   2.959   4.182   5.569 -0.5386  0.9917  0.2380
 1720SOL    HW2 6060   2.832   4.249   5.490 -2.4424 -1.9253  0.6530
 1721SOL     OW 6061   2.626   3.136   6.857  0.0715 -0.5811 -0.0456
 1721SOL    HW1 6062   2.585   3.104   6.942  0.7757  0.1816  0.6004
 1721SOL    HW2 6063   2.671   3.224   6.873  0.2409 -0.4406 -1.2029
 1722SOL     OW 6064   4.660   6.732   4.238 -0.1033  0.0886  0.0667
 1722SOL    HW1 6065   4.748   6.755   4.280  1.0807  1.3857 -2.8197
 1722SOL    HW2 6066   4.644   6.791   4.159 -1.2608 -3.1860 -2.4230
 1723SOL     OW 6067   0.417   4.825   1.091  0.2961 -0.0355 -0.5083
 1723SOL    HW1 6068   0.385   4.872   1.009  0.6225 -0.3706 -0.8316
 1723SOL    HW2 6069   0.468   4.889   1.149 -1.1096  0.5619  0.1144
 1724SOL     OW 6070   6.901   2.940   2.075  0.2400 -0.2145  0.2001
 1724SOL    HW1 6071   6.971   2.878   2.040  0.3171  0.3648 -0.6915
 1724SOL    HW2 6072   6.837   2.889   2.133  1.0017 -0.8762  0.4730
 1725SOL     OW 6073   2.588   5.130   4.707  0.5358 -1.0498  0.0884
 1725SOL    HW1 6074   2.648   5.179   4.771  0.5658  0.1450 -0.8069
 1725SOL    HW2 6075   2.550   5.195   4.641  0.9390 -2.3147 -1.4621
 1726SOL     OW 6076   0.221   5.521   3.359  0.3999  0.0773  0.8827
 1726SOL    HW1 6077   0.207   5.537   3.261  0.9345  1.6572  1.0360
 1726SOL    HW2 6078   0.274   5.437   3.372 -1.2980 -1.2061 -0.0658
 1727SOL     OW 6079   2.920   3.544   2.822  0.1005 -0.4850  0.2821
 1727SOL    HW1 6080   2.910   3.548   2.722  2.3744 -0.5693 -0.0136
 1727SOL    HW2 6081   2.935   3.449   2.850 -1.2728 -0.5605  0.8238
 1728SOL     OW 6082   4.988   2.584   5.718 -0.0722 -0.1622 -0.0200
 1728SOL    HW1 6083   4.892   2.602   5.695  0.1870 -0.5130 -1.5365
 1728SOL    HW2 6084   5.046   2.652   5.673  0.4678 -0.7375 -0.2106
 1729SOL     OW 6085   2.898   5.139   2.447  0.0957 -0.4713 -0.0844
 1729SOL    HW1 6086   2.909   5.044   2.417 -1.6221 -1.3411  1.7889
 1729SOL    HW2 6087   2.836   5.186   2.384 -0.0361 -0.9521 -0.3209
 1730SOL     OW 6088   3.881   1.432   5.408 -0.2449 -0.3938  0.3750
 1730SOL    HW1 6089   3.838   1.381   5.483  2.0232 -0.7952  1.4632
 1730SOL    HW2 6090   3.957   1.379   5.371 -0.8953  0.0878 -1.8317
 1731SOL     OW 6091   0.679   5.292   1.108  0.1110 -0.5446 -0.5413
 1731SOL    HW1 6092   0.746   5.234   1.155 -0.0669  0.0839  0.5195
 1731SOL    HW2 6093   0.593   5.291   1.159  0.5114  1.6988  0.2667
 1732SOL     OW 6094   3.296   2.875   4.951 -0.2724  0.2058  0.3643
 1732SOL    HW1 6095   3.335   2.789   4.984 -0.8626 -0.3616 -0.3830
 1732SOL    HW2 6096   3.285   2.938   5.028  2.5102  0.5705  0.5700
 1733SOL     OW 6097   2.371   4.097   0.811 -0.2425 -0.1982  0.0714
 1733SOL    HW1 6098   2.300   4.042   0.769 -0.8689  3.0433 -3.6508
 1733SOL    HW2 6099   2.456   4.089   0.759  0.0340  1.2889  0.2366
 1734SOL     OW 6100   0.133   3.552   2.642  0.2720  0.1249 -0.0091
 1734SOL    HW1 6101   0.058   3.589   2.586 -0.3678 -0.8224  0.2125
 1734SOL    HW2 6102   0.099   3.480   2.701  1.3743 -0.3541  0.0732
 1735SOL     OW 6103   2.692   5.172   6.537  0.4229 -0.3026  0.0838
 1735SOL    HW1 6104   2.598   5.145   6.515  0.5963 -0.6785 -0.1855
 1735SOL    HW2 6105   2.726   5.236   6.468  0.6017 -0.6842 -0.1818
 1736SOL     OW 6106   5.423   1.985   4.867 -0.2927 -0.1792 -0.2273
 1736SOL    HW1 6107   5.395   2.004   4.961 -1.5028 -2.3433 -0.0655
 1736SOL    HW2 6108   5.441   2.070   4.818  0.5462  0.9881  1.9935
 1737SOL     OW 6109   2.776   0.638   1.571 -0.6889 -0.6668 -0.2665
 1737SOL    HW1 6110   2.772   0.715   1.507 -0.2586 -1.4316 -1.2368
 1737SOL    HW2 6111   2.810   0.671   1.660  0.7656  0.0478 -1.0430
 1738SOL     OW 6112   0.105   2.467   2.906 -0.3168  0.1200  0.5071
 1738SOL    HW1 6113   0.122   2.473   2.807 -2.4547  0.4887  0.1120
 1738SOL    HW2 6114   0.076   2.374   2.929  1.8791 -0.4649  1.1406
 1739SOL     OW 6115   4.497   5.112   2.045 -0.2769  0.0096 -0.1891
 1739SOL    HW1 6116   4.436   5.051   1.995  1.4262 -0.5855 -1.6461
 1739SOL    HW2 6117   4.586   5.115   1.999  1.4693 -0.6967  2.8905
 1740SOL     OW 6118   1.447   1.553   3.423 -0.3352  0.0538  0.0357
 1740SOL    HW1 6119   1.455   1.645   3.461 -0.8912 -0.3534  1.2055
 1740SOL    HW2 6120   1.354   1.538   3.389 -0.0018  0.2133 -0.9643
 1741SOL     OW 6121   6.611   1.223   4.362 -0.9762  0.1983  0.1469
 1741SOL    HW1 6122   6.605   1.127   4.334  0.2583  0.6330 -1.9092
 1741SOL    HW2 6123   6.676   1.232   4.437  1.2144 -0.3069 -1.5951
 1742SOL     OW 6124   5.390   6.082   5.981  0.0087  0.1352 -0.3221
 1742SOL    HW1 6125   5.322   6.111   6.049  1.0651 -1.4393  1.4701
 1742SOL    HW2 6126   5.344   6.027   5.911 -0.9377  1.0229 -0.4379
 1743SOL     OW 6127   6.489   3.229   2.631  0.2711  0.6862  0.6776
 1743SOL    HW1 6128   6.529   3.139   2.616  0.8193  0.6491  2.1818
 1743SOL    HW2 6129   6.419   3.224   2.703 -0.5521  1.2437 -0.0683
 1744SOL     OW 6130   3.008   1.695   6.562 -0.3531  0.1010  0.3137
 1744SOL    HW1 6131   3.035   1.707   6.657 -0.3144 -0.0236  0.3185
 1744SOL    HW2 6132   3.006   1.597   6.539 -2.0553  0.0187  0.6785
 1745SOL     OW 6133   5.552   1.451   1.065  0.6170 -1.0718  0.5815
 1745SOL    HW1 6134   5.647   1.464   1.091  1.3431 -1.3019 -1.7489
 1745SOL    HW2 6135   5.510   1.540   1.045  0.8533 -1.0974 -0.0340
 1746SOL     OW 6136   2.335   5.088   2.840 -0.1895 -0.6070 -0.6863
 1746SOL    HW1 6137   2.321   5.172   2.893  0.1618 -0.9658 -0.0129
 1746SOL    HW2 6138   2.253   5.069   2.786 -0.2696  0.1732 -0.8596
 1747SOL     OW 6139   1.069   6.181   2.403 -0.0262 -0.6661  0.0921
 1747SOL    HW1 6140   1.043   6.087   2.383  2.6429 -1.3186 -0.7340
 1747SOL    HW2 6141   1.145   6.182   2.468  0.4619  0.8662 -0.4441
 1748SOL     OW 6142   4.496   0.205   4.997  0.4222 -0.5043  0.2737
 1748SOL    HW1 6143   4.591   0.202   4.964  0.0239 -1.2605 -0.8707
 1748SOL    HW2 6144   4.453   0.289   4.964 -0.2178 -1.6222 -1.9894
 1749SOL     OW 6145   0.793   0.578   2.422 -0.0099 -0.0522 -0.0582
 1749SOL    HW1 6146   0.746   0.490   2.428  2.0201 -1.1514  0.6738
 1749SOL    HW2 6147   0.872   0.570   2.361  0.0873  1.3468 -0.1640
 1750SOL     OW 6148   3.437   1.998   0.697  0.7892  0.0097  0.4586
 1750SOL    HW1 6149   3.355   2.048   0.669  1.4695  0.7281 -0.2996
 1750SOL    HW2 6150   3.484   2.048   0.769  1.8667  0.8765 -0.8087
 1751SOL     OW 6151   0.012   3.316   5.358  0.0052 -0.3653  0.1412
 1751SOL    HW1 6152   0.087   3.269   5.312  0.1614  0.7985 -0.8429
 1751SOL    HW2 6153  -0.066   3.324   5.296  0.0779  0.8728  0.1734
 1752SOL     OW 6154   5.949   7.015   3.607 -0.3303 -0.6898 -0.1457
 1752SOL    HW1 6155   6.026   6.960   3.636  0.2873  0.8528  1.3358
 1752SOL    HW2 6156   5.975   7.112   3.606 -2.4487 -0.0164  1.3171
 1753SOL     OW 6157   6.554   1.858   0.720  0.0501  0.6932 -0.2531
 1753SOL    HW1 6158   6.577   1.921   0.646  1.2668 -0.8179 -1.2269
 1753SOL    HW2 6159   6.635   1.845   0.778 -0.8026  1.6232  1.2006
 1754SOL     OW 6160   2.274   4.193   3.537 -0.1267 -0.0533  0.2253
 1754SOL    HW1 6161   2.310   4.223   3.449 -0.6442  0.0489  0.0482
 1754SOL    HW2 6162   2.250   4.273   3.593 -0.5970 -0.1275  0.1293
 1755SOL     OW 6163   3.368   1.980   5.225  0.0170  0.4459  1.0588
 1755SOL    HW1 6164   3.371   1.892   5.271  1.2642 -0.7449 -1.1177
 1755SOL    HW2 6165   3.283   1.986   5.172  0.6637 -0.2034 -0.0913
 1756SOL     OW 6166   4.195   4.712   2.227 -0.1778  0.0423  0.3218
 1756SOL    HW1 6167   4.157   4.788   2.175  0.3876  0.3498  0.3451
 1756SOL    HW2 6168   4.152   4.627   2.199  1.0403  0.0117 -1.6414
 1757SOL     OW 6169   1.808   5.844   4.136  0.4152  0.0317  0.0292
 1757SOL    HW1 6170   1.866   5.877   4.211  2.2469 -1.0579 -0.8371
 1757SOL    HW2 6171   1.826   5.747   4.121  0.4197  0.3174 -2.0870
 1758SOL     OW 6172   6.940   5.595   3.216  0.3352  0.4372  0.2441
 1758SOL    HW1 6173   7.010   5.574   3.148 -0.2234 -1.1739  0.1360
 1758SOL    HW2 6174   6.888   5.512   3.238 -2.4183  1.7933 -0.6516
 1759SOL     OW 6175   1.560   6.354   0.043  0.6016  0.5071  0.0260
 1759SOL    HW1 6176   1.506   6.421   0.094  0.7508  0.9500 -0.3933
 1759SOL    HW2 6177   1.522   6.341  -0.048 -0.0711 -0.8011  0.4657
 1760SOL     OW 6178   3.493   2.138   4.319  1.0555  0.0771  0.1904
 1760SOL    HW1 6179   3.453   2.063   4.372  0.4077  0.4866  0.2960
 1760SOL    HW2 6180   3.441   2.222   4.336 -0.7533 -0.2342 -2.8922
 1761SOL     OW 6181   4.915   2.356   4.142  0.2430  0.2539 -0.3745
 1761SOL    HW1 6182   4.845   2.318   4.081 -0.1357 -0.4376  0.4674
 1761SOL    HW2 6183   4.983   2.285   4.162 -0.4172  0.0261  1.1401
 1762SOL     OW 6184   2.669   1.958   6.979 -0.4017  0.5670  0.3595
 1762SOL    HW1 6185   2.735   2.026   6.948  0.5569 -0.6381 -0.3499
 1762SOL    HW2 6186   2.676   1.876   6.923 -1.4930 -0.1563  1.2127
 1763SOL     OW 6187   0.754   5.292   3.676  0.2937  0.2672  0.0400
 1763SOL    HW1 6188   0.758   5.265   3.773 -0.1492  1.4126  0.3880
 1763SOL    HW2 6189   0.790   5.217   3.620  0.1165 -0.6135  1.0497
 1764SOL     OW 6190   0.529   4.643   2.457 -0.3046  0.3895  0.8889
 1764SOL    HW1 6191   0.540   4.712   2.385 -1.7182  1.0215  1.2442
 1764SOL    HW2 6192   0.458   4.673   2.520 -1.4763 -1.7370  0.6588
 1765SOL     OW 6193   5.371   2.067   3.478 -0.4729  0.7109  0.4286
 1765SOL    HW1 6194   5.433   1.988   3.478  0.5932  1.5275  0.5777
 1765SOL    HW2 6195   5.374   2.111   3.568 -2.3411 -0.0286  0.9060
 1766SOL     OW 6196   5.462   5.181   5.249  0.2541  0.4714 -0.2854
 1766SOL    HW1 6197   5.392   5.245   5.216  0.9812  0.2675 -2.3995
 1766SOL    HW2 6198   5.542   5.186   5.188  0.5475 -2.0561 -0.1973
 1767SOL     OW 6199   1.273   3.823   1.062  0.3648  0.2202 -0.2646
 1767SOL    HW1 6200   1.283   3.904   1.121  0.8965  0.8827 -1.2498
 1767SOL    HW2 6201   1.340   3.754   1.089  0.6660  0.5538 -0.1431
 1768SOL     OW 6202   4.620   6.814   2.687 -0.3602 -0.9257 -0.3466
 1768SOL    HW1 6203   4.690   6.884   2.675 -1.2651  0.3394  1.2873
 1768SOL    HW2 6204   4.542   6.834   2.629  0.0091 -1.5005 -1.0582
 1769SOL     OW 6205   5.767   5.820   0.441  0.2807 -0.1379  0.4220
 1769SOL    HW1 6206   5.825   5.887   0.395 -1.0319  0.3614 -0.5712
 1769SOL    HW2 6207   5.717   5.865   0.515 -0.1987 -0.1317  0.1002
 1770SOL     OW 6208   1.406   2.678   5.486 -0.3841 -0.2047 -0.2200
 1770SOL    HW1 6209   1.341   2.745   5.523 -0.2273 -0.0363 -0.2486
 1770SOL    HW2 6210   1.497   2.718   5.483 -0.1140 -0.7380  0.6126
 1771SOL     OW 6211   1.415   3.495   0.325 -0.0855 -0.3765  0.4527
 1771SOL    HW1 6212   1.457   3.405   0.313  0.2858 -0.3760  1.5644
 1771SOL    HW2 6213   1.486   3.561   0.351 -0.6043 -0.1330  1.2831
 1772SOL     OW 6214   2.881   4.351   0.190 -0.4168 -0.6485 -0.1832
 1772SOL    HW1 6215   2.950   4.284   0.215  0.1093 -0.5495 -1.2783
 1772SOL    HW2 6216   2.809   4.354   0.259 -0.1036 -1.8553  0.2043
 1773SOL     OW 6217   0.447   5.522   4.538  0.0276 -0.7458 -0.4452
 1773SOL    HW1 6218   0.362   5.535   4.487 -1.0318 -1.2364  1.1255
 1773SOL    HW2 6219   0.499   5.608   4.538 -1.1146 -0.0200 -0.3264
 1774SOL     OW 6220   5.544   5.440   0.453 -0.1650  0.2189 -0.3725
 1774SOL    HW1 6221   5.564   5.513   0.387 -1.4166  0.0997 -0.9093
 1774SOL    HW2 6222   5.472   5.471   0.515  0.2820 -0.0542  0.2897
 1775SOL     OW 6223   2.851   0.069   0.601  0.4467 -0.3434 -0.1999
 1775SOL    HW1 6224   2.942   0.039   0.574  0.8622  0.7817 -0.1294
 1775SOL    HW2 6225   2.814   0.129   0.530  1.1338  1.8325  1.1766
 1776SOL     OW 6226   5.788   3.316   5.615  0.0331 -0.3038 -0.1553
 1776SOL    HW1 6227   5.846   3.336   5.535 -1.4418  0.5608 -1.0503
 1776SOL    HW2 6228   5.790   3.394   5.678 -0.1685 -0.2608 -0.2009
 1777SOL     OW 6229   3.913   3.785   5.286 -0.6310  0.4316 -0.6541
 1777SOL    HW1 6230   3.901   3.856   5.218  2.6240 -0.2414 -2.1031
 1777SOL    HW2 6231   3.972   3.713   5.250 -1.3861 -1.5895  1.7934
 1778SOL     OW 6232   1.235   0.146   2.840  0.6931 -0.1850 -0.1163
 1778SOL    HW1 6233   1.304   0.099   2.895  0.5057  1.3065  1.5073
 1778SOL    HW2 6234   1.151   0.091   2.836  1.1713 -0.9298 -0.0823
 1779SOL     OW 6235   0.698   6.933   6.099 -0.1525  0.0211  0.0112
 1779SOL    HW1 6236   0.667   6.861   6.036  0.1632 -0.4212  0.3586
 1779SOL    HW2 6237   0.798   6.936   6.099 -0.1216 -0.6639  1.2547
 1780SOL     OW 6238   2.058   1.278   6.033 -0.3166 -1.0411 -0.2795
 1780SOL    HW1 6239   2.141   1.333   6.047 -1.3938  1.1504 -1.8889
 1780SOL    HW2 6240   2.029   1.239   6.120  1.2414 -0.1271  0.7056
 1781SOL     OW 6241   2.474   2.698   6.306 -0.3419 -0.9033 -0.1781
 1781SOL    HW1 6242   2.530   2.686   6.388  1.1915  2.2042 -0.6240
 1781SOL    HW2 6243   2.528   2.674   6.225 -0.7160 -0.7770 -0.4671
 1782SOL     OW 6244   6.258   6.244   1.844 -0.0891 -0.0574  0.1331
 1782SOL    HW1 6245   6.247   6.243   1.745 -1.0678  0.8064  0.2216
 1782SOL    HW2 6246   6.356   6.250   1.866  0.1307 -0.1512 -0.7745
 1783SOL     OW 6247   0.760   4.151   5.851 -0.2546 -0.3983 -0.2541
 1783SOL    HW1 6248   0.669   4.150   5.893  0.0054 -1.0736  0.3249
 1783SOL    HW2 6249   0.822   4.092   5.904  1.1365  1.7914  0.7153
 1784SOL     OW 6250   2.464   6.919   1.260 -0.0638 -0.0186  0.0485
 1784SOL    HW1 6251   2.397   6.953   1.194 -2.6314 -2.4545  1.1385
 1784SOL    HW2 6252   2.487   6.824   1.237  1.1301 -0.0018  1.0871
 1785SOL     OW 6253   0.931   5.326   5.769  0.3508 -0.4479 -0.5873
 1785SOL    HW1 6254   0.965   5.233   5.776 -0.1810 -0.5719  0.5864
 1785SOL    HW2 6255   0.847   5.335   5.822  1.3766  1.1377  0.8760
 1786SOL     OW 6256   6.157   6.961   2.205 -0.0523 -0.2068  0.0209
 1786SOL    HW1 6257   6.108   6.964   2.292  0.1462 -0.0449  0.1296
 1786SOL    HW2 6258   6.176   7.055   2.174 -1.6551 -0.1978 -1.0755
 1787SOL     OW 6259   3.052   0.851   0.506 -0.3466  0.7656  0.2472
 1787SOL    HW1 6260   3.052   0.942   0.464  1.2942  1.3386  1.3994
 1787SOL    HW2 6261   3.083   0.858   0.601 -1.9940 -0.7706  0.9525
 1788SOL     OW 6262   3.337   4.768   0.372 -0.3349 -0.7262  0.0216
 1788SOL    HW1 6263   3.403   4.793   0.301 -1.3209  0.2238 -0.6148
 1788SOL    HW2 6264   3.368   4.686   0.420  0.2351 -1.5576 -1.6837
 1789SOL     OW 6265   6.242   3.650   4.547 -0.1689  0.0362  0.1531
 1789SOL    HW1 6266   6.314   3.621   4.484  0.6317  1.1038  0.5480
 1789SOL    HW2 6267   6.283   3.698   4.624 -1.0836 -1.6120  1.7369
 1790SOL     OW 6268   2.250   1.818   5.176 -0.1412 -0.1247  1.0194
 1790SOL    HW1 6269   2.275   1.771   5.261 -0.6350 -1.3089  0.5317
 1790SOL    HW2 6270   2.193   1.898   5.198 -0.9019 -0.8469  1.7744
 1791SOL     OW 6271   5.628   1.647   3.195  0.2886 -0.2521  0.0480
 1791SOL    HW1 6272   5.696   1.655   3.268  0.6756 -0.6335 -0.2608
 1791SOL    HW2 6273   5.544   1.607   3.232  0.8283 -1.4067  0.0942
 1792SOL     OW 6274   0.203   3.408   6.023 -0.1410 -0.2355  0.3913
 1792SOL    HW1 6275   0.124   3.397   5.963 -0.6226 -1.3027  1.1940
 1792SOL    HW2 6276   0.276   3.454   5.973 -0.6238 -0.8498 -0.9355
 1793SOL     OW 6277   0.791   1.951   0.183  0.4881 -0.3081  0.2682
 1793SOL    HW1 6278   0.847   1.982   0.260  0.6064 -0.5653  0.2839
 1793SOL    HW2 6279   0.820   1.999   0.100  0.7088 -0.4184  0.2816
 1794SOL     OW 6280   0.384   2.539   0.124 -0.1962  0.2506  0.2282
 1794SOL    HW1 6281   0.305   2.529   0.064  0.1884 -1.0201 -0.0952
 1794SOL    HW2 6282   0.365   2.496   0.212  0.7001 -1.6236 -0.4290
 1795SOL     OW 6283   6.156   2.118   1.090  0.2530 -0.4828 -0.0916
 1795SOL    HW1 6284   6.117   2.060   1.163  1.0828  0.2550  0.9638
 1795SOL    HW2 6285   6.256   2.114   1.094  0.3299 -1.2108 -1.8517
 1796SOL     OW 6286   5.616   5.516   5.838  0.1260 -0.3829 -0.4406
 1796SOL    HW1 6287   5.521   5.546   5.827  0.1495  0.6703  1.6851
 1796SOL    HW2 6288   5.669   5.589   5.880  1.6004 -1.3970 -0.4907
 1797SOL     OW 6289   3.573   6.160   5.283 -0.3291 -0.4956 -0.1045
 1797SOL    HW1 6290   3.670   6.153   5.258 -0.6821 -0.1858 -1.7116
 1797SOL    HW2 6291   3.563   6.152   5.382  1.3362 -0.5162  0.0912
 1798SOL     OW 6292   2.576   6.430   0.904 -0.0378  0.2371 -0.0699
 1798SOL    HW1 6293   2.566   6.365   0.828  2.2424 -0.2883  0.0015
 1798SOL    HW2 6294   2.629   6.509   0.873 -0.2716  0.6750  0.6307
 1799SOL     OW 6295   3.011   2.148   6.115 -0.1752  0.2662  0.5423
 1799SOL    HW1 6296   3.050   2.175   6.202 -0.0951  0.3271  0.4869
 1799SOL    HW2 6297   3.079   2.159   6.042  0.5950 -2.0779  0.8213
 1800SOL     OW 6298   6.409   1.362   6.456 -0.0963  0.5337 -0.5839
 1800SOL    HW1 6299   6.414   1.332   6.551 -0.1777  0.8392 -0.4798
 1800SOL    HW2 6300   6.334   1.315   6.410 -0.2392  0.5949 -0.4163
 1801SOL     OW 6301   0.126   2.239   3.657  0.5317  0.1209  0.0426
 1801SOL    HW1 6302   0.191   2.294   3.605 -1.1860  2.6023  0.3395
 1801SOL    HW2 6303   0.036   2.243   3.613 -0.5313  0.7512  2.1101
 1802SOL     OW 6304   0.068   4.885   5.241 -0.1863  0.1615 -0.4502
 1802SOL    HW1 6305  -0.029   4.901   5.263 -0.1055  0.4912 -0.3214
 1802SOL    HW2 6306   0.102   4.961   5.185  0.2396  0.5259  0.2761
 1803SOL     OW 6307   5.844   6.305   3.075 -0.0088  0.5278  0.8680
 1803SOL    HW1 6308   5.785   6.224   3.088 -0.0678  0.0243 -2.0144
 1803SOL    HW2 6309   5.789   6.380   3.039  0.4105  1.3314  1.8582
 1804SOL     OW 6310   1.740   3.088   0.111 -0.1256 -0.0576 -0.1375
 1804SOL    HW1 6311   1.645   3.067   0.137  0.2275 -1.9148 -0.2249
 1804SOL    HW2 6312   1.744   3.110   0.014 -0.5415  0.6474 -0.0042
 1805SOL     OW 6313   2.077   5.437   4.764  0.6067 -0.4250  0.1855
 1805SOL    HW1 6314   2.075   5.357   4.824  0.0242  0.5283  1.4844
 1805SOL    HW2 6315   2.003   5.499   4.789 -0.5303 -0.5903 -2.4185
 1806SOL     OW 6316   0.017   3.127   4.461 -0.2073  0.0379 -0.0311
 1806SOL    HW1 6317   0.026   3.027   4.458 -0.2628  0.0385 -0.2406
 1806SOL    HW2 6318  -0.054   3.153   4.526  0.5255 -0.0160  0.8101
 1807SOL     OW 6319   6.115   3.863   2.476 -0.6962  0.2169 -0.4369
 1807SOL    HW1 6320   6.118   3.779   2.423 -0.3571  0.0722 -0.1870
 1807SOL    HW2 6321   6.194   3.868   2.537 -0.4673  0.9316 -0.7821
 1808SOL     OW 6322   6.820   6.405   5.495  0.2523  0.2425 -0.6452
 1808SOL    HW1 6323   6.860   6.414   5.586  0.6977 -0.7651 -0.7314
 1808SOL    HW2 6324   6.840   6.488   5.442  3.4055 -0.6571 -1.0941
 1809SOL     OW 6325   3.177   6.750   2.300 -0.1292 -0.0469 -0.3068
 1809SOL    HW1 6326   3.095   6.710   2.340  1.0160 -3.7416 -1.2741
 1809SOL    HW2 6327   3.244   6.767   2.371 -1.3783  2.4548  0.4093
 1810SOL     OW 6328   0.955   0.476   4.506  0.9698 -0.3700 -0.0459
 1810SOL    HW1 6329   0.979   0.394   4.454  0.2755 -0.4831 -0.1999
 1810SOL    HW2 6330   0.895   0.534   4.451  0.6636 -0.2306  0.4293
 1811SOL     OW 6331   3.141   6.324   2.064 -0.2293 -0.1430  0.2486
 1811SOL    HW1 6332   3.234   6.299   2.037 -0.8832 -0.5067 -1.8697
 1811SOL    HW2 6333   3.115   6.410   2.020 -1.0927 -0.3372  0.3539
 1812SOL     OW 6334   4.865   6.423   5.665  0.5227  0.1719  0.1303
 1812SOL    HW1 6335   4.930   6.361   5.707  2.7529  0.6259 -2.3998
 1812SOL    HW2 6336   4.773   6.383   5.670  0.6506 -0.1119  4.5335
 1813SOL     OW 6337   6.066   3.010   0.788  0.2737  0.1950  0.3635
 1813SOL    HW1 6338   6.005   3.073   0.740  1.0231  0.1669 -0.6425
 1813SOL    HW2 6339   6.071   2.924   0.737  2.0373  0.5960 -0.1912
 1814SOL     OW 6340   6.781   5.360   1.303 -0.5288  0.4424  0.0445
 1814SOL    HW1 6341   6.844   5.283   1.314 -0.6806  0.4836  1.4964
 1814SOL    HW2 6342   6.764   5.377   1.206  0.3689 -0.6423 -0.3180
 1815SOL     OW 6343   6.898   6.123   0.242  0.2964  1.0112  0.4585
 1815SOL    HW1 6344   6.830   6.095   0.173 -0.0707 -0.4191  1.3609
 1815SOL    HW2 6345   6.857   6.189   0.304 -0.9061 -1.0872  2.0232
 1816SOL     OW 6346   1.498   5.166   5.082  0.6131 -0.0017 -0.1426
 1816SOL    HW1 6347   1.444   5.112   5.147  0.5857  2.5801  2.1796
 1816SOL    HW2 6348   1.593   5.134   5.083  0.7893  0.4326  1.8397
 1817SOL     OW 6349   5.589   3.434   4.917 -0.2259  0.3538 -0.1643
 1817SOL    HW1 6350   5.683   3.467   4.910 -0.4594  1.1119  0.1267
 1817SOL    HW2 6351   5.589   3.339   4.949  0.4066  0.6693  0.8118
 1818SOL     OW 6352   2.147   3.394   0.813  0.5564 -0.0562  0.3791
 1818SOL    HW1 6353   2.214   3.451   0.862 -0.9025  3.1436 -1.0412
 1818SOL    HW2 6354   2.180   3.375   0.721 -0.6233  2.1838 -0.5982
 1819SOL     OW 6355   1.788   2.851   0.493 -0.2502 -0.3299  0.0465
 1819SOL    HW1 6356   1.725   2.840   0.416 -0.5627  0.4410  0.1843
 1819SOL    HW2 6357   1.815   2.761   0.527 -1.0102 -0.6722 -0.2395
 1820SOL     OW 6358   2.797   5.932   4.282 -0.5534  0.1858  0.0160
 1820SOL    HW1 6359   2.845   6.016   4.260 -1.0653  0.4338 -0.1853
 1820SOL    HW2 6360   2.853   5.853   4.258  0.3424  0.4675  1.1397
 1821SOL     OW 6361   4.083   6.614   1.933 -0.4432 -0.5448  0.0368
 1821SOL    HW1 6362   4.035   6.702   1.927  1.1910  0.5069  1.3190
 1821SOL    HW2 6363   4.017   6.540   1.930 -2.1338  0.8109  1.3507
 1822SOL     OW 6364   2.266   4.183   4.791  0.0476 -0.9025  0.1948
 1822SOL    HW1 6365   2.265   4.113   4.863 -0.3817 -0.3806  0.7046
 1822SOL    HW2 6366   2.306   4.267   4.827 -1.1668 -0.2911  0.1684
 1823SOL     OW 6367   2.466   5.333   5.428 -0.4051 -0.5661  0.2765
 1823SOL    HW1 6368   2.527   5.369   5.357 -2.4057  0.3352 -1.1011
 1823SOL    HW2 6369   2.456   5.401   5.501  1.4569 -1.3897  1.3570
 1824SOL     OW 6370   6.081   2.033   0.530  0.3579  0.0190 -0.2977
 1824SOL    HW1 6371   6.078   2.079   0.441  3.0791  0.0305 -0.4436
 1824SOL    HW2 6372   6.141   1.954   0.525  0.5622  0.0250  1.5374
 1825SOL     OW 6373   1.423   1.724   6.816  0.2513  0.1943  0.1302
 1825SOL    HW1 6374   1.468   1.731   6.905  0.5948  0.0317 -0.0262
 1825SOL    HW2 6375   1.492   1.710   6.745 -0.1998 -5.0191  0.3728
 1826SOL     OW 6376   5.434   0.865   6.017  0.6480 -0.2577 -0.1684
 1826SOL    HW1 6377   5.440   0.955   6.060 -2.3175  2.0759 -3.8948
 1826SOL    HW2 6378   5.516   0.849   5.963  1.5370 -0.2133  1.1226
 1827SOL     OW 6379   6.495   4.020   6.511  0.9535 -0.6937  0.3671
 1827SOL    HW1 6380   6.463   3.988   6.600 -1.8172 -1.5998 -0.8252
 1827SOL    HW2 6381   6.444   4.103   6.486 -0.5789 -2.1468 -1.6030
 1828SOL     OW 6382   3.456   6.767   4.504 -0.1862 -0.4776  0.3476
 1828SOL    HW1 6383   3.472   6.851   4.452 -0.0140 -1.3614 -1.0983
 1828SOL    HW2 6384   3.417   6.789   4.593 -2.8622  1.0127 -1.0761
 1829SOL     OW 6385   3.455   6.283   3.882  0.1516  0.4385  0.2398
 1829SOL    HW1 6386   3.531   6.220   3.899 -0.1090  0.3778  1.2463
 1829SOL    HW2 6387   3.379   6.259   3.942 -1.3364 -0.6049 -1.9112
 1830SOL     OW 6388   4.475   1.693   4.903 -0.0493 -0.0951  0.0599
 1830SOL    HW1 6389   4.492   1.653   4.993  1.9636  1.0376  0.2412
 1830SOL    HW2 6390   4.497   1.791   4.905 -1.7702  0.3766 -1.2056
 1831SOL     OW 6391   5.217   4.435   5.702  0.0199  0.2686  0.2094
 1831SOL    HW1 6392   5.166   4.520   5.686  0.0050  0.1949 -0.1551
 1831SOL    HW2 6393   5.153   4.358   5.705  0.1067  0.1701 -0.2946
 1832SOL     OW 6394   1.616   3.378   6.560  0.5821  0.1649 -0.2722
 1832SOL    HW1 6395   1.623   3.290   6.607  0.8833 -0.1610 -0.9038
 1832SOL    HW2 6396   1.678   3.378   6.481 -1.3416 -0.0967 -1.8789
 1833SOL     OW 6397   5.357   2.228   1.243  0.0784  0.2122 -0.1627
 1833SOL    HW1 6398   5.401   2.258   1.328 -2.0770 -0.1326  1.1624
 1833SOL    HW2 6399   5.262   2.204   1.262 -0.9718  1.7058 -3.0157
 1834SOL     OW 6400   0.188   4.078   6.308  0.0025  0.8866 -0.5546
 1834SOL    HW1 6401   0.211   4.059   6.212  0.0485 -0.9490 -0.2178
 1834SOL    HW2 6402   0.240   4.017   6.367  1.3446  3.1938  0.7996
 1835SOL     OW 6403   0.088   2.865   4.412  0.7947 -0.0056  0.1380
 1835SOL    HW1 6404   0.107   2.784   4.467  1.9120  0.7164  0.8514
 1835SOL    HW2 6405   0.167   2.886   4.355  0.3295  0.3005 -0.4010
 1836SOL     OW 6406   5.203   1.063   5.800  0.2170  0.0275 -0.3120
 1836SOL    HW1 6407   5.133   0.994   5.820  1.8876 -2.4393 -2.2841
 1836SOL    HW2 6408   5.197   1.089   5.704  2.1264 -0.4380 -0.5894
 1837SOL     OW 6409   1.898   1.722   2.826 -0.2517 -0.2141 -0.5306
 1837SOL    HW1 6410   1.984   1.715   2.775  0.6349 -1.9168  1.0962
 1837SOL    HW2 6411   1.903   1.800   2.888  0.5710 -0.9013  0.2977
 1838SOL     OW 6412   6.099   0.869   5.610 -0.1460 -0.1314  0.0093
 1838SOL    HW1 6413   6.027   0.904   5.670  0.2856  0.9045 -0.0400
 1838SOL    HW2 6414   6.092   0.913   5.521  1.3214  1.0289  0.4105
 1839SOL     OW 6415   0.064   2.549   6.708 -0.0961 -0.1899  0.3435
 1839SOL    HW1 6416   0.073   2.580   6.613  0.3368  1.0168  0.7692
 1839SOL    HW2 6417   0.029   2.624   6.764  1.2735 -0.3572  1.4608
 1840SOL     OW 6418   0.531   0.779   4.525 -1.0749 -0.0626 -0.3328
 1840SOL    HW1 6419   0.611   0.737   4.482 -4.0560 -4.6899 -2.1533
 1840SOL    HW2 6420   0.516   0.738   4.615  0.5394  3.7042  1.9167
 1841SOL     OW 6421   2.177   6.104   4.234  0.4140 -0.8991 -0.0538
 1841SOL    HW1 6422   2.134   6.181   4.186 -0.5523 -1.9695 -0.9691
 1841SOL    HW2 6423   2.186   6.126   4.331 -1.5465 -0.3169  0.0476
 1842SOL     OW 6424   0.862   4.362   1.159  0.5311  0.1720 -0.0433
 1842SOL    HW1 6425   0.884   4.271   1.125 -1.3428 -0.7913  1.1637
 1842SOL    HW2 6426   0.881   4.430   1.088 -1.0117 -1.4991 -2.1613
 1843SOL     OW 6427   4.201   0.180   6.289  0.6192 -0.0383 -0.7907
 1843SOL    HW1 6428   4.249   0.268   6.298  4.2041 -1.6535 -2.3470
 1843SOL    HW2 6429   4.260   0.106   6.320 -1.5401 -2.1359 -1.3494
 1844SOL     OW 6430   5.095   3.676   1.243 -0.1376  0.6552  0.2608
 1844SOL    HW1 6431   5.156   3.600   1.219  0.2081  0.8686  0.4539
 1844SOL    HW2 6432   5.143   3.762   1.230  0.1289  0.7818  1.8751
 1845SOL     OW 6433   0.529   4.328   5.048  0.2566 -0.0119 -0.0300
 1845SOL    HW1 6434   0.459   4.348   5.117 -0.5511  0.4440 -0.9669
 1845SOL    HW2 6435   0.540   4.229   5.040 -0.2836 -0.0913  0.1328
 1846SOL     OW 6436   5.142   1.959   0.982  0.0258  0.2391  0.4373
 1846SOL    HW1 6437   5.115   1.893   1.052 -0.5747 -0.3397 -0.3249
 1846SOL    HW2 6438   5.080   2.037   0.983 -0.4160 -0.1032  0.0861
 1847SOL     OW 6439   1.862   6.554   5.212 -0.3433 -0.7252 -0.2091
 1847SOL    HW1 6440   1.839   6.459   5.190 -0.1838 -0.5250 -1.3258
 1847SOL    HW2 6441   1.796   6.589   5.278 -0.1119 -1.7562  0.6045
 1848SOL     OW 6442   5.365   4.656   5.262  0.0224  0.1242  0.2495
 1848SOL    HW1 6443   5.274   4.616   5.269  0.5297 -0.8832  1.3846
 1848SOL    HW2 6444   5.367   4.720   5.185 -1.3694 -0.5288 -0.3687
 1849SOL     OW 6445   5.203   3.514   1.624 -0.3112 -0.4495  0.1010
 1849SOL    HW1 6446   5.114   3.556   1.610 -0.0826 -0.5905 -2.1496
 1849SOL    HW2 6447   5.270   3.555   1.561  0.8953 -1.2480  0.8204
 1850SOL     OW 6448   3.542   0.165   0.744  0.1349  0.0682  0.4203
 1850SOL    HW1 6449   3.611   0.205   0.804  0.6098 -1.4424  0.9211
 1850SOL    HW2 6450   3.543   0.212   0.656  2.8350 -0.7878 -0.1101
 1851SOL     OW 6451   1.962   2.849   4.351  0.0414 -0.1384  0.1551
 1851SOL    HW1 6452   2.051   2.853   4.307  0.4344  0.6623  0.9989
 1851SOL    HW2 6453   1.972   2.866   4.449 -0.9730 -0.6082  0.3568
 1852SOL     OW 6454   6.416   0.733   3.945 -0.4951 -0.1041 -0.2322
 1852SOL    HW1 6455   6.492   0.797   3.945 -1.7081  1.3894  0.3775
 1852SOL    HW2 6456   6.441   0.650   3.995  1.4521 -0.6058 -1.8996
 1853SOL     OW 6457   2.088   2.758   3.882  0.1545 -0.3872  0.9467
 1853SOL    HW1 6458   2.063   2.836   3.938  0.2170  1.1162 -0.9993
 1853SOL    HW2 6459   2.005   2.719   3.841 -0.0661 -2.3845  3.0770
 1854SOL     OW 6460   0.302   1.370   5.261  0.2040  0.2429 -0.1100
 1854SOL    HW1 6461   0.389   1.398   5.222  0.8003  0.1833  1.1186
 1854SOL    HW2 6462   0.227   1.416   5.212  1.0741  2.9365  0.8950
 1855SOL     OW 6463   0.112   2.760   5.212  0.2517  0.1950 -0.3825
 1855SOL    HW1 6464   0.022   2.801   5.228  0.5244  0.7679 -0.2668
 1855SOL    HW2 6465   0.175   2.831   5.180  1.5670  0.5704  2.6992
 1856SOL     OW 6466   3.998   3.955   6.631 -0.1632 -0.6139  0.0112
 1856SOL    HW1 6467   4.055   3.911   6.701  1.4886  1.0046 -0.2248
 1856SOL    HW2 6468   4.050   3.960   6.545 -0.8949  0.3556 -0.3940
 1857SOL     OW 6469   5.635   0.549   5.947  0.3970 -0.1639  0.4691
 1857SOL    HW1 6470   5.582   0.549   6.032 -1.8276  2.1561 -0.7732
 1857SOL    HW2 6471   5.634   0.641   5.908  0.4694 -1.3613 -2.5746
 1858SOL     OW 6472   3.809   1.767   4.678 -0.0789 -0.0617 -0.0910
 1858SOL    HW1 6473   3.908   1.753   4.670  0.3490  3.0243 -1.5148
 1858SOL    HW2 6474   3.789   1.810   4.765  0.2007  1.5470 -0.7888
 1859SOL     OW 6475   6.084   6.686   2.434  0.3049 -0.4322 -0.7741
 1859SOL    HW1 6476   6.169   6.649   2.472  0.2956  0.9588  0.6983
 1859SOL    HW2 6477   6.011   6.618   2.443  0.6423 -0.6627  0.4544
 1860SOL     OW 6478   1.618   6.235   6.800  0.1869  0.1358  0.0559
 1860SOL    HW1 6479   1.620   6.151   6.745  0.9230  0.5734 -0.6029
 1860SOL    HW2 6480   1.658   6.310   6.747 -1.3011  1.1230  0.2810
 1861SOL     OW 6481   5.338   0.820   4.714 -0.2798  0.3870 -0.3499
 1861SOL    HW1 6482   5.294   0.736   4.681  1.8871 -1.0465  0.1447
 1861SOL    HW2 6483   5.285   0.858   4.790 -1.1565 -0.7057 -0.3899
 1862SOL     OW 6484   5.638   5.063   4.847  0.1428 -0.2100  0.2227
 1862SOL    HW1 6485   5.660   5.131   4.917 -1.0979 -0.7088  1.1340
 1862SOL    HW2 6486   5.544   5.076   4.816 -0.3159 -1.8421  0.8315
 1863SOL     OW 6487   1.142   6.276   6.455 -0.1000 -0.0159  0.5466
 1863SOL    HW1 6488   1.159   6.179   6.445 -1.9750 -0.2284 -1.1590
 1863SOL    HW2 6489   1.050   6.290   6.493 -0.9900  1.0609 -1.8376
 1864SOL     OW 6490   1.798   5.297   2.933  0.7751  0.3804  0.1207
 1864SOL    HW1 6491   1.896   5.309   2.945  1.0275 -1.2682 -0.0015
 1864SOL    HW2 6492   1.778   5.271   2.839  0.4261 -0.8136  0.4971
 1865SOL     OW 6493   5.879   2.640   6.333 -0.7338 -0.1576  0.0139
 1865SOL    HW1 6494   5.891   2.541   6.340 -0.1759 -0.1431 -0.6261
 1865SOL    HW2 6495   5.885   2.667   6.237 -0.5347  0.5389  0.2207
 1866SOL     OW 6496   1.582   5.343   1.029 -0.1347  0.7477 -0.2340
 1866SOL    HW1 6497   1.637   5.263   1.050 -2.7160 -1.2203 -0.5155
 1866SOL    HW2 6498   1.585   5.360   0.930 -0.4775  0.2853 -0.3260
 1867SOL     OW 6499   0.861   6.615   1.305  0.5858 -0.1703  0.1518
 1867SOL    HW1 6500   0.817   6.586   1.390  0.5296 -0.3009  0.0783
 1867SOL    HW2 6501   0.958   6.633   1.321  0.7411 -0.9071  0.0880
 1868SOL     OW 6502   7.015   4.294   5.332 -0.0952  0.3353 -0.0019
 1868SOL    HW1 6503   6.935   4.254   5.375 -0.2151  1.3879  0.8050
 1868SOL    HW2 6504   7.086   4.224   5.323 -1.1044 -0.6194 -0.7851
 1869SOL     OW 6505   3.106   0.917   5.109 -0.7534  0.2108 -0.1512
 1869SOL    HW1 6506   3.069   0.976   5.181  0.8670  0.0088  0.8976
 1869SOL    HW2 6507   3.115   0.824   5.144 -0.0401  0.0904 -0.6443
 1870SOL     OW 6508   5.007   2.279   6.139  0.5409 -0.2996 -0.6267
 1870SOL    HW1 6509   4.948   2.293   6.219  0.5262 -0.5301 -0.5963
 1870SOL    HW2 6510   5.033   2.182   6.134  2.2712  0.0786  0.3094
 1871SOL     OW 6511   3.982   4.712   0.434 -0.0618  0.4021 -0.4937
 1871SOL    HW1 6512   4.057   4.646   0.434  1.3111  1.8961 -0.1360
 1871SOL    HW2 6513   3.912   4.682   0.499  0.0689 -1.1606 -1.0312
 1872SOL     OW 6514   0.783   3.141   5.573 -0.1177  0.8053 -0.0390
 1872SOL    HW1 6515   0.690   3.140   5.609 -0.2645  0.7817 -0.4187
 1872SOL    HW2 6516   0.825   3.230   5.590 -0.2305  0.8378  0.0727
 1873SOL     OW 6517   5.080   2.050   1.935 -0.0667 -0.3942  0.0188
 1873SOL    HW1 6518   5.099   2.106   2.016 -0.5037  1.7325 -1.2636
 1873SOL    HW2 6519   5.018   1.976   1.960 -0.8623  0.7017  1.4869
 1874SOL     OW 6520   3.039   4.839   0.280  0.4918 -0.4274  0.2226
 1874SOL    HW1 6521   2.990   4.926   0.280  0.4285 -0.4036 -1.7417
 1874SOL    HW2 6522   3.134   4.855   0.252  1.5129 -0.5723  3.2656
 1875SOL     OW 6523   1.242   6.312   2.245 -0.6377  0.1242 -0.2373
 1875SOL    HW1 6524   1.247   6.409   2.269 -1.1991  0.5421 -1.7190
 1875SOL    HW2 6525   1.168   6.269   2.297 -1.5730  0.9120 -0.8860
 1876SOL     OW 6526   1.828   6.164   0.839  0.6128  0.0797 -0.1320
 1876SOL    HW1 6527   1.886   6.128   0.765  0.5982 -1.5297  0.6090
 1876SOL    HW2 6528   1.873   6.148   0.927 -0.9893 -1.3874  0.4844
 1877SOL     OW 6529   5.570   1.785   2.711 -0.1324 -0.2002  0.2568
 1877SOL    HW1 6530   5.548   1.796   2.808 -4.3570 -0.5866 -0.4606
 1877SOL    HW2 6531   5.546   1.693   2.681  1.7257 -0.3021 -1.0906
 1878SOL     OW 6532   6.298   2.982   3.130 -0.1907 -0.9566 -1.0186
 1878SOL    HW1 6533   6.202   2.963   3.152 -0.4750  0.2759 -1.1046
 1878SOL    HW2 6534   6.306   3.005   3.033  0.1740 -0.8887 -0.9742
 1879SOL     OW 6535   3.490   6.691   6.446  0.6514  0.7433 -0.1738
 1879SOL    HW1 6536   3.468   6.594   6.439 -0.6302  1.0624 -0.8207
 1879SOL    HW2 6537   3.589   6.703   6.447  0.8783 -0.7205  2.2060
 1880SOL     OW 6538   2.126   3.565   4.869  0.3507  0.2899  0.3302
 1880SOL    HW1 6539   2.066   3.645   4.861  1.0909  0.8053 -0.2877
 1880SOL    HW2 6540   2.221   3.593   4.851  0.3052 -1.2177 -2.8162
 1881SOL     OW 6541   3.405   1.247   2.583  0.3047 -0.8272  0.0158
 1881SOL    HW1 6542   3.364   1.290   2.503  0.7516  0.3378  0.3865
 1881SOL    HW2 6543   3.332   1.216   2.645 -0.0456 -2.0361 -0.9666
 1882SOL     OW 6544   3.792   0.320   6.410  0.2273  0.5888  0.6626
 1882SOL    HW1 6545   3.772   0.292   6.504  1.7714  0.7125  1.0544
 1882SOL    HW2 6546   3.707   0.347   6.364 -0.5891  0.2119  1.9125
 1883SOL     OW 6547   1.162   3.918   2.595 -0.1877  0.2529  0.1446
 1883SOL    HW1 6548   1.231   3.901   2.524 -0.3045 -0.8773  0.2848
 1883SOL    HW2 6549   1.160   3.841   2.659 -1.2228  0.5052  0.4367
 1884SOL     OW 6550   6.020   1.179   5.965 -0.3396 -0.2133  0.7579
 1884SOL    HW1 6551   5.985   1.232   5.887  2.1028  2.0039  1.0046
 1884SOL    HW2 6552   5.985   1.218   6.050  1.4034  1.0618  0.9386
 1885SOL     OW 6553   1.437   0.260   1.353 -0.5758  0.4233 -0.2655
 1885SOL    HW1 6554   1.517   0.213   1.389 -2.0899 -1.2920  1.0939
 1885SOL    HW2 6555   1.422   0.232   1.258 -0.1907 -0.1107 -0.1749
 1886SOL     OW 6556   4.457   3.629   6.032  0.3927 -0.1889 -0.4375
 1886SOL    HW1 6557   4.372   3.586   6.065  1.0357  0.4770  2.3411
 1886SOL    HW2 6558   4.529   3.559   6.026  0.1685 -0.3890 -0.8759
 1887SOL     OW 6559   1.455   6.184   4.793 -0.2578  0.0563  0.3369
 1887SOL    HW1 6560   1.407   6.154   4.711  1.0857  0.8857 -0.7957
 1887SOL    HW2 6561   1.441   6.282   4.807  1.3422  0.4133 -0.2540
 1888SOL     OW 6562   3.608   6.864   6.711  0.1267 -0.7184  0.3049
 1888SOL    HW1 6563   3.616   6.905   6.802  1.6408 -1.8690  0.7307
 1888SOL    HW2 6564   3.552   6.924   6.653  1.8395  1.7657  1.0097
 1889SOL     OW 6565   3.395   2.609   0.330 -0.3766 -0.7128  0.0664
 1889SOL    HW1 6566   3.404   2.529   0.271 -0.6330 -0.2518 -0.6080
 1889SOL    HW2 6567   3.381   2.691   0.274 -0.3592 -0.2274  0.7559
 1890SOL     OW 6568   4.844   4.677   0.544  0.1588 -0.0977 -0.4478
 1890SOL    HW1 6569   4.916   4.692   0.612  0.3136  0.1451 -0.6642
 1890SOL    HW2 6570   4.876   4.612   0.475 -0.5374 -1.5501  0.5285
 1891SOL     OW 6571   6.968   4.966   0.460  0.4150  0.3985  0.2516
 1891SOL    HW1 6572   6.897   4.983   0.391  1.5421  0.7849 -0.8540
 1891SOL    HW2 6573   6.995   5.053   0.502  1.6543  0.5496 -0.8036
 1892SOL     OW 6574   1.177   6.128   3.439  0.1512  0.0617  0.5506
 1892SOL    HW1 6575   1.189   6.223   3.413 -0.8841  0.3932  1.2151
 1892SOL    HW2 6576   1.187   6.118   3.538  2.2698 -0.8819  0.2868
 1893SOL     OW 6577   3.616   1.925   1.022 -0.3601  0.2486  0.1681
 1893SOL    HW1 6578   3.624   2.009   0.970  0.3424 -0.2014 -0.4666
 1893SOL    HW2 6579   3.537   1.930   1.083  0.6269  2.0352  1.3914
 1894SOL     OW 6580   3.720   4.524   1.156 -0.1626 -0.2663  0.7558
 1894SOL    HW1 6581   3.702   4.473   1.072 -0.6553 -0.2822  0.8696
 1894SOL    HW2 6582   3.818   4.538   1.166 -0.0717 -0.6388  0.3985
 1895SOL     OW 6583   3.621   6.815   3.630 -0.1412  0.1926 -0.0776
 1895SOL    HW1 6584   3.577   6.731   3.662 -0.4574  0.2463 -0.3560
 1895SOL    HW2 6585   3.645   6.805   3.533  1.0905 -0.0870  0.2432
 1896SOL     OW 6586   0.713   1.715   2.818  0.0418  0.1512 -0.3359
 1896SOL    HW1 6587   0.632   1.765   2.788 -0.0064 -0.3572 -1.0586
 1896SOL    HW2 6588   0.770   1.694   2.739  0.7146  0.2060  0.1284
 1897SOL     OW 6589   6.056   5.664   2.506  0.5439  0.1610 -0.1819
 1897SOL    HW1 6590   6.030   5.703   2.594  1.5349  0.0855  0.1552
 1897SOL    HW2 6591   6.153   5.679   2.490  0.7991 -1.4859 -0.3894
 1898SOL     OW 6592   6.380   5.650   5.050 -0.2151  0.2896 -0.1244
 1898SOL    HW1 6593   6.384   5.700   4.963 -0.2138  0.4917 -0.0088
 1898SOL    HW2 6594   6.366   5.553   5.032 -1.4458  0.4784 -0.3293
 1899SOL     OW 6595   2.908   3.416   5.680  0.1796  0.4740 -0.1397
 1899SOL    HW1 6596   2.929   3.503   5.636 -1.3315 -0.1520 -2.2560
 1899SOL    HW2 6597   2.852   3.433   5.762  0.6060  1.5164 -0.0505
 1900SOL     OW 6598   0.401   5.989   2.082 -0.8872 -0.1244 -0.0735
 1900SOL    HW1 6599   0.410   6.087   2.061 -0.2562 -0.3583 -0.9764
 1900SOL    HW2 6600   0.492   5.948   2.086 -1.0903 -0.4907  1.2994
 1901SOL     OW 6601   0.150   0.507   6.206  0.0921 -0.3295 -0.1426
 1901SOL    HW1 6602   0.199   0.489   6.120 -0.2475 -2.2065  0.0143
 1901SOL    HW2 6603   0.164   0.430   6.269 -1.9599 -0.3076  0.4091
 1902SOL     OW 6604   1.086   2.613   4.218  0.0467 -0.2981  0.3706
 1902SOL    HW1 6605   1.115   2.518   4.203  1.5437  0.1295  0.3944
 1902SOL    HW2 6606   1.164   2.668   4.246 -0.5240  1.2319 -0.8832
 1903SOL     OW 6607   1.267   5.335   3.561 -0.5907  0.1002 -0.7109
 1903SOL    HW1 6608   1.260   5.235   3.564  0.6164 -0.0436 -1.7237
 1903SOL    HW2 6609   1.199   5.372   3.499 -2.0974  0.0739  0.8550
 1904SOL     OW 6610   6.326   1.625   4.459  0.0439  0.1295  0.2051
 1904SOL    HW1 6611   6.350   1.531   4.485  0.1836  0.7601  2.5934
 1904SOL    HW2 6612   6.371   1.648   4.373  1.6193 -1.3471  0.5804
 1905SOL     OW 6613   4.617   2.272   6.590 -0.0409  0.1803 -0.0302
 1905SOL    HW1 6614   4.587   2.358   6.549  0.2999  0.6810  0.7590
 1905SOL    HW2 6615   4.617   2.280   6.689 -0.3948 -0.8680  0.0687
 1906SOL     OW 6616   2.194   5.290   5.439 -0.0807 -0.0495  0.3618
 1906SOL    HW1 6617   2.290   5.314   5.426 -0.5219  2.0203  0.5384
 1906SOL    HW2 6618   2.153   5.268   5.350  0.1793  0.6524  0.0582
 1907SOL     OW 6619   3.130   0.898   1.291 -0.0737 -0.5813 -0.4983
 1907SOL    HW1 6620   3.210   0.874   1.345 -0.7539 -0.1600  0.7281
 1907SOL    HW2 6621   3.083   0.815   1.261 -1.8316 -0.9444  2.8316
 1908SOL     OW 6622   4.657   3.843   0.645  0.4517  0.3931 -0.2555
 1908SOL    HW1 6623   4.678   3.873   0.552  0.3266 -1.5572 -0.9705
 1908SOL    HW2 6624   4.578   3.780   0.643  0.1184  0.7088  1.2441
 1909SOL     OW 6625   6.052   6.611   5.715  0.0707 -0.3006 -0.3535
 1909SOL    HW1 6626   6.114   6.654   5.781 -1.3957  0.4066  0.6430
 1909SOL    HW2 6627   5.966   6.589   5.761 -0.4977 -1.0493 -1.7337
 1910SOL     OW 6628   4.025   4.883   3.651 -0.2278 -0.8983 -0.9594
 1910SOL    HW1 6629   4.093   4.875   3.578 -0.1573  1.2175 -1.1922
 1910SOL    HW2 6630   3.936   4.904   3.612 -0.4134 -0.8081 -0.4975
 1911SOL     OW 6631   0.504   1.921   5.706 -0.1295  0.2212 -0.1548
 1911SOL    HW1 6632   0.489   1.881   5.615 -1.8701 -0.9546  0.5870
 1911SOL    HW2 6633   0.444   2.000   5.718 -1.2252 -0.7004  0.5852
 1912SOL     OW 6634   3.772   0.647   1.227  0.0830  0.5311  0.0310
 1912SOL    HW1 6635   3.826   0.730   1.234 -0.7289  1.0220  0.5773
 1912SOL    HW2 6636   3.678   0.665   1.257  0.1003 -0.7689  0.9615
 1913SOL     OW 6637   3.602   5.226   6.464  0.3038  0.2696  0.1706
 1913SOL    HW1 6638   3.593   5.310   6.517 -2.1042  0.4577 -0.4313
 1913SOL    HW2 6639   3.643   5.247   6.376  2.5262  0.2655  1.1458
 1914SOL     OW 6640   4.525   2.708   5.800 -0.1150  0.0309  0.5501
 1914SOL    HW1 6641   4.543   2.610   5.807  2.9948  0.5308  1.2297
 1914SOL    HW2 6642   4.433   2.723   5.763  0.2305 -3.1063 -2.0367
 1915SOL     OW 6643   3.964   0.545   5.257  0.1390 -0.1859 -0.2588
 1915SOL    HW1 6644   3.977   0.645   5.255 -0.4468 -0.1190 -1.4050
 1915SOL    HW2 6645   3.902   0.518   5.183 -1.1589 -1.1979  1.1487
 1916SOL     OW 6646   4.039   0.036   2.990  0.2202 -0.5422  0.2838
 1916SOL    HW1 6647   4.127   0.029   2.942  0.3999  0.0910  0.5071
 1916SOL    HW2 6648   4.030   0.128   3.029 -0.8985 -0.3331 -0.4275
 1917SOL     OW 6649   3.965   3.744   4.239 -0.6157  0.0847  0.3504
 1917SOL    HW1 6650   3.898   3.688   4.288 -1.6666 -0.1903 -1.3290
 1917SOL    HW2 6651   3.971   3.834   4.282 -0.3438 -0.6216  1.8927
 1918SOL     OW 6652   0.733   0.033   6.353  0.2778  1.0085  0.3845
 1918SOL    HW1 6653   0.796  -0.020   6.410  0.4807 -0.0742 -0.8107
 1918SOL    HW2 6654   0.712  -0.018   6.270 -1.4907  1.7409  0.3424
 1919SOL     OW 6655   4.797   1.292   2.027 -0.3271  0.0272  0.2234
 1919SOL    HW1 6656   4.764   1.270   2.118 -2.3013  2.7637  0.2740
 1919SOL    HW2 6657   4.884   1.341   2.033  0.9016 -2.0473  0.4027
 1920SOL     OW 6658   4.856   0.099   3.945 -0.0801 -0.0137  0.6406
 1920SOL    HW1 6659   4.881   0.008   3.912  0.5632  0.3275  0.1748
 1920SOL    HW2 6660   4.756   0.106   3.949 -0.4434  0.9231 -4.3035
 1921SOL     OW 6661   3.466   0.353   0.009 -0.1535  0.1821  0.2093
 1921SOL    HW1 6662   3.525   0.426  -0.025  0.9120 -0.0402  1.5205
 1921SOL    HW2 6663   3.476   0.272  -0.048 -0.1063  0.5277 -0.2772
 1922SOL     OW 6664   4.090   4.394   6.770 -0.0549  0.4427 -0.0728
 1922SOL    HW1 6665   4.138   4.482   6.771 -1.0272  1.0225  2.4286
 1922SOL    HW2 6666   4.157   4.320   6.766  0.8412  1.2717 -0.8216
 1923SOL     OW 6667   1.025   4.934   1.794  0.1527  0.3962 -0.4307
 1923SOL    HW1 6668   0.989   4.977   1.712 -0.8973  2.7831  1.1540
 1923SOL    HW2 6669   1.095   4.993   1.835  0.6180 -0.7045  0.4200
 1924SOL     OW 6670   1.193   4.575   1.014  0.0363 -0.6750 -0.1766
 1924SOL    HW1 6671   1.225   4.529   1.096  0.1441  1.6087  1.1359
 1924SOL    HW2 6672   1.238   4.535   0.934  2.9489 -0.4153  1.2073
 1925SOL     OW 6673   2.598   5.169   6.823 -0.0147 -0.0505 -0.2804
 1925SOL    HW1 6674   2.657   5.193   6.746 -0.5452 -0.8063 -0.9344
 1925SOL    HW2 6675   2.653   5.128   6.896  0.8038  2.3553  0.5604
 1926SOL     OW 6676   1.114   0.492   3.587  0.0065  0.6796  0.2602
 1926SOL    HW1 6677   1.131   0.414   3.648  1.9088  1.1653  0.3852
 1926SOL    HW2 6678   1.164   0.480   3.502  0.6934  1.9694  0.4620
 1927SOL     OW 6679   5.217   3.977   1.494  0.6076  0.2875  0.0718
 1927SOL    HW1 6680   5.252   4.070   1.500 -0.8494  0.9094 -0.5617
 1927SOL    HW2 6681   5.213   3.948   1.398 -0.4453  0.2001  0.1207
 1928SOL     OW 6682   0.458   6.314   5.724 -0.2965  0.1579  0.1174
 1928SOL    HW1 6683   0.469   6.226   5.678 -1.2321  0.2920 -0.3874
 1928SOL    HW2 6684   0.393   6.371   5.673 -1.7701  0.1213  1.8366
 1929SOL     OW 6685   1.742   2.991   4.579  0.3114 -0.2360 -0.3530
 1929SOL    HW1 6686   1.779   3.083   4.575 -0.9603  0.2633 -1.4005
 1929SOL    HW2 6687   1.646   2.995   4.606 -0.0574 -1.1551 -1.4705
 1930SOL     OW 6688   6.560   4.914   4.608 -0.1258 -0.0634  0.2235
 1930SOL    HW1 6689   6.655   4.926   4.577 -0.6812 -0.5352 -1.8380
 1930SOL    HW2 6690   6.535   4.817   4.598 -1.2764  0.3133 -0.7030
 1931SOL     OW 6691   2.738   1.787   4.004 -0.3531 -0.3742  0.0233
 1931SOL    HW1 6692   2.814   1.775   3.939  1.5493  3.0787  1.3694
 1931SOL    HW2 6693   2.736   1.709   4.066 -0.7881 -2.6523 -2.6220
 1932SOL     OW 6694   4.984   1.924   1.430 -0.1659 -0.0798 -0.4777
 1932SOL    HW1 6695   4.908   1.860   1.443 -2.2161  1.9679 -1.6920
 1932SOL    HW2 6696   4.991   1.983   1.510  1.7139 -1.7034  0.6342
 1933SOL     OW 6697   1.702   4.802   6.128  0.3776  0.1161 -0.4550
 1933SOL    HW1 6698   1.762   4.758   6.196  1.5395  0.1880 -1.3934
 1933SOL    HW2 6699   1.709   4.901   6.136  0.3053  0.1233 -0.4845
 1934SOL     OW 6700   0.352   0.792   3.295  0.1367  0.1574  0.4183
 1934SOL    HW1 6701   0.351   0.812   3.198 -2.2013  1.5830  0.6503
 1934SOL    HW2 6702   0.311   0.702   3.311  0.1476  0.1002  0.1237
 1935SOL     OW 6703   0.726   2.376   2.706 -0.2559 -0.1434  0.3329
 1935SOL    HW1 6704   0.710   2.461   2.656 -1.1933 -0.2691  0.4082
 1935SOL    HW2 6705   0.671   2.303   2.668  0.7990 -0.8157  0.0587
 1936SOL     OW 6706   6.918   6.098   4.423 -0.4102  0.0393  0.0130
 1936SOL    HW1 6707   6.881   6.012   4.386  0.0953 -1.0030  1.7902
 1936SOL    HW2 6708   6.916   6.094   4.523 -0.9371  2.3832  0.1498
 1937SOL     OW 6709   3.876   2.116   3.908  0.0082  0.0909 -0.2924
 1937SOL    HW1 6710   3.964   2.113   3.956 -0.6639 -2.9569  0.9610
 1937SOL    HW2 6711   3.806   2.150   3.970 -0.1159  0.3975 -0.5936
 1938SOL     OW 6712   4.970   0.297   3.268  0.1636  0.0260 -0.0171
 1938SOL    HW1 6713   4.949   0.386   3.226  1.3914 -0.2098 -1.1963
 1938SOL    HW2 6714   5.024   0.311   3.351  1.3372  0.3586 -0.8195
 1939SOL     OW 6715   1.591   0.756   5.062  0.0937 -0.1940  0.0206
 1939SOL    HW1 6716   1.589   0.661   5.093 -0.6270 -0.1736  0.0478
 1939SOL    HW2 6717   1.513   0.773   5.002  0.8468  0.0786 -0.8917
 1940SOL     OW 6718   6.480   0.490   4.986  0.5877 -0.0288  0.2657
 1940SOL    HW1 6719   6.438   0.443   5.063 -0.2562 -0.9285 -0.7100
 1940SOL    HW2 6720   6.580   0.491   4.998  0.4058  0.9240  1.9312
 1941SOL     OW 6721   3.809   5.840   3.300  0.1137 -0.5428  0.2295
 1941SOL    HW1 6722   3.816   5.758   3.356 -0.6070 -2.6206 -2.4772
 1941SOL    HW2 6723   3.900   5.874   3.279  0.5114 -1.6748  0.0578
 1942SOL     OW 6724   4.915   3.438   2.181  0.1486  0.4395  0.0286
 1942SOL    HW1 6725   4.848   3.386   2.129 -0.3523  2.2749 -1.2668
 1942SOL    HW2 6726   4.982   3.479   2.118  0.5173  1.3588  0.9809
 1943SOL     OW 6727   2.506   6.497   4.474  0.1161 -0.0134 -0.1547
 1943SOL    HW1 6728   2.496   6.406   4.435  0.9219 -0.4482  0.6290
 1943SOL    HW2 6729   2.599   6.509   4.508  0.1795  1.3012 -0.7293
 1944SOL     OW 6730   5.335   6.964   1.802  0.1612 -0.1692  0.4452
 1944SOL    HW1 6731   5.410   6.899   1.797 -0.1505 -0.4746 -0.3233
 1944SOL    HW2 6732   5.303   6.986   1.710 -0.6585 -0.0104  0.7595
 1945SOL     OW 6733   1.938   4.865   2.120  0.1578 -0.6009 -0.4689
 1945SOL    HW1 6734   2.001   4.922   2.066 -0.8918  0.4894 -0.5893
 1945SOL    HW2 6735   1.953   4.882   2.217 -0.8075  0.6718 -0.5138
 1946SOL     OW 6736   1.114   6.403   5.650  0.2120 -0.3713 -0.2415
 1946SOL    HW1 6737   1.079   6.348   5.726  2.3741 -2.0272 -0.3632
 1946SOL    HW2 6738   1.176   6.473   5.685 -0.4202  0.2631 -0.3464
 1947SOL     OW 6739   5.348   1.465   6.218  0.3669  0.3280 -0.4526
 1947SOL    HW1 6740   5.352   1.390   6.285 -0.0216 -0.4415 -1.2594
 1947SOL    HW2 6741   5.258   1.464   6.173  0.5144  1.0168 -0.7731
 1948SOL     OW 6742   0.551   4.485   5.912 -0.6449  0.2787 -0.5651
 1948SOL    HW1 6743   0.480   4.553   5.931 -1.3360 -0.0304 -1.9141
 1948SOL    HW2 6744   0.636   4.532   5.889 -0.5409  0.6543  0.5067
 1949SOL     OW 6745   5.204   3.502   0.580 -0.2602  0.3189  0.1077
 1949SOL    HW1 6746   5.153   3.445   0.517 -1.1566  1.4654 -0.2407
 1949SOL    HW2 6747   5.166   3.493   0.672  1.2180 -1.5616  0.5993
 1950SOL     OW 6748   5.665   4.709   1.549  0.0554 -0.2648 -0.0626
 1950SOL    HW1 6749   5.675   4.752   1.639  1.0419  2.0744 -1.2119
 1950SOL    HW2 6750   5.753   4.706   1.503 -0.0198 -3.3873 -0.1987
 1951SOL     OW 6751   4.474   2.122   0.394  0.5026  0.2720 -0.0260
 1951SOL    HW1 6752   4.448   2.098   0.301  1.2323  0.4966 -0.2952
 1951SOL    HW2 6753   4.395   2.160   0.442  0.5128  1.7001 -1.0812
 1952SOL     OW 6754   3.237   3.002   3.729  0.0813  0.2929 -0.1116
 1952SOL    HW1 6755   3.237   3.010   3.629 -0.5339  0.7740 -0.0815
 1952SOL    HW2 6756   3.260   2.908   3.755 -0.3704  0.0035 -0.7256
 1953SOL     OW 6757   1.238   2.925   4.774  0.0359  0.1019  0.1420
 1953SOL    HW1 6758   1.206   2.896   4.864  0.4312 -1.8039 -0.2707
 1953SOL    HW2 6759   1.178   2.886   4.704  0.9312 -0.2127 -0.4786
 1954SOL     OW 6760   1.752   0.960   4.469  0.5853 -0.0983  0.0436
 1954SOL    HW1 6761   1.847   0.986   4.451  0.2890  0.9766 -0.0723
 1954SOL    HW2 6762   1.747   0.863   4.492  2.0066  0.2534  2.1430
 1955SOL     OW 6763   5.999   6.745   3.140 -0.0639 -0.6324  0.0926
 1955SOL    HW1 6764   6.075   6.775   3.083 -0.8646 -1.7543 -1.6825
 1955SOL    HW2 6765   5.970   6.819   3.200 -0.5001  1.4349 -2.4612
 1956SOL     OW 6766   3.796   6.892   2.515  0.1265  0.6637  0.4222
 1956SOL    HW1 6767   3.717   6.894   2.454  0.1892  4.1531  0.3062
 1956SOL    HW2 6768   3.850   6.810   2.495 -0.4140  1.0406 -3.4918
 1957SOL     OW 6769   3.954   5.518   6.816  0.0698 -0.2039 -0.2942
 1957SOL    HW1 6770   3.869   5.508   6.868  0.2934  0.4173  0.2137
 1957SOL    HW2 6771   4.008   5.434   6.824  0.3263  0.0562  0.9215
 1958SOL     OW 6772   4.764   2.446   0.198 -0.2342  0.2328 -0.0822
 1958SOL    HW1 6773   4.713   2.429   0.283 -0.0616  0.8056  0.1422
 1958SOL    HW2 6774   4.860   2.465   0.220 -0.2651  0.7478 -0.3727
 1959SOL     OW 6775   4.516   6.729   2.300  0.0430 -0.1551 -0.3372
 1959SOL    HW1 6776   4.510   6.742   2.201  0.4593 -2.1396 -0.6596
 1959SOL    HW2 6777   4.454   6.656   2.328  1.8381 -1.4849  0.4223
 1960SOL     OW 6778   1.701   4.613   4.327  0.1698 -0.4920 -0.1195
 1960SOL    HW1 6779   1.770   4.671   4.284  0.0752  0.1299  0.5332
 1960SOL    HW2 6780   1.722   4.604   4.425 -1.2103  0.5345  0.2981
 1961SOL     OW 6781   6.330   5.287   5.113  0.4461 -0.5275 -0.1114
 1961SOL    HW1 6782   6.284   5.213   5.065 -0.1734  0.1730 -0.6214
 1961SOL    HW2 6783   6.267   5.329   5.179  0.6849 -0.2487 -0.0558
 1962SOL     OW 6784   6.314   0.513   4.796 -0.7434 -0.3868  0.3383
 1962SOL    HW1 6785   6.376   0.535   4.871 -0.3739 -1.0756  0.2344
 1962SOL    HW2 6786   6.230   0.567   4.806  0.1204  1.0409  0.1157
 1963SOL     OW 6787   2.539   1.635   4.596  0.1661 -0.3982 -0.1054
 1963SOL    HW1 6788   2.521   1.710   4.659  3.2585  0.2036  0.2206
 1963SOL    HW2 6789   2.581   1.558   4.646  2.5656  0.0485 -1.2698
 1964SOL     OW 6790   5.466   3.095   2.430  0.4775  0.1570  0.1205
 1964SOL    HW1 6791   5.495   3.110   2.524  0.5825  1.5310 -0.1080
 1964SOL    HW2 6792   5.414   3.175   2.398  1.2155  0.1092 -1.2780
 1965SOL     OW 6793   6.905   0.485   2.659  0.1203 -0.4016 -0.8874
 1965SOL    HW1 6794   6.813   0.452   2.638 -0.2712  1.0257 -1.5178
 1965SOL    HW2 6795   6.942   0.534   2.580  0.4349  1.1454  0.1702
 1966SOL     OW 6796   5.999   0.514   1.030 -0.7065 -0.1344  0.0634
 1966SOL    HW1 6797   5.984   0.609   1.058 -0.9396  0.6689 -2.5289
 1966SOL    HW2 6798   5.922   0.458   1.061 -0.9984  0.6879  0.8838
 1967SOL     OW 6799   5.932   3.492   3.768 -0.3806  0.0890 -0.4040
 1967SOL    HW1 6800   5.957   3.583   3.734 -1.2256  0.6673  0.4871
 1967SOL    HW2 6801   5.889   3.500   3.858  0.0275 -1.2461 -0.0567
 1968SOL     OW 6802   4.735   5.249   3.847 -0.3409 -0.1527 -0.2551
 1968SOL    HW1 6803   4.800   5.239   3.772 -1.1368  1.0405 -1.1265
 1968SOL    HW2 6804   4.643   5.265   3.811 -0.9154 -0.4928  0.9717
 1969SOL     OW 6805   6.995   2.284   4.989  0.2595  0.0569  0.2396
 1969SOL    HW1 6806   7.039   2.371   5.009  0.6172  0.0667 -0.5530
 1969SOL    HW2 6807   7.041   2.240   4.912 -1.4110  0.3130 -0.9686
 1970SOL     OW 6808   2.114   2.216   5.579  0.3658  0.0990  0.4308
 1970SOL    HW1 6809   2.145   2.144   5.640 -0.9415 -0.7509  0.1477
 1970SOL    HW2 6810   2.174   2.222   5.500  2.0130  1.1374  1.6972
 1971SOL     OW 6811   0.199   0.904   0.423 -0.3165 -0.7020 -0.0623
 1971SOL    HW1 6812   0.285   0.857   0.399 -0.2861 -0.0120 -1.4274
 1971SOL    HW2 6813   0.193   0.913   0.522  1.3133 -0.5779  0.0651
 1972SOL     OW 6814   1.464   5.975   2.975 -0.1843 -0.1190  0.1572
 1972SOL    HW1 6815   1.434   5.976   3.071 -0.9924 -0.6884 -0.0770
 1972SOL    HW2 6816   1.484   5.881   2.947 -0.4812 -0.0260 -0.3843
 1973SOL     OW 6817   2.658   1.323   0.765 -0.1032  0.3123 -0.1994
 1973SOL    HW1 6818   2.629   1.371   0.848 -0.0442 -0.7813  0.4721
 1973SOL    HW2 6819   2.726   1.254   0.788  0.6133  0.6117 -1.3050
 1974SOL     OW 6820   6.426   6.641   2.241 -0.5017 -0.1866  0.7243
 1974SOL    HW1 6821   6.394   6.720   2.189 -0.2302  0.5155  1.6003
 1974SOL    HW2 6822   6.524   6.650   2.258 -0.1803 -1.3998 -0.3381
 1975SOL     OW 6823   1.792   1.155   4.008  0.1666 -0.5340  0.1876
 1975SOL    HW1 6824   1.885   1.163   4.044 -0.3151  1.3375  1.1800
 1975SOL    HW2 6825   1.729   1.132   4.082 -0.3676 -0.1926 -0.1510
 1976SOL     OW 6826   6.662   4.549   5.604  0.5389 -0.1995  0.2972
 1976SOL    HW1 6827   6.671   4.496   5.688  1.1661 -0.4023  0.1094
 1976SOL    HW2 6828   6.745   4.602   5.589  0.5196 -0.3283 -0.3022
 1977SOL     OW 6829   1.615   2.090   5.869  0.4975 -0.6741 -0.3809
 1977SOL    HW1 6830   1.657   2.005   5.902 -0.4736 -1.5712 -1.3914
 1977SOL    HW2 6831   1.523   2.072   5.836 -1.1216  1.3777  2.5216
 1978SOL     OW 6832   6.730   3.696   3.433 -0.0765 -0.3765  1.3072
 1978SOL    HW1 6833   6.711   3.794   3.431  2.5545  0.2623 -1.8346
 1978SOL    HW2 6834   6.800   3.677   3.502  0.9690  0.3833  0.4897
 1979SOL     OW 6835   6.105   5.319   2.816 -0.0456 -0.2338  0.1958
 1979SOL    HW1 6836   6.179   5.386   2.808  0.1736 -0.2410  1.9033
 1979SOL    HW2 6837   6.081   5.307   2.912 -0.4087 -2.2737 -0.1154
 1980SOL     OW 6838   2.808   0.300   1.296 -0.5361 -0.3423 -0.4028
 1980SOL    HW1 6839   2.808   0.312   1.395 -0.9170 -0.0620 -0.4355
 1980SOL    HW2 6840   2.873   0.364   1.255 -0.3186 -0.5138 -0.3306
 1981SOL     OW 6841   6.218   3.229   1.563  0.1004  0.1291 -0.1211
 1981SOL    HW1 6842   6.244   3.324   1.580  1.5533 -0.3579  0.5065
 1981SOL    HW2 6843   6.158   3.225   1.483 -0.0825  1.5785 -0.0883
 1982SOL     OW 6844   0.057   6.817   5.086 -0.5151  0.5912  0.5905
 1982SOL    HW1 6845  -0.016   6.782   5.027 -0.6878 -0.5626  1.4551
 1982SOL    HW2 6846   0.138   6.836   5.031 -0.1186 -2.0373  0.1610
 1983SOL     OW 6847   0.572   5.675   0.403 -0.1649  0.3824 -0.3803
 1983SOL    HW1 6848   0.658   5.626   0.412 -0.7289 -0.4307  0.8903
 1983SOL    HW2 6849   0.573   5.729   0.319  1.6392  0.5448 -0.2917
 1984SOL     OW 6850   5.143   6.579   6.476  0.4173 -0.2322  0.6878
 1984SOL    HW1 6851   5.066   6.617   6.425  0.0674 -1.2266  0.4576
 1984SOL    HW2 6852   5.183   6.503   6.425  1.7035  0.4141  0.7077
 1985SOL     OW 6853   1.793   5.489   1.980  0.1185  0.9290 -0.0498
 1985SOL    HW1 6854   1.841   5.401   1.986 -1.1193  0.1785 -0.7851
 1985SOL    HW2 6855   1.776   5.524   2.072  0.2077  0.1608  0.2646
 1986SOL     OW 6856   4.874   1.125   2.850  0.2624  0.0296  0.1207
 1986SOL    HW1 6857   4.899   1.044   2.902 -0.9174  0.0279  0.7038
 1986SOL    HW2 6858   4.898   1.112   2.754 -0.3938 -1.2163  0.1157
 1987SOL     OW 6859   2.072   3.332   7.016 -0.7328 -0.2072  0.3261
 1987SOL    HW1 6860   2.143   3.351   7.083  0.1785  1.1052 -0.9561
 1987SOL    HW2 6861   2.010   3.410   7.009 -1.0166 -0.4640 -0.1152
 1988SOL     OW 6862   5.307   1.220   0.233  0.3042 -0.2222 -0.6811
 1988SOL    HW1 6863   5.288   1.314   0.260  2.4425  1.4686 -4.2714
 1988SOL    HW2 6864   5.239   1.190   0.167 -0.3851 -1.2934  0.4665
 1989SOL     OW 6865   2.743   1.727   2.994  0.1335 -0.8564 -0.2723
 1989SOL    HW1 6866   2.791   1.789   3.057 -2.5895  0.9048  0.2643
 1989SOL    HW2 6867   2.810   1.675   2.941  2.5748 -1.5052  3.1043
 1990SOL     OW 6868   0.758   5.852   2.143  0.1028  0.5538  0.1001
 1990SOL    HW1 6869   0.802   5.820   2.059  0.2440  1.5349 -0.2108
 1990SOL    HW2 6870   0.725   5.773   2.195  0.9011 -0.1182 -0.3833
 1991SOL     OW 6871   5.692   5.328   2.859 -0.1184  0.1032  0.6280
 1991SOL    HW1 6872   5.638   5.412   2.859 -1.3251 -0.6451  0.7556
 1991SOL    HW2 6873   5.704   5.295   2.953 -1.3028 -0.8673  0.4654
 1992SOL     OW 6874   2.980   4.964   4.305  0.0620  0.8343 -0.0721
 1992SOL    HW1 6875   2.987   4.961   4.205  3.1362 -0.8573  0.0956
 1992SOL    HW2 6876   3.067   4.992   4.344 -0.7516  0.4210  2.2059
 1993SOL     OW 6877   3.946   3.063   3.961 -0.7819 -0.1870 -0.6456
 1993SOL    HW1 6878   3.992   3.138   4.009 -2.1505  0.7970 -0.8097
 1993SOL    HW2 6879   3.878   3.021   4.023 -2.4323  0.9739 -1.5825
 1994SOL     OW 6880   0.262   1.041   1.452 -0.0047 -0.8267  0.0241
 1994SOL    HW1 6881   0.190   1.004   1.510  1.2466 -3.9089 -0.1458
 1994SOL    HW2 6882   0.237   1.030   1.356  0.2296 -0.9807 -0.0231
 1995SOL     OW 6883   4.233   3.113   1.458 -0.0286 -0.6386  0.1981
 1995SOL    HW1 6884   4.193   3.184   1.517 -0.2331 -0.2691 -0.3806
 1995SOL    HW2 6885   4.180   3.029   1.467 -0.1610 -0.5336  0.4139
 1996SOL     OW 6886   1.620   6.101   4.537 -0.1405 -0.2786  0.9121
 1996SOL    HW1 6887   1.532   6.121   4.579 -1.1686  1.0174 -1.6393
 1996SOL    HW2 6888   1.606   6.048   4.454  1.3717  0.7078 -0.0221
 1997SOL     OW 6889   6.675   6.801   3.849 -0.0630 -0.0727  0.3550
 1997SOL    HW1 6890   6.620   6.756   3.919 -1.0832  1.2053  0.4015
 1997SOL    HW2 6891   6.732   6.872   3.891  0.6614 -0.4979  0.1197
 1998SOL     OW 6892   2.736   5.621   4.460 -0.3164  0.0941 -0.2628
 1998SOL    HW1 6893   2.768   5.640   4.368 -0.6267  0.2280 -0.3453
 1998SOL    HW2 6894   2.800   5.660   4.527  1.2344 -2.1051 -0.3732
 1999SOL     OW 6895   3.148   6.943   2.122  0.3361 -0.7767  0.0875
 1999SOL    HW1 6896   3.172   6.894   2.205 -0.1601  2.5355  2.3757
 1999SOL    HW2 6897   3.051   6.929   2.102 -0.2143  0.4874  1.6943
 2000SOL     OW 6898   3.577   5.953   6.762 -0.1100 -0.2897  0.0046
 2000SOL    HW1 6899   3.674   5.970   6.745  0.2344 -1.7146  0.4095
 2000SOL    HW2 6900   3.527   6.039   6.760  1.0851  0.4124 -0.6800
 2001SOL     OW 6901   2.342   3.335   1.288 -0.3285 -0.7637 -0.3751
 2001SOL    HW1 6902   2.359   3.341   1.386 -1.2422 -2.7998 -0.0321
 2001SOL    HW2 6903   2.401   3.265   1.248  1.4551  1.3497 -1.7346
 2002SOL     OW 6904   2.815   5.057   5.412 -0.3042 -0.1539  0.4332
 2002SOL    HW1 6905   2.740   5.106   5.456  0.2900  0.6820  0.5289
 2002SOL    HW2 6906   2.873   5.016   5.482 -0.9172 -1.1989  0.3508
 2003SOL     OW 6907   5.533   5.605   3.165  0.0151  0.6680 -0.4971
 2003SOL    HW1 6908   5.580   5.606   3.076  1.2989 -0.4518  0.1329
 2003SOL    HW2 6909   5.599   5.582   3.237 -1.1484  0.8874  0.6615
 2004SOL     OW 6910   2.613   6.385   1.408  0.0721  0.8886 -0.4618
 2004SOL    HW1 6911   2.645   6.424   1.322  1.9600 -0.6252 -0.5015
 2004SOL    HW2 6912   2.640   6.445   1.484 -0.1965  1.4239 -0.7802
 2005SOL     OW 6913   0.362   6.495   6.466  0.6548  0.2701 -0.3076
 2005SOL    HW1 6914   0.334   6.494   6.562  0.5990  1.3610 -0.2966
 2005SOL    HW2 6915   0.386   6.588   6.440  0.0094  0.1029 -1.5482
 2006SOL     OW 6916   4.286   0.191   2.483  0.0233  0.0910 -0.3312
 2006SOL    HW1 6917   4.221   0.155   2.551  0.3805  0.8607  0.4354
 2006SOL    HW2 6918   4.240   0.259   2.426  0.0876  0.4672  0.0612
 2007SOL     OW 6919   5.648   6.779   6.527 -0.3180 -0.4503 -0.0015
 2007SOL    HW1 6920   5.688   6.780   6.619  1.5777 -1.4455 -0.7509
 2007SOL    HW2 6921   5.659   6.868   6.484  1.3594 -0.7472 -0.2528
 2008SOL     OW 6922   6.558   6.204   5.929  0.2607 -0.6196 -0.0290
 2008SOL    HW1 6923   6.588   6.281   5.874  0.2401 -0.5987 -0.0106
 2008SOL    HW2 6924   6.631   6.136   5.933  0.7186 -0.1029  0.8803
 2009SOL     OW 6925   1.552   0.065   0.537 -0.0516  0.4438  0.4224
 2009SOL    HW1 6926   1.604  -0.011   0.576  0.9719 -0.2856 -2.1576
 2009SOL    HW2 6927   1.460   0.065   0.575 -0.6751 -3.2087 -0.6486
 2010SOL     OW 6928   4.479   6.744   0.318 -0.3267 -0.2384 -0.2265
 2010SOL    HW1 6929   4.412   6.715   0.386 -1.5403 -1.2693 -1.7643
 2010SOL    HW2 6930   4.487   6.673   0.248  0.7293  0.8517 -1.2589
 2011SOL     OW 6931   1.233   2.156   5.343 -0.4271  0.0548  0.0907
 2011SOL    HW1 6932   1.208   2.096   5.419 -0.3019  0.1481  0.2074
 2011SOL    HW2 6933   1.322   2.197   5.362 -1.6735  2.4055  1.3276
 2012SOL     OW 6934   0.624   2.516   3.012  0.5244 -0.1587  0.6002
 2012SOL    HW1 6935   0.647   2.447   2.943  1.3354  2.2169 -1.6751
 2012SOL    HW2 6936   0.527   2.537   3.007  0.5439 -0.1309  0.3436
 2013SOL     OW 6937   4.055   2.173   3.028  0.4028  0.5317  0.1503
 2013SOL    HW1 6938   3.972   2.176   3.084 -0.3135 -0.0682 -0.8485
 2013SOL    HW2 6939   4.035   2.208   2.937  1.8247  2.5413  0.5469
 2014SOL     OW 6940   2.559   5.283   3.441 -0.3193 -0.1448  0.1454
 2014SOL    HW1 6941   2.548   5.374   3.402 -0.2382 -0.7074 -1.2591
 2014SOL    HW2 6942   2.601   5.223   3.373 -0.5571 -1.2805  0.9738
 2015SOL     OW 6943   2.997   5.978   0.653 -0.3736  0.2815  0.1531
 2015SOL    HW1 6944   3.080   5.969   0.709 -0.2523 -1.4012 -0.2450
 2015SOL    HW2 6945   2.988   5.899   0.594 -1.4413  1.2083 -0.9767
 2016SOL     OW 6946   6.224   0.415   4.146  0.2103  0.1469  0.0620
 2016SOL    HW1 6947   6.251   0.380   4.236  1.1380  1.0887  0.1750
 2016SOL    HW2 6948   6.174   0.501   4.157  1.9297  1.2680 -0.3329
 2017SOL     OW 6949   1.299   6.895   1.267 -0.4661  0.1640 -0.6791
 2017SOL    HW1 6950   1.384   6.845   1.283 -0.3442 -0.1905 -2.3092
 2017SOL    HW2 6951   1.318   6.993   1.262 -0.0997  0.0588 -1.3771
 2018SOL     OW 6952   1.073   3.437   5.511  0.1841 -0.0030  0.0220
 2018SOL    HW1 6953   1.054   3.369   5.441  4.9779 -0.8328 -0.8433
 2018SOL    HW2 6954   1.093   3.391   5.598  1.4645  0.3332 -0.0613
 2019SOL     OW 6955   1.567   1.093   3.018  0.2470  0.2264 -0.2695
 2019SOL    HW1 6956   1.568   1.185   2.979 -0.5218 -0.1061 -1.0929
 2019SOL    HW2 6957   1.639   1.086   3.088  2.3079  0.5391 -2.2462
 2020SOL     OW 6958   1.301   5.381   3.220 -0.6943  0.5113  0.4049
 2020SOL    HW1 6959   1.247   5.310   3.175 -0.3060 -0.3253  1.2187
 2020SOL    HW2 6960   1.384   5.398   3.168 -1.0570  0.7849 -0.0946
 2021SOL     OW 6961   0.729   0.177   1.946  0.1883 -0.4178 -0.0897
 2021SOL    HW1 6962   0.727   0.276   1.934 -0.3553 -0.3143  0.7349
 2021SOL    HW2 6963   0.813   0.140   1.906  0.5013  0.4049 -0.2114
 2022SOL     OW 6964   3.987   6.419   1.598  0.1501  0.0071  0.1421
 2022SOL    HW1 6965   3.960   6.416   1.694  0.4890 -1.3972  0.2198
 2022SOL    HW2 6966   3.955   6.504   1.557  0.0952  0.6754  1.5183
 2023SOL     OW 6967   6.199   3.233   0.001 -0.4443  0.3371  0.0312
 2023SOL    HW1 6968   6.231   3.221  -0.093  2.1923  1.3978  0.7178
 2023SOL    HW2 6969   6.163   3.146   0.035  0.0917 -0.4779 -1.4026
 2024SOL     OW 6970   6.352   3.371   2.417 -0.3701  0.3060 -0.0940
 2024SOL    HW1 6971   6.363   3.276   2.446  1.3692  0.5343  0.0994
 2024SOL    HW2 6972   6.394   3.431   2.484 -0.8140  1.1781 -0.5838
 2025SOL     OW 6973   6.205   0.548   5.298 -0.1316 -0.0697 -0.3366
 2025SOL    HW1 6974   6.259   0.536   5.381 -1.7136  0.0094  0.7679
 2025SOL    HW2 6975   6.228   0.636   5.256  0.2319  0.2015  0.4022
 2026SOL     OW 6976   3.028   2.542   6.358  0.7304 -0.3325 -0.6120
 2026SOL    HW1 6977   3.107   2.572   6.303  0.6713 -1.7741 -1.5551
 2026SOL    HW2 6978   2.945   2.586   6.324  1.0678  1.0007  0.2232
 2027SOL     OW 6979   0.053   6.598   2.060 -0.1875 -0.4418 -0.4618
 2027SOL    HW1 6980  -0.033   6.612   2.012 -0.5379 -1.0033 -0.0219
 2027SOL    HW2 6981   0.076   6.679   2.113 -1.0889 -0.7277  0.3927
 2028SOL     OW 6982   4.168   4.770   6.542 -0.1085  0.3766 -0.2520
 2028SOL    HW1 6983   4.076   4.775   6.503 -0.5985 -0.4062  0.7733
 2028SOL    HW2 6984   4.213   4.685   6.513  0.7017  1.2239 -1.5800
 2029SOL     OW 6985   0.841   1.772   1.699 -0.3207  0.1784 -0.1344
 2029SOL    HW1 6986   0.839   1.673   1.681  0.8265  0.3800 -1.5955
 2029SOL    HW2 6987   0.928   1.797   1.740 -0.4721  0.6257 -0.0799
 2030SOL     OW 6988   0.605   3.750   4.167  0.4030 -0.3463 -0.2749
 2030SOL    HW1 6989   0.541   3.676   4.185  1.7474 -1.7095 -0.8465
 2030SOL    HW2 6990   0.609   3.811   4.246 -1.0049 -0.6471  0.0562
 2031SOL     OW 6991   6.188   0.475   1.958 -0.2559 -0.9035  0.3773
 2031SOL    HW1 6992   6.204   0.457   2.055  1.2025  0.3236  0.3904
 2031SOL    HW2 6993   6.092   0.498   1.944 -0.3527 -0.4494  1.6444
 2032SOL     OW 6994   4.727   6.424   4.032 -0.3843  0.1999  0.0690
 2032SOL    HW1 6995   4.649   6.470   3.989 -0.0556  0.6224 -0.0799
 2032SOL    HW2 6996   4.781   6.491   4.083 -0.8577 -0.3202  1.2841
 2033SOL     OW 6997   6.901   2.757   1.045  0.2563 -0.1841  0.2886
 2033SOL    HW1 6998   6.984   2.755   1.102  0.5045  0.7377 -0.0313
 2033SOL    HW2 6999   6.927   2.769   0.949 -0.2143 -0.7468  0.0874
 2034SOL     OW 7000   0.781   6.378   5.731  0.4149 -0.7554 -0.2728
 2034SOL    HW1 7001   0.823   6.457   5.688 -0.1105  0.4275  1.2704
 2034SOL    HW2 7002   0.694   6.357   5.685 -1.1601  1.7505  1.2972
 2035SOL     OW 7003   0.694   2.559   0.696 -0.4567 -0.2518 -0.0345
 2035SOL    HW1 7004   0.720   2.591   0.605  1.0033 -0.0162  0.4381
 2035SOL    HW2 7005   0.685   2.637   0.758  0.4247 -0.5281  0.4644
 2036SOL     OW 7006   0.534   4.475   2.702 -0.9017 -0.2588 -0.0584
 2036SOL    HW1 7007   0.480   4.507   2.624 -1.0756 -0.3865  0.0099
 2036SOL    HW2 7008   0.487   4.498   2.787 -2.2608 -2.8142 -0.0244
 2037SOL     OW 7009   1.074   1.521   5.668  0.0131 -0.2566 -0.0818
 2037SOL    HW1 7010   1.126   1.604   5.646 -0.2759 -0.3232 -1.0743
 2037SOL    HW2 7011   0.977   1.545   5.677 -0.0716 -0.4882 -0.3744
 2038SOL     OW 7012   0.529   6.898   4.638 -0.4971  0.5129 -0.3111
 2038SOL    HW1 7013   0.572   6.973   4.587  1.4071  0.4276  1.0516
 2038SOL    HW2 7014   0.556   6.811   4.597 -0.4631  0.4865 -0.2308
 2039SOL     OW 7015   0.974   5.943   2.331 -0.0875  0.1866 -0.2611
 2039SOL    HW1 7016   0.948   5.871   2.395 -2.5431  1.7537  0.6334
 2039SOL    HW2 7017   0.902   5.955   2.262  1.6932 -0.2568 -2.3135
 2040SOL     OW 7018   3.274   3.725   4.388 -0.0395  0.0814  0.0396
 2040SOL    HW1 7019   3.238   3.634   4.405  0.1548  0.0036  0.0389
 2040SOL    HW2 7020   3.231   3.790   4.451 -2.2020  0.4833 -1.7178
 2041SOL     OW 7021   6.984   3.340   0.472 -0.2953 -0.0929  0.1606
 2041SOL    HW1 7022   7.036   3.325   0.387 -0.4755 -1.3358  0.2476
 2041SOL    HW2 7023   7.023   3.284   0.545 -0.5877  0.4282  0.7266
 2042SOL     OW 7024   4.446   5.251   1.650  0.4842  0.0758 -0.0184
 2042SOL    HW1 7025   4.369   5.314   1.658  0.0855 -0.5499  1.0593
 2042SOL    HW2 7026   4.531   5.305   1.640  0.3881  0.8850  2.7310
 2043SOL     OW 7027   5.723   4.431   1.256 -1.0791 -0.0416 -0.5486
 2043SOL    HW1 7028   5.654   4.451   1.185 -0.7285  1.5746 -0.4730
 2043SOL    HW2 7029   5.677   4.402   1.340 -1.7282  1.4487 -0.3590
 2044SOL     OW 7030   6.129   1.272   2.258 -0.0966 -0.2497 -0.0905
 2044SOL    HW1 7031   6.037   1.281   2.296  0.1129  2.1350  0.0292
 2044SOL    HW2 7032   6.195   1.313   2.321  1.0457 -1.7671 -0.2566
 2045SOL     OW 7033   3.975   1.513   5.700  0.5612 -0.2756  0.5094
 2045SOL    HW1 7034   3.930   1.541   5.616  1.6916 -0.3905 -0.1554
 2045SOL    HW2 7035   4.000   1.594   5.754 -2.6544 -0.2321  2.1552
 2046SOL     OW 7036   0.703   1.608   4.392  0.1602 -0.3104  0.0735
 2046SOL    HW1 7037   0.775   1.666   4.430  0.5793 -1.0578  0.4213
 2046SOL    HW2 7038   0.617   1.626   4.441  0.0504  0.6964 -0.4476
 2047SOL     OW 7039   5.235   3.761   6.571  0.0393 -0.1707 -0.4359
 2047SOL    HW1 7040   5.281   3.844   6.540 -0.6689  1.6338  2.9675
 2047SOL    HW2 7041   5.304   3.690   6.586  0.7674  0.0420 -2.3777
 2048SOL     OW 7042   5.334   5.852   4.038 -0.2556  0.1365 -0.2290
 2048SOL    HW1 7043   5.253   5.896   3.998  0.7491  1.8133 -0.5286
 2048SOL    HW2 7044   5.405   5.845   3.969  0.3049 -0.1221  0.3668
 2049SOL     OW 7045   5.941   7.012   0.870  0.2086 -0.6814  0.1257
 2049SOL    HW1 7046   5.997   7.048   0.795 -0.8435 -0.9098 -0.7952
 2049SOL    HW2 7047   5.999   6.999   0.951  1.1871  0.4255 -0.3534
 2050SOL     OW 7048   5.010   0.432   3.709  0.3019  0.2265 -0.1552
 2050SOL    HW1 7049   5.066   0.365   3.757 -0.9187  1.1414  2.7447
 2050SOL    HW2 7050   4.914   0.412   3.725 -0.1312  1.2619 -1.3378
 2051SOL     OW 7051   4.132   4.902   0.583 -0.4926 -0.1866  0.7452
 2051SOL    HW1 7052   4.066   4.836   0.545 -2.3201  1.1665  1.4437
 2051SOL    HW2 7053   4.163   4.963   0.510 -1.8688  0.6536  0.8212
 2052SOL     OW 7054   1.551   2.370   6.372  0.1976  0.1566  0.4145
 2052SOL    HW1 7055   1.472   2.431   6.364  1.7101  1.9922 -1.8021
 2052SOL    HW2 7056   1.567   2.324   6.284  0.4135 -1.8379  1.4251
 2053SOL     OW 7057   6.175   1.173   6.638  0.0243  0.3275 -0.6694
 2053SOL    HW1 7058   6.242   1.228   6.687  0.1033 -0.7329  0.4363
 2053SOL    HW2 7059   6.222   1.113   6.573  0.3283 -1.5209  1.1804
 2054SOL     OW 7060   2.328   1.457   0.977 -0.0329 -0.7812  0.1059
 2054SOL    HW1 7061   2.305   1.376   1.031 -0.7490 -0.8915 -0.3468
 2054SOL    HW2 7062   2.287   1.449   0.886  1.9622 -1.0539 -0.8204
 2055SOL     OW 7063   7.006   1.127   4.150 -0.4974  0.0494 -0.1587
 2055SOL    HW1 7064   6.991   1.226   4.148 -0.3019  0.1308  1.3289
 2055SOL    HW2 7065   7.100   1.108   4.178  0.0933 -0.5569 -2.4095
 2056SOL     OW 7066   0.439   5.573   1.761 -0.3635 -0.5920 -0.2848
 2056SOL    HW1 7067   0.488   5.660   1.752 -0.8220 -0.3968 -1.0495
 2056SOL    HW2 7068   0.466   5.512   1.686 -0.6853 -0.7813 -0.2493
 2057SOL     OW 7069   4.745   3.291   6.485 -0.3801 -0.3015  0.1693
 2057SOL    HW1 7070   4.781   3.275   6.577  2.1050  1.2502 -0.4141
 2057SOL    HW2 7071   4.693   3.376   6.484 -0.0749 -0.1116  0.0927
 2058SOL     OW 7072   1.813   6.743   3.787  0.1160  0.0536 -0.0574
 2058SOL    HW1 7073   1.811   6.770   3.883  0.9132  1.9286 -0.5024
 2058SOL    HW2 7074   1.816   6.644   3.779 -2.2857 -0.2312  1.7759
 2059SOL     OW 7075   1.961   0.229   0.463  0.0749 -0.3041  0.0785
 2059SOL    HW1 7076   2.023   0.272   0.528  0.3425  0.6038 -0.7595
 2059SOL    HW2 7077   1.872   0.274   0.467 -0.1655 -0.7935  0.3931
 2060SOL     OW 7078   6.279   4.588   2.188 -0.1943  0.4880  0.5841
 2060SOL    HW1 7079   6.230   4.565   2.104 -1.4187  1.4144  1.0159
 2060SOL    HW2 7080   6.313   4.682   2.183  0.3066  0.3284  0.8668
 2061SOL     OW 7081   0.687   0.346   0.952  0.5311 -0.2065 -0.4723
 2061SOL    HW1 7082   0.706   0.441   0.927  0.0611 -0.2855 -1.1511
 2061SOL    HW2 7083   0.684   0.290   0.870 -1.1243 -0.4596 -0.2774
 2062SOL     OW 7084   4.991   5.631   2.492 -0.1363  0.5025 -0.3283
 2062SOL    HW1 7085   4.986   5.563   2.418  1.0800 -0.4341  0.4046
 2062SOL    HW2 7086   4.980   5.723   2.454  1.6806  0.1414 -1.8863
 2063SOL     OW 7087   1.743   3.140   0.430  0.4129  0.4597  0.6664
 2063SOL    HW1 7088   1.785   3.050   0.441 -0.6675  0.0061  1.3144
 2063SOL    HW2 7089   1.658   3.130   0.378  0.3530  1.1199  0.6400
 2064SOL     OW 7090   6.809   1.396   1.249  0.3316 -0.1837 -0.1025
 2064SOL    HW1 7091   6.836   1.322   1.311  2.0424 -0.0519 -0.6471
 2064SOL    HW2 7092   6.889   1.451   1.226 -1.0970  2.8205  1.4803
 2065SOL     OW 7093   6.501   4.157   1.813 -0.1348 -0.4617 -0.2712
 2065SOL    HW1 7094   6.507   4.096   1.891 -1.2786  0.6017  0.7083
 2065SOL    HW2 7095   6.411   4.147   1.770  0.0698 -0.2367 -0.7632
 2066SOL     OW 7096   6.920   1.059   3.013  0.3298  0.0190  0.3119
 2066SOL    HW1 7097   6.858   1.054   2.935  0.6690 -0.8886  0.0876
 2066SOL    HW2 7098   6.883   1.005   3.089  0.1350  0.6747  0.6906
 2067SOL     OW 7099   6.719   7.013   0.178  0.0002 -0.6497 -0.6850
 2067SOL    HW1 7100   6.768   6.955   0.114  2.1697 -0.2126  0.4984
 2067SOL    HW2 7101   6.780   7.084   0.214 -1.4559 -0.1434  0.9667
 2068SOL     OW 7102   3.759   1.876   5.715 -0.3304  0.7011 -0.2707
 2068SOL    HW1 7103   3.667   1.900   5.745 -0.0596  1.6817 -0.1727
 2068SOL    HW2 7104   3.770   1.901   5.618 -0.6460 -0.8273 -0.7138
 2069SOL     OW 7105   3.315   1.613   1.304 -0.2641 -0.5949  0.1221
 2069SOL    HW1 7106   3.341   1.613   1.208 -0.9875  2.5354 -0.1799
 2069SOL    HW2 7107   3.225   1.570   1.315 -0.7559  0.1846 -0.8060
 2070SOL     OW 7108   5.168   3.301   3.852  0.3372 -0.4574  0.4886
 2070SOL    HW1 7109   5.181   3.204   3.874  0.3827 -0.7196 -0.6381
 2070SOL    HW2 7110   5.080   3.314   3.808 -0.8314  0.4378  2.8979
 2071SOL     OW 7111   2.499   5.339   4.520 -0.1064 -0.0440 -0.2828
 2071SOL    HW1 7112   2.411   5.388   4.516  0.7215  1.6861  1.4540
 2071SOL    HW2 7113   2.573   5.405   4.535  1.3640 -1.6094 -0.4602
 2072SOL     OW 7114   5.886   3.314   2.961 -0.4188  0.1063  0.1799
 2072SOL    HW1 7115   5.869   3.243   3.029  0.1948  0.3152  0.5615
 2072SOL    HW2 7116   5.966   3.289   2.907  0.3425  0.9186  0.9023
 2073SOL     OW 7117   2.842   0.669   4.996  0.1191 -0.3540 -0.7766
 2073SOL    HW1 7118   2.865   0.656   4.899  1.5557  0.1516 -0.5291
 2073SOL    HW2 7119   2.814   0.764   5.010  0.2226 -0.3439 -0.6407
 2074SOL     OW 7120   4.401   1.785   3.854  0.1990 -0.8953 -0.0740
 2074SOL    HW1 7121   4.302   1.794   3.854  0.4198  3.9207  0.3589
 2074SOL    HW2 7122   4.430   1.735   3.936 -1.7850 -1.6733  0.1937
 2075SOL     OW 7123   3.557   2.251   0.270  0.2872 -0.5556 -0.4196
 2075SOL    HW1 7124   3.469   2.281   0.231  0.1461  0.9310  0.9564
 2075SOL    HW2 7125   3.541   2.174   0.332 -0.2344  0.3700  0.6349
 2076SOL     OW 7126   4.940   4.570   0.073 -0.2876 -0.0289 -0.7050
 2076SOL    HW1 7127   4.844   4.556   0.050 -1.7421  2.6828  2.7962
 2076SOL    HW2 7128   4.964   4.666   0.061  1.5928 -0.3950 -0.2039
 2077SOL     OW 7129   2.775   0.937   5.062 -0.3847 -0.0678  0.0756
 2077SOL    HW1 7130   2.870   0.965   5.074 -0.3142 -0.9770  2.1772
 2077SOL    HW2 7131   2.714   1.010   5.092 -0.3230  0.0874 -0.1784
 2078SOL     OW 7132   4.155   1.194   3.714 -0.6161 -0.3965 -0.0376
 2078SOL    HW1 7133   4.065   1.237   3.716 -0.6574 -0.5043  1.2468
 2078SOL    HW2 7134   4.226   1.264   3.708 -0.7291 -0.2044  0.7692
 2079SOL     OW 7135   5.689   6.486   2.897  0.1220 -0.3388 -0.0019
 2079SOL    HW1 7136   5.640   6.401   2.876  1.3209 -1.0890  0.1093
 2079SOL    HW2 7137   5.734   6.520   2.815 -0.8263  0.5275 -0.1810
 2080SOL     OW 7138   2.551   1.419   1.531  0.8845 -0.5966  0.3246
 2080SOL    HW1 7139   2.474   1.482   1.541  1.8190  0.6462 -0.0647
 2080SOL    HW2 7140   2.544   1.347   1.600 -4.0817 -4.3690 -3.3905
 2081SOL     OW 7141   0.249   1.485   3.670 -0.6228  0.2522 -0.1429
 2081SOL    HW1 7142   0.235   1.412   3.736  0.2894 -0.3554 -0.6097
 2081SOL    HW2 7143   0.319   1.549   3.703  0.9018 -0.8488 -1.1269
 2082SOL     OW 7144   5.850   2.332   1.907  0.4687  0.0737 -0.1556
 2082SOL    HW1 7145   5.762   2.314   1.863 -0.2754 -0.9592  1.6584
 2082SOL    HW2 7146   5.874   2.428   1.897 -0.6857  0.2919 -0.9533
 2083SOL     OW 7147   4.097   4.793   7.014  0.9099 -0.5954 -0.2567
 2083SOL    HW1 7148   4.160   4.733   6.965  1.3824 -0.5850  0.3220
 2083SOL    HW2 7149   4.031   4.833   6.950  0.3538 -2.0046 -0.6183
 2084SOL     OW 7150   5.721   1.986   3.242  0.1835  0.0602  0.2681
 2084SOL    HW1 7151   5.699   2.081   3.223 -0.8505 -0.4567 -1.3530
 2084SOL    HW2 7152   5.649   1.946   3.299 -0.5851 -0.3127 -0.9191
 2085SOL     OW 7153   4.807   1.007   1.588  0.4086 -0.3326  0.1315
 2085SOL    HW1 7154   4.832   1.023   1.492 -1.4219 -0.3428 -0.3760
 2085SOL    HW2 7155   4.780   1.093   1.630  2.8589 -0.0044  1.2066
 2086SOL     OW 7156   4.500   4.128   0.743  0.0885 -0.4517  0.2629
 2086SOL    HW1 7157   4.594   4.099   0.764  0.7377  0.2819 -1.4488
 2086SOL    HW2 7158   4.474   4.202   0.805  0.8254 -0.3439  0.4569
 2087SOL     OW 7159   5.679   3.755   1.378  0.4946  0.4825 -0.0496
 2087SOL    HW1 7160   5.655   3.715   1.466  1.7298  1.6934  0.8801
 2087SOL    HW2 7161   5.597   3.790   1.333 -0.0089  0.9631  1.1989
 2088SOL     OW 7162   1.024   6.668   1.660 -0.6762 -0.3295 -0.4931
 2088SOL    HW1 7163   0.981   6.736   1.601 -0.0521 -0.0541 -0.6394
 2088SOL    HW2 7164   0.982   6.671   1.751  0.6085  1.5729  0.0800
 2089SOL     OW 7165   2.245   6.046   0.735 -0.1176  0.6927 -0.4020
 2089SOL    HW1 7166   2.173   6.040   0.665  0.1536  1.1168 -0.7241
 2089SOL    HW2 7167   2.236   6.133   0.784  1.7402  2.0234 -2.2170
 2090SOL     OW 7168   3.262   3.367   2.954  0.3098 -0.1207  0.1315
 2090SOL    HW1 7169   3.360   3.362   2.938  0.5601  1.6846  0.8795
 2090SOL    HW2 7170   3.241   3.328   3.044  0.2691 -0.8248 -0.1719
 2091SOL     OW 7171   1.623   3.975   1.063  0.3923  0.1845  0.2338
 2091SOL    HW1 7172   1.669   3.926   1.137 -0.0904 -0.5587  0.0530
 2091SOL    HW2 7173   1.534   3.932   1.044 -0.0542  1.1385  0.0778
 2092SOL     OW 7174   0.529   1.552   6.670  0.7092 -0.3047  0.9314
 2092SOL    HW1 7175   0.594   1.576   6.741  0.0489 -1.7996  2.0956
 2092SOL    HW2 7176   0.527   1.452   6.659  0.0571 -0.1580 -0.4684
 2093SOL     OW 7177   0.966   3.665   1.969  0.7769 -0.1458 -0.2829
 2093SOL    HW1 7178   0.924   3.703   2.052  1.2795  2.3189 -1.0626
 2093SOL    HW2 7179   1.007   3.577   1.989 -2.4170 -1.4536  1.1475
 2094SOL     OW 7180   0.842   1.132   2.558 -0.4132 -0.3532 -0.0499
 2094SOL    HW1 7181   0.811   1.147   2.464 -0.6226 -0.3978  0.0112
 2094SOL    HW2 7182   0.797   1.198   2.619  1.5629  1.3312 -0.3124
 2095SOL     OW 7183   6.527   3.454   3.464  0.2988 -0.0800 -0.3402
 2095SOL    HW1 7184   6.451   3.509   3.501  0.5913  2.0941 -2.6990
 2095SOL    HW2 7185   6.605   3.514   3.446  1.0541 -1.4758 -1.9500
 2096SOL     OW 7186   4.519   4.981   6.173  0.2063 -0.5408 -0.1989
 2096SOL    HW1 7187   4.578   5.021   6.242 -1.1705 -1.1463  1.3988
 2096SOL    HW2 7188   4.549   4.888   6.152  1.6075  0.2054 -1.6880
 2097SOL     OW 7189   6.247   4.702   3.995 -0.1125 -0.5573 -0.3043
 2097SOL    HW1 7190   6.325   4.703   3.932  0.3072  1.0964  0.1867
 2097SOL    HW2 7191   6.212   4.609   4.003  2.4173 -1.5483  0.2316
 2098SOL     OW 7192   5.393   0.033   4.300  0.3727 -0.0719 -0.2727
 2098SOL    HW1 7193   5.438  -0.054   4.317 -0.1479  0.1241  2.7806
 2098SOL    HW2 7194   5.442   0.084   4.229  1.7531 -2.0577 -0.8091
 2099SOL     OW 7195   2.502   2.462   2.741  0.1404  0.2690 -0.2152
 2099SOL    HW1 7196   2.575   2.417   2.793 -0.5925 -0.1126  0.4974
 2099SOL    HW2 7197   2.529   2.467   2.645  1.2666  0.4707  0.0967
 2100SOL     OW 7198   4.040   4.386   6.084  0.1320  0.4694  0.0786
 2100SOL    HW1 7199   4.043   4.344   6.175 -1.7879 -0.4067 -0.2257
 2100SOL    HW2 7200   4.031   4.485   6.094 -0.8792  0.3138  0.8574
 2101SOL     OW 7201   0.360   6.513   1.399 -0.5708  0.1957  0.1496
 2101SOL    HW1 7202   0.280   6.477   1.352 -0.0582 -1.2073  0.3051
 2101SOL    HW2 7203   0.440   6.509   1.339 -0.2854  0.0599  0.5263
 2102SOL     OW 7204   5.669   6.283   1.285 -0.0119  0.1694 -0.2313
 2102SOL    HW1 7205   5.616   6.273   1.201 -0.2070  1.2986 -0.2487
 2102SOL    HW2 7206   5.753   6.334   1.265  0.9111 -1.2542 -0.1240
 2103SOL     OW 7207   4.705   1.590   0.274  0.0002 -0.2989  0.0516
 2103SOL    HW1 7208   4.782   1.655   0.267 -0.2693 -0.0816 -1.1399
 2103SOL    HW2 7209   4.678   1.581   0.369  1.0049  0.2167  0.4046
 2104SOL     OW 7210   1.837   4.670   6.325  0.4302 -0.1286 -0.1283
 2104SOL    HW1 7211   1.805   4.689   6.417  1.1339  1.5078 -0.1861
 2104SOL    HW2 7212   1.799   4.583   6.293 -4.1572  1.6769 -0.3018
 2105SOL     OW 7213   5.076   5.997   3.909 -0.1610  0.7609 -0.0975
 2105SOL    HW1 7214   5.112   5.947   3.830 -0.8700  1.0284 -0.6108
 2105SOL    HW2 7215   5.113   6.090   3.910  0.3360  0.5617  0.2503
 2106SOL     OW 7216   0.010   6.136   6.625 -0.1318  0.4953 -0.2344
 2106SOL    HW1 7217  -0.058   6.067   6.601 -1.1180  0.1680  3.0391
 2106SOL    HW2 7218   0.098   6.092   6.643  0.0393  0.4927 -1.0424
 2107SOL     OW 7219   1.790   4.198   1.841 -0.0715  0.0577  0.1455
 2107SOL    HW1 7220   1.872   4.185   1.786 -1.1732 -0.7490 -1.3959
 2107SOL    HW2 7221   1.752   4.109   1.866 -1.0029  0.3887 -0.0139
 2108SOL     OW 7222   5.471   6.232   5.136  0.0546 -0.2259  0.0192
 2108SOL    HW1 7223   5.399   6.239   5.205 -0.7172 -0.2290 -0.7618
 2108SOL    HW2 7224   5.527   6.151   5.155  0.7990  0.5983  1.4885
 2109SOL     OW 7225   5.761   4.249   2.323  0.6960  0.0558 -0.4998
 2109SOL    HW1 7226   5.823   4.306   2.269  1.1248 -0.7283 -0.8585
 2109SOL    HW2 7227   5.807   4.163   2.345  0.1237 -0.0763  0.1847
 2110SOL     OW 7228   1.536   5.288   5.785 -0.1785  0.3065  0.0642
 2110SOL    HW1 7229   1.459   5.294   5.850  0.0570 -0.5090  0.4271
 2110SOL    HW2 7230   1.597   5.214   5.812  0.1999  0.2869 -0.8105
 2111SOL     OW 7231   1.403   2.376   1.810 -0.2480 -0.1374  0.1134
 2111SOL    HW1 7232   1.313   2.369   1.852 -0.1134  1.4886  0.7547
 2111SOL    HW2 7233   1.410   2.464   1.762  1.8581  0.9647  2.2556
 2112SOL     OW 7234   4.318   4.479   5.799  0.1956 -0.3998 -0.7987
 2112SOL    HW1 7235   4.257   4.400   5.787 -0.7021  0.1594 -0.0055
 2112SOL    HW2 7236   4.315   4.536   5.717 -0.8075 -0.0814 -0.5605
 2113SOL     OW 7237   5.919   3.050   4.127 -0.2237  0.4959 -0.4410
 2113SOL    HW1 7238   6.005   3.097   4.147 -0.0718  0.3534 -0.7474
 2113SOL    HW2 7239   5.880   3.015   4.212 -0.0125  0.6225 -0.2901
 2114SOL     OW 7240   1.835   4.332   5.604  0.1366  0.3154  0.4168
 2114SOL    HW1 7241   1.889   4.315   5.687 -0.3767  1.0970  0.9264
 2114SOL    HW2 7242   1.738   4.332   5.627 -0.0537 -0.2697 -0.3453
 2115SOL     OW 7243   3.030   4.596   0.112 -0.0528 -0.2259 -0.1845
 2115SOL    HW1 7244   3.020   4.663   0.185  0.0418  0.4255 -0.7595
 2115SOL    HW2 7245   2.960   4.525   0.123 -1.9015  1.3539 -1.0350
 2116SOL     OW 7246   6.682   3.946   4.553 -0.9540 -0.5776  0.4238
 2116SOL    HW1 7247   6.625   3.864   4.548 -1.5017 -0.1362 -1.7687
 2116SOL    HW2 7248   6.632   4.018   4.601 -1.6561 -0.6526 -0.1792
 2117SOL     OW 7249   6.966   4.409   4.071  0.8523  0.1036 -0.5277
 2117SOL    HW1 7250   6.909   4.345   4.122  0.4265  0.3697 -0.6641
 2117SOL    HW2 7251   7.062   4.384   4.082  0.7192 -0.2739 -0.1937
 2118SOL     OW 7252   0.990   3.558   0.852 -0.6984  0.1179 -0.9671
 2118SOL    HW1 7253   1.042   3.564   0.938 -0.1082 -1.0894 -1.2120
 2118SOL    HW2 7254   0.988   3.648   0.808  2.2675  0.0293 -1.5353
 2119SOL     OW 7255   4.696   0.109   6.169 -0.0121 -0.0396 -0.3075
 2119SOL    HW1 7256   4.734   0.125   6.260  0.9210  0.7557 -0.8153
 2119SOL    HW2 7257   4.611   0.057   6.177  0.1026 -0.0606  1.0044
 2120SOL     OW 7258   6.672   4.295   1.357 -0.3677 -0.3411 -0.0182
 2120SOL    HW1 7259   6.658   4.348   1.274  0.8067 -1.1549 -0.7660
 2120SOL    HW2 7260   6.644   4.349   1.437  2.2017  2.0519 -0.5821
 2121SOL     OW 7261   2.477   2.014   4.557 -0.2425  0.4588  0.3524
 2121SOL    HW1 7262   2.479   1.922   4.596 -2.0283  0.1099 -0.2763
 2121SOL    HW2 7263   2.441   2.078   4.625  0.1055  0.5176  0.4808
 2122SOL     OW 7264   3.690   4.960   6.597 -0.3043 -0.3300  0.2567
 2122SOL    HW1 7265   3.657   5.048   6.564  0.2776  0.1611  0.9490
 2122SOL    HW2 7266   3.767   4.974   6.660  0.8536 -1.4070 -0.8432
 2123SOL     OW 7267   3.993   6.576   4.861 -0.6896 -0.1892 -0.1718
 2123SOL    HW1 7268   3.980   6.671   4.835 -0.2523  0.1622  0.8608
 2123SOL    HW2 7269   3.904   6.536   4.884 -0.9937 -0.3129 -1.4699
 2124SOL     OW 7270   2.223   4.216   0.463  0.6752  0.2851 -0.1168
 2124SOL    HW1 7271   2.178   4.286   0.408  1.3418  2.1359  1.6014
 2124SOL    HW2 7272   2.293   4.258   0.521  2.9174 -2.1478 -0.8604
 2125SOL     OW 7273   4.397   4.077   0.063  0.5855  0.6077 -0.1609
 2125SOL    HW1 7274   4.369   4.173   0.059  0.3886  0.6571  1.5021
 2125SOL    HW2 7275   4.451   4.054  -0.018  0.2796  2.0017 -0.7863
 2126SOL     OW 7276   3.452   0.821   0.736  0.2614 -0.4796 -0.0561
 2126SOL    HW1 7277   3.527   0.769   0.695  0.5313 -0.6840  0.6739
 2126SOL    HW2 7278   3.479   0.852   0.827 -0.4942 -0.4326  0.1586
 2127SOL     OW 7279   0.484   3.409   5.598  0.5793 -0.0701 -0.1044
 2127SOL    HW1 7280   0.534   3.355   5.530  1.1656 -1.3256  1.2386
 2127SOL    HW2 7281   0.422   3.349   5.649 -0.4252  0.9875 -0.0444
 2128SOL     OW 7282   0.944   5.387   4.910 -0.4022 -0.0899 -0.2010
 2128SOL    HW1 7283   1.028   5.386   4.964 -1.0997  2.4185  1.0894
 2128SOL    HW2 7284   0.875   5.331   4.955 -0.9982  2.0351  1.6711
 2129SOL     OW 7285   4.373   2.742   5.338 -0.0882  0.0863 -0.1639
 2129SOL    HW1 7286   4.464   2.775   5.314 -0.5142  1.5348  0.0813
 2129SOL    HW2 7287   4.311   2.820   5.348 -1.6611 -0.9010 -1.5124
 2130SOL     OW 7288   4.719   7.013   2.501 -0.1454 -0.5923  0.6522
 2130SOL    HW1 7289   4.785   7.028   2.575  0.4664 -0.1743  0.0335
 2130SOL    HW2 7290   4.724   6.918   2.469  0.7093 -0.3658  0.0930
 2131SOL     OW 7291   6.478   0.596   6.190  0.1856  0.1615 -0.2335
 2131SOL    HW1 7292   6.493   0.673   6.253  0.9093 -0.5533  0.4855
 2131SOL    HW2 7293   6.401   0.541   6.224  3.1099 -2.6418  2.5301
 2132SOL     OW 7294   6.988   2.487   1.879 -0.3175 -0.0105 -0.0445
 2132SOL    HW1 7295   7.039   2.409   1.915 -0.0569  0.5988  0.9245
 2132SOL    HW2 7296   6.939   2.532   1.954  2.2659  2.8448  0.1019
 2133SOL     OW 7297   2.598   5.528   6.461 -0.3506 -0.5121  0.0283
 2133SOL    HW1 7298   2.555   5.485   6.540 -1.4110  0.9504  0.3123
 2133SOL    HW2 7299   2.572   5.625   6.459  0.0373 -0.4146 -1.8519
 2134SOL     OW 7300   0.855   0.724   2.846  0.5790  0.1632 -0.1630
 2134SOL    HW1 7301   0.895   0.658   2.910  1.0846  0.3788 -0.2542
 2134SOL    HW2 7302   0.780   0.680   2.796  0.4202 -0.1171  0.3112
 2135SOL     OW 7303   1.727   5.100   5.896 -0.0891  0.2159 -0.6985
 2135SOL    HW1 7304   1.811   5.090   5.843 -0.3180  1.2033 -1.2704
 2135SOL    HW2 7305   1.743   5.070   5.990  0.5806 -0.6711 -1.0820
 2136SOL     OW 7306   2.166   4.692   0.588 -0.0341 -0.0822 -0.1397
 2136SOL    HW1 7307   2.244   4.737   0.629 -0.2406  0.6019 -0.4823
 2136SOL    HW2 7308   2.194   4.602   0.553  1.0722  0.9150 -1.9509
 2137SOL     OW 7309   1.461   6.227   3.262 -0.3126 -0.2692  0.4232
 2137SOL    HW1 7310   1.554   6.209   3.230  0.0384 -0.2915  1.4068
 2137SOL    HW2 7311   1.406   6.144   3.251  0.1974 -0.7261  1.1913
 2138SOL     OW 7312   4.906   2.262   3.177 -0.1132  0.1728  0.0167
 2138SOL    HW1 7313   4.846   2.222   3.108 -2.0659  1.5649  0.7988
 2138SOL    HW2 7314   4.867   2.247   3.268  0.3805  1.6361  0.5017
 2139SOL     OW 7315   1.047   6.533   4.668 -0.3198 -0.6149 -0.3808
 2139SOL    HW1 7316   1.067   6.439   4.696  0.1561 -0.9879 -1.8924
 2139SOL    HW2 7317   1.132   6.583   4.655 -0.5730  0.1863  0.8035
 2140SOL     OW 7318   1.884   1.688   2.213 -0.5183 -0.0966 -0.1149
 2140SOL    HW1 7319   1.818   1.745   2.263  0.8675  0.3351  1.3233
 2140SOL    HW2 7320   1.847   1.666   2.123 -2.4668  0.4022  0.4951
 2141SOL     OW 7321   4.849   1.315   1.298  0.2104 -0.0652  0.0692
 2141SOL    HW1 7322   4.800   1.268   1.371 -1.2772  1.5486  0.1850
 2141SOL    HW2 7323   4.897   1.249   1.241 -0.1921 -1.5113  1.3597
 2142SOL     OW 7324   1.465   0.153   6.432 -0.3870 -0.2102 -0.0642
 2142SOL    HW1 7325   1.433   0.176   6.340  0.1682  1.5556  0.1541
 2142SOL    HW2 7326   1.394   0.174   6.499 -1.1962 -2.4645 -0.1204
 2143SOL     OW 7327   1.375   4.681   6.396  0.1278 -0.1051  0.3495
 2143SOL    HW1 7328   1.289   4.720   6.363  1.7324  1.3956 -2.4854
 2143SOL    HW2 7329   1.429   4.648   6.318  1.6375 -2.1806  2.1316
 2144SOL     OW 7330   6.245   4.290   2.392  0.2038 -0.3027  0.1344
 2144SOL    HW1 7331   6.314   4.238   2.341  0.1551  0.4612 -0.7534
 2144SOL    HW2 7332   6.230   4.247   2.481 -0.6097 -2.4394 -0.9472
 2145SOL     OW 7333   3.646   0.352   4.257 -0.3425  0.2175 -0.6627
 2145SOL    HW1 7334   3.592   0.299   4.323 -0.9293  1.9695  0.3349
 2145SOL    HW2 7335   3.585   0.411   4.205  0.4840  1.3621 -0.3568
 2146SOL     OW 7336   1.710   2.686   6.245 -0.0347 -0.3046 -0.0058
 2146SOL    HW1 7337   1.759   2.773   6.235 -1.5974  0.8662  1.7375
 2146SOL    HW2 7338   1.660   2.666   6.160 -0.4804  1.0574 -0.0853
 2147SOL     OW 7339   5.804   2.178   5.756 -0.1525 -0.5035 -0.2999
 2147SOL    HW1 7340   5.796   2.272   5.789 -0.9626 -0.9996  1.0026
 2147SOL    HW2 7341   5.874   2.173   5.685  1.5381  0.6904  1.1892
 2148SOL     OW 7342   0.033   3.449   5.664  0.1267 -0.1894  0.2527
 2148SOL    HW1 7343   0.086   3.528   5.692  2.2029 -1.5553  0.4178
 2148SOL    HW2 7344   0.068   3.414   5.577  0.2584 -1.7752  0.8963
 2149SOL     OW 7345   6.460   6.816   0.963 -0.5153  0.1386 -0.2099
 2149SOL    HW1 7346   6.552   6.776   0.965 -0.5519 -0.0159 -1.0446
 2149SOL    HW2 7347   6.467   6.914   0.946 -0.5065  0.1147 -0.3445
 2150SOL     OW 7348   1.290   4.010   1.265 -0.0869  0.3279  0.5951
 2150SOL    HW1 7349   1.371   3.983   1.318  0.8355  1.2217 -0.3142
 2150SOL    HW2 7350   1.268   4.105   1.286 -0.6771  0.2084  0.5308
 2151SOL     OW 7351   1.685   5.218   6.620  0.3032  0.4920 -0.6030
 2151SOL    HW1 7352   1.625   5.259   6.689  0.1880 -0.9592  0.2076
 2151SOL    HW2 7353   1.761   5.171   6.666  1.4619  1.3691 -1.5728
 2152SOL     OW 7354   5.504   6.339   4.772  0.4069  0.0486  0.0782
 2152SOL    HW1 7355   5.459   6.270   4.829 -0.0786  0.5811  0.3516
 2152SOL    HW2 7356   5.507   6.308   4.678 -1.3533  0.3540 -0.1252
 2153SOL     OW 7357   3.054   0.283   2.528 -0.0398 -0.8061 -0.1623
 2153SOL    HW1 7358   3.111   0.330   2.595 -0.4332 -1.3923  0.5943
 2153SOL    HW2 7359   2.960   0.315   2.537  0.0957 -0.0893 -1.1774
 2154SOL     OW 7360   1.111   4.455   1.932 -0.4082 -0.2686  0.5675
 2154SOL    HW1 7361   1.153   4.465   2.022 -0.4826  0.4558  0.5262
 2154SOL    HW2 7362   1.114   4.542   1.884 -0.4998 -0.6148 -0.0773
 2155SOL     OW 7363   5.362   6.887   0.930  0.1240 -0.5292  1.0687
 2155SOL    HW1 7364   5.416   6.970   0.945 -1.6451  0.4955  2.0395
 2155SOL    HW2 7365   5.312   6.895   0.844 -0.8922 -0.0820  1.6859
 2156SOL     OW 7366   5.276   1.766   3.453 -0.0015 -0.7655  0.0754
 2156SOL    HW1 7367   5.250   1.702   3.381 -1.4644 -1.6602  1.3438
 2156SOL    HW2 7368   5.210   1.841   3.456  0.5662 -0.2563 -0.0932
 2157SOL     OW 7369   3.433   5.887   2.709 -0.0517  0.7006 -0.3757
 2157SOL    HW1 7370   3.430   5.812   2.775 -1.3718  2.2166  1.3848
 2157SOL    HW2 7371   3.358   5.876   2.644 -0.1108  0.3862 -0.2586
 2158SOL     OW 7372   2.957   0.665   5.814 -0.9423  0.3124  0.1554
 2158SOL    HW1 7373   2.947   0.605   5.734  1.8623 -0.8125  0.5168
 2158SOL    HW2 7374   3.048   0.652   5.853 -1.8144  1.7149  2.8629
 2159SOL     OW 7375   6.670   3.931   4.914 -0.2364 -0.7169 -0.2540
 2159SOL    HW1 7376   6.657   3.967   5.006 -1.2184  0.1017 -0.6980
 2159SOL    HW2 7377   6.648   4.002   4.847 -2.1232 -2.0727 -1.1682
 2160SOL     OW 7378   6.023   5.561   0.647  0.0854  0.1756 -0.5650
 2160SOL    HW1 7379   6.087   5.633   0.673  0.2664 -0.6409  1.4398
 2160SOL    HW2 7380   5.935   5.576   0.692  0.4729 -1.4136  0.8447
 2161SOL     OW 7381   0.572   3.237   1.283  0.1142 -0.2895  0.5082
 2161SOL    HW1 7382   0.474   3.259   1.291  0.4510  0.9669  1.4942
 2161SOL    HW2 7383   0.604   3.263   1.192  0.0599  1.6615  1.0071
 2162SOL     OW 7384   1.915   6.165   6.590  0.3346 -0.1460  0.4302
 2162SOL    HW1 7385   1.967   6.242   6.628 -2.0537  0.9589  1.6806
 2162SOL    HW2 7386   1.854   6.128   6.660 -1.0903 -0.8836 -1.1315
 2163SOL     OW 7387   0.334   3.091   3.755  0.0838  0.1726 -0.4978
 2163SOL    HW1 7388   0.393   3.086   3.674  0.2278  0.8389 -0.4431
 2163SOL    HW2 7389   0.323   3.187   3.781  1.1010 -0.0956  1.0423
 2164SOL     OW 7390   2.621   6.301   2.761 -0.2428 -0.4908 -0.0085
 2164SOL    HW1 7391   2.581   6.391   2.776  0.7362 -0.0991  0.3326
 2164SOL    HW2 7392   2.596   6.240   2.836  2.0703  0.5692  1.7416
 2165SOL     OW 7393   0.024   2.151   0.278 -0.1875  0.0059 -0.1121
 2165SOL    HW1 7394   0.061   2.212   0.348 -1.7285  0.6114  0.2140
 2165SOL    HW2 7395  -0.040   2.202   0.220  2.4125  0.0419 -3.2382
 2166SOL     OW 7396   4.693   2.013   2.143 -0.7104 -0.1730 -0.1701
 2166SOL    HW1 7397   4.690   2.106   2.106 -1.1382 -0.4181 -0.7918
 2166SOL    HW2 7398   4.675   2.015   2.241 -0.4949  0.4214 -0.1415
 2167SOL     OW 7399   2.399   2.419   3.637  0.2206 -0.4898 -0.3692
 2167SOL    HW1 7400   2.301   2.433   3.647  0.2174 -1.0737  0.5509
 2167SOL    HW2 7401   2.431   2.463   3.553 -0.7778 -0.0819 -0.5467
 2168SOL     OW 7402   6.869   3.444   5.114 -0.8996  0.5285  0.5277
 2168SOL    HW1 7403   6.813   3.455   5.196 -1.3432  2.4115  0.0225
 2168SOL    HW2 7404   6.895   3.534   5.079  1.5983 -0.2596  0.1403
 2169SOL     OW 7405   5.759   6.572   6.418  0.0063 -0.0612  0.0083
 2169SOL    HW1 7406   5.737   6.508   6.491 -0.8101  0.0447 -0.1314
 2169SOL    HW2 7407   5.729   6.664   6.443 -0.1542  0.0012 -0.3978
 2170SOL     OW 7408   1.305   3.565   7.004 -0.0666 -0.5672 -0.2548
 2170SOL    HW1 7409   1.292   3.510   6.922 -2.0532  0.0171 -0.3911
 2170SOL    HW2 7410   1.216   3.600   7.035  0.9645  1.5152  0.5479
 2171SOL     OW 7411   4.384   6.316   2.654 -0.3988 -0.0258 -0.4612
 2171SOL    HW1 7412   4.343   6.310   2.563  0.1457  1.3529 -0.8277
 2171SOL    HW2 7413   4.480   6.287   2.649 -0.2851  0.3356 -0.3901
 2172SOL     OW 7414   3.058   1.798   4.043 -0.1793  0.1691  0.0697
 2172SOL    HW1 7415   3.080   1.856   4.122 -1.2548  0.2502  0.3248
 2172SOL    HW2 7416   3.002   1.850   3.978  0.0113 -0.1612 -0.3648
 2173SOL     OW 7417   4.769   2.197   4.692 -0.4100  0.2000 -0.0732
 2173SOL    HW1 7418   4.696   2.181   4.758  0.8251 -0.1353  1.2683
 2173SOL    HW2 7419   4.835   2.122   4.696  0.8900  1.3017 -0.0178
 2174SOL     OW 7420   4.523   1.267   5.617  0.1691 -0.0353  0.2837
 2174SOL    HW1 7421   4.581   1.192   5.650 -2.2408 -1.2036  2.2174
 2174SOL    HW2 7422   4.511   1.334   5.690  0.3267  1.0086 -0.6292
 2175SOL     OW 7423   2.490   2.992   0.013  0.5418 -0.3047  0.1526
 2175SOL    HW1 7424   2.391   3.006   0.011  0.6788  0.6436 -1.0442
 2175SOL    HW2 7425   2.509   2.897   0.040 -0.7067 -0.6134  0.0296
 2176SOL     OW 7426   6.089   0.557   2.664  0.5111  0.2536  0.1590
 2176SOL    HW1 7427   6.046   0.569   2.753  2.2142  1.3298  0.8860
 2176SOL    HW2 7428   6.026   0.587   2.592 -0.1928  1.1613  1.1329
 2177SOL     OW 7429   2.224   0.376   6.421  0.3680 -0.3915  0.1023
 2177SOL    HW1 7430   2.154   0.326   6.472  0.7131 -1.1438 -0.1425
 2177SOL    HW2 7431   2.181   0.452   6.372 -0.2906 -0.8434 -0.0505
 2178SOL     OW 7432   2.500   4.518   1.951 -0.0829 -0.0055  0.5140
 2178SOL    HW1 7433   2.410   4.549   1.923  0.3802 -1.2487 -2.8474
 2178SOL    HW2 7434   2.563   4.595   1.955  0.1779  0.2694 -3.9523
 2179SOL     OW 7435   0.877   4.324   6.882  0.0829  0.5370  0.0226
 2179SOL    HW1 7436   0.935   4.244   6.861  1.8009  1.7278  0.0170
 2179SOL    HW2 7437   0.873   4.336   6.981  0.2375  0.7167  0.0085
 2180SOL     OW 7438   5.795   5.763   2.070  0.3705 -0.3023 -0.2753
 2180SOL    HW1 7439   5.727   5.787   2.000 -0.2042 -0.6546  0.1602
 2180SOL    HW2 7440   5.882   5.806   2.046  0.4162 -1.0845 -1.6569
 2181SOL     OW 7441   3.175   5.625   3.165  0.0839 -0.0089 -0.2435
 2181SOL    HW1 7442   3.251   5.679   3.201 -0.3528  0.5505 -0.1502
 2181SOL    HW2 7443   3.201   5.528   3.164  0.0868 -0.0777  1.6968
 2182SOL     OW 7444   1.185   6.352   6.162  0.9684 -0.2199  0.0916
 2182SOL    HW1 7445   1.203   6.363   6.260  1.4304 -0.9476  0.0912
 2182SOL    HW2 7446   1.262   6.390   6.110 -0.3624  2.4478 -0.0754
 2183SOL     OW 7447   4.121   1.920   0.134  0.1596  0.0101 -0.3229
 2183SOL    HW1 7448   4.103   2.013   0.102 -2.3448 -0.3476 -0.1697
 2183SOL    HW2 7449   4.051   1.858   0.098  2.1723 -1.9937 -1.0174
 2184SOL     OW 7450   0.383   3.029   0.069  0.1397 -0.1468  0.3667
 2184SOL    HW1 7451   0.373   2.955   0.003 -2.1845  0.9083 -0.6109
 2184SOL    HW2 7452   0.309   3.024   0.136  0.2677  0.9355  0.6178
 2185SOL     OW 7453   6.981   1.618   6.422 -0.3187 -0.0348 -0.2147
 2185SOL    HW1 7454   7.061   1.566   6.451  0.1391  0.4525 -0.5670
 2185SOL    HW2 7455   6.994   1.647   6.327 -0.9555 -0.0249 -0.3012
 2186SOL     OW 7456   6.958   0.025   0.003  0.2150 -0.3277  0.3522
 2186SOL    HW1 7457   6.930   0.072  -0.081  0.6793 -3.0497 -1.4333
 2186SOL    HW2 7458   7.058   0.021   0.006  0.2485  0.6023  1.6127
 2187SOL     OW 7459   4.523   1.598   1.569  0.2688  0.0452  0.3260
 2187SOL    HW1 7460   4.560   1.677   1.618 -1.1391  0.8644  0.1015
 2187SOL    HW2 7461   4.559   1.597   1.476 -0.9093  1.3572 -0.1780
 2188SOL     OW 7462   4.466   6.567   0.697  0.4343  0.0372  0.1577
 2188SOL    HW1 7463   4.514   6.505   0.635 -1.1448 -0.5265 -0.5608
 2188SOL    HW2 7464   4.411   6.632   0.644 -1.5290 -0.9142  0.8944
 2189SOL     OW 7465   3.574   0.881   2.615 -0.1845 -0.3102  0.5102
 2189SOL    HW1 7466   3.542   0.829   2.536  0.8002  1.8054 -1.3912
 2189SOL    HW2 7467   3.663   0.847   2.644 -0.0515 -0.4066 -0.0037
 2190SOL     OW 7468   6.548   5.362   0.311  0.5781 -0.0283  0.3176
 2190SOL    HW1 7469   6.495   5.339   0.393  1.3684 -1.2726  0.5031
 2190SOL    HW2 7470   6.486   5.375   0.234 -0.3326  2.6684  1.3734
 2191SOL     OW 7471   4.753   0.074   6.839 -0.4480 -0.3928  0.0750
 2191SOL    HW1 7472   4.829   0.023   6.879 -1.7545 -3.1588 -0.7460
 2191SOL    HW2 7473   4.711   0.132   6.909  1.2734 -0.1643  0.9672
 2192SOL     OW 7474   4.157   2.142   2.247  0.6933 -0.3822 -0.4886
 2192SOL    HW1 7475   4.058   2.133   2.233  0.9804 -1.7214 -1.9602
 2192SOL    HW2 7476   4.205   2.112   2.165  2.3800 -1.3844  0.8076
 2193SOL     OW 7477   0.910   6.225   4.164 -0.1774 -0.4302  0.1520
 2193SOL    HW1 7478   0.853   6.148   4.193 -0.9161  0.2372  0.5336
 2193SOL    HW2 7479   0.980   6.193   4.100  2.2030 -2.1686  3.3427
 2194SOL     OW 7480   2.571   4.734   4.743  0.0294  0.2673  0.3284
 2194SOL    HW1 7481   2.617   4.673   4.678  1.2792 -0.0745  1.5066
 2194SOL    HW2 7482   2.591   4.829   4.719  1.2594  0.1255  0.7446
 2195SOL     OW 7483   1.387   3.927   0.618  0.3430  0.0577 -0.3727
 2195SOL    HW1 7484   1.343   3.843   0.652 -0.1378 -0.2242 -1.6054
 2195SOL    HW2 7485   1.481   3.932   0.652  0.0386 -0.4286  0.5819
 2196SOL     OW 7486   2.975   1.916   5.822 -0.6852  0.0124  1.4103
 2196SOL    HW1 7487   2.975   2.016   5.821 -2.9246  0.0513  0.8984
 2196SOL    HW2 7488   3.009   1.884   5.910 -0.4058  1.2269  1.7694
 2197SOL     OW 7489   2.850   5.388   0.517  0.1137  0.7027 -0.4047
 2197SOL    HW1 7490   2.908   5.436   0.452  1.1154  0.6969  0.4714
 2197SOL    HW2 7491   2.755   5.419   0.506  0.5586  2.0254 -0.6355
 2198SOL     OW 7492   2.074   1.025   5.804  0.0150  0.4919 -0.3758
 2198SOL    HW1 7493   2.021   1.102   5.839  0.2806  1.1603 -1.3944
 2198SOL    HW2 7494   2.120   0.978   5.880 -1.1738  0.5442  0.3956
 2199SOL     OW 7495   5.966   5.125   2.148  0.2034 -0.0351  0.6058
 2199SOL    HW1 7496   6.040   5.193   2.152 -0.5565  1.0765 -2.0209
 2199SOL    HW2 7497   5.879   5.169   2.171 -0.5054  0.3767 -2.4444
 2200SOL     OW 7498   3.592   1.848   6.638  0.0548 -0.2743 -0.4589
 2200SOL    HW1 7499   3.639   1.818   6.555  0.2926  0.1516 -0.4797
 2200SOL    HW2 7500   3.657   1.889   6.701  0.1910 -2.1893  0.7199
 2201SOL     OW 7501   5.122   3.018   4.049  0.1387  0.2304  0.3253
 2201SOL    HW1 7502   5.144   3.003   3.952  0.9710 -1.6520  0.7648
 2201SOL    HW2 7503   5.023   3.024   4.060  0.0641  1.5655 -0.7593
 2202SOL     OW 7504   3.981   0.189   5.155  0.2507  0.1817 -0.7846
 2202SOL    HW1 7505   3.972   0.149   5.246 -1.7023 -4.5724 -2.7470
 2202SOL    HW2 7506   3.947   0.283   5.156 -0.4232  0.0590  3.1719
 2203SOL     OW 7507   3.401   6.457   0.706  0.2881  0.3380  0.4524
 2203SOL    HW1 7508   3.363   6.506   0.785  0.6991  1.2214  0.1200
 2203SOL    HW2 7509   3.493   6.424   0.729  0.7193  1.2599  0.1105
 2204SOL     OW 7510   0.066   3.634   0.200  0.4045  0.2533  0.4822
 2204SOL    HW1 7511   0.112   3.658   0.286  1.3482  0.0760  0.0438
 2204SOL    HW2 7512  -0.020   3.684   0.193  1.2638  1.8162  0.6231
 2205SOL     OW 7513   6.005   5.957   1.521 -0.3569  0.4132 -0.2595
 2205SOL    HW1 7514   6.013   5.976   1.619  0.4887  1.6662 -0.5362
 2205SOL    HW2 7515   5.985   6.043   1.473  0.2909  0.0094 -1.2782
 2206SOL     OW 7516   1.709   1.930   6.479 -0.4740 -0.2342 -0.0893
 2206SOL    HW1 7517   1.694   2.010   6.538 -0.8238  0.3093 -0.8997
 2206SOL    HW2 7518   1.736   1.961   6.388  0.3374 -1.0761 -0.1483
 2207SOL     OW 7519   4.703   3.302   1.329 -0.1818  0.0137 -0.0986
 2207SOL    HW1 7520   4.666   3.316   1.237  1.8407  2.4311 -0.6644
 2207SOL    HW2 7521   4.689   3.385   1.383  2.9291  0.5366  0.0938
 2208SOL     OW 7522   5.662   5.555   2.553  0.1595  0.0379 -0.1506
 2208SOL    HW1 7523   5.702   5.549   2.645 -0.3363 -0.4188  0.0391
 2208SOL    HW2 7524   5.728   5.597   2.491  0.4054  0.5693  0.4669
 2209SOL     OW 7525   0.431   6.578   3.577  0.4403  0.0861  0.5083
 2209SOL    HW1 7526   0.464   6.597   3.670  0.2897  1.3353  0.3358
 2209SOL    HW2 7527   0.443   6.482   3.556  0.9918 -0.1078  1.6248
 2210SOL     OW 7528   4.562   5.832   1.648 -0.4372 -0.0352  0.2888
 2210SOL    HW1 7529   4.645   5.866   1.694 -0.1689 -0.7434  0.3431
 2210SOL    HW2 7530   4.583   5.745   1.602 -0.8535  0.3820 -0.6998
 2211SOL     OW 7531   3.476   6.712   1.128 -0.2493  0.1249 -0.4200
 2211SOL    HW1 7532   3.539   6.697   1.204 -1.3035  1.5907  0.8104
 2211SOL    HW2 7533   3.527   6.740   1.047  0.7070  0.8742  0.4225
 2212SOL     OW 7534   1.532   6.046   6.484 -0.6107 -0.1666 -0.1532
 2212SOL    HW1 7535   1.563   5.971   6.541 -1.1157  0.4274  0.9311
 2212SOL    HW2 7536   1.610   6.085   6.435 -0.3775 -1.4978 -0.8853
 2213SOL     OW 7537   2.560   1.976   4.075  0.6109 -0.4337  0.2440
 2213SOL    HW1 7538   2.654   1.942   4.077  0.0704 -2.0588 -0.4564
 2213SOL    HW2 7539   2.501   1.906   4.035 -0.4534  1.7067 -2.1212
 2214SOL     OW 7540   4.985   4.330   6.638 -0.8047  0.2547  0.1383
 2214SOL    HW1 7541   5.067   4.279   6.667 -0.2536 -0.0742 -1.8075
 2214SOL    HW2 7542   4.905   4.294   6.685 -0.0477 -0.5580  0.8430
 2215SOL     OW 7543   5.163   4.232   6.820  0.7627  0.1908 -0.3560
 2215SOL    HW1 7544   5.134   4.139   6.843 -2.1467  0.5154 -2.1886
 2215SOL    HW2 7545   5.141   4.293   6.896  0.6561 -0.2481 -0.0265
 2216SOL     OW 7546   0.782   6.470   1.509 -0.0389 -0.0595  0.9453
 2216SOL    HW1 7547   0.689   6.436   1.520 -0.2019  0.3463  0.8106
 2216SOL    HW2 7548   0.826   6.476   1.599  0.4449 -1.8868  0.8705
 2217SOL     OW 7549   5.599   0.599   5.488 -0.1557 -0.1101  0.0914
 2217SOL    HW1 7550   5.648   0.686   5.487 -1.2619  0.5308 -1.1476
 2217SOL    HW2 7551   5.595   0.561   5.396 -2.4739  0.1657  0.0167
 2218SOL     OW 7552   5.712   4.480   4.039 -0.0256 -0.5511  0.1851
 2218SOL    HW1 7553   5.685   4.384   4.040  1.5738 -1.0203  0.8234
 2218SOL    HW2 7554   5.716   4.514   4.133 -0.3910  0.1017 -0.0294
 2219SOL     OW 7555   5.846   0.944   0.306 -0.4286 -0.0281  0.1800
 2219SOL    HW1 7556   5.808   1.004   0.236 -2.0587 -0.1565  0.9006
 2219SOL    HW2 7557   5.941   0.968   0.323 -0.2864  0.6126 -1.3976
 2220SOL     OW 7558   0.386   0.459   4.819  0.2396 -0.5078 -0.4414
 2220SOL    HW1 7559   0.378   0.361   4.836 -0.1144 -0.4121 -0.0654
 2220SOL    HW2 7560   0.361   0.478   4.724  1.9159 -0.9945 -1.0173
 2221SOL     OW 7561   5.349   5.760   2.757  0.1817 -0.5367  0.0205
 2221SOL    HW1 7562   5.329   5.663   2.770 -0.6543 -0.2349  1.2093
 2221SOL    HW2 7563   5.275   5.803   2.705  1.3668 -0.8419 -2.0095
 2222SOL     OW 7564   3.880   0.661   3.894 -0.1499  0.0212 -0.1911
 2222SOL    HW1 7565   3.965   0.699   3.857 -0.8055  1.2509 -0.4802
 2222SOL    HW2 7566   3.802   0.697   3.843 -0.8455 -1.2557 -0.0685
 2223SOL     OW 7567   1.442   0.715   6.688 -0.0509  0.5128  0.0223
 2223SOL    HW1 7568   1.424   0.787   6.755 -1.4528  0.9969 -0.8403
 2223SOL    HW2 7569   1.529   0.670   6.710  1.1394  2.7888  0.3214
 2224SOL     OW 7570   5.052   3.558   5.988 -0.4132  0.2425  0.0246
 2224SOL    HW1 7571   5.034   3.461   6.005  1.0142 -0.3887 -1.8188
 2224SOL    HW2 7572   5.088   3.600   6.072 -0.3079 -1.0101  0.6307
 2225SOL     OW 7573   6.088   1.442   0.279 -0.0178  0.3691  0.1893
 2225SOL    HW1 7574   6.056   1.532   0.248 -0.7488 -0.4914 -1.6640
 2225SOL    HW2 7575   6.021   1.372   0.253  1.7403 -1.0508 -0.7017
 2226SOL     OW 7576   2.370   4.018   5.742 -0.2091  0.2561 -0.0735
 2226SOL    HW1 7577   2.388   3.945   5.677  0.6054  0.3093  0.0741
 2226SOL    HW2 7578   2.360   3.979   5.834  2.6390  0.4567  0.4327
 2227SOL     OW 7579   4.469   1.715   2.520  0.2226 -0.6833  0.3475
 2227SOL    HW1 7580   4.427   1.774   2.590 -0.0778 -2.6048  1.8658
 2227SOL    HW2 7581   4.398   1.661   2.476  0.1562  1.6576 -2.7593
 2228SOL     OW 7582   2.808   6.832   5.575  0.2757  0.1591 -0.8848
 2228SOL    HW1 7583   2.710   6.839   5.555  0.1547  4.0790  0.2480
 2228SOL    HW2 7584   2.855   6.910   5.534  2.4770 -0.1953  0.8217
 2229SOL     OW 7585   3.693   4.177   1.917 -0.2530  0.7753 -0.8076
 2229SOL    HW1 7586   3.648   4.175   2.006 -0.1854  1.7464 -0.7375
 2229SOL    HW2 7587   3.781   4.129   1.922 -0.7295 -0.0907 -0.6372
 2230SOL     OW 7588   0.090   1.574   5.909 -0.4425 -0.1453 -0.2115
 2230SOL    HW1 7589   0.096   1.475   5.894 -0.4254 -0.2105  0.2327
 2230SOL    HW2 7590   0.155   1.620   5.848  0.5766 -0.5036  0.5616
 2231SOL     OW 7591   0.995   1.181   6.821  0.2640  0.6077  0.0485
 2231SOL    HW1 7592   1.094   1.190   6.814  0.1869  2.4496  0.7075
 2231SOL    HW2 7593   0.953   1.270   6.806 -1.4621 -0.4651 -2.2566
 2232SOL     OW 7594   1.308   0.784   6.936 -0.4253 -0.7908  0.6311
 2232SOL    HW1 7595   1.320   0.711   7.003  1.0924 -0.5605  0.6314
 2232SOL    HW2 7596   1.330   0.872   6.977  0.3342 -0.6244 -0.0870
 2233SOL     OW 7597   1.469   4.004   2.135 -0.0755 -0.1109 -0.5186
 2233SOL    HW1 7598   1.555   4.047   2.109 -0.1811 -0.8470 -2.2130
 2233SOL    HW2 7599   1.414   3.985   2.054 -2.0664  0.7252  0.5443
 2234SOL     OW 7600   3.123   1.197   1.614  0.9935  0.5810 -0.0550
 2234SOL    HW1 7601   3.141   1.111   1.661 -0.2462  0.8008  0.8636
 2234SOL    HW2 7602   3.074   1.178   1.528  2.1609  0.2745 -0.6766
 2235SOL     OW 7603   5.887   1.107   4.070  0.1827  0.1153  0.1737
 2235SOL    HW1 7604   5.812   1.164   4.104  0.1801 -0.1046  0.5403
 2235SOL    HW2 7605   5.941   1.159   4.004  0.9858  1.0152  1.5017
 2236SOL     OW 7606   1.788   4.562   4.943 -0.8437 -0.1379  0.1125
 2236SOL    HW1 7607   1.790   4.612   5.029  0.3099  1.0142 -0.5468
 2236SOL    HW2 7608   1.869   4.503   4.937 -1.0679 -0.4308 -0.0665
 2237SOL     OW 7609   4.978   6.991   6.960  0.1364 -0.1716  0.5294
 2237SOL    HW1 7610   4.989   6.900   6.919  0.2316 -0.3883  1.0314
 2237SOL    HW2 7611   5.052   7.007   7.025  0.2629  0.3700  0.2550
 2238SOL     OW 7612   4.612   4.496   1.862 -0.7926  0.1267  0.6877
 2238SOL    HW1 7613   4.595   4.413   1.914  0.5385  0.6536  2.0294
 2238SOL    HW2 7614   4.656   4.564   1.921 -1.3258  1.5808 -0.5255
 2239SOL     OW 7615   3.862   6.882   1.578  0.7655 -0.3613  0.3625
 2239SOL    HW1 7616   3.783   6.845   1.627  1.2257 -1.2293  0.4690
 2239SOL    HW2 7617   3.935   6.901   1.643  1.9980 -3.0897 -0.0713
 2240SOL     OW 7618   4.737   5.791   3.531  0.0628  0.0658 -0.0261
 2240SOL    HW1 7619   4.706   5.758   3.621  1.5802  0.8630  0.8350
 2240SOL    HW2 7620   4.658   5.816   3.476 -0.9094  2.5043  2.2500
 2241SOL     OW 7621   2.744   1.963   3.570 -0.0433 -0.0573  0.4841
 2241SOL    HW1 7622   2.704   2.026   3.505  0.6602 -0.5467 -0.4416
 2241SOL    HW2 7623   2.753   2.007   3.659  0.2451  1.0675 -0.0942
 2242SOL     OW 7624   5.042   2.728   4.965 -0.1727  0.3830 -0.1787
 2242SOL    HW1 7625   5.029   2.814   4.915  1.1575 -1.5208 -4.1767
 2242SOL    HW2 7626   5.118   2.739   5.030  0.8478  1.9366 -1.5315
 2243SOL     OW 7627   4.110   0.593   0.576 -0.4297  0.0880  0.2747
 2243SOL    HW1 7628   4.047   0.516   0.573 -1.3978  0.8783  0.0142
 2243SOL    HW2 7629   4.079   0.665   0.513  0.1252  0.9430  0.9568
 2244SOL     OW 7630   0.989   2.494   1.384 -0.2140  0.0255 -0.1908
 2244SOL    HW1 7631   1.013   2.498   1.481 -0.3551 -0.0713 -0.1515
 2244SOL    HW2 7632   1.010   2.403   1.348 -0.1307  0.0718 -0.2586
 2245SOL     OW 7633   6.146   0.874   6.213  0.5201  0.1695 -0.0754
 2245SOL    HW1 7634   6.139   0.776   6.198  1.8800  0.0234  0.1248
 2245SOL    HW2 7635   6.185   0.917   6.131  2.7879  0.1055  0.9042
 2246SOL     OW 7636   1.512   0.396   6.074 -0.0056  0.1688  0.4083
 2246SOL    HW1 7637   1.466   0.476   6.112  2.2144  1.3159  0.8690
 2246SOL    HW2 7638   1.588   0.426   6.016 -0.7413 -1.6081 -1.6189
 2247SOL     OW 7639   5.180   3.306   0.155  0.3343  0.0740  0.1798
 2247SOL    HW1 7640   5.201   3.245   0.078  1.2352 -0.6909  1.0174
 2247SOL    HW2 7641   5.080   3.313   0.165  0.1677 -2.4593  0.9548
 2248SOL     OW 7642   5.384   4.851   3.958  0.5480 -0.3081 -0.3846
 2248SOL    HW1 7643   5.286   4.836   3.947  0.5262 -0.0671 -0.5355
 2248SOL    HW2 7644   5.425   4.771   4.001  0.4260 -0.7766 -1.1076
 2249SOL     OW 7645   1.727   0.629   4.076 -0.0914  0.0147  0.0815
 2249SOL    HW1 7646   1.804   0.642   4.137 -0.0657 -0.4484  0.1523
 2249SOL    HW2 7647   1.745   0.673   3.988 -0.0611  0.5408  0.3484
 2250SOL     OW 7648   4.434   4.513   6.283 -0.1780  0.5156 -0.4320
 2250SOL    HW1 7649   4.356   4.536   6.342 -2.0523  2.3065 -3.3594
 2250SOL    HW2 7650   4.421   4.422   6.244 -1.0218  0.9145 -1.1242
 2251SOL     OW 7651   3.916   5.392   5.630 -0.4267 -0.1638 -0.7154
 2251SOL    HW1 7652   3.968   5.307   5.620  0.0871  0.2303 -1.5591
 2251SOL    HW2 7653   3.857   5.387   5.710  0.4292 -0.8849 -0.1202
 2252SOL     OW 7654   4.402   0.150   0.397 -0.6187  0.4497 -0.6870
 2252SOL    HW1 7655   4.487   0.097   0.394 -0.3796  0.8529 -1.2350
 2252SOL    HW2 7656   4.415   0.230   0.457 -1.2241 -0.5105  0.7649
 2253SOL     OW 7657   6.650   2.014   1.995  0.0683  0.0809  0.2836
 2253SOL    HW1 7658   6.621   2.074   2.069 -0.7246  0.5714 -0.4051
 2253SOL    HW2 7659   6.736   2.047   1.956 -0.3661  0.7842 -0.0959
 2254SOL     OW 7660   4.046   3.445   2.169 -0.0336  0.2148 -0.5273
 2254SOL    HW1 7661   4.123   3.428   2.107  1.3813  0.9444  0.9346
 2254SOL    HW2 7662   4.043   3.541   2.194 -0.9443  0.0520  0.0478
 2255SOL     OW 7663   0.179   2.101   5.489  0.2942 -0.0474 -0.1979
 2255SOL    HW1 7664   0.217   2.164   5.556 -1.6165 -1.0308  1.9383
 2255SOL    HW2 7665   0.165   2.011   5.531  0.3225 -1.1330 -2.3418
 2256SOL     OW 7666   6.261   1.059   2.134  0.1713  0.0671 -0.1457
 2256SOL    HW1 7667   6.233   1.147   2.172 -0.2791  0.9090 -2.2810
 2256SOL    HW2 7668   6.180   1.002   2.117  0.2325  0.1994 -0.9417
 2257SOL     OW 7669   0.988   6.959   5.550  0.1377 -0.3348 -0.0683
 2257SOL    HW1 7670   1.050   7.037   5.560  1.9863 -1.7660  0.2435
 2257SOL    HW2 7671   0.923   6.958   5.627 -0.0272  0.9534 -0.1686
 2258SOL     OW 7672   0.908   0.622   3.261 -0.7945  0.7174  0.8811
 2258SOL    HW1 7673   0.983   0.659   3.315  0.5535  0.7294 -0.9083
 2258SOL    HW2 7674   0.869   0.694   3.204 -0.8845  0.2873  0.3933
 2259SOL     OW 7675   0.366   0.078   5.126 -0.4769  0.4025  0.1643
 2259SOL    HW1 7676   0.417   0.121   5.200 -0.2937  1.3268 -0.4837
 2259SOL    HW2 7677   0.268   0.081   5.148 -0.3151 -1.3750  1.4074
 2260SOL     OW 7678   2.133   2.742   1.907  0.4947  0.0990  0.2203
 2260SOL    HW1 7679   2.145   2.770   1.812  1.6552  0.2653  0.4008
 2260SOL    HW2 7680   2.078   2.809   1.955 -0.0239  0.0590 -0.3138
 2261SOL     OW 7681   3.498   4.766   6.958 -0.0255  0.1082 -0.0596
 2261SOL    HW1 7682   3.400   4.776   6.939 -0.1256  0.0311  0.3948
 2261SOL    HW2 7683   3.532   4.681   6.919 -0.2503 -0.1009  0.1975
 2262SOL     OW 7684   6.071   0.687   4.104 -0.5466 -0.0273 -0.0171
 2262SOL    HW1 7685   6.013   0.717   4.028 -1.1292  0.1636  0.4912
 2262SOL    HW2 7686   6.089   0.764   4.164  0.0354 -0.1462 -0.0339
 2263SOL     OW 7687   1.429   4.529   1.328 -0.0066  0.0594 -0.2153
 2263SOL    HW1 7688   1.351   4.483   1.371  0.6954 -0.4202  0.6004
 2263SOL    HW2 7689   1.473   4.466   1.264  1.1818 -0.6035  1.1811
 2264SOL     OW 7690   2.863   2.777   0.635  0.1505  0.5781 -0.6146
 2264SOL    HW1 7691   2.820   2.749   0.720 -1.4355  0.5118 -1.4089
 2264SOL    HW2 7692   2.853   2.704   0.567 -0.1630  1.3206 -1.3802
 2265SOL     OW 7693   0.610   6.963   5.488 -0.1946  0.2177 -0.5959
 2265SOL    HW1 7694   0.519   6.926   5.506  0.0412 -0.0741 -0.0044
 2265SOL    HW2 7695   0.665   6.959   5.571  0.2407  0.7420 -0.8547
 2266SOL     OW 7696   4.454   2.590   6.891  0.4579 -0.0668  0.1756
 2266SOL    HW1 7697   4.390   2.551   6.824  0.1222  1.0084 -0.1580
 2266SOL    HW2 7698   4.453   2.690   6.883  1.0011  0.0401  1.2606
 2267SOL     OW 7699   5.343   3.538   4.800 -0.0999  0.1103  0.0257
 2267SOL    HW1 7700   5.256   3.490   4.801 -1.0750  1.6646 -1.9604
 2267SOL    HW2 7701   5.413   3.482   4.844 -1.6955 -1.9652  0.0701
 2268SOL     OW 7702   1.017   5.879   4.522  0.8515  0.1852 -0.3857
 2268SOL    HW1 7703   1.009   5.962   4.577  0.2221  0.6024 -1.0988
 2268SOL    HW2 7704   0.926   5.845   4.499  1.0265 -2.0869  1.9092
 2269SOL     OW 7705   0.356   2.770   4.813  0.1639 -0.1284 -0.3545
 2269SOL    HW1 7706   0.271   2.824   4.813 -0.3645 -0.9201 -1.5843
 2269SOL    HW2 7707   0.434   2.832   4.820 -0.4840  0.6727 -0.0282
 2270SOL     OW 7708   4.879   6.869   5.824 -0.5946 -0.5968 -0.0092
 2270SOL    HW1 7709   4.908   6.941   5.886  1.5570 -0.8054 -0.6926
 2270SOL    HW2 7710   4.906   6.893   5.730 -1.4892 -1.4532 -0.5012
 2271SOL     OW 7711   5.344   6.583   5.285  0.2402 -0.5647  0.3253
 2271SOL    HW1 7712   5.324   6.485   5.281  1.3727 -0.8779  1.6343
 2271SOL    HW2 7713   5.441   6.596   5.306  0.0974  0.8472  0.1791
 2272SOL     OW 7714   6.369   0.256   4.775 -0.5034 -0.1186  0.1739
 2272SOL    HW1 7715   6.359   0.355   4.784  1.3843  0.2041 -0.7525
 2272SOL    HW2 7716   6.409   0.219   4.859 -0.7681 -0.0377  0.3389
 2273SOL     OW 7717   0.065   3.124   3.647  0.0122  0.1543  0.1610
 2273SOL    HW1 7718   0.024   3.138   3.737 -1.1229 -2.1039  0.0806
 2273SOL    HW2 7719   0.165   3.122   3.656 -0.0329  1.3020  1.1301
 2274SOL     OW 7720   1.391   0.456   0.853  0.5482  0.0995  0.4532
 2274SOL    HW1 7721   1.369   0.477   0.758 -0.2995  0.2348  0.6648
 2274SOL    HW2 7722   1.314   0.406   0.894  1.2873 -0.7598  0.8100
 2275SOL     OW 7723   4.494   4.520   3.061  0.0429  0.1919 -0.2538
 2275SOL    HW1 7724   4.468   4.535   2.966 -0.1691 -0.4573 -0.2964
 2275SOL    HW2 7725   4.532   4.429   3.072 -4.4254 -1.7753  1.1821
 2276SOL     OW 7726   1.377   2.130   0.708  0.6453 -0.5363  0.1998
 2276SOL    HW1 7727   1.306   2.151   0.775 -0.1113  0.4549 -0.8730
 2276SOL    HW2 7728   1.351   2.047   0.657  0.9753 -0.9979  0.7668
 2277SOL     OW 7729   2.944   3.380   3.176  0.1729  0.1701  0.6300
 2277SOL    HW1 7730   2.906   3.376   3.084  1.1402  0.3056  0.2121
 2277SOL    HW2 7731   2.896   3.451   3.228 -1.8720 -1.3540  0.9709
 2278SOL     OW 7732   5.625   4.020   1.482 -0.5847  0.1520 -0.4421
 2278SOL    HW1 7733   5.640   3.933   1.435  0.1774  0.2531 -0.3960
 2278SOL    HW2 7734   5.642   4.009   1.580  0.6254  0.6088 -0.5859
 2279SOL     OW 7735   1.589   5.735   0.444 -0.1450 -0.3037 -0.2751
 2279SOL    HW1 7736   1.675   5.723   0.395  0.0325 -0.0108 -0.0370
 2279SOL    HW2 7737   1.592   5.821   0.496 -0.2336 -0.7458  0.4638
 2280SOL     OW 7738   4.200   2.958   5.368  0.1840 -0.0435  0.1632
 2280SOL    HW1 7739   4.139   2.883   5.346  1.0270 -0.9472  0.8324
 2280SOL    HW2 7740   4.146   3.038   5.395 -0.7187 -0.4364 -0.4480
 2281SOL     OW 7741   5.753   5.909   2.489 -0.0159  0.3047 -0.1712
 2281SOL    HW1 7742   5.775   5.816   2.458  0.9817  1.1173 -2.0410
 2281SOL    HW2 7743   5.831   5.969   2.472 -0.7238  1.5527  0.8126
 2282SOL     OW 7744   3.032   5.384   0.179  0.0757 -0.2157  0.7999
 2282SOL    HW1 7745   3.029   5.428   0.089  2.1338  1.3073  1.4210
 2282SOL    HW2 7746   2.955   5.320   0.186 -0.2892 -0.2235 -1.9296
 2283SOL     OW 7747   0.223   5.495   6.305  0.3141  0.3276  0.3158
 2283SOL    HW1 7748   0.297   5.449   6.255  0.1963 -0.7413  1.0715
 2283SOL    HW2 7749   0.178   5.561   6.246  0.9425 -0.0558 -0.6121
 2284SOL     OW 7750   2.125   2.982   6.190 -0.0655 -0.3150  0.1570
 2284SOL    HW1 7751   2.118   3.030   6.277 -1.2245 -0.5094  0.1904
 2284SOL    HW2 7752   2.158   2.889   6.206 -1.0089 -0.6036  0.4946
 2285SOL     OW 7753   1.901   3.729   5.644 -0.0910  0.5952 -0.0814
 2285SOL    HW1 7754   1.978   3.786   5.616 -0.0185  0.1196 -0.8700
 2285SOL    HW2 7755   1.902   3.643   5.593 -0.9949  0.4720  0.0874
 2286SOL     OW 7756   2.894   4.977   1.923  0.0086  0.3728  0.2437
 2286SOL    HW1 7757   2.923   4.931   1.839 -0.1231  0.4792  0.1404
 2286SOL    HW2 7758   2.917   5.074   1.919 -3.2088  1.2260 -1.2594
 2287SOL     OW 7759   1.361   1.985   5.804  0.3302  0.1786 -0.0770
 2287SOL    HW1 7760   1.395   1.952   5.716 -0.9584 -1.3467 -0.0408
 2287SOL    HW2 7761   1.283   1.930   5.832 -0.0259  1.4130  1.4653
 2288SOL     OW 7762   6.385   3.872   2.658 -0.4724  0.3600 -0.1448
 2288SOL    HW1 7763   6.408   3.874   2.755 -3.0233  0.1943  0.5351
 2288SOL    HW2 7764   6.452   3.925   2.606  2.2747 -1.3968  1.3344
 2289SOL     OW 7765   0.621   5.085   6.065  0.0781 -0.2713 -0.0706
 2289SOL    HW1 7766   0.696   5.021   6.082  1.3915  0.9718 -0.8865
 2289SOL    HW2 7767   0.536   5.035   6.051  1.1287 -1.8595 -1.0216
 2290SOL     OW 7768   0.371   5.692   0.634 -0.0382 -0.0091 -0.3404
 2290SOL    HW1 7769   0.276   5.682   0.602 -0.3727 -0.8320  0.8456
 2290SOL    HW2 7770   0.432   5.692   0.555 -0.9792 -0.0489 -1.0970
 2291SOL     OW 7771   2.327   3.014   0.974  0.5818  0.0169 -0.4318
 2291SOL    HW1 7772   2.241   3.061   0.958 -0.0021  0.2114  2.6035
 2291SOL    HW2 7773   2.312   2.915   0.977  0.0355  0.1200  1.8219
 2292SOL     OW 7774   2.209   1.176   3.195  0.6384 -0.1373 -0.0685
 2292SOL    HW1 7775   2.168   1.223   3.273  0.6325 -0.6627  0.2499
 2292SOL    HW2 7776   2.307   1.193   3.193  0.7506 -0.6821  0.4606
 2293SOL     OW 7777   5.399   4.486   3.695 -0.4942 -0.2333 -0.1068
 2293SOL    HW1 7778   5.359   4.395   3.708 -1.8277 -0.0710 -2.4104
 2293SOL    HW2 7779   5.467   4.482   3.623  0.5860  0.3432  0.8525
 2294SOL     OW 7780   2.651   1.742   6.816  0.0467  0.1813  0.5502
 2294SOL    HW1 7781   2.661   1.791   6.729 -1.7635  1.4033  0.9739
 2294SOL    HW2 7782   2.563   1.695   6.818  1.0601 -1.8124  0.8306
 2295SOL     OW 7783   0.832   2.476   1.037  0.0447 -0.0649 -0.5510
 2295SOL    HW1 7784   0.904   2.434   1.092 -0.3013  0.0502 -0.0017
 2295SOL    HW2 7785   0.769   2.525   1.097 -0.5466 -0.2490 -1.0167
 2296SOL     OW 7786   3.526   6.160   6.449 -0.2885  0.6418 -0.6911
 2296SOL    HW1 7787   3.558   6.239   6.398 -1.0477  1.7381  0.4755
 2296SOL    HW2 7788   3.508   6.186   6.544  0.3773 -1.1597 -0.0181
 2297SOL     OW 7789   3.904   0.500   6.836 -0.2037  0.4733  0.6587
 2297SOL    HW1 7790   3.939   0.408   6.816  3.1229  1.4654  1.3659
 2297SOL    HW2 7791   3.834   0.494   6.906  0.1551 -1.5006  0.9237
 2298SOL     OW 7792   4.080   2.944   0.124  0.2591 -0.3247 -0.0177
 2298SOL    HW1 7793   4.036   3.010   0.184  1.4205  1.3467 -0.9226
 2298SOL    HW2 7794   4.174   2.928   0.155 -0.5015 -2.9289  1.1970
 2299SOL     OW 7795   4.499   1.392   1.731 -0.1468  0.2241  0.1671
 2299SOL    HW1 7796   4.408   1.384   1.772  0.5966  1.1703  2.1307
 2299SOL    HW2 7797   4.503   1.473   1.673 -0.0539  1.3443  1.6638
 2300SOL     OW 7798   2.275   3.501   1.639 -0.4616  0.1330 -0.1897
 2300SOL    HW1 7799   2.183   3.484   1.603 -0.7098 -0.0607  0.5259
 2300SOL    HW2 7800   2.277   3.481   1.737  0.4725 -0.3330 -0.2927
 2301SOL     OW 7801   3.463   4.263   1.147 -0.3965  0.1866  0.5051
 2301SOL    HW1 7802   3.423   4.281   1.057  0.0548  1.2667  0.4991
 2301SOL    HW2 7803   3.406   4.199   1.197 -0.7171 -0.3429 -0.5043
 2302SOL     OW 7804   1.130   4.979   2.782  0.0685  0.0061  0.0127
 2302SOL    HW1 7805   1.112   4.906   2.716 -0.1618  0.4736 -0.4471
 2302SOL    HW2 7806   1.217   5.022   2.761 -0.2534  0.5070 -0.3173
 2303SOL     OW 7807   1.080   5.202   6.103  0.2270  0.4501  0.2199
 2303SOL    HW1 7808   1.151   5.172   6.167 -0.8526 -1.2423  0.6655
 2303SOL    HW2 7809   1.000   5.233   6.154 -0.1705  0.2907 -0.2991
 2304SOL     OW 7810   1.986   0.463   3.485 -0.7655  0.0217 -0.1732
 2304SOL    HW1 7811   2.070   0.502   3.447 -0.7053 -1.4721 -1.7294
 2304SOL    HW2 7812   1.937   0.414   3.413 -1.1868 -2.1091  1.4699
 2305SOL     OW 7813   3.792   4.144   1.620  0.3388 -0.1826 -0.0504
 2305SOL    HW1 7814   3.877   4.092   1.619 -0.0812 -0.9028  0.6068
 2305SOL    HW2 7815   3.763   4.159   1.715 -0.6311 -0.5523 -0.2728
 2306SOL     OW 7816   0.196   4.975   0.331  0.3592 -0.4147 -0.0243
 2306SOL    HW1 7817   0.101   4.991   0.359  0.0372 -0.9712 -0.7458
 2306SOL    HW2 7818   0.257   5.030   0.387 -0.2884 -1.0783  1.3908
 2307SOL     OW 7819   5.206   3.503   2.771 -0.3153  0.0409  0.1181
 2307SOL    HW1 7820   5.249   3.468   2.854 -1.0385  0.3296  0.6165
 2307SOL    HW2 7821   5.114   3.536   2.791  0.2207  1.9947 -0.3660
 2308SOL     OW 7822   0.722   0.377   6.586  0.1008 -0.3896 -0.2972
 2308SOL    HW1 7823   0.729   0.344   6.491  1.0869  2.5167 -1.3366
 2308SOL    HW2 7824   0.781   0.456   6.598 -2.9603  1.8389  1.5863
 2309SOL     OW 7825   2.582   5.467   0.471 -0.0258  0.0018 -0.3551
 2309SOL    HW1 7826   2.489   5.484   0.505 -0.5122 -0.7297 -1.2827
 2309SOL    HW2 7827   2.578   5.409   0.390  1.3299 -1.1488  0.3521
 2310SOL     OW 7828   4.861   6.858   3.845  0.3752  0.0441 -0.2061
 2310SOL    HW1 7829   4.935   6.790   3.848  0.2917 -0.0989 -1.0446
 2310SOL    HW2 7830   4.862   6.904   3.756 -0.9764 -0.4501 -0.5011
 2311SOL     OW 7831   2.494   6.722   3.276 -0.0792 -0.2323  0.4151
 2311SOL    HW1 7832   2.520   6.649   3.339  0.6203 -0.6846 -0.3892
 2311SOL    HW2 7833   2.490   6.687   3.183 -0.4186  0.5957  0.1046
 2312SOL     OW 7834   1.292   1.143   2.092  0.7602 -0.9605  0.3381
 2312SOL    HW1 7835   1.237   1.216   2.131  0.8880 -0.8701  0.3503
 2312SOL    HW2 7836   1.376   1.182   2.053  0.8554 -1.1084  0.3958
 2313SOL     OW 7837   5.131   3.515   1.956 -0.6758  1.1325  0.2664
 2313SOL    HW1 7838   5.131   3.463   1.871  1.3838  0.7798  0.4217
 2313SOL    HW2 7839   5.124   3.613   1.936  1.3334  1.1701 -0.4738
 2314SOL     OW 7840   0.996   5.551   2.338  0.4081 -0.0856  0.0261
 2314SOL    HW1 7841   1.094   5.573   2.335  0.1954  1.1814  1.3481
 2314SOL    HW2 7842   0.978   5.487   2.412 -0.0902  1.8934  1.7281
 2315SOL     OW 7843   5.076   1.315   4.603 -0.2442 -0.2712 -0.0989
 2315SOL    HW1 7844   4.995   1.326   4.546 -0.3168 -2.0337 -0.4033
 2315SOL    HW2 7845   5.152   1.281   4.547  0.6927  1.2028  0.2116
 2316SOL     OW 7846   4.447   2.578   0.376 -0.2929 -0.4875 -0.0828
 2316SOL    HW1 7847   4.487   2.492   0.407  0.1273 -0.8355 -1.5530
 2316SOL    HW2 7848   4.463   2.648   0.446 -0.2626 -1.4709  0.9355
 2317SOL     OW 7849   5.949   6.248   1.055  0.0391  0.1667  0.1900
 2317SOL    HW1 7850   6.017   6.209   0.994 -0.3790  0.2079 -0.3066
 2317SOL    HW2 7851   5.880   6.297   1.002 -0.9990 -0.8096  0.5838
 2318SOL     OW 7852   0.689   5.074   3.049  0.0961  0.3090  0.0491
 2318SOL    HW1 7853   0.673   5.148   2.983  0.0659 -0.2000 -0.5187
 2318SOL    HW2 7854   0.721   4.992   3.001  0.2824 -0.0065  0.6915
 2319SOL     OW 7855   0.943   5.785   2.627  0.0608 -0.0983  0.0367
 2319SOL    HW1 7856   0.905   5.806   2.718  1.4085 -1.3792  0.9519
 2319SOL    HW2 7857   1.037   5.753   2.638 -0.0580 -1.1440 -1.7481
 2320SOL     OW 7858   6.193   2.731   4.119  0.1092  0.7473  0.5018
 2320SOL    HW1 7859   6.220   2.819   4.157 -1.4490  1.2417  0.5311
 2320SOL    HW2 7860   6.112   2.743   4.061  0.8313 -0.4162 -0.8189
 2321SOL     OW 7861   2.479   1.123   4.807  0.0752 -0.3082 -0.4370
 2321SOL    HW1 7862   2.569   1.092   4.775 -1.0731 -2.3390 -1.8889
 2321SOL    HW2 7863   2.415   1.123   4.731 -1.6261 -0.6673  0.9443
 2322SOL     OW 7864   0.850   3.053   2.519  0.5568  0.3563 -0.2787
 2322SOL    HW1 7865   0.783   3.108   2.570 -0.4890  1.1098 -2.3209
 2322SOL    HW2 7866   0.839   3.071   2.421  2.0368 -1.4948 -0.8378
 2323SOL     OW 7867   2.841   5.869   2.006  0.7129  0.8233  0.4679
 2323SOL    HW1 7868   2.865   5.781   2.046  2.5862 -0.0858 -2.3147
 2323SOL    HW2 7869   2.924   5.924   1.995  0.0043  1.7518 -0.4708
 2324SOL     OW 7870   0.074   4.760   4.532  0.2320  0.4065  0.0805
 2324SOL    HW1 7871   0.064   4.662   4.517 -1.8216  0.7447 -1.0804
 2324SOL    HW2 7872   0.147   4.795   4.473 -1.1739  0.0508 -1.9930
 2325SOL     OW 7873   6.958   4.196   3.808  0.3712  0.0856  0.0045
 2325SOL    HW1 7874   6.938   4.293   3.822  0.7346 -0.0952  2.2658
 2325SOL    HW2 7875   7.057   4.181   3.817  0.2949 -0.5155 -0.1395
 2326SOL     OW 7876   2.857   2.644   0.397 -0.3002  0.0444 -0.1740
 2326SOL    HW1 7877   2.795   2.608   0.328  1.6906 -2.1073 -0.9965
 2326SOL    HW2 7878   2.930   2.696   0.353  0.2271 -0.1703  0.4268
 2327SOL     OW 7879   6.520   5.659   0.225 -0.3264  0.1086 -0.3257
 2327SOL    HW1 7880   6.480   5.573   0.193  0.7868 -0.7899  0.6141
 2327SOL    HW2 7881   6.474   5.735   0.181 -1.6236 -0.9501 -0.8708
 2328SOL     OW 7882   1.917   4.103   2.541 -0.0468  0.1208  0.2067
 2328SOL    HW1 7883   1.931   4.007   2.567 -0.7348 -0.2080 -0.5831
 2328SOL    HW2 7884   1.823   4.115   2.511  0.1349  0.9778 -0.0279
 2329SOL     OW 7885   6.189   6.145   0.947 -0.3768  0.0468  0.0605
 2329SOL    HW1 7886   6.228   6.099   1.027  2.3874  0.0912 -1.1588
 2329SOL    HW2 7887   6.219   6.240   0.945  1.3574 -0.4738 -2.0482
 2330SOL     OW 7888   4.895   2.994   2.189 -0.6735  0.0534  0.1187
 2330SOL    HW1 7889   4.857   2.903   2.200 -2.1550  0.6160 -0.1808
 2330SOL    HW2 7890   4.859   3.036   2.106  0.5293  0.6583 -0.1196
 2331SOL     OW 7891   4.289   4.063   1.670 -0.3006 -0.6569 -0.2586
 2331SOL    HW1 7892   4.349   4.113   1.732 -0.0457 -1.0903 -0.1517
 2331SOL    HW2 7893   4.244   4.127   1.608 -1.1720 -0.1294  0.8790
 2332SOL     OW 7894   5.432   6.656   0.213 -0.1739  0.0496  0.5549
 2332SOL    HW1 7895   5.431   6.616   0.121 -0.3111 -1.4370  1.1796
 2332SOL    HW2 7896   5.352   6.714   0.225  0.1806  0.7934 -0.4713
 2333SOL     OW 7897   6.502   3.614   0.429  0.0380  0.2547 -0.6135
 2333SOL    HW1 7898   6.602   3.605   0.427 -0.0274 -0.7176 -0.4407
 2333SOL    HW2 7899   6.477   3.709   0.445  0.9515  0.4300 -0.1278
 2334SOL     OW 7900   3.916   1.171   4.418 -0.4110 -0.1404  0.5476
 2334SOL    HW1 7901   3.921   1.247   4.482 -1.5826  0.6521 -0.2632
 2334SOL    HW2 7902   3.917   1.205   4.325 -1.8034 -1.0298  0.1701
 2335SOL     OW 7903   5.323   1.483   4.099 -0.3060 -0.2736 -0.2908
 2335SOL    HW1 7904   5.301   1.486   4.002  1.7497 -2.6340 -0.9254
 2335SOL    HW2 7905   5.386   1.407   4.117 -0.5169  0.1638  2.8793
 2336SOL     OW 7906   2.831   1.844   3.208 -0.4584 -0.4252 -0.2276
 2336SOL    HW1 7907   2.785   1.932   3.204 -0.2450 -0.2862  0.3372
 2336SOL    HW2 7908   2.909   1.849   3.271  1.0464 -0.3379 -1.9883
 2337SOL     OW 7909   1.589   2.767   2.748 -0.1811  0.5990 -0.2334
 2337SOL    HW1 7910   1.687   2.785   2.752 -0.1292  0.0790  1.6165
 2337SOL    HW2 7911   1.573   2.675   2.712  0.0117  0.6424 -0.4306
 2338SOL     OW 7912   5.674   2.989   2.283  0.8051 -0.2876 -0.8944
 2338SOL    HW1 7913   5.637   3.047   2.356  1.6610 -2.4511  1.4001
 2338SOL    HW2 7914   5.600   2.939   2.239  0.4737 -0.7705  0.1803
 2339SOL     OW 7915   4.023   2.729   1.697 -0.3348 -0.0920 -0.4782
 2339SOL    HW1 7916   4.063   2.767   1.781  0.2938 -1.7433  0.0327
 2339SOL    HW2 7917   3.924   2.724   1.707 -0.4419  1.4359 -0.6017
 2340SOL     OW 7918   1.573   5.126   5.532 -0.5964 -0.0292 -0.4501
 2340SOL    HW1 7919   1.548   5.116   5.628 -1.4370  1.0275 -0.5361
 2340SOL    HW2 7920   1.542   5.215   5.499 -1.3561 -0.8245 -1.9969
 2341SOL     OW 7921   3.780   4.073   4.059 -0.0251 -0.4517 -0.0243
 2341SOL    HW1 7922   3.722   3.993   4.046  0.9307 -1.0230 -0.9467
 2341SOL    HW2 7923   3.843   4.057   4.135  0.2286 -0.6184 -0.2684
 2342SOL     OW 7924   5.383   1.295   5.640 -0.2668  0.0040 -0.0272
 2342SOL    HW1 7925   5.329   1.324   5.719 -0.3911 -0.1429 -0.0576
 2342SOL    HW2 7926   5.445   1.368   5.614 -1.3788  0.6846 -0.8163
 2343SOL     OW 7927   6.957   0.763   6.777  0.1260  0.1481 -0.2926
 2343SOL    HW1 7928   7.047   0.787   6.815 -0.5791  1.3030  0.7386
 2343SOL    HW2 7929   6.928   0.835   6.714 -0.2379 -0.0349 -0.3311
 2344SOL     OW 7930   6.618   4.598   0.561 -0.0310  0.0912  0.7014
 2344SOL    HW1 7931   6.555   4.653   0.507 -0.1565  0.1838  0.9377
 2344SOL    HW2 7932   6.690   4.657   0.599  0.2674 -0.0326  0.3386
 2345SOL     OW 7933   2.619   6.081   3.371  0.8367 -0.0134  0.7714
 2345SOL    HW1 7934   2.685   6.028   3.424  2.3449 -0.7009 -1.6406
 2345SOL    HW2 7935   2.665   6.125   3.293 -1.0865  1.7085  0.5045
 2346SOL     OW 7936   6.357   5.619   1.294 -0.4019  0.6180 -0.3085
 2346SOL    HW1 7937   6.312   5.553   1.234  0.2322 -0.1348  0.0346
 2346SOL    HW2 7938   6.395   5.693   1.240  1.5048 -0.8191 -1.0196
 2347SOL     OW 7939   1.276   2.376   1.182 -0.7911  0.1635  0.1965
 2347SOL    HW1 7940   1.294   2.472   1.162  0.4771 -0.2838 -0.9312
 2347SOL    HW2 7941   1.265   2.364   1.280  0.7443  1.2038  0.5331
 2348SOL     OW 7942   6.495   6.475   1.190 -0.1102 -0.0216  0.5795
 2348SOL    HW1 7943   6.510   6.539   1.115 -0.3887 -1.0142 -0.3480
 2348SOL    HW2 7944   6.571   6.410   1.195 -0.3976 -0.3535  0.7415
 2349SOL     OW 7945   1.091   5.518   6.028 -0.3820 -0.1381  0.2626
 2349SOL    HW1 7946   0.998   5.553   6.016 -0.3594  0.0544  0.6542
 2349SOL    HW2 7947   1.113   5.456   5.952 -1.3483 -1.3049  0.9078
 2350SOL     OW 7948   6.637   3.610   0.703  0.1965  0.4316 -0.1579
 2350SOL    HW1 7949   6.583   3.616   0.787  0.3049  0.7636 -0.1124
 2350SOL    HW2 7950   6.581   3.572   0.630  0.1271  0.0492  0.0892
 2351SOL     OW 7951   3.174   0.316   6.929 -0.4998  0.0457 -0.4693
 2351SOL    HW1 7952   3.213   0.311   7.022 -0.8137  0.2207 -0.3276
 2351SOL    HW2 7953   3.116   0.397   6.922  0.3523  0.6123 -1.1387
 2352SOL     OW 7954   6.538   1.618   4.714 -0.0750 -0.5209 -0.0146
 2352SOL    HW1 7955   6.493   1.535   4.747 -2.4602  0.2015 -1.1868
 2352SOL    HW2 7956   6.489   1.653   4.634  1.9073  1.0762 -0.6335
 2353SOL     OW 7957   3.152   6.256   5.567  0.1478 -0.6747 -0.7198
 2353SOL    HW1 7958   3.163   6.181   5.502 -0.7800 -1.2381 -0.2506
 2353SOL    HW2 7959   3.067   6.305   5.548 -1.1428 -2.0152  1.1570
 2354SOL     OW 7960   1.575   2.236   3.731  0.1362  0.0553 -0.3502
 2354SOL    HW1 7961   1.515   2.307   3.767  0.8359  0.3524  0.2457
 2354SOL    HW2 7962   1.593   2.254   3.634  0.3793  0.7448 -0.1826
 2355SOL     OW 7963   3.337   5.721   5.536 -0.5978 -0.0107  0.2728
 2355SOL    HW1 7964   3.363   5.670   5.618 -1.0705  0.0762  0.4790
 2355SOL    HW2 7965   3.409   5.788   5.515 -0.8599  0.5669  1.1212
 2356SOL     OW 7966   1.194   2.798   0.995  0.2439 -0.0083  0.8052
 2356SOL    HW1 7967   1.210   2.849   0.911 -0.1243 -0.3091  0.5474
 2356SOL    HW2 7968   1.100   2.763   0.995  0.3418 -0.2785  1.1934
 2357SOL     OW 7969   3.035   1.049   1.046 -0.3382  0.3843  0.8597
 2357SOL    HW1 7970   3.063   1.007   1.133  0.4688 -0.7242  0.0991
 2357SOL    HW2 7971   3.008   0.977   0.982  0.5287  1.0665 -0.3126
 2358SOL     OW 7972   4.658   5.241   5.623  1.1071 -0.2012 -0.1935
 2358SOL    HW1 7973   4.740   5.264   5.571  0.3312  0.7177 -1.0531
 2358SOL    HW2 7974   4.577   5.265   5.569  0.2696  0.6322  1.3697
 2359SOL     OW 7975   3.148   3.282   5.675 -0.2945  0.3724  0.3606
 2359SOL    HW1 7976   3.182   3.327   5.593 -0.3357 -3.2747 -1.8328
 2359SOL    HW2 7977   3.056   3.316   5.696 -1.7102 -0.8186 -3.1563
 2360SOL     OW 7978   5.033   2.254   0.885  0.3651  0.1140 -0.4360
 2360SOL    HW1 7979   5.130   2.256   0.908  0.6967 -0.0385 -1.7800
 2360SOL    HW2 7980   4.990   2.339   0.917  0.9946  0.3086 -0.0913
 2361SOL     OW 7981   3.286   1.090   0.164 -0.4363  0.0404  0.1068
 2361SOL    HW1 7982   3.291   1.002   0.116 -0.4711 -0.2907  0.6874
 2361SOL    HW2 7983   3.342   1.086   0.247 -0.3001  0.6300  0.0462
 2362SOL     OW 7984   2.177   4.436   3.636 -0.0598 -1.0932  0.6540
 2362SOL    HW1 7985   2.179   4.533   3.613  0.6729 -0.9392  1.3112
 2362SOL    HW2 7986   2.111   4.420   3.708 -0.4956 -1.1581  0.2444
 2363SOL     OW 7987   2.866   0.465   2.567 -0.1403 -0.2941  0.2843
 2363SOL    HW1 7988   2.813   0.466   2.652 -2.2292  2.1664 -0.8824
 2363SOL    HW2 7989   2.804   0.456   2.489  1.4846 -0.2203 -1.0838
 2364SOL     OW 7990   1.319   2.594   4.467  0.0165  0.2131 -0.1752
 2364SOL    HW1 7991   1.403   2.616   4.517 -0.2657 -1.0628  0.9189
 2364SOL    HW2 7992   1.287   2.675   4.418  0.5109  1.4229  1.4121
 2365SOL     OW 7993   4.943   2.792   1.220 -0.0922  0.6361 -0.8754
 2365SOL    HW1 7994   4.997   2.875   1.236  0.6652  0.2595 -1.4656
 2365SOL    HW2 7995   4.953   2.731   1.299 -1.2304  1.3989 -0.1106
 2366SOL     OW 7996   5.522   4.124   6.366  0.1292  0.2902 -0.1889
 2366SOL    HW1 7997   5.473   4.194   6.418  1.3664 -0.6315  2.4065
 2366SOL    HW2 7998   5.603   4.095   6.417  0.2590 -2.2739 -1.6518
 2367SOL     OW 7999   3.068   2.569   0.008 -0.4466 -0.0312  0.2723
 2367SOL    HW1 8000   3.064   2.506   0.086 -0.7037 -1.7658 -1.0830
 2367SOL    HW2 8001   3.002   2.541  -0.061  2.5540 -1.1244 -2.3809
 2368SOL     OW 8002   5.972   4.917   0.510 -0.5489 -0.5989  0.0818
 2368SOL    HW1 8003   5.939   4.965   0.429 -0.3008  2.0962  1.4675
 2368SOL    HW2 8004   5.894   4.876   0.558 -0.6484 -2.6172 -1.6650
 2369SOL     OW 8005   1.759   0.821   2.795  0.4166  0.3535 -1.0696
 2369SOL    HW1 8006   1.707   0.898   2.757  0.3638  0.2987 -1.1089
 2369SOL    HW2 8007   1.798   0.847   2.883  3.1679  1.5768 -2.5388
 2370SOL     OW 8008   5.826   2.389   0.641  0.0641  0.0181  0.4389
 2370SOL    HW1 8009   5.845   2.404   0.738 -1.2895  3.2312  0.3597
 2370SOL    HW2 8010   5.911   2.398   0.589  0.8669 -2.1387  1.3057
 2371SOL     OW 8011   1.052   6.052   3.146 -0.5172 -0.4569 -0.3661
 2371SOL    HW1 8012   0.996   6.007   3.215  0.4318 -1.4246 -0.2027
 2371SOL    HW2 8013   1.043   6.152   3.154 -0.8534 -0.5754  0.7683
 2372SOL     OW 8014   6.332   0.927   2.427 -0.0607 -0.2222 -0.0868
 2372SOL    HW1 8015   6.363   0.899   2.517  0.8637  0.7272 -0.0840
 2372SOL    HW2 8016   6.389   1.002   2.394  1.8133 -2.6723 -2.8850
 2373SOL     OW 8017   1.633   4.174   6.370  0.1897 -0.2005  0.2743
 2373SOL    HW1 8018   1.637   4.092   6.426  0.5640  0.6463  1.5218
 2373SOL    HW2 8019   1.699   4.167   6.295  2.0411 -0.0011  1.8257
 2374SOL     OW 8020   4.819   1.853   4.751  0.0899 -0.1244 -0.2315
 2374SOL    HW1 8021   4.855   1.760   4.744  0.0042 -0.1541 -0.2814
 2374SOL    HW2 8022   4.882   1.916   4.706 -0.2108 -0.2526 -0.8567
 2375SOL     OW 8023   1.946   0.405   0.165 -0.4982  0.4191  0.2793
 2375SOL    HW1 8024   2.006   0.430   0.241  0.9199 -1.7126 -0.0403
 2375SOL    HW2 8025   1.914   0.488   0.119 -0.2481  1.7000  2.3079
 2376SOL     OW 8026   1.200   2.570   3.595  0.3896  0.4764 -0.0025
 2376SOL    HW1 8027   1.144   2.653   3.588  1.6758  1.3831  0.0769
 2376SOL    HW2 8028   1.224   2.539   3.503  1.2694  1.1615 -0.0136
 2377SOL     OW 8029   3.910   3.932   4.618  0.2045 -0.2625  0.0434
 2377SOL    HW1 8030   3.815   3.908   4.635 -0.2706  1.4596  0.0913
 2377SOL    HW2 8031   3.951   3.966   4.702 -0.3319  2.5663 -0.7175
 2378SOL     OW 8032   5.513   1.831   0.219  0.0526 -0.0216 -0.4677
 2378SOL    HW1 8033   5.547   1.742   0.248 -2.2317 -1.1463 -1.0267
 2378SOL    HW2 8034   5.445   1.865   0.285  1.0104  1.4278 -0.1687
 2379SOL     OW 8035   1.683   0.330   5.222 -0.3707  0.0667 -0.1432
 2379SOL    HW1 8036   1.707   0.411   5.169  0.4814 -1.2375 -1.8607
 2379SOL    HW2 8037   1.590   0.301   5.198  0.0348 -0.5563 -1.0466
 2380SOL     OW 8038   5.097   2.152   4.203  0.0661  0.1828  0.5383
 2380SOL    HW1 8039   5.179   2.141   4.258  0.7266  0.1481 -0.4324
 2380SOL    HW2 8040   5.120   2.144   4.106 -0.7769  1.9519  0.1522
 2381SOL     OW 8041   1.569   5.431   3.045 -0.4758 -0.5100 -0.4816
 2381SOL    HW1 8042   1.639   5.377   2.998  0.3053 -0.7152  0.8613
 2381SOL    HW2 8043   1.606   5.468   3.130 -2.1409 -1.0043  0.5108
 2382SOL     OW 8044   1.250   0.643   6.051 -0.8070  0.1575  0.4265
 2382SOL    HW1 8045   1.290   0.606   5.968 -0.7998  1.3705 -0.1309
 2382SOL    HW2 8046   1.316   0.635   6.126 -0.7523 -0.7822  0.2869
 2383SOL     OW 8047   4.963   3.663   2.702  0.1889  0.3357 -0.0575
 2383SOL    HW1 8048   4.934   3.670   2.607  2.8492  3.1070 -0.8320
 2383SOL    HW2 8049   4.925   3.739   2.755 -1.4952 -1.3318  1.2505
 2384SOL     OW 8050   3.631   1.789   1.722 -0.1484  0.2314  0.5298
 2384SOL    HW1 8051   3.623   1.697   1.761 -1.9839  0.0953 -0.0998
 2384SOL    HW2 8052   3.615   1.857   1.793  1.1557  0.1040  0.9838
 2385SOL     OW 8053   1.024   5.299   6.862  0.1852 -0.8772  0.2508
 2385SOL    HW1 8054   1.056   5.271   6.771 -0.9887  1.2733 -0.9033
 2385SOL    HW2 8055   1.101   5.301   6.926  1.4435 -0.4470 -1.2243
 2386SOL     OW 8056   2.877   5.456   2.588 -0.5842 -0.0030 -0.0937
 2386SOL    HW1 8057   2.923   5.386   2.643 -1.4528 -0.1084  0.5278
 2386SOL    HW2 8058   2.813   5.411   2.525 -1.2165  0.2245  0.3760
 2387SOL     OW 8059   0.221   3.427   4.625  0.1910 -0.1872  0.1888
 2387SOL    HW1 8060   0.168   3.461   4.703  0.6848  1.7500 -0.2846
 2387SOL    HW2 8061   0.283   3.355   4.656 -2.5363 -2.4513  0.7921
 2388SOL     OW 8062   5.678   1.084   4.582 -0.3269 -0.0204  0.0896
 2388SOL    HW1 8063   5.636   1.154   4.640 -1.7497  1.0100 -2.0738
 2388SOL    HW2 8064   5.763   1.119   4.543 -1.0189  0.5276 -0.9614
 2389SOL     OW 8065   3.322   5.891   1.911 -0.4223  0.0278  0.3472
 2389SOL    HW1 8066   3.371   5.814   1.952 -1.1747 -0.3697  0.5237
 2389SOL    HW2 8067   3.282   5.862   1.824 -1.2564  0.0174  0.7206
 2390SOL     OW 8068   4.262   5.572   5.067  0.3159 -0.3560  0.0800
 2390SOL    HW1 8069   4.329   5.646   5.082 -0.0207  0.0611 -0.4664
 2390SOL    HW2 8070   4.296   5.511   4.995 -0.1748  0.2100 -0.6405
 2391SOL     OW 8071   3.087   0.303   3.985 -0.3012  0.2600 -0.6451
 2391SOL    HW1 8072   3.088   0.402   3.977 -1.8834  0.2569 -1.3446
 2391SOL    HW2 8073   3.007   0.266   3.937 -0.5836 -1.2291  0.8381
 2392SOL     OW 8074   3.206   5.950   5.486  0.2984 -0.1457 -0.0977
 2392SOL    HW1 8075   3.108   5.958   5.468  0.4282  0.2090 -0.6554
 2392SOL    HW2 8076   3.229   5.853   5.500 -0.1505 -0.2174  0.1861
 2393SOL     OW 8077   3.898   3.969   5.686 -0.1818  0.1205  0.7720
 2393SOL    HW1 8078   3.988   3.937   5.655 -0.3912 -0.7702  1.0661
 2393SOL    HW2 8079   3.826   3.913   5.644 -0.6012  0.7423  0.6423
 2394SOL     OW 8080   0.943   5.413   2.593  0.5066 -0.2598 -0.3480
 2394SOL    HW1 8081   0.846   5.403   2.615  0.6716 -2.2006 -0.3080
 2394SOL    HW2 8082   0.991   5.450   2.673 -0.4123  2.4866 -0.9559
 2395SOL     OW 8083   3.974   6.383   6.784 -0.6290  0.4529 -0.5705
 2395SOL    HW1 8084   3.931   6.408   6.697 -0.4260  1.1374 -0.4829
 2395SOL    HW2 8085   4.067   6.352   6.767  0.4154  3.1721 -0.4143
 2396SOL     OW 8086   4.387   6.600   2.738  0.7495  0.9096  0.7340
 2396SOL    HW1 8087   4.397   6.500   2.736 -3.2633  0.3126  1.2763
 2396SOL    HW2 8088   4.406   6.633   2.831 -1.2966  0.0533  1.5098
 2397SOL     OW 8089   1.643   3.686   5.698  0.3309 -0.1948  0.0529
 2397SOL    HW1 8090   1.737   3.721   5.695 -0.1491  1.3473  1.4752
 2397SOL    HW2 8091   1.590   3.726   5.624  0.5563 -0.3531 -0.1979
 2398SOL     OW 8092   5.557   4.571   4.930  0.3035 -0.4045  0.2340
 2398SOL    HW1 8093   5.619   4.616   4.994 -0.1834 -0.9510  1.0990
 2398SOL    HW2 8094   5.588   4.478   4.912  1.1868  0.1502 -1.3887
 2399SOL     OW 8095   4.360   4.129   0.511 -0.4641 -0.5089 -0.3970
 2399SOL    HW1 8096   4.419   4.102   0.435  0.9504  2.9455 -0.7422
 2399SOL    HW2 8097   4.415   4.136   0.595 -0.6378  1.2802 -0.3914
 2400SOL     OW 8098   0.574   4.893   1.497 -0.1509  0.1961  0.7422
 2400SOL    HW1 8099   0.650   4.868   1.557 -1.6454 -1.4289  2.0583
 2400SOL    HW2 8100   0.565   4.826   1.424  0.6106  1.2642 -0.3948
 2401SOL     OW 8101   5.096   0.054   0.339  0.3619  0.1130 -0.5688
 2401SOL    HW1 8102   5.193   0.063   0.315  0.6751  0.1977  0.6799
 2401SOL    HW2 8103   5.087   0.003   0.425 -0.5412  2.1814  0.6405
 2402SOL     OW 8104   7.014   6.088   4.046  0.4982  0.2968  0.1191
 2402SOL    HW1 8105   7.038   6.185   4.056  0.4515  0.2395  0.8229
 2402SOL    HW2 8106   6.918   6.075   4.071  0.1930  0.2474 -1.0471
 2403SOL     OW 8107   1.619   1.584   3.786  0.2007 -0.1779  0.0897
 2403SOL    HW1 8108   1.675   1.515   3.832 -0.3966 -1.1266 -0.5599
 2403SOL    HW2 8109   1.605   1.662   3.846  1.3125 -0.4085  0.6555
 2404SOL     OW 8110   1.907   5.117   6.718 -0.4973 -0.1719 -0.0242
 2404SOL    HW1 8111   1.905   5.048   6.645 -1.4582  0.4288 -0.5881
 2404SOL    HW2 8112   1.901   5.071   6.806  2.5061 -1.0518 -0.1671
 2405SOL     OW 8113   2.464   4.867   1.812 -0.3228  0.1089  0.5491
 2405SOL    HW1 8114   2.552   4.858   1.859 -0.4548 -1.0557  0.6053
 2405SOL    HW2 8115   2.394   4.898   1.877  0.5679  3.9106 -0.0901
 2406SOL     OW 8116   4.099   0.198   3.468  0.4534 -0.3071  0.0728
 2406SOL    HW1 8117   4.183   0.180   3.416  0.8175 -0.0132  0.5539
 2406SOL    HW2 8118   4.073   0.294   3.455  2.0226  0.5306  2.5097
 2407SOL     OW 8119   4.725   1.185   3.311 -0.3765 -0.2095 -0.1094
 2407SOL    HW1 8120   4.763   1.169   3.402 -1.5257  0.7422  0.5850
 2407SOL    HW2 8121   4.768   1.266   3.271 -0.6513  0.0414  0.0879
 2408SOL     OW 8122   2.695   5.037   3.880  0.4152 -0.0177  0.0948
 2408SOL    HW1 8123   2.643   5.102   3.934  0.3693  0.1307 -0.1274
 2408SOL    HW2 8124   2.772   5.084   3.837  0.2589 -0.0661 -0.2366
 2409SOL     OW 8125   1.940   4.829   0.594 -0.0645  0.4816  0.3794
 2409SOL    HW1 8126   1.996   4.887   0.535  1.0761 -0.2151  0.7406
 2409SOL    HW2 8127   1.986   4.742   0.609 -1.1205 -0.0026  0.9376
 2410SOL     OW 8128   3.503   3.721   3.266 -0.3116 -0.6826  0.0108
 2410SOL    HW1 8129   3.516   3.746   3.362 -2.6651  2.3839 -0.3067
 2410SOL    HW2 8130   3.418   3.671   3.255 -0.5158 -0.2359 -0.5432
 2411SOL     OW 8131   4.168   6.377   6.000 -0.0901  0.3310  0.0118
 2411SOL    HW1 8132   4.231   6.312   6.044  0.8841  1.1161 -0.1916
 2411SOL    HW2 8133   4.135   6.442   6.069  0.6386  0.9364 -0.1978
 2412SOL     OW 8134   4.809   2.645   0.835  0.4637 -0.1288 -0.2280
 2412SOL    HW1 8135   4.833   2.721   0.896 -0.3356  0.1408 -0.2260
 2412SOL    HW2 8136   4.870   2.568   0.850 -1.0179 -0.9089  2.5010
 2413SOL     OW 8137   3.490   1.664   3.580 -0.0627  0.2956 -0.4454
 2413SOL    HW1 8138   3.581   1.632   3.603  0.0411 -0.3860 -1.6920
 2413SOL    HW2 8139   3.479   1.665   3.480 -1.9796 -1.3048 -0.3102
 2414SOL     OW 8140   4.480   1.018   4.304 -0.4385  0.2425 -0.2452
 2414SOL    HW1 8141   4.383   1.043   4.300 -0.4010  0.2876 -1.0092
 2414SOL    HW2 8142   4.533   1.080   4.245  0.0985  0.4173  0.4096
 2415SOL     OW 8143   4.085   5.589   4.411 -0.2502 -0.2561  0.2656
 2415SOL    HW1 8144   4.060   5.645   4.332  0.6541  0.1902  0.2801
 2415SOL    HW2 8145   4.072   5.642   4.495 -1.5609 -0.8525  0.4585
 2416SOL     OW 8146   1.253   1.576   0.833 -0.5189 -0.1422  0.1741
 2416SOL    HW1 8147   1.188   1.618   0.770 -1.9352 -0.4611  1.3416
 2416SOL    HW2 8148   1.298   1.647   0.888  1.0161  0.1658 -1.3995
 2417SOL     OW 8149   2.177   3.199   5.854  0.0657  0.0263 -0.2067
 2417SOL    HW1 8150   2.208   3.190   5.759  3.6046 -1.2008  0.8963
 2417SOL    HW2 8151   2.119   3.121   5.877  0.4464 -0.4894 -0.9462
 2418SOL     OW 8152   3.049   2.846   1.718  0.6216  0.4906  0.0400
 2418SOL    HW1 8153   3.067   2.795   1.634  0.0010 -2.2967  1.4783
 2418SOL    HW2 8154   3.129   2.840   1.778  1.0479  2.4275 -0.2840
 2419SOL     OW 8155   6.500   0.236   4.545 -0.3501  0.2763 -0.2582
 2419SOL    HW1 8156   6.436   0.240   4.622 -1.2379  1.4259 -1.0159
 2419SOL    HW2 8157   6.494   0.147   4.501 -1.9560  0.5745 -0.7098
 2420SOL     OW 8158   2.719   0.953   1.917 -0.4304 -0.0221 -0.5035
 2420SOL    HW1 8159   2.740   1.021   1.846 -0.6522  1.5706  0.8925
 2420SOL    HW2 8160   2.786   0.879   1.914  0.3908  0.7456 -1.4633
 2421SOL     OW 8161   5.500   1.527   2.632 -0.0881  0.2324  0.1653
 2421SOL    HW1 8162   5.417   1.524   2.687  0.5631 -0.7554  1.1264
 2421SOL    HW2 8163   5.480   1.572   2.545 -2.5698 -2.8954 -1.1107
 2422SOL     OW 8164   4.505   1.407   0.750  0.4498  0.1579 -0.0136
 2422SOL    HW1 8165   4.603   1.407   0.733  0.3491 -0.4855 -0.6390
 2422SOL    HW2 8166   4.456   1.402   0.662 -0.1635  1.4603  0.2196
 2423SOL     OW 8167   1.616   5.731   2.894 -0.0982  0.1734  0.0633
 2423SOL    HW1 8168   1.614   5.743   2.795 -1.6831 -0.6240 -0.0280
 2423SOL    HW2 8169   1.534   5.682   2.924 -0.2060  1.3765  1.9033
 2424SOL     OW 8170   0.724   6.927   0.710  0.4021 -0.1761 -0.1393
 2424SOL    HW1 8171   0.788   6.933   0.633  0.1487 -0.6808 -0.3938
 2424SOL    HW2 8172   0.662   6.850   0.696 -1.4893  1.4099 -0.7976
 2425SOL     OW 8173   5.801   6.531   4.518 -0.3422 -0.4254  0.0759
 2425SOL    HW1 8174   5.879   6.590   4.497 -1.7982  3.2942  3.8688
 2425SOL    HW2 8175   5.752   6.509   4.433  1.9291  1.4060 -1.8413
 2426SOL     OW 8176   5.498   6.104   4.288  0.1736 -0.3673  0.8039
 2426SOL    HW1 8177   5.572   6.037   4.284 -0.4484 -1.0370  0.1928
 2426SOL    HW2 8178   5.490   6.150   4.199  1.3076  1.3421  1.5238
 2427SOL     OW 8179   6.438   1.550   5.578  0.3310  0.2866  0.0563
 2427SOL    HW1 8180   6.390   1.476   5.624 -0.8429  1.0881  0.1880
 2427SOL    HW2 8181   6.446   1.628   5.641  1.3239  0.3558 -0.1541
 2428SOL     OW 8182   5.675   2.690   0.387 -0.4658  0.6924 -0.1781
 2428SOL    HW1 8183   5.666   2.680   0.487 -3.4326  0.1221 -0.4062
 2428SOL    HW2 8184   5.660   2.785   0.361 -2.8246  0.3504 -0.2505
 2429SOL     OW 8185   3.824   4.994   2.889  0.1105  0.7695 -0.4659
 2429SOL    HW1 8186   3.923   4.987   2.878  0.3794  1.9531  0.8908
 2429SOL    HW2 8187   3.778   4.956   2.808  1.6271 -0.7800 -0.6462
 2430SOL     OW 8188   5.513   6.558   1.867 -0.4478  0.0998  0.6876
 2430SOL    HW1 8189   5.424   6.589   1.835 -0.1306  1.5518  1.1315
 2430SOL    HW2 8190   5.582   6.574   1.797 -0.5189 -1.0447  0.3343
 2431SOL     OW 8191   5.175   0.874   0.825 -0.4893 -0.2904  0.0363
 2431SOL    HW1 8192   5.094   0.821   0.847 -0.5870 -0.5666 -0.9586
 2431SOL    HW2 8193   5.181   0.888   0.727  0.2049  0.4778  0.1722
 2432SOL     OW 8194   1.393   4.614   2.628 -0.0575  0.0015 -0.1149
 2432SOL    HW1 8195   1.417   4.577   2.538 -0.3317 -1.0230  0.2110
 2432SOL    HW2 8196   1.475   4.649   2.673  0.0881  0.4645 -0.7381
 2433SOL     OW 8197   5.665   6.450   1.022 -0.2843 -0.1936  0.3601
 2433SOL    HW1 8198   5.666   6.547   0.999  0.0233 -0.4331 -0.6935
 2433SOL    HW2 8199   5.571   6.415   1.014 -0.2823 -0.1338  0.0729
 2434SOL     OW 8200   3.606   2.226   5.448 -0.4736  1.0320 -0.1696
 2434SOL    HW1 8201   3.580   2.149   5.507  1.6810  0.3256 -0.0512
 2434SOL    HW2 8202   3.545   2.229   5.369 -0.9221 -0.4889  0.0768
 2435SOL     OW 8203   3.945   6.191   4.363  0.1381  0.1776 -0.3723
 2435SOL    HW1 8204   3.873   6.224   4.302  0.2503 -0.9610 -1.1712
 2435SOL    HW2 8205   3.918   6.102   4.401 -0.5282  1.4427  2.3556
 2436SOL     OW 8206   3.237   3.758   1.477 -0.1321 -0.2884  0.0730
 2436SOL    HW1 8207   3.206   3.804   1.393 -0.3786 -0.7796 -0.1105
 2436SOL    HW2 8208   3.185   3.793   1.555  1.2866  1.4318  0.2987
 2437SOL     OW 8209   0.621   0.413   4.990 -0.7362  0.4784 -0.2411
 2437SOL    HW1 8210   0.533   0.450   4.961  0.5611  2.6874 -1.6950
 2437SOL    HW2 8211   0.685   0.414   4.912  1.7434  2.8791  1.6115
 2438SOL     OW 8212   4.405   3.696   6.680 -0.2432  0.2943 -0.0315
 2438SOL    HW1 8213   4.345   3.672   6.604  1.9195  1.2684 -2.1981
 2438SOL    HW2 8214   4.350   3.717   6.761 -2.5733 -2.6996 -0.6768
 2439SOL     OW 8215   4.738   5.229   5.162 -0.0916 -0.3078  0.2264
 2439SOL    HW1 8216   4.802   5.187   5.227  0.6824 -0.7699 -0.7939
 2439SOL    HW2 8217   4.708   5.317   5.196 -0.1266 -0.7780  1.4574
 2440SOL     OW 8218   6.806   5.022   4.440 -0.2992 -0.3580  0.1995
 2440SOL    HW1 8219   6.838   5.046   4.348  0.6978 -0.6292  0.4552
 2440SOL    HW2 8220   6.885   5.015   4.501 -0.1636 -5.6636 -0.1476
 2441SOL     OW 8221   5.974   2.866   1.530 -0.2517 -0.1706  0.2539
 2441SOL    HW1 8222   5.976   2.953   1.580 -0.0177 -0.8259  1.4103
 2441SOL    HW2 8223   6.001   2.882   1.435  2.5406  0.6234  1.0918
 2442SOL     OW 8224   0.796   4.050   4.836  0.0561 -0.1108 -0.0773
 2442SOL    HW1 8225   0.852   4.122   4.876  0.2363 -0.6115  0.5835
 2442SOL    HW2 8226   0.853   3.970   4.818 -0.2815 -0.3313 -0.1693
 2443SOL     OW 8227   5.635   3.482   0.629 -0.0830 -0.6142  0.2200
 2443SOL    HW1 8228   5.637   3.576   0.595  0.0915 -0.9094 -0.6190
 2443SOL    HW2 8229   5.710   3.469   0.695 -0.8250  0.1483  1.2503
 2444SOL     OW 8230   1.824   2.983   1.357  0.1885 -0.3575 -0.0597
 2444SOL    HW1 8231   1.827   3.025   1.266 -0.9743 -3.1015 -1.4834
 2444SOL    HW2 8232   1.901   2.919   1.367 -0.2460 -0.8124  0.4689
 2445SOL     OW 8233   0.994   0.920   1.312 -0.4135  0.5196  0.6250
 2445SOL    HW1 8234   1.026   0.846   1.253 -1.4577  0.0777  0.5898
 2445SOL    HW2 8235   0.896   0.910   1.327 -0.6675  2.1659  0.2404
 2446SOL     OW 8236   5.111   3.181   6.312  0.7626  0.0671 -0.1681
 2446SOL    HW1 8237   5.064   3.213   6.229 -0.6004 -2.4881 -0.5140
 2446SOL    HW2 8238   5.204   3.153   6.289  0.3318 -0.8038 -0.9226
 2447SOL     OW 8239   0.260   3.745   6.693 -0.4130  0.1074  0.3800
 2447SOL    HW1 8240   0.220   3.723   6.782  0.6792 -1.5282  0.4993
 2447SOL    HW2 8241   0.317   3.669   6.662  0.1277  1.1135 -1.2110
 2448SOL     OW 8242   6.975   5.434   6.382  0.3719 -0.1008  0.8215
 2448SOL    HW1 8243   6.905   5.441   6.312 -0.0229 -0.2127  1.1984
 2448SOL    HW2 8244   7.037   5.512   6.376 -1.0790  1.1918  1.8642
 2449SOL     OW 8245   0.085   1.887   6.229  0.5076 -0.0917 -0.1217
 2449SOL    HW1 8246   0.160   1.874   6.164  1.2630  0.6593  0.5662
 2449SOL    HW2 8247   0.111   1.849   6.318 -0.2221 -0.4616 -0.0581
 2450SOL     OW 8248   2.286   2.842   6.760 -0.5977 -0.0720  0.3853
 2450SOL    HW1 8249   2.248   2.758   6.720 -1.1930  0.2307  0.3060
 2450SOL    HW2 8250   2.213   2.909   6.774 -0.1107  0.4875  0.3197
 2451SOL     OW 8251   0.664   4.839   3.262  0.1806 -0.6873 -0.3524
 2451SOL    HW1 8252   0.754   4.796   3.265  0.7825  0.3917 -1.8490
 2451SOL    HW2 8253   0.672   4.936   3.285 -0.5256 -0.4714 -0.9740
 2452SOL     OW 8254   4.679   2.216   4.198  0.3015 -0.0895  0.3016
 2452SOL    HW1 8255   4.654   2.126   4.234 -0.9252 -0.0962 -0.5154
 2452SOL    HW2 8256   4.748   2.258   4.257  1.6750 -1.9988  0.1315
 2453SOL     OW 8257   1.448   3.631   1.102  0.2727 -0.5655  0.0404
 2453SOL    HW1 8258   1.537   3.663   1.069  1.0485 -2.8074 -0.2862
 2453SOL    HW2 8259   1.404   3.576   1.030 -0.7801 -0.5851  0.6690
 2454SOL     OW 8260   6.877   5.637   1.671 -0.3456  0.0007 -0.4176
 2454SOL    HW1 8261   6.914   5.648   1.763  0.3894  0.2236 -0.7400
 2454SOL    HW2 8262   6.777   5.649   1.674 -0.1898  1.3649  0.1274
 2455SOL     OW 8263   0.778   2.598   6.874  0.1241 -0.1406 -0.1418
 2455SOL    HW1 8264   0.725   2.575   6.956  0.6642 -0.1333  0.2135
 2455SOL    HW2 8265   0.873   2.615   6.900  0.3850 -0.5339 -0.8221
 2456SOL     OW 8266   2.894   6.154   4.964 -0.3839  0.1602  0.5152
 2456SOL    HW1 8267   2.895   6.054   4.961  0.0341  0.1685  0.3076
 2456SOL    HW2 8268   2.956   6.185   5.036  3.4639  0.3572 -2.5211
 2457SOL     OW 8269   6.190   4.290   6.593 -0.2556 -0.0480  0.2884
 2457SOL    HW1 8270   6.115   4.304   6.528  0.4818 -0.8405 -0.7551
 2457SOL    HW2 8271   6.211   4.376   6.638 -2.2728  0.0596  1.1601
 2458SOL     OW 8272   0.685   0.597   2.692  0.3116 -0.0324 -0.3618
 2458SOL    HW1 8273   0.598   0.566   2.652 -0.5921  1.2532  0.5063
 2458SOL    HW2 8274   0.755   0.599   2.621 -0.0321 -2.2033 -0.8400
 2459SOL     OW 8275   0.932   2.074   6.640 -0.4244 -0.0489  0.1263
 2459SOL    HW1 8276   1.020   2.113   6.613 -0.6425  0.2074 -0.2120
 2459SOL    HW2 8277   0.881   2.141   6.693 -0.4108 -0.2078  0.3466
 2460SOL     OW 8278   1.213   2.483   0.407 -0.1903 -0.0303 -0.4332
 2460SOL    HW1 8279   1.296   2.460   0.357  0.2120 -1.2416  0.7220
 2460SOL    HW2 8280   1.224   2.458   0.504 -2.5838 -2.1838 -0.5996
 2461SOL     OW 8281   5.310   5.966   0.610  0.0561 -0.3597  0.3059
 2461SOL    HW1 8282   5.309   6.055   0.656  0.4744  0.5030 -1.2932
 2461SOL    HW2 8283   5.336   5.978   0.515 -1.5816 -1.9982 -0.4068
 2462SOL     OW 8284   2.949   4.205   6.818  0.1432 -0.2469  0.1474
 2462SOL    HW1 8285   2.899   4.289   6.799  0.5863 -0.6827 -3.5662
 2462SOL    HW2 8286   3.020   4.223   6.886 -0.8343  1.8914  0.6963
 2463SOL     OW 8287   1.621   2.655   6.000  0.0345 -0.5129 -0.2262
 2463SOL    HW1 8288   1.700   2.595   5.990  1.7002  1.5816 -0.4549
 2463SOL    HW2 8289   1.575   2.664   5.912  1.0068  0.1115 -0.6911
 2464SOL     OW 8290   6.489   4.020   2.053  0.1186 -0.5609 -0.5152
 2464SOL    HW1 8291   6.487   4.079   2.134 -0.3930  0.2487 -1.0918
 2464SOL    HW2 8292   6.423   3.946   2.064 -2.0231  1.1298 -1.3005
 2465SOL     OW 8293   0.332   4.733   2.692 -0.0726 -0.1919  0.3538
 2465SOL    HW1 8294   0.388   4.752   2.772 -1.0671 -1.8218  1.5131
 2465SOL    HW2 8295   0.249   4.685   2.721 -1.2427  0.6161 -1.4938
 2466SOL     OW 8296   4.322   6.700   6.714 -0.1079 -0.4945  0.8247
 2466SOL    HW1 8297   4.226   6.727   6.722  0.0939  0.0704  1.3907
 2466SOL    HW2 8298   4.336   6.611   6.758 -0.6646 -1.3308 -0.5884
 2467SOL     OW 8299   1.666   1.064   4.228  0.7174 -0.3151 -0.5806
 2467SOL    HW1 8300   1.582   1.119   4.224  0.3940 -0.8650 -1.6813
 2467SOL    HW2 8301   1.690   1.048   4.323  0.5961  1.3806 -0.2238
 2468SOL     OW 8302   6.426   3.013   6.641  0.2287  1.2369  0.0827
 2468SOL    HW1 8303   6.460   2.930   6.599  2.4775  2.3252 -0.3754
 2468SOL    HW2 8304   6.460   3.020   6.735 -0.1966  1.4831  0.2230
 2469SOL     OW 8305   2.014   2.782   1.414  0.0365 -0.2040  0.0282
 2469SOL    HW1 8306   2.070   2.788   1.332 -1.3252  1.0421 -0.8737
 2469SOL    HW2 8307   2.040   2.702   1.467  0.4807 -1.4620 -1.9931
 2470SOL     OW 8308   4.785   3.295   6.960 -0.5240 -0.3627  0.0568
 2470SOL    HW1 8309   4.711   3.232   6.982  0.0527 -0.3524  2.3205
 2470SOL    HW2 8310   4.816   3.340   7.044  0.7527  1.0906 -1.1254
 2471SOL     OW 8311   6.473   1.007   3.455 -0.2073  0.3054 -0.0469
 2471SOL    HW1 8312   6.542   0.973   3.519  1.7762 -0.1815 -2.3128
 2471SOL    HW2 8313   6.402   0.938   3.443  1.7923 -1.6225 -1.7069
 2472SOL     OW 8314   5.880   0.325   5.092 -0.1008 -0.6502 -0.3160
 2472SOL    HW1 8315   5.896   0.227   5.084  2.0966 -0.4104  0.4976
 2472SOL    HW2 8316   5.838   0.345   5.181  1.3525 -0.7081  0.4192
 2473SOL     OW 8317   0.656   5.072   3.490 -0.0665 -0.1493  0.4378
 2473SOL    HW1 8318   0.606   5.018   3.557  1.0578 -0.1536  1.2923
 2473SOL    HW2 8319   0.616   5.164   3.485 -0.8456 -0.4867  0.2946
 2474SOL     OW 8320   5.600   1.083   4.274 -0.2139  0.0821  0.4677
 2474SOL    HW1 8321   5.543   1.024   4.332 -0.0120  0.0181  0.6017
 2474SOL    HW2 8322   5.626   1.165   4.325 -0.7064  0.4105  0.1939
 2475SOL     OW 8323   5.105   2.817   0.652 -0.0536 -0.0094  0.9140
 2475SOL    HW1 8324   5.141   2.859   0.735  1.1527 -0.1767  0.4990
 2475SOL    HW2 8325   5.008   2.795   0.665 -0.0684  0.6267  2.0070
 2476SOL     OW 8326   1.469   1.842   3.134 -0.3435  0.7547 -0.1192
 2476SOL    HW1 8327   1.487   1.815   3.039  0.9153 -2.1049  0.8256
 2476SOL    HW2 8328   1.372   1.829   3.155 -0.2743 -0.4990 -0.5070
 2477SOL     OW 8329   5.558   2.789   2.110 -0.2790  0.0162 -0.6262
 2477SOL    HW1 8330   5.476   2.785   2.167 -0.3562 -1.1884 -0.8040
 2477SOL    HW2 8331   5.639   2.789   2.168 -0.3492 -1.4937 -0.4901
 2478SOL     OW 8332   6.267   6.186   2.293  0.4757  0.5485 -0.3675
 2478SOL    HW1 8333   6.168   6.174   2.300  0.4415  0.6426 -0.6457
 2478SOL    HW2 8334   6.286   6.273   2.247  0.6902  0.6131 -0.1590
 2479SOL     OW 8335   1.718   2.792   2.275  0.5968 -0.0820 -0.5454
 2479SOL    HW1 8336   1.641   2.757   2.327  1.3600 -0.2173  0.5283
 2479SOL    HW2 8337   1.803   2.777   2.326  1.3930 -0.3281 -1.8823
 2480SOL     OW 8338   5.730   5.036   0.064 -0.8494 -0.1532 -0.1743
 2480SOL    HW1 8339   5.655   4.971   0.067 -0.8969 -0.0928 -0.0612
 2480SOL    HW2 8340   5.699   5.121   0.022 -0.2198 -0.9579 -2.4069
 2481SOL     OW 8341   2.298   5.656   3.154 -0.4198  0.6712  0.3558
 2481SOL    HW1 8342   2.204   5.670   3.186 -0.5553 -1.9313  1.3204
 2481SOL    HW2 8343   2.297   5.642   3.055 -0.8399  1.9375  0.1507
 2482SOL     OW 8344   4.067   1.945   3.471  0.1103 -0.1892  0.4677
 2482SOL    HW1 8345   4.051   2.027   3.526  0.6082 -0.9340  1.7789
 2482SOL    HW2 8346   4.159   1.910   3.491 -0.6338 -1.8994  1.1053
 2483SOL     OW 8347   0.846   3.108   6.928  0.5092 -0.0308  0.2163
 2483SOL    HW1 8348   0.789   3.026   6.920 -0.4240  0.6284 -0.1531
 2483SOL    HW2 8349   0.869   3.142   6.836  0.6517  0.2795  0.3640
 2484SOL     OW 8350   2.898   3.622   3.695  0.3729  0.0800 -0.4279
 2484SOL    HW1 8351   2.868   3.537   3.739 -2.2015  0.6732 -0.8501
 2484SOL    HW2 8352   2.936   3.684   3.763 -1.9443  0.3117  0.7333
 2485SOL     OW 8353   1.493   4.617   6.807  0.1968  0.3403  0.2896
 2485SOL    HW1 8354   1.561   4.649   6.873 -2.9215  1.1000  3.4531
 2485SOL    HW2 8355   1.419   4.684   6.800 -3.0730 -2.7701  1.6343
 2486SOL     OW 8356   0.653   5.261   2.850 -0.6230 -0.7467 -0.6535
 2486SOL    HW1 8357   0.724   5.227   2.788  0.2172  3.0646 -2.0196
 2486SOL    HW2 8358   0.567   5.273   2.800 -1.6233 -2.8879  0.3937
 2487SOL     OW 8359   3.208   0.946   1.760  0.3069  0.2057  0.0796
 2487SOL    HW1 8360   3.285   1.009   1.755  0.0526  0.4226 -2.6751
 2487SOL    HW2 8361   3.241   0.854   1.779  1.1862  0.4085 -0.4292
 2488SOL     OW 8362   2.874   5.157   0.212 -0.0340  0.3005 -0.3147
 2488SOL    HW1 8363   2.829   5.098   0.279  0.5980  0.9814  0.7158
 2488SOL    HW2 8364   2.846   5.129   0.120 -0.7547 -0.7669  0.2109
 2489SOL     OW 8365   0.074   5.438   5.906  0.0623  0.3423  0.0567
 2489SOL    HW1 8366   0.063   5.532   5.940  0.0995  0.1011  0.7588
 2489SOL    HW2 8367   0.027   5.428   5.819  1.1331  1.3653 -0.6783
 2490SOL     OW 8368   6.496   3.340   1.975  0.4188 -0.0607  0.0997
 2490SOL    HW1 8369   6.529   3.416   1.920 -1.7919  1.1537  0.3125
 2490SOL    HW2 8370   6.449   3.274   1.916 -1.2708  0.8583  0.3300
 2491SOL     OW 8371   6.971   3.483   4.117  0.2680 -0.2871  0.3103
 2491SOL    HW1 8372   6.906   3.485   4.193  2.7995 -1.8864  2.7423
 2491SOL    HW2 8373   7.033   3.561   4.124 -0.6352  0.6197 -1.3280
 2492SOL     OW 8374   4.844   3.612   6.216  0.3102 -0.1960  0.0700
 2492SOL    HW1 8375   4.771   3.666   6.258  0.0161  0.2396 -0.9797
 2492SOL    HW2 8376   4.883   3.550   6.285  0.1775  0.8307  1.1061
 2493SOL     OW 8377   0.767   1.084   6.021 -0.5507 -0.0019 -0.6934
 2493SOL    HW1 8378   0.786   0.986   6.016 -0.7478 -0.0893  0.0897
 2493SOL    HW2 8379   0.784   1.116   6.115 -0.9532  0.6099 -0.8262
 2494SOL     OW 8380   6.932   5.725   0.750 -0.1280  0.2980  0.5180
 2494SOL    HW1 8381   6.845   5.676   0.750 -0.0428 -0.0095  3.2172
 2494SOL    HW2 8382   6.978   5.711   0.838  2.4103  0.9068 -0.6288
 2495SOL     OW 8383   6.031   0.614   2.391  0.0494 -0.4814  0.1340
 2495SOL    HW1 8384   6.034   0.710   2.420 -0.4674 -0.1785 -0.7908
 2495SOL    HW2 8385   5.943   0.594   2.348  0.0891 -1.4206  0.4578
 2496SOL     OW 8386   1.918   4.478   2.885  0.0317  0.2899 -0.0525
 2496SOL    HW1 8387   1.835   4.523   2.917 -0.2454 -1.4101  1.8529
 2496SOL    HW2 8388   1.996   4.539   2.898 -0.5068  0.7561  1.1858
 2497SOL     OW 8389   0.245   0.054   5.654 -0.2974 -0.5414 -0.0748
 2497SOL    HW1 8390   0.154   0.015   5.642 -0.4984 -0.0177 -0.3064
 2497SOL    HW2 8391   0.238   0.137   5.710 -0.1148  0.1131 -1.0047
 2498SOL     OW 8392   2.320   2.830   4.039  0.0347  0.4314 -0.3477
 2498SOL    HW1 8393   2.412   2.838   4.000 -0.4600  0.7706 -1.5006
 2498SOL    HW2 8394   2.257   2.798   3.968 -0.9277  1.1893  0.1452
 2499SOL     OW 8395   4.507   5.294   0.852 -0.1076 -0.9662  0.0753
 2499SOL    HW1 8396   4.418   5.297   0.898  0.9980  0.4876  2.3041
 2499SOL    HW2 8397   4.579   5.298   0.921  1.6843 -0.6122 -1.7567
 2500SOL     OW 8398   5.755   2.915   1.216  0.2187  0.2672  0.8233
 2500SOL    HW1 8399   5.684   2.852   1.187  0.0413  0.9514 -0.3072
 2500SOL    HW2 8400   5.713   2.999   1.250  0.4664  0.3134  1.0170
 2501SOL     OW 8401   4.596   5.513   0.677 -0.0157  0.0357 -0.2374
 2501SOL    HW1 8402   4.689   5.512   0.716 -0.3501 -0.7231  0.5781
 2501SOL    HW2 8403   4.542   5.441   0.720 -1.1568  0.8419 -0.2942
 2502SOL     OW 8404   0.180   0.545   3.633 -0.2436  0.7069  0.4389
 2502SOL    HW1 8405   0.270   0.557   3.674 -0.0951 -0.5732  0.5384
 2502SOL    HW2 8406   0.190   0.537   3.534  0.0870 -1.8650  0.6083
 2503SOL     OW 8407   6.972   6.512   2.361  0.2521  0.4481 -0.0080
 2503SOL    HW1 8408   7.047   6.466   2.409 -0.7710 -2.4348 -0.9803
 2503SOL    HW2 8409   7.004   6.543   2.272  0.3229 -0.8160 -0.4390
 2504SOL     OW 8410   3.888   5.635   3.431  0.4150  0.3068 -0.2578
 2504SOL    HW1 8411   3.947   5.584   3.368  1.2117  0.6426  0.2119
 2504SOL    HW2 8412   3.941   5.664   3.511 -0.5828 -0.0984  0.5709
 2505SOL     OW 8413   5.015   2.790   4.318  0.0014 -0.2080  0.1500
 2505SOL    HW1 8414   4.942   2.858   4.314  0.4709  0.2622 -1.9643
 2505SOL    HW2 8415   5.030   2.753   4.226  1.9619 -0.7921  0.6652
 2506SOL     OW 8416   1.177   3.611   0.287  0.3425  0.0156 -0.0972
 2506SOL    HW1 8417   1.268   3.581   0.314 -0.0900  0.1061  1.5558
 2506SOL    HW2 8418   1.151   3.566   0.201  1.7542 -0.3330 -0.3679
 2507SOL     OW 8419   6.251   6.140   1.558  0.5622  0.0515  0.8507
 2507SOL    HW1 8420   6.243   6.041   1.550 -1.6991  0.1440  1.1227
 2507SOL    HW2 8421   6.223   6.183   1.472  0.4377  0.4777  1.1018
 2508SOL     OW 8422   0.978   2.764   1.299  0.0928  0.1671  0.3435
 2508SOL    HW1 8423   1.051   2.829   1.278  0.2467 -0.7387 -2.2680
 2508SOL    HW2 8424   1.017   2.680   1.335  0.2638  0.1161  0.0468
 2509SOL     OW 8425   4.466   0.884   4.547  0.5171 -0.6379  0.2640
 2509SOL    HW1 8426   4.447   0.930   4.460  0.2620 -0.4536  0.4201
 2509SOL    HW2 8427   4.478   0.952   4.619 -1.1110 -0.8491  0.7559
 2510SOL     OW 8428   5.113   6.589   2.713 -0.2288 -0.3627 -0.5428
 2510SOL    HW1 8429   5.200   6.630   2.686 -0.2077 -0.4829 -0.6614
 2510SOL    HW2 8430   5.056   6.657   2.759 -0.8397  0.2442 -2.1319
 2511SOL     OW 8431   0.003   5.458   3.565  0.0140 -0.4372 -0.1417
 2511SOL    HW1 8432  -0.028   5.514   3.643  0.5876 -0.8211  0.3706
 2511SOL    HW2 8433   0.098   5.480   3.545 -0.3313  0.1809 -1.2153
 2512SOL     OW 8434   4.971   3.424   5.177 -0.1111  0.2927  0.1029
 2512SOL    HW1 8435   4.938   3.411   5.270  0.1710  0.0478  0.1710
 2512SOL    HW2 8436   4.908   3.482   5.127 -0.6268 -0.1401  0.2392
 2513SOL     OW 8437   1.627   4.196   2.444  0.0469  0.1664  0.1428
 2513SOL    HW1 8438   1.638   4.240   2.354 -2.0420  1.2043  0.3398
 2513SOL    HW2 8439   1.566   4.117   2.435 -0.1830  0.2825  0.6336
 2514SOL     OW 8440   6.552   1.825   4.476 -0.4143  0.0691  0.0537
 2514SOL    HW1 8441   6.537   1.901   4.540  2.3430  1.5826 -0.9294
 2514SOL    HW2 8442   6.488   1.833   4.400  0.7042  2.3088 -0.7345
 2515SOL     OW 8443   6.651   4.377   5.829 -0.4920  0.1485  0.6114
 2515SOL    HW1 8444   6.599   4.403   5.910 -0.0142 -0.3428  1.0869
 2515SOL    HW2 8445   6.600   4.307   5.778 -1.4925  1.5176 -0.3431
 2516SOL     OW 8446   5.968   5.902   5.322 -0.4792  0.1842 -0.1212
 2516SOL    HW1 8447   5.910   5.824   5.348 -1.3123  0.0507 -2.1265
 2516SOL    HW2 8448   5.913   5.985   5.320 -0.3994  0.2310 -1.0826
 2517SOL     OW 8449   3.546   5.439   6.635 -0.1365  0.8415 -0.2173
 2517SOL    HW1 8450   3.631   5.491   6.644  0.8512  0.5295 -4.9366
 2517SOL    HW2 8451   3.477   5.496   6.590 -0.8502 -0.2790 -0.5942
 2518SOL     OW 8452   0.939   3.909   4.470 -0.5627 -0.3192  0.3292
 2518SOL    HW1 8453   0.950   3.829   4.412 -2.1942 -1.0985  1.0011
 2518SOL    HW2 8454   1.002   3.904   4.548  0.9365  0.2381 -0.8158
 2519SOL     OW 8455   4.979   4.618   1.716  0.5581  0.2085  0.1763
 2519SOL    HW1 8456   5.051   4.593   1.652  0.1306  0.9295 -0.6168
 2519SOL    HW2 8457   4.895   4.568   1.694  0.1377  1.1472 -0.4574
 2520SOL     OW 8458   5.383   2.546   0.944  0.1158 -0.3780  0.0685
 2520SOL    HW1 8459   5.338   2.489   0.875  1.0341 -0.6002 -0.3532
 2520SOL    HW2 8460   5.317   2.611   0.982 -1.2934 -2.4575  1.3939
 2521SOL     OW 8461   6.435   5.888   4.180  0.1495  0.0856  0.1896
 2521SOL    HW1 8462   6.477   5.959   4.124  0.5325  1.6335  2.3132
 2521SOL    HW2 8463   6.336   5.904   4.187  0.3433  0.8720  1.2659
 2522SOL     OW 8464   3.991   4.886   5.509 -0.6155 -0.1398 -0.1476
 2522SOL    HW1 8465   3.962   4.853   5.600 -1.3263  1.6167  0.2927
 2522SOL    HW2 8466   3.946   4.831   5.439 -0.9646 -0.7862  0.5577
 2523SOL     OW 8467   2.962   3.449   1.412 -0.0181 -0.1883 -0.1643
 2523SOL    HW1 8468   3.053   3.408   1.407  0.5088  1.0492 -0.8645
 2523SOL    HW2 8469   2.912   3.430   1.327 -0.8506 -1.7866  0.6259
 2524SOL     OW 8470   1.800   0.999   3.503  0.2473  0.6778  0.6341
 2524SOL    HW1 8471   1.879   0.940   3.520 -0.5546 -0.5487  0.1793
 2524SOL    HW2 8472   1.799   1.073   3.571  0.5608 -0.5614  2.0403
 2525SOL     OW 8473   2.458   4.593   2.294 -0.3009  0.8325  0.2685
 2525SOL    HW1 8474   2.456   4.494   2.279 -0.7389  0.6260  1.5405
 2525SOL    HW2 8475   2.395   4.616   2.369 -0.6725  2.1517 -0.4325
 2526SOL     OW 8476   1.077   3.768   5.245 -0.0077  0.1724 -0.0378
 2526SOL    HW1 8477   1.144   3.709   5.201  0.2184  0.8388 -0.5970
 2526SOL    HW2 8478   1.001   3.785   5.183 -0.2197  0.2301  0.2336
 2527SOL     OW 8479   5.615   1.320   4.419 -0.2117 -0.0312  0.1470
 2527SOL    HW1 8480   5.553   1.393   4.388  0.5147  1.1211  1.3089
 2527SOL    HW2 8481   5.607   1.310   4.518  1.1353 -0.1605  0.2520
 2528SOL     OW 8482   5.997   3.371   2.097 -0.6222  0.7956 -0.0380
 2528SOL    HW1 8483   5.937   3.297   2.127 -1.5050  1.7646  0.6097
 2528SOL    HW2 8484   6.091   3.349   2.123 -1.0875  0.6365  1.5738
 2529SOL     OW 8485   6.141   7.008   4.999  0.2641 -0.2282 -0.2189
 2529SOL    HW1 8486   6.208   7.073   4.962  0.1593  0.0974  0.1584
 2529SOL    HW2 8487   6.178   6.966   5.081  0.3448 -0.6757 -0.4841
 2530SOL     OW 8488   6.139   4.997   2.833 -0.4421  0.0993  0.0791
 2530SOL    HW1 8489   6.137   4.964   2.739  0.5518  1.4516 -0.4425
 2530SOL    HW2 8490   6.156   5.095   2.834 -1.5717  0.3258  1.6472
 2531SOL     OW 8491   4.954   1.401   0.168 -0.3077  0.5392  0.1136
 2531SOL    HW1 8492   4.902   1.359   0.242 -1.0559  0.3574 -0.4943
 2531SOL    HW2 8493   4.984   1.330   0.104 -3.7180  1.0037 -2.2757
 2532SOL     OW 8494   6.282   0.071   6.701 -0.1931  0.0624 -0.1253
 2532SOL    HW1 8495   6.273   0.011   6.781 -1.0036  0.5021  0.1286
 2532SOL    HW2 8496   6.247   0.025   6.620 -1.7110  0.5014  0.2379
 2533SOL     OW 8497   5.184   0.845   3.968  0.0441 -0.0331 -0.2160
 2533SOL    HW1 8498   5.143   0.766   3.921  0.8670 -0.4442 -0.2600
 2533SOL    HW2 8499   5.114   0.915   3.983 -0.5672 -0.5312 -0.6945
 2534SOL     OW 8500   5.896   1.927   3.017  0.6358 -0.3811 -0.6858
 2534SOL    HW1 8501   5.888   1.863   2.941  0.1606 -0.8859 -0.2242
 2534SOL    HW2 8502   5.806   1.943   3.057  1.2917 -4.6992  3.4086
 2535SOL     OW 8503   2.020   1.055   1.012  0.1979 -0.0306  0.0275
 2535SOL    HW1 8504   2.087   1.082   1.081 -0.7739  2.7782 -0.0007
 2535SOL    HW2 8505   1.934   1.028   1.057  0.5320 -1.2511 -0.0261
 2536SOL     OW 8506   1.833   6.968   2.161 -0.3314  0.7305 -0.0093
 2536SOL    HW1 8507   1.875   6.878   2.150  1.1386  1.6800 -3.3528
 2536SOL    HW2 8508   1.848   7.001   2.255  0.4993 -1.7521  0.8139
 2537SOL     OW 8509   3.407   5.397   1.215  0.5531  0.3594  0.3452
 2537SOL    HW1 8510   3.484   5.424   1.272  0.5679  0.3203  0.3436
 2537SOL    HW2 8511   3.413   5.300   1.194  0.3412  0.2925  0.5942
 2538SOL     OW 8512   0.280   4.532   4.478 -0.3515 -0.2593  0.1897
 2538SOL    HW1 8513   0.340   4.605   4.446  0.1206 -0.3991  0.7436
 2538SOL    HW2 8514   0.331   4.471   4.538 -1.0245 -0.4304  0.5959
 2539SOL     OW 8515   1.048   6.485   5.027 -0.5819 -0.0927 -0.3503
 2539SOL    HW1 8516   1.119   6.523   5.086 -0.9468 -0.1557  0.1426
 2539SOL    HW2 8517   0.971   6.548   5.022 -1.5569 -1.0672  1.1599
 2540SOL     OW 8518   5.243   1.811   2.302 -0.0433 -0.3672 -0.0016
 2540SOL    HW1 8519   5.153   1.848   2.325 -0.5222 -0.8033 -1.0952
 2540SOL    HW2 8520   5.303   1.886   2.275 -0.1767 -0.1054  0.4159
 2541SOL     OW 8521   0.745   6.253   6.186 -0.5016  1.0233 -0.2881
 2541SOL    HW1 8522   0.685   6.176   6.166 -1.0935  1.5697 -0.6433
 2541SOL    HW2 8523   0.709   6.303   6.265  1.1695 -0.4298  1.5148
 2542SOL     OW 8524   3.579   1.253   5.128  0.0231 -0.2648  0.1035
 2542SOL    HW1 8525   3.555   1.213   5.039  1.7658  0.1698 -0.6071
 2542SOL    HW2 8526   3.624   1.341   5.114  0.0513 -0.0493  1.4443
 2543SOL     OW 8527   5.446   0.702   4.044  0.0075  0.1853  0.1659
 2543SOL    HW1 8528   5.416   0.685   4.138 -1.7493  0.3941 -0.3172
 2543SOL    HW2 8529   5.379   0.761   3.998  2.0138  2.0291 -0.5361
 2544SOL     OW 8530   0.817   0.961   6.393  0.5525 -0.0207 -0.0388
 2544SOL    HW1 8531   0.912   0.975   6.363  0.4847  1.5361  0.4431
 2544SOL    HW2 8532   0.770   1.048   6.399 -0.4947 -0.6355  1.1749
 2545SOL     OW 8533   1.994   2.292   1.572 -0.0140  0.1464  0.1911
 2545SOL    HW1 8534   1.946   2.258   1.653  0.1936  0.6391  0.5185
 2545SOL    HW2 8535   2.001   2.391   1.576  1.6587  0.0495  0.5023
 2546SOL     OW 8536   4.390   4.611   3.819 -0.0481 -0.1959 -0.2667
 2546SOL    HW1 8537   4.303   4.648   3.851  0.4365 -0.2813  1.2451
 2546SOL    HW2 8538   4.374   4.550   3.741 -1.4625 -0.9467  0.5777
 2547SOL     OW 8539   6.809   4.062   2.657 -0.4330  0.3545 -0.0139
 2547SOL    HW1 8540   6.862   4.036   2.576 -0.5214  2.1562 -0.7094
 2547SOL    HW2 8541   6.871   4.091   2.730 -0.3797 -0.5389  0.3056
 2548SOL     OW 8542   6.260   0.078   6.196 -0.5055  0.0484 -0.2846
 2548SOL    HW1 8543   6.353   0.106   6.170 -0.7622  0.1216 -1.1392
 2548SOL    HW2 8544   6.240  -0.012   6.157 -0.9786  0.2556 -0.5251
 2549SOL     OW 8545   2.391   3.537   0.019 -0.7714  0.0494 -0.2828
 2549SOL    HW1 8546   2.388   3.632  -0.010 -0.1015  0.6821  1.5576
 2549SOL    HW2 8547   2.457   3.486  -0.037  1.2863  1.4559  0.7353
 2550SOL     OW 8548   4.857   0.770   6.192 -0.1005 -0.0346  0.0417
 2550SOL    HW1 8549   4.774   0.770   6.247 -0.2275 -1.4898 -0.0978
 2550SOL    HW2 8550   4.936   0.758   6.252 -0.3927 -4.5139 -0.0876
 2551SOL     OW 8551   3.618   4.522   6.576  0.7951 -0.4148  0.6441
 2551SOL    HW1 8552   3.597   4.424   6.571 -0.2616 -0.1676 -0.0895
 2551SOL    HW2 8553   3.662   4.542   6.664 -1.6270 -1.0870  2.1035
 2552SOL     OW 8554   4.198   4.267   0.327  0.3495  0.2652 -0.1726
 2552SOL    HW1 8555   4.114   4.215   0.312 -0.9849  2.5337 -1.1680
 2552SOL    HW2 8556   4.233   4.248   0.419 -0.2553 -2.0001 -0.3450
 2553SOL     OW 8557   4.079   0.887   6.574 -0.5471 -0.2423 -0.0389
 2553SOL    HW1 8558   3.996   0.939   6.592 -2.2857 -3.0890  0.6416
 2553SOL    HW2 8559   4.057   0.804   6.522  1.6989 -1.5565  0.9443
 2554SOL     OW 8560   1.865   6.615   0.822 -0.3403 -0.4060  0.8212
 2554SOL    HW1 8561   1.842   6.690   0.759 -0.2225  0.5008  1.8318
 2554SOL    HW2 8562   1.781   6.570   0.853 -0.4830 -0.0067  1.0219
 2555SOL     OW 8563   6.772   6.430   6.292  0.5057  0.2659 -0.0122
 2555SOL    HW1 8564   6.832   6.361   6.253 -1.9026 -0.9265 -1.8534
 2555SOL    HW2 8565   6.794   6.519   6.252  1.2736 -0.0655 -0.3477
 2556SOL     OW 8566   5.496   6.880   0.475 -0.4496 -0.1004  0.0022
 2556SOL    HW1 8567   5.468   6.819   0.549  0.7810  0.7227  1.1821
 2556SOL    HW2 8568   5.542   6.827   0.404 -1.2217 -0.8232  0.0181
 2557SOL     OW 8569   3.902   0.914   0.213  0.7304 -0.2533  0.3303
 2557SOL    HW1 8570   3.945   1.001   0.188 -1.1213  0.9057  0.9401
 2557SOL    HW2 8571   3.832   0.891   0.146  0.0094 -0.3384  1.0890
 2558SOL     OW 8572   6.522   3.604   2.154  0.0125  0.0879  0.3809
 2558SOL    HW1 8573   6.540   3.668   2.079 -0.4855 -0.5032 -0.2474
 2558SOL    HW2 8574   6.489   3.655   2.234 -0.1156  0.6484 -0.0242
 2559SOL     OW 8575   0.629   4.585   2.093  0.1254  0.2497  0.4172
 2559SOL    HW1 8576   0.710   4.609   2.146  0.3310 -2.1977  1.3400
 2559SOL    HW2 8577   0.654   4.570   1.997  0.7094 -0.0576  0.6122
 2560SOL     OW 8578   4.126   3.404   2.621 -0.3878  0.4197 -0.8439
 2560SOL    HW1 8579   4.191   3.465   2.667  1.8094  0.3272 -3.5193
 2560SOL    HW2 8580   4.131   3.313   2.662 -1.0995  1.1243  0.8999
 2561SOL     OW 8581   2.367   1.072   4.068 -0.3782  0.2952  0.1991
 2561SOL    HW1 8582   2.399   0.986   4.029  0.6330  1.7465 -2.3622
 2561SOL    HW2 8583   2.301   1.115   4.007 -0.1144  1.8351  0.9279
 2562SOL     OW 8584   1.457   6.653   5.048 -0.0160 -0.7041  0.3948
 2562SOL    HW1 8585   1.486   6.748   5.061 -0.7431 -0.0041 -2.3106
 2562SOL    HW2 8586   1.382   6.631   5.109 -0.5385  0.8224  0.3250
 2563SOL     OW 8587   5.356   0.281   6.966 -0.0731  0.1557  0.6460
 2563SOL    HW1 8588   5.319   0.367   6.932 -2.1185 -0.3788  1.4038
 2563SOL    HW2 8589   5.388   0.226   6.889 -1.2520  0.4719 -0.0871
 2564SOL     OW 8590   2.668   1.030   1.208  0.2378  0.0428  0.0139
 2564SOL    HW1 8591   2.595   1.056   1.270 -1.6137 -0.1322 -1.9710
 2564SOL    HW2 8592   2.678   1.100   1.137 -1.1500 -1.9760 -2.3230
 2565SOL     OW 8593   5.603   4.846   1.117  0.1010 -0.2371 -0.1409
 2565SOL    HW1 8594   5.692   4.850   1.072  0.3026 -2.1437 -0.0221
 2565SOL    HW2 8595   5.534   4.893   1.061  1.2383  1.7406  0.0296
 2566SOL     OW 8596   1.373   1.630   1.924  0.6913 -0.6944  0.1478
 2566SOL    HW1 8597   1.376   1.720   1.881  3.0967 -0.5186  0.5378
 2566SOL    HW2 8598   1.374   1.559   1.853  2.0428 -0.3941 -0.1582
 2567SOL     OW 8599   1.764   0.968   1.085 -0.1488  0.0366 -0.7902
 2567SOL    HW1 8600   1.764   1.065   1.108  0.7006 -0.3429  1.0942
 2567SOL    HW2 8601   1.694   0.948   1.017 -0.5644  1.8962 -0.9365
 2568SOL     OW 8602   1.835   5.222   5.389  0.4264  0.2661  0.2375
 2568SOL    HW1 8603   1.842   5.321   5.404 -0.2554  0.8008 -2.4523
 2568SOL    HW2 8604   1.799   5.178   5.471  0.2847  2.3043  1.3337
 2569SOL     OW 8605   2.466   5.746   4.592  0.4755  0.2537 -0.2309
 2569SOL    HW1 8606   2.449   5.771   4.496 -2.5365 -1.1951 -0.2085
 2569SOL    HW2 8607   2.553   5.697   4.598  1.0169  0.8745 -2.1118
 2570SOL     OW 8608   6.614   1.926   3.839  0.0446 -0.0685 -0.1072
 2570SOL    HW1 8609   6.708   1.938   3.806 -0.0948  0.9958 -0.1605
 2570SOL    HW2 8610   6.556   1.997   3.798 -0.6047 -0.1854  0.6041
 2571SOL     OW 8611   1.869   2.500   1.293 -0.0838 -0.3247  0.2190
 2571SOL    HW1 8612   1.772   2.521   1.286 -0.0825 -0.5342 -0.5649
 2571SOL    HW2 8613   1.904   2.531   1.381 -0.0689  2.9310 -0.8025
 2572SOL     OW 8614   3.742   4.838   3.094  0.2360 -0.0647 -0.0433
 2572SOL    HW1 8615   3.782   4.889   3.018  0.5483 -2.1292 -1.3419
 2572SOL    HW2 8616   3.643   4.848   3.092  0.3328  1.2091  0.3124
 2573SOL     OW 8617   4.986   6.092   2.090 -0.0575  0.4350  0.4524
 2573SOL    HW1 8618   4.891   6.101   2.118  0.2791  0.5677  1.5885
 2573SOL    HW2 8619   5.046   6.105   2.169  0.8972  0.1083 -0.1965
 2574SOL     OW 8620   1.637   5.178   1.484  0.2652  0.0083 -0.1919
 2574SOL    HW1 8621   1.633   5.185   1.583  0.8983 -1.0851 -0.0769
 2574SOL    HW2 8622   1.672   5.264   1.446 -0.9432  0.8057  0.4298
 2575SOL     OW 8623   3.779   3.292   4.595 -0.4822 -0.4799  0.4469
 2575SOL    HW1 8624   3.737   3.213   4.640  1.1260 -0.8628  1.3406
 2575SOL    HW2 8625   3.793   3.365   4.662 -2.0740  0.6635 -0.3949
 2576SOL     OW 8626   2.403   0.112   3.649 -0.0380 -0.1926 -0.2728
 2576SOL    HW1 8627   2.357   0.106   3.738  0.0394 -0.0578 -0.2218
 2576SOL    HW2 8628   2.367   0.043   3.587 -1.7345  1.1495 -0.8740
 2577SOL     OW 8629   1.550   4.645   0.635 -0.5426  0.4674  0.0927
 2577SOL    HW1 8630   1.608   4.632   0.555  0.1124  1.1279  0.4511
 2577SOL    HW2 8631   1.607   4.644   0.718 -0.5558  4.0941  0.2906
 2578SOL     OW 8632   4.211   1.973   6.314 -0.0112 -0.3790  0.4764
 2578SOL    HW1 8633   4.249   2.023   6.236  0.7939 -2.1694 -0.3214
 2578SOL    HW2 8634   4.276   1.975   6.390  1.0448 -2.1057 -0.3453
 2579SOL     OW 8635   6.115   1.581   6.499 -0.0821 -0.5378 -0.1941
 2579SOL    HW1 8636   6.028   1.630   6.506  0.1073  0.0170 -1.4626
 2579SOL    HW2 8637   6.099   1.483   6.511 -0.8963 -0.4508 -0.5174
 2580SOL     OW 8638   2.131   1.848   0.413  0.2206  0.2621  1.0033
 2580SOL    HW1 8639   2.053   1.898   0.451 -1.0990 -2.0052  1.4471
 2580SOL    HW2 8640   2.124   1.849   0.313 -0.4581 -0.0162  1.0382
 2581SOL     OW 8641   6.089   0.469   2.956  0.7122 -0.3977 -0.2337
 2581SOL    HW1 8642   6.084   0.469   3.056  0.6640 -1.1961 -0.2341
 2581SOL    HW2 8643   6.184   0.473   2.927  0.7576 -0.8600 -0.1513
 2582SOL     OW 8644   5.942   3.421   2.415  0.5043 -0.4304  0.3796
 2582SOL    HW1 8645   6.024   3.420   2.471  0.9867  0.6484 -0.2901
 2582SOL    HW2 8646   5.866   3.379   2.466  1.4664 -1.5066  0.9673
 2583SOL     OW 8647   2.173   1.276   1.755 -0.1319  0.1204  0.4472
 2583SOL    HW1 8648   2.137   1.238   1.841  0.2633  0.3247  0.7077
 2583SOL    HW2 8649   2.252   1.222   1.726 -0.1841  0.1325  0.2862
 2584SOL     OW 8650   3.303   1.859   5.950  0.1608 -0.1167  0.0507
 2584SOL    HW1 8651   3.247   1.776   5.951 -1.4079  0.8879  1.3771
 2584SOL    HW2 8652   3.331   1.882   6.043  1.0363  0.5594 -0.3574
 2585SOL     OW 8653   3.629   6.333   1.846  0.1894  0.1176 -0.4802
 2585SOL    HW1 8654   3.535   6.360   1.869  0.0375  0.0680 -1.0329
 2585SOL    HW2 8655   3.659   6.262   1.910 -0.9489 -1.4415 -1.6072
 2586SOL     OW 8656   0.517   2.997   4.038 -0.5429 -0.6417 -0.2909
 2586SOL    HW1 8657   0.460   2.932   3.989 -0.7129 -0.0918 -0.8344
 2586SOL    HW2 8658   0.469   3.084   4.046  0.3138 -0.0915 -0.9925
 2587SOL     OW 8659   5.668   4.259   1.723  0.4276  0.1803 -0.0841
 2587SOL    HW1 8660   5.628   4.272   1.633  1.0608  2.2262 -0.1034
 2587SOL    HW2 8661   5.768   4.265   1.716  0.6378 -1.8429  0.4445
 2588SOL     OW 8662   2.414   0.203   2.944  0.3919  0.3447 -0.1667
 2588SOL    HW1 8663   2.429   0.230   2.849 -1.1660 -2.1493 -1.2333
 2588SOL    HW2 8664   2.500   0.207   2.994  1.4553  0.8186 -1.9330
 2589SOL     OW 8665   4.736   4.216   3.743 -0.6358  0.3690 -0.2730
 2589SOL    HW1 8666   4.703   4.238   3.835 -1.7492 -0.2297 -0.5116
 2589SOL    HW2 8667   4.788   4.294   3.707  0.3172  0.3996  1.0644
 2590SOL     OW 8668   4.890   5.891   3.337  0.2178  0.1467 -0.2620
 2590SOL    HW1 8669   4.860   5.834   3.412  1.5719  0.4906  0.5748
 2590SOL    HW2 8670   4.920   5.834   3.261 -1.9292 -0.2002 -0.9091
 2591SOL     OW 8671   5.785   6.527   1.250  0.4127 -0.0056  0.5116
 2591SOL    HW1 8672   5.712   6.500   1.187 -0.9192  0.1550  1.9317
 2591SOL    HW2 8673   5.845   6.592   1.204 -1.4237  1.3218 -0.1358
 2592SOL     OW 8674   1.132   4.417   2.553 -0.4298 -0.4337  0.1999
 2592SOL    HW1 8675   1.076   4.368   2.486  1.9504 -1.1818 -1.3608
 2592SOL    HW2 8676   1.219   4.370   2.565  0.9033  1.9879  0.6712
 2593SOL     OW 8677   1.251   2.106   2.907 -0.5677  0.4458 -0.5718
 2593SOL    HW1 8678   1.157   2.074   2.920 -0.2826 -0.2563 -0.1609
 2593SOL    HW2 8679   1.306   2.033   2.866  0.1937  0.2326  0.7531
 2594SOL     OW 8680   2.109   0.430   5.887  0.5523 -0.5308 -0.0984
 2594SOL    HW1 8681   2.172   0.439   5.811  0.1171  1.3114 -0.2947
 2594SOL    HW2 8682   2.156   0.449   5.973  0.1334  1.9033 -0.3272
 2595SOL     OW 8683   1.867   1.766   3.888 -0.5261 -0.2266  0.0226
 2595SOL    HW1 8684   1.772   1.772   3.917 -0.4153  1.0408  0.2061
 2595SOL    HW2 8685   1.894   1.853   3.846  1.3193  0.4576  2.3930
 2596SOL     OW 8686   2.708   0.448   0.585 -0.3463  0.2638  0.2903
 2596SOL    HW1 8687   2.773   0.435   0.660  0.0930 -0.6154 -0.2271
 2596SOL    HW2 8688   2.726   0.535   0.540 -0.2931  0.5651  0.8819
 2597SOL     OW 8689   3.932   0.985   5.849  0.1338  0.5826  0.7913
 2597SOL    HW1 8690   3.972   1.069   5.810  0.2494 -0.1224 -0.6963
 2597SOL    HW2 8691   3.988   0.954   5.926 -0.1753  2.1202  1.6609
 2598SOL     OW 8692   5.496   1.310   3.593  0.0485 -0.1132 -0.5469
 2598SOL    HW1 8693   5.463   1.219   3.569 -0.4792  0.0916 -0.6135
 2598SOL    HW2 8694   5.423   1.376   3.580  0.2029  0.2173  0.1964
 2599SOL     OW 8695   4.576   6.796   4.581 -0.0683  0.5646 -0.4427
 2599SOL    HW1 8696   4.585   6.707   4.626 -0.5697  0.2238 -1.0117
 2599SOL    HW2 8697   4.662   6.846   4.589  0.3081 -0.0854 -0.3700
 2600SOL     OW 8698   6.099   4.525   3.567  0.2131  0.0702  0.0826
 2600SOL    HW1 8699   6.162   4.513   3.644 -0.3688  0.2267  0.5896
 2600SOL    HW2 8700   6.006   4.502   3.596  0.0274 -0.1255 -0.6496
 2601SOL     OW 8701   5.767   3.716   6.908  0.0447 -0.1778  0.5522
 2601SOL    HW1 8702   5.744   3.739   7.003 -0.0157  1.0118  0.2680
 2601SOL    HW2 8703   5.699   3.652   6.873 -1.7211  1.6670  0.3956
 2602SOL     OW 8704   6.283   0.598   1.544 -0.4612 -0.3055 -0.1686
 2602SOL    HW1 8705   6.259   0.520   1.602  1.3256 -1.5120 -0.9399
 2602SOL    HW2 8706   6.284   0.569   1.448  1.6021  0.2333 -0.3584
 2603SOL     OW 8707   0.215   0.523   0.047  0.3698 -0.3788  0.1029
 2603SOL    HW1 8708   0.169   0.574   0.119 -1.0339  2.1183 -2.3394
 2603SOL    HW2 8709   0.304   0.564   0.029 -0.3914  0.7755 -1.2695
 2604SOL     OW 8710   5.442   1.399   0.025 -0.1819  0.2264 -0.1619
 2604SOL    HW1 8711   5.422   1.314   0.073  1.7422 -1.4230 -2.0996
 2604SOL    HW2 8712   5.357   1.435  -0.015 -0.9553 -0.9854  0.3335
 2605SOL     OW 8713   0.204   1.843   6.492  0.0824  0.2348  0.0029
 2605SOL    HW1 8714   0.163   1.850   6.582  2.0545  0.5504  0.9248
 2605SOL    HW2 8715   0.268   1.766   6.490 -1.3772 -1.0357 -1.7766
 2606SOL     OW 8716   6.675   4.666   6.816  0.0655 -0.0390  0.7157
 2606SOL    HW1 8717   6.596   4.628   6.768 -0.6040  1.2961  0.7169
 2606SOL    HW2 8718   6.753   4.672   6.753  0.5536 -2.3888  0.9995
 2607SOL     OW 8719   6.531   0.179   4.126 -0.1242  0.0849  0.4335
 2607SOL    HW1 8720   6.458   0.145   4.067  0.0042  2.0373 -0.9176
 2607SOL    HW2 8721   6.491   0.224   4.206 -0.3118 -1.4680  1.2534
 2608SOL     OW 8722   4.273   0.228   0.146  0.2312  0.2521  0.2681
 2608SOL    HW1 8723   4.191   0.274   0.180  0.5845  0.6796  0.5456
 2608SOL    HW2 8724   4.327   0.196   0.223 -0.3884 -1.3224  0.0811
 2609SOL     OW 8725   1.268   3.540   4.856  0.2246 -0.5602  0.1541
 2609SOL    HW1 8726   1.306   3.448   4.860 -0.9299 -1.0665 -0.2422
 2609SOL    HW2 8727   1.170   3.537   4.873  0.4603  0.8418  2.2029
 2610SOL     OW 8728   4.622   4.887   2.895 -0.1748 -0.3878 -0.4078
 2610SOL    HW1 8729   4.679   4.935   2.828 -0.7961 -0.1759 -0.7847
 2610SOL    HW2 8730   4.611   4.945   2.976  0.8700 -0.7877  0.0350
 2611SOL     OW 8731   2.708   4.335   1.159 -0.2441  0.3681  0.9141
 2611SOL    HW1 8732   2.665   4.260   1.211  3.7242 -1.7515  1.5599
 2611SOL    HW2 8733   2.732   4.409   1.222 -1.0405  0.6399  0.9095
 2612SOL     OW 8734   6.863   2.871   3.307  0.6232 -0.5469  0.2706
 2612SOL    HW1 8735   6.784   2.810   3.305  0.0940  0.0522  1.6493
 2612SOL    HW2 8736   6.890   2.888   3.402  2.5233 -0.8673 -0.1666
 2613SOL     OW 8737   4.700   1.332   6.331  0.2018  0.0199 -0.2049
 2613SOL    HW1 8738   4.777   1.325   6.394  0.3501  1.0259 -0.2629
 2613SOL    HW2 8739   4.709   1.415   6.276 -1.7488  1.0539  0.9158
 2614SOL     OW 8740   5.892   6.382   5.017 -0.2103 -0.3870  0.1165
 2614SOL    HW1 8741   5.833   6.416   5.090  0.4283  0.0472  0.4377
 2614SOL    HW2 8742   5.851   6.403   4.928 -1.3724 -1.5893  0.3328
 2615SOL     OW 8743   6.094   4.253   1.472  0.3332 -0.3845  0.6339
 2615SOL    HW1 8744   6.047   4.301   1.546 -0.5043 -0.6959  0.3129
 2615SOL    HW2 8745   6.074   4.298   1.385 -1.0418 -1.6679  0.2270
 2616SOL     OW 8746   3.057   5.531   0.415  0.5722 -0.0419 -0.1823
 2616SOL    HW1 8747   3.039   5.496   0.323 -0.8167 -3.4674  1.1976
 2616SOL    HW2 8748   3.127   5.602   0.411  1.7937 -1.2181 -3.7066
 2617SOL     OW 8749   2.797   6.701   6.473 -0.3392  0.1045  0.0336
 2617SOL    HW1 8750   2.734   6.628   6.445  0.4421 -0.1433 -1.2007
 2617SOL    HW2 8751   2.780   6.726   6.568 -2.1927 -0.0444 -0.2249
 2618SOL     OW 8752   1.920   5.917   1.323 -1.0979  0.4485 -0.3863
 2618SOL    HW1 8753   1.930   5.901   1.421  0.1038 -0.9824 -0.7010
 2618SOL    HW2 8754   1.827   5.892   1.294 -1.7624  1.7859  0.5239
 2619SOL     OW 8755   4.435   6.800   4.365 -0.6020  0.3840 -0.1865
 2619SOL    HW1 8756   4.473   6.840   4.448 -1.5603 -0.8310  0.8822
 2619SOL    HW2 8757   4.508   6.753   4.315 -0.3125 -0.3940  0.9127
 2620SOL     OW 8758   0.588   0.393   4.433  0.4365  0.2686 -0.4086
 2620SOL    HW1 8759   0.624   0.439   4.352 -0.3238  0.2449 -0.7633
 2620SOL    HW2 8760   0.540   0.309   4.407 -0.1797  0.4780  0.0173
 2621SOL     OW 8761   1.106   6.046   5.424 -0.1220 -0.2530 -0.1800
 2621SOL    HW1 8762   1.066   6.138   5.424 -1.6295 -0.8720 -1.2355
 2621SOL    HW2 8763   1.057   5.988   5.359  1.4166 -1.5595 -0.2465
 2622SOL     OW 8764   2.747   2.082   3.811 -0.3857 -0.3068  0.2291
 2622SOL    HW1 8765   2.813   2.028   3.865  0.1885  0.0707 -0.0845
 2622SOL    HW2 8766   2.733   2.171   3.855 -1.7381 -0.8958  1.0345
 2623SOL     OW 8767   2.119   6.925   6.036  0.4823 -0.0213 -0.1486
 2623SOL    HW1 8768   2.142   6.917   5.939 -0.1166 -0.2118 -0.2831
 2623SOL    HW2 8769   2.112   7.022   6.061  2.6166  0.0874  0.2093
 2624SOL     OW 8770   4.924   2.089   2.475  0.1417 -0.0654 -0.3512
 2624SOL    HW1 8771   4.907   2.017   2.407 -0.4705 -0.6026  0.3523
 2624SOL    HW2 8772   4.887   2.175   2.442 -0.3034 -0.3578 -0.6252
 2625SOL     OW 8773   1.678   0.316   0.506 -0.2321  0.6477  0.0912
 2625SOL    HW1 8774   1.640   0.226   0.529 -0.1394  0.9908  1.7528
 2625SOL    HW2 8775   1.676   0.329   0.407 -1.5997 -0.5862 -0.0825
 2626SOL     OW 8776   3.880   6.590   2.384  0.2322  0.0527 -0.1683
 2626SOL    HW1 8777   3.965   6.604   2.333 -0.1256  0.1086 -0.7689
 2626SOL    HW2 8778   3.898   6.537   2.467  0.5583 -1.7214 -1.3121
 2627SOL     OW 8779   1.912   0.122   4.011 -0.2475 -0.5672 -0.2989
 2627SOL    HW1 8780   1.823   0.141   4.054 -0.2395  0.3225 -0.6496
 2627SOL    HW2 8781   1.898   0.097   3.915 -0.1599 -1.0396 -0.1896
 2628SOL     OW 8782   5.531   3.055   0.103 -0.4909  0.0652  0.8748
 2628SOL    HW1 8783   5.545   3.153   0.089  0.2001  0.0166  1.1986
 2628SOL    HW2 8784   5.463   3.022   0.037 -0.3988  0.6675  0.4652
 2629SOL     OW 8785   3.539   5.299   1.686  0.1846 -0.0104  0.2477
 2629SOL    HW1 8786   3.509   5.369   1.751  2.3443  1.8129 -0.5955
 2629SOL    HW2 8787   3.469   5.287   1.616  0.5252  2.8532 -0.7217
 2630SOL     OW 8788   2.518   6.548   2.858  0.2571  0.0119 -0.1406
 2630SOL    HW1 8789   2.451   6.558   2.784  0.4654  0.4345 -0.2694
 2630SOL    HW2 8790   2.499   6.614   2.930 -0.8188 -1.3140  0.8596
 2631SOL     OW 8791   2.856   6.197   2.610 -0.3821  0.4719  0.3331
 2631SOL    HW1 8792   2.772   6.228   2.655 -0.4792  1.1234 -0.2858
 2631SOL    HW2 8793   2.839   6.182   2.513 -0.5997 -2.5054  0.7182
 2632SOL     OW 8794   6.543   1.307   6.010 -0.6729  0.3782 -0.6057
 2632SOL    HW1 8795   6.590   1.383   6.056  1.5656 -1.3896  0.1938
 2632SOL    HW2 8796   6.579   1.296   5.918 -1.6214  0.7814 -1.0433
 2633SOL     OW 8797   6.677   4.087   6.839 -0.1170 -0.2947 -0.7383
 2633SOL    HW1 8798   6.715   4.157   6.778 -0.6874 -0.6785 -1.5580
 2633SOL    HW2 8799   6.733   4.004   6.833 -0.9884 -0.8309 -1.8813
 2634SOL     OW 8800   2.833   3.624   0.259  0.2483 -0.1530  0.1801
 2634SOL    HW1 8801   2.846   3.660   0.167 -0.0125  0.3326  0.3268
 2634SOL    HW2 8802   2.799   3.530   0.254  1.0683 -0.4341 -0.2116
 2635SOL     OW 8803   5.916   4.040   4.154 -0.0760  0.4900 -0.2718
 2635SOL    HW1 8804   6.007   4.069   4.182 -0.0184 -1.0347  1.3607
 2635SOL    HW2 8805   5.922   3.956   4.099 -0.4788  0.2167  0.0865
 2636SOL     OW 8806   4.729   4.528   5.492 -0.1131 -0.0503  0.1907
 2636SOL    HW1 8807   4.636   4.514   5.456  0.1938 -1.7580 -0.0080
 2636SOL    HW2 8808   4.795   4.513   5.419  0.3652  0.1321  0.5838
 2637SOL     OW 8809   4.605   4.288   2.571  0.1356 -0.1714 -0.5225
 2637SOL    HW1 8810   4.516   4.309   2.612 -0.2316  0.2470 -1.5091
 2637SOL    HW2 8811   4.624   4.354   2.498  0.6627 -1.0425 -1.1878
 2638SOL     OW 8812   3.964   5.727   2.627 -0.5499 -0.4241  0.6927
 2638SOL    HW1 8813   3.906   5.808   2.636  0.9451  0.6629  0.8740
 2638SOL    HW2 8814   3.954   5.689   2.535 -0.7140  0.4186  0.3518
 2639SOL     OW 8815   0.514   5.993   1.262 -0.4736  0.4134 -0.1754
 2639SOL    HW1 8816   0.496   6.091   1.262 -1.5441  0.2341 -0.2645
 2639SOL    HW2 8817   0.591   5.973   1.322 -0.6591  1.2381  0.3561
 2640SOL     OW 8818   1.263   6.964   2.214 -0.4151  0.0230  0.2623
 2640SOL    HW1 8819   1.360   6.941   2.216 -0.3739 -0.1894 -1.8064
 2640SOL    HW2 8820   1.211   6.892   2.262  0.4446  0.4345  1.8901
 2641SOL     OW 8821   1.277   4.778   2.177  0.4405  0.3549 -0.3972
 2641SOL    HW1 8822   1.195   4.811   2.129  0.5804  0.2250 -0.7289
 2641SOL    HW2 8823   1.258   4.773   2.275  1.0204  3.2967 -0.0587
 2642SOL     OW 8824   6.690   0.102   4.853  0.1636 -0.0365  0.6594
 2642SOL    HW1 8825   6.763   0.144   4.907 -0.5737  0.7280  1.0900
 2642SOL    HW2 8826   6.601   0.126   4.893 -0.3352 -0.7579  0.0104
 2643SOL     OW 8827   0.973   2.563   0.286  0.3655  0.1779  0.6170
 2643SOL    HW1 8828   0.996   2.613   0.203  2.4469 -0.5490  0.6900
 2643SOL    HW2 8829   1.057   2.537   0.334 -0.7642  0.3134  2.8160
 2644SOL     OW 8830   5.458   6.252   4.521  0.2290 -0.0692 -0.3486
 2644SOL    HW1 8831   5.489   6.225   4.430 -0.0980  0.6383 -0.6750
 2644SOL    HW2 8832   5.390   6.186   4.554  1.0947 -0.8998 -0.1733
 2645SOL     OW 8833   0.264   5.153   5.399 -0.2157  0.1749 -0.1920
 2645SOL    HW1 8834   0.353   5.112   5.421  0.6154  2.0689  0.1753
 2645SOL    HW2 8835   0.209   5.160   5.482  0.6470  2.0194  0.2890
 2646SOL     OW 8836   5.223   4.318   5.331 -0.1322  0.8134 -0.3187
 2646SOL    HW1 8837   5.297   4.371   5.370 -0.6937  1.8908 -0.6927
 2646SOL    HW2 8838   5.220   4.333   5.232  0.5813 -1.0196 -0.6666
 2647SOL     OW 8839   2.887   4.876   2.360 -0.0067 -0.5143  0.6247
 2647SOL    HW1 8840   2.813   4.810   2.353 -0.3778  0.0145 -0.6790
 2647SOL    HW2 8841   2.947   4.869   2.280  0.5314  0.0446  0.9618
 2648SOL     OW 8842   4.831   2.158   2.926 -0.1255 -0.4710 -0.2562
 2648SOL    HW1 8843   4.741   2.175   2.887 -0.9520  1.7134  2.2604
 2648SOL    HW2 8844   4.893   2.232   2.900 -1.0637  1.8121  3.2099
 2649SOL     OW 8845   3.045   3.212   4.381 -0.4685 -0.5003  0.6646
 2649SOL    HW1 8846   2.964   3.170   4.421 -2.0368  2.5927  1.0668
 2649SOL    HW2 8847   3.038   3.212   4.281  2.0282 -5.5144  0.1915
 2650SOL     OW 8848   0.351   1.355   0.671 -0.6221  0.3244  0.5738
 2650SOL    HW1 8849   0.274   1.405   0.711 -0.9945 -0.5809  1.0283
 2650SOL    HW2 8850   0.387   1.290   0.739 -1.2611 -1.2529 -0.5380
 2651SOL     OW 8851   0.788   1.221   3.703  0.3710 -0.6633  0.6120
 2651SOL    HW1 8852   0.856   1.275   3.653  0.1981 -1.0801 -0.0908
 2651SOL    HW2 8853   0.827   1.191   3.790  0.2163  1.2327  1.4045
 2652SOL     OW 8854   3.902   0.603   0.129 -0.2003 -0.2031  0.2127
 2652SOL    HW1 8855   3.942   0.681   0.081  0.9292 -0.5318  0.5819
 2652SOL    HW2 8856   3.828   0.636   0.188 -0.6926  0.3817 -0.7100
 2653SOL     OW 8857   5.535   0.167   2.330 -1.1789 -0.2632 -0.4557
 2653SOL    HW1 8858   5.620   0.122   2.302 -0.3518  1.6681 -1.2518
 2653SOL    HW2 8859   5.465   0.149   2.261 -0.8635 -0.3708 -0.7561
 2654SOL     OW 8860   1.234   2.504   5.899  0.2482  0.9276  0.3023
 2654SOL    HW1 8861   1.141   2.508   5.862  0.4029 -0.0449 -0.2333
 2654SOL    HW2 8862   1.276   2.418   5.872  1.8249  1.9570 -0.6718
 2655SOL     OW 8863   5.320   4.637   2.359  0.1626  0.3011 -0.0859
 2655SOL    HW1 8864   5.348   4.727   2.394  0.7289 -0.3866  1.3042
 2655SOL    HW2 8865   5.256   4.595   2.423 -3.4677  1.4052 -2.7032
 2656SOL     OW 8866   6.059   4.769   5.988 -0.4551  0.3164 -0.8981
 2656SOL    HW1 8867   5.982   4.770   5.925 -0.3162 -0.6671 -1.0967
 2656SOL    HW2 8868   6.110   4.683   5.979 -1.1942 -0.4574  1.4642
 2657SOL     OW 8869   3.276   1.213   5.126  0.0891  0.2200  0.2214
 2657SOL    HW1 8870   3.375   1.218   5.136  0.3319 -0.4288 -1.4798
 2657SOL    HW2 8871   3.233   1.199   5.215  1.5294  0.3083  0.9462
 2658SOL     OW 8872   0.796   4.864   5.850 -0.0207  0.3672 -0.0427
 2658SOL    HW1 8873   0.756   4.926   5.783  2.1010  1.0329 -0.7843
 2658SOL    HW2 8874   0.786   4.769   5.818  0.4198  0.6377 -1.0225
 2659SOL     OW 8875   4.428   0.897   1.479 -0.6319 -0.3681  0.3832
 2659SOL    HW1 8876   4.428   0.888   1.579  0.6413 -1.1331  0.3482
 2659SOL    HW2 8877   4.393   0.987   1.453  1.4137  0.8789  1.6550
 2660SOL     OW 8878   0.506   1.106   2.815  0.1622  0.3144 -0.3743
 2660SOL    HW1 8879   0.535   1.104   2.911  1.9788  2.1422 -0.8132
 2660SOL    HW2 8880   0.567   1.166   2.763 -1.3097  0.0670 -2.5213
 2661SOL     OW 8881   3.509   0.546   4.067 -0.4982  0.0809  0.7031
 2661SOL    HW1 8882   3.418   0.581   4.086 -0.7189  0.1043 -0.3626
 2661SOL    HW2 8883   3.517   0.523   3.970  0.7301  0.3750  0.7194
 2662SOL     OW 8884   3.825   0.988   6.664 -0.5039  0.2211 -0.4189
 2662SOL    HW1 8885   3.779   1.044   6.595  2.8406  3.3412 -0.3820
 2662SOL    HW2 8886   3.818   1.032   6.753  0.1051 -0.7419  0.1219
 2663SOL     OW 8887   1.035   4.179   6.160  0.1546  0.2533  0.1409
 2663SOL    HW1 8888   0.983   4.097   6.137 -0.2749  0.2589  1.0530
 2663SOL    HW2 8889   0.972   4.253   6.181  0.5405  0.6259 -0.0021
 2664SOL     OW 8890   5.614   4.076   0.704  0.1634 -0.2524  0.3936
 2664SOL    HW1 8891   5.656   4.153   0.752  0.1760  0.0789 -0.1457
 2664SOL    HW2 8892   5.686   4.011   0.676  0.1432 -0.5156  0.9327
 2665SOL     OW 8893   2.481   1.181   3.228  0.0168 -0.3388  0.0798
 2665SOL    HW1 8894   2.482   1.121   3.148  1.2489 -0.5861  0.2691
 2665SOL    HW2 8895   2.494   1.128   3.311  0.2527  0.0911  0.3237
 2666SOL     OW 8896   4.884   0.503   3.134 -0.0585 -0.3775 -0.1052
 2666SOL    HW1 8897   4.977   0.522   3.102 -0.3261  0.7273 -0.2528
 2666SOL    HW2 8898   4.834   0.453   3.063  0.8806 -2.3769  0.5770
 2667SOL     OW 8899   1.184   4.691   1.794  0.0180 -0.0329 -0.0111
 2667SOL    HW1 8900   1.247   4.698   1.716  0.4345  0.9398  0.3969
 2667SOL    HW2 8901   1.127   4.774   1.798  0.5675  0.2978  1.1967
 2668SOL     OW 8902   0.415   3.541   5.862 -0.0121  0.7818  0.2269
 2668SOL    HW1 8903   0.426   3.638   5.885  0.0396  0.8436 -0.0466
 2668SOL    HW2 8904   0.443   3.527   5.767  0.6990  0.3529  0.5022
 2669SOL     OW 8905   2.095   5.268   5.714 -0.3997 -0.3896 -0.2820
 2669SOL    HW1 8906   2.151   5.292   5.635  2.5723  0.2937  1.8335
 2669SOL    HW2 8907   2.059   5.351   5.756  1.1056 -0.3899  1.0921
 2670SOL     OW 8908   0.226   1.295   3.910 -0.5207 -0.5592 -0.2477
 2670SOL    HW1 8909   0.274   1.343   3.984  0.9055 -0.7544 -1.0019
 2670SOL    HW2 8910   0.260   1.201   3.905 -2.4795 -1.3557  0.4914
 2671SOL     OW 8911   1.656   2.857   6.674 -0.0753  0.1549 -0.0317
 2671SOL    HW1 8912   1.670   2.776   6.731 -2.2512  0.8365  1.6256
 2671SOL    HW2 8913   1.630   2.829   6.582 -0.1145 -1.0274  0.3213
 2672SOL     OW 8914   2.089   4.202   0.972 -0.4372 -0.1655 -0.0245
 2672SOL    HW1 8915   2.054   4.142   0.900 -0.9203  0.1509 -0.0576
 2672SOL    HW2 8916   2.113   4.148   1.052 -0.7003 -0.4249 -0.1184
 2673SOL     OW 8917   4.599   1.500   2.864 -0.0077  0.2405 -0.8471
 2673SOL    HW1 8918   4.510   1.516   2.820  0.4099  2.4253 -0.9909
 2673SOL    HW2 8919   4.635   1.586   2.899  2.1554 -0.5676 -0.9506
 2674SOL     OW 8920   4.252   6.556   4.419 -0.4026  0.0273 -0.1409
 2674SOL    HW1 8921   4.165   6.587   4.458  0.1967  0.4511  0.9191
 2674SOL    HW2 8922   4.315   6.634   4.414  0.0834 -0.3788 -0.4320
 2675SOL     OW 8923   0.075   4.598   0.198 -0.9308  0.2554  0.4465
 2675SOL    HW1 8924   0.086   4.647   0.285 -0.1689  3.3521 -1.2240
 2675SOL    HW2 8925  -0.022   4.582   0.181 -1.1052 -0.1612  1.7174
 2676SOL     OW 8926   4.312   6.580   2.379  0.3012  0.2374 -0.2668
 2676SOL    HW1 8927   4.348   6.494   2.414 -1.9753 -0.7906 -0.2786
 2676SOL    HW2 8928   4.237   6.612   2.439  1.6708  2.7332  0.2780
 2677SOL     OW 8929   1.365   5.596   2.964 -0.2422  1.0134  0.1354
 2677SOL    HW1 8930   1.438   5.532   2.987 -0.1632  1.2813  0.6393
 2677SOL    HW2 8931   1.294   5.549   2.912 -0.3963  0.4155  0.8817
 2678SOL     OW 8932   6.987   6.002   0.743 -0.3291 -0.7803 -0.3205
 2678SOL    HW1 8933   6.896   6.036   0.719 -0.2635  0.6090  1.2750
 2678SOL    HW2 8934   6.990   5.903   0.728 -1.6138 -0.6397 -1.8047
 2679SOL     OW 8935   1.923   4.554   2.589 -0.0734  0.4420 -0.4105
 2679SOL    HW1 8936   1.978   4.634   2.566  2.8394 -1.7318 -1.6425
 2679SOL    HW2 8937   1.949   4.520   2.679  0.6205 -0.5348 -0.9550
 2680SOL     OW 8938   5.605   2.761   0.953 -0.4516  0.6473 -0.1441
 2680SOL    HW1 8939   5.666   2.688   0.983 -1.1875 -0.8701 -2.1461
 2680SOL    HW2 8940   5.511   2.741   0.982 -0.5180  1.3158  0.1335
 2681SOL     OW 8941   0.918   1.598   2.404 -0.0768 -0.1288 -0.6077
 2681SOL    HW1 8942   0.862   1.603   2.322  0.4539  0.3379 -0.9506
 2681SOL    HW2 8943   0.993   1.664   2.397  0.0627 -0.1953  0.1829
 2682SOL     OW 8944   6.602   2.980   2.632 -0.2222 -0.1618  0.0039
 2682SOL    HW1 8945   6.554   2.963   2.546 -0.2978  0.5925 -0.1076
 2682SOL    HW2 8946   6.668   2.907   2.648 -1.0460 -0.9415 -0.0920
 2683SOL     OW 8947   2.417   0.032   2.659  0.7826  0.6008 -0.1382
 2683SOL    HW1 8948   2.325   0.007   2.690  0.7610  1.0257  0.1510
 2683SOL    HW2 8949   2.480  -0.042   2.682  0.5861  0.4818  0.0282
 2684SOL     OW 8950   2.379   5.058   3.454 -0.1244  0.0792  0.1649
 2684SOL    HW1 8951   2.420   4.970   3.478 -1.1336 -0.6471 -0.6520
 2684SOL    HW2 8952   2.446   5.131   3.466  0.2575 -0.5747  2.4216
 2685SOL     OW 8953   0.169   5.263   4.494 -0.1574 -0.3619 -0.2935
 2685SOL    HW1 8954   0.109   5.202   4.547 -1.6938  2.6611  1.7291
 2685SOL    HW2 8955   0.116   5.339   4.457  2.0603  1.2799 -0.3196
 2686SOL     OW 8956   1.573   4.940   3.619 -0.0642  0.6045 -0.1087
 2686SOL    HW1 8957   1.653   4.920   3.675 -0.9845 -0.6623  0.8102
 2686SOL    HW2 8958   1.574   5.036   3.591  1.5498  0.7044  0.2191
 2687SOL     OW 8959   2.852   5.360   3.265  0.6884  0.4610 -0.1976
 2687SOL    HW1 8960   2.908   5.352   3.347 -0.5093  2.5901  0.9018
 2687SOL    HW2 8961   2.790   5.282   3.259  1.1645  0.0068  0.6385
 2688SOL     OW 8962   2.700   4.416   5.855 -0.0130 -0.1432 -0.6735
 2688SOL    HW1 8963   2.719   4.479   5.780  1.5373  0.6317  0.3067
 2688SOL    HW2 8964   2.660   4.332   5.818  1.0679  0.0478 -2.4269
 2689SOL     OW 8965   0.533   3.113   5.697  0.4578 -0.3163  0.4616
 2689SOL    HW1 8966   0.479   3.054   5.636  0.6350 -0.1958  0.1858
 2689SOL    HW2 8967   0.471   3.171   5.750  0.3370  0.2608 -0.3047
 2690SOL     OW 8968   3.779   3.549   5.120  0.5268  0.3287 -0.8778
 2690SOL    HW1 8969   3.786   3.618   5.193 -1.5495 -0.2340 -0.0686
 2690SOL    HW2 8970   3.756   3.461   5.161 -3.0441  0.4364 -2.2572
 2691SOL     OW 8971   2.045   6.801   1.779 -0.3596 -0.2296 -0.1923
 2691SOL    HW1 8972   2.039   6.899   1.796 -1.3758 -0.1716 -0.7656
 2691SOL    HW2 8973   2.096   6.784   1.695  1.6755 -0.3331  1.0025
 2692SOL     OW 8974   1.699   2.484   4.970 -0.3444 -0.1793  0.1068
 2692SOL    HW1 8975   1.796   2.483   4.993 -0.2200 -0.3418 -0.4091
 2692SOL    HW2 8976   1.646   2.444   5.045 -0.0115 -0.0920  0.3876
 2693SOL     OW 8977   2.624   4.941   1.602 -0.2987  0.0814  0.3923
 2693SOL    HW1 8978   2.567   4.935   1.684 -0.6511 -3.5465  0.0324
 2693SOL    HW2 8979   2.566   4.948   1.521 -0.0003  1.4687  0.2657
 2694SOL     OW 8980   2.292   2.646   2.716  0.6405  0.3600 -0.7009
 2694SOL    HW1 8981   2.370   2.592   2.747 -0.0404 -0.2325  0.0245
 2694SOL    HW2 8982   2.308   2.676   2.622  2.6403  1.9745  0.0646
 2695SOL     OW 8983   3.962   1.156   1.081  0.0299  0.5093  0.1110
 2695SOL    HW1 8984   3.954   1.256   1.078  0.1406  0.5396  0.7356
 2695SOL    HW2 8985   3.929   1.117   0.995  0.9429  1.1414 -0.5354
 2696SOL     OW 8986   2.243   2.532   5.254  0.7382  0.1149  0.2756
 2696SOL    HW1 8987   2.291   2.600   5.198  0.7976  1.3324  1.7356
 2696SOL    HW2 8988   2.149   2.522   5.222  1.0744 -0.0196 -0.6985
 2697SOL     OW 8989   2.174   0.934   3.661 -0.1483 -0.4521  0.0274
 2697SOL    HW1 8990   2.107   0.995   3.702  0.7996  0.3042  0.5091
 2697SOL    HW2 8991   2.246   0.989   3.617  0.6286 -1.2112  0.3107
 2698SOL     OW 8992   0.885   3.184   6.662  0.2773 -0.2856  0.2188
 2698SOL    HW1 8993   0.916   3.170   6.567 -0.6294 -0.5244 -0.0525
 2698SOL    HW2 8994   0.804   3.242   6.662  0.1709 -0.4308  0.8373
 2699SOL     OW 8995   1.146   4.404   4.540  0.9204  0.1921 -0.4320
 2699SOL    HW1 8996   1.179   4.312   4.557 -0.0312  0.0176  0.5724
 2699SOL    HW2 8997   1.123   4.415   4.443 -2.0936 -1.7295 -0.0784
 2700SOL     OW 8998   0.739   5.591   1.259 -0.4473  0.0324  0.4724
 2700SOL    HW1 8999   0.758   5.562   1.166  1.3863 -1.9676  1.3741
 2700SOL    HW2 9000   0.652   5.552   1.289  0.5679 -2.2796  0.6583
 2701SOL     OW 9001   1.651   0.030   5.656  0.1820  0.0512 -0.2964
 2701SOL    HW1 9002   1.557  -0.002   5.668  0.3805 -0.4037  0.0779
 2701SOL    HW2 9003   1.675   0.092   5.731  0.8492 -1.4434  0.7928
 2702SOL     OW 9004   6.045   0.194   3.250  0.1300 -0.3827 -0.5514
 2702SOL    HW1 9005   6.122   0.137   3.281  0.5993 -0.7193 -2.2533
 2702SOL    HW2 9006   6.015   0.252   3.326 -0.5649 -3.0416  1.3589
 2703SOL     OW 9007   0.648   3.515   3.229 -0.1570 -0.3174  0.1511
 2703SOL    HW1 9008   0.672   3.428   3.274 -0.8934 -0.3351  0.5338
 2703SOL    HW2 9009   0.711   3.533   3.154  0.7851 -0.5480  0.8793
 2704SOL     OW 9010   6.896   0.717   0.374 -0.4956 -0.4044  0.1657
 2704SOL    HW1 9011   6.811   0.679   0.410 -0.9250 -0.2001 -0.6226
 2704SOL    HW2 9012   6.878   0.768   0.291  0.2248  0.7209  0.6807
 2705SOL     OW 9013   0.066   3.356   1.611 -0.0540  0.3403  0.2631
 2705SOL    HW1 9014  -0.029   3.389   1.620 -0.7161 -0.9342 -1.6146
 2705SOL    HW2 9015   0.066   3.258   1.594  1.4299  0.7130 -2.3948
 2706SOL     OW 9016   6.534   1.751   1.990 -0.0693 -0.1096  0.6911
 2706SOL    HW1 9017   6.573   1.843   1.991  0.6531 -0.3773 -0.7520
 2706SOL    HW2 9018   6.451   1.750   1.935  0.8088 -0.6280 -0.6761
 2707SOL     OW 9019   5.875   0.915   6.384 -0.5066  0.0145  0.0313
 2707SOL    HW1 9020   5.964   0.929   6.340 -1.0221 -0.1386 -1.1036
 2707SOL    HW2 9021   5.888   0.880   6.476  0.6436  1.2905  0.3849
 2708SOL     OW 9022   3.007   4.690   5.566  0.0086  0.5026  0.0764
 2708SOL    HW1 9023   2.991   4.692   5.467  0.9080 -0.8416 -0.1336
 2708SOL    HW2 9024   2.929   4.647   5.611 -0.1941  0.6748 -0.1086
 2709SOL     OW 9025   2.922   0.785   0.284 -0.3781 -0.1420  0.7298
 2709SOL    HW1 9026   2.963   0.874   0.265 -0.8936 -0.6683 -3.8715
 2709SOL    HW2 9027   2.925   0.768   0.383  2.2199  3.6772  1.5412
 2710SOL     OW 9028   4.770   1.001   4.445  0.3036 -0.0191  0.0545
 2710SOL    HW1 9029   4.678   0.982   4.410  0.7749 -0.4389 -0.9905
 2710SOL    HW2 9030   4.765   1.014   4.544 -0.7227 -1.1047  0.1776
 2711SOL     OW 9031   0.363   6.758   2.567 -0.0728  0.1499  0.2105
 2711SOL    HW1 9032   0.387   6.714   2.480  2.4131  0.8275  0.4852
 2711SOL    HW2 9033   0.327   6.850   2.548 -0.3111 -0.0093 -0.1319
 2712SOL     OW 9034   2.819   4.876   3.499  0.0272 -0.5286  0.6938
 2712SOL    HW1 9035   2.875   4.894   3.418 -0.8830 -1.6952 -0.2320
 2712SOL    HW2 9036   2.879   4.861   3.578  0.9050  1.3225  0.4252
 2713SOL     OW 9037   0.183   2.602   6.169 -0.3085  0.1709 -0.5239
 2713SOL    HW1 9038   0.090   2.566   6.175 -0.5508  0.9095  0.5408
 2713SOL    HW2 9039   0.179   2.702   6.169  0.3525  0.2744 -3.0477
 2714SOL     OW 9040   4.818   5.771   0.231 -0.3385  0.2517  0.0733
 2714SOL    HW1 9041   4.885   5.698   0.220  0.0727  0.7949 -1.2185
 2714SOL    HW2 9042   4.826   5.810   0.323  0.0829 -0.6841  0.4473
 2715SOL     OW 9043   6.573   5.924   5.809  0.0880 -0.6210 -0.1654
 2715SOL    HW1 9044   6.561   6.021   5.790  2.3287 -0.2082  0.2066
 2715SOL    HW2 9045   6.528   5.870   5.738 -1.7113  0.6498 -0.0369
 2716SOL     OW 9046   4.718   5.924   2.736 -0.7752  0.0142  0.4661
 2716SOL    HW1 9047   4.718   5.962   2.828 -2.9052  3.5360 -0.7677
 2716SOL    HW2 9048   4.624   5.903   2.708 -0.5188  1.2363 -1.6057
 2717SOL     OW 9049   0.442   0.539   2.584  0.3725  0.4704  0.4225
 2717SOL    HW1 9050   0.409   0.561   2.493 -0.4156 -0.4906  0.4670
 2717SOL    HW2 9051   0.372   0.562   2.652 -1.4280 -3.8746  0.3265
 2718SOL     OW 9052   0.965   3.518   5.996  0.7155  0.2505  0.4931
 2718SOL    HW1 9053   0.907   3.444   5.961 -0.2268  0.6997  1.0630
 2718SOL    HW2 9054   1.056   3.482   6.015 -0.0952 -1.1539  2.1069
 2719SOL     OW 9055   5.034   4.345   3.609 -0.0505  0.2510 -0.2454
 2719SOL    HW1 9056   5.046   4.247   3.595 -1.6378 -0.3139  1.7443
 2719SOL    HW2 9057   5.076   4.395   3.534  2.6212 -1.8329 -0.3020
 2720SOL     OW 9058   0.015   1.528   2.411 -0.0874  0.0748 -0.0889
 2720SOL    HW1 9059  -0.050   1.550   2.484 -1.0685  2.7801 -1.6450
 2720SOL    HW2 9060   0.038   1.611   2.360  0.5666 -1.6550 -2.8448
 2721SOL     OW 9061   5.754   6.614   3.146  1.0389  0.3713  0.0332
 2721SOL    HW1 9062   5.827   6.678   3.122 -0.0697  1.0949 -1.6495
 2721SOL    HW2 9063   5.726   6.564   3.064 -0.4561  0.2402  0.5953
 2722SOL     OW 9064   0.938   4.754   1.433  0.4362  0.2404 -0.1618
 2722SOL    HW1 9065   0.906   4.661   1.417 -0.0336  0.2589  0.6423
 2722SOL    HW2 9066   0.914   4.782   1.525 -0.5877  1.6330 -0.8212
 2723SOL     OW 9067   1.960   2.510   5.070 -0.2127 -0.4188 -0.2952
 2723SOL    HW1 9068   1.949   2.609   5.077 -0.6456 -0.4537 -0.4464
 2723SOL    HW2 9069   2.040   2.489   5.014  0.1649 -0.1566  0.1329
 2724SOL     OW 9070   6.163   5.545   4.197  0.3367 -0.6100  0.3910
 2724SOL    HW1 9071   6.098   5.543   4.122  0.4645  1.4079  0.1584
 2724SOL    HW2 9072   6.214   5.460   4.200 -1.2303 -1.6109 -0.3826
 2725SOL     OW 9073   3.939   5.546   0.820  0.6901 -0.1626  0.0273
 2725SOL    HW1 9074   4.000   5.477   0.781  0.2158  0.5665 -2.1007
 2725SOL    HW2 9075   3.908   5.609   0.749 -1.7190  0.1475  1.2226
 2726SOL     OW 9076   3.353   6.234   1.878  0.6665  0.0820  0.4187
 2726SOL    HW1 9077   3.302   6.204   1.798  1.4039 -0.9861  0.3331
 2726SOL    HW2 9078   3.382   6.155   1.932 -0.7516  0.8020  2.3628
 2727SOL     OW 9079   0.317   6.453   5.996  0.0917  0.4959  0.0975
 2727SOL    HW1 9080   0.219   6.472   6.008  0.3531  2.5230 -0.6184
 2727SOL    HW2 9081   0.338   6.444   5.899  0.9912  2.7463  0.0082
 2728SOL     OW 9082   1.064   6.783   5.365 -0.1241  0.7327 -0.4448
 2728SOL    HW1 9083   1.043   6.858   5.427 -0.4103 -0.3508  0.8138
 2728SOL    HW2 9084   1.003   6.706   5.384  1.7359 -0.7128 -0.0243
 2729SOL     OW 9085   6.471   5.800   1.055  0.3518 -0.5357 -0.2143
 2729SOL    HW1 9086   6.553   5.848   1.026  0.4445 -0.1289  0.6934
 2729SOL    HW2 9087   6.453   5.723   0.993  2.5987 -1.9473  0.7537
 2730SOL     OW 9088   1.727   2.489   2.237 -0.3089 -0.4853 -0.7857
 2730SOL    HW1 9089   1.771   2.549   2.304  2.4861 -0.7385 -2.2364
 2730SOL    HW2 9090   1.656   2.435   2.282 -1.3995  2.2317  1.0454
 2731SOL     OW 9091   1.196   1.944   0.049  0.4412 -0.2235 -0.0518
 2731SOL    HW1 9092   1.152   1.876  -0.010  0.0098  1.1057 -1.3081
 2731SOL    HW2 9093   1.218   1.902   0.137 -0.6365 -1.7354 -0.4611
 2732SOL     OW 9094   5.788   3.890   4.785  0.7926  0.3606  0.1702
 2732SOL    HW1 9095   5.825   3.873   4.877  1.1252  1.3524  0.2278
 2732SOL    HW2 9096   5.690   3.910   4.792  1.0107  1.4021  0.4314
 2733SOL     OW 9097   3.812   1.237   6.031  0.2391  0.4045  0.6268
 2733SOL    HW1 9098   3.885   1.190   5.981  0.3268  1.0435  0.1508
 2733SOL    HW2 9099   3.723   1.197   6.005  0.4722 -1.2045  2.1106
 2734SOL     OW 9100   2.979   1.974   4.636 -0.1105 -0.1828  0.2651
 2734SOL    HW1 9101   3.044   2.001   4.708 -0.3239 -2.8009  1.5502
 2734SOL    HW2 9102   2.890   2.017   4.654 -0.2351 -1.0067  1.7723
 2735SOL     OW 9103   2.543   5.565   1.405  0.3508  0.3090 -0.1276
 2735SOL    HW1 9104   2.610   5.590   1.336  0.2461  0.1479 -0.2879
 2735SOL    HW2 9105   2.461   5.528   1.361  0.6492 -0.6860  0.1143
 2736SOL     OW 9106   2.312   6.435   5.031  0.5844  0.0993  0.4641
 2736SOL    HW1 9107   2.229   6.491   5.027  0.7414  0.3359  0.5066
 2736SOL    HW2 9108   2.357   6.449   5.120  1.5789  1.2751 -0.1961
 2737SOL     OW 9109   4.954   3.542   6.839 -0.0216  0.2728  1.1756
 2737SOL    HW1 9110   4.928   3.451   6.872 -0.4407  0.0057  0.1737
 2737SOL    HW2 9111   4.887   3.573   6.772  0.0151  1.4195  1.6564
 2738SOL     OW 9112   2.873   5.824   5.907  0.6237  0.2791 -0.2719
 2738SOL    HW1 9113   2.868   5.837   5.808 -0.4092  1.5970 -0.0797
 2738SOL    HW2 9114   2.795   5.768   5.937  0.6781  0.2663 -0.1542
 2739SOL     OW 9115   3.247   4.274   5.971 -0.4787 -0.3326 -0.1178
 2739SOL    HW1 9116   3.231   4.181   5.939  0.4988 -0.2517 -0.8884
 2739SOL    HW2 9117   3.162   4.327   5.966 -0.7245 -0.8022 -0.9813
 2740SOL     OW 9118   1.673   1.652   4.443 -0.3927 -0.3871  0.1284
 2740SOL    HW1 9119   1.758   1.651   4.496  1.2134  0.2901 -2.2789
 2740SOL    HW2 9120   1.621   1.735   4.466  0.9630  0.6298 -0.3218
 2741SOL     OW 9121   1.579   1.937   5.309  0.3961  0.3322 -0.0434
 2741SOL    HW1 9122   1.512   1.943   5.383  0.9373  0.8654  0.4040
 2741SOL    HW2 9123   1.606   1.841   5.297  1.7906  0.4455  1.7932
 2742SOL     OW 9124   0.757   0.561   3.468  0.2259  0.0436  0.3911
 2742SOL    HW1 9125   0.801   0.574   3.379  1.1805  1.7987  1.0667
 2742SOL    HW2 9126   0.763   0.646   3.521 -0.7596 -0.8041  1.9504
 2743SOL     OW 9127   0.123   5.385   5.300  0.4862 -0.7610  0.1425
 2743SOL    HW1 9128   0.037   5.365   5.347  0.4954 -3.1549 -0.6810
 2743SOL    HW2 9129   0.191   5.316   5.326  1.2546 -0.6176 -1.3793
 2744SOL     OW 9130   4.796   6.605   0.628  0.2791  0.7006  0.1319
 2744SOL    HW1 9131   4.824   6.625   0.535 -0.7639  0.1792 -0.3110
 2744SOL    HW2 9132   4.699   6.581   0.630  0.4287  0.0758  1.2534
 2745SOL     OW 9133   3.463   5.630   0.986  0.3320 -0.1384 -0.1567
 2745SOL    HW1 9134   3.404   5.678   1.051 -0.0001 -0.5780 -0.1306
 2745SOL    HW2 9135   3.514   5.559   1.034 -0.3445 -0.8510 -0.4719
 2746SOL     OW 9136   1.506   3.605   1.636  0.2052  0.1122 -0.0190
 2746SOL    HW1 9137   1.473   3.544   1.564  0.2680 -0.3237  0.3129
 2746SOL    HW2 9138   1.530   3.693   1.597  4.2385 -1.3542 -1.3464
 2747SOL     OW 9139   3.811   5.413   2.614 -0.0446  0.0513  0.3930
 2747SOL    HW1 9140   3.804   5.487   2.547  0.7753 -1.7188 -1.7466
 2747SOL    HW2 9141   3.724   5.401   2.660 -0.8463  0.8706 -0.8603
 2748SOL     OW 9142   5.889   1.000   5.034  0.5118 -0.1141  0.4147
 2748SOL    HW1 9143   5.863   0.923   5.093 -3.0368 -0.8331 -1.7968
 2748SOL    HW2 9144   5.890   0.969   4.938  2.2081  1.9112 -0.2928
 2749SOL     OW 9145   5.713   6.578   1.696 -0.2812  0.0186 -0.1119
 2749SOL    HW1 9146   5.801   6.622   1.676 -0.4015 -0.2552 -1.3703
 2749SOL    HW2 9147   5.651   6.592   1.618 -1.4479  0.4361  0.8661
 2750SOL     OW 9148   7.022   0.949   0.868 -0.5703 -0.2786  0.3298
 2750SOL    HW1 9149   6.975   0.881   0.812  0.3286  0.0578 -0.8687
 2750SOL    HW2 9150   7.029   0.915   0.962 -2.9503 -0.4419  0.5209
 2751SOL     OW 9151   2.043   6.543   0.431  0.0805 -0.0958 -0.0372
 2751SOL    HW1 9152   2.060   6.589   0.344  1.8070 -1.5975 -0.5664
 2751SOL    HW2 9153   2.000   6.454   0.414 -0.9842  0.2327  0.7901
 2752SOL     OW 9154   1.367   6.131   5.445  0.2722  0.2841  0.4820
 2752SOL    HW1 9155   1.271   6.122   5.470  0.4044  1.9008  1.7837
 2752SOL    HW2 9156   1.375   6.171   5.354 -0.3087  0.7488  0.6311
 2753SOL     OW 9157   3.279   6.363   4.092 -0.0524 -0.1560  0.5415
 2753SOL    HW1 9158   3.365   6.343   4.139  1.6583  0.2191 -2.2151
 2753SOL    HW2 9159   3.254   6.459   4.109  2.2204  0.9373 -1.5490
 2754SOL     OW 9160   1.213   5.720   2.653 -0.6739  0.5166 -0.4315
 2754SOL    HW1 9161   1.198   5.646   2.719  0.0246  0.1732 -0.6386
 2754SOL    HW2 9162   1.233   5.805   2.702 -2.9584  0.9499 -0.1598
 2755SOL     OW 9163   4.264   5.583   2.190 -0.9677 -0.1106 -0.2244
 2755SOL    HW1 9164   4.302   5.675   2.183 -0.9276  0.0269  1.4509
 2755SOL    HW2 9165   4.321   5.519   2.140 -1.9765  1.0018 -2.9976
 2756SOL     OW 9166   0.483   2.725   5.200  0.1433 -0.0712 -0.0115
 2756SOL    HW1 9167   0.572   2.770   5.208  0.3145 -0.3044 -0.5151
 2756SOL    HW2 9168   0.413   2.793   5.179  0.3823 -0.0179 -0.6621
 2757SOL     OW 9169   5.533   5.144   5.515 -0.0081 -0.3443 -0.8944
 2757SOL    HW1 9170   5.597   5.068   5.524 -0.4024 -0.6870 -0.9541
 2757SOL    HW2 9171   5.485   5.137   5.427 -2.3093 -1.8313  0.3488
 2758SOL     OW 9172   0.099   5.535   0.377 -0.2494 -0.7352 -0.1308
 2758SOL    HW1 9173   0.087   5.610   0.443 -0.5520 -1.3268  0.4949
 2758SOL    HW2 9174   0.192   5.499   0.385  0.3979  0.5424 -1.4794
 2759SOL     OW 9175   3.108   3.922   3.713 -0.1501 -0.2488  0.7633
 2759SOL    HW1 9176   3.177   3.849   3.712 -0.4434 -0.5503  1.5883
 2759SOL    HW2 9177   3.029   3.893   3.767 -1.7104 -0.5807 -1.5375
 2760SOL     OW 9178   5.717   6.051   4.081 -0.1902 -0.4845 -0.8952
 2760SOL    HW1 9179   5.781   6.061   4.157  0.7696  1.6170 -1.9077
 2760SOL    HW2 9180   5.767   6.052   3.995 -1.5324  1.3206 -1.7159
 2761SOL     OW 9181   2.372   3.413   5.493  0.0575 -0.2203  0.2701
 2761SOL    HW1 9182   2.290   3.470   5.495  0.2152  0.0393 -0.2772
 2761SOL    HW2 9183   2.364   3.347   5.418  0.5833  0.1786 -0.1503
 2762SOL     OW 9184   3.606   0.059   2.945  0.2704 -0.3687  0.0291
 2762SOL    HW1 9185   3.671   0.002   2.995  0.6515  0.1653  0.1650
 2762SOL    HW2 9186   3.644   0.151   2.935 -0.3829 -0.1016 -0.0672
 2763SOL     OW 9187   5.210   0.990   3.022  0.3349  0.1274 -0.2003
 2763SOL    HW1 9188   5.120   0.959   2.992  0.1436 -0.4960  0.9457
 2763SOL    HW2 9189   5.207   1.089   3.039  0.0742  0.2389 -0.8774
 2764SOL     OW 9190   4.494   1.277   2.546  0.0785  0.4130 -0.1108
 2764SOL    HW1 9191   4.454   1.298   2.635  0.9268 -0.1512  0.4134
 2764SOL    HW2 9192   4.572   1.337   2.530 -0.3932  0.8851 -0.7334
 2765SOL     OW 9193   6.182   6.363   5.635  0.1557 -0.8550 -0.3162
 2765SOL    HW1 9194   6.212   6.308   5.714  2.2723  1.8970  0.9768
 2765SOL    HW2 9195   6.116   6.431   5.665 -3.4324 -3.2004 -2.1360
 2766SOL     OW 9196   4.161   5.994   6.243 -0.1030 -0.3688 -0.2243
 2766SOL    HW1 9197   4.241   5.936   6.225 -0.6953 -1.0434 -0.7194
 2766SOL    HW2 9198   4.078   5.945   6.218 -0.7058  0.2083  0.5859
 2767SOL     OW 9199   0.362   0.229   6.035  0.4252 -0.8509 -0.2967
 2767SOL    HW1 9200   0.338   0.288   5.958 -0.8259 -0.5412  0.2961
 2767SOL    HW2 9201   0.278   0.194   6.077  1.1220 -2.2344  0.0075
 2768SOL     OW 9202   5.260   1.270   0.649 -0.0150  0.0989  0.1726
 2768SOL    HW1 9203   5.323   1.211   0.599  0.0354  0.0921  0.2440
 2768SOL    HW2 9204   5.293   1.364   0.647  1.2519 -0.2569  2.1953
 2769SOL     OW 9205   6.859   6.069   1.441  0.4221 -0.3610  0.0624
 2769SOL    HW1 9206   6.889   6.047   1.348 -0.2168 -0.9142 -0.0150
 2769SOL    HW2 9207   6.767   6.107   1.438 -0.2283 -1.8536  0.6102
 2770SOL     OW 9208   1.756   0.145   6.885 -0.1736 -0.1380 -0.4794
 2770SOL    HW1 9209   1.763   0.138   6.785 -0.0939  3.2988 -0.8457
 2770SOL    HW2 9210   1.845   0.168   6.924 -0.3797 -0.5793  0.2728
 2771SOL     OW 9211   3.566   6.546   5.105  0.3904 -0.3914  0.3026
 2771SOL    HW1 9212   3.610   6.604   5.174  0.4530  0.8091 -0.7005
 2771SOL    HW2 9213   3.634   6.517   5.038  0.6294 -2.7530  1.4678
 2772SOL     OW 9214   5.309   1.026   2.385 -0.0235 -0.6208 -0.4833
 2772SOL    HW1 9215   5.371   0.951   2.408  0.4119 -0.0674  0.2025
 2772SOL    HW2 9216   5.363   1.108   2.366 -0.5267  0.5820  2.6325
 2773SOL     OW 9217   3.945   6.750   5.473 -0.1292  0.5493  0.6304
 2773SOL    HW1 9218   3.858   6.783   5.436 -0.4694 -0.3176  0.6494
 2773SOL    HW2 9219   4.020   6.792   5.423 -0.5645  0.9731  0.3281
 2774SOL     OW 9220   5.040   0.681   3.795 -0.4113 -0.1645 -0.2747
 2774SOL    HW1 9221   5.036   0.584   3.771  0.1259  0.4181 -3.2213
 2774SOL    HW2 9222   4.983   0.733   3.731 -1.1325  1.4411  1.5907
 2775SOL     OW 9223   6.243   2.982   5.196 -0.0894 -0.2397  0.0243
 2775SOL    HW1 9224   6.247   3.015   5.290 -0.2162  0.5857 -0.2570
 2775SOL    HW2 9225   6.231   2.883   5.196  0.1092 -0.2671  0.8761
 2776SOL     OW 9226   5.412   3.925   6.879  0.2239 -0.0741 -0.4728
 2776SOL    HW1 9227   5.405   4.025   6.886 -2.8129 -0.1420 -1.0084
 2776SOL    HW2 9228   5.323   3.884   6.898  1.4074 -2.7406 -0.1503
 2777SOL     OW 9229   1.367   6.445   6.422  0.2321 -0.2582 -0.4408
 2777SOL    HW1 9230   1.310   6.372   6.461 -0.1954 -0.9711 -2.2924
 2777SOL    HW2 9231   1.457   6.408   6.399  0.2830 -0.0011 -0.6592
 2778SOL     OW 9232   0.359   6.402   4.829  0.0364 -0.3953 -0.0610
 2778SOL    HW1 9233   0.357   6.373   4.925  0.0266 -1.1819 -0.2866
 2778SOL    HW2 9234   0.452   6.432   4.805  0.2396 -0.9782 -0.0194
 2779SOL     OW 9235   5.160   2.983   3.771 -0.1000 -0.8461 -0.1252
 2779SOL    HW1 9236   5.161   2.883   3.773  0.6729 -0.8872 -1.4875
 2779SOL    HW2 9237   5.234   3.016   3.712  0.0161  0.5547  0.7418
 2780SOL     OW 9238   1.103   5.900   3.762 -0.1361 -0.1223 -0.0429
 2780SOL    HW1 9239   1.013   5.880   3.722  0.3505 -0.3581 -1.0632
 2780SOL    HW2 9240   1.135   5.820   3.813 -0.6041  0.0504  0.5336
 2781SOL     OW 9241   0.992   0.085   2.591  0.0577 -0.0156  0.5543
 2781SOL    HW1 9242   0.951   0.173   2.613  0.6543 -0.0065  1.7249
 2781SOL    HW2 9243   0.928   0.030   2.538 -0.5395  0.8939  0.3124
 2782SOL     OW 9244   6.569   0.952   4.318  0.5209  0.1335  0.4080
 2782SOL    HW1 9245   6.494   0.889   4.297 -1.8422  2.6736  0.5389
 2782SOL    HW2 9246   6.594   0.944   4.414 -0.4566  0.0517  0.6702
 2783SOL     OW 9247   1.892   2.025   4.704  0.0152  0.0831  0.5766
 2783SOL    HW1 9248   1.987   2.052   4.723  0.5325 -0.2764 -1.3216
 2783SOL    HW2 9249   1.858   2.076   4.625 -0.3183 -1.9589 -0.6613
 2784SOL     OW 9250   1.100   2.385   2.341 -0.0623 -0.6427  0.4073
 2784SOL    HW1 9251   1.021   2.369   2.281 -0.7650 -0.5458  1.2908
 2784SOL    HW2 9252   1.101   2.481   2.370  0.4192 -0.6296  0.3636
 2785SOL     OW 9253   4.920   3.294   3.647  0.0164 -0.0496 -0.3841
 2785SOL    HW1 9254   4.863   3.236   3.589 -0.7252  0.5974 -0.3283
 2785SOL    HW2 9255   4.942   3.378   3.598  1.5151 -0.5756 -0.6585
 2786SOL     OW 9256   5.834   0.264   1.030 -0.0727 -0.5749  0.8358
 2786SOL    HW1 9257   5.792   0.225   0.948  1.7331 -0.3192 -0.2791
 2786SOL    HW2 9258   5.903   0.201   1.066  1.5323  0.6840  0.1201
 2787SOL     OW 9259   0.469   5.172   6.398  0.0629 -0.8107 -0.4846
 2787SOL    HW1 9260   0.390   5.142   6.453 -1.0698  0.2631 -1.4852
 2787SOL    HW2 9261   0.553   5.150   6.448 -0.8992 -0.2573  1.5116
 2788SOL     OW 9262   0.691   6.688   6.591  0.8748  0.0357  0.6481
 2788SOL    HW1 9263   0.702   6.589   6.601 -0.8667 -0.2836 -0.2874
 2788SOL    HW2 9264   0.773   6.734   6.625  1.5411 -1.6971  1.4893
 2789SOL     OW 9265   0.272   2.043   2.124  0.3463  0.1152  0.6494
 2789SOL    HW1 9266   0.176   2.013   2.128  0.6541 -0.8058  2.5516
 2789SOL    HW2 9267   0.297   2.083   2.213  1.9456 -0.4069  0.4572
 2790SOL     OW 9268   6.952   5.112   1.283  0.4802  0.0367  0.2583
 2790SOL    HW1 9269   6.947   5.152   1.192  0.6894  0.4653  0.4298
 2790SOL    HW2 9270   6.992   5.021   1.278  0.0031 -0.1523 -0.1391
 2791SOL     OW 9271   1.058   2.517   6.595 -0.0108  0.2367  0.0281
 2791SOL    HW1 9272   1.121   2.595   6.590 -0.0030  0.2241 -0.0796
 2791SOL    HW2 9273   1.088   2.446   6.531 -0.1143  0.2153  0.0031
 2792SOL     OW 9274   2.647   2.385   1.067  0.2537 -0.1039  0.4897
 2792SOL    HW1 9275   2.698   2.353   0.987  1.2004  2.5061 -0.0484
 2792SOL    HW2 9276   2.707   2.385   1.147  1.1153  2.6092 -0.0644
 2793SOL     OW 9277   3.647   4.528   0.454  0.0537 -0.0419  0.5474
 2793SOL    HW1 9278   3.734   4.494   0.490  0.8127  1.8744  0.6553
 2793SOL    HW2 9279   3.644   4.627   0.464 -1.1167  0.2149 -1.6526
 2794SOL     OW 9280   2.399   2.125   0.994 -0.0521  0.0448  0.0085
 2794SOL    HW1 9281   2.475   2.063   0.979 -0.0764  0.2034 -0.8411
 2794SOL    HW2 9282   2.416   2.180   1.075 -0.4431 -1.6734  1.3141
 2795SOL     OW 9283   0.464   6.919   0.499 -0.0320 -0.6395  0.1892
 2795SOL    HW1 9284   0.519   6.923   0.416 -2.0436 -0.3852 -1.2007
 2795SOL    HW2 9285   0.503   6.851   0.561  2.9039  0.8349  0.1580
 2796SOL     OW 9286   3.799   5.713   0.623 -0.1736 -0.0671 -0.1315
 2796SOL    HW1 9287   3.702   5.703   0.646  0.1711 -0.1180  1.4690
 2796SOL    HW2 9288   3.823   5.810   0.621 -0.2378 -0.0575 -0.4331
 2797SOL     OW 9289   5.384   5.619   6.213 -0.1811 -0.3689 -0.0330
 2797SOL    HW1 9290   5.310   5.553   6.198 -1.2010  0.9817 -1.1849
 2797SOL    HW2 9291   5.347   5.712   6.214  1.5480  0.4014 -1.1932
 2798SOL     OW 9292   6.789   1.257   1.791 -0.0336 -0.1945  0.2495
 2798SOL    HW1 9293   6.760   1.339   1.741 -0.4497 -0.8048 -0.5242
 2798SOL    HW2 9294   6.776   1.272   1.889  0.3110  0.8250  0.1538
 2799SOL     OW 9295   4.647   0.657   2.616 -0.0573 -0.6056  0.1934
 2799SOL    HW1 9296   4.679   0.582   2.559  1.5996 -1.3239  1.9643
 2799SOL    HW2 9297   4.721   0.721   2.632 -1.1765  0.9215 -0.4461
 2800SOL     OW 9298   5.630   0.460   1.546 -0.0715  0.4652 -0.1303
 2800SOL    HW1 9299   5.611   0.376   1.496  1.4534  0.6581 -1.1017
 2800SOL    HW2 9300   5.584   0.537   1.501  2.0496  0.7903 -1.9196
 2801SOL     OW 9301   4.812   4.042   3.165  0.6066 -0.0016 -0.3686
 2801SOL    HW1 9302   4.799   4.120   3.104 -1.3430 -0.0238 -0.0268
 2801SOL    HW2 9303   4.833   4.076   3.257 -2.0239  0.2504  0.2091
 2802SOL     OW 9304   0.527   4.228   6.024 -0.0187  0.3650  0.1057
 2802SOL    HW1 9305   0.531   4.306   5.961  0.3209  0.1212 -0.1751
 2802SOL    HW2 9306   0.496   4.259   6.114 -0.8876  0.6576 -0.2790
 2803SOL     OW 9307   3.403   4.450   0.386  0.0369 -0.1410  0.2083
 2803SOL    HW1 9308   3.395   4.464   0.287 -0.1372  3.7732  0.5959
 2803SOL    HW2 9309   3.489   4.490   0.418  0.0448 -1.2665  1.6965
 2804SOL     OW 9310   3.208   1.184   2.757 -0.2335  0.3874  0.2359
 2804SOL    HW1 9311   3.222   1.088   2.785 -0.8268  0.0276 -0.6633
 2804SOL    HW2 9312   3.147   1.229   2.822 -1.8076 -0.5119 -0.5799
 2805SOL     OW 9313   4.176   6.166   0.083  0.8430  0.3612  0.1461
 2805SOL    HW1 9314   4.094   6.223   0.088  1.0436  0.7180 -0.4973
 2805SOL    HW2 9315   4.192   6.123   0.172 -0.6029 -0.5098  0.0126
 2806SOL     OW 9316   1.907   1.852   5.329 -0.6532 -0.6035  0.2994
 2806SOL    HW1 9317   1.874   1.819   5.240 -0.5317  0.1804 -0.0445
 2806SOL    HW2 9318   1.926   1.950   5.323  0.9951 -0.8682  0.7030
 2807SOL     OW 9319   4.645   1.813   3.488  0.0035 -0.0083 -0.1694
 2807SOL    HW1 9320   4.644   1.865   3.403 -0.4156 -0.2253 -0.2979
 2807SOL    HW2 9321   4.671   1.874   3.563  0.8910  0.0638 -0.5228
 2808SOL     OW 9322   0.495   6.505   6.862  1.1055 -0.4093 -0.4599
 2808SOL    HW1 9323   0.555   6.491   6.940  1.3958 -0.4729 -0.6942
 2808SOL    HW2 9324   0.523   6.446   6.786  0.2690 -1.0270 -0.3066
 2809SOL     OW 9325   1.691   6.635   6.273  0.0295  0.2845 -0.1373
 2809SOL    HW1 9326   1.733   6.646   6.183  0.0293 -0.7040 -0.2671
 2809SOL    HW2 9327   1.643   6.548   6.277  0.7159 -0.0656  1.0932
 2810SOL     OW 9328   1.384   0.311   2.061 -0.1722 -0.3327  0.1015
 2810SOL    HW1 9329   1.450   0.236   2.069  0.7209  0.3980 -0.1221
 2810SOL    HW2 9330   1.388   0.368   2.144  0.1088  0.2034 -0.2730
 2811SOL     OW 9331   2.035   6.882   6.472 -0.6918 -0.0962  0.2600
 2811SOL    HW1 9332   2.087   6.948   6.525 -2.6905  1.7285  0.0688
 2811SOL    HW2 9333   2.034   6.794   6.520 -0.4547  0.8301  2.0494
 2812SOL     OW 9334   2.558   0.231   5.793 -0.3903 -0.3923  0.0273
 2812SOL    HW1 9335   2.644   0.262   5.753 -0.1315 -0.6811  0.3566
 2812SOL    HW2 9336   2.575   0.154   5.855 -1.1170 -1.7451 -1.3753
 2813SOL     OW 9337   4.934   1.262   6.128  0.1505 -0.2845 -0.3728
 2813SOL    HW1 9338   5.019   1.215   6.150  0.3079 -2.6214 -4.7295
 2813SOL    HW2 9339   4.864   1.239   6.195  1.0916 -4.4064 -0.5331
 2814SOL     OW 9340   1.841   4.263   6.741 -0.3255 -0.1073  0.1968
 2814SOL    HW1 9341   1.777   4.308   6.680 -0.4079  0.5697  0.7675
 2814SOL    HW2 9342   1.790   4.216   6.814 -0.2141 -0.5713 -0.0201
 2815SOL     OW 9343   0.077   0.143   5.253 -0.3995  1.0991  0.0461
 2815SOL    HW1 9344   0.159   0.113   5.302  0.2144  0.5988 -1.2366
 2815SOL    HW2 9345   0.016   0.191   5.316 -0.7852 -1.5961  1.8668
 2816SOL     OW 9346   1.246   5.820   4.937  0.2037 -0.5681  0.6128
 2816SOL    HW1 9347   1.196   5.901   4.905  3.0721  1.0261 -0.2041
 2816SOL    HW2 9348   1.181   5.750   4.967 -2.4399  1.3358 -0.3112
 2817SOL     OW 9349   1.615   1.170   1.661 -0.5245 -0.7369  0.1346
 2817SOL    HW1 9350   1.523   1.175   1.624 -0.1215  1.8887 -0.7388
 2817SOL    HW2 9351   1.670   1.108   1.605 -1.1602 -0.4581 -0.8234
 2818SOL     OW 9352   2.330   0.431   6.093 -0.3076  0.5032  0.3261
 2818SOL    HW1 9353   2.377   0.413   6.179  1.2907 -0.8184 -0.7715
 2818SOL    HW2 9354   2.382   0.498   6.040 -0.4756  0.2001 -0.2300
 2819SOL     OW 9355   6.280   0.343   6.738 -0.5441 -0.1745  0.1372
 2819SOL    HW1 9356   6.202   0.392   6.698  0.1373  0.4897 -0.4009
 2819SOL    HW2 9357   6.277   0.247   6.709 -0.4005  0.1581 -1.0213
 2820SOL     OW 9358   2.694   3.450   1.237  0.1367  0.1557  0.4472
 2820SOL    HW1 9359   2.600   3.467   1.265 -0.8553 -2.7331 -0.8171
 2820SOL    HW2 9360   2.717   3.508   1.159  0.1074  2.1579  1.8287
 2821SOL     OW 9361   1.801   3.680   4.898 -0.2443  0.5660 -0.1687
 2821SOL    HW1 9362   1.789   3.778   4.879  0.7495  0.8735  0.6880
 2821SOL    HW2 9363   1.781   3.661   4.994  0.0870  0.0306 -0.1995
 2822SOL     OW 9364   4.881   3.641   0.643  0.1226  0.3737 -0.2713
 2822SOL    HW1 9365   4.909   3.639   0.547  1.6455  0.1710  0.1556
 2822SOL    HW2 9366   4.838   3.728   0.664 -0.3990  0.3460 -1.1774
 2823SOL     OW 9367   6.693   3.232   3.394  0.3390 -0.1056  0.0203
 2823SOL    HW1 9368   6.643   3.220   3.308 -2.0755  0.2596  1.3007
 2823SOL    HW2 9369   6.649   3.302   3.449  1.5002 -0.7118  1.8176
 2824SOL     OW 9370   1.375   5.614   5.218 -0.0127 -0.2311  0.4989
 2824SOL    HW1 9371   1.439   5.689   5.204 -1.5231  0.8726 -1.0131
 2824SOL    HW2 9372   1.403   5.536   5.163  1.1874 -0.5704  1.5422
 2825SOL     OW 9373   4.804   5.812   6.980 -0.2115 -0.1241 -0.3318
 2825SOL    HW1 9374   4.895   5.774   6.964  1.1549  2.9503 -0.5151
 2825SOL    HW2 9375   4.779   5.796   7.076  0.2934 -1.3617 -0.3793
 2826SOL     OW 9376   1.865   2.524   1.765 -0.0300 -0.3129 -0.0219
 2826SOL    HW1 9377   1.799   2.451   1.786 -0.6381  0.2963  0.2378
 2826SOL    HW2 9378   1.952   2.505   1.810 -0.2202 -0.8166  0.1383
 2827SOL     OW 9379   6.615   2.459   0.512  0.1660 -0.3976 -0.6042
 2827SOL    HW1 9380   6.590   2.432   0.605  1.8417  1.3821  0.4249
 2827SOL    HW2 9381   6.702   2.418   0.487 -0.8641 -1.9066 -1.9536
 2828SOL     OW 9382   2.342   4.951   0.454  0.0314  0.0394  0.5346
 2828SOL    HW1 9383   2.368   4.897   0.534  0.8432  0.6922  0.7319
 2828SOL    HW2 9384   2.322   4.891   0.377  0.3495 -0.5554  0.9130
 2829SOL     OW 9385   3.365   4.500   1.674 -0.1058 -0.4875  0.0154
 2829SOL    HW1 9386   3.284   4.477   1.729 -1.1545  0.0732 -1.2536
 2829SOL    HW2 9387   3.429   4.552   1.731 -1.3279  0.3993  0.6470
 2830SOL     OW 9388   1.001   5.675   4.932 -0.3214  0.5692  0.0340
 2830SOL    HW1 9389   0.976   5.578   4.926 -0.9899  0.7558 -0.3335
 2830SOL    HW2 9390   0.978   5.720   4.846  0.3574  0.9738  0.0610
 2831SOL     OW 9391   6.263   2.049   2.769  0.1008  0.1334 -0.0675
 2831SOL    HW1 9392   6.176   2.001   2.756  0.1983  0.2404 -1.2517
 2831SOL    HW2 9393   6.247   2.132   2.822 -0.4546 -0.0596  0.0771
 2832SOL     OW 9394   0.576   3.153   4.636  0.9488  0.1044  0.0983
 2832SOL    HW1 9395   0.669   3.190   4.643  0.5516  1.0157  0.8011
 2832SOL    HW2 9396   0.540   3.172   4.545  1.9351 -1.4890 -0.6660
 2833SOL     OW 9397   5.533   2.611   3.812  0.2351 -0.1506  0.5297
 2833SOL    HW1 9398   5.516   2.517   3.784 -0.0201 -0.1444  0.6576
 2833SOL    HW2 9399   5.632   2.627   3.820  0.2569 -0.6323  1.2757
 2834SOL     OW 9400   2.186   6.324   4.764 -0.1260  0.2097  0.5420
 2834SOL    HW1 9401   2.117   6.263   4.804 -1.0084  1.5438  1.1328
 2834SOL    HW2 9402   2.239   6.367   4.836  0.6860 -0.0734  0.1197
 2835SOL     OW 9403   0.210   6.134   0.769 -0.5472  0.1350 -0.5112
 2835SOL    HW1 9404   0.124   6.083   0.762 -0.3380 -0.0685 -1.8930
 2835SOL    HW2 9405   0.286   6.075   0.740  0.0951  0.2777  0.7916
 2836SOL     OW 9406   3.031   6.354   2.309 -0.3533  0.0241 -0.1397
 2836SOL    HW1 9407   3.000   6.261   2.328  0.4308 -0.2955 -0.3652
 2836SOL    HW2 9408   3.067   6.359   2.216  0.9370  0.1774  0.3406
 2837SOL     OW 9409   5.309   3.894   2.507 -0.9500  0.0816 -0.3608
 2837SOL    HW1 9410   5.266   3.804   2.512 -2.6863  0.8555 -0.6255
 2837SOL    HW2 9411   5.299   3.931   2.415 -0.8671  0.8327 -0.0729
 2838SOL     OW 9412   1.355   5.330   5.571  0.0481 -0.0526  0.3674
 2838SOL    HW1 9413   1.292   5.402   5.599 -0.9801 -0.4158 -0.9365
 2838SOL    HW2 9414   1.430   5.324   5.637  0.2876  2.3428  0.3997
 2839SOL     OW 9415   4.728   1.487   5.997  0.2238  0.0280 -0.9262
 2839SOL    HW1 9416   4.696   1.582   5.996 -0.8247 -0.2583  0.7866
 2839SOL    HW2 9417   4.774   1.468   6.084  0.5454 -1.0013 -1.3081
 2840SOL     OW 9418   1.385   4.722   4.270 -0.4435 -0.0357  0.5542
 2840SOL    HW1 9419   1.478   4.709   4.236  0.2471 -3.1709  3.1966
 2840SOL    HW2 9420   1.320   4.707   4.195  1.0655  0.5268 -0.9366
 2841SOL     OW 9421   5.102   3.812   4.513 -0.6515 -0.4269  0.4576
 2841SOL    HW1 9422   5.064   3.789   4.603  0.9614 -0.1455  1.2462
 2841SOL    HW2 9423   5.182   3.754   4.495 -1.8402 -1.5561 -1.4973
 2842SOL     OW 9424   0.464   6.222   3.528 -0.8801  0.0033  0.3424
 2842SOL    HW1 9425   0.548   6.204   3.477 -0.3432 -2.0777  1.8416
 2842SOL    HW2 9426   0.485   6.228   3.626 -2.3120  0.8265  0.6252
 2843SOL     OW 9427   6.981   3.039   2.802  0.2221  0.1192  0.2145
 2843SOL    HW1 9428   6.979   3.093   2.886 -0.1859  0.7873 -0.2121
 2843SOL    HW2 9429   7.071   3.047   2.759 -0.0204  0.9712 -0.1586
 2844SOL     OW 9430   5.017   2.485   0.567  0.0518  0.0136  0.1831
 2844SOL    HW1 9431   4.982   2.553   0.503  0.0102  0.1464  0.3468
 2844SOL    HW2 9432   5.115   2.500   0.581 -0.3036  1.1585  1.5917
 2845SOL     OW 9433   4.121   0.388   2.377  0.2720 -0.2692 -0.4103
 2845SOL    HW1 9434   4.090   0.363   2.285 -1.5067 -1.0666  0.3730
 2845SOL    HW2 9435   4.069   0.468   2.409  0.5441 -0.2948  0.1053
 2846SOL     OW 9436   4.808   6.130   5.840 -0.0569 -0.0847  0.9782
 2846SOL    HW1 9437   4.775   6.216   5.878  2.4324  1.2342  0.3819
 2846SOL    HW2 9438   4.734   6.085   5.790 -1.1324  2.3439  0.2341
 2847SOL     OW 9439   5.919   6.466   2.448  0.1230 -0.1321 -0.3611
 2847SOL    HW1 9440   5.859   6.449   2.371  2.0466  0.8000 -2.1763
 2847SOL    HW2 9441   5.959   6.380   2.480 -0.2218 -0.4591 -0.8120
 2848SOL     OW 9442   0.063   1.518   5.594  0.0794 -0.2027 -0.0388
 2848SOL    HW1 9443   0.005   1.438   5.586  0.4438 -0.5528  0.6722
 2848SOL    HW2 9444   0.007   1.601   5.588 -0.3246 -0.5131 -0.5668
 2849SOL     OW 9445   4.980   2.279   1.444  0.3223  0.3190 -0.7503
 2849SOL    HW1 9446   4.958   2.248   1.537 -2.1799  1.8830 -0.7375
 2849SOL    HW2 9447   4.906   2.253   1.382  1.1507  0.7808 -1.9585
 2850SOL     OW 9448   6.844   1.971   1.790  0.1357  0.1622  0.0572
 2850SOL    HW1 9449   6.845   2.070   1.783  0.8457  0.2371  1.0313
 2850SOL    HW2 9450   6.795   1.932   1.712  0.2101  1.2527 -0.5443
 2851SOL     OW 9451   3.184   2.996   3.182  0.2682 -0.1670 -0.1097
 2851SOL    HW1 9452   3.190   3.091   3.214 -1.3519 -0.4993  1.3230
 2851SOL    HW2 9453   3.133   2.993   3.097 -0.6516  0.1523  0.4197
 2852SOL     OW 9454   2.013   4.874   5.228  0.4132  0.2636  0.3876
 2852SOL    HW1 9455   1.939   4.806   5.236 -0.6241  1.2013 -0.8646
 2852SOL    HW2 9456   2.054   4.889   5.318  0.3332 -1.6379  0.7813
 2853SOL     OW 9457   6.761   6.496   4.874  0.0253 -0.1445 -0.1119
 2853SOL    HW1 9458   6.799   6.587   4.890 -2.2080  1.6102 -3.3762
 2853SOL    HW2 9459   6.809   6.453   4.797 -0.8882 -0.3281 -0.5979
 2854SOL     OW 9460   4.175   6.502   5.756 -0.3489  0.2091 -0.0195
 2854SOL    HW1 9461   4.091   6.452   5.731 -1.2920  1.3814  0.6721
 2854SOL    HW2 9462   4.181   6.509   5.856 -1.2064  2.9293 -0.0743
 2855SOL     OW 9463   3.807   2.060   3.504 -0.4845  0.0297 -0.4678
 2855SOL    HW1 9464   3.893   2.020   3.474 -1.1374 -2.8321  1.1440
 2855SOL    HW2 9465   3.825   2.131   3.572  0.6101 -0.5936 -0.0788
 2856SOL     OW 9466   0.840   6.567   4.019 -0.1331  0.7768  0.2041
 2856SOL    HW1 9467   0.923   6.511   4.013  0.0489  0.8124  1.9719
 2856SOL    HW2 9468   0.807   6.586   3.927  0.4525 -1.2654 -0.4824
 2857SOL     OW 9469   0.541   4.088   0.912  0.1145 -0.2978 -0.1968
 2857SOL    HW1 9470   0.541   4.091   0.812 -0.4316 -1.7221 -0.2690
 2857SOL    HW2 9471   0.570   4.177   0.948  2.1084 -0.2856 -1.6294
 2858SOL     OW 9472   4.148   5.301   4.130  0.1716  0.1860 -0.5984
 2858SOL    HW1 9473   4.098   5.386   4.146 -1.4277 -0.5161 -1.6037
 2858SOL    HW2 9474   4.159   5.287   4.031  4.3334  1.3670 -0.4915
 2859SOL     OW 9475   5.729   3.453   6.686 -0.0807 -0.2163 -0.0830
 2859SOL    HW1 9476   5.674   3.395   6.626 -0.2379  0.2910 -0.4337
 2859SOL    HW2 9477   5.824   3.455   6.653 -0.0668 -0.3010 -0.0491
 2860SOL     OW 9478   2.553   6.430   3.665 -0.1052  0.3300 -0.4900
 2860SOL    HW1 9479   2.646   6.403   3.689 -0.7884 -0.3232  1.5790
 2860SOL    HW2 9480   2.532   6.519   3.706 -1.0258 -0.4322  0.7436
 2861SOL     OW 9481   4.626   4.176   5.358 -0.3728  0.0921  0.5294
 2861SOL    HW1 9482   4.612   4.247   5.289  1.3704  0.5028  0.5555
 2861SOL    HW2 9483   4.537   4.139   5.386 -1.1806  0.7223 -1.0702
 2862SOL     OW 9484   5.225   2.164   1.536 -0.3742 -0.3014 -0.4792
 2862SOL    HW1 9485   5.139   2.207   1.506 -0.9597 -0.1123  1.2983
 2862SOL    HW2 9486   5.300   2.230   1.527 -0.7654  0.1686 -0.3745
 2863SOL     OW 9487   5.885   2.174   6.710 -0.2115 -0.3307  0.3572
 2863SOL    HW1 9488   5.834   2.208   6.630  0.9302 -2.9303 -1.6071
 2863SOL    HW2 9489   5.871   2.237   6.786  0.4257  3.5933 -2.4333
 2864SOL     OW 9490   4.665   6.048   0.690 -0.3148 -0.2375 -0.1874
 2864SOL    HW1 9491   4.720   6.128   0.664 -0.2503 -0.1588  0.1896
 2864SOL    HW2 9492   4.710   5.999   0.763 -1.2848  0.4621  0.9148
 2865SOL     OW 9493   3.846   5.155   0.482 -0.0368 -0.0751 -0.0649
 2865SOL    HW1 9494   3.773   5.182   0.546  1.4018  2.5934  0.5940
 2865SOL    HW2 9495   3.868   5.232   0.422  1.6875 -1.0740 -0.7898
 2866SOL     OW 9496   6.921   4.672   5.892 -0.0599 -0.1165 -0.6895
 2866SOL    HW1 9497   6.827   4.705   5.897 -0.1153 -0.0721 -1.9434
 2866SOL    HW2 9498   6.925   4.577   5.924 -0.1150  0.5794  1.6204
 2867SOL     OW 9499   6.111   6.595   4.714 -0.1485 -0.6872  0.1656
 2867SOL    HW1 9500   6.123   6.574   4.811  1.9635 -0.3126  0.0190
 2867SOL    HW2 9501   6.125   6.512   4.659 -1.1309 -0.8513  0.1297
 2868SOL     OW 9502   0.724   0.806   5.233 -0.5428  0.3513  0.5643
 2868SOL    HW1 9503   0.802   0.809   5.171 -0.6889 -0.9481  0.2942
 2868SOL    HW2 9504   0.698   0.711   5.250 -1.7206  0.7428  1.0859
 2869SOL     OW 9505   6.688   3.965   3.426 -0.5310  0.0554 -0.1134
 2869SOL    HW1 9506   6.720   4.032   3.492  0.5170  0.2986 -0.8410
 2869SOL    HW2 9507   6.592   3.982   3.405 -0.9210 -0.1095  1.4174
 2870SOL     OW 9508   5.347   6.321   1.810  0.2821 -0.1571 -0.3406
 2870SOL    HW1 9509   5.412   6.389   1.844  3.0419 -1.5137 -2.4808
 2870SOL    HW2 9510   5.344   6.325   1.710 -4.0679  0.6924 -0.3506
 2871SOL     OW 9511   3.652   1.181   3.056  0.0078 -0.2905 -0.2046
 2871SOL    HW1 9512   3.595   1.148   3.131  1.5033  0.5767  1.3723
 2871SOL    HW2 9513   3.747   1.156   3.073  0.3457 -0.3241 -1.9807
 2872SOL     OW 9514   4.797   5.815   0.820 -0.3303 -0.3687  0.2089
 2872SOL    HW1 9515   4.882   5.866   0.835 -0.0601 -1.0537  1.1115
 2872SOL    HW2 9516   4.773   5.765   0.903 -0.3244 -2.0776 -0.7766
 2873SOL     OW 9517   0.832   0.830   3.118 -0.4213 -0.0148  0.1007
 2873SOL    HW1 9518   0.753   0.890   3.131 -1.1412 -0.8824 -0.1078
 2873SOL    HW2 9519   0.865   0.836   3.024  0.1204  0.7603  0.3326
 2874SOL     OW 9520   0.349   0.060   0.744  0.1121 -0.4362 -0.4717
 2874SOL    HW1 9521   0.419   0.018   0.803  0.2284 -0.1582 -0.4099
 2874SOL    HW2 9522   0.360   0.026   0.650  1.1752  0.6002 -0.7426
 2875SOL     OW 9523   3.525   0.422   3.823 -0.2798  0.5029  0.4857
 2875SOL    HW1 9524   3.542   0.415   3.724 -2.0166 -0.8405  0.2360
 2875SOL    HW2 9525   3.545   0.334   3.867  1.2010  1.2986  1.4991
 2876SOL     OW 9526   6.598   1.034   1.368 -0.5825 -0.2004 -0.3967
 2876SOL    HW1 9527   6.499   1.022   1.372 -0.4918 -1.3884 -1.1160
 2876SOL    HW2 9528   6.632   1.058   1.459 -1.5413  0.3575 -0.1760
 2877SOL     OW 9529   0.045   2.855   5.856 -0.2663  0.7153 -0.5676
 2877SOL    HW1 9530   0.024   2.928   5.921  0.6856  0.9976 -0.5608
 2877SOL    HW2 9531   0.002   2.770   5.886 -1.1604  1.2045 -0.4318
 2878SOL     OW 9532   3.326   2.996   2.737  0.0294  0.0057  0.2377
 2878SOL    HW1 9533   3.335   2.952   2.647  1.8953 -0.3168  0.5558
 2878SOL    HW2 9534   3.359   3.090   2.732 -1.2269  0.4704  0.2690
 2879SOL     OW 9535   6.856   6.606   6.778 -0.0997 -0.1449  0.2697
 2879SOL    HW1 9536   6.823   6.614   6.684 -0.6094 -0.9502  0.3691
 2879SOL    HW2 9537   6.788   6.557   6.833 -0.5215  1.6648  1.4447
 2880SOL     OW 9538   1.661   1.866   3.591  0.0949  0.2718  0.6027
 2880SOL    HW1 9539   1.757   1.892   3.583  0.2391 -0.1814  0.8354
 2880SOL    HW2 9540   1.611   1.896   3.509  0.9333 -1.6523 -0.6920
 2881SOL     OW 9541   5.223   6.254   6.792 -0.0419 -0.0254  0.2567
 2881SOL    HW1 9542   5.143   6.312   6.779  0.4485  0.4023 -0.9982
 2881SOL    HW2 9543   5.193   6.159   6.805 -0.7643  0.1688  0.0520
 2882SOL     OW 9544   3.523   6.214   1.562  0.0842  0.0968 -0.2765
 2882SOL    HW1 9545   3.528   6.227   1.661 -1.1930  1.9122 -0.3838
 2882SOL    HW2 9546   3.450   6.149   1.540 -0.6916  0.8625 -0.0433
 2883SOL     OW 9547   4.817   4.378   1.599  0.0155  0.1080 -0.1846
 2883SOL    HW1 9548   4.910   4.348   1.621 -0.4853 -1.6708 -0.3260
 2883SOL    HW2 9549   4.815   4.416   1.507  0.3754 -1.0823 -0.7035
 2884SOL     OW 9550   5.958   4.361   1.694 -0.1175 -0.3374 -0.1927
 2884SOL    HW1 9551   5.947   4.457   1.719  3.2794  0.6276 -1.6996
 2884SOL    HW2 9552   6.006   4.313   1.768 -1.4214 -0.8065  0.3727
 2885SOL     OW 9553   0.246   4.858   3.818 -0.8240  0.9830  0.0610
 2885SOL    HW1 9554   0.154   4.842   3.781 -0.4418 -3.0025  0.3200
 2885SOL    HW2 9555   0.238   4.904   3.906 -2.7464 -0.3797  0.6821
 2886SOL     OW 9556   2.928   6.031   6.062 -0.7916  0.6098  0.1911
 2886SOL    HW1 9557   2.915   6.120   6.019  0.7862 -0.0797 -1.8694
 2886SOL    HW2 9558   2.888   5.960   6.004 -0.1867 -0.2018  0.7494
 2887SOL     OW 9559   0.650   6.755   1.985 -0.1355 -0.3897 -0.3240
 2887SOL    HW1 9560   0.743   6.747   1.947 -0.7824 -1.9136 -1.7029
 2887SOL    HW2 9561   0.600   6.826   1.935 -0.5531 -1.4637 -1.4882
 2888SOL     OW 9562   4.277   5.342   5.911  0.4869  0.0286 -0.0043
 2888SOL    HW1 9563   4.314   5.261   5.957  1.0897  0.4757  0.3123
 2888SOL    HW2 9564   4.352   5.404   5.888 -0.0212  0.7079  0.1629
 2889SOL     OW 9565   4.816   4.485   3.699  0.1187 -0.1147 -0.7068
 2889SOL    HW1 9566   4.771   4.541   3.629  0.5528  0.6743 -0.3702
 2889SOL    HW2 9567   4.900   4.446   3.661  1.1736  1.5551 -0.2136
 2890SOL     OW 9568   1.776   6.281   2.795  0.6079 -0.0082  0.6340
 2890SOL    HW1 9569   1.696   6.297   2.854  0.6750 -1.0915  1.0304
 2890SOL    HW2 9570   1.750   6.223   2.719  1.2296 -1.1998  1.3081
 2891SOL     OW 9571   1.423   1.964   4.770  0.1666 -0.1621 -0.4098
 2891SOL    HW1 9572   1.459   2.018   4.846  1.8521  0.7716 -1.8155
 2891SOL    HW2 9573   1.471   1.877   4.765 -1.2581 -1.0627  0.7000
 2892SOL     OW 9574   6.818   3.295   1.153 -0.1064 -0.5770 -0.3882
 2892SOL    HW1 9575   6.748   3.229   1.179  0.5152 -0.7406  0.9453
 2892SOL    HW2 9576   6.836   3.357   1.230 -0.0577  0.6018 -1.3165
 2893SOL     OW 9577   0.812   1.386   6.028  0.7714  0.7336  0.1374
 2893SOL    HW1 9578   0.778   1.365   6.120  3.0553 -1.1516  0.6739
 2893SOL    HW2 9579   0.750   1.348   5.960  0.2087  0.1145  0.9761
 2894SOL     OW 9580   1.956   5.138   1.713 -0.0947 -0.1534 -0.5831
 2894SOL    HW1 9581   1.866   5.160   1.677  0.5223  0.3720 -1.8483
 2894SOL    HW2 9582   1.956   5.043   1.746 -1.3215  0.0974  0.1944
 2895SOL     OW 9583   5.906   5.311   5.674 -0.4479 -0.0966  0.1511
 2895SOL    HW1 9584   5.882   5.260   5.592 -2.9877  0.2801  0.5923
 2895SOL    HW2 9585   5.876   5.260   5.755  0.5849  0.2893  0.8078
 2896SOL     OW 9586   0.296   0.326   6.841 -0.1237 -0.0839  0.2218
 2896SOL    HW1 9587   0.267   0.389   6.912 -1.3423  0.3332 -0.6163
 2896SOL    HW2 9588   0.375   0.364   6.793 -0.6213  0.6397 -0.0345
 2897SOL     OW 9589   2.768   5.212   4.908  0.2549 -0.1779  0.5812
 2897SOL    HW1 9590   2.746   5.128   4.957 -2.0662 -0.0042 -0.0777
 2897SOL    HW2 9591   2.866   5.212   4.886  0.2397 -2.9547  0.1351
 2898SOL     OW 9592   4.106   3.140   1.793  0.1989  0.7131  0.0997
 2898SOL    HW1 9593   4.119   3.144   1.892  0.2105  1.1794  0.0834
 2898SOL    HW2 9594   4.184   3.183   1.748 -0.0301  0.9248 -0.0962
 2899SOL     OW 9595   5.463   2.155   2.431 -0.1629 -0.8068 -0.1612
 2899SOL    HW1 9596   5.499   2.224   2.368  0.8857 -0.5171  0.7148
 2899SOL    HW2 9597   5.363   2.162   2.434 -0.1065  0.3439 -0.4717
 2900SOL     OW 9598   4.612   3.010   6.604 -0.2725  0.2858  0.3202
 2900SOL    HW1 9599   4.680   3.079   6.626 -0.0392 -0.3656  1.7900
 2900SOL    HW2 9600   4.579   2.968   6.689 -0.4338 -1.3782 -0.5287
 2901SOL     OW 9601   6.981   1.681   2.106 -0.4185 -0.3278  0.9787
 2901SOL    HW1 9602   7.048   1.719   2.042 -0.2168 -0.9722  0.7894
 2901SOL    HW2 9603   6.911   1.631   2.054 -3.2600  3.4205  0.8043
 2902SOL     OW 9604   5.004   6.174   3.498 -0.1631 -0.0094  0.2952
 2902SOL    HW1 9605   4.926   6.122   3.534 -0.4567  1.6014  2.1656
 2902SOL    HW2 9606   4.985   6.199   3.403 -0.9455 -1.4490  0.0331
 2903SOL     OW 9607   0.162   4.453   1.820  0.2714  0.7610  0.2301
 2903SOL    HW1 9608   0.067   4.435   1.796  0.2515  0.3110  0.6364
 2903SOL    HW2 9609   0.173   4.447   1.919  0.9077 -0.1126  0.1191
 2904SOL     OW 9610   3.933   5.420   3.750  0.1191  0.1702 -0.0905
 2904SOL    HW1 9611   3.958   5.501   3.696 -0.7280  0.6124  0.1506
 2904SOL    HW2 9612   3.870   5.448   3.823  2.6227 -0.0527  2.3444
 2905SOL     OW 9613   2.664   3.237   1.395 -0.2381 -0.6402  0.4583
 2905SOL    HW1 9614   2.677   3.316   1.336  1.1793  1.0423  2.8534
 2905SOL    HW2 9615   2.598   3.260   1.467 -0.4201 -1.9354  0.7337
 2906SOL     OW 9616   0.728   5.428   6.811  0.3870 -0.1817  0.6324
 2906SOL    HW1 9617   0.778   5.342   6.811  0.4967 -0.1952 -1.9742
 2906SOL    HW2 9618   0.766   5.489   6.881  1.0516 -1.8071  1.7366
 2907SOL     OW 9619   0.422   2.835   5.890 -0.3526  0.2894 -0.9349
 2907SOL    HW1 9620   0.363   2.755   5.883  0.8571 -0.6374 -0.8855
 2907SOL    HW2 9621   0.513   2.807   5.923 -0.1774  1.8172 -0.0358
 2908SOL     OW 9622   3.288   6.371   2.378  0.5419  0.2305 -0.3361
 2908SOL    HW1 9623   3.190   6.370   2.357 -0.0633 -0.4071  2.1463
 2908SOL    HW2 9624   3.300   6.377   2.477  3.0667  1.5312 -0.6568
 2909SOL     OW 9625   0.156   1.002   6.267 -0.7669 -0.3330  0.1207
 2909SOL    HW1 9626   0.102   0.959   6.195  1.3560  0.7559 -2.3228
 2909SOL    HW2 9627   0.116   1.090   6.291 -1.0518 -0.3321 -0.3488
 2910SOL     OW 9628   1.399   6.951   4.790 -0.2440  0.3595 -0.7621
 2910SOL    HW1 9629   1.470   6.883   4.805 -0.8508  0.1754  1.6095
 2910SOL    HW2 9630   1.409   7.025   4.856 -1.9521  0.5795 -0.6931
 2911SOL     OW 9631   4.876   2.649   2.765  0.3410 -0.0344 -0.0355
 2911SOL    HW1 9632   4.808   2.714   2.731  0.9926 -0.0437 -1.4303
 2911SOL    HW2 9633   4.961   2.658   2.713  0.2735 -2.3986 -0.7002
 2912SOL     OW 9634   6.229   2.236   2.972  0.2758  0.2186 -0.3569
 2912SOL    HW1 9635   6.185   2.308   2.917 -1.1440 -0.3720 -0.0516
 2912SOL    HW2 9636   6.267   2.277   3.055  0.3035  0.7584 -0.6293
 2913SOL     OW 9637   6.475   0.512   4.090 -0.4976  0.2047  0.4481
 2913SOL    HW1 9638   6.544   0.440   4.092  0.2724  0.7099 -2.5195
 2913SOL    HW2 9639   6.388   0.476   4.124  0.7068 -1.0269  2.3847
 2914SOL     OW 9640   3.690   5.015   1.102 -0.5418 -0.0220  0.0555
 2914SOL    HW1 9641   3.697   5.017   1.002  1.9954  1.2391  0.1608
 2914SOL    HW2 9642   3.735   4.932   1.136  0.9770  0.8096  0.1869
 2915SOL     OW 9643   0.231   1.113   2.737 -0.1368  0.5138  0.2450
 2915SOL    HW1 9644   0.249   1.095   2.641  0.3658  1.1770  0.2039
 2915SOL    HW2 9645   0.318   1.127   2.785 -0.3862  0.2792  0.7731
 2916SOL     OW 9646   0.918   6.276   1.031  0.7558  0.0604  0.5764
 2916SOL    HW1 9647   0.901   6.277   1.130  0.4889 -1.4437  0.5736
 2916SOL    HW2 9648   1.002   6.226   1.012 -1.6827 -4.2138 -0.1763
 2917SOL     OW 9649   1.603   1.170   5.214 -0.5879  0.0178 -0.5504
 2917SOL    HW1 9650   1.566   1.179   5.121 -3.3847 -0.6823  0.3887
 2917SOL    HW2 9651   1.634   1.076   5.229  2.4924  0.7592 -1.5560
 2918SOL     OW 9652   7.009   1.062   7.013  0.5159 -0.0342  0.7029
 2918SOL    HW1 9653   7.094   1.063   7.065  0.2770  0.7606  1.0914
 2918SOL    HW2 9654   6.964   0.973   7.025  0.5183  0.0931  1.7803
 2919SOL     OW 9655   2.664   6.484   6.320 -0.2650 -0.5547  0.5082
 2919SOL    HW1 9656   2.624   6.561   6.269  0.4480  0.1312  0.9545
 2919SOL    HW2 9657   2.607   6.403   6.308 -0.4257 -0.2563 -0.8914
 2920SOL     OW 9658   2.011   3.954   1.991  0.1461 -0.1193 -0.1195
 2920SOL    HW1 9659   2.082   4.020   2.015 -0.1506 -0.0061  0.4418
 2920SOL    HW2 9660   2.029   3.868   2.039 -0.9841  0.4052  1.3070
 2921SOL     OW 9661   5.163   4.173   1.890 -0.0271  0.0498  0.5851
 2921SOL    HW1 9662   5.169   4.272   1.873 -0.5143  0.0827  0.5884
 2921SOL    HW2 9663   5.123   4.158   1.980  1.0895 -0.1451  1.0740
 2922SOL     OW 9664   4.416   6.458   3.459 -0.1797 -0.3381 -0.2333
 2922SOL    HW1 9665   4.347   6.530   3.472  0.4168  0.0221  1.2321
 2922SOL    HW2 9666   4.398   6.383   3.522  0.3349 -0.5687 -0.3553
 2923SOL     OW 9667   1.272   4.386   4.075 -0.3111 -0.3385  0.0765
 2923SOL    HW1 9668   1.344   4.408   4.010 -0.6453 -1.3519 -0.6645
 2923SOL    HW2 9669   1.305   4.316   4.139  0.0336  0.6840  1.0611
 2924SOL     OW 9670   4.190   2.084   0.534 -0.6280  0.1571  0.2075
 2924SOL    HW1 9671   4.148   1.994   0.521 -1.0869  0.4184 -0.1582
 2924SOL    HW2 9672   4.204   2.127   0.445 -1.0622  0.7358  0.4120
 2925SOL     OW 9673   3.396   1.562   4.063 -0.0731 -0.2877  0.6453
 2925SOL    HW1 9674   3.309   1.555   4.014 -0.3413  3.1485  0.3753
 2925SOL    HW2 9675   3.470   1.532   4.003 -0.7172  0.7155 -0.7135
 2926SOL     OW 9676   6.125   2.105   4.303 -0.6604  0.3234 -0.5269
 2926SOL    HW1 9677   6.113   2.066   4.212  1.1594  0.8601 -1.0355
 2926SOL    HW2 9678   6.206   2.164   4.304 -2.7764  3.5026  0.4038
 2927SOL     OW 9679   0.696   1.878   2.126  0.2470 -0.0185 -0.0956
 2927SOL    HW1 9680   0.718   1.919   2.038  2.8201  0.6095  0.7266
 2927SOL    HW2 9681   0.730   1.937   2.199 -0.6717 -1.1367  1.2958
 2928SOL     OW 9682   5.515   4.401   6.394 -0.2488 -0.0504 -0.5302
 2928SOL    HW1 9683   5.530   4.403   6.295  2.3337  1.0516 -0.1917
 2928SOL    HW2 9684   5.479   4.490   6.424 -0.5642 -0.2207 -0.3910
 2929SOL     OW 9685   2.488   2.109   3.030  0.0601 -0.3199  0.2843
 2929SOL    HW1 9686   2.480   2.172   2.952 -0.3143  0.0479  0.6125
 2929SOL    HW2 9687   2.471   2.016   2.999  1.6680 -0.4108 -0.4183
 2930SOL     OW 9688   1.768   3.255   4.056  0.4375  0.3733  0.9797
 2930SOL    HW1 9689   1.791   3.161   4.082  1.9860  0.1002 -1.1130
 2930SOL    HW2 9690   1.670   3.260   4.035  0.2577 -0.6811  1.4843
 2931SOL     OW 9691   6.364   3.529   5.096 -0.1920  0.3889 -0.1596
 2931SOL    HW1 9692   6.451   3.493   5.060 -0.2670  1.2890 -1.2886
 2931SOL    HW2 9693   6.298   3.454   5.104  0.4918 -0.2001  0.1456
 2932SOL     OW 9694   6.636   6.565   1.633 -0.1092  0.0764  0.5748
 2932SOL    HW1 9695   6.544   6.572   1.593  0.1638  0.1164 -0.0484
 2932SOL    HW2 9696   6.668   6.471   1.626  0.0117  0.1202  0.5458
 2933SOL     OW 9697   0.950   0.400   5.916  0.4605  0.8534  0.4680
 2933SOL    HW1 9698   0.865   0.407   5.863  0.1930 -1.1436  0.5536
 2933SOL    HW2 9699   1.028   0.421   5.857  0.0820 -0.2438 -0.4767
 2934SOL     OW 9700   5.419   6.671   1.612 -0.3065  0.2456 -0.2403
 2934SOL    HW1 9701   5.348   6.739   1.591 -0.1338  0.5550  0.1630
 2934SOL    HW2 9702   5.492   6.678   1.544 -0.0456  0.8228  0.0840
 2935SOL     OW 9703   0.581   4.194   6.728 -0.3741 -0.2666  0.4224
 2935SOL    HW1 9704   0.645   4.271   6.719 -0.1136 -0.6825 -2.0293
 2935SOL    HW2 9705   0.559   4.159   6.637 -1.0972 -2.6238  1.4369
 2936SOL     OW 9706   3.651   0.532   3.283  0.0094  0.0296  0.7376
 2936SOL    HW1 9707   3.684   0.466   3.216 -0.3453  0.3482  0.2442
 2936SOL    HW2 9708   3.718   0.542   3.356  0.0679 -0.8712  0.8174
 2937SOL     OW 9709   6.612   3.023   3.529 -0.0330  0.6480 -0.0609
 2937SOL    HW1 9710   6.658   3.085   3.464 -0.7491  0.1882 -1.0287
 2937SOL    HW2 9711   6.514   3.039   3.526 -0.0689  0.6747  0.9975
 2938SOL     OW 9712   0.149   4.623   1.162  0.0257 -0.3607  0.7348
 2938SOL    HW1 9713   0.060   4.579   1.167  0.4314 -1.0640  2.9192
 2938SOL    HW2 9714   0.205   4.593   1.240  1.4316  1.6154  0.5488
 2939SOL     OW 9715   0.238   5.933   1.844 -0.8843 -0.4159  0.1263
 2939SOL    HW1 9716   0.293   5.919   1.926 -0.5295 -0.4780 -0.1206
 2939SOL    HW2 9717   0.256   6.024   1.807  0.7984 -1.2529 -1.2475
 2940SOL     OW 9718   3.600   4.932   2.255  0.1648 -0.2398 -0.1133
 2940SOL    HW1 9719   3.524   4.961   2.313  1.0714  0.5369  0.7416
 2940SOL    HW2 9720   3.566   4.905   2.165 -1.0945  0.2641  0.1946
 2941SOL     OW 9721   1.073   4.454   2.227 -0.2427  0.2773 -0.1161
 2941SOL    HW1 9722   1.170   4.470   2.212 -0.6929  1.3508 -2.3165
 2941SOL    HW2 9723   1.058   4.360   2.257  1.4970  0.3107  0.9918
 2942SOL     OW 9724   2.109   1.876   2.253  0.1358 -0.9957  0.2120
 2942SOL    HW1 9725   2.099   1.894   2.351 -1.8154 -1.5450  0.1527
 2942SOL    HW2 9726   2.071   1.787   2.231 -0.8767 -0.2390 -1.2856
 2943SOL     OW 9727   6.886   5.056   2.983  0.0412 -0.8481  0.3150
 2943SOL    HW1 9728   6.818   5.130   2.985  0.4730 -0.3699 -1.1198
 2943SOL    HW2 9729   6.843   4.972   3.015 -0.5999 -0.0989  1.5216
 2944SOL     OW 9730   1.581   3.773   2.237  0.0973 -0.0473 -0.1076
 2944SOL    HW1 9731   1.532   3.858   2.217  1.4180  0.8468  0.2816
 2944SOL    HW2 9732   1.551   3.702   2.175 -0.6050  0.8726 -0.8555
 2945SOL     OW 9733   5.319   3.118   0.869  0.0650  0.8743  0.5464
 2945SOL    HW1 9734   5.289   3.097   0.776 -1.7417 -1.9915  1.6474
 2945SOL    HW2 9735   5.406   3.073   0.887 -1.4939 -2.1299  1.3567
 2946SOL     OW 9736   3.991   3.680   4.545  0.2277  0.2823 -0.4458
 2946SOL    HW1 9737   3.977   3.777   4.567  0.6980  0.8035 -2.2331
 2946SOL    HW2 9738   3.904   3.639   4.518  0.1225  0.3680 -0.2383
 2947SOL     OW 9739   7.001   6.844   1.794 -0.3593 -0.1934  0.0116
 2947SOL    HW1 9740   6.965   6.934   1.821 -1.6924 -0.4088 -0.9552
 2947SOL    HW2 9741   6.928   6.776   1.801  0.9068 -1.4533  1.7639
 2948SOL     OW 9742   4.835   5.530   4.813 -0.4373  0.6676 -0.2866
 2948SOL    HW1 9743   4.924   5.503   4.849 -0.9297  0.3300  0.7359
 2948SOL    HW2 9744   4.841   5.546   4.715  1.1000  2.2420  0.0369
 2949SOL     OW 9745   0.875   0.065   3.997  0.4514 -0.4141  0.1886
 2949SOL    HW1 9746   0.930  -0.005   3.952 -2.1880 -1.5474 -1.4840
 2949SOL    HW2 9747   0.834   0.028   4.080  2.3245  0.5304  1.6159
 2950SOL     OW 9748   4.250   4.928   2.375  0.1235  0.5556  0.4909
 2950SOL    HW1 9749   4.177   4.929   2.443 -0.0955  0.5303  0.2571
 2950SOL    HW2 9750   4.253   4.839   2.330 -0.7292  1.0495 -0.6019
 2951SOL     OW 9751   1.622   4.667   1.422 -0.1294  0.4408  0.1913
 2951SOL    HW1 9752   1.549   4.601   1.403 -1.2942  2.4213 -3.0997
 2951SOL    HW2 9753   1.583   4.746   1.469  0.6291  0.0783  1.4417
 2952SOL     OW 9754   6.867   1.454   2.650 -0.0859  0.5552 -0.4076
 2952SOL    HW1 9755   6.774   1.488   2.666 -0.3074  0.1349 -0.7824
 2952SOL    HW2 9756   6.916   1.449   2.737 -0.5131  0.4995 -0.1691
 2953SOL     OW 9757   0.554   5.353   1.913  0.1392 -0.1005 -0.1819
 2953SOL    HW1 9758   0.494   5.276   1.890  0.9433 -1.4078  1.8254
 2953SOL    HW2 9759   0.523   5.435   1.864 -1.2720 -1.4768 -1.7090
 2954SOL     OW 9760   6.781   4.224   6.219 -0.2076 -0.6891 -0.5861
 2954SOL    HW1 9761   6.877   4.247   6.234 -0.1742 -1.0024 -0.3154
 2954SOL    HW2 9762   6.725   4.268   6.290 -0.1091 -1.7015  0.1401
 2955SOL     OW 9763   1.638   5.941   0.079  0.3989  0.2967  0.8371
 2955SOL    HW1 9764   1.713   5.940   0.146  2.2571 -0.5246 -1.1425
 2955SOL    HW2 9765   1.558   5.986   0.119  2.6196  3.2654  2.2988
 2956SOL     OW 9766   5.733   4.290   4.936  0.4065 -0.1463 -0.5276
 2956SOL    HW1 9767   5.685   4.212   4.897 -1.4964 -0.2193  1.7152
 2956SOL    HW2 9768   5.812   4.258   4.989  1.6389 -0.2074 -2.3055
 2957SOL     OW 9769   0.428   4.546   1.084  0.1178  0.2479 -0.3129
 2957SOL    HW1 9770   0.423   4.645   1.100  0.7305  0.1657  0.4046
 2957SOL    HW2 9771   0.380   4.498   1.157 -0.4186  0.0098 -0.8054
 2958SOL     OW 9772   3.633   2.808   1.977  0.7286  0.4189 -0.2838
 2958SOL    HW1 9773   3.705   2.767   1.921  0.5591  1.2059 -1.1076
 2958SOL    HW2 9774   3.544   2.787   1.937  0.6708  2.1917 -1.1744
 2959SOL     OW 9775   1.591   2.661   4.582  0.3413  0.2849  0.2394
 2959SOL    HW1 9776   1.581   2.638   4.679 -0.5309  0.3545  0.1761
 2959SOL    HW2 9777   1.581   2.760   4.571 -0.1198  0.2156  0.0177
 2960SOL     OW 9778   5.679   5.382   1.077  0.6285 -0.2044 -0.1811
 2960SOL    HW1 9779   5.610   5.423   1.018  0.3759 -1.6102 -0.8932
 2960SOL    HW2 9780   5.634   5.331   1.151  0.9251  0.1515  0.2511
 2961SOL     OW 9781   5.784   0.666   1.243  0.0963 -0.1811 -0.4987
 2961SOL    HW1 9782   5.744   0.758   1.246 -0.6901 -0.5048 -0.9679
 2961SOL    HW2 9783   5.713   0.599   1.226  0.5904 -0.9462  0.3551
 2962SOL     OW 9784   4.289   1.073   5.613  0.8680  0.1049 -0.2317
 2962SOL    HW1 9785   4.203   1.091   5.660 -0.1273  1.0100 -2.2797
 2962SOL    HW2 9786   4.353   1.147   5.630  0.9660 -0.1615  0.6189
 2963SOL     OW 9787   1.976   0.325   4.855 -0.0851 -0.7411 -0.1628
 2963SOL    HW1 9788   1.946   0.409   4.901  0.4079 -1.1781  0.9964
 2963SOL    HW2 9789   2.051   0.284   4.907  0.8253 -1.0097 -1.6463
 2964SOL     OW 9790   1.722   0.742   6.261  0.1583  0.2343  0.9901
 2964SOL    HW1 9791   1.768   0.731   6.173  1.1070  1.3385  1.3249
 2964SOL    HW2 9792   1.697   0.652   6.297  0.9495 -0.3097  0.2167
 2965SOL     OW 9793   6.286   1.336   1.495  0.1095 -0.2170 -0.1407
 2965SOL    HW1 9794   6.301   1.252   1.547 -0.0013 -0.0245  0.2083
 2965SOL    HW2 9795   6.267   1.411   1.559 -2.1144 -0.3892 -0.5322
 2966SOL     OW 9796   5.120   1.255   3.215 -0.0843  0.5785 -0.4936
 2966SOL    HW1 9797   5.086   1.310   3.292 -0.4243  1.1154 -1.0132
 2966SOL    HW2 9798   5.072   1.282   3.131  0.4673  0.1898 -0.9457
 2967SOL     OW 9799   4.599   0.391   5.495 -0.0342  0.3686  0.5609
 2967SOL    HW1 9800   4.663   0.385   5.571  0.0606  1.6482  0.6044
 2967SOL    HW2 9801   4.605   0.308   5.440  1.4515  0.3408  0.7263
 2968SOL     OW 9802   0.944   3.674   3.319 -0.2763 -0.7235 -0.1450
 2968SOL    HW1 9803   0.923   3.617   3.239 -0.2782  0.0539 -0.7047
 2968SOL    HW2 9804   0.875   3.658   3.390  0.0343 -1.8374 -0.0631
 2969SOL     OW 9805   4.411   1.862   5.832 -0.1131  0.0622  0.5122
 2969SOL    HW1 9806   4.482   1.905   5.777  0.2227 -0.0171  0.8819
 2969SOL    HW2 9807   4.343   1.820   5.771  1.0418 -1.3372  0.1289
 2970SOL     OW 9808   0.928   3.793   0.682  0.3939 -0.7556 -0.4604
 2970SOL    HW1 9809   0.830   3.781   0.699  0.4510 -0.1784  0.2835
 2970SOL    HW2 9810   0.951   3.751   0.594  0.0134 -3.3875  0.6126
 2971SOL     OW 9811   4.012   3.989   4.868  0.1818 -0.8132  0.0922
 2971SOL    HW1 9812   4.098   4.039   4.869  0.0387 -0.5576 -0.1559
 2971SOL    HW2 9813   4.030   3.891   4.859  0.3948 -0.6157 -2.1927
 2972SOL     OW 9814   0.586   6.737   5.927 -0.6670  0.3990 -0.4027
 2972SOL    HW1 9815   0.488   6.756   5.919 -0.7319 -0.4710 -1.9763
 2972SOL    HW2 9816   0.600   6.638   5.930  0.1444  0.5247  0.4448
 2973SOL     OW 9817   4.925   0.699   4.842  0.0173 -0.3747  0.8822
 2973SOL    HW1 9818   4.893   0.777   4.788 -1.5377 -1.6148 -0.0557
 2973SOL    HW2 9819   4.849   0.639   4.863  1.3108 -2.1255  0.8091
 2974SOL     OW 9820   6.003   4.375   1.253 -0.0065  0.2937  0.0615
 2974SOL    HW1 9821   5.905   4.390   1.247 -0.0988  0.0718  0.9806
 2974SOL    HW2 9822   6.039   4.358   1.161 -0.7810  0.5881 -0.3091
 2975SOL     OW 9823   0.635   4.777   4.707  0.1646  0.2194  0.7056
 2975SOL    HW1 9824   0.627   4.772   4.807 -0.1208 -1.3670  0.6161
 2975SOL    HW2 9825   0.729   4.801   4.683  0.5346 -0.5400  1.3392
 2976SOL     OW 9826   2.371   6.364   1.079 -0.1736 -0.0767 -1.0029
 2976SOL    HW1 9827   2.377   6.272   1.118  2.1836  0.7722  0.8393
 2976SOL    HW2 9828   2.443   6.376   1.010 -0.1386  0.5188 -0.8729
 2977SOL     OW 9829   1.905   2.412   3.764 -0.2345 -0.7968 -0.4693
 2977SOL    HW1 9830   1.942   2.423   3.672 -4.1094  0.2715 -2.0835
 2977SOL    HW2 9831   1.849   2.329   3.768 -1.5397  0.0691  0.3220
 2978SOL     OW 9832   3.794   4.889   0.348  0.0438 -0.1460 -0.8680
 2978SOL    HW1 9833   3.785   4.985   0.374  1.8328 -1.0044  3.8172
 2978SOL    HW2 9834   3.888   4.859   0.361 -0.8951 -3.0662  0.0643
 2979SOL     OW 9835   2.274   1.870   6.926  0.7094  0.0224  0.1946
 2979SOL    HW1 9836   2.368   1.901   6.942  0.0514  2.0117  0.4475
 2979SOL    HW2 9837   2.235   1.920   6.849 -0.2136 -0.6649  0.2002
 2980SOL     OW 9838   2.433   4.622   1.073 -0.4042  0.2232  0.5150
 2980SOL    HW1 9839   2.455   4.650   1.167  0.9585  1.5259 -0.1616
 2980SOL    HW2 9840   2.365   4.548   1.076 -0.4241  0.2604  2.5142
 2981SOL     OW 9841   1.665   3.345   6.872  0.3279  0.0079  0.2032
 2981SOL    HW1 9842   1.658   3.328   6.970  1.0924 -0.4264  0.1917
 2981SOL    HW2 9843   1.662   3.444   6.855  2.1569  0.2039  0.8508
 2982SOL     OW 9844   6.426   2.992   2.356  0.4097  0.2902 -0.1141
 2982SOL    HW1 9845   6.367   2.936   2.298  0.1623 -1.2323  1.5166
 2982SOL    HW2 9846   6.458   3.072   2.304  0.0744 -0.8927 -2.2551
 2983SOL     OW 9847   6.922   3.798   6.463 -0.2053 -0.3899  0.0684
 2983SOL    HW1 9848   6.912   3.804   6.364 -1.8731 -1.2905  0.1534
 2983SOL    HW2 9849   6.891   3.883   6.505  0.0294 -0.1966 -0.1493
 2984SOL     OW 9850   0.213   5.224   1.705  0.9258 -0.2895  0.7641
 2984SOL    HW1 9851   0.203   5.307   1.651 -0.7960 -0.8847  0.0993
 2984SOL    HW2 9852   0.296   5.175   1.677 -0.2867 -0.9684 -1.9601
 2985SOL     OW 9853   0.035   6.966   5.888  0.0053  0.4525 -0.3055
 2985SOL    HW1 9854   0.048   6.967   5.988  1.4442  0.0260 -0.4719
 2985SOL    HW2 9855  -0.010   7.051   5.860  0.0499  0.8037  0.6512
 2986SOL     OW 9856   4.334   2.142   6.704 -0.1558  0.0761  0.3191
 2986SOL    HW1 9857   4.404   2.103   6.763  1.9158  1.4194 -1.1373
 2986SOL    HW2 9858   4.278   2.068   6.666 -1.3238 -0.8474  3.5453
 2987SOL     OW 9859   2.792   6.682   6.980 -0.8087 -0.0660  0.8015
 2987SOL    HW1 9860   2.887   6.653   6.996 -0.2882  0.5898 -0.8904
 2987SOL    HW2 9861   2.777   6.692   6.882 -2.1416  1.4901  1.1327
 2988SOL     OW 9862   1.415   3.273   0.048  0.1554  0.1048 -0.2007
 2988SOL    HW1 9863   1.330   3.235   0.010  0.1684 -0.4276  0.3023
 2988SOL    HW2 9864   1.440   3.354  -0.005 -0.0590 -0.3745 -1.0738
 2989SOL     OW 9865   6.423   1.918   6.076 -0.1227 -0.0022  0.2142
 2989SOL    HW1 9866   6.412   1.820   6.092 -0.0898 -0.2153 -1.0405
 2989SOL    HW2 9867   6.405   1.940   5.980 -0.0296  1.2087  0.4495
 2990SOL     OW 9868   4.836   2.416   5.933  0.4410  0.1458  0.7536
 2990SOL    HW1 9869   4.913   2.386   5.990  0.3678 -2.5939 -0.4400
 2990SOL    HW2 9870   4.855   2.393   5.838 -1.9230 -0.7743  0.4500
 2991SOL     OW 9871   0.129   2.896   0.940 -0.3930 -0.4580 -0.6951
 2991SOL    HW1 9872   0.182   2.906   0.856 -0.2332  1.4805 -0.3907
 2991SOL    HW2 9873   0.164   2.818   0.992  1.6801  0.3274 -0.8517
 2992SOL     OW 9874   2.708   3.312   6.050  0.5007 -0.6495 -0.1072
 2992SOL    HW1 9875   2.751   3.385   6.104  0.1924 -0.0606 -0.6444
 2992SOL    HW2 9876   2.730   3.224   6.091 -1.2581 -0.1533  2.0845
 2993SOL     OW 9877   4.718   6.088   6.339 -0.0131  0.5349 -0.3794
 2993SOL    HW1 9878   4.677   6.095   6.248 -0.6357  1.8005 -0.0217
 2993SOL    HW2 9879   4.768   6.171   6.360  1.3380 -0.3195 -0.1138
 2994SOL     OW 9880   3.165   6.942   3.774 -0.4364 -0.0141 -0.0508
 2994SOL    HW1 9881   3.221   6.924   3.854 -0.6979 -1.2094 -0.1150
 2994SOL    HW2 9882   3.082   6.991   3.802 -0.1075  0.3840  0.2584
 2995SOL     OW 9883   0.651   6.786   1.285 -0.4745 -0.1550  0.2687
 2995SOL    HW1 9884   0.736   6.733   1.290 -0.5727 -0.1928  2.3331
 2995SOL    HW2 9885   0.669   6.881   1.308 -0.4929  0.5673 -2.3909
 2996SOL     OW 9886   1.326   0.101   5.418  0.2025  0.3080 -0.4124
 2996SOL    HW1 9887   1.363   0.056   5.499 -0.8878 -2.0052 -1.1308
 2996SOL    HW2 9888   1.252   0.163   5.445 -2.5909 -3.0341  0.2264
 2997SOL     OW 9889   4.726   6.524   5.149  0.3675  0.2080 -0.0549
 2997SOL    HW1 9890   4.725   6.452   5.218 -1.7065  0.7205  0.5373
 2997SOL    HW2 9891   4.647   6.584   5.163  0.7459  1.2295 -1.9598
 2998SOL     OW 9892   0.819   0.750   0.001 -0.1221  0.3334 -0.1719
 2998SOL    HW1 9893   0.846   0.661  -0.038  2.5640  1.9352 -2.2921
 2998SOL    HW2 9894   0.829   0.747   0.100 -2.0965 -2.2723  0.0908
 2999SOL     OW 9895   0.487   5.520   1.373 -0.6413  0.0505  0.1091
 2999SOL    HW1 9896   0.443   5.448   1.319 -1.5549  0.0774  0.7814
 2999SOL    HW2 9897   0.444   5.608   1.353 -0.2290  0.2382  0.0511
 3000SOL     OW 9898   2.612   2.681   6.554 -0.1540  0.3100  0.2050
 3000SOL    HW1 9899   2.607   2.732   6.640  0.4780  1.5798 -0.4748
 3000SOL    HW2 9900   2.703   2.694   6.513 -0.2748 -0.6834 -0.4241
 3001SOL     OW 9901   3.127   1.682   5.374 -0.0726  0.1004 -0.3995
 3001SOL    HW1 9902   3.027   1.681   5.373 -0.1112  0.9515  0.6056
 3001SOL    HW2 9903   3.161   1.683   5.280 -0.9700 -1.2238 -0.7638
 3002SOL     OW 9904   2.431   3.180   0.247  0.4568 -0.1338 -0.0078
 3002SOL    HW1 9905   2.367   3.253   0.221  1.6255  1.4236  1.2765
 3002SOL    HW2 9906   2.478   3.147   0.165  1.1112  1.7604 -0.4522
 3003SOL     OW 9907   2.246   3.814   0.766  0.5224  0.3069 -1.1501
 3003SOL    HW1 9908   2.270   3.779   0.856 -0.6148 -0.5778 -1.1641
 3003SOL    HW2 9909   2.328   3.823   0.710  0.9999 -1.1292 -0.7083
 3004SOL     OW 9910   0.124   2.288   4.497  0.7080 -0.1099  0.6629
 3004SOL    HW1 9911   0.204   2.339   4.463  0.8214 -0.3371  0.5910
 3004SOL    HW2 9912   0.155   2.207   4.546  0.4827 -1.0049 -0.6440
 3005SOL     OW 9913   3.962   6.642   1.445  0.1746 -0.5915 -0.4374
 3005SOL    HW1 9914   4.053   6.620   1.411  0.2992 -1.2193  0.2792
 3005SOL    HW2 9915   3.962   6.734   1.484  0.2962 -0.2823 -1.1538
 3006SOL     OW 9916   5.391   3.038   5.462 -0.1619  0.0083 -0.4723
 3006SOL    HW1 9917   5.313   2.976   5.456  0.5092 -0.7906 -1.6168
 3006SOL    HW2 9918   5.419   3.048   5.557 -1.2131 -0.2518 -0.1242
 3007SOL     OW 9919   5.669   5.794   5.869 -0.3972 -0.1815 -0.3887
 3007SOL    HW1 9920   5.589   5.836   5.826  0.4212 -1.5481 -3.5446
 3007SOL    HW2 9921   5.743   5.861   5.872 -0.5835  0.0498 -0.7945
 3008SOL     OW 9922   5.119   4.059   4.406 -0.4628  0.6498 -0.2983
 3008SOL    HW1 9923   5.114   3.972   4.455  0.1399 -0.0604 -1.4439
 3008SOL    HW2 9924   5.067   4.128   4.455 -1.6236 -0.5534  0.2300
 3009SOL     OW 9925   3.730   3.893   6.560  0.1607  0.1707 -0.1074
 3009SOL    HW1 9926   3.824   3.915   6.586  0.9823 -1.5387 -1.4300
 3009SOL    HW2 9927   3.727   3.868   6.463 -1.4329 -1.0021  0.1974
 3010SOL     OW 9928   4.578   2.371   1.587  0.0223  0.1372  0.4847
 3010SOL    HW1 9929   4.596   2.437   1.514 -2.0334 -0.1081 -0.2965
 3010SOL    HW2 9930   4.544   2.286   1.547 -0.3459 -0.2984  1.6928
 3011SOL     OW 9931   3.284   6.874   0.011  0.0810 -0.0157  0.1882
 3011SOL    HW1 9932   3.300   6.785  -0.033  2.8601  0.3691  0.2502
 3011SOL    HW2 9933   3.189   6.878   0.043 -2.1592 -0.4968 -5.2700
 3012SOL     OW 9934   2.091   2.621   5.529  0.7770  0.1123 -0.2887
 3012SOL    HW1 9935   2.082   2.673   5.614 -1.0981  0.3784 -0.6052
 3012SOL    HW2 9936   2.178   2.572   5.529  1.5443  1.3902  1.0510
 3013SOL     OW 9937   1.545   5.607   6.565 -0.0790  0.0167  0.3471
 3013SOL    HW1 9938   1.617   5.612   6.496 -0.9035 -0.1312 -0.5557
 3013SOL    HW2 9939   1.467   5.556   6.528 -0.2797 -0.6491  1.6437
 3014SOL     OW 9940   3.264   6.473   0.082  0.4038 -0.5322 -1.2168
 3014SOL    HW1 9941   3.198   6.430   0.019  0.3948 -2.9948  0.3543
 3014SOL    HW2 9942   3.262   6.425   0.169  2.3569  1.1095 -0.2050
 3015SOL     OW 9943   2.243   6.044   6.269  0.3670 -0.1200  0.5944
 3015SOL    HW1 9944   2.185   6.008   6.343  2.1113 -1.9579  1.1407
 3015SOL    HW2 9945   2.337   6.051   6.301  1.1738 -0.9891 -1.4596
 3016SOL     OW 9946   3.674   0.051   5.870 -0.0424 -0.2535 -0.1909
 3016SOL    HW1 9947   3.673  -0.041   5.909 -0.2453 -0.2038 -0.0790
 3016SOL    HW2 9948   3.668   0.119   5.943  0.6812 -0.1370 -0.2339
 3017SOL     OW 9949   2.724   5.784   0.073 -0.2368 -0.2379 -0.0624
 3017SOL    HW1 9950   2.701   5.810  -0.020 -1.9968  1.5519  0.7916
 3017SOL    HW2 9951   2.657   5.717   0.107 -1.8432  1.7965  1.0233
 3018SOL     OW 9952   2.917   2.254   3.604 -0.4732  0.0364 -0.2249
 3018SOL    HW1 9953   2.860   2.314   3.660  0.2642  0.1900  0.3808
 3018SOL    HW2 9954   2.994   2.221   3.659  0.9086  1.1006 -1.4625
 3019SOL     OW 9955   0.426   1.525   5.964  0.4298 -0.3579 -0.3549
 3019SOL    HW1 9956   0.408   1.432   5.932 -0.3970  0.1588 -1.4570
 3019SOL    HW2 9957   0.429   1.587   5.886 -0.7911  0.8237  0.4961
 3020SOL     OW 9958   5.515   3.252   0.462 -0.0030 -0.5416 -0.0967
 3020SOL    HW1 9959   5.518   3.314   0.541 -1.9660 -1.2884  0.6241
 3020SOL    HW2 9960   5.468   3.297   0.386 -1.1164 -0.9836  0.3106
 3021SOL     OW 9961   5.577   5.411   5.414  0.2710  0.1516 -0.3295
 3021SOL    HW1 9962   5.676   5.399   5.414  0.2057 -0.4254 -0.8350
 3021SOL    HW2 9963   5.533   5.333   5.459 -0.0472 -0.5477 -1.8095
 3022SOL     OW 9964   3.323   0.295   1.996  0.3166 -0.6981 -0.3232
 3022SOL    HW1 9965   3.338   0.256   2.087  0.8914 -2.2303 -1.0411
 3022SOL    HW2 9966   3.382   0.249   1.930  2.0492  2.3555 -1.0525
 3023SOL     OW 9967   7.007   5.237   6.140  0.5491  0.6535  0.0633
 3023SOL    HW1 9968   7.007   5.316   6.079  0.7138 -0.2723 -1.1649
 3023SOL    HW2 9969   6.966   5.263   6.228  0.9246  2.1894 -0.1795
 3024SOL     OW 9970   5.425   0.501   3.442 -0.0609  0.3302  0.0678
 3024SOL    HW1 9971   5.328   0.478   3.432  0.1411 -0.8752  0.7169
 3024SOL    HW2 9972   5.475   0.470   3.361 -0.3505  1.8621 -0.7323
 3025SOL     OW 9973   3.428   4.065   1.537 -0.4550  0.7113 -0.2477
 3025SOL    HW1 9974   3.486   4.124   1.593  1.3333 -0.8595 -0.3392
 3025SOL    HW2 9975   3.418   3.976   1.580 -1.2361  0.3267 -1.1734
 3026SOL     OW 9976   6.090   5.331   1.886  0.2093  0.0296 -0.2070
 3026SOL    HW1 9977   6.019   5.349   1.954 -0.7647 -1.2445 -0.8198
 3026SOL    HW2 9978   6.111   5.415   1.836 -1.4333  0.3068 -0.4951
 3027SOL     OW 9979   4.739   0.051   0.761 -0.3029 -0.1785 -0.3984
 3027SOL    HW1 9980   4.806  -0.004   0.811 -1.1577 -0.5477  0.3478
 3027SOL    HW2 9981   4.786   0.130   0.721  0.5200 -0.2403  0.4042
 3028SOL     OW 9982   4.102   3.424   3.822  0.4748 -0.1695  0.1791
 3028SOL    HW1 9983   4.126   3.521   3.834  0.2001 -0.1720  0.8103
 3028SOL    HW2 9984   4.076   3.385   3.911 -1.8366 -0.1698 -0.4265
 3029SOL     OW 9985   6.325   3.279   4.776 -0.4091 -0.7565 -0.3480
 3029SOL    HW1 9986   6.274   3.365   4.776  0.2766 -0.2976  1.3553
 3029SOL    HW2 9987   6.314   3.233   4.688 -1.9822  0.3558 -0.7736
 3030SOL     OW 9988   0.725   3.538   5.640  0.2480 -1.0888 -0.3736
 3030SOL    HW1 9989   0.759   3.525   5.547 -1.3498 -4.5118 -0.6431
 3030SOL    HW2 9990   0.629   3.513   5.644  0.4613 -1.7978  2.3553
 3031SOL     OW 9991   1.729   4.791   5.567  0.5210 -0.0722 -0.0060
 3031SOL    HW1 9992   1.685   4.820   5.481  0.9107  0.7502  0.0671
 3031SOL    HW2 9993   1.782   4.708   5.550 -0.0647 -0.3833 -0.3730
 3032SOL     OW 9994   3.943   0.974   3.938  0.3253 -0.0757  0.0135
 3032SOL    HW1 9995   3.905   0.984   4.030 -0.6522  0.3839 -0.4341
 3032SOL    HW2 9996   3.923   1.056   3.884  1.9769  0.2059 -0.2462
 3033SOL     OW 9997   1.903   6.007   5.183 -0.2326 -0.1746 -0.5993
 3033SOL    HW1 9998   1.858   6.015   5.272  0.1915 -4.7362  0.2629
 3033SOL    HW2 9999   1.993   6.050   5.188 -1.3470  2.2735  0.0907
 3034SOL     OW10000   5.618   3.825   3.327  0.2553 -0.1131  0.1939
 3034SOL    HW110001   5.542   3.778   3.371  0.2134  1.5453  2.0921
 3034SOL    HW210002   5.583   3.895   3.265  0.1209  1.4341  1.9311
 3035SOL     OW10003   6.339   5.093   6.879  0.0090 -1.1218 -0.1743
 3035SOL    HW110004   6.347   5.107   6.780  0.5766 -2.2132 -0.2985
 3035SOL    HW210005   6.413   5.141   6.926  0.5565 -1.7404 -0.3980
 3036SOL     OW10006   2.785   2.814   6.014 -0.1171  0.3028 -0.0793
 3036SOL    HW110007   2.769   2.718   5.995  0.6604  0.0558  0.4377
 3036SOL    HW210008   2.784   2.866   5.929  1.0214 -0.4144 -0.5625
 3037SOL     OW10009   0.751   5.984   1.420 -0.1326 -0.0327 -0.8453
 3037SOL    HW110010   0.837   6.036   1.427 -0.6101  0.8211 -1.1802
 3037SOL    HW210011   0.755   5.905   1.481  0.7484  0.2021 -0.5790
 3038SOL     OW10012   0.184   5.275   6.524  0.6200  0.7202  0.2002
 3038SOL    HW110013   0.189   5.319   6.435  1.7184  0.4010  0.0990
 3038SOL    HW210014   0.173   5.345   6.595  1.9705  1.1450  0.0091
 3039SOL     OW10015   0.011   4.028   0.342 -0.4488 -0.4550  0.0292
 3039SOL    HW110016  -0.035   4.064   0.261 -0.6964 -4.7200 -2.0168
 3039SOL    HW210017   0.109   4.024   0.326  0.2739  3.5240  2.2332
 3040SOL     OW10018   1.959   5.721   6.752 -1.0053  0.5838  0.0012
 3040SOL    HW110019   1.891   5.649   6.761 -0.8025  0.3929  0.0116
 3040SOL    HW210020   2.037   5.687   6.699 -1.4091  1.1388 -0.9970
 3041SOL     OW10021   4.338   6.193   5.345 -0.4926 -0.2302  0.1739
 3041SOL    HW110022   4.295   6.146   5.268  0.9502 -3.0428  0.9404
 3041SOL    HW210023   4.437   6.175   5.343  0.3386  3.4055  0.2255
 3042SOL     OW10024   0.710   0.302   3.554  0.4701  0.4724 -0.2532
 3042SOL    HW110025   0.772   0.225   3.542  0.3508  0.4599 -0.8184
 3042SOL    HW210026   0.761   0.388   3.541  0.3776  0.4628 -0.6883
 3043SOL     OW10027   1.949   3.442   1.966  0.4509  0.4189 -0.2726
 3043SOL    HW110028   1.912   3.524   1.923  0.1653  0.3953 -0.0766
 3043SOL    HW210029   2.048   3.451   1.977  0.5995  0.2153 -1.3986
 3044SOL     OW10030   3.466   3.162   3.437 -0.6191 -0.5552 -0.1726
 3044SOL    HW110031   3.469   3.164   3.337  0.2421  3.3762 -0.2625
 3044SOL    HW210032   3.410   3.238   3.470  0.6304 -0.6006  2.3037
 3045SOL     OW10033   6.273   0.805   3.372  0.1794 -0.1194 -0.4630
 3045SOL    HW110034   6.327   0.722   3.355 -0.3981 -0.3702 -1.0930
 3045SOL    HW210035   6.179   0.779   3.394 -0.1754  0.3948 -1.3576
 3046SOL     OW10036   6.566   6.918   2.774 -0.2396 -0.1732  0.6784
 3046SOL    HW110037   6.633   6.955   2.838  0.2098 -0.1800  0.2213
 3046SOL    HW210038   6.596   6.937   2.680 -0.7188 -0.4545  0.4664
 3047SOL     OW10039   4.327   2.288   4.870 -0.3171  0.0445  0.0627
 3047SOL    HW110040   4.363   2.346   4.797 -0.8686 -0.5325 -0.6868
 3047SOL    HW210041   4.297   2.344   4.946  0.6468  0.6377  0.0207
 3048SOL     OW10042   6.125   4.106   6.384 -0.1235  0.3089 -0.2222
 3048SOL    HW110043   6.090   4.198   6.366 -0.7329  0.0752 -0.2614
 3048SOL    HW210044   6.060   4.056   6.442 -1.4945 -1.2375 -2.9072
 3049SOL     OW10045   1.533   5.452   2.393 -0.3534 -0.5587 -0.8359
 3049SOL    HW110046   1.499   5.545   2.384 -0.9571 -0.5782  0.8275
 3049SOL    HW210047   1.626   5.446   2.356 -0.3111  0.6881 -0.9685
 3050SOL     OW10048   3.707   2.908   4.702  0.2404  0.4268  0.2480
 3050SOL    HW110049   3.668   2.831   4.752 -0.0658 -0.3771 -1.1792
 3050SOL    HW210050   3.642   2.984   4.702  0.6485  0.8315  1.8841
 3051SOL     OW10051   3.266   4.314   1.477 -0.0320  0.1083 -0.4225
 3051SOL    HW110052   3.280   4.216   1.494 -5.1665 -0.7919  0.0852
 3051SOL    HW210053   3.276   4.364   1.564 -1.3509 -0.6193  0.1707
 3052SOL     OW10054   6.799   5.476   5.195  0.3343  0.0674  0.1314
 3052SOL    HW110055   6.817   5.574   5.182 -1.9031  0.4901 -0.1294
 3052SOL    HW210056   6.702   5.458   5.182  0.7327 -2.2541 -0.0250
 3053SOL     OW10057   1.606   0.240   3.842  0.1649 -0.2762  0.2436
 3053SOL    HW110058   1.622   0.225   3.939  2.4659  0.0770 -0.0067
 3053SOL    HW210059   1.608   0.151   3.794 -1.2757 -0.4774  0.5377
 3054SOL     OW10060   5.989   6.007   2.439 -0.2995  0.1765  0.6644
 3054SOL    HW110061   5.974   6.069   2.362 -3.3026  1.5018  2.1485
 3054SOL    HW210062   6.004   6.060   2.522  0.8146 -1.1965  1.3759
 3055SOL     OW10063   5.136   5.795   0.922 -0.2857 -0.1550 -0.1917
 3055SOL    HW110064   5.152   5.740   0.840 -0.1621 -1.6021  0.7773
 3055SOL    HW210065   5.082   5.742   0.988 -0.3287  0.9589  0.6934
 3056SOL     OW10066   4.728   1.155   6.947 -1.3440 -0.1538 -0.5299
 3056SOL    HW110067   4.792   1.097   6.897  0.0070 -0.3717  1.3439
 3056SOL    HW210068   4.634   1.127   6.926 -0.7500 -2.1667 -0.6645
 3057SOL     OW10069   5.442   3.558   3.535  0.7206 -0.0057  0.4258
 3057SOL    HW110070   5.504   3.481   3.518 -0.0641 -0.3155 -1.2294
 3057SOL    HW210071   5.401   3.548   3.626 -0.3174 -2.2881 -0.2147
 3058SOL     OW10072   4.870   3.751   5.958  0.1101  0.4224 -0.2104
 3058SOL    HW110073   4.876   3.845   5.993  0.3350 -0.4837  2.3884
 3058SOL    HW210074   4.930   3.692   6.011 -1.4879 -1.5466 -0.4942
 3059SOL     OW10075   2.330   2.843   3.213 -0.1750 -0.2861  0.1781
 3059SOL    HW110076   2.332   2.833   3.114  0.6281 -1.6518  0.3074
 3059SOL    HW210077   2.349   2.938   3.237  1.8300 -0.3481 -0.9383
 3060SOL     OW10078   1.008   2.364   3.900 -0.5254 -0.1298  0.6023
 3060SOL    HW110079   1.078   2.293   3.906 -0.3795 -0.0858 -0.4551
 3060SOL    HW210080   0.961   2.372   3.988 -0.0367 -1.0090  0.9523
 3061SOL     OW10081   5.040   5.425   2.268 -0.1584 -0.5341 -0.2825
 3061SOL    HW110082   4.987   5.490   2.215 -0.9058 -0.0139  1.0489
 3061SOL    HW210083   5.136   5.431   2.241 -0.2378  1.0093 -0.3294
 3062SOL     OW10084   4.083   5.448   6.089  0.5272  0.0233  0.1732
 3062SOL    HW110085   4.047   5.382   6.155 -3.2162  0.2091 -1.4404
 3062SOL    HW210086   4.129   5.399   6.015  1.6944 -0.3908  1.1252
 3063SOL     OW10087   5.515   5.845   1.290  0.0502  0.1507  0.6129
 3063SOL    HW110088   5.530   5.755   1.330  1.4237 -0.2297 -0.6659
 3063SOL    HW210089   5.524   5.915   1.361  2.0339 -0.5199  1.0913
 3064SOL     OW10090   5.791   0.749   5.134 -0.3680 -0.2667 -0.1438
 3064SOL    HW110091   5.692   0.750   5.147 -0.2371  2.5591  1.4289
 3064SOL    HW210092   5.837   0.731   5.221  0.5145 -0.4542 -0.6316
 3065SOL     OW10093   4.183   1.597   0.761 -0.3789  0.1592  0.1985
 3065SOL    HW110094   4.127   1.657   0.703  1.5365  1.3954 -0.4651
 3065SOL    HW210095   4.151   1.503   0.751 -1.1206  0.5455 -1.6608
 3066SOL     OW10096   5.463   1.606   5.779 -0.3134  0.5078 -0.2496
 3066SOL    HW110097   5.491   1.537   5.846 -1.4260  0.7126  0.4668
 3066SOL    HW210098   5.369   1.587   5.750 -0.5731  1.6141 -0.1633
 3067SOL     OW10099   1.935   1.306   4.558 -0.3498 -0.0418  0.5579
 3067SOL    HW110100   2.022   1.263   4.583 -0.0091  0.7499  0.7661
 3067SOL    HW210101   1.951   1.401   4.531 -0.5168 -1.0423 -3.7690
 3068SOL     OW10102   2.748   6.234   1.860 -0.0522  0.4079 -0.0045
 3068SOL    HW110103   2.806   6.258   1.782 -0.9735  0.7179 -0.6166
 3068SOL    HW210104   2.695   6.314   1.888  0.9141  0.5538  1.5491
 3069SOL     OW10105   6.823   6.205   3.415  0.3907  0.0913  0.0229
 3069SOL    HW110106   6.821   6.204   3.315  0.8673  0.4325  0.0082
 3069SOL    HW210107   6.848   6.297   3.447 -0.8392  0.2913  0.4771
 3070SOL     OW10108   1.679   0.347   0.242 -0.2816  0.2337  0.6116
 3070SOL    HW110109   1.639   0.263   0.206  1.0985 -0.4731  0.6333
 3070SOL    HW210110   1.778   0.345   0.229 -0.3396  2.5874 -0.8859
 3071SOL     OW10111   5.956   4.077   3.404  0.2944  0.1308  0.8154
 3071SOL    HW110112   6.050   4.071   3.437 -0.0902 -0.2673  1.8816
 3071SOL    HW210113   5.939   4.170   3.370  1.6109 -0.2894 -1.1310
 3072SOL     OW10114   1.113   2.134   4.304  0.2399 -0.2204 -0.2300
 3072SOL    HW110115   1.048   2.082   4.249 -2.4196  1.5873  1.0140
 3072SOL    HW210116   1.079   2.142   4.398  0.8951  2.9430 -0.1335
 3073SOL     OW10117   2.357   5.802   1.632  0.5851 -0.2806  0.1351
 3073SOL    HW110118   2.263   5.805   1.664  0.6208  0.3670  0.2002
 3073SOL    HW210119   2.418   5.780   1.708  0.6853  1.4096  0.6007
 3074SOL     OW10120   2.347   4.207   1.516  0.5849 -0.0332 -0.4659
 3074SOL    HW110121   2.388   4.119   1.492 -0.4387 -0.3511 -1.1339
 3074SOL    HW210122   2.380   4.236   1.605 -0.3217 -1.9143  0.5329
 3075SOL     OW10123   3.737   6.229   0.596 -0.0060  0.3113 -0.3771
 3075SOL    HW110124   3.702   6.316   0.631 -1.6919 -0.0392 -1.1446
 3075SOL    HW210125   3.737   6.230   0.496  1.4113 -0.0405 -0.4126
 3076SOL     OW10126   3.907   1.255   4.180  0.2532 -0.7005  0.1268
 3076SOL    HW110127   3.897   1.353   4.164 -0.8005 -0.6627  0.8623
 3076SOL    HW210128   3.942   1.210   4.098 -0.1983  0.1588 -0.5497
 3077SOL     OW10129   0.245   3.061   2.388 -0.5534 -0.4608 -0.9890
 3077SOL    HW110130   0.330   3.024   2.350  0.4702  1.2471 -0.5011
 3077SOL    HW210131   0.252   3.161   2.391 -1.3068 -0.4225  1.9784
 3078SOL     OW10132   6.813   5.132   0.782  0.0290 -0.0493 -0.3227
 3078SOL    HW110133   6.732   5.075   0.797  1.5588 -2.4473 -0.6040
 3078SOL    HW210134   6.795   5.197   0.708 -1.7288 -0.2836 -0.1439
 3079SOL     OW10135   0.878   3.352   4.449 -0.2624 -0.2122  0.4876
 3079SOL    HW110136   0.828   3.276   4.406  1.0049 -1.9931  2.0040
 3079SOL    HW210137   0.814   3.408   4.501 -1.1894 -0.3647 -0.4508
 3080SOL     OW10138   4.678   4.813   0.867 -0.1769  0.1243  0.9087
 3080SOL    HW110139   4.653   4.904   0.834 -0.0792 -0.1206  0.1288
 3080SOL    HW210140   4.605   4.748   0.843  0.0420 -0.1192  0.9025
 3081SOL     OW10141   3.589   1.482   6.663  0.2325  0.6894  0.2467
 3081SOL    HW110142   3.563   1.450   6.753 -0.5182  1.2742  0.2491
 3081SOL    HW210143   3.676   1.532   6.669  0.2211  0.6636  0.6284
 3082SOL     OW10144   5.131   5.293   2.957  0.6275  0.2100 -0.0422
 3082SOL    HW110145   5.200   5.297   3.029  0.0612 -1.2149  0.6252
 3082SOL    HW210146   5.071   5.214   2.973  0.1337  0.1949 -1.7619
 3083SOL     OW10147   3.074   5.666   2.492  0.2071  0.2704 -0.0124
 3083SOL    HW110148   3.020   5.641   2.412 -0.3956  0.5935  0.2895
 3083SOL    HW210149   3.083   5.587   2.553  1.3623 -0.2119 -0.7798
 3084SOL     OW10150   0.776   5.435   4.310  0.6372  0.4788 -0.5529
 3084SOL    HW110151   0.750   5.390   4.225  0.7495  1.1848 -0.9708
 3084SOL    HW210152   0.757   5.533   4.303  0.3627  0.4954  0.3508
 3085SOL     OW10153   5.390   6.530   4.938 -0.4894 -0.2883  0.9243
 3085SOL    HW110154   5.444   6.467   4.883 -1.4975  0.5313 -1.1184
 3085SOL    HW210155   5.446   6.564   5.014  0.9518 -1.4974  0.4584
 3086SOL     OW10156   4.774   4.175   5.590 -0.5085  0.1788 -0.0758
 3086SOL    HW110157   4.782   4.090   5.643  0.2050  1.1234  1.3937
 3086SOL    HW210158   4.700   4.166   5.524  0.1360 -1.9034 -0.5764
 3087SOL     OW10159   2.599   1.068   2.109  0.3516 -0.2219  0.1924
 3087SOL    HW110160   2.568   0.999   2.175  0.4870  0.6170  1.1508
 3087SOL    HW210161   2.648   1.023   2.035 -0.5159 -1.2674  0.2320
 3088SOL     OW10162   1.894   1.681   0.943 -0.2102  0.4343  0.0784
 3088SOL    HW110163   1.887   1.581   0.950 -2.1443  0.5406  0.1499
 3088SOL    HW210164   1.973   1.712   0.994 -0.5775 -0.9282  1.5538
 3089SOL     OW10165   5.226   0.177   1.388 -0.8636 -0.3729 -0.4401
 3089SOL    HW110166   5.137   0.145   1.357 -1.7613 -1.3777  2.8624
 3089SOL    HW210167   5.214   0.255   1.450  0.5768 -0.3039 -0.2172
 3090SOL     OW10168   1.935   0.780   4.757 -0.1414 -0.3276 -0.6830
 3090SOL    HW110169   1.892   0.773   4.667  1.1927  1.5879 -1.5397
 3090SOL    HW210170   1.890   0.851   4.811  0.3157 -0.0711 -0.6277
 3091SOL     OW10171   6.725   2.083   4.648 -0.0156 -0.0079  0.4885
 3091SOL    HW110172   6.641   2.051   4.692  1.0102 -2.0804  1.0640
 3091SOL    HW210173   6.707   2.100   4.551 -0.8637 -1.5895  0.3295
 3092SOL     OW10174   2.505   1.146   6.195  0.1468 -0.0028 -0.2072
 3092SOL    HW110175   2.415   1.118   6.230  0.8124 -2.6582 -0.4062
 3092SOL    HW210176   2.526   1.093   6.113  1.1620  1.8658 -1.2006
 3093SOL     OW10177   6.447   3.938   6.751 -0.3564  0.0667  0.9390
 3093SOL    HW110178   6.430   3.840   6.761  1.4715 -0.5724 -1.4075
 3093SOL    HW210179   6.529   3.963   6.804 -0.1078  0.0582  0.5611
 3094SOL     OW10180   3.358   0.646   6.394 -0.1823  0.1102  0.1306
 3094SOL    HW110181   3.415   0.716   6.437  2.0433 -2.3642  1.5368
 3094SOL    HW210182   3.287   0.617   6.459 -1.1218  1.0133 -0.4614
 3095SOL     OW10183   3.431   6.320   5.688 -0.2912  0.0747 -0.3960
 3095SOL    HW110184   3.404   6.412   5.661 -1.8496  0.1138  1.0686
 3095SOL    HW210185   3.364   6.284   5.754  1.0460 -1.5558  0.1485
 3096SOL     OW10186   2.105   3.857   4.832 -0.0324  0.4815  0.0780
 3096SOL    HW110187   2.032   3.923   4.813 -0.7402 -0.4070 -0.3956
 3096SOL    HW210188   2.174   3.900   4.889 -0.4829  1.6224 -0.1943
 3097SOL     OW10189   5.320   0.539   6.911  0.1361 -0.1207  0.7950
 3097SOL    HW110190   5.288   0.573   7.000 -0.1886  1.6542  0.0510
 3097SOL    HW210191   5.399   0.592   6.882  0.1529 -0.5872 -0.0423
 3098SOL     OW10192   1.179   4.243   3.793 -0.6185  0.1866  0.5311
 3098SOL    HW110193   1.196   4.319   3.856 -0.3491 -1.1898  2.1772
 3098SOL    HW210194   1.097   4.192   3.822 -0.6011 -0.3749 -0.3477
 3099SOL     OW10195   2.391   1.088   5.944  0.2361 -0.0950 -0.1809
 3099SOL    HW110196   2.310   1.039   5.978  0.0333 -0.4746 -1.1758
 3099SOL    HW210197   2.373   1.186   5.946 -0.4712 -0.1953 -0.9022
 3100SOL     OW10198   5.988   4.922   2.376  0.0692 -0.7706  0.6950
 3100SOL    HW110199   6.077   4.877   2.370 -0.2863 -1.4184  0.2091
 3100SOL    HW210200   5.973   4.976   2.293 -0.1354 -0.9246  0.6331
 3101SOL     OW10201   4.954   6.632   5.933 -0.4889 -0.7503 -0.6789
 3101SOL    HW110202   4.992   6.673   6.016 -2.4082 -0.3935  0.0790
 3101SOL    HW210203   4.921   6.704   5.872 -2.6605 -1.0454  0.0616
 3102SOL     OW10204   4.876   1.315   2.477  0.3619  0.0708  0.0776
 3102SOL    HW110205   4.793   1.357   2.513  1.4386  1.4197  1.0927
 3102SOL    HW210206   4.935   1.289   2.554  0.7209 -1.2403 -0.6168
 3103SOL     OW10207   1.334   6.343   2.873 -0.1725  0.2496 -0.3687
 3103SOL    HW110208   1.235   6.352   2.881 -0.3094 -0.7546 -0.7655
 3103SOL    HW210209   1.372   6.426   2.832 -0.7772  0.8552  0.2685
 3104SOL     OW10210   6.102   2.388   0.017  0.1756 -0.3164  0.1577
 3104SOL    HW110211   6.010   2.410   0.049 -0.1232 -0.7782 -0.3831
 3104SOL    HW210212   6.168   2.410   0.089 -0.4337 -0.8059  0.8780
 3105SOL     OW10213   4.690   6.132   6.998  0.2442  0.2874  0.1629
 3105SOL    HW110214   4.696   6.041   7.039 -0.9149  0.1406  0.0371
 3105SOL    HW210215   4.725   6.129   6.904 -0.7247 -0.2691 -0.1918
 3106SOL     OW10216   4.247   2.416   6.735  0.0901 -0.7529  0.1393
 3106SOL    HW110217   4.250   2.316   6.732  0.3046 -0.7355 -0.3269
 3106SOL    HW210218   4.157   2.446   6.766  0.3448 -1.0995  1.2512
 3107SOL     OW10219   4.715   2.718   4.036 -0.1724 -0.0145  0.5725
 3107SOL    HW110220   4.765   2.804   4.020  1.0313 -0.6060  1.0510
 3107SOL    HW210221   4.700   2.671   3.949  1.3685 -0.5042  0.5482
 3108SOL     OW10222   1.965   5.598   5.048 -0.3924  0.4799  0.2997
 3108SOL    HW110223   1.905   5.517   5.045 -0.7658  0.7497  0.3485
 3108SOL    HW210224   1.909   5.681   5.040  0.0830  0.7092 -0.7802
 3109SOL     OW10225   5.686   5.552   4.287  0.3402  0.4224  0.5003
 3109SOL    HW110226   5.660   5.469   4.336 -1.8765  0.8292  0.1388
 3109SOL    HW210227   5.640   5.630   4.328  0.0356  1.0532 -0.9726
 3110SOL     OW10228   3.506   6.209   4.189  0.0721 -0.1256 -0.0486
 3110SOL    HW110229   3.592   6.251   4.216  1.1641 -1.4589 -1.2913
 3110SOL    HW210230   3.463   6.166   4.269  0.9261 -0.0853  0.4457
 3111SOL     OW10231   5.340   3.710   5.174 -0.4028 -0.2958  0.1107
 3111SOL    HW110232   5.286   3.729   5.091 -1.2290 -0.6159  0.5657
 3111SOL    HW210233   5.303   3.629   5.220  0.0950 -0.1594  0.7596
 3112SOL     OW10234   5.751   4.751   0.533  0.0952 -0.3098 -0.8290
 3112SOL    HW110235   5.744   4.659   0.571  2.4184 -0.4768 -0.6726
 3112SOL    HW210236   5.733   4.747   0.434  1.5742 -1.2467 -1.1064
 3113SOL     OW10237   2.252   0.851   4.370  0.2692  0.1555  0.7514
 3113SOL    HW110238   2.314   0.929   4.366  1.5088 -0.7629  1.3915
 3113SOL    HW210239   2.224   0.836   4.465 -0.3203  0.0672  0.5726
 3114SOL     OW10240   5.511   5.289   3.583  0.6745  0.2714 -0.0262
 3114SOL    HW110241   5.464   5.345   3.516 -2.0831 -0.9710  0.7180
 3114SOL    HW210242   5.486   5.319   3.675  2.6158  0.5225  0.4702
 3115SOL     OW10243   6.430   4.323   4.500 -0.0319 -0.6040  0.1977
 3115SOL    HW110244   6.422   4.403   4.440 -3.0714 -1.4164 -0.6534
 3115SOL    HW210245   6.343   4.274   4.502  1.1000 -2.7389  2.3815
 3116SOL     OW10246   0.946   3.143   0.269  0.1346 -0.9696  0.5658
 3116SOL    HW110247   0.848   3.128   0.261 -0.1872  1.4783 -1.2604
 3116SOL    HW210248   0.992   3.108   0.188  0.1530  1.5523 -0.6110
 3117SOL     OW10249   3.843   6.141   2.539 -0.5955 -0.2199  0.4732
 3117SOL    HW110250   3.817   6.055   2.584 -1.7445  0.1396  0.5417
 3117SOL    HW210251   3.812   6.218   2.595  1.1946  0.2589  0.8441
 3118SOL     OW10252   2.703   2.149   1.983 -0.2256  0.2771 -0.2254
 3118SOL    HW110253   2.769   2.080   1.953  0.9848  0.9447  0.7999
 3118SOL    HW210254   2.751   2.234   2.005 -1.5451  1.0626 -0.2994
 3119SOL     OW10255   5.097   1.292   2.675  0.0607 -0.2636  0.0464
 3119SOL    HW110256   5.061   1.370   2.724 -0.5057 -0.2794 -0.3356
 3119SOL    HW210257   5.197   1.295   2.675  0.1135 -0.7912  2.0390
 3120SOL     OW10258   2.368   5.896   5.599  0.4626 -0.0964  0.0307
 3120SOL    HW110259   2.331   5.941   5.517 -2.7032  2.1843  2.4701
 3120SOL    HW210260   2.327   5.805   5.608  0.4283 -0.1517 -0.5861
 3121SOL     OW10261   3.887   0.179   3.282 -0.2257  0.1024 -0.5522
 3121SOL    HW110262   3.828   0.144   3.356 -0.5276  0.8110 -0.4439
 3121SOL    HW210263   3.981   0.151   3.299 -0.5112 -1.0402 -0.7182
 3122SOL     OW10264   6.159   3.392   6.194 -0.3520 -0.5578  0.2610
 3122SOL    HW110265   6.174   3.294   6.201  1.1222 -0.2379  2.6611
 3122SOL    HW210266   6.217   3.430   6.121 -0.0850 -1.2955  0.0861
 3123SOL     OW10267   1.283   3.337   3.804  0.2412  0.1252 -0.0915
 3123SOL    HW110268   1.331   3.319   3.718  1.4760  2.0277  0.1112
 3123SOL    HW210269   1.187   3.356   3.786  0.2904 -0.3816 -0.9347
 3124SOL     OW10270   5.038   5.570   5.394 -0.0864 -0.6515 -0.1382
 3124SOL    HW110271   5.045   5.551   5.296  1.4389 -0.7622 -0.0267
 3124SOL    HW210272   5.129   5.588   5.432 -0.6768 -0.3410  1.2135
 3125SOL     OW10273   2.433   2.170   3.541  0.2131  0.7250 -0.3971
 3125SOL    HW110274   2.443   2.104   3.617 -0.4971 -0.7695 -1.5510
 3125SOL    HW210275   2.411   2.260   3.578  0.4490  0.1628  1.2067
 3126SOL     OW10276   4.115   5.242   3.866  0.9444 -0.0206  0.3901
 3126SOL    HW110277   4.057   5.167   3.897  1.1888  0.1154  1.2034
 3126SOL    HW210278   4.059   5.309   3.817  0.2959  0.3462  1.5677
 3127SOL     OW10279   6.803   1.246   0.070 -0.1259  0.3107  0.0864
 3127SOL    HW110280   6.860   1.168   0.044 -0.7025  0.4729 -1.8240
 3127SOL    HW210281   6.857   1.329   0.066  0.1897  0.1554  0.9749
 3128SOL     OW10282   3.563   1.668   1.368  0.0258 -0.6937  0.7382
 3128SOL    HW110283   3.566   1.767   1.385  1.1567 -0.4456 -0.7253
 3128SOL    HW210284   3.471   1.643   1.337  0.5694  0.5678 -2.2409
 3129SOL     OW10285   6.806   3.939   1.118  0.0403 -0.2160  0.1408
 3129SOL    HW110286   6.743   3.975   1.188 -0.7768  1.3797 -1.3318
 3129SOL    HW210287   6.860   3.865   1.157 -2.5250 -1.4716  1.5960
 3130SOL     OW10288   6.052   5.835   2.028  0.1542  0.0966  0.1296
 3130SOL    HW110289   6.099   5.843   2.116 -1.4216 -3.8819  1.5807
 3130SOL    HW210290   6.118   5.811   1.957  0.9049 -1.4126  1.2849
 3131SOL     OW10291   5.933   2.331   3.038 -0.2025 -0.0714  0.3289
 3131SOL    HW110292   5.931   2.429   3.021 -3.0856 -0.3192 -1.5347
 3131SOL    HW210293   5.962   2.283   2.955 -3.1385 -0.8767 -0.3557
 3132SOL     OW10294   3.996   3.717   0.643  0.0492  0.4403  0.1319
 3132SOL    HW110295   3.944   3.646   0.595 -0.7248  0.5264  0.8215
 3132SOL    HW210296   4.091   3.716   0.612  0.0176 -0.8003  0.0321
 3133SOL     OW10297   5.153   6.229   3.734 -0.2962 -0.1383 -0.2501
 3133SOL    HW110298   5.078   6.225   3.668 -0.9220  1.1147  0.3421
 3133SOL    HW210299   5.201   6.317   3.726  0.2622 -0.3870  0.2730
 3134SOL     OW10300   2.942   5.270   3.964 -0.4524  0.3854  1.0381
 3134SOL    HW110301   2.898   5.264   3.874  1.2814  0.9849  0.0940
 3134SOL    HW210302   3.040   5.288   3.952 -0.1563  0.3822  3.0646
 3135SOL     OW10303   5.128   0.301   5.514  0.0153 -0.1445 -0.1074
 3135SOL    HW110304   5.118   0.202   5.516 -0.7953 -0.0997 -1.0080
 3135SOL    HW210305   5.126   0.338   5.607  1.0260 -1.0184  0.2833
 3136SOL     OW10306   5.412   6.006   1.977 -0.7209  0.6628 -0.2868
 3136SOL    HW110307   5.340   6.050   1.923 -0.3650 -0.1595 -1.4615
 3136SOL    HW210308   5.392   5.908   1.986  0.1659  0.4560 -0.4931
 3137SOL     OW10309   4.876   4.042   1.007 -0.2286  0.3240 -0.4312
 3137SOL    HW110310   4.959   4.086   0.973 -0.1781  0.4151 -0.1859
 3137SOL    HW210311   4.861   4.067   1.102  1.0423 -1.9666  0.4586
 3138SOL     OW10312   6.261   6.968   5.257 -0.6759  0.0177 -0.4442
 3138SOL    HW110313   6.226   7.061   5.262  0.0786  0.3215 -0.6156
 3138SOL    HW210314   6.308   6.945   5.342 -1.5648 -0.5118 -0.0797
 3139SOL     OW10315   2.033   3.905   1.720  0.1378 -0.2632  0.1491
 3139SOL    HW110316   1.991   3.918   1.810 -0.6403 -2.1683  0.1178
 3139SOL    HW210317   2.107   3.839   1.727  1.0694  0.7047 -0.3708
 3140SOL     OW10318   3.386   5.451   0.702 -0.0989 -0.0847 -0.5056
 3140SOL    HW110319   3.294   5.484   0.721 -0.2946 -0.4194 -0.8504
 3140SOL    HW210320   3.446   5.528   0.682 -0.6440  0.0480 -1.7016
 3141SOL     OW10321   5.986   1.995   1.300  0.5348  0.2304 -0.0834
 3141SOL    HW110322   5.946   2.086   1.288 -0.5768 -0.0522  1.2123
 3141SOL    HW210323   5.959   1.936   1.224  0.3571  0.6693 -0.3631
 3142SOL     OW10324   4.290   0.007   2.892  0.3354 -0.2783 -0.3055
 3142SOL    HW110325   4.347   0.081   2.858  0.2446 -0.7601 -1.5746
 3142SOL    HW210326   4.348  -0.071   2.916  0.4731  0.3319  1.4554
 3143SOL     OW10327   6.203   1.751   5.690  0.2081  0.0690 -0.3935
 3143SOL    HW110328   6.138   1.698   5.744 -1.5727  2.1043 -0.4208
 3143SOL    HW210329   6.189   1.732   5.592 -1.0433  1.1542 -0.4593
 3144SOL     OW10330   3.387   3.734   6.720 -0.0427  0.2154  0.2416
 3144SOL    HW110331   3.390   3.640   6.755 -0.3259  0.1012 -0.0319
 3144SOL    HW210332   3.292   3.765   6.719  0.1561  0.9491  1.4864
 3145SOL     OW10333   1.407   4.153   5.473 -0.2312  0.3296  0.1922
 3145SOL    HW110334   1.309   4.157   5.491 -0.1066 -0.7692  1.2638
 3145SOL    HW210335   1.422   4.135   5.375 -1.0850  0.6361 -0.0026
 3146SOL     OW10336   6.760   0.989   4.128  0.4686 -0.4769 -0.3778
 3146SOL    HW110337   6.695   0.995   4.203  0.0070  0.4740 -0.8378
 3146SOL    HW210338   6.852   1.013   4.161  0.4615 -1.0938  0.1048
 3147SOL     OW10339   0.338   6.259   0.532  0.3892  0.4116  0.3598
 3147SOL    HW110340   0.307   6.221   0.619  0.6863  1.1654  0.8078
 3147SOL    HW210341   0.340   6.359   0.538 -1.2462  0.5775 -1.0890
 3148SOL     OW10342   6.665   4.047   0.383  0.2247  0.1960  0.7388
 3148SOL    HW110343   6.643   4.065   0.287  0.8006 -0.4640  0.4758
 3148SOL    HW210344   6.720   4.123   0.419 -0.0393  0.4716  0.5643
 3149SOL     OW10345   5.693   2.161   1.046  0.3988  0.4223  0.4067
 3149SOL    HW110346   5.640   2.082   1.078  2.2746 -0.2135  2.1488
 3149SOL    HW210347   5.649   2.245   1.076 -1.1083  0.0529 -0.6367
 3150SOL     OW10348   0.069   0.926   5.694  0.2276  0.3758  0.7181
 3150SOL    HW110349  -0.009   0.989   5.689 -0.1911  0.0858  2.9219
 3150SOL    HW210350   0.057   0.853   5.627 -1.5602  0.1724  1.2124
 3151SOL     OW10351   2.189   2.725   6.217 -0.7764 -0.1062  0.1675
 3151SOL    HW110352   2.287   2.714   6.231 -0.6390  1.4241  0.5985
 3151SOL    HW210353   2.147   2.635   6.204  0.5529 -0.8473  0.7460
 3152SOL     OW10354   3.686   2.266   6.204  0.0993  0.1799 -0.2110
 3152SOL    HW110355   3.702   2.325   6.283  0.9224 -0.8257  0.3993
 3152SOL    HW210356   3.746   2.294   6.129 -0.0678  0.6069 -0.1851
 3153SOL     OW10357   4.704   5.434   0.134  0.6257  0.4210 -0.1757
 3153SOL    HW110358   4.674   5.528   0.146 -4.2410 -0.9965  1.0089
 3153SOL    HW210359   4.712   5.414   0.036  0.0452  1.6162 -0.4838
 3154SOL     OW10360   5.062   1.126   0.092  0.1678 -0.0634  0.2560
 3154SOL    HW110361   5.107   1.076   0.018 -0.0224  0.0681  0.0507
 3154SOL    HW210362   5.009   1.063   0.148 -1.9402  0.1800 -1.3354
 3155SOL     OW10363   6.458   5.791   6.517 -0.2849  0.2806 -0.2248
 3155SOL    HW110364   6.361   5.805   6.535 -0.1671  0.6415  0.1520
 3155SOL    HW210365   6.510   5.808   6.601  0.2394  1.5761 -0.7760
 3156SOL     OW10366   2.409   5.258   0.719  0.2361 -0.4614  0.2029
 3156SOL    HW110367   2.464   5.179   0.747  1.0537  0.5573  1.5379
 3156SOL    HW210368   2.385   5.312   0.800  1.3599  1.7484 -0.8867
 3157SOL     OW10369   0.930   3.286   1.890  0.4143 -0.7993  0.2488
 3157SOL    HW110370   0.951   3.189   1.877 -0.2912 -1.2840  2.2761
 3157SOL    HW210371   0.836   3.304   1.862  0.2511 -0.9151  0.7118
 3158SOL     OW10372   3.339   1.930   6.690 -0.1079 -0.0630 -0.4599
 3158SOL    HW110373   3.435   1.924   6.663 -0.5909 -2.0415 -1.9377
 3158SOL    HW210374   3.285   1.961   6.612 -1.0494 -2.1881 -0.7270
 3159SOL     OW10375   5.949   5.294   0.103 -0.0851 -0.3693 -0.2303
 3159SOL    HW110376   5.990   5.277   0.193  0.9360  1.5926 -0.2669
 3159SOL    HW210377   5.864   5.345   0.115 -0.7587 -1.4394 -0.3313
 3160SOL     OW10378   2.106   1.772   0.145 -0.4114  0.0197 -0.2570
 3160SOL    HW110379   2.018   1.788   0.101  0.2657  1.7193 -1.1014
 3160SOL    HW210380   2.168   1.727   0.080 -0.0208  0.7477 -0.3994
 3161SOL     OW10381   3.058   1.664   0.814  0.2082  0.1657 -0.8004
 3161SOL    HW110382   3.085   1.760   0.812 -0.0069  0.2313 -0.6721
 3161SOL    HW210383   3.072   1.627   0.905  0.7488 -0.0632 -0.9734
 3162SOL     OW10384   2.157   6.985   2.674  0.3208  0.3812  0.6365
 3162SOL    HW110385   2.130   6.900   2.629  0.7102 -0.5805  2.1487
 3162SOL    HW210386   2.135   7.062   2.614 -1.1563 -0.6790 -0.2753
 3163SOL     OW10387   4.134   4.191   1.463 -0.6026 -0.2496 -0.8765
 3163SOL    HW110388   4.194   4.257   1.418  0.4729  0.1461  1.0324
 3163SOL    HW210389   4.168   4.099   1.446  0.6008 -0.0278  0.2013
 3164SOL     OW10390   2.236   5.792   2.880 -0.0143  0.2401 -0.2428
 3164SOL    HW110391   2.230   5.843   2.966  0.5000  0.5750 -0.4003
 3164SOL    HW210392   2.320   5.818   2.832  0.1460 -0.5970 -0.4307
 3165SOL     OW10393   6.709   4.702   0.998 -0.3884 -0.4973 -1.0899
 3165SOL    HW110394   6.626   4.685   0.944  0.1507 -0.6816 -1.8799
 3165SOL    HW210395   6.789   4.679   0.943  0.2346  0.8451 -0.7893
 3166SOL     OW10396   2.786   1.360   4.491 -0.0780  0.1378  0.2182
 3166SOL    HW110397   2.847   1.292   4.451 -0.1154  0.3481 -0.2091
 3166SOL    HW210398   2.703   1.366   4.435 -1.1411 -1.1710  1.5764
 3167SOL     OW10399   5.977   2.550   2.574 -0.4539 -0.4161  0.3981
 3167SOL    HW110400   6.012   2.476   2.518  0.0223 -1.2888  1.7944
 3167SOL    HW210401   5.877   2.552   2.569 -0.4014 -0.1848 -0.8058
 3168SOL     OW10402   6.466   2.643   2.633  0.1760 -0.3236 -0.3587
 3168SOL    HW110403   6.437   2.593   2.714 -2.6506  2.1163  0.2987
 3168SOL    HW210404   6.560   2.677   2.645 -0.1608 -0.0891  1.8728
 3169SOL     OW10405   2.135   0.202   0.880 -0.1424  0.6903 -0.3823
 3169SOL    HW110406   2.144   0.281   0.941 -0.7002  0.1855  0.3719
 3169SOL    HW210407   2.160   0.229   0.787  1.3441  1.3196  0.1666
 3170SOL     OW10408   2.713   6.369   5.003  0.0882  0.7590 -0.1030
 3170SOL    HW110409   2.619   6.346   5.028  0.2200  0.5324  0.1883
 3170SOL    HW210410   2.764   6.285   4.983 -0.2857  0.9654 -2.1562
 3171SOL     OW10411   5.995   3.948   2.715  0.0294 -0.1382  0.5817
 3171SOL    HW110412   6.073   3.903   2.671  0.9432  1.1175  0.8677
 3171SOL    HW210413   5.993   3.923   2.812 -0.0511 -0.3177  0.5359
 3172SOL     OW10414   6.944   4.431   6.044  0.0776  0.0030 -0.1294
 3172SOL    HW110415   6.972   4.388   6.130  1.1642 -1.6903 -1.2581
 3172SOL    HW210416   6.848   4.411   6.026 -0.3245  0.8620  0.9333
 3173SOL     OW10417   1.192   4.195   0.486  0.2124 -0.0623 -0.0472
 3173SOL    HW110418   1.207   4.183   0.584 -0.4098 -1.0783 -0.0673
 3173SOL    HW210419   1.280   4.209   0.441  0.7129 -1.5777  0.4034
 3174SOL     OW10420   4.218   3.925   6.176  0.0411 -0.1044 -0.4385
 3174SOL    HW110421   4.198   3.893   6.084 -0.5217  1.1952 -0.7760
 3174SOL    HW210422   4.312   3.959   6.180  0.5080 -1.3385 -0.1774
 3175SOL     OW10423   6.568   5.843   4.437 -0.4115  0.3835 -0.1266
 3175SOL    HW110424   6.661   5.841   4.400 -1.0011 -1.1665 -1.6400
 3175SOL    HW210425   6.502   5.844   4.362 -1.6309 -0.3457  0.8938
 3176SOL     OW10426   0.377   5.070   3.300 -0.0285 -0.0319 -0.5104
 3176SOL    HW110427   0.412   5.102   3.212 -0.5663  0.4644 -0.5439
 3176SOL    HW210428   0.364   4.971   3.296  1.4466 -0.2592 -0.4720
 3177SOL     OW10429   6.125   1.650   6.234 -0.0385  0.5977 -0.1239
 3177SOL    HW110430   6.221   1.658   6.208  0.1536  0.3832  0.4846
 3177SOL    HW210431   6.119   1.638   6.333 -0.5753 -1.1725 -0.3357
 3178SOL     OW10432   3.615   0.721   3.813 -0.2716  0.1269 -0.5423
 3178SOL    HW110433   3.590   0.624   3.819 -2.9834  0.7570 -0.5058
 3178SOL    HW210434   3.598   0.754   3.720  0.6611  0.5899 -0.5569
 3179SOL     OW10435   0.496   3.507   2.955  0.1172 -0.6464 -0.1826
 3179SOL    HW110436   0.536   3.544   2.872  1.7494 -1.3529  0.2341
 3179SOL    HW210437   0.546   3.543   3.035 -0.8697 -0.6342  0.4457
 3180SOL     OW10438   5.630   0.511   6.973  0.3747 -0.6154  0.2147
 3180SOL    HW110439   5.540   0.469   6.962 -0.0898  0.2065  0.7924
 3180SOL    HW210440   5.686   0.454   7.032 -0.4306 -0.1938  1.4255
 3181SOL     OW10441   0.007   6.115   4.896 -0.2007  0.1632  0.1416
 3181SOL    HW110442   0.049   6.145   4.981 -1.1051  1.0681  0.2877
 3181SOL    HW210443  -0.051   6.036   4.913 -0.0912  0.1143  0.2909
 3182SOL     OW10444   1.367   6.150   1.817  0.5622  0.2792  0.4744
 3182SOL    HW110445   1.341   6.120   1.909  0.3773 -0.2700  0.2497
 3182SOL    HW210446   1.306   6.223   1.788  1.2404  1.1379  1.1710
 3183SOL     OW10447   4.323   4.696   0.970 -0.0221  0.2850  0.2636
 3183SOL    HW110448   4.321   4.729   0.875  1.5900  1.3559  0.5619
 3183SOL    HW210449   4.248   4.632   0.984 -1.6653  1.7993 -1.1037
 3184SOL     OW10450   6.168   1.824   3.432 -0.0620 -0.2480 -0.1370
 3184SOL    HW110451   6.091   1.801   3.373  0.0500 -1.5145  0.1696
 3184SOL    HW210452   6.150   1.791   3.524  0.6471 -0.1450  0.0456
 3185SOL     OW10453   1.216   6.649   5.191  0.7085  0.0672  0.3620
 3185SOL    HW110454   1.287   6.622   5.256 -0.1445  0.5468  1.5167
 3185SOL    HW210455   1.152   6.711   5.235 -0.3048 -0.1571 -0.7434
 3186SOL     OW10456   2.512   1.324   6.659  0.1614  0.2000  0.2204
 3186SOL    HW110457   2.536   1.357   6.567  0.2060  1.5992  0.7070
 3186SOL    HW210458   2.591   1.281   6.701  0.0892 -0.6110 -0.4609
 3187SOL     OW10459   4.623   6.851   3.980 -0.1004  0.0305 -0.0986
 3187SOL    HW110460   4.595   6.756   3.965 -0.5185  0.5304 -3.0562
 3187SOL    HW210461   4.695   6.875   3.915 -0.1211  1.8002  0.4841
 3188SOL     OW10462   1.495   6.573   2.790 -0.1493 -0.0393 -0.3077
 3188SOL    HW110463   1.530   6.514   2.863  2.3888  1.3690 -0.3025
 3188SOL    HW210464   1.451   6.653   2.830 -1.2606 -0.6049 -0.3487
 3189SOL     OW10465   2.421   0.668   5.688 -0.1085 -0.0540 -0.2956
 3189SOL    HW110466   2.449   0.613   5.610 -1.8467  0.9662 -1.7058
 3189SOL    HW210467   2.351   0.733   5.660 -0.7793  0.3750  2.1203
 3190SOL     OW10468   6.910   4.102   4.635 -0.4539 -0.3958  0.9890
 3190SOL    HW110469   6.840   4.032   4.654 -3.4560  1.8984 -0.7560
 3190SOL    HW210470   6.931   4.102   4.537 -1.1079  1.5594  0.8074
 3191SOL     OW10471   4.110   4.102   0.628  0.4794  0.4850  0.2380
 3191SOL    HW110472   4.193   4.138   0.585  0.9775  0.3518  1.0541
 3191SOL    HW210473   4.127   4.010   0.663 -0.8098 -0.6245 -1.8856
 3192SOL     OW10474   4.498   0.773   4.222  0.3914  0.3972  0.5446
 3192SOL    HW110475   4.501   0.862   4.267  1.3052 -0.5760  2.5045
 3192SOL    HW210476   4.591   0.742   4.201  0.0288  0.4182 -1.2542
 3193SOL     OW10477   4.825   5.904   3.911 -0.1490 -0.0375 -0.3995
 3193SOL    HW110478   4.759   5.970   3.947 -1.0650 -1.4668  0.6257
 3193SOL    HW210479   4.914   5.949   3.900 -0.5979  1.2267  0.8080
 3194SOL     OW10480   1.855   5.251   4.177 -0.6423 -0.5985  0.7062
 3194SOL    HW110481   1.847   5.266   4.078  0.6477 -0.1443  0.6436
 3194SOL    HW210482   1.813   5.328   4.225  0.1154 -0.0237  0.4729
 3195SOL     OW10483   1.879   6.128   2.292  0.1880  0.2055  0.2643
 3195SOL    HW110484   1.880   6.060   2.219  1.1777  0.9573 -0.4611
 3195SOL    HW210485   1.966   6.177   2.293  0.1768  0.2530  1.9324
 3196SOL     OW10486   6.645   6.036   4.783  0.0938 -0.3431 -0.3539
 3196SOL    HW110487   6.691   5.957   4.823  1.1666 -1.2392 -3.1268
 3196SOL    HW210488   6.711   6.109   4.768 -0.8439  1.0970  1.9632
 3197SOL     OW10489   3.450   0.062   6.626 -0.0284 -0.4046  0.0793
 3197SOL    HW110490   3.462   0.151   6.584  0.9249 -0.5496  0.0247
 3197SOL    HW210491   3.408   0.073   6.716 -1.1172 -0.0175 -0.4646
 3198SOL     OW10492   6.040   4.220   4.937  0.4110 -0.1288  0.0254
 3198SOL    HW110493   6.012   4.198   4.844  1.8387 -0.5937 -0.3219
 3198SOL    HW210494   6.107   4.294   4.934 -1.0560  1.2997  0.8596
 3199SOL     OW10495   0.831   1.902   5.378  0.1973 -0.2685  0.6071
 3199SOL    HW110496   0.773   1.959   5.437  0.6854  0.6381  0.2334
 3199SOL    HW210497   0.821   1.932   5.283 -1.5951 -2.5672 -0.0124
 3200SOL     OW10498   6.138   4.387   4.283  0.1897 -0.2919 -0.2661
 3200SOL    HW110499   6.041   4.406   4.294  0.8059  1.5243  3.3857
 3200SOL    HW210500   6.165   4.311   4.342  1.3113  0.5014  0.2743
 3201SOL     OW10501   3.989   2.169   0.700  0.4338  0.4177  0.0908
 3201SOL    HW110502   4.068   2.170   0.639  1.1118 -2.8379  0.7520
 3201SOL    HW210503   4.014   2.124   0.786 -2.1142 -0.6941  0.3314
 3202SOL     OW10504   2.894   2.743   5.666 -0.1265  0.5342  0.2073
 3202SOL    HW110505   2.941   2.720   5.580 -1.0090 -0.3439 -0.0549
 3202SOL    HW210506   2.802   2.777   5.645  0.2977  2.0615  0.7269
 3203SOL     OW10507   2.121   6.203   2.101  0.3047 -0.9135 -0.0658
 3203SOL    HW110508   2.131   6.112   2.140  0.3127 -1.2286 -0.7834
 3203SOL    HW210509   2.161   6.271   2.162  1.7475 -1.5544 -0.2775
 3204SOL     OW10510   5.187   0.117   2.880 -0.6678 -0.0060 -0.1253
 3204SOL    HW110511   5.235   0.037   2.916  1.7625  1.1702 -0.5616
 3204SOL    HW210512   5.245   0.162   2.812 -2.4124  1.5563 -0.6424
 3205SOL     OW10513   4.792   4.149   5.052  0.4105 -0.4624  0.5743
 3205SOL    HW110514   4.722   4.164   5.121 -1.0471 -0.6247 -0.8166
 3205SOL    HW210515   4.804   4.051   5.037  0.4609 -0.4190  0.3298
 3206SOL     OW10516   4.977   6.111   0.220 -0.1297 -0.1502 -0.4166
 3206SOL    HW110517   5.066   6.155   0.233 -0.6632  0.8903 -0.1697
 3206SOL    HW210518   4.919   6.171   0.165 -0.8320 -0.6148 -0.1848
 3207SOL     OW10519   0.990   0.265   4.303  0.3945  0.1951 -0.2938
 3207SOL    HW110520   0.983   0.310   4.214 -0.1888  1.4379  0.3542
 3207SOL    HW210521   0.961   0.170   4.295 -2.4126  1.0080 -0.8934
 3208SOL     OW10522   2.274   4.399   1.061  0.9242 -0.1576 -0.1855
 3208SOL    HW110523   2.196   4.337   1.051  1.1673 -1.1952  3.0715
 3208SOL    HW210524   2.358   4.346   1.070  1.3093  0.6295  1.3495
 3209SOL     OW10525   4.253   1.096   6.255  0.4209  0.1000  0.8626
 3209SOL    HW110526   4.326   1.156   6.288 -0.3214 -0.0468  2.9475
 3209SOL    HW210527   4.164   1.135   6.281 -0.1328 -1.0551  0.7692
 3210SOL     OW10528   4.397   4.910   4.024  0.4008  0.3336  0.1114
 3210SOL    HW110529   4.473   4.934   3.963  0.4258  0.5566  0.2314
 3210SOL    HW210530   4.313   4.905   3.971  0.6330 -0.7759 -0.1904
 3211SOL     OW10531   4.093   0.948   6.063 -0.1151 -0.0602 -0.0035
 3211SOL    HW110532   4.045   0.882   6.121 -1.1493 -0.1954 -0.9949
 3211SOL    HW210533   4.152   1.005   6.120 -1.6891  0.3293  1.3082
 3212SOL     OW10534   2.805   0.087   2.668  0.3130  0.2049 -0.4737
 3212SOL    HW110535   2.824   0.039   2.754  0.3876  1.8635  0.4787
 3212SOL    HW210536   2.848   0.039   2.592 -0.2010 -1.5998  0.3245
 3213SOL     OW10537   6.965   1.850   6.963 -0.1215 -0.7101  0.0277
 3213SOL    HW110538   6.867   1.856   6.945  0.2851  2.0177 -1.9010
 3213SOL    HW210539   6.980   1.843   7.062 -2.2435 -1.4187  0.3460
 3214SOL     OW10540   2.217   6.972   3.492 -0.1217 -0.4785  0.6134
 3214SOL    HW110541   2.135   7.027   3.480  0.0276 -0.6256 -1.5357
 3214SOL    HW210542   2.216   6.895   3.428  2.0747  0.0101 -0.1083
 3215SOL     OW10543   0.519   3.472   2.361 -0.0363  0.3202  0.5324
 3215SOL    HW110544   0.586   3.415   2.409 -0.0249 -1.9860 -1.9780
 3215SOL    HW210545   0.427   3.436   2.378 -0.2309  0.8241  0.5484
 3216SOL     OW10546   6.251   5.458   1.537  0.5399  0.5565 -0.1349
 3216SOL    HW110547   6.336   5.431   1.583  0.6186 -0.6237 -0.9515
 3216SOL    HW210548   6.259   5.441   1.439 -0.3992  1.0823 -0.3117
 3217SOL     OW10549   0.073   6.365   3.829  0.2022 -0.3864 -0.0548
 3217SOL    HW110550   0.119   6.420   3.760  0.1030 -3.6114 -2.9881
 3217SOL    HW210551  -0.021   6.399   3.842  1.0193  1.8161  0.5363
 3218SOL     OW10552   5.524   5.750   3.867 -0.1542  0.0328  0.6515
 3218SOL    HW110553   5.521   5.735   3.768 -0.0978 -1.1569  0.8202
 3218SOL    HW210554   5.583   5.681   3.910 -0.5438  0.2565  1.5695
 3219SOL     OW10555   3.722   1.393   6.422  0.1540  0.1683  0.0757
 3219SOL    HW110556   3.670   1.442   6.492 -0.9026 -1.6068  0.6251
 3219SOL    HW210557   3.720   1.444   6.336 -0.1181  1.4829  0.8343
 3220SOL     OW10558   0.459   4.334   0.079 -0.2452  0.0646  0.4852
 3220SOL    HW110559   0.488   4.345   0.175  0.6117 -0.4341  0.2904
 3220SOL    HW210560   0.516   4.265   0.034  0.8457  1.8417 -0.9968
 3221SOL     OW10561   2.221   1.284   2.412 -0.3794  0.1296 -0.1527
 3221SOL    HW110562   2.260   1.214   2.472 -0.2056  1.3458  1.2023
 3221SOL    HW210563   2.227   1.254   2.317 -0.8904 -1.9764  0.4218
 3222SOL     OW10564   3.417   5.683   3.369 -0.5899 -0.0007 -0.6757
 3222SOL    HW110565   3.424   5.640   3.458 -1.5161 -0.9141 -1.0286
 3222SOL    HW210566   3.372   5.772   3.378 -0.1043  0.1960 -0.1573
 3223SOL     OW10567   0.365   5.681   1.104  0.6723 -0.8694 -0.1716
 3223SOL    HW110568   0.308   5.634   1.171  1.5947 -0.6856  0.7638
 3223SOL    HW210569   0.341   5.778   1.101  1.6415 -0.5675  1.0258
 3224SOL     OW10570   6.685   3.558   4.538 -0.1411  0.0144 -0.0528
 3224SOL    HW110571   6.662   3.481   4.597 -0.5218  0.6762  0.6699
 3224SOL    HW210572   6.781   3.585   4.553 -0.2244  0.1536  0.2365
 3225SOL     OW10573   3.510   1.964   5.808  0.6011  0.0815 -0.3880
 3225SOL    HW110574   3.435   1.912   5.849  0.2042  0.2848 -0.8387
 3225SOL    HW210575   3.544   2.031   5.874 -0.7737  1.1676 -0.7239
 3226SOL     OW10576   6.525   0.370   6.617 -0.6339 -0.1563  0.3037
 3226SOL    HW110577   6.446   0.360   6.677 -2.2473  1.3887 -1.4230
 3226SOL    HW210578   6.506   0.329   6.528  0.9619 -0.7278  0.1836
 3227SOL     OW10579   5.488   3.009   5.718  0.2549  0.3024  0.2306
 3227SOL    HW110580   5.409   2.984   5.774  0.7256  0.4419  0.9680
 3227SOL    HW210581   5.571   3.007   5.774  0.9827 -1.1663 -0.8383
 3228SOL     OW10582   1.560   5.165   1.759  0.3152  0.3299 -0.6192
 3228SOL    HW110583   1.489   5.234   1.748  1.8951  2.7235  2.6778
 3228SOL    HW210584   1.545   5.114   1.843  1.5136 -0.3541 -0.7908
 3229SOL     OW10585   0.292   0.258   0.432 -1.0368  0.7589 -0.0902
 3229SOL    HW110586   0.362   0.294   0.494 -1.7367  1.5001  0.3069
 3229SOL    HW210587   0.333   0.231   0.346  0.0210 -0.6065  0.8017
 3230SOL     OW10588   2.908   6.378   5.390 -0.4734 -0.2886  0.3629
 3230SOL    HW110589   2.902   6.473   5.360 -1.0580  0.0165  1.4203
 3230SOL    HW210590   2.844   6.362   5.465  1.4676 -0.8059  2.0175
 3231SOL     OW10591   1.218   1.737   1.508 -0.2669 -0.2684  0.1284
 3231SOL    HW110592   1.134   1.711   1.461 -0.2332  0.9721 -0.6795
 3231SOL    HW210593   1.296   1.723   1.447  0.0564 -0.8773  0.6719
 3232SOL     OW10594   2.527   4.590   4.280 -0.1887 -0.0073  0.0735
 3232SOL    HW110595   2.605   4.651   4.265 -1.2293  0.8690 -2.4912
 3232SOL    HW210596   2.480   4.575   4.193 -1.3908 -2.6055  1.0806
 3233SOL     OW10597   2.856   0.089   3.272  0.3998 -0.2503 -0.7801
 3233SOL    HW110598   2.836  -0.003   3.237 -1.6040 -0.8976  1.7820
 3233SOL    HW210599   2.799   0.155   3.223 -2.0086 -1.0764  0.7462
 3234SOL     OW10600   3.602   4.791   0.520  0.1800  0.0615 -0.3704
 3234SOL    HW110601   3.540   4.862   0.554  1.0475  0.2948  0.8036
 3234SOL    HW210602   3.660   4.829   0.448  1.0368  0.7347  0.6521
 3235SOL     OW10603   6.995   2.067   2.740 -0.6064  0.2411 -0.1306
 3235SOL    HW110604   7.013   2.112   2.827 -0.5194  0.4748 -0.2663
 3235SOL    HW210605   6.970   1.971   2.755  0.9615 -0.1627  0.0667
 3236SOL     OW10606   6.909   5.769   0.238 -0.4244  0.4502  0.1908
 3236SOL    HW110607   6.978   5.826   0.281 -0.3283  0.8475 -0.4718
 3236SOL    HW210608   6.942   5.738   0.149  0.3726 -2.3386  1.3441
 3237SOL     OW10609   6.617   5.721   4.723 -0.1955 -0.1549 -0.3804
 3237SOL    HW110610   6.603   5.771   4.638 -0.5087 -0.4007 -0.4766
 3237SOL    HW210611   6.541   5.737   4.785 -1.4462 -2.2328 -1.2695
 3238SOL     OW10612   0.154   6.203   6.244 -0.5341  0.1890 -0.0144
 3238SOL    HW110613   0.189   6.255   6.323  0.5459 -0.8854  0.2519
 3238SOL    HW210614   0.055   6.214   6.238 -0.8078 -0.5495  2.1631
 3239SOL     OW10615   4.974   1.621   4.701 -0.0424  0.0243  0.4512
 3239SOL    HW110616   5.045   1.686   4.672 -0.1304  0.9216  2.1300
 3239SOL    HW210617   5.016   1.533   4.722  0.6438  0.6325  1.7135
 3240SOL     OW10618   0.339   2.739   0.789  0.3314 -0.2974 -0.4225
 3240SOL    HW110619   0.363   2.741   0.692 -0.6634  0.0362 -0.6730
 3240SOL    HW210620   0.255   2.688   0.802 -0.0511  0.4574  0.1423
 3241SOL     OW10621   0.851   3.136   6.032 -0.1936 -0.0711 -0.3003
 3241SOL    HW110622   0.762   3.179   6.045 -0.1248 -0.0372  0.0706
 3241SOL    HW210623   0.861   3.059   6.095  1.4650  2.1350  2.3650
 3242SOL     OW10624   6.705   4.435   4.710  0.2924  0.3882  0.3990
 3242SOL    HW110625   6.707   4.483   4.798 -0.1113  1.0185  0.0731
 3242SOL    HW210626   6.769   4.478   4.647  1.6637 -0.9639  0.8214
 3243SOL     OW10627   6.837   5.058   3.360  0.0679 -0.1876  0.4682
 3243SOL    HW110628   6.867   5.150   3.336 -0.2020  0.1501  1.3587
 3243SOL    HW210629   6.850   5.044   3.459  3.1991 -2.2619 -0.1032
 3244SOL     OW10630   5.667   1.172   5.884 -0.2241  0.3214  0.2670
 3244SOL    HW110631   5.617   1.140   5.964 -1.0620 -2.3923 -1.2074
 3244SOL    HW210632   5.627   1.132   5.801  3.1580 -0.4728 -1.1722
 3245SOL     OW10633   4.241   6.216   5.794 -0.0766  0.3414 -0.2341
 3245SOL    HW110634   4.259   6.284   5.864 -1.3417 -1.1304  1.5968
 3245SOL    HW210635   4.169   6.248   5.733  0.6793  1.4104 -0.6014
 3246SOL     OW10636   0.508   4.227   2.283  0.3983  0.7249  0.6297
 3246SOL    HW110637   0.453   4.144   2.290  0.3911  0.7155  0.4481
 3246SOL    HW210638   0.485   4.276   2.199  2.2076 -0.3840 -0.5927
 3247SOL     OW10639   1.655   4.262   4.952  0.6775 -0.2782  0.1741
 3247SOL    HW110640   1.730   4.274   5.018  0.9097  2.2567 -0.4628
 3247SOL    HW210641   1.572   4.235   5.001  1.6779 -1.9923  1.0262
 3248SOL     OW10642   4.387   2.070   3.533  0.6131  0.0148  0.0782
 3248SOL    HW110643   4.426   2.072   3.625 -1.1067  1.9800  0.8374
 3248SOL    HW210644   4.364   2.163   3.504  2.2687 -0.3810 -2.9031
 3249SOL     OW10645   3.287   3.981   2.200 -0.2038  0.7784 -0.3434
 3249SOL    HW110646   3.324   3.894   2.233  0.4692  0.9560 -0.6021
 3249SOL    HW210647   3.278   4.045   2.277 -2.7928 -0.1905  0.2718
 3250SOL     OW10648   5.954   4.164   4.688 -0.2961  0.2244 -0.1338
 3250SOL    HW110649   5.959   4.064   4.693  0.0368  0.2104 -0.6649
 3250SOL    HW210650   5.886   4.190   4.619  0.0784  0.3587 -0.4528
 3251SOL     OW10651   1.586   3.243   1.281  0.2131 -0.0325  0.4073
 3251SOL    HW110652   1.580   3.174   1.210  1.3162 -0.1974  0.4637
 3251SOL    HW210653   1.651   3.213   1.351  1.2450  1.3627  0.0790
 3252SOL     OW10654   1.332   2.003   3.994  0.1850  0.8671  0.4557
 3252SOL    HW110655   1.405   2.030   4.058  0.6094  0.2365  0.2453
 3252SOL    HW210656   1.372   1.958   3.914 -0.4099  0.8564  0.1562
 3253SOL     OW10657   6.872   3.949   1.830  0.1493 -0.6265 -0.6697
 3253SOL    HW110658   6.832   3.934   1.740 -0.7439 -0.7135 -0.2657
 3253SOL    HW210659   6.849   4.040   1.862  1.4239 -0.1643 -1.0002
 3254SOL     OW10660   5.488   1.161   5.101  0.4206 -0.3389  0.2510
 3254SOL    HW110661   5.467   1.153   5.199 -0.5010  0.8913  0.1747
 3254SOL    HW210662   5.583   1.188   5.090  0.2863  0.4419  0.8593
 3255SOL     OW10663   2.645   5.202   1.712  0.0268 -0.6180  0.3353
 3255SOL    HW110664   2.737   5.209   1.748  0.0500 -0.6690  0.2863
 3255SOL    HW210665   2.641   5.128   1.645  0.0148 -0.4457  0.1439
 3256SOL     OW10666   5.914   3.831   3.980  0.0069 -0.3981 -0.0232
 3256SOL    HW110667   5.825   3.794   4.005 -0.7604  1.7085  0.5701
 3256SOL    HW210668   5.933   3.809   3.884 -1.2272 -0.7137 -0.2174
 3257SOL     OW10669   4.414   6.536   1.669  0.2662  0.4177 -0.3345
 3257SOL    HW110670   4.512   6.541   1.649  0.4045 -0.7302 -0.0295
 3257SOL    HW210671   4.401   6.503   1.763 -0.4168  0.1527 -0.5172
 3258SOL     OW10672   1.173   5.083   2.256  0.2374  0.5728  0.3218
 3258SOL    HW110673   1.142   5.154   2.319  0.2744 -0.7326  1.8522
 3258SOL    HW210674   1.121   4.999   2.271  2.2232 -0.6541  0.6660
 3259SOL     OW10675   6.002   5.323   3.095  0.4735 -0.2228 -0.1461
 3259SOL    HW110676   6.044   5.367   3.175 -0.9082  0.4517  0.2468
 3259SOL    HW210677   5.903   5.324   3.106  0.2711 -0.2619 -1.8156
 3260SOL     OW10678   2.236   5.869   4.099 -0.0177  0.4088  0.2186
 3260SOL    HW110679   2.157   5.866   4.037 -0.7230 -1.1602  1.1435
 3260SOL    HW210680   2.224   5.945   4.163 -0.3528  0.6905 -0.1670
 3261SOL     OW10681   0.149   0.211   4.715  0.2905  0.4314 -0.6182
 3261SOL    HW110682   0.118   0.186   4.807 -1.5212 -0.3276 -1.3940
 3261SOL    HW210683   0.075   0.256   4.666  1.1238  0.5126 -1.8452
 3262SOL     OW10684   3.471   0.507   2.726 -0.5915 -0.1931 -0.4440
 3262SOL    HW110685   3.540   0.570   2.693 -2.4694  0.4849 -3.4119
 3262SOL    HW210686   3.497   0.413   2.703 -0.9566  0.1165 -2.1836
 3263SOL     OW10687   6.209   1.537   1.693  0.1601  1.1957  0.2238
 3263SOL    HW110688   6.218   1.500   1.786  0.2701 -0.7711 -0.5083
 3263SOL    HW210689   6.115   1.526   1.662 -0.2086  3.1361  0.5812
 3264SOL     OW10690   2.212   5.243   0.224  0.0057 -0.3753  0.4450
 3264SOL    HW110691   2.131   5.210   0.272 -1.9796  1.8048 -1.1637
 3264SOL    HW210692   2.231   5.183   0.146 -0.5294 -0.4919  0.3987
 3265SOL     OW10693   1.580   4.757   3.406 -0.0829  0.4288 -0.5408
 3265SOL    HW110694   1.579   4.830   3.474 -0.5964  0.4947 -0.6150
 3265SOL    HW210695   1.668   4.709   3.409  0.4693  1.4060 -0.8772
 3266SOL     OW10696   5.246   4.873   5.573  0.2197  0.1018  0.3670
 3266SOL    HW110697   5.171   4.808   5.583 -0.5896  1.1490  1.4643
 3266SOL    HW210698   5.328   4.837   5.618  0.3348 -0.9559 -0.6487
 3267SOL     OW10699   3.454   6.243   6.040  0.1505  0.0822  0.7226
 3267SOL    HW110700   3.377   6.278   5.986  0.0692 -0.2956  0.5943
 3267SOL    HW210701   3.513   6.188   5.982 -0.7307 -1.5705  1.3291
 3268SOL     OW10702   0.249   5.082   1.375  0.0753  0.9182  0.2839
 3268SOL    HW110703   0.263   5.022   1.454  1.7764  1.1936  0.2390
 3268SOL    HW210704   0.210   5.030   1.300  1.7167 -0.2436  0.1710
 3269SOL     OW10705   3.173   5.914   6.668  0.2354  0.5206  0.4092
 3269SOL    HW110706   3.178   5.941   6.765  1.7016  0.0907  0.4668
 3269SOL    HW210707   3.126   5.986   6.617  0.3772  1.2504  1.2631
 3270SOL     OW10708   1.385   3.567   5.804 -0.3601 -0.4662 -0.0637
 3270SOL    HW110709   1.474   3.610   5.814 -1.0856  1.0140  0.3100
 3270SOL    HW210710   1.370   3.543   5.708 -1.1890  3.0950 -0.9565
 3271SOL     OW10711   1.852   4.517   1.670 -0.2658 -0.3104  0.8839
 3271SOL    HW110712   1.771   4.553   1.625 -0.4988 -0.2883  1.3113
 3271SOL    HW210713   1.928   4.581   1.658  0.5332 -1.6561 -2.0056
 3272SOL     OW10714   3.851   6.429   6.525 -0.3588  1.0283  0.1223
 3272SOL    HW110715   3.850   6.528   6.511  0.6414  1.0548  0.2138
 3272SOL    HW210716   3.840   6.383   6.437 -1.4062  1.2031  0.1400
 3273SOL     OW10717   3.269   4.248   0.826 -0.5586  0.3564  0.0031
 3273SOL    HW110718   3.298   4.337   0.862 -1.8648  1.0390 -0.5570
 3273SOL    HW210719   3.169   4.247   0.816 -0.5533 -1.1544 -0.0723
 3274SOL     OW10720   4.414   1.633   0.866 -0.9952 -0.0074 -0.6476
 3274SOL    HW110721   4.454   1.549   0.829  0.4874  0.3533  0.0376
 3274SOL    HW210722   4.324   1.649   0.825 -0.8285 -1.3449 -1.5875
 3275SOL     OW10723   3.631   6.739   0.593 -0.4342  0.1995  0.1517
 3275SOL    HW110724   3.711   6.786   0.555 -0.6721 -1.3027 -2.3962
 3275SOL    HW210725   3.569   6.807   0.632  0.0252  1.8942 -1.8551
 3276SOL     OW10726   2.539   0.410   0.859  0.2583  0.6040  0.3733
 3276SOL    HW110727   2.515   0.422   0.763  0.5398 -1.2687  0.0324
 3276SOL    HW210728   2.622   0.463   0.879 -1.8421  4.1027  0.6231
 3277SOL     OW10729   5.323   6.055   1.353  0.0820  0.0236  0.2188
 3277SOL    HW110730   5.349   5.979   1.293  1.0563  1.0289 -0.6676
 3277SOL    HW210731   5.345   6.031   1.448 -2.5533 -2.0719  0.4402
 3278SOL     OW10732   5.554   0.116   0.584 -0.0370  0.5356 -0.1587
 3278SOL    HW110733   5.560   0.029   0.535  0.8181 -0.0193  0.8907
 3278SOL    HW210734   5.465   0.122   0.630  1.1241 -1.4130  2.6052
 3279SOL     OW10735   4.397   6.889   1.219  0.2158 -0.4051  0.7668
 3279SOL    HW110736   4.330   6.956   1.188 -1.8226 -1.5641  2.3933
 3279SOL    HW210737   4.452   6.928   1.293 -0.2452 -0.1917  0.9966
 3280SOL     OW10738   6.361   1.550   4.095 -0.0875 -0.4684 -0.5243
 3280SOL    HW110739   6.385   1.532   3.999 -0.3660 -2.0280 -0.3244
 3280SOL    HW210740   6.354   1.463   4.144 -3.2708  0.0525  0.1380
 3281SOL     OW10741   6.677   0.542   2.859 -0.1263 -0.6643 -0.1632
 3281SOL    HW110742   6.720   0.453   2.845 -0.6748 -1.3380  2.1323
 3281SOL    HW210743   6.688   0.571   2.954 -2.1145  0.5363 -0.2250
 3282SOL     OW10744   0.100   5.716   0.990 -0.0618 -0.2766  0.2326
 3282SOL    HW110745   0.122   5.810   0.965 -3.5398  0.8324  0.7363
 3282SOL    HW210746   0.184   5.664   1.001  1.9931  2.6108 -0.5562
 3283SOL     OW10747   5.802   1.229   0.431  0.2137 -0.7859  0.0823
 3283SOL    HW110748   5.852   1.292   0.490  0.3772 -0.3184 -0.5507
 3283SOL    HW210749   5.747   1.167   0.488 -1.1156  0.8824  0.6992
 3284SOL     OW10750   2.553   1.139   0.002 -0.2312  0.0176 -0.0206
 3284SOL    HW110751   2.546   1.048   0.044 -2.2855 -0.0257 -0.3659
 3284SOL    HW210752   2.463   1.182   0.001  0.9269  2.7323  1.5479
 3285SOL     OW10753   5.728   1.223   5.065 -0.0525  0.2816 -0.0052
 3285SOL    HW110754   5.744   1.280   5.146  0.8365  1.0801 -0.7104
 3285SOL    HW210755   5.784   1.140   5.071 -0.6153 -0.0666  0.5714
 3286SOL     OW10756   1.559   2.985   3.804 -0.8309  0.6881  0.0300
 3286SOL    HW110757   1.559   2.965   3.902 -2.7828 -0.3000 -0.1214
 3286SOL    HW210758   1.652   3.005   3.774 -0.0216 -0.1444  1.8446
 3287SOL     OW10759   3.606   1.190   6.592  0.3455  0.3437 -0.4572
 3287SOL    HW110760   3.658   1.273   6.611  2.3343 -0.3101 -2.5263
 3287SOL    HW210761   3.531   1.210   6.529 -0.2412  0.8251  0.3784
 3288SOL     OW10762   3.207   6.315   0.537 -0.0731 -0.1415 -0.8388
 3288SOL    HW110763   3.223   6.414   0.547  0.0635 -0.0379 -1.8999
 3288SOL    HW210764   3.294   6.267   0.543 -0.2064 -0.2594  0.2430
 3289SOL     OW10765   4.266   5.324   6.731  0.0673 -0.3408  0.2781
 3289SOL    HW110766   4.291   5.417   6.702  0.2629 -0.4495  0.0929
 3289SOL    HW210767   4.238   5.271   6.651  1.3817 -0.8844  0.1531
 3290SOL     OW10768   0.473   3.833   5.902 -0.1886  0.1504 -0.2196
 3290SOL    HW110769   0.568   3.800   5.902 -0.2247 -0.0685  1.5093
 3290SOL    HW210770   0.450   3.870   5.812  0.6898 -2.1722 -1.4675
 3291SOL     OW10771   4.906   1.962   5.105 -0.3571 -0.1920 -0.0039
 3291SOL    HW110772   4.950   1.874   5.091  0.2708 -0.1153  1.3617
 3291SOL    HW210773   4.971   2.036   5.084 -0.0632 -0.0769  1.2482
 3292SOL     OW10774   0.637   1.837   0.777  0.0906  0.2813  0.2414
 3292SOL    HW110775   0.657   1.751   0.730  1.8948 -0.0771  1.5533
 3292SOL    HW210776   0.641   1.913   0.712  0.2127 -0.4339 -0.6056
 3293SOL     OW10777   5.007   3.977   0.611  0.3491 -0.4916  0.1546
 3293SOL    HW110778   4.908   3.966   0.603  0.1261  1.5054 -0.4353
 3293SOL    HW210779   5.028   4.029   0.694  0.6937  0.9603 -0.7978
 3294SOL     OW10780   5.009   3.065   5.396 -0.7278 -0.1893  0.1773
 3294SOL    HW110781   5.056   3.107   5.474 -1.1862  0.7800 -0.0422
 3294SOL    HW210782   4.920   3.110   5.383 -0.4069  0.0746 -1.2540
 3295SOL     OW10783   6.593   3.359   3.748 -0.5094  0.4443  0.4633
 3295SOL    HW110784   6.557   3.422   3.678  0.2396 -1.1618 -1.4606
 3295SOL    HW210785   6.683   3.390   3.777  0.5575 -0.4928 -1.6413
 3296SOL     OW10786   0.478   1.611   0.886 -0.3507 -0.0726  0.1361
 3296SOL    HW110787   0.517   1.702   0.900 -0.0222 -0.0913 -0.5864
 3296SOL    HW210788   0.412   1.614   0.811 -0.8274 -0.3006  0.5384
 3297SOL     OW10789   3.066   2.298   6.907  0.4833  0.3393  0.1200
 3297SOL    HW110790   3.040   2.269   6.999 -0.5799  0.0238 -0.2681
 3297SOL    HW210791   3.103   2.221   6.856 -3.2013 -0.7510 -1.2247
 3298SOL     OW10792   3.582   2.606   0.686  0.6417  0.1870  0.2697
 3298SOL    HW110793   3.619   2.568   0.601 -0.3619  0.8661 -0.4959
 3298SOL    HW210794   3.555   2.701   0.670  0.6410  0.3863  1.4186
 3299SOL     OW10795   2.756   6.890   3.141  0.2033  0.0257  0.2996
 3299SOL    HW110796   2.755   6.926   3.048  0.6808  3.2295  1.3752
 3299SOL    HW210797   2.664   6.895   3.180  0.2254 -0.1041  0.3673
 3300SOL     OW10798   1.161   1.263   3.211  0.0272 -0.1726  0.9396
 3300SOL    HW110799   1.131   1.271   3.116 -0.7542 -1.0187  1.0962
 3300SOL    HW210800   1.124   1.179   3.251  1.1731 -0.3470  1.6973
 3301SOL     OW10801   6.959   1.662   0.817 -0.9135 -0.4926  0.0288
 3301SOL    HW110802   6.875   1.649   0.764 -2.3107 -1.3963  2.3211
 3301SOL    HW210803   6.966   1.590   0.886 -0.6280  2.0521  2.8283
 3302SOL     OW10804   1.046   5.922   4.245 -0.2937 -0.3753 -0.2347
 3302SOL    HW110805   1.093   5.896   4.330  0.6849  2.2801  0.1255
 3302SOL    HW210806   0.950   5.944   4.265 -0.5459 -1.4430 -0.1789
 3303SOL     OW10807   4.264   5.700   5.931  0.2285 -0.0003 -0.5789
 3303SOL    HW110808   4.242   5.789   5.892  1.9888 -0.1995 -2.1643
 3303SOL    HW210809   4.187   5.638   5.919  0.3322  0.2343 -2.9542
 3304SOL     OW10810   3.552   4.922   1.748  0.4645 -0.0416  0.8592
 3304SOL    HW110811   3.460   4.929   1.785 -0.6750 -2.7012 -1.1700
 3304SOL    HW210812   3.607   4.862   1.807  0.0442 -0.6155  0.6807
 3305SOL     OW10813   3.978   2.158   6.720 -0.4771  0.4022 -0.3586
 3305SOL    HW110814   4.000   2.254   6.735 -0.8731  0.6530 -1.3192
 3305SOL    HW210815   3.891   2.150   6.670 -0.2326 -0.4423 -0.6746
 3306SOL     OW10816   2.908   6.328   6.204  0.1494  0.5159  0.4253
 3306SOL    HW110817   2.847   6.400   6.236 -0.8710 -0.0002 -0.3053
 3306SOL    HW210818   2.909   6.325   6.104  1.5800  0.6683  0.4100
 3307SOL     OW10819   0.632   5.869   6.820 -0.2260  0.1722  0.4927
 3307SOL    HW110820   0.664   5.961   6.797  1.5916  0.3915  3.4827
 3307SOL    HW210821   0.689   5.802   6.773  2.1810  0.6164  2.5885
 3308SOL     OW10822   2.641   4.612   3.795  0.0455 -0.3269 -0.1768
 3308SOL    HW110823   2.712   4.658   3.848 -1.1208 -0.0454  1.2211
 3308SOL    HW210824   2.555   4.613   3.846 -0.7166 -1.6069 -1.3381
 3309SOL     OW10825   4.846   3.253   3.925  0.5690 -0.1614 -0.1752
 3309SOL    HW110826   4.842   3.348   3.956  0.1238  0.0366 -0.8334
 3309SOL    HW210827   4.859   3.250   3.826  1.8675 -0.7940 -0.0097
 3310SOL     OW10828   4.868   4.971   6.252 -0.2551  0.5598  1.0032
 3310SOL    HW110829   4.879   5.064   6.288  1.1932  0.9575 -0.3561
 3310SOL    HW210830   4.857   4.974   6.153  1.9325 -0.7532  0.6366
 3311SOL     OW10831   1.364   3.559   1.870 -0.0129 -0.0977 -0.1672
 3311SOL    HW110832   1.409   3.578   1.782 -0.4693 -1.0410 -0.6149
 3311SOL    HW210833   1.275   3.515   1.854 -0.2827  0.0820  0.7586
 3312SOL     OW10834   0.530   4.990   0.437  0.1980 -0.0776 -0.5018
 3312SOL    HW110835   0.554   4.915   0.375  3.4730  0.7739 -0.4088
 3312SOL    HW210836   0.510   4.954   0.528  0.5975 -0.9234 -0.7462
 3313SOL     OW10837   6.734   6.696   4.220 -0.3727  0.4874 -0.0230
 3313SOL    HW110838   6.788   6.668   4.299 -0.2765  2.1821  0.5645
 3313SOL    HW210839   6.783   6.768   4.170 -0.5790 -0.3293 -1.4621
 3314SOL     OW10840   3.405   0.046   1.519  0.6351 -0.0860  0.0328
 3314SOL    HW110841   3.476   0.028   1.451  0.6434 -1.7752  0.4555
 3314SOL    HW210842   3.346  -0.034   1.528 -0.1344  0.5736  1.1107
 3315SOL     OW10843   1.945   1.475   5.562  0.1567 -0.1505 -0.0160
 3315SOL    HW110844   1.976   1.536   5.490 -0.6422 -1.2444 -1.3488
 3315SOL    HW210845   1.908   1.391   5.521 -0.0360 -0.9485  1.6858
 3316SOL     OW10846   3.356   1.138   0.453 -0.2467  0.8216  0.9440
 3316SOL    HW110847   3.453   1.154   0.436 -0.3667  0.4697 -0.1663
 3316SOL    HW210848   3.306   1.224   0.447 -0.1973  0.7933  0.0585
 3317SOL     OW10849   6.559   2.406   1.139  0.3063  0.4091  0.0390
 3317SOL    HW110850   6.523   2.438   1.227 -1.2503  1.4251 -0.9107
 3317SOL    HW210851   6.618   2.476   1.100 -0.3772  0.7055 -0.4863
 3318SOL     OW10852   4.148   3.561   0.845  0.5923  0.2648  0.0502
 3318SOL    HW110853   4.164   3.596   0.938 -0.2384 -0.4549  0.4792
 3318SOL    HW210854   4.065   3.603   0.808  0.8561  0.4604 -0.3263
 3319SOL     OW10855   6.280   6.483   3.906  0.0147  0.4484 -0.3275
 3319SOL    HW110856   6.226   6.445   3.981 -0.3420  1.0680 -0.2601
 3319SOL    HW210857   6.297   6.413   3.837  2.1952 -0.7543  1.3118
 3320SOL     OW10858   5.969   0.369   3.431  0.6719 -0.2936 -0.2690
 3320SOL    HW110859   5.975   0.409   3.523 -1.5186 -0.2297 -0.1034
 3320SOL    HW210860   5.889   0.406   3.384  0.1533 -2.3913 -1.1575
 3321SOL     OW10861   4.110   2.053   5.307 -0.5824 -0.1607 -0.0858
 3321SOL    HW110862   4.113   1.958   5.277 -0.1502 -0.0567 -0.3777
 3321SOL    HW210863   4.043   2.104   5.253  0.2064  0.0315 -0.9069
 3322SOL     OW10864   5.220   2.644   2.404 -0.3218  0.6490 -0.2081
 3322SOL    HW110865   5.242   2.547   2.419 -1.1583  0.2529 -1.4148
 3322SOL    HW210866   5.165   2.677   2.481  0.9104  0.5014  0.7717
 3323SOL     OW10867   6.931   0.077   1.862  0.5484 -0.1578 -0.2299
 3323SOL    HW110868   6.910   0.153   1.800  1.2352  0.5097  0.3294
 3323SOL    HW210869   6.991   0.110   1.935 -1.2344 -0.5783  1.5316
 3324SOL     OW10870   0.313   4.624   5.505 -0.0389 -0.3333  0.0770
 3324SOL    HW110871   0.217   4.604   5.525 -0.0750  0.1159  0.3653
 3324SOL    HW210872   0.324   4.641   5.406 -0.1537 -0.9333 -0.0410
 3325SOL     OW10873   3.175   5.810   1.682  0.2160  0.0116  0.4361
 3325SOL    HW110874   3.079   5.831   1.702 -0.5781 -3.5089  1.0238
 3325SOL    HW210875   3.194   5.829   1.586 -1.6697 -0.9208 -0.1877
 3326SOL     OW10876   4.866   1.828   2.032  0.5892 -0.5377  0.0745
 3326SOL    HW110877   4.796   1.895   2.057 -0.0587 -1.7962  1.7567
 3326SOL    HW210878   4.833   1.771   1.956 -0.0522 -0.8657  0.5952
 3327SOL     OW10879   6.879   5.307   4.972  0.0029  0.0982 -0.3103
 3327SOL    HW110880   6.875   5.376   5.045 -1.3720  0.6558 -0.8727
 3327SOL    HW210881   6.974   5.285   4.952  0.4426  1.0811  0.5906
 3328SOL     OW10882   3.561   2.701   5.356 -0.2260 -0.0159  0.2476
 3328SOL    HW110883   3.630   2.629   5.348 -0.0688 -0.3124  3.1484
 3328SOL    HW210884   3.472   2.661   5.376 -0.4711  0.5327  0.2967
 3329SOL     OW10885   1.290   5.276   5.321  0.5740 -0.1131 -0.3926
 3329SOL    HW110886   1.293   5.307   5.416  0.0564  0.1625 -0.4630
 3329SOL    HW210887   1.321   5.181   5.317 -1.4952 -0.8936  0.3974
 3330SOL     OW10888   5.541   2.323   2.652  0.5684 -0.4095 -0.1897
 3330SOL    HW110889   5.540   2.228   2.621  0.6436 -0.7867  0.9432
 3330SOL    HW210890   5.449   2.360   2.649  0.0443 -1.4076  1.9980
 3331SOL     OW10891   1.691   3.655   1.011  0.6524 -0.0597 -0.4453
 3331SOL    HW110892   1.741   3.570   1.025  0.3355  0.0560  1.6729
 3331SOL    HW210893   1.755   3.727   0.981  1.0946 -0.7534 -1.2150
 3332SOL     OW10894   6.872   3.448   1.370  0.5540 -0.5079  0.2189
 3332SOL    HW110895   6.843   3.441   1.465  0.8475  0.3312  0.3743
 3332SOL    HW210896   6.965   3.483   1.365  0.7142 -0.9854 -0.3667
 3333SOL     OW10897   2.008   1.005   4.364 -0.3914  0.5471 -0.0942
 3333SOL    HW110898   2.009   1.104   4.346  1.5091  0.6701  0.5401
 3333SOL    HW210899   2.092   0.964   4.329 -0.5706 -0.6320  0.8161
 3334SOL     OW10900   2.189   1.643   0.654 -0.4056 -0.3870  0.0217
 3334SOL    HW110901   2.179   1.728   0.704 -0.6204  0.6034 -1.6235
 3334SOL    HW210902   2.165   1.566   0.713  0.9840  0.5557  1.9373
 3335SOL     OW10903   5.085   3.269   5.009  0.2129  0.0186  0.6640
 3335SOL    HW110904   5.028   3.187   5.020 -2.1681  1.1631 -1.8114
 3335SOL    HW210905   5.054   3.339   5.074 -0.8519  0.4126 -0.2311
 3336SOL     OW10906   2.519   6.008   6.026  0.4625 -0.0893  0.2255
 3336SOL    HW110907   2.565   5.934   6.076  1.3352  1.2477  1.4870
 3336SOL    HW210908   2.420   5.990   6.024  0.6325 -1.1927  0.6469
 3337SOL     OW10909   4.326   0.705   0.228  0.2350  0.0816 -0.1710
 3337SOL    HW110910   4.418   0.733   0.256  0.7481 -0.4415 -1.2787
 3337SOL    HW210911   4.303   0.750   0.142  0.0048 -0.8164 -0.5933
 3338SOL     OW10912   6.576   6.169   0.381 -0.8947  0.0298  0.3028
 3338SOL    HW110913   6.507   6.104   0.413  1.2167 -3.7154 -2.0084
 3338SOL    HW210914   6.548   6.206   0.293 -0.1445 -1.4523 -0.6108
 3339SOL     OW10915   6.750   5.449   6.191 -0.2474  0.1473 -0.7749
 3339SOL    HW110916   6.707   5.466   6.103 -1.3046 -3.6578 -1.1552
 3339SOL    HW210917   6.683   5.463   6.265 -0.6182 -0.7367 -0.9392
 3340SOL     OW10918   5.380   6.089   0.866  0.1561  0.4977 -0.2328
 3340SOL    HW110919   5.421   5.998   0.857  1.4927  1.2733 -3.3011
 3340SOL    HW210920   5.281   6.082   0.858  0.0379 -0.8130  1.5844
 3341SOL     OW10921   0.661   0.160   1.144 -0.1773 -0.6170 -0.0739
 3341SOL    HW110922   0.737   0.102   1.116 -0.8002 -1.4875  0.0082
 3341SOL    HW210923   0.650   0.235   1.078 -0.7021 -1.7951 -1.3738
 3342SOL     OW10924   6.278   6.211   5.878  0.0582 -0.1626  0.2714
 3342SOL    HW110925   6.376   6.203   5.895 -0.2116 -0.5288  1.7776
 3342SOL    HW210926   6.242   6.123   5.846  0.0391 -0.3158  0.7134
 3343SOL     OW10927   0.046   1.648   1.648  0.0386  0.2721 -0.2827
 3343SOL    HW110928   0.100   1.575   1.689 -1.9561 -0.4842  1.1718
 3343SOL    HW210929  -0.044   1.612   1.622 -0.1327  1.6715 -1.8027
 3344SOL     OW10930   0.849   1.360   1.375  0.2561  0.3146 -0.1076
 3344SOL    HW110931   0.774   1.301   1.404 -0.6740  1.8000  0.6435
 3344SOL    HW210932   0.815   1.425   1.307  1.0514  0.5240 -0.3160
 3345SOL     OW10933   1.911   2.329   6.162 -0.2988 -0.1517 -0.8438
 3345SOL    HW110934   1.889   2.233   6.182 -3.1058  0.3923 -0.8967
 3345SOL    HW210935   1.907   2.382   6.246 -1.4381  0.3412 -1.1904
 3346SOL     OW10936   3.046   4.817   2.124  0.0421 -0.0452  0.4822
 3346SOL    HW110937   3.008   4.879   2.055  0.4287  1.7112  1.7655
 3346SOL    HW210938   3.009   4.725   2.110 -0.7818  0.5134 -1.3271
 3347SOL     OW10939   7.003   4.750   2.974  0.1208  0.0732  0.2360
 3347SOL    HW110940   7.089   4.792   2.946 -0.5986  1.1761 -0.3984
 3347SOL    HW210941   6.990   4.761   3.072  0.1910  0.8792  0.1596
 3348SOL     OW10942   4.031   3.284   2.397 -0.5180 -0.2293  0.2897
 3348SOL    HW110943   4.077   3.340   2.466  0.9404 -1.1865  0.1434
 3348SOL    HW210944   4.045   3.324   2.306  0.6863 -0.8819  0.1626
 3349SOL     OW10945   4.922   2.565   6.733 -0.8412 -0.2681  0.2918
 3349SOL    HW110946   4.830   2.565   6.694 -0.6333  0.3547 -0.2112
 3349SOL    HW210947   4.961   2.473   6.724 -0.9779 -0.2533 -0.5411
 3350SOL     OW10948   1.208   2.704   1.870  0.5626 -0.6588  0.0745
 3350SOL    HW110949   1.185   2.607   1.871  0.2728 -0.6052  2.0543
 3350SOL    HW210950   1.179   2.744   1.783 -0.3080 -2.1150 -0.3384
 3351SOL     OW10951   0.834   1.667   1.095  0.0374 -0.0512  0.0204
 3351SOL    HW110952   0.905   1.737   1.085  0.8531 -0.6226  1.4723
 3351SOL    HW210953   0.872   1.578   1.069  0.2635 -0.5526  1.9407
 3352SOL     OW10954   6.478   3.701   1.321  0.1079  0.1441  0.1143
 3352SOL    HW110955   6.566   3.730   1.358 -0.1152  0.3694  0.4728
 3352SOL    HW210956   6.429   3.649   1.391 -1.3486  2.5999  1.0305
 3353SOL     OW10957   3.087   6.939   6.466 -0.8286  0.2176  0.4104
 3353SOL    HW110958   3.185   6.929   6.449 -0.5034  1.5942  1.3487
 3353SOL    HW210959   3.036   6.898   6.390  0.4810  0.5208 -0.6756
 3354SOL     OW10960   6.879   0.011   2.435  0.0803 -0.6711 -0.3816
 3354SOL    HW110961   6.859   0.107   2.413 -0.9310 -0.7202  0.2369
 3354SOL    HW210962   6.794  -0.037   2.454  0.2959 -2.4075 -3.2956
 3355SOL     OW10963   0.736   6.738   3.787  0.5711 -0.1620  0.3508
 3355SOL    HW110964   0.722   6.686   3.702 -0.5394 -0.5191  0.7404
 3355SOL    HW210965   0.763   6.832   3.764 -0.0050 -0.1736 -0.4049
 3356SOL     OW10966   0.938   4.103   5.279  0.5546  0.2343  0.7091
 3356SOL    HW110967   0.919   4.068   5.371 -0.6251  0.3611  0.5300
 3356SOL    HW210968   0.908   4.198   5.273  0.9750  0.3411  0.3047
 3357SOL     OW10969   1.746   6.114   3.613 -0.4832  0.2170  0.1163
 3357SOL    HW110970   1.800   6.133   3.695  0.2388  1.7373 -0.6627
 3357SOL    HW210971   1.711   6.021   3.617  1.8936 -0.7382  0.8528
 3358SOL     OW10972   5.354   4.244   2.517 -0.0398  0.0246  1.1501
 3358SOL    HW110973   5.312   4.160   2.551  1.3070 -1.2243 -0.1303
 3358SOL    HW210974   5.402   4.290   2.592  2.1656 -2.2274  1.2829
 3359SOL     OW10975   3.032   1.251   3.196 -0.0457  0.2455 -0.0592
 3359SOL    HW110976   3.042   1.154   3.173  0.3924  0.5080 -1.0180
 3359SOL    HW210977   2.940   1.282   3.173 -0.4296 -0.1159  0.9424
 3360SOL     OW10978   3.214   0.647   5.902 -0.7943 -0.5616 -0.2328
 3360SOL    HW110979   3.208   0.646   6.002 -1.6931 -0.8679 -0.2837
 3360SOL    HW210980   3.246   0.557   5.870 -2.0976 -1.0218 -0.2988
 3361SOL     OW10981   1.797   6.618   4.242 -0.9050 -0.1110 -0.0419
 3361SOL    HW110982   1.760   6.654   4.328 -0.2889 -0.1610  0.2494
 3361SOL    HW210983   1.881   6.567   4.261  0.4941  1.7477 -0.9002
 3362SOL     OW10984   2.385   2.210   4.712  0.0978  0.0461  0.1841
 3362SOL    HW110985   2.422   2.297   4.680 -2.2040  1.0542  0.0623
 3362SOL    HW210986   2.286   2.208   4.697  0.0578 -2.5560  0.3131
 3363SOL     OW10987   1.520   0.715   0.732  0.6788 -0.2034  0.2666
 3363SOL    HW110988   1.507   0.692   0.635  1.4775  0.0212  0.0912
 3363SOL    HW210989   1.526   0.630   0.785  1.0029 -0.3523  0.0020
 3364SOL     OW10990   1.673   4.703   5.836 -0.1052  0.3863  0.3475
 3364SOL    HW110991   1.695   4.739   5.746 -0.2060  0.7905  0.4817
 3364SOL    HW210992   1.694   4.772   5.905 -1.0562  0.4836  0.5468
 3365SOL     OW10993   0.452   3.198   6.279 -0.4340 -0.1980 -1.0082
 3365SOL    HW110994   0.429   3.239   6.191 -0.7350 -0.2817 -0.9703
 3365SOL    HW210995   0.507   3.116   6.264  1.6918  1.1729 -1.0212
 3366SOL     OW10996   4.486   6.354   1.103  0.2951 -0.1596  0.3463
 3366SOL    HW110997   4.481   6.448   1.135 -0.4726 -0.7307  2.0251
 3366SOL    HW210998   4.416   6.337   1.034  0.2141  0.3990  0.2919
 3367SOL     OW10999   1.475   6.547   1.904  0.3158  0.1817  1.1780
 3367SOL    HW111000   1.445   6.459   1.942 -1.0166  1.1231  2.4354
 3367SOL    HW211001   1.482   6.539   1.805 -1.6266 -0.8575  1.0703
 3368SOL     OW11002   4.985   1.644   5.016  0.0717  0.1195  1.0157
 3368SOL    HW111003   4.886   1.649   5.018  0.0257  0.0738 -0.3237
 3368SOL    HW211004   5.014   1.566   4.960  0.8639  0.8081  0.4434
 3369SOL     OW11005   4.349   5.775   5.441 -0.2315  0.3646 -0.5280
 3369SOL    HW111006   4.328   5.696   5.499 -1.5442  1.0411 -0.0439
 3369SOL    HW211007   4.361   5.856   5.499  2.7789  0.2625 -0.8585
 3370SOL     OW11008   6.575   0.910   0.291 -0.2134 -0.3526  0.1002
 3370SOL    HW111009   6.590   0.814   0.315 -0.2841 -0.4706 -0.3188
 3370SOL    HW211010   6.477   0.928   0.284 -0.1926 -0.3220 -0.1089
 3371SOL     OW11011   5.578   6.180   2.521  0.4753  0.6083  0.5332
 3371SOL    HW111012   5.589   6.091   2.475  2.2894 -0.0381  2.0568
 3371SOL    HW211013   5.517   6.238   2.468 -1.3565 -1.7992 -0.1522
 3372SOL     OW11014   1.547   3.730   3.661 -0.3730  0.4985  0.3042
 3372SOL    HW111015   1.631   3.785   3.662 -1.2663  1.9366 -0.4961
 3372SOL    HW211016   1.571   3.634   3.645  1.3308  0.3580  3.0059
 3373SOL     OW11017   0.351   2.782   6.510 -0.1360  0.3914 -0.6350
 3373SOL    HW111018   0.338   2.882   6.512 -0.5249  0.3322  0.5506
 3373SOL    HW211019   0.264   2.738   6.487 -0.1758  0.2943 -0.3015
 3374SOL     OW11020   3.997   5.912   5.254  0.2401 -0.2035  0.1714
 3374SOL    HW111021   3.971   5.820   5.284  1.8925 -0.4631  0.9365
 3374SOL    HW211022   4.040   5.907   5.164 -0.6387 -0.0206 -0.2684
 3375SOL     OW11023   3.470   3.989   3.208 -0.1103  0.5679  0.4515
 3375SOL    HW111024   3.459   3.893   3.234 -0.8522  0.7888  0.9777
 3375SOL    HW211025   3.553   3.999   3.152 -1.9405 -1.0534 -2.8781
 3376SOL     OW11026   3.536   2.175   0.884  0.2198  0.3939 -0.0162
 3376SOL    HW111027   3.611   2.225   0.841  0.3230 -1.8010 -2.6304
 3376SOL    HW211028   3.452   2.230   0.881  0.7141  1.1060 -1.1886
 3377SOL     OW11029   2.822   5.473   5.975 -0.3766 -0.0049 -0.4845
 3377SOL    HW111030   2.748   5.504   5.916 -0.7630  0.1045  0.0560
 3377SOL    HW211031   2.809   5.376   5.997 -1.2819  0.4138  0.9543
 3378SOL     OW11032   6.833   0.860   0.146  0.3351 -0.1595  0.3228
 3378SOL    HW111033   6.771   0.929   0.184 -1.0654 -2.0165  1.5455
 3378SOL    HW211034   6.782   0.778   0.123  1.9224 -0.7279 -1.3930
 3379SOL     OW11035   1.991   5.264   6.317  0.4436 -0.4966 -0.7502
 3379SOL    HW111036   1.913   5.272   6.255  0.3674 -0.2646 -0.6249
 3379SOL    HW211037   2.024   5.169   6.316 -0.9983 -1.0575  0.5660
 3380SOL     OW11038   0.179   3.187   5.196 -0.1175 -0.3648 -0.4083
 3380SOL    HW111039   0.135   3.216   5.111  0.0913  1.5092  0.0950
 3380SOL    HW211040   0.214   3.094   5.185 -2.1243 -1.0382 -1.5861
 3381SOL     OW11041   4.359   1.917   1.345 -0.6833  0.0742 -0.5085
 3381SOL    HW111042   4.385   1.823   1.322 -0.3329  0.2577 -0.8656
 3381SOL    HW211043   4.261   1.929   1.325 -0.6563 -0.1201 -0.7731
 3382SOL     OW11044   1.573   6.296   1.962 -0.4187  0.0872  0.0844
 3382SOL    HW111045   1.526   6.229   1.904 -2.5971 -0.3045  2.1618
 3382SOL    HW211046   1.574   6.263   2.056 -0.3701  2.3952  0.9553
 3383SOL     OW11047   0.104   4.596   2.741 -0.0045 -0.0951  0.0401
 3383SOL    HW111048   0.056   4.512   2.716 -0.9569  0.8504 -1.4471
 3383SOL    HW211049   0.094   4.612   2.839 -1.8688 -0.4697 -0.0580
 3384SOL     OW11050   3.952   3.917   2.740  0.0591 -0.4771  0.0739
 3384SOL    HW111051   3.917   3.828   2.769 -1.1746  0.2493  0.9524
 3384SOL    HW211052   3.929   3.932   2.644 -2.0661 -0.0787  0.5910
 3385SOL     OW11053   1.702   3.077   4.957  0.1825  0.0772  0.6160
 3385SOL    HW111054   1.679   3.151   4.894 -0.3238  0.8629  1.6932
 3385SOL    HW211055   1.626   3.012   4.961  1.0357 -1.1002 -1.1137
 3386SOL     OW11056   6.173   5.967   2.772  0.1822  0.1498 -0.8332
 3386SOL    HW111057   6.159   6.066   2.776  0.5910  0.1824  2.3667
 3386SOL    HW211058   6.254   5.947   2.716  1.1622  1.8058 -0.0963
 3387SOL     OW11059   2.659   2.415   1.814  0.2825 -0.1317  0.2426
 3387SOL    HW111060   2.742   2.416   1.870 -0.0590  0.4365  0.7543
 3387SOL    HW211061   2.579   2.429   1.872 -0.1238 -0.0565 -0.3231
 3388SOL     OW11062   0.774   2.147   0.552  0.4790 -0.6549  0.0186
 3388SOL    HW111063   0.784   2.203   0.634 -2.0923  1.6590 -1.1048
 3388SOL    HW211064   0.683   2.105   0.551  0.1466 -0.0060 -1.9515
 3389SOL     OW11065   3.832   5.918   3.001  0.7107  0.5103 -0.3250
 3389SOL    HW111066   3.814   5.844   3.066  0.8920 -1.3652 -2.2891
 3389SOL    HW211067   3.748   5.970   2.985 -0.5419 -1.8446 -1.8965
 3390SOL     OW11068   3.375   1.803   0.181  0.2540 -0.1417  0.0048
 3390SOL    HW111069   3.469   1.836   0.178 -0.2046  1.2602  0.3749
 3390SOL    HW211070   3.312   1.881   0.185 -0.8530 -1.0505  1.6230
 3391SOL     OW11071   2.564   1.522   5.370 -0.1991 -0.7679 -0.2346
 3391SOL    HW111072   2.654   1.477   5.369  1.4139  2.2025 -1.7680
 3391SOL    HW211073   2.536   1.537   5.464  1.4296 -0.8143  0.3007
 3392SOL     OW11074   6.425   5.403   4.901  0.0626  0.2250 -0.2972
 3392SOL    HW111075   6.418   5.346   4.983  1.3826  0.9748  0.3759
 3392SOL    HW211076   6.451   5.346   4.823 -1.0117 -0.4636 -0.1713
 3393SOL     OW11077   5.707   1.100   6.704 -0.2791 -0.5908  0.1838
 3393SOL    HW111078   5.686   1.180   6.647 -2.0842 -0.5460  0.8320
 3393SOL    HW211079   5.806   1.087   6.708  0.0316  1.2288 -0.4514
 3394SOL     OW11080   4.368   0.762   1.251 -0.2985  0.3749 -0.0551
 3394SOL    HW111081   4.398   0.809   1.334  0.2959  0.9579 -0.5850
 3394SOL    HW211082   4.444   0.711   1.212 -0.3271  0.8244 -0.7158
 3395SOL     OW11083   6.570   3.724   4.760 -0.1223 -0.0067  0.3596
 3395SOL    HW111084   6.635   3.671   4.707  0.8158 -1.1307  2.5211
 3395SOL    HW211085   6.619   3.784   4.824 -1.1318  3.5622 -1.9105
 3396SOL     OW11086   6.250   4.557   5.956  0.1168  0.3615 -0.4834
 3396SOL    HW111087   6.283   4.594   5.869 -1.2754 -1.3846 -1.8301
 3396SOL    HW211088   6.203   4.470   5.940 -2.2063  1.0826  1.7157
 3397SOL     OW11089   3.233   6.814   0.808 -0.2971  0.5295  0.3982
 3397SOL    HW111090   3.196   6.803   0.716  1.5243  2.1099 -0.5675
 3397SOL    HW211091   3.260   6.724   0.844 -3.3056 -0.4765  0.4961
 3398SOL     OW11092   0.370   3.290   4.822  0.7128 -0.3402  0.5541
 3398SOL    HW111093   0.454   3.342   4.805  1.0754 -0.7340  1.1230
 3398SOL    HW211094   0.384   3.194   4.799  0.0786 -0.2214 -0.3806
 3399SOL     OW11095   4.055   4.771   5.110  0.4211 -0.0788  0.1221
 3399SOL    HW111096   4.032   4.868   5.116  1.7637  0.2005  1.2758
 3399SOL    HW211097   4.144   4.761   5.064 -0.8207 -0.9663 -2.2738
 3400SOL     OW11098   0.506   1.561   0.175 -0.3789  0.0077  0.1625
 3400SOL    HW111099   0.415   1.583   0.140 -0.9150  1.3236  2.2059
 3400SOL    HW211100   0.510   1.464   0.199 -1.9518  0.3063  1.8532
 3401SOL     OW11101   1.380   3.825   0.046 -0.0052 -0.0645 -0.8246
 3401SOL    HW111102   1.408   3.855   0.137  2.3536 -1.6274 -0.9561
 3401SOL    HW211103   1.370   3.725   0.045 -0.7656 -0.0040 -2.1070
 3402SOL     OW11104   4.711   5.017   1.840 -0.2029  0.1592  0.3534
 3402SOL    HW111105   4.734   5.111   1.865  0.3563  0.2114 -0.3332
 3402SOL    HW211106   4.782   4.955   1.873 -1.9658 -0.4387  3.4352
 3403SOL     OW11107   2.736   0.565   6.744  0.3979  0.2626 -0.5890
 3403SOL    HW111108   2.668   0.632   6.774  0.3523  0.7362 -1.7014
 3403SOL    HW211109   2.781   0.524   6.824 -1.0217  0.1106  0.1684
 3404SOL     OW11110   3.008   5.588   1.980 -0.5058 -0.1811 -0.9858
 3404SOL    HW111111   3.082   5.542   1.931 -0.7504 -2.5722  0.7335
 3404SOL    HW211112   2.921   5.545   1.956 -0.8440 -0.0965  0.0465
 3405SOL     OW11113   0.295   3.095   2.049 -0.2110 -0.4182  0.3523
 3405SOL    HW111114   0.343   3.182   2.040  0.3761 -0.8224 -0.6396
 3405SOL    HW211115   0.202   3.111   2.081  0.1994  0.4832  1.1297
 3406SOL     OW11116   2.307   2.616   2.108 -0.2251 -0.0814  0.5714
 3406SOL    HW111117   2.261   2.668   2.037  0.8684 -1.4462 -1.2371
 3406SOL    HW211118   2.363   2.677   2.164 -2.4596  1.2769  1.4481
 3407SOL     OW11119   2.408   5.579   1.870 -0.0191 -0.0497  0.2152
 3407SOL    HW111120   2.478   5.569   1.940  0.3046  1.2865  0.1169
 3407SOL    HW211121   2.422   5.512   1.797 -0.8548 -2.0411  1.7833
 3408SOL     OW11122   6.083   3.721   0.884 -0.0833  0.0264  0.3012
 3408SOL    HW111123   6.058   3.811   0.921  0.9185  0.6545 -0.4832
 3408SOL    HW211124   6.112   3.661   0.959  1.7346  1.2161  0.6262
 3409SOL     OW11125   3.706   0.814   0.013  0.3549 -0.0756  0.4100
 3409SOL    HW111126   3.671   0.897   0.056 -0.0822  0.5803 -1.1358
 3409SOL    HW211127   3.661   0.801  -0.076  2.1579 -0.6297 -0.4774
 3410SOL     OW11128   1.359   0.899   1.036  0.8277  0.0237  0.5648
 3410SOL    HW111129   1.367   0.802   1.060 -0.5345 -0.4070 -0.5738
 3410SOL    HW211130   1.326   0.950   1.116  0.2408 -0.6895  0.7929
 3411SOL     OW11131   5.023   2.721   3.826 -0.4143  0.4034 -0.6044
 3411SOL    HW111132   4.946   2.782   3.811 -1.8987 -1.5079 -1.1812
 3411SOL    HW211133   5.021   2.687   3.920 -0.1703  0.4712 -0.5739
 3412SOL     OW11134   4.936   5.049   5.279  0.7471  0.3772  0.2304
 3412SOL    HW111135   4.938   5.062   5.378  2.4378  1.3059  0.1219
 3412SOL    HW211136   5.028   5.064   5.242  0.1450  0.0568 -1.4811
 3413SOL     OW11137   5.675   1.684   1.826 -0.3641 -0.4487 -0.5854
 3413SOL    HW111138   5.699   1.618   1.897  0.0647 -0.0099 -0.3104
 3413SOL    HW211139   5.576   1.682   1.810 -0.5626 -0.0567  0.5265
 3414SOL     OW11140   2.905   0.547   5.579  0.1368  0.1866  0.0282
 3414SOL    HW111141   2.900   0.455   5.539 -2.3285  0.0422  0.5027
 3414SOL    HW211142   2.876   0.615   5.513  0.7042  0.5048  0.0937
 3415SOL     OW11143   2.870   1.234   6.570 -0.3232 -0.7106 -0.6228
 3415SOL    HW111144   2.936   1.309   6.570  0.1002 -1.0735 -1.0005
 3415SOL    HW211145   2.811   1.241   6.650  1.8454 -1.8398  1.1975
 3416SOL     OW11146   2.676   6.666   5.156 -0.5102  0.4695  0.0376
 3416SOL    HW111147   2.682   6.657   5.056 -0.7285  2.5058 -0.1974
 3416SOL    HW211148   2.627   6.588   5.194 -0.7196 -0.1662 -1.4837
 3417SOL     OW11149   5.070   0.918   1.442  0.6302 -0.0061  0.5399
 3417SOL    HW111150   5.141   0.933   1.374  1.1802 -0.7995  0.9297
 3417SOL    HW211151   5.111   0.890   1.529 -0.1497 -0.5414  0.7495
 3418SOL     OW11152   1.822   0.443   5.916  0.1003  0.5142  0.0141
 3418SOL    HW111153   1.806   0.345   5.902 -0.0167  0.6631 -1.0345
 3418SOL    HW211154   1.921   0.462   5.913  0.2005  0.2863  1.3630
 3419SOL     OW11155   4.950   2.773   6.145 -0.6227  0.1246  0.1825
 3419SOL    HW111156   4.879   2.796   6.079 -0.3056  0.1193 -0.1632
 3419SOL    HW211157   5.021   2.717   6.100  0.9826  2.3429 -0.2086
 3420SOL     OW11158   2.601   1.387   4.712 -0.1015  0.4847 -0.3356
 3420SOL    HW111159   2.527   1.320   4.707  2.5167 -2.6932  0.2489
 3420SOL    HW211160   2.681   1.353   4.662  2.2389  1.9442  2.1452
 3421SOL     OW11161   1.508   6.213   2.235  0.5799 -0.6282 -0.6557
 3421SOL    HW111162   1.414   6.243   2.223  0.7522  0.0387 -0.4077
 3421SOL    HW211163   1.515   6.158   2.318  0.3058 -1.1465 -0.9760
 3422SOL     OW11164   3.837   0.219   1.664 -0.3427  0.2778  0.6425
 3422SOL    HW111165   3.838   0.190   1.760  0.0748  0.3533  0.6665
 3422SOL    HW211166   3.755   0.272   1.646 -2.1919 -2.6001  0.0590
 3423SOL     OW11167   3.877   0.779   2.083  0.6157  0.0264 -0.0394
 3423SOL    HW111168   3.847   0.875   2.080  0.4450 -0.0197 -3.0083
 3423SOL    HW211169   3.953   0.767   2.018  1.6757 -1.5730  1.4110
 3424SOL     OW11170   5.180   1.133   6.134  0.4230 -0.3075  0.8368
 3424SOL    HW111171   5.148   1.047   6.095  0.5787  0.4874 -1.1337
 3424SOL    HW211172   5.253   1.115   6.199  0.1742 -1.6822  0.7550
 3425SOL     OW11173   6.120   3.663   0.608  0.4746  0.0253 -0.0370
 3425SOL    HW111174   6.148   3.672   0.704  0.5861 -0.5617 -0.0147
 3425SOL    HW211175   6.201   3.650   0.551  0.3869  0.1304 -0.1872
 3426SOL     OW11176   6.023   4.027   1.041  0.2512 -0.5988  0.5385
 3426SOL    HW111177   6.096   4.027   1.109  0.1539  0.5323  0.6627
 3426SOL    HW211178   5.949   3.968   1.072  0.2999 -0.2591  1.3240
 3427SOL     OW11179   6.756   1.245   1.018  0.7741  0.4383  0.4294
 3427SOL    HW111180   6.676   1.292   0.981  1.1165  0.3554 -0.4323
 3427SOL    HW211181   6.809   1.309   1.074 -0.9423 -0.0055  2.7557
 3428SOL     OW11182   4.992   4.592   3.077 -0.4898  0.2846 -0.0929
 3428SOL    HW111183   5.091   4.602   3.066 -0.4336  0.7265  0.7378
 3428SOL    HW211184   4.946   4.647   3.007 -0.1567 -0.3727 -0.8433
 3429SOL     OW11185   1.121   3.510   1.073  0.0373 -0.0132 -0.1857
 3429SOL    HW111186   1.179   3.429   1.071 -1.8147 -1.3958 -0.5167
 3429SOL    HW211187   1.129   3.554   1.162  0.5397 -0.9506  0.2485
 3430SOL     OW11188   0.798   4.892   6.130 -0.3328  0.5584 -0.1677
 3430SOL    HW111189   0.790   4.864   6.034 -0.7313 -0.7407  0.2294
 3430SOL    HW211190   0.799   4.811   6.188  1.5167  1.2431  0.8404
 3431SOL     OW11191   6.310   4.743   0.663  0.4446 -0.2419  0.8928
 3431SOL    HW111192   6.350   4.733   0.572 -0.4795 -0.5151  0.5081
 3431SOL    HW211193   6.374   4.711   0.732 -0.0659 -3.1245  0.1313
 3432SOL     OW11194   3.369   3.148   6.022  0.0305  0.4434  0.1246
 3432SOL    HW111195   3.381   3.240   5.983 -1.4664  1.0124  0.9500
 3432SOL    HW211196   3.272   3.130   6.035  0.3880  0.3524  3.6767
 3433SOL     OW11197   3.343   1.408   6.052  0.1423  0.0600 -0.5314
 3433SOL    HW111198   3.396   1.437   5.972  1.7412 -1.4668 -0.0758
 3433SOL    HW211199   3.358   1.311   6.068 -0.4505  0.2591  1.4287
 3434SOL     OW11200   3.644   1.167   4.272 -0.7546 -0.4676 -0.0082
 3434SOL    HW111201   3.740   1.194   4.263 -1.3821  2.3032  0.8054
 3434SOL    HW211202   3.639   1.074   4.308  1.7107  0.7550  4.0429
 3435SOL     OW11203   1.559   0.671   1.593 -0.1245 -0.0892 -0.3904
 3435SOL    HW111204   1.542   0.753   1.647 -1.1758 -0.7593  0.3293
 3435SOL    HW211205   1.654   0.641   1.606 -0.1793  0.1370  0.5609
 3436SOL     OW11206   4.454   1.081   2.337  0.4096 -0.5416  0.2119
 3436SOL    HW111207   4.424   0.990   2.365 -0.0627 -0.2543  0.6485
 3436SOL    HW211208   4.470   1.137   2.418  0.4718 -0.1607 -0.0635
 3437SOL     OW11209   4.224   6.265   6.738 -0.5475  0.3715  0.0644
 3437SOL    HW111210   4.176   6.186   6.698 -1.6370  1.0692 -0.0544
 3437SOL    HW211211   4.279   6.235   6.816 -1.8212 -0.3402  0.7127
 3438SOL     OW11212   6.799   5.002   0.253  0.5824  0.1141  0.8643
 3438SOL    HW111213   6.848   5.080   0.213  1.8829 -0.6051  1.0090
 3438SOL    HW211214   6.774   4.938   0.181 -0.7660  0.7862  0.7040
 3439SOL     OW11215   2.995   6.477   3.013 -0.0986 -0.7646 -0.5736
 3439SOL    HW111216   3.045   6.551   3.058 -1.4083  0.9180 -1.7854
 3439SOL    HW211217   3.035   6.389   3.040  1.5304  0.3535  0.8676
 3440SOL     OW11218   3.271   3.790   0.186 -0.0062  0.3645  0.3883
 3440SOL    HW111219   3.198   3.817   0.124  0.9818  0.4962 -0.7713
 3440SOL    HW211220   3.232   3.756   0.272 -1.4496 -0.5328 -0.5724
 3441SOL     OW11221   3.493   5.758   2.322 -0.4274  0.2125  0.4440
 3441SOL    HW111222   3.438   5.689   2.276 -0.9098 -0.9734  2.6656
 3441SOL    HW211223   3.577   5.717   2.356  0.4041  1.2923 -0.2343
 3442SOL     OW11224   6.298   4.298   1.683  0.1448  0.4063  0.1784
 3442SOL    HW111225   6.267   4.339   1.597  2.2086  0.7006 -0.4825
 3442SOL    HW211226   6.303   4.369   1.753  0.6460  0.6357 -0.0876
 3443SOL     OW11227   0.421   5.293   4.013 -0.1142  0.2493 -0.2461
 3443SOL    HW111228   0.382   5.384   4.027  0.3810  0.4919 -0.4321
 3443SOL    HW211229   0.362   5.225   4.056  0.4124  0.8071  1.4360
 3444SOL     OW11230   1.259   6.371   0.974 -0.0041 -0.4820 -0.1290
 3444SOL    HW111231   1.323   6.294   0.984  3.0263  1.7803 -0.7057
 3444SOL    HW211232   1.254   6.398   0.878 -1.1635 -0.0128  0.0437
 3445SOL     OW11233   5.803   4.878   3.880 -0.3904  0.7374  0.3068
 3445SOL    HW111234   5.741   4.801   3.863  0.2299  0.2668  0.1142
 3445SOL    HW211235   5.785   4.917   3.971 -0.7268  0.3747  0.3956
 3446SOL     OW11236   3.985   6.084   3.525  0.0693 -0.1255 -0.3618
 3446SOL    HW111237   3.898   6.132   3.522  0.0205 -0.1521  0.3087
 3446SOL    HW211238   3.987   6.014   3.454 -0.5310 -0.2442 -0.2701
 3447SOL     OW11239   5.244   5.285   3.857  0.4295  0.1847  0.0146
 3447SOL    HW111240   5.179   5.210   3.871  0.7335  0.0079  0.4819
 3447SOL    HW211241   5.220   5.334   3.772  1.1897 -1.4490 -1.1973
 3448SOL     OW11242   3.869   1.635   6.664 -0.0417  0.0720 -0.1375
 3448SOL    HW111243   3.921   1.591   6.590  0.0379 -3.6853  1.9173
 3448SOL    HW211244   3.895   1.732   6.669  2.2334 -0.2275 -2.9740
 3449SOL     OW11245   6.138   4.690   2.521  0.2550  1.0570  0.1414
 3449SOL    HW111246   6.202   4.649   2.588 -2.4516 -0.2303  2.1360
 3449SOL    HW211247   6.091   4.617   2.472 -1.0826  1.8816  0.1533
 3450SOL     OW11248   3.356   1.589   6.549 -0.3906 -0.2540 -0.3988
 3450SOL    HW111249   3.334   1.687   6.553  0.6929  0.0664 -1.6750
 3450SOL    HW211250   3.437   1.571   6.605 -0.4956 -0.3869 -0.2915
 3451SOL     OW11251   0.710   6.665   3.504 -0.1707 -0.0626 -0.6173
 3451SOL    HW111252   0.658   6.687   3.422 -0.8049  1.2930  0.1274
 3451SOL    HW211253   0.681   6.576   3.539 -1.6505  0.4442 -0.4979
 3452SOL     OW11254   5.665   0.329   0.437  0.3003  0.4663  0.3251
 3452SOL    HW111255   5.600   0.365   0.371  0.2293 -1.6662 -0.8164
 3452SOL    HW211256   5.627   0.249   0.482  1.4494  0.2439  0.9370
 3453SOL     OW11257   5.900   6.937   2.919  0.1066  0.1381  0.3229
 3453SOL    HW111258   5.900   6.931   2.819  1.0357  0.0714  0.3192
 3453SOL    HW211259   5.921   6.847   2.958  1.1800  0.4671  0.5411
 3454SOL     OW11260   6.396   0.713   2.256 -0.0179  1.0560 -0.0455
 3454SOL    HW111261   6.393   0.734   2.158 -0.5351 -0.8077 -0.4636
 3454SOL    HW211262   6.369   0.794   2.308 -1.0490  1.6895 -1.4947
 3455SOL     OW11263   0.373   2.607   2.984 -0.1884 -0.3621 -0.2808
 3455SOL    HW111264   0.342   2.701   2.996 -0.4895 -0.5414  0.4611
 3455SOL    HW211265   0.312   2.560   2.920  0.3218  0.1080 -1.1277
 3456SOL     OW11266   1.837   0.638   0.054 -0.1968 -0.0962  0.2827
 3456SOL    HW111267   1.758   0.681   0.099  0.5801  2.7626 -0.8137
 3456SOL    HW211268   1.806   0.589  -0.027 -0.8440  2.6169 -1.2674
 3457SOL     OW11269   0.088   0.321   2.475 -0.5555  0.3015 -0.1269
 3457SOL    HW111270   0.120   0.241   2.424 -3.4610 -0.5800 -0.7338
 3457SOL    HW211271   0.124   0.404   2.432 -0.0362 -0.5658 -1.4326
 3458SOL     OW11272   3.894   4.989   6.014 -0.1482  0.2077  0.8129
 3458SOL    HW111273   3.823   5.045   5.970  1.0767  2.2979  1.3890
 3458SOL    HW211274   3.863   4.893   6.017 -1.8435  0.6064 -1.2076
 3459SOL     OW11275   6.488   0.489   0.812 -0.1066 -0.5625 -0.1392
 3459SOL    HW111276   6.392   0.488   0.839 -0.5173 -1.6639 -1.5196
 3459SOL    HW211277   6.513   0.580   0.780 -0.7081 -0.2957  0.1343
 3460SOL     OW11278   4.000   2.479   0.640  0.6275  0.3315  0.5084
 3460SOL    HW111279   3.996   2.455   0.738  1.0134 -1.0759  0.2100
 3460SOL    HW211280   3.991   2.577   0.629  0.0949  0.4603  1.9371
 3461SOL     OW11281   2.809   0.658   1.849 -0.0572 -0.1987  0.1617
 3461SOL    HW111282   2.833   0.641   1.945  1.3834 -0.6055 -0.2392
 3461SOL    HW211283   2.757   0.580   1.813  0.9944 -0.9079  0.1212
 3462SOL     OW11284   4.994   1.607   2.964 -0.3823  0.2950 -0.3234
 3462SOL    HW111285   4.902   1.632   2.994 -0.7053  0.7017 -1.5999
 3462SOL    HW211286   5.054   1.687   2.970 -0.2744  0.1971 -0.0989
 3463SOL     OW11287   1.902   2.920   1.721 -0.0853 -0.3263 -0.5359
 3463SOL    HW111288   1.826   2.877   1.672 -0.5881  0.7495 -0.7411
 3463SOL    HW211289   1.887   2.913   1.819  0.0043 -0.8984 -0.5614
 3464SOL     OW11290   5.876   0.041   5.033  0.0447 -0.2413 -0.3954
 3464SOL    HW111291   5.967   0.010   5.005 -0.1743  0.1554 -1.5771
 3464SOL    HW211292   5.825  -0.036   5.071  0.6050 -0.6269 -0.4060
 3465SOL     OW11293   2.092   4.362   1.944  0.4157 -0.5552 -0.3105
 3465SOL    HW111294   2.144   4.329   2.023 -1.9959 -2.1630  0.7420
 3465SOL    HW211295   2.063   4.284   1.889  1.4097  0.5052 -2.4353
 3466SOL     OW11296   6.483   3.549   5.342 -0.5106  0.2660  0.5623
 3466SOL    HW111297   6.476   3.565   5.244 -0.6648  0.3522  0.5871
 3466SOL    HW211298   6.400   3.581   5.387 -0.8083 -0.5431  0.6177
 3467SOL     OW11299   2.541   4.116   6.068 -0.5943  0.5007  0.6146
 3467SOL    HW111300   2.448   4.136   6.100 -1.5601 -3.6497  0.8958
 3467SOL    HW211301   2.537   4.075   5.978  1.0482  0.5974  0.4668
 3468SOL     OW11302   3.835   1.031   3.163  0.4113  0.2623 -0.0946
 3468SOL    HW111303   3.741   1.031   3.196  0.2362  0.7337 -0.5819
 3468SOL    HW211304   3.898   1.033   3.240  0.0135  0.7426  0.2176
 3469SOL     OW11305   2.537   0.519   2.795 -0.2834 -0.2580 -0.0921
 3469SOL    HW111306   2.448   0.481   2.773 -0.4053  0.2542 -0.5008
 3469SOL    HW211307   2.598   0.446   2.826 -0.7175 -0.6693 -0.2026
 3470SOL     OW11308   2.017   2.410   6.913  0.1193  0.4835  0.0572
 3470SOL    HW111309   1.927   2.366   6.916  0.9032 -1.1431  0.5713
 3470SOL    HW211310   2.041   2.442   7.004  0.2803  0.4527  0.0250
 3471SOL     OW11311   5.981   3.973   6.566 -0.4461 -0.2269  0.2245
 3471SOL    HW111312   5.923   3.991   6.645 -1.5728 -0.1382 -0.6073
 3471SOL    HW211313   6.033   3.888   6.582  0.4534  0.5449  1.6528
 3472SOL     OW11314   4.084   1.699   1.294 -0.0838 -0.4959  0.2165
 3472SOL    HW111315   3.984   1.688   1.297 -0.0464 -0.6833  2.8546
 3472SOL    HW211316   4.108   1.790   1.327  0.6681 -1.1356  1.5083
 3473SOL     OW11317   5.052   1.821   1.189  0.5719 -0.3866 -0.0784
 3473SOL    HW111318   5.036   1.864   1.278  1.3608  0.3275 -0.2645
 3473SOL    HW211319   5.080   1.726   1.202  1.4897 -0.0520  0.4842
 3474SOL     OW11320   4.735   4.311   2.167  0.4508 -0.4088 -0.3283
 3474SOL    HW111321   4.782   4.225   2.186  0.0207 -0.4153  0.8335
 3474SOL    HW211322   4.667   4.297   2.095 -0.2600 -1.2894  0.4816
 3475SOL     OW11323   5.922   2.806   4.556 -0.2126  0.2213  0.4222
 3475SOL    HW111324   5.950   2.775   4.646  1.3042 -0.3925 -0.2447
 3475SOL    HW211325   5.953   2.742   4.486 -0.2633  1.3282 -0.6560
 3476SOL     OW11326   2.172   3.653   3.512 -0.1274 -0.4195 -0.0259
 3476SOL    HW111327   2.220   3.584   3.458 -0.2971 -0.9105  0.4411
 3476SOL    HW211328   2.079   3.666   3.476  0.5521  1.0525 -1.3819
 3477SOL     OW11329   1.364   3.501   2.989  0.3851  0.8075 -0.0067
 3477SOL    HW111330   1.303   3.456   2.923  0.0668  1.0143  0.1457
 3477SOL    HW211331   1.325   3.589   3.015  0.3515  0.5846  0.7014
 3478SOL     OW11332   1.493   6.685   6.530 -0.0165  1.0365  0.0162
 3478SOL    HW111333   1.528   6.641   6.447  2.8703 -0.3993  1.8125
 3478SOL    HW211334   1.441   6.619   6.583  0.1502  1.2524  0.4487
 3479SOL     OW11335   1.150   4.284   5.895 -0.5849  0.4099  0.5338
 3479SOL    HW111336   1.229   4.224   5.913 -0.6074  0.3743  0.5142
 3479SOL    HW211337   1.150   4.359   5.961 -1.1793 -0.2158  1.2658
 3480SOL     OW11338   0.257   4.286   6.668 -0.2097 -0.1950  0.1577
 3480SOL    HW111339   0.333   4.223   6.682 -0.0545 -0.0412  0.0199
 3480SOL    HW211340   0.181   4.238   6.625 -0.8747 -0.8001  1.9166
 3481SOL     OW11341   2.994   1.040   4.875  0.0883  0.9593 -0.3755
 3481SOL    HW111342   3.028   0.985   4.951 -2.7433  0.1762  0.4508
 3481SOL    HW211343   2.999   0.987   4.790 -1.3776 -0.1180  0.1827
 3482SOL     OW11344   6.569   4.958   6.815  0.4583 -0.4348 -0.1183
 3482SOL    HW111345   6.515   4.898   6.874  1.0165  0.8059  1.7564
 3482SOL    HW211346   6.561   5.053   6.848  0.4673  0.3872 -2.3208
 3483SOL     OW11347   4.334   0.746   6.654 -0.1946  0.2303  0.5587
 3483SOL    HW111348   4.309   0.671   6.593  1.6628 -1.8796  2.2270
 3483SOL    HW211349   4.251   0.794   6.683 -1.3223 -0.3224 -1.5427
 3484SOL     OW11350   0.043   3.784   3.367 -0.7930 -0.1156 -0.0346
 3484SOL    HW111351   0.043   3.757   3.464  0.0914 -1.1627 -0.3056
 3484SOL    HW211352   0.054   3.883   3.360  1.1480 -0.1986  0.9394
 3485SOL     OW11353   5.371   4.869   0.357 -0.0692  0.4871 -0.3361
 3485SOL    HW111354   5.398   4.913   0.443  0.7827 -0.7865  0.0938
 3485SOL    HW211355   5.453   4.831   0.313 -0.3813  1.7974 -2.1334
 3486SOL     OW11356   1.142   6.054   5.719  0.4941  0.0631 -0.1419
 3486SOL    HW111357   1.082   6.077   5.795 -1.7333 -0.4393 -1.6317
 3486SOL    HW211358   1.089   6.010   5.647  2.3666  1.0259 -2.2525
 3487SOL     OW11359   5.998   1.464   6.085  1.0497  0.3635  0.6774
 3487SOL    HW111360   6.026   1.519   6.164  1.6414  2.0675 -0.6408
 3487SOL    HW211361   6.063   1.478   6.010  0.2076 -0.7715 -0.3173
 3488SOL     OW11362   3.981   5.170   6.585  0.1797  0.8930 -0.2838
 3488SOL    HW111363   4.063   5.112   6.579  0.8350  1.8127 -0.4251
 3488SOL    HW211364   3.952   5.176   6.680 -0.3125 -0.2199 -0.3488
 3489SOL     OW11365   3.665   6.529   0.764 -0.1035 -0.3743 -0.3375
 3489SOL    HW111366   3.644   6.617   0.721 -0.5900  0.2685  1.1525
 3489SOL    HW211367   3.635   6.531   0.860  1.5888 -1.4948  0.2528
 3490SOL     OW11368   3.315   6.213   0.241  0.0794 -0.0285  0.1167
 3490SOL    HW111369   3.384   6.207   0.314 -0.2079  1.0867  0.5059
 3490SOL    HW211370   3.250   6.139   0.250  0.8545 -0.7222  0.1381
 3491SOL     OW11371   5.243   5.696   5.530 -0.8024  0.3663 -0.3650
 3491SOL    HW111372   5.235   5.796   5.524 -0.5824  0.3238 -1.7906
 3491SOL    HW211373   5.338   5.671   5.548 -1.1663  0.4331  2.0630
 3492SOL     OW11374   6.730   4.286   3.611  0.5094  0.1261 -0.3797
 3492SOL    HW111375   6.731   4.243   3.701  2.9666 -0.3900 -0.5946
 3492SOL    HW211376   6.655   4.248   3.557 -0.7062  0.0908  1.2450
 3493SOL     OW11377   1.603   4.459   5.950 -0.3421  0.2747 -0.1247
 3493SOL    HW111378   1.623   4.553   5.922 -0.0756  0.1437 -0.3830
 3493SOL    HW211379   1.586   4.403   5.868  2.0406 -0.4889 -0.1789
 3494SOL     OW11380   3.866   0.835   3.627 -0.1941  0.4618 -0.5424
 3494SOL    HW111381   3.956   0.854   3.665 -0.3946 -1.2091  0.9163
 3494SOL    HW211382   3.802   0.907   3.654  0.4079  0.9890 -0.5023
 3495SOL     OW11383   0.215   4.860   2.955 -0.3073  0.2863  0.5151
 3495SOL    HW111384   0.234   4.909   3.040 -0.5991  2.4824 -0.5942
 3495SOL    HW211385   0.297   4.810   2.926  0.3708  0.9971  1.1627
 3496SOL     OW11386   6.372   5.867   0.120 -0.6427  0.0689  0.2637
 3496SOL    HW111387   6.348   5.894   0.027  1.8336  0.6143 -0.2962
 3496SOL    HW211388   6.307   5.908   0.184 -2.0516  0.1680 -1.1542
 3497SOL     OW11389   3.220   0.167   6.351  0.4966  0.0325  0.0994
 3497SOL    HW111390   3.274   0.086   6.372  1.1782  0.4197 -0.1324
 3497SOL    HW211391   3.125   0.151   6.377  0.4636 -1.1251 -0.6230
 3498SOL     OW11392   2.695   3.454   1.566 -0.6698 -0.0906  0.3663
 3498SOL    HW111393   2.709   3.415   1.657 -1.3680 -0.2697  0.4005
 3498SOL    HW211394   2.775   3.433   1.509  0.5551  1.5087  1.4228
 3499SOL     OW11395   5.680   0.303   4.892  0.0058  0.9723  0.1674
 3499SOL    HW111396   5.593   0.352   4.905 -1.3177 -1.3766  0.8586
 3499SOL    HW211397   5.750   0.344   4.950 -1.2253  1.6161  1.2621
 3500SOL     OW11398   1.467   2.241   3.460 -0.3558 -0.2638  0.0266
 3500SOL    HW111399   1.547   2.276   3.412 -0.1543 -0.6331  0.0905
 3500SOL    HW211400   1.469   2.141   3.460 -0.4300 -0.2714  0.6702
 3501SOL     OW11401   2.133   0.221   6.144 -0.0207 -0.2938  0.7492
 3501SOL    HW111402   2.042   0.252   6.171  0.2285  0.9190  0.2394
 3501SOL    HW211403   2.202   0.285   6.178  0.6359 -1.0784  0.9298
 3502SOL     OW11404   4.151   1.679   2.483 -0.4760 -0.0604  0.4619
 3502SOL    HW111405   4.138   1.589   2.442  1.6351 -0.2735  0.1342
 3502SOL    HW211406   4.104   1.748   2.427 -0.4135 -0.7255 -0.4370
 3503SOL     OW11407   5.405   5.756   0.242 -0.1848 -0.4306 -0.6460
 3503SOL    HW111408   5.396   5.795   0.150  0.2986 -0.2411 -0.6164
 3503SOL    HW211409   5.314   5.742   0.281 -0.3737  0.1772 -0.8632
 3504SOL     OW11410   1.649   1.245   5.726  0.2301  0.6705 -0.1789
 3504SOL    HW111411   1.645   1.254   5.626  0.9514 -0.2765 -0.3125
 3504SOL    HW211412   1.745   1.238   5.754  0.0814  1.8787  0.6802
 3505SOL     OW11413   3.846   2.834   5.937 -0.6826 -0.1743 -0.3850
 3505SOL    HW111414   3.853   2.792   5.846 -0.2811 -1.5638  0.2642
 3505SOL    HW211415   3.773   2.903   5.935 -0.2188  0.3229 -1.9331
 3506SOL     OW11416   3.341   4.247   5.178 -0.2683  0.1877 -0.2287
 3506SOL    HW111417   3.288   4.178   5.128 -0.1578 -0.1984  0.1786
 3506SOL    HW211418   3.285   4.284   5.252  0.2606 -0.7420  0.6571
 3507SOL     OW11419   1.785   2.085   1.475 -0.0043  0.0596 -0.2475
 3507SOL    HW111420   1.843   2.166   1.477  1.5766 -0.9959  2.5128
 3507SOL    HW211421   1.842   2.004   1.459 -1.3878 -0.6775 -1.7797
 3508SOL     OW11422   4.656   0.386   6.171  0.3898  0.0789 -0.5974
 3508SOL    HW111423   4.749   0.420   6.157  0.9448 -0.9965  0.2688
 3508SOL    HW211424   4.658   0.286   6.170 -1.1519 -0.0070 -2.9307
 3509SOL     OW11425   4.785   5.029   1.108 -0.1248  0.1188 -0.0085
 3509SOL    HW111426   4.709   5.069   1.056 -0.0095  0.6360  0.2166
 3509SOL    HW211427   4.865   5.088   1.102  0.5411 -0.8325 -0.9416
 3510SOL     OW11428   1.711   0.501   2.307  0.2150  0.1953  0.4389
 3510SOL    HW111429   1.765   0.417   2.309  1.0979  0.7411  0.5811
 3510SOL    HW211430   1.770   0.577   2.278 -0.4238  0.8546  0.8300
 3511SOL     OW11431   2.841   5.864   1.264 -0.5842 -0.1248 -0.5232
 3511SOL    HW111432   2.837   5.851   1.165  0.7270 -0.6121 -0.5351
 3511SOL    HW211433   2.855   5.776   1.309  2.6037  0.3990 -0.2082
 3512SOL     OW11434   6.343   4.726   4.889 -0.6858 -0.0430 -0.1384
 3512SOL    HW111435   6.282   4.801   4.863  1.2013  1.5343 -0.2121
 3512SOL    HW211436   6.369   4.736   4.985  2.0421  1.2834 -0.9359
 3513SOL     OW11437   6.053   2.349   1.565  0.4082  0.6173 -0.3236
 3513SOL    HW111438   6.117   2.322   1.638  0.4525  0.8064 -0.2920
 3513SOL    HW211439   6.033   2.447   1.573 -0.7223  0.3547  0.3193
 3514SOL     OW11440   1.496   0.885   1.742 -0.0183 -0.2881  0.1178
 3514SOL    HW111441   1.520   0.979   1.720 -0.7072 -0.1370  0.0116
 3514SOL    HW211442   1.397   0.872   1.735 -0.0054 -0.8465  0.7746
 3515SOL     OW11443   5.509   3.956   3.593 -0.3942  0.5879  0.3873
 3515SOL    HW111444   5.462   3.937   3.678  1.3097 -0.1603  1.2071
 3515SOL    HW211445   5.531   4.054   3.588 -1.7061  0.8832  0.1370
 3516SOL     OW11446   5.763   1.274   2.443  0.0046 -0.9990 -0.2612
 3516SOL    HW111447   5.795   1.184   2.417  1.9927 -0.1736 -0.8462
 3516SOL    HW211448   5.796   1.342   2.378 -0.2511  0.3196  0.9189
 3517SOL     OW11449   4.437   2.460   3.174 -0.4098 -0.5074  0.2451
 3517SOL    HW111450   4.395   2.369   3.177  0.1668 -0.8610 -1.4003
 3517SOL    HW211451   4.458   2.484   3.079 -0.5311  1.3536  0.6514
 3518SOL     OW11452   4.933   1.944   5.418  0.6047  0.7180  0.0666
 3518SOL    HW111453   4.877   1.912   5.342 -1.1157  1.4643  0.9736
 3518SOL    HW211454   4.963   1.867   5.473  0.5887  0.3010 -0.5046
 3519SOL     OW11455   3.351   6.931   1.954  0.2662 -0.3584  0.4137
 3519SOL    HW111456   3.263   6.932   2.003 -0.7858  0.1125 -1.4182
 3519SOL    HW211457   3.368   7.021   1.914  0.1307 -1.2111 -1.6863
 3520SOL     OW11458   1.693   5.951   3.918 -0.1473 -0.2472 -0.4112
 3520SOL    HW111459   1.637   5.881   3.873  0.0103  0.2826 -1.4595
 3520SOL    HW211460   1.727   5.915   4.004 -0.7239 -1.1785 -0.5511
 3521SOL     OW11461   2.841   3.598   5.291 -0.1177  0.4770 -0.0674
 3521SOL    HW111462   2.859   3.575   5.195  0.5691 -0.4270  0.2717
 3521SOL    HW211463   2.884   3.685   5.313  3.4703 -1.2617  0.5300
 3522SOL     OW11464   2.723   6.547   2.129  0.1911  0.4591 -0.5362
 3522SOL    HW111465   2.764   6.458   2.109  1.6889  0.8951  0.3944
 3522SOL    HW211466   2.676   6.582   2.048 -1.6040 -1.7486 -0.5387
 3523SOL     OW11467   3.356   6.018   5.737 -0.2259 -0.4392  0.3401
 3523SOL    HW111468   3.289   6.047   5.805  0.1339  2.0213 -0.2586
 3523SOL    HW211469   3.310   6.000   5.650 -0.2257  0.5784  0.1168
 3524SOL     OW11470   6.136   6.830   5.545 -0.3134  0.6467  0.2320
 3524SOL    HW111471   6.230   6.864   5.551 -0.5224  0.9796  2.0407
 3524SOL    HW211472   6.134   6.732   5.565 -0.3474  0.6222  0.1104
 3525SOL     OW11473   6.489   2.515   2.889 -0.3049  0.1500  0.4003
 3525SOL    HW111474   6.481   2.608   2.923 -1.0253  0.2957 -0.1225
 3525SOL    HW211475   6.569   2.470   2.929  0.1548  1.0533  0.5051
 3526SOL     OW11476   5.941   6.744   1.674 -0.1609 -0.1262  0.1953
 3526SOL    HW111477   5.918   6.831   1.716 -0.2460 -0.1663  0.2310
 3526SOL    HW211478   5.980   6.760   1.583 -1.4570 -0.1182 -0.3709
 3527SOL     OW11479   6.456   2.378   2.400 -0.3369  0.4828 -0.3254
 3527SOL    HW111480   6.449   2.389   2.499 -2.1375 -0.1272 -0.3374
 3527SOL    HW211481   6.455   2.467   2.355  0.4874  0.7591  0.1853
 3528SOL     OW11482   0.733   5.316   5.951 -0.2787 -0.1552  0.2871
 3528SOL    HW111483   0.782   5.319   6.038  0.5919  0.2398 -0.1930
 3528SOL    HW211484   0.662   5.246   5.954 -0.1494 -0.2540  1.2535
 3529SOL     OW11485   5.503   5.061   0.534 -0.0135  0.0741  0.2114
 3529SOL    HW111486   5.577   5.034   0.597 -0.5626 -1.1038  0.3736
 3529SOL    HW211487   5.420   5.077   0.587 -0.1629  0.2938 -0.0920
 3530SOL     OW11488   5.817   6.497   5.884  0.5810  0.1117  0.4680
 3530SOL    HW111489   5.736   6.531   5.836  1.3179 -0.5263 -1.3278
 3530SOL    HW211490   5.848   6.412   5.841  2.6694  0.7633  0.5720
 3531SOL     OW11491   4.655   4.343   6.426  0.0759  0.2243 -0.2757
 3531SOL    HW111492   4.675   4.433   6.464  2.4582 -1.5595  3.1894
 3531SOL    HW211493   4.737   4.306   6.382  0.4306 -1.7199  1.8509
 3532SOL     OW11494   2.786   1.324   3.131  0.6071  0.5907 -0.1338
 3532SOL    HW111495   2.703   1.340   3.077  1.0335  0.5814 -0.8003
 3532SOL    HW211496   2.761   1.284   3.219 -0.0611  0.0138 -0.5716
 3533SOL     OW11497   1.849   3.044   3.534  0.1117 -0.1073  0.5731
 3533SOL    HW111498   1.825   3.017   3.627 -2.1320 -1.6504 -0.3667
 3533SOL    HW211499   1.933   2.998   3.506 -0.0115 -0.8205  1.3456
 3534SOL     OW11500   5.794   1.571   6.731 -0.6549 -0.0257 -0.2346
 3534SOL    HW111501   5.707   1.600   6.772 -1.1382 -1.3147 -0.3259
 3534SOL    HW211502   5.853   1.532   6.802  0.0007  1.1029 -0.1154
 3535SOL     OW11503   4.651   0.508   1.999 -0.5877  0.6112 -0.3901
 3535SOL    HW111504   4.698   0.596   2.005 -1.4711  1.1934 -1.5450
 3535SOL    HW211505   4.552   0.522   1.992 -1.2081 -0.6325  3.4547
 3536SOL     OW11506   3.485   1.637   3.309 -0.1861  0.5474 -0.2906
 3536SOL    HW111507   3.517   1.698   3.237  0.5351 -0.6328 -1.0045
 3536SOL    HW211508   3.401   1.591   3.279 -0.0102  0.2212 -0.2809
 3537SOL     OW11509   6.648   5.388   2.023 -0.4516 -0.1399 -0.4803
 3537SOL    HW111510   6.681   5.481   2.036  0.5208 -0.5038 -0.3009
 3537SOL    HW211511   6.556   5.391   1.983 -0.8947  0.9005  0.5484
 3538SOL     OW11512   3.200   4.582   6.281 -0.5148 -0.0178  0.0241
 3538SOL    HW111513   3.104   4.607   6.267 -0.2479  1.3217  0.4291
 3538SOL    HW211514   3.239   4.551   6.194 -0.2899  3.1672 -1.1355
 3539SOL     OW11515   2.916   3.474   4.051 -0.0290  0.0689  0.4235
 3539SOL    HW111516   2.942   3.394   4.105 -0.5698  0.3097  1.0529
 3539SOL    HW211517   2.891   3.445   3.958 -1.1656 -0.6221  0.9237
 3540SOL     OW11518   1.696   3.413   1.720 -0.5496  0.2552  0.3187
 3540SOL    HW111519   1.707   3.337   1.656 -0.0138  0.5248  0.0845
 3540SOL    HW211520   1.639   3.484   1.677  2.5542  1.9940 -1.3185
 3541SOL     OW11521   3.899   3.240   3.500  0.4889 -0.2270  0.1609
 3541SOL    HW111522   3.851   3.266   3.416  0.5130 -0.0382  0.2037
 3541SOL    HW211523   3.995   3.268   3.493  0.3409  0.3875  0.5135
 3542SOL     OW11524   6.348   4.865   0.196 -0.5787 -0.5911 -0.3922
 3542SOL    HW111525   6.351   4.929   0.272  0.7439  0.1317 -1.0232
 3542SOL    HW211526   6.272   4.889   0.135  1.6598  2.3729 -2.2527
 3543SOL     OW11527   3.584   6.604   5.598 -0.1637 -0.4262 -0.0631
 3543SOL    HW111528   3.616   6.576   5.507 -0.6287 -0.5191 -0.2041
 3543SOL    HW211529   3.656   6.588   5.665 -0.1884 -1.3626 -0.2494
 3544SOL     OW11530   2.296   1.703   6.077  0.8680 -0.0459 -0.2813
 3544SOL    HW111531   2.329   1.729   5.987  2.6587 -0.4998  0.2043
 3544SOL    HW211532   2.369   1.716   6.144 -0.9016  1.8687  1.4200
 3545SOL     OW11533   2.936   4.075   0.178 -0.0721 -0.0799  0.1208
 3545SOL    HW111534   2.988   3.999   0.139 -2.0465 -0.9013 -1.0836
 3545SOL    HW211535   2.860   4.097   0.117 -0.1073  2.2544  0.9320
 3546SOL     OW11536   1.587   4.278   3.440  0.2540 -0.5472  0.9199
 3546SOL    HW111537   1.670   4.311   3.394  0.8196 -0.7120  1.7892
 3546SOL    HW211538   1.601   4.184   3.470 -1.7426 -2.1803 -2.5634
 3547SOL     OW11539   6.859   5.846   3.845  0.3328 -0.2114  0.2000
 3547SOL    HW111540   6.841   5.927   3.901 -0.5567 -0.5190  0.3769
 3547SOL    HW211541   6.833   5.864   3.750  0.5222 -0.1565  0.1576
 3548SOL     OW11542   6.088   4.604   4.955  0.1655  0.0379 -0.0896
 3548SOL    HW111543   6.011   4.571   4.900 -0.4497  1.3117 -0.0237
 3548SOL    HW211544   6.147   4.662   4.898 -0.7876  1.8464  0.6605
 3549SOL     OW11545   5.237   2.351   2.246 -0.6905  0.1276 -0.5090
 3549SOL    HW111546   5.205   2.409   2.172 -2.2411 -0.0293 -0.0009
 3549SOL    HW211547   5.335   2.367   2.262 -0.7933  1.6148 -1.2426
 3550SOL     OW11548   5.132   1.291   4.242  0.3341  0.0045 -0.4438
 3550SOL    HW111549   5.187   1.223   4.291  0.9200 -1.4358 -2.9268
 3550SOL    HW211550   5.191   1.346   4.183 -0.5535  0.4153 -0.9771
 3551SOL     OW11551   3.732   0.068   2.682 -0.0345 -0.1099 -0.1162
 3551SOL    HW111552   3.764  -0.012   2.631  0.4736 -0.7886  1.2167
 3551SOL    HW211553   3.687   0.039   2.766 -0.7677  0.9853 -0.1099
 3552SOL     OW11554   5.094   3.393   3.284  0.9741  0.0598  0.6099
 3552SOL    HW111555   5.040   3.424   3.362  0.7143 -0.2768  0.5693
 3552SOL    HW211556   5.032   3.362   3.212  1.1711  1.9269 -0.4024
 3553SOL     OW11557   6.020   1.089   3.766  0.4963 -0.0556  0.7336
 3553SOL    HW111558   5.937   1.036   3.780 -0.2929  1.2314  1.0749
 3553SOL    HW211559   6.099   1.028   3.769 -0.4647 -1.4058 -0.3302
 3554SOL     OW11560   4.589   5.490   1.811  0.1770 -0.1105  0.0382
 3554SOL    HW111561   4.677   5.531   1.788 -0.2113  1.0886  0.6361
 3554SOL    HW211562   4.526   5.503   1.734  0.4321 -0.7309 -0.2820
 3555SOL     OW11563   6.404   1.685   2.660  0.1283 -0.1049 -0.1569
 3555SOL    HW111564   6.442   1.678   2.568 -0.0382  0.2044 -0.2480
 3555SOL    HW211565   6.307   1.661   2.658 -0.1348  0.9358 -0.2475
 3556SOL     OW11566   5.225   0.572   6.267 -0.1920 -0.6573 -0.1360
 3556SOL    HW111567   5.189   0.647   6.212  0.3871  0.3020  0.7675
 3556SOL    HW211568   5.154   0.502   6.277 -1.3835  0.5896  0.5173
 3557SOL     OW11569   5.237   1.674   4.266  0.0988  0.6692 -0.0676
 3557SOL    HW111570   5.259   1.605   4.197 -0.2965  0.9234 -0.4563
 3557SOL    HW211571   5.261   1.765   4.231  0.9752  0.6966  0.5949
 3558SOL     OW11572   1.790   6.890   2.893  0.0234  0.0667  0.6967
 3558SOL    HW111573   1.787   6.987   2.917 -1.0582  0.6230 -1.4183
 3558SOL    HW211574   1.884   6.858   2.894  0.5252  1.4667  0.2620
 3559SOL     OW11575   1.274   0.476   0.598 -0.3497 -0.0510 -0.5934
 3559SOL    HW111576   1.181   0.512   0.605 -0.0939  0.3401  1.5285
 3559SOL    HW211577   1.272   0.389   0.550 -1.8951 -0.2724 -0.1893
 3560SOL     OW11578   6.762   5.926   0.479  0.6484 -0.5198 -0.1791
 3560SOL    HW111579   6.724   6.009   0.438 -1.2789 -1.0185  0.4793
 3560SOL    HW211580   6.826   5.883   0.415  1.5549  1.3426 -0.5994
 3561SOL     OW11581   5.270   5.789   1.172  0.2522  0.6522  0.1671
 3561SOL    HW111582   5.266   5.764   1.075  1.5853 -1.7845  0.6702
 3561SOL    HW211583   5.364   5.811   1.197 -0.3554  3.1270  0.5596
 3562SOL     OW11584   4.374   2.002   3.260 -0.9507 -0.8024 -0.5182
 3562SOL    HW111585   4.373   1.904   3.242  1.2383 -0.7803 -1.1341
 3562SOL    HW211586   4.372   2.018   3.359  1.7467 -1.6894 -0.2274
 3563SOL     OW11587   4.209   5.716   2.729  0.0849 -0.3363  1.3554
 3563SOL    HW111588   4.116   5.706   2.692 -0.3418  3.0564  1.1862
 3563SOL    HW211589   4.214   5.671   2.818 -0.8806 -2.8034  0.2590
 3564SOL     OW11590   4.781   4.224   2.792  0.7856  0.0994 -0.0068
 3564SOL    HW111591   4.776   4.124   2.801 -1.8658  0.1656 -0.0486
 3564SOL    HW211592   4.740   4.251   2.705 -0.8110  1.3472  1.0800
 3565SOL     OW11593   1.437   0.260   5.214  0.1262 -0.4411 -0.0161
 3565SOL    HW111594   1.394   0.202   5.283 -0.5065 -3.6541 -2.8177
 3565SOL    HW211595   1.373   0.330   5.183  0.3334  0.8692  2.2954
 3566SOL     OW11596   0.499   5.253   6.968 -0.2914 -0.3308 -0.3079
 3566SOL    HW111597   0.511   5.224   6.873  1.1173 -1.1248  0.0680
 3566SOL    HW211598   0.562   5.201   7.026 -0.8783  0.3883  1.0167
 3567SOL     OW11599   4.958   3.596   1.523  0.0519  0.1861 -0.9241
 3567SOL    HW111600   4.935   3.692   1.512 -0.4953  0.2509  0.5392
 3567SOL    HW211601   4.920   3.543   1.447 -0.9281  0.9208 -0.9599
 3568SOL     OW11602   5.606   3.715   4.199  0.0456 -0.0146  0.3763
 3568SOL    HW111603   5.546   3.789   4.226  0.8644  1.3176 -1.2276
 3568SOL    HW211604   5.656   3.681   4.279 -1.4025  0.1498  1.3800
 3569SOL     OW11605   4.068   3.200   3.054  0.0629  0.0249  0.8282
 3569SOL    HW111606   4.126   3.224   3.131  1.3534 -2.5852  0.7901
 3569SOL    HW211607   4.006   3.125   3.080  2.0306 -2.4769 -1.0923
 3570SOL     OW11608   0.205   2.067   0.059 -0.1118 -0.6041 -0.1692
 3570SOL    HW111609   0.278   2.132   0.036  0.2696 -1.0983 -0.3650
 3570SOL    HW211610   0.155   2.101   0.138 -0.1167  0.0882 -0.4606
 3571SOL     OW11611   2.874   5.675   4.224  0.4548 -0.2531 -0.1205
 3571SOL    HW111612   2.973   5.666   4.235  0.6792 -0.1513 -1.7841
 3571SOL    HW211613   2.852   5.680   4.127 -1.2176 -0.5193  0.2167
 3572SOL     OW11614   4.757   4.703   2.296  0.9667 -0.2301  0.2296
 3572SOL    HW111615   4.713   4.788   2.324  1.9062  0.2830  0.1743
 3572SOL    HW211616   4.709   4.626   2.339 -0.5146  0.2370 -0.5035
 3573SOL     OW11617   0.081   5.014   3.177  0.0689  0.1342 -0.2347
 3573SOL    HW111618   0.131   5.101   3.185  0.8226 -0.2329 -0.7945
 3573SOL    HW211619   0.013   5.021   3.104 -0.1190  0.3705 -0.0364
 3574SOL     OW11620   1.927   1.160   0.339 -0.0700  0.1122 -0.4726
 3574SOL    HW111621   1.945   1.064   0.357 -0.2211  0.1902  0.1301
 3574SOL    HW211622   1.842   1.188   0.384  0.9691  0.9964  1.0510
 3575SOL     OW11623   4.687   1.013   5.272 -0.5820 -0.2554 -0.0848
 3575SOL    HW111624   4.651   1.101   5.304 -0.6138 -0.2564 -0.1167
 3575SOL    HW211625   4.696   1.015   5.173 -0.2857 -0.1802 -0.0555
 3576SOL     OW11626   1.397   2.131   0.155 -0.5527  0.8621 -0.2702
 3576SOL    HW111627   1.326   2.076   0.110  0.1804  0.4502 -0.9490
 3576SOL    HW211628   1.461   2.165   0.087  1.1844 -0.6289  0.5124
 3577SOL     OW11629   1.482   3.853   5.527  0.2022  0.8262 -0.9828
 3577SOL    HW111630   1.428   3.912   5.587  0.2714  0.9271 -1.0200
 3577SOL    HW211631   1.554   3.907   5.483  0.8158  0.5482 -0.3573
 3578SOL     OW11632   5.698   1.226   1.806 -0.3464 -0.0447  0.6910
 3578SOL    HW111633   5.776   1.174   1.840 -1.3631 -0.9152  1.8243
 3578SOL    HW211634   5.678   1.197   1.712  0.0828 -0.5599  0.7501
 3579SOL     OW11635   2.280   4.195   3.825 -0.1593 -0.2301  0.3913
 3579SOL    HW111636   2.258   4.174   3.730 -1.9217 -0.1506  0.7590
 3579SOL    HW211637   2.308   4.110   3.872 -2.7404 -0.9991  0.6751
 3580SOL     OW11638   4.947   3.357   3.069  0.8634  0.5810 -0.0028
 3580SOL    HW111639   4.902   3.270   3.086  0.3902  0.6364 -0.8887
 3580SOL    HW211640   4.925   3.388   2.976  2.2043  0.9347 -0.2207
 3581SOL     OW11641   2.052   0.623   2.433 -0.5636  0.1252 -0.2414
 3581SOL    HW111642   2.085   0.703   2.483  0.2061  0.1795 -0.8197
 3581SOL    HW211643   2.113   0.605   2.355 -1.6846 -0.0004 -1.1168
 3582SOL     OW11644   4.711   6.478   6.662 -0.2446 -0.5344 -0.1713
 3582SOL    HW111645   4.706   6.547   6.734  0.0234 -1.3491  0.6318
 3582SOL    HW211646   4.622   6.433   6.652 -0.4415 -0.0340 -0.7491
 3583SOL     OW11647   2.092   6.414   6.639 -0.0998  0.0175 -0.6210
 3583SOL    HW111648   2.171   6.459   6.681 -0.5160  0.5568 -0.4141
 3583SOL    HW211649   2.083   6.446   6.544  0.6647 -0.9795 -1.0466
 3584SOL     OW11650   5.714   4.713   5.096  0.0486  0.3417  0.1900
 3584SOL    HW111651   5.676   4.779   5.161  0.3395  0.4225  0.2809
 3584SOL    HW211652   5.777   4.652   5.144  0.9599  0.9760 -0.1752
 3585SOL     OW11653   4.040   1.956   1.993 -0.0068  0.2831  0.1001
 3585SOL    HW111654   4.136   1.983   2.000  0.3084 -0.2587 -1.7471
 3585SOL    HW211655   3.988   2.027   1.945  0.0836 -0.6957 -1.4982
 3586SOL     OW11656   0.527   3.014   5.068  1.1504  0.2414  0.6677
 3586SOL    HW111657   0.592   3.085   5.093 -1.5364  3.0046  0.3432
 3586SOL    HW211658   0.539   2.989   4.972 -0.0205  2.8980 -0.2608
 3587SOL     OW11659   3.489   0.102   5.066 -0.1262  0.1946  0.1376
 3587SOL    HW111660   3.497   0.003   5.056 -1.4437 -0.0447  1.1065
 3587SOL    HW211661   3.558   0.135   5.130 -0.4392 -0.2796  0.7233
 3588SOL     OW11662   5.784   2.248   3.533  0.4583  0.0757 -0.4152
 3588SOL    HW111663   5.864   2.188   3.530  0.1600 -0.4672  1.1782
 3588SOL    HW211664   5.811   2.336   3.572  0.4778  0.2558 -0.8316
 3589SOL     OW11665   6.205   2.832   6.174 -0.1166  0.2242 -0.4401
 3589SOL    HW111666   6.195   2.789   6.264  1.9035  0.2037 -0.1743
 3589SOL    HW211667   6.258   2.772   6.114 -0.0336  0.9554 -1.1118
 3590SOL     OW11668   6.779   6.180   3.143  0.2131  0.3975  0.6655
 3590SOL    HW111669   6.834   6.134   3.073 -1.0630 -0.4412  0.1780
 3590SOL    HW211670   6.700   6.122   3.167  0.0317  1.1562  2.0104
 3591SOL     OW11671   5.223   1.758   0.613  0.2387 -0.0771 -0.2581
 3591SOL    HW111672   5.240   1.802   0.525  1.2207 -0.6464 -0.3646
 3591SOL    HW211673   5.242   1.823   0.687  2.3565 -0.4670 -0.3894
 3592SOL     OW11674   0.475   5.310   0.799  0.2360  0.0101 -0.4960
 3592SOL    HW111675   0.553   5.305   0.738 -0.4349  1.7414 -1.5805
 3592SOL    HW211676   0.475   5.399   0.845 -0.1263 -0.6669  0.8637
 3593SOL     OW11677   3.647   3.389   5.356 -0.1402 -0.0132 -0.1554
 3593SOL    HW111678   3.606   3.393   5.447 -1.5835  1.8568 -0.8206
 3593SOL    HW211679   3.746   3.398   5.363 -0.1899 -0.4322  1.2483
 3594SOL     OW11680   3.712   4.465   6.138 -0.5728 -0.1772  0.0374
 3594SOL    HW111681   3.658   4.536   6.093 -1.7757 -0.9353  0.2370
 3594SOL    HW211682   3.687   4.375   6.103  1.4615 -0.5023 -0.7514
 3595SOL     OW11683   5.770   6.680   3.442  0.4762 -0.0461 -0.0435
 3595SOL    HW111684   5.747   6.651   3.349  0.8380  0.9699 -0.4637
 3595SOL    HW211685   5.869   6.682   3.453  0.4493  0.5619  0.1203
 3596SOL     OW11686   4.778   6.591   1.408 -0.2440  0.0068 -0.1548
 3596SOL    HW111687   4.858   6.645   1.434  0.0965 -1.1033  1.2670
 3596SOL    HW211688   4.782   6.570   1.311  0.6904  0.7788 -0.2930
 3597SOL     OW11689   5.716   4.085   6.138  0.0202  0.0355 -0.0498
 3597SOL    HW111690   5.668   4.086   6.226 -0.6649  0.2641 -0.4223
 3597SOL    HW211691   5.799   4.030   6.147 -0.7650 -1.1355  0.3673
 3598SOL     OW11692   6.506   4.654   4.670  0.2469  0.0783 -0.2688
 3598SOL    HW111693   6.490   4.559   4.644 -1.1071 -0.0717  1.0010
 3598SOL    HW211694   6.452   4.676   4.751 -0.6234  2.3643 -1.4098
 3599SOL     OW11695   0.667   2.694   5.966 -0.6249 -0.4779 -0.2494
 3599SOL    HW111696   0.753   2.713   6.014 -1.0546  0.2499  0.2511
 3599SOL    HW211697   0.683   2.695   5.868 -0.0786 -0.2081 -0.1608
 3600SOL     OW11698   3.458   4.223   1.802 -0.0717  0.2184 -0.0642
 3600SOL    HW111699   3.423   4.235   1.895  0.4703 -0.8366  0.2909
 3600SOL    HW211700   3.557   4.210   1.806 -0.3557 -2.7316 -0.4745
 3601SOL     OW11701   3.681   0.906   5.397  0.4952  0.2781 -0.3389
 3601SOL    HW111702   3.637   0.990   5.428  0.5918  0.7703 -1.4642
 3601SOL    HW211703   3.626   0.827   5.423 -0.0663  0.7541 -0.0658
 3602SOL     OW11704   3.561   1.329   0.583  0.1821 -0.3161 -0.1153
 3602SOL    HW111705   3.502   1.268   0.635  0.1327 -0.7495 -0.6615
 3602SOL    HW211706   3.656   1.318   0.613 -0.0011  0.3865  0.7685
 3603SOL     OW11707   2.099   6.201   5.610 -0.4793  0.1915  0.0936
 3603SOL    HW111708   2.078   6.108   5.581  0.9195 -0.7245  1.8463
 3603SOL    HW211709   2.198   6.216   5.607 -0.4413  0.7374  2.2129
 3604SOL     OW11710   0.663   1.322   4.141  0.0230  0.3864  0.3067
 3604SOL    HW111711   0.655   1.416   4.106 -2.1084  0.1010 -0.1131
 3604SOL    HW211712   0.711   1.266   4.074 -0.0552  0.8317 -0.1275
 3605SOL     OW11713   6.327   0.156   4.309  0.2207  0.0011  0.2220
 3605SOL    HW111714   6.335   0.064   4.348 -0.9488 -0.2760 -0.1541
 3605SOL    HW211715   6.231   0.177   4.293  0.5765  0.6157 -1.2962
 3606SOL     OW11716   1.486   1.266   1.941 -0.6508 -0.2279 -0.1718
 3606SOL    HW111717   1.567   1.222   1.903 -1.0456 -2.2431  1.1628
 3606SOL    HW211718   1.512   1.349   1.990  0.7483 -1.2458  0.8814
 3607SOL     OW11719   4.321   2.226   4.346 -0.6455  0.0469 -0.4124
 3607SOL    HW111720   4.345   2.321   4.327  0.8117 -0.3569 -0.7740
 3607SOL    HW211721   4.388   2.187   4.410 -1.4455 -0.6232  0.0323
 3608SOL     OW11722   3.232   0.392   2.760 -0.0270 -0.4087 -0.1233
 3608SOL    HW111723   3.226   0.326   2.834  0.6003 -0.0991  0.2097
 3608SOL    HW211724   3.309   0.454   2.776  2.1001 -2.2367 -2.5846
 3609SOL     OW11725   1.261   5.505   4.887 -0.5482 -0.3174  0.1823
 3609SOL    HW111726   1.315   5.497   4.971 -0.3267  1.3706  0.2359
 3609SOL    HW211727   1.290   5.586   4.836 -1.2876 -0.8262 -1.0861
 3610SOL     OW11728   1.103   0.267   6.899  0.0524  0.3741 -0.2103
 3610SOL    HW111729   1.089   0.169   6.911 -0.6353  0.1421 -2.4615
 3610SOL    HW211730   1.177   0.298   6.958  1.6559 -1.8862 -0.9161
 3611SOL     OW11731   6.438   2.122   1.845 -0.1106  0.3181  0.7807
 3611SOL    HW111732   6.526   2.087   1.876  0.5408  1.6235  0.4716
 3611SOL    HW211733   6.379   2.140   1.924  0.1075 -0.0083  1.0195
 3612SOL     OW11734   4.969   0.520   1.389  0.2982  0.2950 -0.0559
 3612SOL    HW111735   4.909   0.457   1.339  1.1804  1.6775 -3.1431
 3612SOL    HW211736   4.913   0.579   1.448 -1.2049  0.2662 -1.3693
 3613SOL     OW11737   4.882   0.089   2.278  0.0341 -0.1228 -0.3892
 3613SOL    HW111738   4.816   0.073   2.351  0.8691  5.7728  2.2332
 3613SOL    HW211739   4.839   0.145   2.206  1.1200  0.4562 -0.6158
 3614SOL     OW11740   3.463   5.255   6.892 -0.1615  0.1387  0.0544
 3614SOL    HW111741   3.404   5.315   6.946  1.6585  1.5369  0.6003
 3614SOL    HW211742   3.511   5.309   6.823 -1.2909 -1.3744 -2.0080
 3615SOL     OW11743   5.623   2.715   6.305 -0.4566  0.3803 -0.2048
 3615SOL    HW111744   5.611   2.731   6.208  0.1250 -0.9816 -0.5286
 3615SOL    HW211745   5.720   2.708   6.327 -0.5985 -0.0605  0.3339
 3616SOL     OW11746   2.399   0.119   6.679  0.1360 -0.3963  0.2355
 3616SOL    HW111747   2.484   0.069   6.697  0.9430  0.3939 -1.1724
 3616SOL    HW211748   2.420   0.208   6.638 -1.3611  0.0090  0.2668
 3617SOL     OW11749   5.015   6.051   6.413  0.7067  0.1642  0.2655
 3617SOL    HW111750   5.082   6.013   6.349  0.4632  1.4323 -0.8028
 3617SOL    HW211751   4.973   6.132   6.372 -0.7730 -0.0277  1.3205
 3618SOL     OW11752   3.512   5.003   4.188  0.0221 -0.3118 -0.3672
 3618SOL    HW111753   3.492   4.973   4.282 -0.6787 -0.1928 -0.4757
 3618SOL    HW211754   3.433   4.987   4.130 -0.1013  1.0139 -0.6070
 3619SOL     OW11755   6.843   0.269   2.424 -0.5337 -0.0328 -0.3473
 3619SOL    HW111756   6.932   0.301   2.455 -0.2608  0.3155 -1.4684
 3619SOL    HW211757   6.771   0.309   2.481 -0.1214  1.6251 -0.9620
 3620SOL     OW11758   5.347   1.529   4.668 -0.3459 -0.2926 -0.0748
 3620SOL    HW111759   5.366   1.607   4.729  0.5040 -0.6190  0.0900
 3620SOL    HW211760   5.263   1.547   4.616  0.5437  1.3351 -1.0274
 3621SOL     OW11761   3.269   3.603   3.222  0.3543 -0.1472 -0.3264
 3621SOL    HW111762   3.207   3.634   3.149  0.1236  1.0368  0.3355
 3621SOL    HW211763   3.227   3.623   3.311  1.6335  0.5973  0.1321
 3622SOL     OW11764   1.137   6.034   6.171 -0.6554  0.4968  0.2815
 3622SOL    HW111765   1.046   6.019   6.212 -0.7495  1.5274  0.4969
 3622SOL    HW211766   1.164   6.129   6.188  0.2757  0.3111 -0.1670
 3623SOL     OW11767   1.077   6.095   3.996  0.1010  0.3807 -0.6734
 3623SOL    HW111768   1.105   6.048   3.912  1.4542  0.3190 -0.2096
 3623SOL    HW211769   1.129   6.059   4.073 -1.7052 -0.1344  0.3506
 3624SOL     OW11770   3.563   1.887   3.154  0.1854  0.0766  0.0676
 3624SOL    HW111771   3.543   1.947   3.232 -0.4003 -0.0319  0.0044
 3624SOL    HW211772   3.477   1.852   3.116  0.5038 -0.5351 -0.1059
 3625SOL     OW11773   6.556   3.021   0.832 -0.2754  0.1663 -0.1089
 3625SOL    HW111774   6.608   2.996   0.914  1.3925 -2.3819 -1.7915
 3625SOL    HW211775   6.584   3.112   0.801  0.2812  0.4690  1.2069
 3626SOL     OW11776   0.085   3.263   6.721  0.3443  0.1425 -0.9011
 3626SOL    HW111777   0.038   3.182   6.687  0.1818 -0.6999  1.1494
 3626SOL    HW211778   0.081   3.336   6.653 -1.9921 -0.6482 -1.6978
 3627SOL     OW11779   3.008   1.594   3.544  0.4239 -0.3188  0.4057
 3627SOL    HW111780   3.002   1.575   3.446  0.8208  0.1292  0.2933
 3627SOL    HW211781   2.992   1.691   3.561  0.3233 -0.4003  0.7896
 3628SOL     OW11782   0.206   0.765   6.875  0.0608 -1.1761 -0.8356
 3628SOL    HW111783   0.265   0.695   6.915  0.3730 -0.5457 -0.1697
 3628SOL    HW211784   0.230   0.778   6.778  1.1189 -0.8267 -0.5358
 3629SOL     OW11785   0.672   2.787   4.257 -0.1695  0.7100  0.3104
 3629SOL    HW111786   0.611   2.726   4.206  0.9956 -1.1720  1.0611
 3629SOL    HW211787   0.650   2.882   4.235 -2.1664  0.0556 -0.7885
 3630SOL     OW11788   6.527   6.965   3.660 -1.0960 -0.5841 -1.0645
 3630SOL    HW111789   6.540   6.887   3.721  0.8095  0.5847  0.1216
 3630SOL    HW211790   6.567   6.945   3.571 -0.4223 -0.9220 -0.6966
 3631SOL     OW11791   2.361   4.626   2.573 -0.0302 -0.0999  0.6594
 3631SOL    HW111792   2.459   4.642   2.585 -0.3244  2.6775  0.0509
 3631SOL    HW211793   2.333   4.548   2.628  2.4044 -0.5739  1.3327
 3632SOL     OW11794   4.442   2.321   4.069 -0.3001 -0.1894  0.2092
 3632SOL    HW111795   4.523   2.267   4.093  0.5696  0.9587 -0.0270
 3632SOL    HW211796   4.437   2.401   4.128 -1.4896 -0.4351  0.4593
 3633SOL     OW11797   5.215   4.695   4.378  0.1004 -0.0439  0.3651
 3633SOL    HW111798   5.260   4.744   4.303 -0.7518  0.2882  0.0669
 3633SOL    HW211799   5.121   4.726   4.387 -0.3424 -1.3581  0.4165
 3634SOL     OW11800   2.107   4.482   0.370  0.6915 -0.5387 -0.5765
 3634SOL    HW111801   2.111   4.478   0.270  0.9182 -1.9796 -0.5386
 3634SOL    HW211802   2.023   4.527   0.399  1.1675  0.9545 -1.4056
 3635SOL     OW11803   2.595   5.848   1.426  0.4335 -0.0282 -0.3145
 3635SOL    HW111804   2.681   5.798   1.434  1.2520  1.4680  0.8898
 3635SOL    HW211805   2.606   5.939   1.467 -2.1887 -0.3560  1.3311
 3636SOL     OW11806   0.189   1.726   5.380  0.3788  0.3053 -1.1191
 3636SOL    HW111807   0.210   1.637   5.339 -0.4308 -0.7148  0.5805
 3636SOL    HW211808   0.109   1.766   5.335  0.8428  0.2746 -1.9968
 3637SOL     OW11809   0.079   1.555   6.707 -0.5654 -0.3277  0.0950
 3637SOL    HW111810   0.148   1.626   6.722 -1.1843  0.1347  0.8864
 3637SOL    HW211811   0.121   1.465   6.716  0.2953 -0.0844 -1.2102
 3638SOL     OW11812   0.305   5.063   6.616 -0.0240 -0.6324 -0.1055
 3638SOL    HW111813   0.388   5.103   6.655 -0.5128 -0.6837  1.0152
 3638SOL    HW211814   0.243   5.136   6.589 -0.9046 -0.5723  1.9148
 3639SOL     OW11815   3.631   3.159   3.653  0.3150  0.1879 -0.3636
 3639SOL    HW111816   3.720   3.125   3.622  0.1857 -1.0747  0.5584
 3639SOL    HW211817   3.563   3.148   3.579  0.3728 -1.2375 -0.2366
 3640SOL     OW11818   3.557   1.973   2.597 -0.2469  0.0817  0.3404
 3640SOL    HW111819   3.572   2.006   2.504  0.1400 -0.6478  0.1377
 3640SOL    HW211820   3.459   1.966   2.614 -0.3196 -0.7647 -0.3756
 3641SOL     OW11821   0.281   5.263   0.985  0.4316  0.5137 -0.1979
 3641SOL    HW111822   0.320   5.278   1.076  1.3572 -0.5654 -0.3832
 3641SOL    HW211823   0.351   5.281   0.915 -0.6011  2.4725 -0.7914
 3642SOL     OW11824   6.380   2.825   7.019 -0.4786 -0.0313  0.1607
 3642SOL    HW111825   6.288   2.849   6.987 -0.8236 -1.5611 -0.0641
 3642SOL    HW211826   6.376   2.808   7.118 -0.4796 -0.2726  0.1196
 3643SOL     OW11827   3.188   4.921   3.674 -0.0213 -0.5189  0.3985
 3643SOL    HW111828   3.244   4.877   3.603  2.2519  1.0358  1.1008
 3643SOL    HW211829   3.100   4.874   3.681  1.1275 -3.0709 -0.8388
 3644SOL     OW11830   3.877   2.128   2.496 -0.0479 -0.3036 -0.2159
 3644SOL    HW111831   3.965   2.166   2.524 -0.1274  0.0281 -0.4096
 3644SOL    HW211832   3.882   2.099   2.401 -0.2012 -0.1162 -0.2814
 3645SOL     OW11833   0.278   3.863   4.418 -0.2130  0.2055 -0.4627
 3645SOL    HW111834   0.362   3.824   4.456  0.0280  0.6051 -0.5757
 3645SOL    HW211835   0.201   3.803   4.439 -0.0824  0.3841  0.6187
 3646SOL     OW11836   1.238   5.601   5.583  0.4153  0.2271 -0.1842
 3646SOL    HW111837   1.319   5.660   5.581 -1.0061  2.2788 -0.5595
 3646SOL    HW211838   1.189   5.609   5.496  0.2910 -1.7672 -0.3441
 3647SOL     OW11839   4.310   6.393   1.454 -0.3436  0.3949 -0.5094
 3647SOL    HW111840   4.316   6.453   1.374  0.3776  0.6786 -0.2462
 3647SOL    HW211841   4.347   6.440   1.534 -1.9254  0.4768  0.2195
 3648SOL     OW11842   1.159   4.712   4.074 -0.4318 -0.0921  0.1300
 3648SOL    HW111843   1.137   4.667   3.987 -1.7788  2.2092 -0.8194
 3648SOL    HW211844   1.085   4.695   4.139  1.1533 -2.8667  1.3739
 3649SOL     OW11845   6.285   2.039   6.478  0.3427 -0.9427 -0.0781
 3649SOL    HW111846   6.194   2.003   6.499 -0.0155 -0.8703 -1.3671
 3649SOL    HW211847   6.342   1.967   6.439  0.4062 -0.6958 -0.4558
 3650SOL     OW11848   4.728   5.589   6.743  0.6046  0.1878  0.0386
 3650SOL    HW111849   4.707   5.548   6.654  1.9184 -0.2174 -0.1017
 3650SOL    HW211850   4.730   5.688   6.734 -0.7672  0.2309 -0.0284
 3651SOL     OW11851   0.704   2.260   5.744  0.8929  0.5302 -0.1097
 3651SOL    HW111852   0.647   2.325   5.795  1.3722  1.3982 -0.6636
 3651SOL    HW211853   0.799   2.269   5.773  0.9221 -0.1470  0.0240
 3652SOL     OW11854   4.781   2.742   1.831 -0.2216  0.4901  0.4233
 3652SOL    HW111855   4.688   2.758   1.798 -0.2631 -0.5761 -0.0280
 3652SOL    HW211856   4.786   2.761   1.929 -1.3688 -1.1047  0.8256
 3653SOL     OW11857   1.594   2.830   0.311  0.0719  0.1738  0.1988
 3653SOL    HW111858   1.515   2.878   0.274  0.4422 -0.4258 -1.4531
 3653SOL    HW211859   1.600   2.739   0.269  1.8080  0.3307  0.0473
 3654SOL     OW11860   3.818   6.885   0.530 -0.3077  0.4690 -0.0032
 3654SOL    HW111861   3.884   6.907   0.458 -1.0076  0.5780 -0.6249
 3654SOL    HW211862   3.844   6.931   0.615  0.6550  0.1535 -0.1209
 3655SOL     OW11863   2.175   1.791   3.660  0.1098  0.4967 -0.5460
 3655SOL    HW111864   2.180   1.849   3.578  1.1206  1.3473  0.0855
 3655SOL    HW211865   2.257   1.734   3.665  1.2429  2.1609  1.0639
 3656SOL     OW11866   0.346   0.399   1.606 -0.4447  0.4323  0.1893
 3656SOL    HW111867   0.272   0.338   1.632 -0.3696  1.0775  2.0707
 3656SOL    HW211868   0.356   0.399   1.507 -2.1252 -0.6132 -0.0152
 3657SOL     OW11869   1.131   3.907   6.980  0.0814  0.2231 -0.1285
 3657SOL    HW111870   1.223   3.873   7.000  0.1649  1.0210  0.9117
 3657SOL    HW211871   1.085   3.933   7.065 -1.1415 -0.2286 -0.6353
 3658SOL     OW11872   1.563   3.310   5.117  0.3814  0.8248  0.3912
 3658SOL    HW111873   1.655   3.326   5.083  1.1613 -1.7206  1.0600
 3658SOL    HW211874   1.497   3.328   5.043  1.5727  0.6892 -0.7497
 3659SOL     OW11875   0.502   2.869   0.349  0.3620 -0.2085 -0.2872
 3659SOL    HW111876   0.574   2.819   0.300  1.9880  0.8309  0.9511
 3659SOL    HW211877   0.522   2.967   0.347 -0.7692  0.0529  0.5022
 3660SOL     OW11878   4.619   5.280   3.544 -0.2410 -0.1833 -0.6538
 3660SOL    HW111879   4.615   5.186   3.510 -3.4385 -0.2206 -0.4892
 3660SOL    HW211880   4.640   5.342   3.469 -0.5371 -0.8376 -1.2864
 3661SOL     OW11881   1.644   6.359   5.809  0.3379 -0.2275  0.1953
 3661SOL    HW111882   1.614   6.306   5.730 -1.5214 -2.0198  1.9818
 3661SOL    HW211883   1.637   6.457   5.788 -2.1136 -0.6156 -1.2113
 3662SOL     OW11884   4.275   4.175   6.750 -0.0020 -0.1290  0.2959
 3662SOL    HW111885   4.291   4.152   6.653  0.2078 -0.4828  0.4131
 3662SOL    HW211886   4.345   4.241   6.780 -1.9705  2.6117 -0.7021
 3663SOL     OW11887   0.659   4.420   0.680  0.1035  0.0028  0.0200
 3663SOL    HW111888   0.638   4.324   0.657 -0.2663 -0.2643  1.3938
 3663SOL    HW211889   0.643   4.435   0.777 -0.7918  1.7369 -0.3722
 3664SOL     OW11890   2.539   4.010   0.167 -0.5121  0.1892 -0.0621
 3664SOL    HW111891   2.463   3.945   0.167  0.6103 -1.1920  0.4188
 3664SOL    HW211892   2.624   3.962   0.144  0.6374  1.1021  1.9324
 3665SOL     OW11893   0.601   6.564   5.420 -0.2804 -0.3870 -0.6500
 3665SOL    HW111894   0.663   6.486   5.421  1.4902  0.9531  0.8393
 3665SOL    HW211895   0.571   6.584   5.513 -0.3537  0.9618 -0.9471
 3666SOL     OW11896   0.272   4.150   4.363 -0.4081  0.8963 -0.1543
 3666SOL    HW111897   0.276   4.052   4.377 -1.8074  0.7449 -0.6370
 3666SOL    HW211898   0.320   4.197   4.437  1.5348 -0.1675 -0.6792
 3667SOL     OW11899   2.399   6.106   1.953  0.2521  0.6062  0.2246
 3667SOL    HW111900   2.327   6.169   1.926  0.3162  0.2372 -0.8713
 3667SOL    HW211901   2.428   6.052   1.873  0.6428 -0.3517  0.9897
 3668SOL     OW11902   3.424   1.640   2.074 -0.1012  0.1203 -0.5305
 3668SOL    HW111903   3.495   1.570   2.064  1.1160  1.3640 -0.8549
 3668SOL    HW211904   3.440   1.693   2.157 -1.6965 -0.6938  0.3516
 3669SOL     OW11905   6.909   2.575   3.064  0.2611  0.6116  0.3191
 3669SOL    HW111906   6.905   2.650   2.998 -0.1810 -0.3416 -0.7887
 3669SOL    HW211907   6.988   2.517   3.042  0.9780  1.0840  1.5602
 3670SOL     OW11908   2.413   4.354   2.156 -0.4531  0.2744  0.1798
 3670SOL    HW111909   2.316   4.356   2.178 -0.3701  0.6474  0.5478
 3670SOL    HW211910   2.430   4.406   2.073 -0.6109 -0.0853 -0.0794
 3671SOL     OW11911   1.150   1.015   5.036 -0.1017  0.1086 -0.6907
 3671SOL    HW111912   1.211   1.022   4.958 -0.4535  1.9323 -0.8418
 3671SOL    HW211913   1.154   1.099   5.090 -1.1870 -0.4127  0.2657
 3672SOL     OW11914   0.694   0.994   5.422  0.1418 -0.4301  0.1316
 3672SOL    HW111915   0.728   0.927   5.357 -1.0347  0.0549 -1.0412
 3672SOL    HW211916   0.600   1.019   5.397  0.0107  0.4910  1.4588
 3673SOL     OW11917   3.243   2.323   1.065  0.1953  0.1617  0.1883
 3673SOL    HW111918   3.297   2.372   1.133  2.1938 -1.2885 -0.2819
 3673SOL    HW211919   3.249   2.370   0.977 -0.8781  1.0166  0.5490
 3674SOL     OW11920   0.233   6.336   4.045 -0.0572  0.4506  0.6722
 3674SOL    HW111921   0.219   6.408   4.113 -0.5220  1.9137 -0.8908
 3674SOL    HW211922   0.181   6.358   3.962  0.9619 -0.9464 -0.3866
 3675SOL     OW11923   4.004   0.491   5.965 -0.2600 -0.0712  0.5063
 3675SOL    HW111924   4.023   0.525   5.872  2.6065 -0.9502  0.6795
 3675SOL    HW211925   4.011   0.391   5.965  1.0806  0.0097  1.9261
 3676SOL     OW11926   3.663   1.187   0.351  0.4239 -0.0665  0.1592
 3676SOL    HW111927   3.719   1.171   0.433  0.0024 -1.0522  0.2754
 3676SOL    HW211928   3.639   1.283   0.345 -0.9939 -0.2427  2.1460
 3677SOL     OW11929   1.876   6.214   4.348 -0.4998  0.3359 -0.6595
 3677SOL    HW111930   1.883   6.115   4.357  0.5746  0.5878  2.2531
 3677SOL    HW211931   1.882   6.257   4.438  1.6421  3.2043 -1.9994
 3678SOL     OW11932   2.218   1.889   4.598 -0.0336  0.0538  0.2992
 3678SOL    HW111933   2.204   1.920   4.691  0.5588  1.2505  0.0069
 3678SOL    HW211934   2.148   1.929   4.538 -0.3032 -0.5606  0.1965
 3679SOL     OW11935   3.851   1.588   1.809  0.2814 -0.1487 -0.4647
 3679SOL    HW111936   3.797   1.569   1.727 -0.9402 -1.2458  0.5404
 3679SOL    HW211937   3.816   1.671   1.854 -0.0878 -0.4408 -0.2109
 3680SOL     OW11938   4.342   2.003   4.120 -0.2832  0.3308  0.1913
 3680SOL    HW111939   4.299   1.916   4.144  2.6030 -0.9922  0.9117
 3680SOL    HW211940   4.353   2.058   4.202 -1.0805  0.9517 -0.0951
 3681SOL     OW11941   2.291   4.552   3.324  0.2275 -0.0949  0.7240
 3681SOL    HW111942   2.239   4.467   3.326  0.9790 -0.5777  0.3898
 3681SOL    HW211943   2.346   4.560   3.407  2.5810 -1.5337 -0.5904
 3682SOL     OW11944   4.835   6.330   0.083  0.3086 -0.4122 -0.1321
 3682SOL    HW111945   4.863   6.411   0.031 -0.3459  0.1610  0.3817
 3682SOL    HW211946   4.782   6.269   0.024 -1.5368  0.8486  0.1620
 3683SOL     OW11947   6.095   1.922   1.620  0.3004  0.7165 -0.3982
 3683SOL    HW111948   6.152   1.976   1.559  0.3042  1.1503 -0.0173
 3683SOL    HW211949   6.027   1.981   1.663  0.6198  0.5182  0.3997
 3684SOL     OW11950   1.047   5.938   5.183  0.4214 -0.2011  0.1930
 3684SOL    HW111951   1.020   5.944   5.087 -1.7553  1.1092  0.8127
 3684SOL    HW211952   1.144   5.958   5.192  0.7320 -0.6507 -1.7549
 3685SOL     OW11953   0.402   6.880   3.695  0.0816  0.0335 -0.3323
 3685SOL    HW111954   0.405   6.801   3.757  0.5869 -1.2446 -1.9109
 3685SOL    HW211955   0.341   6.859   3.618  0.5143  1.0322 -0.9660
 3686SOL     OW11956   6.145   0.391   0.172  0.4090 -0.9928 -0.3391
 3686SOL    HW111957   6.188   0.357   0.255 -1.6848 -3.6251 -0.1802
 3686SOL    HW211958   6.183   0.343   0.092 -0.2287 -1.2821 -0.4771
 3687SOL     OW11959   5.420   4.102   4.144 -0.7771 -0.1907 -0.6606
 3687SOL    HW111960   5.429   4.025   4.207 -1.8291 -1.5740 -2.0978
 3687SOL    HW211961   5.358   4.170   4.182 -2.6548 -1.7407 -0.8033
 3688SOL     OW11962   1.480   1.305   3.300 -0.4145  0.2568  0.4421
 3688SOL    HW111963   1.482   1.391   3.352  2.3865  0.7586 -0.3099
 3688SOL    HW211964   1.397   1.301   3.246 -1.0386  2.0857  1.1759
 3689SOL     OW11965   2.668   1.579   0.643  0.2576 -0.1393  0.2365
 3689SOL    HW111966   2.577   1.565   0.605 -0.7184 -1.4640  2.7770
 3689SOL    HW211967   2.692   1.502   0.702  3.6442 -0.4840 -1.3253
 3690SOL     OW11968   6.719   6.148   3.832 -0.0013 -0.7779  0.5763
 3690SOL    HW111969   6.775   6.127   3.751  0.8387  0.5035  0.7869
 3690SOL    HW211970   6.670   6.234   3.816 -1.3690 -1.5020  0.6957
 3691SOL     OW11971   2.441   2.273   1.227 -0.0181 -0.4277  0.0913
 3691SOL    HW111972   2.504   2.224   1.287  0.9393  0.9008  0.2182
 3691SOL    HW211973   2.484   2.356   1.194 -2.3208  1.5939  1.7558
 3692SOL     OW11974   0.785   1.929   5.078 -0.8572  0.2714  0.0721
 3692SOL    HW111975   0.844   2.006   5.056 -0.7187  1.0098  2.7547
 3692SOL    HW211976   0.797   1.857   5.009  1.0620  1.5202 -0.9710
 3693SOL     OW11977   0.966   2.099   1.133 -0.0683 -0.2834  0.4787
 3693SOL    HW111978   0.926   2.017   1.091  0.1250 -0.0521 -0.1821
 3693SOL    HW211979   0.895   2.150   1.180 -0.7231  0.4726 -1.2506
 3694SOL     OW11980   6.283   0.200   1.457  0.1539 -0.1076  0.7350
 3694SOL    HW111981   6.370   0.230   1.418  0.0284 -0.3276  0.2892
 3694SOL    HW211982   6.224   0.280   1.472  1.1013  0.2821  2.7396
 3695SOL     OW11983   5.597   5.848   4.212  0.1892  0.0752 -0.1715
 3695SOL    HW111984   5.504   5.820   4.187  0.6194  0.0533 -1.8419
 3695SOL    HW211985   5.630   5.917   4.148  1.1651  0.4379  0.6886
 3696SOL     OW11986   3.473   6.679   3.823  0.3235 -0.8120 -0.5295
 3696SOL    HW111987   3.447   6.763   3.869 -1.5310 -2.2011  1.0942
 3696SOL    HW211988   3.532   6.624   3.882  0.1405 -1.4119 -0.8878
 3697SOL     OW11989   0.692   2.987   3.820  0.4794  0.4582  0.4472
 3697SOL    HW111990   0.651   2.961   3.732 -0.4437 -2.1180  1.5307
 3697SOL    HW211991   0.619   3.012   3.884  1.2111  3.6493  0.2079
 3698SOL     OW11992   1.846   6.624   3.108  0.3163 -0.8463  0.3054
 3698SOL    HW111993   1.873   6.666   3.021  0.0259 -3.0079 -0.8816
 3698SOL    HW211994   1.916   6.560   3.138 -0.4771 -1.5912  0.6229
 3699SOL     OW11995   3.649   0.947   3.976 -0.7010 -0.5467 -0.6005
 3699SOL    HW111996   3.653   1.025   3.914 -0.4142 -0.9514 -1.0972
 3699SOL    HW211997   3.636   0.863   3.923 -0.1683 -0.9268 -0.1410
 3700SOL     OW11998   1.708   3.986   5.434  0.6436  0.1635  0.1500
 3700SOL    HW111999   1.797   3.981   5.480  0.4254 -1.5647  0.4735
 3700SOL    HW212000   1.715   4.046   5.354  2.5283 -1.0941 -0.7066
 3701SOL     OW12001   2.503   0.576   1.576  0.5231  0.0351  0.2648
 3701SOL    HW112002   2.496   0.498   1.515  2.5533  1.7860 -2.4653
 3701SOL    HW212003   2.598   0.608   1.580 -0.1779  2.2628  1.3781
 3702SOL     OW12004   0.250   5.035   4.057  0.2403 -0.8850 -0.1662
 3702SOL    HW112005   0.184   5.098   4.097 -2.8722 -1.9460 -3.2024
 3702SOL    HW212006   0.277   4.968   4.125 -0.0735  0.8339  1.7643
 3703SOL     OW12007   0.557   2.079   4.965  0.3288  0.5174 -0.0143
 3703SOL    HW112008   0.555   1.997   4.908 -1.2638  0.1302  0.5218
 3703SOL    HW212009   0.651   2.100   4.992  0.6459 -2.2591  1.4011
 3704SOL     OW12010   6.181   6.866   6.090  0.4721 -0.2328 -0.3995
 3704SOL    HW112011   6.191   6.798   6.018 -0.4605 -0.3553 -0.4202
 3704SOL    HW212012   6.121   6.831   6.162  1.8688 -0.3561  0.7545
 3705SOL     OW12013   6.615   2.653   4.248 -0.3074 -0.3451  1.0453
 3705SOL    HW112014   6.597   2.557   4.273 -0.8694 -0.9851 -1.4854
 3705SOL    HW212015   6.546   2.712   4.291 -1.3876 -1.3802  0.8000
 3706SOL     OW12016   0.948   6.349   0.086  0.7965 -0.0613  0.6587
 3706SOL    HW112017   0.884   6.284   0.126 -1.6046  1.0490 -1.1113
 3706SOL    HW212018   0.949   6.337  -0.014 -0.5617  3.1475  0.1146
 3707SOL     OW12019   6.534   4.204   2.561  0.0943  0.2826  0.5296
 3707SOL    HW112020   6.471   4.171   2.632 -0.2289  0.5197  0.3564
 3707SOL    HW212021   6.621   4.155   2.568  0.6964  1.5404  2.2037
 3708SOL     OW12022   5.821   5.818   0.132 -0.3328 -0.2147  0.3476
 3708SOL    HW112023   5.828   5.912   0.166 -2.9349  0.1214  0.2080
 3708SOL    HW212024   5.770   5.763   0.198  0.0984 -1.2181 -0.1356
 3709SOL     OW12025   6.979   2.274   2.155 -0.1775  0.3640  0.6003
 3709SOL    HW112026   6.998   2.191   2.208  0.0544 -0.2830 -0.4617
 3709SOL    HW212027   6.886   2.269   2.119  0.0222  0.2811  0.0723
 3710SOL     OW12028   1.797   2.118   5.270 -0.1094  0.3801 -0.2684
 3710SOL    HW112029   1.712   2.068   5.259 -0.4761  0.7900  0.6276
 3710SOL    HW212030   1.804   2.152   5.364  1.2516 -0.0352 -0.1987
 3711SOL     OW12031   6.594   5.179   6.958  0.4195 -0.2984 -0.0439
 3711SOL    HW112032   6.571   5.202   7.053 -0.4359 -3.0266  0.4928
 3711SOL    HW212033   6.692   5.164   6.950  0.3785 -0.9931  0.6512
 3712SOL     OW12034   3.126   5.181   3.656  0.0175  0.4890  0.3467
 3712SOL    HW112035   3.178   5.217   3.734  0.0896  0.2033  0.4330
 3712SOL    HW212036   3.156   5.088   3.636 -0.9142  0.0643  0.8223
 3713SOL     OW12037   6.170   0.145   5.814  0.1159  0.1943 -0.4861
 3713SOL    HW112038   6.199   0.139   5.719  0.3386 -1.6175 -0.3522
 3713SOL    HW212039   6.226   0.082   5.869 -1.1189 -0.0377  0.5436
 3714SOL     OW12040   6.717   0.565   1.596 -0.1004  0.2487 -0.4847
 3714SOL    HW112041   6.674   0.541   1.509 -0.5774  2.5431 -0.9480
 3714SOL    HW212042   6.646   0.595   1.660  0.4085 -0.0028  0.2060
 3715SOL     OW12043   6.335   2.310   0.582  0.0158  0.3427 -0.3998
 3715SOL    HW112044   6.316   2.236   0.647 -0.7466 -0.7994 -1.8454
 3715SOL    HW212045   6.397   2.376   0.624  0.3045 -0.8312  1.1359
 3716SOL     OW12046   6.223   2.722   5.602  0.1698 -0.6170  0.0442
 3716SOL    HW112047   6.274   2.752   5.522  1.0214 -0.4906  0.6230
 3716SOL    HW212048   6.257   2.634   5.633 -2.0544 -2.0753 -1.3998
 3717SOL     OW12049   4.544   5.540   1.083  0.1380  0.0607  0.0069
 3717SOL    HW112050   4.508   5.562   0.993 -1.8051 -0.7947  0.5289
 3717SOL    HW212051   4.568   5.624   1.131  0.8479  0.5383 -1.1279
 3718SOL     OW12052   6.192   4.897   6.995 -0.1113 -0.0828  0.2419
 3718SOL    HW112053   6.198   4.816   6.936 -1.4033 -0.3308  0.4291
 3718SOL    HW212054   6.260   4.964   6.966  0.7872 -1.1108 -0.1011
 3719SOL     OW12055   3.322   3.329   0.143 -0.0929  0.9016  0.8141
 3719SOL    HW112056   3.414   3.332   0.183 -0.1555  0.2671  1.0014
 3719SOL    HW212057   3.259   3.381   0.201  0.0059  0.7626  1.0467
 3720SOL     OW12058   6.827   2.348   6.509  0.0523 -0.1783  0.2844
 3720SOL    HW112059   6.788   2.262   6.476 -1.4397  0.1168  1.2171
 3720SOL    HW212060   6.876   2.332   6.595 -0.5103 -0.0409  0.6321
 3721SOL     OW12061   1.733   6.594   0.232  0.3298 -0.0314 -0.0422
 3721SOL    HW112062   1.755   6.681   0.277  0.9832  0.1530 -0.6880
 3721SOL    HW212063   1.767   6.596   0.138  0.5662 -1.0888  0.0090
 3722SOL     OW12064   4.246   0.774   3.219 -0.0857  0.4918  0.5003
 3722SOL    HW112065   4.344   0.780   3.236 -0.2315  3.2010  0.7146
 3722SOL    HW212066   4.209   0.865   3.201 -2.4331 -0.5709 -0.4236
 3723SOL     OW12067   4.665   4.507   0.035 -0.5585  0.0876  0.0168
 3723SOL    HW112068   4.661   4.419   0.082  0.2029  0.7873  1.4481
 3723SOL    HW212069   4.581   4.559   0.053 -1.3454 -0.6116 -1.4482
 3724SOL     OW12070   6.499   5.013   2.925  0.5447  0.3613  0.2563
 3724SOL    HW112071   6.535   5.081   2.988 -1.9814  2.3733 -0.3096
 3724SOL    HW212072   6.434   4.954   2.973  1.6789 -0.8155  0.4121
 3725SOL     OW12073   1.299   0.089   0.591 -0.1071 -0.5417 -0.1945
 3725SOL    HW112074   1.303   0.116   0.687  0.4449 -2.0783  0.2284
 3725SOL    HW212075   1.208   0.053   0.571 -0.0225 -0.8238 -0.0766
 3726SOL     OW12076   5.948   2.797   6.062 -0.3045 -0.0054 -0.1842
 3726SOL    HW112077   5.873   2.862   6.073 -0.1487  0.2514 -0.5980
 3726SOL    HW212078   6.035   2.844   6.079 -0.2716 -0.5109  1.1653
 3727SOL     OW12079   6.472   2.652   2.324 -0.2609  0.1803  0.2552
 3727SOL    HW112080   6.397   2.636   2.261 -1.0507  1.0112  0.9585
 3727SOL    HW212081   6.436   2.674   2.415  0.8434 -0.7263  0.9480
 3728SOL     OW12082   1.006   2.789   2.229  0.0537  0.4276  0.4201
 3728SOL    HW112083   0.989   2.808   2.133  0.3423  1.1598  0.5029
 3728SOL    HW212084   1.101   2.813   2.251 -0.0137  0.2749  0.8878
 3729SOL     OW12085   6.455   6.854   6.259  0.0172  0.3059  0.2921
 3729SOL    HW112086   6.459   6.824   6.355 -0.3442 -0.9979 -0.0870
 3729SOL    HW212087   6.440   6.953   6.257  0.3574  0.4138  1.5817
 3730SOL     OW12088   5.530   3.126   4.087 -0.6599  0.6105  0.0512
 3730SOL    HW112089   5.461   3.069   4.131 -1.4691 -0.7859 -2.8152
 3730SOL    HW212090   5.621   3.092   4.110 -0.9628  0.8493  1.7482
 3731SOL     OW12091   6.591   2.086   3.313  0.0280  0.4622 -0.3850
 3731SOL    HW112092   6.534   2.005   3.300  1.1398 -0.1713 -1.5342
 3731SOL    HW212093   6.621   2.090   3.409 -1.7562  0.7300  0.2140
 3732SOL     OW12094   5.518   5.587   0.902  0.3593 -0.2162 -0.5820
 3732SOL    HW112095   5.488   5.651   0.831  2.4911 -0.5953 -1.9268
 3732SOL    HW212096   5.542   5.638   0.985  0.0289  0.4859 -0.9136
 3733SOL     OW12097   0.323   2.513   3.296 -0.0560 -0.2642 -0.3713
 3733SOL    HW112098   0.415   2.542   3.271  0.1033 -0.8743 -0.5129
 3733SOL    HW212099   0.257   2.581   3.265  0.5033  1.4015  1.8223
 3734SOL     OW12100   3.996   1.905   2.692 -0.1754  0.6099  0.0639
 3734SOL    HW112101   3.928   1.967   2.731  2.2807  2.2675  2.0846
 3734SOL    HW212102   4.025   1.839   2.762 -0.0259 -0.3964 -0.9097
 3735SOL     OW12103   4.307   0.405   1.825  0.4543  0.0204 -0.5630
 3735SOL    HW112104   4.248   0.334   1.864 -0.9649  1.3454 -0.1818
 3735SOL    HW212105   4.315   0.392   1.727 -0.1505 -0.4222 -0.5598
 3736SOL     OW12106   1.063   2.639   6.869 -0.0607  0.1770  0.2743
 3736SOL    HW112107   1.071   2.571   6.796 -1.0474  0.5104 -0.1567
 3736SOL    HW212108   1.061   2.731   6.829  3.8239  0.7374  0.9525
 3737SOL     OW12109   4.840   3.143   4.543  0.0463  0.2314  0.1413
 3737SOL    HW112110   4.925   3.121   4.590  0.1146 -1.0014 -0.5097
 3737SOL    HW212111   4.842   3.238   4.512  1.7751 -0.1347 -1.0447
 3738SOL     OW12112   1.407   1.344   0.747  0.9973 -0.1023  0.1187
 3738SOL    HW112113   1.493   1.339   0.798  0.2018 -0.8039  1.4402
 3738SOL    HW212114   1.340   1.395   0.800 -0.0508 -1.3859  0.0868
 3739SOL     OW12115   3.006   4.954   5.602  0.0267  0.1472 -0.5007
 3739SOL    HW112116   2.945   4.967   5.680 -0.3763 -1.8839 -0.4187
 3739SOL    HW212117   3.030   4.857   5.594  2.4181  0.7219 -1.1710
 3740SOL     OW12118   0.555   1.061   6.930  0.1607  0.6270  0.1202
 3740SOL    HW112119   0.638   1.103   6.966 -0.5131  0.9940  1.3270
 3740SOL    HW212120   0.578   0.988   6.866  1.3940  0.8915  0.2522
 3741SOL     OW12121   4.216   3.863   6.811 -0.4140 -0.6978 -0.4161
 3741SOL    HW112122   4.180   3.842   6.903 -0.9296 -0.0406 -0.4596
 3741SOL    HW212123   4.272   3.945   6.815  0.5016 -1.3030 -0.4918
 3742SOL     OW12124   6.321   5.007   0.660  0.0966 -0.2087  0.8174
 3742SOL    HW112125   6.237   5.042   0.619  0.1845 -0.4383  0.4399
 3742SOL    HW212126   6.318   4.907   0.666  0.1214 -0.1856  1.2946
 3743SOL     OW12127   1.626   4.005   4.201 -0.6517  0.5462  0.6409
 3743SOL    HW112128   1.629   4.031   4.104 -0.6632 -1.2881  0.1199
 3743SOL    HW212129   1.621   4.088   4.257  0.2670  1.6897 -0.8764
 3744SOL     OW12130   5.613   5.810   1.854  0.3357 -0.0150  0.6000
 3744SOL    HW112131   5.566   5.723   1.846  0.7502 -0.1320 -0.8618
 3744SOL    HW212132   5.659   5.831   1.768 -0.7564  2.2270  0.5039
 3745SOL     OW12133   6.104   2.398   2.380  0.0406 -0.3996  0.1861
 3745SOL    HW112134   6.051   2.363   2.302 -0.3187  0.3123  0.1036
 3745SOL    HW212135   6.172   2.330   2.407 -0.7128 -1.2009  0.0977
 3746SOL     OW12136   5.954   6.997   6.266  0.0184  0.4111  0.0374
 3746SOL    HW112137   5.957   7.047   6.179  1.0900  0.1086 -0.1055
 3746SOL    HW212138   5.958   6.899   6.247 -0.5467  0.3101  0.4018
 3747SOL     OW12139   1.242   3.517   5.304  0.6472  0.4080 -0.5847
 3747SOL    HW112140   1.151   3.531   5.344  0.2483 -0.5333 -1.1502
 3747SOL    HW212141   1.293   3.453   5.361  1.2403  1.4920  0.1360
 3748SOL     OW12142   4.699   2.307   2.158 -0.0539  0.0318 -0.2259
 3748SOL    HW112143   4.615   2.300   2.211  0.6610  1.2264  1.1270
 3748SOL    HW212144   4.741   2.396   2.173  1.6529 -0.6740 -0.5617
 3749SOL     OW12145   5.102   4.108   0.843  0.6908  0.5342 -0.1119
 3749SOL    HW112146   5.077   4.193   0.797  1.2144  0.2762 -0.8899
 3749SOL    HW212147   5.201   4.103   0.854  0.5620  0.6794  1.2423
 3750SOL     OW12148   0.150   6.101   2.613  0.7184 -0.0997 -0.2415
 3750SOL    HW112149   0.221   6.079   2.680  0.6776  0.8611  0.1407
 3750SOL    HW212150   0.075   6.148   2.659  0.1522 -0.4779 -0.7687
 3751SOL     OW12151   1.366   5.208   1.060 -0.1541  0.4256  0.1774
 3751SOL    HW112152   1.431   5.279   1.033  1.5628 -1.0514  0.2977
 3751SOL    HW212153   1.398   5.163   1.143 -1.8455  0.2960  0.7963
 3752SOL     OW12154   6.584   5.871   1.316 -0.0163  0.4813 -0.2391
 3752SOL    HW112155   6.598   5.968   1.330  0.9882  0.2597  0.3618
 3752SOL    HW212156   6.568   5.853   1.219 -2.8009  1.5264 -0.0669
 3753SOL     OW12157   6.887   3.125   4.790 -0.3500 -0.0060  0.1058
 3753SOL    HW112158   6.893   3.026   4.779 -1.7553 -0.3259  1.8834
 3753SOL    HW212159   6.885   3.168   4.700 -1.3766 -1.6917 -0.7201
 3754SOL     OW12160   5.528   1.167   2.327  0.3852 -0.0976  0.0458
 3754SOL    HW112161   5.601   1.213   2.378  0.9178 -0.2393 -0.5777
 3754SOL    HW212162   5.566   1.128   2.242 -0.1732 -1.1567  0.2591
 3755SOL     OW12163   5.174   2.004   3.081  0.2501 -0.1264 -0.5197
 3755SOL    HW112164   5.138   2.046   3.164  1.5255 -2.4867  1.3803
 3755SOL    HW212165   5.237   2.067   3.035  0.7143  0.7123  1.1832
 3756SOL     OW12166   1.711   7.010   0.081  0.3342  0.5319 -0.8011
 3756SOL    HW112167   1.752   7.088   0.033 -0.9036  1.6196 -0.1510
 3756SOL    HW212168   1.625   7.038   0.122  1.4500 -0.2384  2.3434
 3757SOL     OW12169   5.194   4.413   6.224  0.2251 -0.1926  0.0090
 3757SOL    HW112170   5.204   4.480   6.298 -0.0442  0.0829 -0.2029
 3757SOL    HW212171   5.215   4.457   6.137 -1.5505  0.0767 -0.3207
 3758SOL     OW12172   0.981   0.462   1.090 -0.4538  0.3504  0.3253
 3758SOL    HW112173   1.003   0.545   1.141  0.6409 -0.6073  1.4558
 3758SOL    HW212174   0.917   0.406   1.143 -0.4399  0.0215 -0.0017
 3759SOL     OW12175   6.945   3.587   0.599 -0.4076 -0.6290  0.2224
 3759SOL    HW112176   7.011   3.651   0.559  0.7113 -0.1351  2.6709
 3759SOL    HW212177   6.959   3.496   0.560  1.9950 -0.6106  0.9139
 3760SOL     OW12178   1.525   1.096   6.569  0.0196  0.6312  0.1445
 3760SOL    HW112179   1.527   1.059   6.476  1.6788 -0.1576  0.4552
 3760SOL    HW212180   1.558   1.191   6.567 -0.6471  0.8654 -0.1508
 3761SOL     OW12181   6.150   6.399   4.908 -0.0287  0.3411 -0.0111
 3761SOL    HW112182   6.210   6.322   4.931  0.3566  0.8674  0.8105
 3761SOL    HW212183   6.055   6.374   4.924  0.1430  0.2433  0.8979
 3762SOL     OW12184   0.739   3.704   0.931  0.3758  0.5816 -0.4130
 3762SOL    HW112185   0.760   3.777   0.997  1.4533 -1.9050  2.1716
 3762SOL    HW212186   0.819   3.646   0.919 -1.3332 -2.0277  0.1067
 3763SOL     OW12187   6.732   0.319   5.223 -0.6207 -0.0670  0.0277
 3763SOL    HW112188   6.830   0.334   5.233 -0.5777 -0.4426  0.1959
 3763SOL    HW212189   6.683   0.404   5.244 -0.2535  0.6197 -1.7314
 3764SOL     OW12190   1.971   0.777   3.568 -0.0545  0.1480  0.4144
 3764SOL    HW112191   2.038   0.830   3.620  2.2591 -1.4672 -0.7438
 3764SOL    HW212192   2.017   0.727   3.495 -2.7875  0.2398 -1.5515
 3765SOL     OW12193   4.234   0.724   4.272 -0.1592 -0.6935 -0.3522
 3765SOL    HW112194   4.332   0.740   4.264 -0.0993 -0.4906  0.6055
 3765SOL    HW212195   4.217   0.660   4.347 -0.7365 -1.0481 -0.7771
 3766SOL     OW12196   2.091   1.600   3.415  0.1240  0.1437 -0.5202
 3766SOL    HW112197   2.082   1.669   3.343 -2.0614 -0.7750 -1.1968
 3766SOL    HW212198   2.025   1.619   3.488  1.6724  0.5255  0.8247
 3767SOL     OW12199   4.550   5.742   2.955 -0.2207  0.0574 -0.3669
 3767SOL    HW112200   4.469   5.713   2.903 -0.1502  0.9977 -1.0333
 3767SOL    HW212201   4.528   5.822   3.009 -0.4303 -1.2126  1.5054
 3768SOL     OW12202   4.347   5.749   1.925 -0.1916  0.6466  0.0901
 3768SOL    HW112203   4.437   5.744   1.881 -0.7750  0.0479 -1.0753
 3768SOL    HW212204   4.358   5.785   2.018  1.2476  0.5575 -0.0156
 3769SOL     OW12205   1.977   0.430   3.966  0.2274 -0.5210  0.1288
 3769SOL    HW112206   2.006   0.456   4.058  0.2402 -0.6576  0.1636
 3769SOL    HW212207   1.937   0.338   3.968 -0.9970 -0.0071  0.2274
 3770SOL     OW12208   6.507   2.773   6.539 -0.4413  0.5927  0.0739
 3770SOL    HW112209   6.512   2.793   6.441  2.4892  1.3408  0.2670
 3770SOL    HW212210   6.535   2.679   6.555  0.2341  0.8179  0.2526
 3771SOL     OW12211   5.082   2.482   4.633 -0.6662 -0.2572 -0.1252
 3771SOL    HW112212   4.995   2.448   4.668 -0.5925 -2.1663 -1.6377
 3771SOL    HW212213   5.076   2.581   4.619 -1.7435  0.0530  2.0554
 3772SOL     OW12214   5.593   6.893   2.512 -0.1073 -0.0767 -0.8796
 3772SOL    HW112215   5.590   6.849   2.601 -2.3195  0.9323 -0.3905
 3772SOL    HW212216   5.646   6.978   2.518 -1.2899  0.6404 -0.1599
 3773SOL     OW12217   6.483   2.344   2.677 -0.2813 -0.2592 -0.3822
 3773SOL    HW112218   6.458   2.391   2.762 -2.3085 -0.9762 -0.5128
 3773SOL    HW212219   6.551   2.274   2.696 -1.1720 -0.8371  0.7869
 3774SOL     OW12220   3.729   0.411   1.060 -0.0560 -0.6092  0.1017
 3774SOL    HW112221   3.726   0.498   1.108 -0.9479 -1.1203  1.0134
 3774SOL    HW212222   3.823   0.376   1.060  0.1704 -0.0099  0.3932
 3775SOL     OW12223   5.488   3.835   4.831 -0.2556  0.5127  0.0571
 3775SOL    HW112224   5.462   3.782   4.912 -1.0080  1.7491  0.6479
 3775SOL    HW212225   5.450   3.790   4.749  1.0022 -1.0657  0.2858
 3776SOL     OW12226   2.664   2.373   2.192 -0.6879 -0.0667  0.1725
 3776SOL    HW112227   2.750   2.352   2.146 -0.1543  1.6529  0.3250
 3776SOL    HW212228   2.595   2.398   2.124 -0.8340 -0.5986  0.1158
 3777SOL     OW12229   1.584   4.960   4.534 -0.3911  0.1066 -0.3010
 3777SOL    HW112230   1.588   4.980   4.436 -1.2003 -0.8329 -0.5428
 3777SOL    HW212231   1.489   4.942   4.560 -0.2090  0.5187  0.6959
 3778SOL     OW12232   1.445   1.791   1.352  0.0518  0.2038  0.2278
 3778SOL    HW112233   1.462   1.884   1.385  0.8301  0.0970  0.1459
 3778SOL    HW212234   1.507   1.770   1.277  0.2677 -0.5848  0.6146
 3779SOL     OW12235   1.421   4.000   2.404 -0.0086 -0.4354 -0.7335
 3779SOL    HW112236   1.389   3.906   2.410  0.3550 -0.5206  0.1130
 3779SOL    HW212237   1.431   4.027   2.308 -1.1821 -0.8776 -0.9869
 3780SOL     OW12238   2.418   1.879   1.518 -0.2113 -0.3443  0.1709
 3780SOL    HW112239   2.403   1.804   1.582 -3.4294  1.1845  1.3770
 3780SOL    HW212240   2.334   1.897   1.467  1.1362  1.0525 -1.6828
 3781SOL     OW12241   2.218   5.141   3.958 -0.1710 -0.5597  0.0193
 3781SOL    HW112242   2.174   5.140   3.868 -3.3811  1.0774  1.4252
 3781SOL    HW212243   2.216   5.233   3.995  0.9192 -1.2303  1.8798
 3782SOL     OW12244   2.104   0.306   3.295 -0.4234  0.1844  0.3027
 3782SOL    HW112245   2.154   0.346   3.219  0.4315 -1.5892 -0.1224
 3782SOL    HW212246   2.088   0.209   3.277 -0.5894 -0.1765  2.1956
 3783SOL     OW12247   5.629   2.729   0.673  0.2220 -0.0941 -0.0188
 3783SOL    HW112248   5.611   2.816   0.626 -2.1416 -0.3650  0.2746
 3783SOL    HW212249   5.621   2.741   0.771  1.3773 -0.3559  0.1256
 3784SOL     OW12250   6.085   4.138   5.413  0.1864  0.3111 -0.4373
 3784SOL    HW112251   6.068   4.185   5.326  2.1128  0.2500 -0.9032
 3784SOL    HW212252   6.006   4.083   5.438 -1.1239  1.7738 -1.1963
 3785SOL     OW12253   0.864   1.075   1.941 -0.6848 -0.1368 -0.6223
 3785SOL    HW112254   0.894   1.027   2.023 -0.4161 -1.9064 -1.7063
 3785SOL    HW212255   0.847   1.171   1.963  0.4687 -0.3077  1.2318
 3786SOL     OW12256   1.787   5.603   1.706  0.1583  0.6796  0.0525
 3786SOL    HW112257   1.804   5.541   1.782  0.2996  0.1050 -0.4428
 3786SOL    HW212258   1.874   5.640   1.672  0.6447 -2.5370 -2.7157
 3787SOL     OW12259   4.277   0.017   4.344 -0.0938  0.5476 -0.2479
 3787SOL    HW112260   4.220   0.044   4.266 -0.8301  0.6175  0.3028
 3787SOL    HW212261   4.306  -0.078   4.333 -0.1176  0.5846 -0.6497
 3788SOL     OW12262   1.917   4.242   4.306 -0.4560  0.1454 -0.2020
 3788SOL    HW112263   1.841   4.251   4.242 -1.3788 -0.9547  0.6983
 3788SOL    HW212264   1.909   4.156   4.356 -0.8714  1.8066  2.7934
 3789SOL     OW12265   3.655   6.007   3.499 -0.5201 -0.3316  0.5013
 3789SOL    HW112266   3.610   6.074   3.440 -0.0445  1.0494  1.6587
 3789SOL    HW212267   3.720   5.954   3.444 -2.0481 -0.9833 -0.7621
 3790SOL     OW12268   1.961   4.097   3.029 -0.1871  0.0795 -0.1940
 3790SOL    HW112269   1.920   4.124   2.942  0.1968  0.7818 -0.1676
 3790SOL    HW212270   2.059   4.117   3.027 -0.1507 -0.0272  0.3554
 3791SOL     OW12271   1.105   1.410   1.516  0.4890 -0.0129  0.7566
 3791SOL    HW112272   1.010   1.401   1.484  0.6897  0.2853  0.0687
 3791SOL    HW212273   1.105   1.422   1.615 -0.3342  1.9890  0.5633
 3792SOL     OW12274   2.596   6.043   0.492  0.0312  0.4349 -0.7501
 3792SOL    HW112275   2.502   6.014   0.512  0.1866 -0.4012 -1.1872
 3792SOL    HW212276   2.636   5.982   0.424  0.4838  1.5033 -1.4841
 3793SOL     OW12277   6.170   6.212   1.293  0.8212 -0.4909  0.2996
 3793SOL    HW112278   6.227   6.154   1.235 -0.1932 -2.9160  1.5754
 3793SOL    HW212279   6.074   6.187   1.282  0.4075  0.4729  1.4566
 3794SOL     OW12280   4.343   1.488   2.795 -0.1333 -0.4688  0.1596
 3794SOL    HW112281   4.273   1.559   2.800 -0.0042 -0.3993  1.2593
 3794SOL    HW212282   4.299   1.400   2.774 -0.3513 -0.1566 -0.7199
 3795SOL     OW12283   5.508   0.285   1.373  0.2617  0.2019  0.2932
 3795SOL    HW112284   5.413   0.277   1.403  0.2026  1.2847  0.4074
 3795SOL    HW212285   5.548   0.193   1.368 -1.1640 -0.3981 -1.0229
 3796SOL     OW12286   6.730   1.700   2.215  0.1296  0.1183 -0.1389
 3796SOL    HW112287   6.661   1.762   2.179  0.8789  0.4305 -1.0772
 3796SOL    HW212288   6.821   1.739   2.202  0.5686 -0.8143 -0.0082
 3797SOL     OW12289   6.120   5.584   1.735 -0.1840  0.1281  0.5205
 3797SOL    HW112290   6.174   5.660   1.769 -1.9234  2.2896 -1.2099
 3797SOL    HW212291   6.147   5.563   1.641 -1.6529  0.6185 -0.0413
 3798SOL     OW12292   1.373   4.328   1.129 -0.5666  0.5090  0.6059
 3798SOL    HW112293   1.444   4.284   1.075 -0.9854  0.8564 -0.2511
 3798SOL    HW212294   1.335   4.263   1.194 -0.3588 -0.0545  0.1689
 3799SOL     OW12295   1.553   0.965   6.321  0.1820 -0.1894 -0.0356
 3799SOL    HW112296   1.615   0.890   6.296  1.0712  0.5152 -0.0007
 3799SOL    HW212297   1.474   0.964   6.259 -0.5003 -1.9496  0.7884
 3800SOL     OW12298   5.691   3.175   4.971  0.5078 -0.2504  0.1004
 3800SOL    HW112299   5.649   3.084   4.969  0.7257 -0.3347 -1.0044
 3800SOL    HW212300   5.785   3.169   4.938  0.0754  0.5897 -1.3728
 3801SOL     OW12301   1.075   2.288   5.145  0.3649  0.0437  0.1622
 3801SOL    HW112302   1.128   2.263   5.226  1.1095  0.0874 -0.3013
 3801SOL    HW212303   1.117   2.366   5.100  1.4471 -1.5078 -1.6697
 3802SOL     OW12304   1.128   0.488   5.734  0.4358 -0.3878 -0.1721
 3802SOL    HW112305   1.214   0.512   5.779  0.1124  0.7885 -0.1500
 3802SOL    HW212306   1.083   0.572   5.701 -0.5573 -1.0129 -0.4466
 3803SOL     OW12307   3.997   1.432   1.097 -0.5264  0.4851  0.2975
 3803SOL    HW112308   3.930   1.444   1.171 -2.0267  1.8006 -1.1752
 3803SOL    HW212309   4.085   1.471   1.125 -1.2239  1.4908  1.1865
 3804SOL     OW12310   4.580   4.381   4.858  0.4499  0.1238  0.1720
 3804SOL    HW112311   4.622   4.356   4.945 -1.6592  0.9893  1.4983
 3804SOL    HW212312   4.506   4.445   4.873 -0.0072  0.2885 -2.2884
 3805SOL     OW12313   1.806   2.439   3.173 -0.1898 -0.5981 -0.1178
 3805SOL    HW112314   1.831   2.415   3.079  3.2996  0.8095  0.2734
 3805SOL    HW212315   1.785   2.536   3.178 -2.7604 -1.1214  0.2271
 3806SOL     OW12316   4.870   6.839   2.195  0.7052  0.1030  0.3306
 3806SOL    HW112317   4.911   6.779   2.264  4.4736  1.2269 -0.7043
 3806SOL    HW212318   4.917   6.927   2.194 -1.9191  1.6444 -1.0133
 3807SOL     OW12319   1.801   2.260   3.392  0.1148  0.3078 -1.2998
 3807SOL    HW112320   1.805   2.324   3.315  0.4951  1.4165 -0.3958
 3807SOL    HW212321   1.822   2.168   3.360 -0.5182  0.6103 -2.6556
 3808SOL     OW12322   3.469   6.923   0.710 -0.0027 -0.2419 -0.1545
 3808SOL    HW112323   3.391   6.914   0.771 -0.2318 -0.3819 -0.4665
 3808SOL    HW212324   3.504   7.016   0.714 -0.3916 -0.0909 -0.2667
 3809SOL     OW12325   5.652   6.336   6.550 -0.1091 -0.1891  0.5538
 3809SOL    HW112326   5.580   6.358   6.485  0.4416  0.9750  0.3143
 3809SOL    HW212327   5.611   6.315   6.639 -0.7022  1.9144  0.8267
 3810SOL     OW12328   6.830   1.620   6.841 -0.2715  0.5787 -0.4600
 3810SOL    HW112329   6.757   1.669   6.889 -0.6216  0.0772 -0.4672
 3810SOL    HW212330   6.888   1.574   6.908 -2.6647 -2.8901 -0.4493
 3811SOL     OW12331   6.352   2.073   0.767 -0.4906 -0.5831 -0.7696
 3811SOL    HW112332   6.264   2.030   0.788 -1.4062  1.8139  0.7375
 3811SOL    HW212333   6.414   2.062   0.844  0.0511 -1.0585 -1.2655
 3812SOL     OW12334   3.488   0.235   4.503  0.0711  0.2984 -0.1011
 3812SOL    HW112335   3.408   0.287   4.533 -0.7221 -1.1250  0.3759
 3812SOL    HW212336   3.524   0.182   4.581 -0.3515 -1.3653 -0.9952
 3813SOL     OW12337   3.443   5.143   0.233 -0.4094 -0.2221 -0.4241
 3813SOL    HW112338   3.504   5.188   0.298 -1.4816  0.9223 -0.1674
 3813SOL    HW212339   3.482   5.055   0.206  0.3545 -0.4336  1.2696
 3814SOL     OW12340   2.291   6.823   2.402 -0.3043 -0.0260 -0.1298
 3814SOL    HW112341   2.323   6.870   2.320 -0.0298 -0.3538 -0.2163
 3814SOL    HW212342   2.193   6.805   2.395 -0.5215  1.0240  0.1532
 3815SOL     OW12343   4.193   1.226   3.344  0.2078  0.4724  0.1343
 3815SOL    HW112344   4.151   1.316   3.351  0.9787  0.8456  0.0710
 3815SOL    HW212345   4.277   1.224   3.398  0.7659  0.1427 -0.7167
 3816SOL     OW12346   2.100   6.152   2.666  0.3857  0.7341  0.1205
 3816SOL    HW112347   2.050   6.234   2.641 -0.5298  0.6878  1.6321
 3816SOL    HW212348   2.063   6.116   2.752 -0.6683 -2.4506 -1.5176
 3817SOL     OW12349   3.947   0.962   5.018 -0.5476  0.3431  0.6442
 3817SOL    HW112350   3.916   0.875   4.980  0.6283  1.1250 -2.4235
 3817SOL    HW212351   3.876   1.000   5.077 -1.6531 -2.0076  0.9323
 3818SOL     OW12352   4.508   0.134   2.726  0.0809  0.1097 -0.4714
 3818SOL    HW112353   4.604   0.131   2.753  0.2514  2.5999 -0.5856
 3818SOL    HW212354   4.458   0.197   2.785 -1.4998 -1.0878 -0.4657
 3819SOL     OW12355   6.728   2.552   0.965 -0.2251  0.6495  0.2584
 3819SOL    HW112356   6.775   2.513   0.886  0.0386 -1.7118  1.4804
 3819SOL    HW212357   6.790   2.614   1.014  0.6773 -0.2821  0.3231
 3820SOL     OW12358   5.169   5.199   3.513  0.1986  0.4578 -0.1017
 3820SOL    HW112359   5.237   5.135   3.548 -0.6485  0.3398  1.4043
 3820SOL    HW212360   5.184   5.289   3.554 -1.6621 -0.0164  1.7924
 3821SOL     OW12361   0.554   3.626   2.136 -0.3552  0.3388 -0.5490
 3821SOL    HW112362   0.523   3.558   2.203  0.2501  1.7990  1.2845
 3821SOL    HW212363   0.645   3.601   2.103  0.1182  0.5331  0.5602
 3822SOL     OW12364   1.013   3.609   4.409  0.3976 -0.5425  0.4209
 3822SOL    HW112365   1.099   3.616   4.359  1.0145 -0.6876  1.4483
 3822SOL    HW212366   0.955   3.540   4.366  0.8836 -0.6130 -0.1343
 3823SOL     OW12367   0.084   3.704   5.843 -0.5341  0.2399  1.1070
 3823SOL    HW112368   0.066   3.795   5.806  1.6638  0.7395  1.1215
 3823SOL    HW212369   0.068   3.704   5.942  0.2621  0.8630  1.2438
 3824SOL     OW12370   6.135   2.680   0.726 -0.0019 -0.1555 -0.0072
 3824SOL    HW112371   6.070   2.736   0.675  0.6272  0.7228  0.1255
 3824SOL    HW212372   6.219   2.732   0.741  0.2852 -0.8385  0.8581
 3825SOL     OW12373   0.801   6.662   1.020  0.1451  0.0011 -0.4764
 3825SOL    HW112374   0.854   6.599   0.963 -0.9777 -1.1120 -0.3482
 3825SOL    HW212375   0.809   6.636   1.116  1.3998  1.3992 -0.1620
 3826SOL     OW12376   5.732   1.600   1.562  0.0968  0.3580 -0.1740
 3826SOL    HW112377   5.788   1.662   1.508  1.7329 -1.1204 -0.2654
 3826SOL    HW212378   5.734   1.628   1.659  3.3588 -1.1619  0.3333
 3827SOL     OW12379   4.280   0.095   1.099  0.4409  0.2288 -0.0100
 3827SOL    HW112380   4.264   0.163   1.028 -1.1563  0.8241  0.8783
 3827SOL    HW212381   4.288   0.140   1.188 -0.4235 -0.7099  0.5667
 3828SOL     OW12382   3.383   2.079   1.634 -0.1410 -0.8105  0.1598
 3828SOL    HW112383   3.376   2.169   1.591 -0.6175 -1.2250 -0.6593
 3828SOL    HW212384   3.319   2.016   1.590  0.0656 -1.5111  0.8341
 3829SOL     OW12385   2.150   3.981   4.313  0.2774  0.0661 -0.5289
 3829SOL    HW112386   2.054   3.994   4.288  0.8141  0.0009 -2.8816
 3829SOL    HW212387   2.180   4.056   4.372 -1.5319 -0.6357  1.4165
 3830SOL     OW12388   1.167   0.991   0.357  0.5509  0.3399  0.3383
 3830SOL    HW112389   1.197   1.036   0.441  2.2063  0.4271 -0.2643
 3830SOL    HW212390   1.176   1.054   0.280 -1.3179  0.3888  0.1099
 3831SOL     OW12391   4.311   2.083   0.939 -0.0551 -0.3670 -0.4753
 3831SOL    HW112392   4.345   2.005   0.887 -2.3021  0.7868 -4.0338
 3831SOL    HW212393   4.213   2.072   0.958  0.1734  0.3922  1.4806
 3832SOL     OW12394   0.575   0.809   2.024 -0.2501 -0.3494 -0.1685
 3832SOL    HW112395   0.528   0.774   2.105  0.6687 -3.2231 -0.7833
 3832SOL    HW212396   0.525   0.782   1.942  0.9058 -0.9167 -0.7039
 3833SOL     OW12397   1.326   0.157   1.122 -0.1055  0.9299 -0.0510
 3833SOL    HW112398   1.383   0.097   1.065  0.6144  0.5808  0.9861
 3833SOL    HW212399   1.261   0.206   1.065  0.7448  0.7788 -1.1957
 3834SOL     OW12400   3.177   1.906   6.478 -0.1643 -0.0194 -0.3965
 3834SOL    HW112401   3.104   1.856   6.526  0.0404  0.6641  0.6518
 3834SOL    HW212402   3.137   1.980   6.425 -0.3749 -0.6635 -1.1582
 3835SOL     OW12403   3.547   4.977   3.611  0.5144 -0.4709 -0.1299
 3835SOL    HW112404   3.559   4.967   3.710 -0.3069  0.5493  0.0967
 3835SOL    HW212405   3.469   4.921   3.582 -1.5881  1.9231  0.4733
 3836SOL     OW12406   2.320   1.269   0.038  0.2169  0.2962  0.3320
 3836SOL    HW112407   2.270   1.354   0.049 -0.6683 -0.3014  1.0652
 3836SOL    HW212408   2.268   1.207  -0.021  0.2465 -0.2111  0.8328
 3837SOL     OW12409   3.291   4.953   6.031 -0.2223  0.3966 -0.0411
 3837SOL    HW112410   3.387   4.935   6.010 -0.7645 -1.8022 -0.8469
 3837SOL    HW212411   3.285   5.012   6.111  1.7910 -0.3410  0.7040
 3838SOL     OW12412   5.834   3.058   5.675 -0.9041 -0.7222 -0.0856
 3838SOL    HW112413   5.802   3.015   5.591  0.7889  0.2944 -1.3099
 3838SOL    HW212414   5.833   3.157   5.664  0.0716 -0.5977  0.7959
 3839SOL     OW12415   5.300   5.295   0.109  0.1431 -0.2509 -0.5721
 3839SOL    HW112416   5.293   5.322   0.013  0.2585  1.7820 -0.0541
 3839SOL    HW212417   5.397   5.288   0.135  0.1831  1.7176 -0.0075
 3840SOL     OW12418   4.165   0.717   3.473  0.3858  0.1600  0.2442
 3840SOL    HW112419   4.160   0.814   3.495 -0.4249  0.5186 -1.3713
 3840SOL    HW212420   4.182   0.705   3.376 -1.1338 -1.2898  0.0983
 3841SOL     OW12421   6.810   3.257   4.573  0.3435  0.3748  0.7195
 3841SOL    HW112422   6.730   3.297   4.619 -2.1422 -1.4684 -1.6342
 3841SOL    HW212423   6.820   3.300   4.483  0.6084 -0.9381  0.1036
 3842SOL     OW12424   2.368   4.482   5.890  0.4283  0.3113  0.3533
 3842SOL    HW112425   2.453   4.446   5.853 -0.8174 -0.3729 -1.9902
 3842SOL    HW212426   2.299   4.411   5.892 -0.7427  1.4020  0.0793
 3843SOL     OW12427   6.851   3.534   6.508  0.2953 -0.5653  0.6518
 3843SOL    HW112428   6.806   3.499   6.426 -0.8203  0.0624  0.9707
 3843SOL    HW212429   6.878   3.629   6.494  0.6956 -0.6585  0.7837
 3844SOL     OW12430   3.482   3.682   5.426 -0.8454 -0.2245 -0.3932
 3844SOL    HW112431   3.401   3.624   5.435 -2.0074  1.3226 -0.3926
 3844SOL    HW212432   3.464   3.753   5.358  0.8581 -0.3745 -1.0306
 3845SOL     OW12433   2.982   5.371   5.513 -0.3940 -0.4291  0.5602
 3845SOL    HW112434   3.025   5.335   5.596 -0.4419 -1.4540  0.1577
 3845SOL    HW212435   2.971   5.297   5.447  0.6115  0.5713 -0.7795
 3846SOL     OW12436   5.618   3.841   2.329 -0.2443 -0.2594  0.0196
 3846SOL    HW112437   5.597   3.938   2.343 -2.3661 -0.6895  0.1348
 3846SOL    HW212438   5.550   3.801   2.267 -0.8845 -2.2339  1.9026
 3847SOL     OW12439   6.992   0.676   2.443  0.4595  0.2719 -0.0707
 3847SOL    HW112440   6.907   0.685   2.392 -0.8933  0.2383  2.0689
 3847SOL    HW212441   7.034   0.766   2.455 -0.8086  0.7210  1.2932
 3848SOL     OW12442   1.812   5.589   4.077  0.3496  0.1457 -0.0831
 3848SOL    HW112443   1.831   5.531   4.157 -0.6014 -0.0588  0.0102
 3848SOL    HW212444   1.804   5.531   3.996 -0.3494  0.1715 -0.0335
 3849SOL     OW12445   2.339   0.727   4.986  0.0715 -0.0420  0.4515
 3849SOL    HW112446   2.406   0.661   5.020 -1.8937 -2.2206  0.3431
 3849SOL    HW212447   2.247   0.690   4.999 -1.0107  1.4303 -2.2336
 3850SOL     OW12448   1.649   3.835   1.906 -0.5144  0.2021 -0.1873
 3850SOL    HW112449   1.562   3.786   1.912 -0.6983  0.5418 -0.0198
 3850SOL    HW212450   1.673   3.871   1.996 -0.3914  0.4308 -0.3106
 3851SOL     OW12451   3.057   3.016   0.327  0.3345 -0.1714 -0.4538
 3851SOL    HW112452   3.100   2.993   0.414 -1.3595  1.3157  0.8383
 3851SOL    HW212453   3.020   2.932   0.286 -1.2197 -0.5915  1.6213
 3852SOL     OW12454   2.639   6.252   5.294 -0.0839  0.1501 -0.5022
 3852SOL    HW112455   2.601   6.223   5.206 -0.5962  0.7123 -0.4726
 3852SOL    HW212456   2.732   6.285   5.281 -0.8120  2.1189 -1.2105
 3853SOL     OW12457   0.397   4.021   1.421  0.1425 -0.2681 -0.6614
 3853SOL    HW112458   0.306   4.032   1.382 -0.6115  2.4865  1.5677
 3853SOL    HW212459   0.392   3.961   1.501  0.2167  0.1160 -0.3666
 3854SOL     OW12460   2.124   2.258   4.600  0.7962  0.0586 -0.4107
 3854SOL    HW112461   2.149   2.251   4.504 -0.6198 -0.8360 -0.7401
 3854SOL    HW212462   2.026   2.275   4.608  0.5549 -1.6932  0.9034
 3855SOL     OW12463   6.731   1.134   5.316  0.1687  0.3695  0.2497
 3855SOL    HW112464   6.798   1.186   5.263 -0.0152 -0.1040 -0.4654
 3855SOL    HW212465   6.768   1.042   5.334 -0.5635 -0.1493 -0.7819
 3856SOL     OW12466   2.460   6.869   6.295 -0.1143  0.1427  0.1551
 3856SOL    HW112467   2.558   6.881   6.307  0.0005  0.2197 -0.7598
 3856SOL    HW212468   2.413   6.956   6.313  0.1543  0.5371 -0.9370
 3857SOL     OW12469   0.151   2.747   1.640 -0.0439  0.1705  0.0701
 3857SOL    HW112470   0.176   2.817   1.706 -1.5585 -0.2057  1.0993
 3857SOL    HW212471   0.060   2.767   1.602 -0.1504 -0.7920 -0.2224
 3858SOL     OW12472   1.943   4.052   6.604  0.1216 -0.0933 -0.1343
 3858SOL    HW112473   2.043   4.060   6.611  0.2602  0.1738 -1.9440
 3858SOL    HW212474   1.902   4.142   6.619  0.1998 -0.0839  0.0249
 3859SOL     OW12475   0.784   2.212   1.301  0.3291 -0.5364  0.4477
 3859SOL    HW112476   0.793   2.162   1.387  0.9884 -0.1498  0.6081
 3859SOL    HW212477   0.763   2.308   1.320 -0.4674 -0.6448  0.1498
 3860SOL     OW12478   2.211   5.895   4.665 -0.0268 -0.1491  0.3873
 3860SOL    HW112479   2.290   5.844   4.699  0.2577  0.8887  1.3574
 3860SOL    HW212480   2.145   5.832   4.625  0.7075 -1.1747  0.7555
 3861SOL     OW12481   3.907   4.714   6.032 -0.0790  0.2526  0.2369
 3861SOL    HW112482   3.857   4.628   6.028  0.9954 -0.3522 -1.9538
 3861SOL    HW212483   3.969   4.714   6.110  2.5886 -2.6224 -1.6449
 3862SOL     OW12484   0.198   0.278   6.385 -0.4366  0.5591 -0.0903
 3862SOL    HW112485   0.169   0.222   6.462  0.2163 -0.1202 -0.3237
 3862SOL    HW212486   0.284   0.323   6.406  0.2377 -0.3793 -0.7480
 3863SOL     OW12487   2.194   3.545   1.140 -0.8907 -0.1444  0.5137
 3863SOL    HW112488   2.240   3.488   1.208 -1.1652  0.9887  1.6863
 3863SOL    HW212489   2.261   3.581   1.076 -0.3987  0.0174  1.1079
 3864SOL     OW12490   1.963   1.253   1.422  0.0673  0.1755 -0.4443
 3864SOL    HW112491   1.968   1.154   1.438  0.0323  0.3193  0.4989
 3864SOL    HW212492   1.884   1.274   1.364 -0.1013 -0.3181 -0.3933
 3865SOL     OW12493   5.304   2.820   1.488  0.3379 -0.6095 -0.3396
 3865SOL    HW112494   5.246   2.884   1.438  1.0355  1.3828  1.2683
 3865SOL    HW212495   5.247   2.765   1.549 -0.1292 -0.6324 -0.7877
 3866SOL     OW12496   4.432   5.020   5.492  0.4280  0.3150  0.1540
 3866SOL    HW112497   4.365   4.984   5.558 -0.4433  0.0999 -0.8273
 3866SOL    HW212498   4.405   4.995   5.400  1.3083  1.1333 -0.3456
 3867SOL     OW12499   1.089   6.881   4.005  0.1010 -0.1207  0.5327
 3867SOL    HW112500   1.189   6.871   4.007  0.2771  1.3265  0.2450
 3867SOL    HW212501   1.050   6.846   4.090  1.0400  0.8889  1.3998
 3868SOL     OW12502   1.445   5.006   2.455  0.1005 -0.3465 -0.5993
 3868SOL    HW112503   1.456   5.031   2.359  0.4989 -1.3496 -0.8244
 3868SOL    HW212504   1.363   4.949   2.465 -0.9734  1.2179 -0.0453
 3869SOL     OW12505   1.113   3.108   2.685 -0.4219 -0.3683  0.3092
 3869SOL    HW112506   1.129   3.190   2.739 -0.1559  0.3323 -0.7951
 3869SOL    HW212507   1.019   3.108   2.652 -0.2154 -0.1171 -0.2999
 3870SOL     OW12508   5.340   0.428   0.719 -0.0758 -0.1944 -0.0759
 3870SOL    HW112509   5.340   0.330   0.740 -1.0304 -0.8585 -2.7428
 3870SOL    HW212510   5.434   0.458   0.701  0.3329 -0.3481  1.5896
 3871SOL     OW12511   2.071   6.705   4.800  0.1565  0.0780 -0.0552
 3871SOL    HW112512   2.023   6.643   4.739  0.8035  0.0017 -0.4965
 3871SOL    HW212513   2.170   6.693   4.789  0.2908  1.0455 -0.0096
 3872SOL     OW12514   4.041   3.883   0.305  0.0716  0.1603 -0.3234
 3872SOL    HW112515   3.952   3.841   0.318  0.2080 -0.1631 -0.4423
 3872SOL    HW212516   4.107   3.844   0.369 -0.0028  0.7940  0.1461
 3873SOL     OW12517   5.398   6.720   2.621  0.1652  0.2290 -0.2781
 3873SOL    HW112518   5.342   6.788   2.670  0.0727 -0.1531  0.1496
 3873SOL    HW212519   5.481   6.701   2.673 -0.9763 -1.8576  0.9073
 3874SOL     OW12520   5.113   6.186   6.057  0.1171 -0.1508  0.1631
 3874SOL    HW112521   5.024   6.164   6.017  0.8209 -1.2739 -0.8593
 3874SOL    HW212522   5.152   6.265   6.011  0.5405 -0.9119 -0.8161
 3875SOL     OW12523   5.023   3.631   0.100 -0.4867  0.5229 -0.1009
 3875SOL    HW112524   5.091   3.674   0.041 -0.6773 -1.0999 -1.5667
 3875SOL    HW212525   4.951   3.589   0.045  0.6529 -3.3424  1.0050
 3876SOL     OW12526   4.723   3.488   1.805  0.3308  0.1989  0.0989
 3876SOL    HW112527   4.796   3.424   1.827 -0.1241 -0.2790  0.2383
 3876SOL    HW212528   4.762   3.578   1.786  0.9571 -0.0668  0.1060
 3877SOL     OW12529   4.378   3.408   0.809  0.0042  0.0361 -0.2244
 3877SOL    HW112530   4.282   3.434   0.816 -0.0855 -0.5818  1.1287
 3877SOL    HW212531   4.390   3.316   0.845  1.1151  0.1230 -0.3448
 3878SOL     OW12532   6.349   5.783   4.822 -0.1864 -0.3249 -0.4062
 3878SOL    HW112533   6.332   5.881   4.834 -1.3909 -0.0713 -3.2167
 3878SOL    HW212534   6.264   5.738   4.797  0.3683 -2.1153  0.7966
 3879SOL     OW12535   2.651   0.207   1.571  0.8922  0.3132  0.1822
 3879SOL    HW112536   2.581   0.245   1.510 -0.3654 -0.3861  1.1369
 3879SOL    HW212537   2.717   0.279   1.594 -0.1246  1.3050  0.1287
 3880SOL     OW12538   5.114   2.197   5.279 -0.2757  0.0655 -0.0645
 3880SOL    HW112539   5.093   2.270   5.214 -0.0831 -0.7515 -1.0827
 3880SOL    HW212540   5.039   2.130   5.277  0.9974 -1.3855 -1.5472
 3881SOL     OW12541   6.525   6.665   6.862 -0.5834  0.2262 -0.1912
 3881SOL    HW112542   6.544   6.747   6.916 -2.1249  0.1408  0.5405
 3881SOL    HW212543   6.572   6.587   6.902 -1.0991  0.3086  0.5994
 3882SOL     OW12544   5.503   5.911   6.459 -0.0701 -0.2442 -0.2946
 3882SOL    HW112545   5.519   5.939   6.365 -0.7749  0.2569 -0.2758
 3882SOL    HW212546   5.537   5.818   6.473  2.2587  0.5268 -0.3917
 3883SOL     OW12547   4.013   2.596   5.838  0.7553  0.3931 -0.9420
 3883SOL    HW112548   4.097   2.634   5.875 -0.2778  1.0985  0.7642
 3883SOL    HW212549   3.997   2.634   5.746  1.1664  1.9597 -0.3920
 3884SOL     OW12550   2.946   0.230   4.624  0.5905  0.4628 -0.0561
 3884SOL    HW112551   3.018   0.273   4.570  1.0994 -0.0464  0.2100
 3884SOL    HW212552   2.975   0.139   4.652 -0.0623  0.3440  0.2608
 3885SOL     OW12553   0.211   0.303   4.015  0.1170  0.5333 -0.4074
 3885SOL    HW112554   0.188   0.210   3.987 -0.2688 -0.4699  2.8329
 3885SOL    HW212555   0.311   0.311   4.024  0.1013 -0.0226  0.4841
 3886SOL     OW12556   1.675   4.065   3.934 -0.3824  0.0523 -0.4326
 3886SOL    HW112557   1.583   4.081   3.899  0.2525  0.7050 -1.8936
 3886SOL    HW212558   1.708   4.148   3.981 -0.1508  0.2113 -0.8645
 3887SOL     OW12559   1.116   2.912   5.033  0.4853 -0.1657  0.5624
 3887SOL    HW112560   1.136   2.921   5.131 -0.7604  0.7099  0.7616
 3887SOL    HW212561   1.017   2.911   5.020  0.5843  2.1525 -0.8814
 3888SOL     OW12562   2.011   1.466   1.680  0.6789 -0.0796 -0.1551
 3888SOL    HW112563   2.069   1.392   1.714  2.8923  0.7293 -1.9538
 3888SOL    HW212564   1.947   1.431   1.612  0.9056 -0.5265 -0.1396
 3889SOL     OW12565   0.581   4.266   6.411  0.9907 -0.6358 -0.4410
 3889SOL    HW112566   0.607   4.177   6.449 -0.0301 -0.8901 -0.2978
 3889SOL    HW212567   0.501   4.254   6.352 -0.3371  0.4371  1.0483
 3890SOL     OW12568   3.990   1.920   3.172  0.1236  0.2764  0.3018
 3890SOL    HW112569   3.966   2.011   3.140 -3.2060 -0.0239  1.5529
 3890SOL    HW212570   4.052   1.927   3.250  1.6718  1.3064 -0.9609
 3891SOL     OW12571   3.403   3.410   5.887  0.4872  0.3137 -0.0971
 3891SOL    HW112572   3.461   3.381   5.811  0.2712 -0.3380 -0.0180
 3891SOL    HW212573   3.425   3.505   5.912 -0.7541  1.2486 -2.2559
 3892SOL     OW12574   5.591   5.884   2.250 -0.0640  0.1929 -0.0492
 3892SOL    HW112575   5.640   5.823   2.187 -0.3186  1.1590 -1.2206
 3892SOL    HW212576   5.654   5.916   2.321  0.7654  0.6000 -0.9411
 3893SOL     OW12577   2.125   6.135   5.260 -0.1206 -0.6670 -0.3732
 3893SOL    HW112578   2.191   6.073   5.302 -1.9019 -2.2902  0.1498
 3893SOL    HW212579   2.115   6.217   5.317 -0.2328 -1.4512  0.7734
 3894SOL     OW12580   6.353   4.165   3.723  0.0581 -0.2710  0.1757
 3894SOL    HW112581   6.448   4.191   3.744 -0.6025  0.3920  2.7914
 3894SOL    HW212582   6.317   4.107   3.796 -1.9200  0.4755 -0.1346
 3895SOL     OW12583   1.616   1.700   5.630  0.2792  0.3118  0.0385
 3895SOL    HW112584   1.694   1.660   5.679  0.3741  2.1423  1.4991
 3895SOL    HW212585   1.551   1.628   5.606  1.7504 -1.0717 -0.0028
 3896SOL     OW12586   6.044   1.517   0.844  0.0214  0.2422 -0.6299
 3896SOL    HW112587   6.059   1.487   0.750 -0.8965  1.1110 -1.0788
 3896SOL    HW212588   5.949   1.546   0.855 -0.0118 -0.2758  0.6998
 3897SOL     OW12589   2.212   0.358   2.342  0.2312 -0.3602 -0.2939
 3897SOL    HW112590   2.164   0.296   2.281 -2.5578  0.1844  1.1890
 3897SOL    HW212591   2.196   0.453   2.313 -1.6032 -0.0641  1.4838
 3898SOL     OW12592   3.676   3.182   1.915  0.9099 -0.1084  0.2343
 3898SOL    HW112593   3.674   3.131   1.828  0.2575  0.2742  0.0243
 3898SOL    HW212594   3.711   3.122   1.987  1.5431 -0.4067 -0.3005
 3899SOL     OW12595   6.825   0.831   0.715 -0.1092  0.2345  0.1115
 3899SOL    HW112596   6.829   0.876   0.625 -1.4863  0.2000  0.0140
 3899SOL    HW212597   6.774   0.888   0.779 -2.7595 -1.5422 -0.2720
 3900SOL     OW12598   0.872   1.836   3.468  0.2903  0.2386  0.2322
 3900SOL    HW112599   0.802   1.768   3.487 -0.1482  0.0659 -1.7956
 3900SOL    HW212600   0.847   1.923   3.511 -0.6355 -0.0901  0.3783
 3901SOL     OW12601   5.072   6.676   3.893  0.2431 -0.0490  0.1926
 3901SOL    HW112602   5.069   6.646   3.797 -0.5189  1.0791 -0.1644
 3901SOL    HW212603   5.152   6.735   3.906  0.3738 -0.2414  0.2691
 3902SOL     OW12604   4.630   5.205   5.894 -0.1397  0.1675  0.0436
 3902SOL    HW112605   4.617   5.225   5.797  0.6336  0.4564 -0.0130
 3902SOL    HW212606   4.554   5.151   5.928 -0.1515 -0.4020 -0.8595
 3903SOL     OW12607   4.460   3.765   5.559  0.1452  0.1010  0.0491
 3903SOL    HW112608   4.505   3.677   5.571  0.2462  0.0336 -0.7494
 3903SOL    HW212609   4.440   3.806   5.648  2.3221  0.4067  0.4484
 3904SOL     OW12610   3.153   4.271   0.005 -0.0128  0.8857 -0.1517
 3904SOL    HW112611   3.125   4.364   0.029  0.0945  0.5687  1.3480
 3904SOL    HW212612   3.151   4.214   0.088  0.3860 -0.3238 -0.9525
 3905SOL     OW12613   4.981   4.980   4.888  0.3515 -0.1972  0.3473
 3905SOL    HW112614   5.041   4.945   4.959  0.5373 -0.3596  0.1116
 3905SOL    HW212615   4.888   4.989   4.924  0.6474  0.6776  0.9043
 3906SOL     OW12616   6.779   0.318   3.888  0.1172 -0.0841  0.0559
 3906SOL    HW112617   6.756   0.374   3.808 -0.2415  0.1228  0.3003
 3906SOL    HW212618   6.696   0.295   3.937  0.0682 -2.1866 -0.9014
 3907SOL     OW12619   2.902   0.057   3.782 -0.2092 -0.7039  0.3302
 3907SOL    HW112620   2.851   0.007   3.712  0.5492 -0.3630 -0.4765
 3907SOL    HW212621   2.860   0.147   3.796 -0.7618 -1.0306  0.8062
 3908SOL     OW12622   1.470   2.112   5.049 -0.5069  0.0943  0.0784
 3908SOL    HW112623   1.554   2.064   5.021  0.2790  0.9081  0.9832
 3908SOL    HW212624   1.400   2.045   5.073  0.1499 -0.5971  0.1072
 3909SOL     OW12625   5.385   2.860   2.305  0.5398 -0.3542  0.6115
 3909SOL    HW112626   5.322   2.793   2.344  0.2419 -0.8249 -0.6445
 3909SOL    HW212627   5.386   2.942   2.363 -0.6723 -0.6189  1.0353
 3910SOL     OW12628   1.482   2.674   2.432  0.0850 -0.1484  0.0354
 3910SOL    HW112629   1.419   2.732   2.483  0.9706 -0.2742  1.3159
 3910SOL    HW212630   1.523   2.607   2.493  2.4229  0.7622 -0.4121
 3911SOL     OW12631   6.242   1.575   2.354  0.1404  0.7254 -0.0695
 3911SOL    HW112632   6.335   1.611   2.352 -0.4433  2.2880 -0.6510
 3911SOL    HW212633   6.205   1.583   2.447  0.3365  0.8009  0.0012
 3912SOL     OW12634   5.397   3.640   0.435  0.0421 -0.2590 -0.2724
 3912SOL    HW112635   5.335   3.589   0.494  0.3255 -0.6444 -0.3049
 3912SOL    HW212636   5.451   3.705   0.490  0.5760 -0.8842 -0.0468
 3913SOL     OW12637   4.111   6.057   0.646 -0.7406 -0.1480  0.2522
 3913SOL    HW112638   4.126   5.989   0.718 -0.0426  0.4156  0.6400
 3913SOL    HW212639   4.196   6.106   0.628 -1.0731  0.1565 -0.5083
 3914SOL     OW12640   0.226   1.477   0.395  0.2505 -0.1170  0.3147
 3914SOL    HW112641   0.285   1.556   0.379  0.4185 -0.2633  0.2130
 3914SOL    HW212642   0.241   1.408   0.324  0.3712 -0.3967  0.6073
 3915SOL     OW12643   4.827   5.615   3.932  0.0724  0.1350  0.0137
 3915SOL    HW112644   4.807   5.563   4.015  0.7417 -0.6917 -0.3231
 3915SOL    HW212645   4.811   5.712   3.949 -2.0146 -0.2234  0.4082
 3916SOL     OW12646   1.723   2.113   2.046  0.8573 -0.0654 -0.2169
 3916SOL    HW112647   1.799   2.154   2.097 -0.3904  0.7279  1.0980
 3916SOL    HW212648   1.646   2.097   2.109  0.0485 -1.1724 -1.4349
 3917SOL     OW12649   2.209   3.928   2.240  0.1787  0.3108 -0.1213
 3917SOL    HW112650   2.282   3.861   2.229  0.0505  0.0353  0.6473
 3917SOL    HW212651   2.121   3.884   2.221  0.1325  0.3701 -0.0449
 3918SOL     OW12652   3.092   1.560   5.763 -0.6146 -0.1651  0.3560
 3918SOL    HW112653   3.123   1.631   5.700  1.7293 -1.5558 -0.1794
 3918SOL    HW212654   3.086   1.598   5.855 -1.0666  1.1091 -0.1696
 3919SOL     OW12655   5.405   4.413   4.020 -0.4443  0.0102 -0.0067
 3919SOL    HW112656   5.360   4.494   3.982 -0.5766 -0.5606 -1.1214
 3919SOL    HW212657   5.481   4.441   4.078  0.0313  0.9255 -1.0439
 3920SOL     OW12658   3.710   6.837   5.356  0.8439 -0.5438  0.1374
 3920SOL    HW112659   3.759   6.921   5.331  1.0620 -1.3604 -2.4856
 3920SOL    HW212660   3.613   6.858   5.371  1.0317  0.2861  0.2516
 3921SOL     OW12661   0.078   4.461   5.540  0.6857 -0.4566 -0.1131
 3921SOL    HW112662   0.041   4.411   5.618  1.8513 -0.7280  0.2848
 3921SOL    HW212663   0.032   4.432   5.457 -2.2500  1.5069  0.6789
 3922SOL     OW12664   4.628   0.575   4.860  0.7158 -0.3801  0.0649
 3922SOL    HW112665   4.629   0.644   4.932  0.5092 -1.8366  1.5449
 3922SOL    HW212666   4.539   0.529   4.860  0.6494 -0.2785 -1.2622
 3923SOL     OW12667   6.200   0.504   0.840  0.2594 -0.2341  0.7015
 3923SOL    HW112668   6.122   0.523   0.900  0.9915  0.1605  1.5473
 3923SOL    HW212669   6.179   0.424   0.783 -0.5748 -0.4363  1.2708
 3924SOL     OW12670   5.960   6.303   3.800  0.2510  0.8459  0.3218
 3924SOL    HW112671   5.902   6.361   3.742  0.1245  0.6571  0.2575
 3924SOL    HW212672   5.932   6.312   3.895 -1.4399 -1.0017  0.0611
 3925SOL     OW12673   3.730   4.689   1.628  0.2399  0.0775  0.8727
 3925SOL    HW112674   3.663   4.734   1.687  0.8793 -0.2978  1.9076
 3925SOL    HW212675   3.818   4.736   1.636 -0.2026  1.5431 -1.6547
 3926SOL     OW12676   5.557   0.556   5.204 -0.4562  0.3527 -0.0396
 3926SOL    HW112677   5.516   0.470   5.173 -0.2869 -0.5435  2.0425
 3926SOL    HW212678   5.495   0.632   5.184 -1.1183 -0.3937 -0.8947
 3927SOL     OW12679   0.462   5.515   3.059  0.8671 -0.5649  0.0413
 3927SOL    HW112680   0.423   5.424   3.041 -1.0876  0.3825 -0.7951
 3927SOL    HW212681   0.525   5.509   3.136  0.5998 -2.5912  0.1687
 3928SOL     OW12682   5.063   4.953   0.931  0.5019 -0.2114  0.7693
 3928SOL    HW112683   5.015   4.865   0.938 -0.2365 -0.1491 -2.2892
 3928SOL    HW212684   4.996   5.027   0.932  0.7088  0.0316 -0.7256
 3929SOL     OW12685   2.979   1.166   4.392  0.0677 -0.8441  0.8871
 3929SOL    HW112686   2.950   1.100   4.322 -0.1011  0.2343 -0.1042
 3929SOL    HW212687   3.071   1.143   4.423  0.8542 -0.3818 -0.9661
 3930SOL     OW12688   1.763   6.537   3.538  0.5887  0.0993  0.1916
 3930SOL    HW112689   1.720   6.456   3.499 -0.2854 -0.7074  2.6695
 3930SOL    HW212690   1.701   6.615   3.531  1.4256  0.6428 -2.1843
 3931SOL     OW12691   0.721   2.345   0.312 -0.1237 -0.2127  0.3120
 3931SOL    HW112692   0.795   2.279   0.296  1.0788  1.4127 -1.1535
 3931SOL    HW212693   0.725   2.377   0.407  0.1150 -1.2154  0.6575
 3932SOL     OW12694   2.149   6.218   3.943 -0.1911 -0.2543 -0.6177
 3932SOL    HW112695   2.058   6.199   3.906 -1.1262  1.0885  0.8901
 3932SOL    HW212696   2.194   6.132   3.966 -2.3303 -0.9091  1.4968
 3933SOL     OW12697   6.391   6.989   2.453  0.0983 -0.1613 -0.1178
 3933SOL    HW112698   6.319   6.928   2.419  0.6003  0.1323 -1.7898
 3933SOL    HW212699   6.349   7.067   2.499 -0.7228  0.3054 -1.5802
 3934SOL     OW12700   0.562   0.525   1.317 -0.0234  0.3210  0.1311
 3934SOL    HW112701   0.659   0.508   1.335  0.1348 -1.4703 -1.9643
 3934SOL    HW212702   0.511   0.440   1.326 -1.3722  1.1795  0.8821
 3935SOL     OW12703   5.878   3.220   6.492  0.0821  0.0677 -0.2453
 3935SOL    HW112704   5.847   3.180   6.578 -1.4479 -0.0573 -0.8352
 3935SOL    HW212705   5.860   3.319   6.492 -1.8487 -0.2379 -1.1931
 3936SOL     OW12706   0.303   3.842   3.823  0.1898  0.0194  0.5523
 3936SOL    HW112707   0.329   3.938   3.826 -0.6345  0.2581  0.3129
 3936SOL    HW212708   0.384   3.785   3.837  0.4634  0.7482  2.1822
 3937SOL     OW12709   0.752   4.230   1.594  0.2641 -0.3733 -0.4775
 3937SOL    HW112710   0.816   4.239   1.670  0.7747  2.4742 -1.1251
 3937SOL    HW212711   0.792   4.171   1.524  1.6715  0.3590 -0.3252
 3938SOL     OW12712   0.586   5.928   6.147 -0.4871 -0.3326  0.3984
 3938SOL    HW112713   0.587   5.831   6.168  1.5496 -0.3040  0.6034
 3938SOL    HW212714   0.643   5.946   6.066  0.2736  0.8129  1.1508
 3939SOL     OW12715   0.591   6.653   4.580 -0.5040  0.4647 -0.1928
 3939SOL    HW112716   0.634   6.627   4.667  2.7150  1.6670 -1.2809
 3939SOL    HW212717   0.530   6.580   4.551 -1.8324  0.0979  3.1051
 3940SOL     OW12718   2.920   4.169   1.077  0.5755 -0.2606 -0.1158
 3940SOL    HW112719   2.841   4.228   1.090 -0.5522 -1.4722 -1.2256
 3940SOL    HW212720   2.965   4.154   1.166 -2.3225 -2.1127  1.1925
 3941SOL     OW12721   6.894   5.360   3.353 -0.4110  0.3330  0.1599
 3941SOL    HW112722   6.958   5.391   3.424 -0.8022  2.1541 -0.2313
 3941SOL    HW212723   6.800   5.373   3.385 -0.5944  1.5648 -0.8160
 3942SOL     OW12724   1.110   0.524   6.495  0.1066  0.1378 -0.6847
 3942SOL    HW112725   1.112   0.486   6.587  0.1974  2.2750  0.2462
 3942SOL    HW212726   1.016   0.523   6.461 -0.1989  0.9001  0.1205
 3943SOL     OW12727   6.287   5.375   0.756 -0.0934  0.4184  0.0254
 3943SOL    HW112728   6.192   5.398   0.736  0.0729  1.5417  0.4052
 3943SOL    HW212729   6.290   5.302   0.824 -0.7216  1.2226  0.9575
 3944SOL     OW12730   6.915   3.453   6.919 -0.2627  0.3362  0.2385
 3944SOL    HW112731   6.944   3.541   6.881 -1.5392 -0.4028 -2.7641
 3944SOL    HW212732   6.845   3.468   6.988  0.5297  1.6937  0.7990
 3945SOL     OW12733   1.453   1.379   4.017  0.0951  0.1625  0.2660
 3945SOL    HW112734   1.399   1.462   4.031  1.1838  1.4351 -2.4511
 3945SOL    HW212735   1.550   1.403   4.010  0.3367 -1.1573 -1.6668
 3946SOL     OW12736   5.467   2.317   1.479 -0.0326  0.2247  0.0477
 3946SOL    HW112737   5.551   2.268   1.501  0.4290 -0.7268 -3.2257
 3946SOL    HW212738   5.478   2.414   1.500  1.2307 -0.1401  1.2229
 3947SOL     OW12739   5.860   0.871   2.930 -0.1720  0.1473 -0.3597
 3947SOL    HW112740   5.872   0.926   3.012 -0.4118 -2.0976  1.2632
 3947SOL    HW212741   5.821   0.928   2.857  1.1201  2.4851  0.6610
 3948SOL     OW12742   0.846   1.266   2.961  0.5237  0.2580 -0.0408
 3948SOL    HW112743   0.832   1.238   2.866  0.3672 -0.2620  0.1325
 3948SOL    HW212744   0.779   1.336   2.985  0.5386  0.3630 -0.2996
 3949SOL     OW12745   6.998   0.070   3.198 -0.1289  0.1736 -0.2192
 3949SOL    HW112746   7.079   0.016   3.217 -0.6125  0.1119  1.8410
 3949SOL    HW212747   7.025   0.162   3.168  0.6631 -0.4941 -1.6818
 3950SOL     OW12748   2.826   6.236   1.116  0.4374  0.2982  0.0254
 3950SOL    HW112749   2.749   6.173   1.123 -0.8906  1.7866 -0.5906
 3950SOL    HW212750   2.872   6.224   1.028  1.5625 -1.2393  0.7641
 3951SOL     OW12751   5.171   4.084   3.550  0.3942  0.2890  0.0982
 3951SOL    HW112752   5.135   4.006   3.499 -1.6574  1.9702 -1.1965
 3951SOL    HW212753   5.183   4.059   3.646 -0.3551 -1.5487 -0.2449
 3952SOL     OW12754   0.091   4.515   0.646  0.3085 -0.0419 -0.6000
 3952SOL    HW112755   0.127   4.549   0.733 -0.1236  2.3635 -1.2765
 3952SOL    HW212756  -0.009   4.512   0.650  0.3166 -0.7135 -0.7572
 3953SOL     OW12757   4.288   3.381   5.626  0.4402  0.4193 -0.5762
 3953SOL    HW112758   4.374   3.371   5.676  0.0035  0.6140  0.2350
 3953SOL    HW212759   4.228   3.304   5.646 -0.5544  1.5158  0.8800
 3954SOL     OW12760   0.829   5.604   5.983 -0.3594 -0.3142 -0.3867
 3954SOL    HW112761   0.762   5.530   5.986 -1.3079  0.5552  1.7161
 3954SOL    HW212762   0.825   5.649   5.893 -0.6965 -1.9488 -1.2190
 3955SOL     OW12763   0.022   4.086   1.326  0.3342 -0.7737 -0.2284
 3955SOL    HW112764   0.075   4.107   1.244 -0.5051  0.3121 -0.5260
 3955SOL    HW212765   0.060   4.137   1.403 -0.4997  0.3681 -0.5359
 3956SOL     OW12766   6.282   2.824   4.791  0.5953  0.0513 -0.5897
 3956SOL    HW112767   6.248   2.902   4.844  3.0796  0.4629  0.5400
 3956SOL    HW212768   6.340   2.768   4.850  1.0223 -1.1585 -2.1269
 3957SOL     OW12769   1.126   3.599   1.604  0.0765 -0.0734  0.0202
 3957SOL    HW112770   1.167   3.522   1.652  1.7563  0.9170  0.2600
 3957SOL    HW212771   1.027   3.594   1.611  0.1175 -2.4677 -0.4030
 3958SOL     OW12772   5.362   4.853   5.943 -0.4500 -0.3648 -0.2662
 3958SOL    HW112773   5.391   4.929   6.001 -0.7093 -1.0007  0.7187
 3958SOL    HW212774   5.420   4.849   5.862  1.1828 -0.6344  0.8739
 3959SOL     OW12775   2.347   5.352   0.955 -0.4883 -0.0667  0.2636
 3959SOL    HW112776   2.388   5.276   1.005  1.0271  0.7361  0.2954
 3959SOL    HW212777   2.297   5.411   1.019  0.7731  0.5164  0.7494
 3960SOL     OW12778   5.342   2.849   5.917  0.5691  0.5150 -0.2871
 3960SOL    HW112779   5.266   2.887   5.970  0.2709 -0.9815  0.4111
 3960SOL    HW212780   5.425   2.850   5.972  0.5285  0.0468 -0.2138
 3961SOL     OW12781   6.378   4.384   3.115  0.3114 -0.2015 -0.7875
 3961SOL    HW112782   6.330   4.410   3.200  0.3096 -0.8018 -0.6056
 3961SOL    HW212783   6.476   4.385   3.131  0.2786 -1.9723 -0.2784
 3962SOL     OW12784   1.684   0.435   0.879 -0.5281 -0.6111  0.5147
 3962SOL    HW112785   1.706   0.378   0.959  0.2507 -0.1474  0.6348
 3962SOL    HW212786   1.598   0.402   0.838 -0.8316 -0.9850  1.4162
 3963SOL     OW12787   5.383   3.031   5.102 -0.3926 -0.1126 -0.2929
 3963SOL    HW112788   5.477   3.001   5.081 -0.3891  0.5278 -1.2464
 3963SOL    HW212789   5.340   2.965   5.163  0.3770 -0.8802 -0.5634
 3964SOL     OW12790   0.442   3.574   6.582  0.6999 -0.3376 -0.6400
 3964SOL    HW112791   0.405   3.493   6.627 -0.9588  0.9171  0.3636
 3964SOL    HW212792   0.528   3.550   6.536  0.3304 -2.6072 -0.2792
 3965SOL     OW12793   1.620   4.098   0.358  0.2199  0.0858 -0.2834
 3965SOL    HW112794   1.715   4.114   0.331  0.1719 -0.2230 -0.6445
 3965SOL    HW212795   1.565   4.079   0.277 -0.4750  1.8308 -0.2613
 3966SOL     OW12796   0.320   4.379   5.238  0.4338  0.0138 -0.0960
 3966SOL    HW112797   0.267   4.465   5.234  0.9455  0.2985 -1.2037
 3966SOL    HW212798   0.261   4.306   5.272 -0.4699  0.4861 -0.5851
 3967SOL     OW12799   3.245   6.647   6.239 -0.4987 -0.0822  0.2676
 3967SOL    HW112800   3.317   6.713   6.216  0.8209 -0.9698  1.6176
 3967SOL    HW212801   3.160   6.695   6.261  0.1448  1.1016  0.2254
 3968SOL     OW12802   5.489   1.956   6.511 -0.0375 -0.2889  0.1738
 3968SOL    HW112803   5.488   1.990   6.605 -0.1291 -2.2704  0.9313
 3968SOL    HW212804   5.513   2.031   6.449 -3.0533  1.8988  1.3808
 3969SOL     OW12805   0.050   1.757   0.184 -0.4307 -0.3935  0.5589
 3969SOL    HW112806   0.112   1.684   0.154  0.4601  0.5260  0.1266
 3969SOL    HW212807   0.101   1.825   0.237 -1.2517 -0.0677  0.9446
 3970SOL     OW12808   6.307   3.630   3.084 -0.0493 -0.1125 -1.2242
 3970SOL    HW112809   6.333   3.695   3.012  0.0343  0.8711 -0.3344
 3970SOL    HW212810   6.211   3.644   3.108  0.0667 -0.0746 -0.7794
 3971SOL     OW12811   1.634   6.320   3.478 -0.3152 -0.0715 -0.5316
 3971SOL    HW112812   1.672   6.249   3.537 -1.6214 -1.7073 -1.5565
 3971SOL    HW212813   1.554   6.284   3.430 -1.4497  2.3265 -0.5923
 3972SOL     OW12814   1.171   3.078   1.557  0.5279  0.6409 -0.5360
 3972SOL    HW112815   1.265   3.096   1.584  2.5677 -1.2482 -5.3405
 3972SOL    HW212816   1.148   3.131   1.476 -1.8897 -0.4019 -0.6350
 3973SOL     OW12817   4.042   1.585   0.250  0.2512 -0.0941  0.3389
 3973SOL    HW112818   4.118   1.558   0.191 -0.0390 -1.3401  0.4906
 3973SOL    HW212819   4.066   1.565   0.345  0.2927  0.8791  0.5417
 3974SOL     OW12820   5.595   6.647   5.097 -0.1859 -0.2027  0.1804
 3974SOL    HW112821   5.621   6.738   5.129  2.6348 -0.0466 -2.1800
 3974SOL    HW212822   5.642   6.578   5.152  1.3325 -0.0468 -0.8630
 3975SOL     OW12823   1.242   0.079   4.392 -0.3794 -0.4490  0.3544
 3975SOL    HW112824   1.197   0.158   4.350 -0.0625  0.1226  1.0587
 3975SOL    HW212825   1.173   0.010   4.414 -0.8947  0.2825  1.1276
 3976SOL     OW12826   0.910   1.934   4.776  0.0620  0.0147 -0.3420
 3976SOL    HW112827   0.835   1.911   4.714 -0.0467 -1.1206  0.1940
 3976SOL    HW212828   0.992   1.883   4.750 -0.0561 -0.6628  0.5802
 3977SOL     OW12829   3.920   5.862   6.497 -0.1046  0.3927 -0.1348
 3977SOL    HW112830   4.011   5.836   6.527  0.0171 -0.2126 -0.9783
 3977SOL    HW212831   3.919   5.868   6.397 -0.3034  2.9760 -0.0558
 3978SOL     OW12832   4.415   1.492   2.259 -0.2050 -0.3418 -0.4044
 3978SOL    HW112833   4.368   1.465   2.344 -0.2589 -0.1535 -0.3729
 3978SOL    HW212834   4.443   1.410   2.209 -2.5061 -0.5126 -1.5199
 3979SOL     OW12835   0.403   4.522   2.944 -0.7040 -0.3783  0.1532
 3979SOL    HW112836   0.483   4.548   2.999 -0.5713  2.1474 -1.0946
 3979SOL    HW212837   0.364   4.438   2.981  2.6991 -1.9294  0.5995
 3980SOL     OW12838   5.773   4.202   4.480  0.1747 -0.0833  0.2167
 3980SOL    HW112839   5.766   4.113   4.437  1.0160 -0.1596  0.2207
 3980SOL    HW212840   5.684   4.228   4.518 -0.4517 -0.2525 -1.0696
 3981SOL     OW12841   0.113   1.304   5.866  0.2418  0.0689  0.1486
 3981SOL    HW112842   0.185   1.265   5.924  1.6061  2.1395 -0.0417
 3981SOL    HW212843   0.033   1.244   5.867  0.3959 -0.3108  3.7047
 3982SOL     OW12844   1.042   2.733   3.247  0.0906 -0.6989 -0.2210
 3982SOL    HW112845   1.093   2.733   3.161  0.0956 -0.1430 -0.2249
 3982SOL    HW212846   1.097   2.776   3.318 -1.0061  1.5916 -0.6405
 3983SOL     OW12847   3.469   2.065   2.945 -0.2071 -0.8747  0.2059
 3983SOL    HW112848   3.569   2.070   2.940  0.0076 -1.7328  2.4771
 3983SOL    HW212849   3.439   1.974   2.918 -0.2240 -1.0902  0.9260
 3984SOL     OW12850   1.394   5.116   2.105  0.0012 -0.0738 -0.2192
 3984SOL    HW112851   1.480   5.114   2.156  1.1380 -2.5103 -2.0241
 3984SOL    HW212852   1.318   5.103   2.168  1.1048 -0.1430  1.1623
 3985SOL     OW12853   1.382   3.264   0.714 -0.0057 -0.6459 -0.0607
 3985SOL    HW112854   1.467   3.317   0.713 -0.0571 -0.5609  0.0679
 3985SOL    HW212855   1.363   3.231   0.621 -0.9897  1.2093 -0.5741
 3986SOL     OW12856   0.682   6.448   3.670 -0.0196 -0.0656 -0.2847
 3986SOL    HW112857   0.775   6.412   3.664 -0.1410 -0.4811  0.2439
 3986SOL    HW212858   0.626   6.387   3.726 -0.0345  1.3355  1.3291
 3987SOL     OW12859   1.145   5.150   0.441  0.1958  0.5507 -0.3843
 3987SOL    HW112860   1.078   5.088   0.481  1.6469 -0.3085  0.8353
 3987SOL    HW212861   1.200   5.192   0.514  1.3689  0.7774 -1.3554
 3988SOL     OW12862   5.073   4.006   2.571  0.2203 -0.5432 -0.3072
 3988SOL    HW112863   4.996   3.955   2.531 -1.1829 -0.2206  1.8246
 3988SOL    HW212864   5.158   3.957   2.554 -0.8315 -2.5347 -0.0982
 3989SOL     OW12865   5.495   0.567   6.169 -0.3929 -0.1959  0.1355
 3989SOL    HW112866   5.401   0.566   6.206 -0.2394 -1.0617  0.5108
 3989SOL    HW212867   5.544   0.646   6.207 -0.7666 -0.1120  0.4573
 3990SOL     OW12868   6.025   5.510   4.473 -0.0439  0.3263 -0.4467
 3990SOL    HW112869   6.049   5.541   4.380  2.2416  2.2091  0.6659
 3990SOL    HW212870   6.108   5.477   4.519 -1.0860 -0.2926  1.0650
 3991SOL     OW12871   5.652   2.562   4.651  0.4476 -0.3488  0.2921
 3991SOL    HW112872   5.612   2.644   4.610 -1.7763 -2.1974 -1.5924
 3991SOL    HW212873   5.732   2.533   4.598  1.4452  0.7273  1.1651
 3992SOL     OW12874   5.518   5.165   6.560 -0.2475 -0.3053 -0.0383
 3992SOL    HW112875   5.524   5.159   6.660  1.0585 -1.7020 -0.1565
 3992SOL    HW212876   5.582   5.234   6.527  0.1596 -0.6369  0.0393
 3993SOL     OW12877   5.717   1.044   3.670  0.3439 -0.2437 -0.1923
 3993SOL    HW112878   5.764   0.956   3.663  0.6069 -0.1222  0.0224
 3993SOL    HW212879   5.620   1.028   3.685  0.3907 -0.4993 -0.1469
 3994SOL     OW12880   3.044   0.982   3.136 -0.7578  0.3166 -0.0200
 3994SOL    HW112881   2.949   0.960   3.159 -1.1887  1.4203 -0.7076
 3994SOL    HW212882   3.101   0.903   3.157 -1.6024  0.1065  1.7413
 3995SOL     OW12883   0.283   2.415   1.094  0.3410 -0.1610  0.0456
 3995SOL    HW112884   0.245   2.408   1.186 -1.3310 -0.5780 -0.6570
 3995SOL    HW212885   0.279   2.326   1.049 -1.5127  0.5930 -1.4220
 3996SOL     OW12886   4.225   5.722   6.482  0.5332 -0.5646 -0.0550
 3996SOL    HW112887   4.238   5.817   6.508 -0.7432 -0.1437 -0.8724
 3996SOL    HW212888   4.218   5.715   6.383 -1.4164 -1.2199  0.0906
 3997SOL     OW12889   6.061   5.189   6.501  0.2823 -0.0367 -0.6709
 3997SOL    HW112890   6.033   5.282   6.525 -0.7794 -0.4805 -0.1148
 3997SOL    HW212891   6.119   5.191   6.419 -2.4648  0.8635 -2.7389
 3998SOL     OW12892   2.455   1.468   2.888 -0.2636  0.0859 -0.1333
 3998SOL    HW112893   2.498   1.546   2.842  0.3526  0.2637  0.7077
 3998SOL    HW212894   2.398   1.502   2.963 -1.0141 -0.2121 -0.5642
 3999SOL     OW12895   5.634   3.149   1.358  0.2677 -0.3382  0.1810
 3999SOL    HW112896   5.547   3.186   1.323  1.0808  1.6696  0.1334
 3999SOL    HW212897   5.616   3.099   1.443 -1.1504 -1.4998 -0.7509
 4000SOL     OW12898   0.635   5.560   5.189  0.1589  0.2130  0.0584
 4000SOL    HW112899   0.684   5.487   5.237 -1.0546 -1.5239 -1.2153
 4000SOL    HW212900   0.588   5.521   5.109  1.3173  2.7971 -2.0166
 4001SOL     OW12901   2.131   3.532   5.554  0.4433 -0.1552  0.0889
 4001SOL    HW112902   2.049   3.476   5.544  0.1230  0.4457 -0.7320
 4001SOL    HW212903   2.146   3.586   5.471  1.8275 -0.4596  0.1155
 4002SOL     OW12904   4.008   2.772   5.287  0.4916 -0.1761 -0.2249
 4002SOL    HW112905   4.059   2.688   5.266  0.9772  0.1348 -0.2992
 4002SOL    HW212906   3.932   2.781   5.223  0.0568 -0.8834  0.1751
 4003SOL     OW12907   5.578   2.287   5.617 -0.4174  0.0894  0.1478
 4003SOL    HW112908   5.618   2.206   5.574  0.0639 -0.2933  1.2775
 4003SOL    HW212909   5.619   2.370   5.579  0.7706 -0.2696  0.6096
 4004SOL     OW12910   2.279   5.821   0.029  0.5772  0.7305  0.2421
 4004SOL    HW112911   2.273   5.828   0.129  0.1829  0.3340  0.2481
 4004SOL    HW212912   2.189   5.842  -0.011  0.6293  0.4755 -0.0078
 4005SOL     OW12913   5.172   0.054   1.993 -0.6323 -0.4020 -0.7268
 4005SOL    HW112914   5.159  -0.010   2.069 -0.2792 -0.6030 -0.8357
 4005SOL    HW212915   5.233   0.014   1.926  0.1066  0.3046 -0.4946
 4006SOL     OW12916   6.815   0.072   6.136 -0.2702 -0.1401 -0.3154
 4006SOL    HW112917   6.822   0.159   6.185 -0.5841  0.5463 -1.4402
 4006SOL    HW212918   6.878   0.006   6.176  1.0292  1.0445 -0.3291
 4007SOL     OW12919   1.298   2.695   6.349 -0.2825 -0.7057 -0.0283
 4007SOL    HW112920   1.219   2.637   6.369 -1.8048  0.4070 -2.3437
 4007SOL    HW212921   1.305   2.709   6.250 -0.8184  3.9950  0.3496
 4008SOL     OW12922   4.020   0.734   6.913 -0.8022  0.0235 -0.0831
 4008SOL    HW112923   3.980   0.652   6.872 -2.2736  1.0159 -0.7162
 4008SOL    HW212924   3.988   0.815   6.864  1.8400  0.9330 -0.4920
 4009SOL     OW12925   2.393   1.900   2.171 -0.2817 -0.0178  0.3515
 4009SOL    HW112926   2.469   1.851   2.213 -1.0182 -2.1118 -0.6316
 4009SOL    HW212927   2.307   1.868   2.210 -0.8475 -0.3429 -1.1224
 4010SOL     OW12928   2.623   6.149   2.118  0.4653  0.1409  0.2937
 4010SOL    HW112929   2.539   6.149   2.063  0.1431 -0.8649  0.7449
 4010SOL    HW212930   2.700   6.119   2.061  0.2560 -0.2599  0.2153
 4011SOL     OW12931   1.557   2.507   6.709  0.0294  0.6349 -1.1671
 4011SOL    HW112932   1.567   2.552   6.619 -1.8825  1.8072 -0.8439
 4011SOL    HW212933   1.471   2.457   6.712  0.0328  0.6780  0.0529
 4012SOL     OW12934   5.983   2.938   2.271 -0.6076 -0.7990 -0.1792
 4012SOL    HW112935   6.031   3.003   2.212 -0.5276 -0.4456  0.2698
 4012SOL    HW212936   5.941   2.987   2.347  0.2011 -1.3614  0.6546
 4013SOL     OW12937   6.098   2.469   5.744  0.3008  0.5512  0.1247
 4013SOL    HW112938   6.087   2.503   5.837 -0.0563  0.7280  0.0210
 4013SOL    HW212939   6.032   2.515   5.683 -0.3853 -0.5036  0.0271
 4014SOL     OW12940   3.608   6.635   2.384 -0.3523  0.6275  0.0268
 4014SOL    HW112941   3.537   6.608   2.320 -0.9139 -0.2062  0.9747
 4014SOL    HW212942   3.697   6.600   2.353 -0.8444 -1.0634  0.4556
 4015SOL     OW12943   4.668   5.741   4.501  0.3209 -0.0731  0.1157
 4015SOL    HW112944   4.595   5.680   4.533  0.3251 -0.2497 -0.2114
 4015SOL    HW212945   4.639   5.836   4.513 -0.0998 -0.1453 -0.3321
 4016SOL     OW12946   3.455   5.633   3.642 -0.2382 -1.0817  1.0797
 4016SOL    HW112947   3.493   5.717   3.681 -0.0709 -1.0566  0.8645
 4016SOL    HW212948   3.526   5.584   3.593 -0.9767  0.1667 -1.4027
 4017SOL     OW12949   2.649   1.468   6.001  0.1509 -0.3852  0.2015
 4017SOL    HW112950   2.568   1.437   5.952  0.3423 -1.6280  0.6390
 4017SOL    HW212951   2.709   1.516   5.937 -0.6912  0.1170 -0.2349
 4018SOL     OW12952   6.408   4.898   6.236  0.3302 -0.1092 -0.1095
 4018SOL    HW112953   6.498   4.919   6.198  1.0279 -1.3175  0.7962
 4018SOL    HW212954   6.352   4.980   6.236  1.3540  0.6178 -0.8908
 4019SOL     OW12955   0.112   3.041   3.292  0.0159  0.0556  0.7815
 4019SOL    HW112956   0.034   3.003   3.242 -0.1436  0.9769  0.3077
 4019SOL    HW212957   0.080   3.110   3.356  0.5772  2.1001 -1.0077
 4020SOL     OW12958   0.184   6.786   5.308  0.5197 -0.2280  0.4064
 4020SOL    HW112959   0.133   6.792   5.222  0.7259  0.5032  0.3304
 4020SOL    HW212960   0.273   6.743   5.291 -0.1531 -1.7470  0.5850
 4021SOL     OW12961   3.900   4.664   5.316 -0.2821  0.6938  0.1134
 4021SOL    HW112962   3.940   4.702   5.233 -0.2747 -1.6197 -1.0291
 4021SOL    HW212963   3.965   4.601   5.359 -1.8405 -1.6032 -0.6931
 4022SOL     OW12964   5.148   0.240   2.319 -0.6210 -0.1122 -0.3500
 4022SOL    HW112965   5.089   0.160   2.306  0.4251 -1.2942  1.6011
 4022SOL    HW212966   5.230   0.231   2.263 -0.0225 -0.9880  0.6138
 4023SOL     OW12967   6.798   2.752   5.116  0.4738  0.1107 -0.0820
 4023SOL    HW112968   6.847   2.838   5.129 -0.0248  0.3357  0.3359
 4023SOL    HW212969   6.839   2.701   5.040  0.4077  0.9717 -0.7057
 4024SOL     OW12970   1.615   0.922   0.530 -0.2054  0.0911  0.2770
 4024SOL    HW112971   1.713   0.942   0.524 -0.2643  0.1184 -0.8831
 4024SOL    HW212972   1.599   0.856   0.603  0.6258  0.4128  0.7609
 4025SOL     OW12973   2.926   4.267   5.904  0.2893 -0.0536 -0.0212
 4025SOL    HW112974   2.975   4.242   5.821 -0.7242  0.2004 -0.7161
 4025SOL    HW212975   2.855   4.334   5.882 -2.1977 -2.3314  0.4014
 4026SOL     OW12976   0.813   6.914   3.332  0.0709  0.2513  0.0184
 4026SOL    HW112977   0.714   6.906   3.347 -0.1704  1.3144 -0.8576
 4026SOL    HW212978   0.847   6.831   3.287 -0.2047 -0.5770  1.2829
 4027SOL     OW12979   3.551   5.343   6.210  0.0114 -0.3247  0.1520
 4027SOL    HW112980   3.584   5.425   6.257 -2.9958  1.3376 -0.3590
 4027SOL    HW212981   3.521   5.367   6.118  0.7690 -2.4261 -0.6971
 4028SOL     OW12982   5.439   6.964   6.278  0.4052 -0.5090  0.1298
 4028SOL    HW112983   5.474   6.918   6.196  0.6413 -0.9235  0.4607
 4028SOL    HW212984   5.516   7.006   6.327  0.1916  0.2803 -0.1850
 4029SOL     OW12985   1.182   6.003   0.651 -0.4160 -0.2753  0.1459
 4029SOL    HW112986   1.161   5.960   0.563  0.5482  0.1181 -0.3016
 4029SOL    HW212987   1.097   6.028   0.698 -0.9858  1.2377 -1.5500
 4030SOL     OW12988   2.202   3.085   3.056  0.1335 -0.2331 -0.1884
 4030SOL    HW112989   2.201   3.114   3.151  1.7913  0.3757 -0.3228
 4030SOL    HW212990   2.219   2.986   3.051  0.0743 -0.2600  0.1399
 4031SOL     OW12991   6.593   6.146   1.380  0.2581  0.1491 -0.0392
 4031SOL    HW112992   6.517   6.191   1.427  0.8463  1.3327 -0.1793
 4031SOL    HW212993   6.634   6.209   1.315  3.0020  0.5182  1.8469
 4032SOL     OW12994   3.371   2.830   1.105 -0.3130 -1.0360 -0.2390
 4032SOL    HW112995   3.393   2.733   1.090  0.4871 -0.6982 -1.3947
 4032SOL    HW212996   3.446   2.887   1.073  0.6173 -0.0770  3.2427
 4033SOL     OW12997   1.587   3.636   5.403  0.0911 -0.1083 -0.0799
 4033SOL    HW112998   1.530   3.716   5.422 -0.3166 -0.0535 -1.4274
 4033SOL    HW212999   1.640   3.652   5.320  1.1117 -0.6748  0.4426
 4034SOL     OW13000   1.729   1.159   3.735 -0.2125 -0.5554 -0.5741
 4034SOL    HW113001   1.634   1.158   3.706 -0.3381 -2.3745 -0.2135
 4034SOL    HW213002   1.734   1.143   3.834  0.4584 -0.2013 -0.5451
 4035SOL     OW13003   3.983   1.821   1.678  0.0988  0.3469 -0.1407
 4035SOL    HW113004   4.034   1.741   1.711  1.5950  1.5097  0.4798
 4035SOL    HW213005   3.886   1.799   1.672  0.2870 -1.0656  1.4346
 4036SOL     OW13006   3.776   6.694   2.899 -0.1768  0.2941 -0.0270
 4036SOL    HW113007   3.679   6.704   2.875 -0.1950  1.4612  0.4596
 4036SOL    HW213008   3.802   6.767   2.961  1.1134  0.1735 -0.4066
 4037SOL     OW13009   1.223   1.795   6.504 -0.3552 -0.3571 -0.0447
 4037SOL    HW113010   1.230   1.894   6.521  2.4369 -0.2877 -1.0602
 4037SOL    HW213011   1.168   1.780   6.421 -1.1190  0.2819  0.3237
 4038SOL     OW13012   2.813   5.330   6.366  0.0713 -0.6597  0.0907
 4038SOL    HW113013   2.766   5.410   6.403  1.1760 -0.4709  1.1691
 4038SOL    HW213014   2.807   5.331   6.267  1.4262  1.6866 -0.0406
 4039SOL     OW13015   0.201   4.207   2.421 -0.8644 -0.0031  0.5528
 4039SOL    HW113016   0.258   4.217   2.340 -1.2619 -0.8539  0.1605
 4039SOL    HW213017   0.160   4.296   2.444 -0.7542  0.2414 -0.1813
 4040SOL     OW13018   1.554   5.950   5.568 -0.1263 -0.5725 -0.5664
 4040SOL    HW113019   1.494   5.902   5.633  0.0630  2.9875  2.6354
 4040SOL    HW213020   1.510   6.035   5.540  1.5300 -0.1365 -1.9913
 4041SOL     OW13021   1.689   6.814   6.898  0.1824 -0.5553  0.1300
 4041SOL    HW113022   1.668   6.834   6.803  1.3727 -2.1083 -0.5152
 4041SOL    HW213023   1.640   6.877   6.958 -0.2519  0.7242 -1.5174
 4042SOL     OW13024   1.246   1.955   5.166 -0.4909 -0.2206  0.0501
 4042SOL    HW113025   1.242   2.037   5.223  0.9433  0.1430 -0.3168
 4042SOL    HW213026   1.179   1.961   5.093  0.4361  1.2565 -0.7367
 4043SOL     OW13027   4.019   1.782   5.378 -0.3458  0.2831 -0.1030
 4043SOL    HW113028   4.106   1.753   5.339 -0.2402 -2.1635  1.7066
 4043SOL    HW213029   3.944   1.738   5.329 -0.4395  0.4313 -0.0962
 4044SOL     OW13030   4.536   4.870   3.451 -0.1078 -0.2381  0.0322
 4044SOL    HW113031   4.506   4.960   3.482 -0.3318 -0.1726 -0.3707
 4044SOL    HW213032   4.457   4.816   3.423  0.1561  0.0199 -1.2569
 4045SOL     OW13033   5.346   0.058   3.917  0.1236  0.6727 -0.6220
 4045SOL    HW113034   5.421   0.104   3.964 -0.0179  1.2498 -0.9514
 4045SOL    HW213035   5.341  -0.038   3.947 -0.9419  1.3829  1.7039
 4046SOL     OW13036   5.294   0.760   3.117 -0.1561 -0.1977 -0.2021
 4046SOL    HW113037   5.277   0.845   3.068  1.7964 -0.4370 -1.4180
 4046SOL    HW213038   5.392   0.748   3.130 -0.0594 -3.5249 -2.5653
 4047SOL     OW13039   1.357   2.401   5.527 -0.3235  0.0413 -0.0603
 4047SOL    HW113040   1.423   2.335   5.492  0.1817  0.8524 -0.6814
 4047SOL    HW213041   1.396   2.493   5.523 -1.0243  0.3945  0.7531
 4048SOL     OW13042   5.504   2.742   2.879  0.4048 -0.9680 -0.0590
 4048SOL    HW113043   5.406   2.726   2.868 -0.0747  1.3854  0.3250
 4048SOL    HW213044   5.549   2.743   2.790  0.3822 -3.4057 -0.1679
 4049SOL     OW13045   3.354   3.235   1.396  0.1059  0.5072  0.2473
 4049SOL    HW113046   3.338   3.328   1.362 -1.7357  0.1179 -0.0607
 4049SOL    HW213047   3.270   3.181   1.386  1.5715 -1.6904 -1.1311
 4050SOL     OW13048   1.088   5.633   1.730 -0.0539 -0.3905  0.6952
 4050SOL    HW113049   1.091   5.619   1.631  0.1054 -1.3152  0.8219
 4050SOL    HW213050   1.171   5.678   1.760 -0.4882  0.7093  0.2962
 4051SOL     OW13051   4.121   6.801   3.812  0.6583 -0.5639 -0.1239
 4051SOL    HW113052   4.201   6.838   3.860  0.5249 -0.9053  0.3652
 4051SOL    HW213053   4.050   6.779   3.879 -0.8129  2.0179 -0.7115
 4052SOL     OW13054   2.499   1.626   5.679  0.1080  0.0105  0.6203
 4052SOL    HW113055   2.414   1.573   5.673  0.2364 -0.0063 -2.2058
 4052SOL    HW213056   2.575   1.563   5.692 -0.0394 -0.2350  0.3198
 4053SOL     OW13057   5.924   5.492   1.004  0.3114 -0.1530  0.2185
 4053SOL    HW113058   5.982   5.423   1.046  0.4575 -0.8370 -1.0585
 4053SOL    HW213059   5.832   5.488   1.044  0.0702 -1.6911 -0.4160
 4054SOL     OW13060   0.947   4.350   0.472  0.0031  0.1335  0.4116
 4054SOL    HW113061   1.027   4.299   0.441  0.8404  1.7720 -0.2569
 4054SOL    HW213062   0.906   4.304   0.551  1.8483 -0.5374  1.0310
 4055SOL     OW13063   0.018   6.719   5.757 -0.0052 -0.5031 -0.0473
 4055SOL    HW113064   0.039   6.745   5.663  0.7959  0.0967  0.2855
 4055SOL    HW213065   0.008   6.802   5.813 -2.1851 -0.7853  0.0582
 4056SOL     OW13066   6.024   6.022   0.517  0.9566  0.0357  0.1176
 4056SOL    HW113067   6.057   5.986   0.431 -0.9551 -1.0979 -0.2072
 4056SOL    HW213068   6.066   5.973   0.593 -0.2402 -1.7201 -0.2901
 4057SOL     OW13069   0.692   5.769   3.144  0.3488  0.7817  0.5357
 4057SOL    HW113070   0.623   5.697   3.157  1.8182 -0.3766  2.3993
 4057SOL    HW213071   0.768   5.755   3.207  2.3943  1.9550 -1.4839
 4058SOL     OW13072   3.390   0.002   2.795  0.2982 -0.4191  0.8719
 4058SOL    HW113073   3.312   0.039   2.846  1.0933 -0.1733  1.9469
 4058SOL    HW213074   3.475   0.025   2.843  1.0582 -0.4814 -0.3945
 4059SOL     OW13075   0.104   1.613   3.311  0.5722 -0.1869 -0.3546
 4059SOL    HW113076   0.178   1.681   3.306 -0.3382  1.0163  1.6003
 4059SOL    HW213077   0.055   1.622   3.398 -1.1625 -1.7323 -1.0968
 4060SOL     OW13078   1.175   6.162   3.719 -0.7887  0.8969  0.5228
 4060SOL    HW113079   1.137   6.073   3.744 -1.6230 -0.1496 -3.6849
 4060SOL    HW213080   1.263   6.175   3.766  0.1808 -2.9128  0.1245
 4061SOL     OW13081   2.231   3.178   1.807  0.4028  0.3214 -0.9382
 4061SOL    HW113082   2.254   3.262   1.856  1.4292 -0.5181  0.0763
 4061SOL    HW213083   2.135   3.181   1.780 -0.0908  1.0135  0.7577
 4062SOL     OW13084   1.328   2.366   6.723 -0.2102  0.2119  0.1921
 4062SOL    HW113085   1.346   2.267   6.722 -1.4537 -0.0666 -2.1766
 4062SOL    HW213086   1.282   2.390   6.809 -2.5611 -1.8782 -0.3557
 4063SOL     OW13087   3.642   1.516   1.640 -0.5120  0.0454  0.1615
 4063SOL    HW113088   3.662   1.419   1.630 -1.8627 -0.2459  0.0769
 4063SOL    HW213089   3.624   1.556   1.550  0.4532  0.4885  0.1481
 4064SOL     OW13090   3.392   6.056   4.392  0.4745  0.7049  0.2948
 4064SOL    HW113091   3.394   5.963   4.428  1.7214  0.7893  0.4973
 4064SOL    HW213092   3.336   6.114   4.452  0.5665  0.3126  0.7635
 4065SOL     OW13093   3.288   1.811   3.093 -0.2254  0.4594  0.0357
 4065SOL    HW113094   3.305   1.795   2.996  0.7659  1.4005  0.0300
 4065SOL    HW213095   3.245   1.731   3.134  0.9309 -0.6257 -0.8046
 4066SOL     OW13096   6.688   3.858   4.145 -0.3258  0.1929 -0.7059
 4066SOL    HW113097   6.641   3.809   4.218  2.3272 -3.7435 -1.3073
 4066SOL    HW213098   6.767   3.906   4.184  0.7939 -1.4914 -0.7379
 4067SOL     OW13099   0.050   3.401   1.985 -0.9454  0.0391 -0.3245
 4067SOL    HW113100   0.040   3.304   2.007  1.9159 -0.3038 -0.1968
 4067SOL    HW213101  -0.014   3.425   1.911 -1.6682 -1.9249 -0.3999
 4068SOL     OW13102   2.471   2.384   6.035  0.3850 -0.7902 -0.6293
 4068SOL    HW113103   2.401   2.371   6.105  1.9722 -0.9455  0.9917
 4068SOL    HW213104   2.489   2.298   5.989 -0.3705 -0.7785 -0.9618
 4069SOL     OW13105   4.265   0.670   5.804  0.0466 -0.4998  0.1827
 4069SOL    HW113106   4.327   0.592   5.788  0.5385 -0.0858  0.0297
 4069SOL    HW213107   4.242   0.712   5.716  2.1978  1.3578  0.4313
 4070SOL     OW13108   2.187   4.336   4.332 -0.0976 -0.2782 -0.1289
 4070SOL    HW113109   2.201   4.303   4.425 -0.0002 -0.8159 -0.3318
 4070SOL    HW213110   2.091   4.322   4.306 -0.1978  0.1591  0.0011
 4071SOL     OW13111   0.322   6.958   4.344 -0.3082  0.0054  0.3282
 4071SOL    HW113112   0.327   7.024   4.419 -1.5731  1.0336 -0.4438
 4071SOL    HW213113   0.411   6.916   4.331  0.2967  0.8773  1.4668
 4072SOL     OW13114   1.833   5.809   3.365 -0.4094  0.9269 -0.0138
 4072SOL    HW113115   1.848   5.754   3.447 -0.5393  1.7016  0.5358
 4072SOL    HW213116   1.870   5.901   3.379  1.1232  0.5770 -1.4660
 4073SOL     OW13117   4.417   5.664   0.121 -0.5160  0.0948  0.1224
 4073SOL    HW113118   4.478   5.642   0.197  0.8377 -0.6609 -1.1483
 4073SOL    HW213119   4.323   5.676   0.156  0.0313 -0.4174  1.8597
 4074SOL     OW13120   1.499   4.824   2.018 -0.4453 -0.1703 -0.2923
 4074SOL    HW113121   1.413   4.845   2.065 -0.7594 -0.4766 -0.7111
 4074SOL    HW213122   1.493   4.731   1.980 -0.3161  0.1772 -1.1817
 4075SOL     OW13123   6.623   5.024   6.133  0.7067  0.2404 -0.0414
 4075SOL    HW113124   6.664   5.087   6.199  1.4914  0.5224 -0.7765
 4075SOL    HW213125   6.685   5.013   6.055 -0.3024  0.0933 -0.8400
 4076SOL     OW13126   1.981   4.140   4.745 -0.1930  0.3756 -0.7156
 4076SOL    HW113127   2.075   4.169   4.730 -0.2890  1.3528  0.3847
 4076SOL    HW213128   1.921   4.220   4.745 -1.0805 -0.2641 -1.6958
 4077SOL     OW13129   2.958   0.009   6.705  0.2212 -0.1967  0.1380
 4077SOL    HW113130   3.005  -0.008   6.792  0.1811 -4.3370 -0.4066
 4077SOL    HW213131   3.024  -0.003   6.630 -0.2527  0.9412 -0.4742
 4078SOL     OW13132   3.680   4.218   1.409  0.7343  0.0854  1.1000
 4078SOL    HW113133   3.679   4.132   1.358  2.3222  0.1466  0.9043
 4078SOL    HW213134   3.726   4.203   1.497  0.0705  0.5064  1.5249
 4079SOL     OW13135   6.106   4.055   3.021 -0.0516 -0.2312  0.2637
 4079SOL    HW113136   6.202   4.069   2.999  0.3641 -3.6134 -0.6090
 4079SOL    HW213137   6.050   4.122   2.972  1.8198  2.6906  1.8557
 4080SOL     OW13138   6.758   1.373   6.373  0.2643  0.2295 -0.0349
 4080SOL    HW113139   6.728   1.411   6.460 -0.3050 -2.4107  1.0410
 4080SOL    HW213140   6.856   1.355   6.376 -0.0585 -1.6942  0.9322
 4081SOL     OW13141   0.103   2.734   2.040 -0.4535 -0.1726  0.3215
 4081SOL    HW113142   0.021   2.678   2.040 -0.0838 -0.7146  0.2770
 4081SOL    HW213143   0.181   2.681   2.007 -0.0556  0.2914  0.4930
 4082SOL     OW13144   6.257   3.357   6.544 -0.2281  0.0775  0.0343
 4082SOL    HW113145   6.256   3.329   6.448  0.1957  0.3634 -0.0552
 4082SOL    HW213146   6.295   3.283   6.599  0.0620  0.1284 -0.0919
 4083SOL     OW13147   0.788   3.129   4.290 -0.2531  0.5058 -0.0804
 4083SOL    HW113148   0.803   3.176   4.202 -2.7333 -0.9044 -1.3661
 4083SOL    HW213149   0.851   3.051   4.297  2.0188  2.2903  0.8540
 4084SOL     OW13150   3.066   0.871   4.635 -0.0479 -0.1585  0.0268
 4084SOL    HW113151   3.079   0.929   4.554  0.0593 -0.2883 -0.0498
 4084SOL    HW213152   3.154   0.832   4.662 -0.2061 -0.6957 -0.2293
 4085SOL     OW13153   2.532   3.718   5.999  0.6885 -0.6387  0.4448
 4085SOL    HW113154   2.565   3.748   6.088  1.6937 -1.9265  0.5370
 4085SOL    HW213155   2.448   3.767   5.976  0.5752 -0.0748  1.9594
 4086SOL     OW13156   0.983   2.157   2.486  0.3685 -0.0731  0.5924
 4086SOL    HW113157   1.017   2.221   2.416 -0.2053 -0.5180 -0.1062
 4086SOL    HW213158   0.982   2.203   2.575  2.6644  0.0130  0.6339
 4087SOL     OW13159   2.740   2.304   3.385 -0.2913  0.6892 -0.8977
 4087SOL    HW113160   2.787   2.281   3.469  1.1547  0.0999 -1.8342
 4087SOL    HW213161   2.717   2.221   3.335 -3.1542  0.8807 -0.1000
 4088SOL     OW13162   0.739   4.642   6.511  0.4217 -0.0009 -0.9549
 4088SOL    HW113163   0.673   4.700   6.559 -0.2798  0.5602 -2.5327
 4088SOL    HW213164   0.774   4.573   6.574 -1.8373 -0.4548 -0.0873
 4089SOL     OW13165   6.845   1.858   5.267 -0.3264  0.1825 -0.9322
 4089SOL    HW113166   6.761   1.826   5.224 -0.4680 -1.8811  0.6907
 4089SOL    HW213167   6.834   1.954   5.295 -1.9392  0.1154 -1.2444
 4090SOL     OW13168   4.235   5.084   4.301  0.0836 -0.2325  0.0676
 4090SOL    HW113169   4.238   5.149   4.225 -3.4896 -0.8078 -0.7572
 4090SOL    HW213170   4.172   5.010   4.279  1.7188 -2.4299  2.2035
 4091SOL     OW13171   4.178   5.848   0.840 -0.4148 -0.4153 -0.6270
 4091SOL    HW113172   4.199   5.779   0.771 -1.4017 -1.7477  0.3416
 4091SOL    HW213173   4.123   5.807   0.912 -1.7647  1.6073 -0.4179
 4092SOL     OW13174   6.829   2.849   4.306 -0.6537  0.6625 -0.1424
 4092SOL    HW113175   6.756   2.788   4.277  0.3494 -1.0329  0.6924
 4092SOL    HW213176   6.858   2.824   4.399  2.5359 -0.3561 -1.2547
 4093SOL     OW13177   4.000   0.864   4.266 -0.6233  0.1413 -0.2355
 4093SOL    HW113178   3.954   0.782   4.233 -0.2811 -1.4850  2.9398
 4093SOL    HW213179   4.098   0.845   4.277 -0.4001  1.2451 -0.1574
 4094SOL     OW13180   3.252   3.426   4.735 -0.2490 -0.3035  0.0664
 4094SOL    HW113181   3.263   3.327   4.729  1.1828 -0.1982  0.5042
 4094SOL    HW213182   3.244   3.452   4.832  2.3243  0.2260  0.2169
 4095SOL     OW13183   4.030   5.548   6.551 -0.4837  0.6132  0.4329
 4095SOL    HW113184   4.105   5.611   6.532 -1.1049  1.5903  1.1466
 4095SOL    HW213185   4.004   5.555   6.647  0.7127 -2.1565  1.0843
 4096SOL     OW13186   5.839   5.570   1.730 -0.1794 -0.0131  0.8635
 4096SOL    HW113187   5.797   5.656   1.702 -0.3293 -0.6122 -0.8723
 4096SOL    HW213188   5.939   5.580   1.731 -0.0647 -0.3292 -1.4023
 4097SOL     OW13189   4.058   3.781   3.688  0.5335  0.0721  0.0828
 4097SOL    HW113190   3.998   3.860   3.691  0.0697 -0.1769 -1.5433
 4097SOL    HW213191   4.064   3.740   3.779  0.5149  1.7458  0.8716
 4098SOL     OW13192   2.215   3.101   3.624  0.1089  0.5576  0.0080
 4098SOL    HW113193   2.176   3.014   3.597  1.2683  0.2293 -0.6914
 4098SOL    HW213194   2.192   3.120   3.720 -1.9218  0.5161 -0.4225
 4099SOL     OW13195   2.995   0.651   1.290 -0.5793  0.1594 -0.0997
 4099SOL    HW113196   3.014   0.562   1.250 -0.8852  0.2459 -0.4461
 4099SOL    HW213197   3.000   0.645   1.389  2.9354  0.5267 -0.1200
 4100SOL     OW13198   4.607   0.296   1.622 -0.9401 -0.4001  0.5438
 4100SOL    HW113199   4.654   0.216   1.583  0.9667  1.1603 -0.5244
 4100SOL    HW213200   4.632   0.305   1.718  1.1792  0.4915 -0.0424
 4101SOL     OW13201   5.969   1.042   6.794  0.5438  0.0642  0.2065
 4101SOL    HW113202   6.025   1.079   6.720 -1.4204  1.1533 -0.8265
 4101SOL    HW213203   5.984   1.094   6.878  1.5291 -0.0750  0.1232
 4102SOL     OW13204   6.786   4.059   6.437 -0.3266  0.3322  0.3785
 4102SOL    HW113205   6.692   4.035   6.458 -1.0320  3.2451  0.9590
 4102SOL    HW213206   6.790   4.107   6.349  0.3554  1.4604  0.9919
 4103SOL     OW13207   1.247   0.326   1.556 -0.0799  0.3570 -0.0350
 4103SOL    HW113208   1.170   0.263   1.566 -0.5780  0.8249 -0.8152
 4103SOL    HW213209   1.306   0.295   1.481  1.7785 -1.2696  1.9870
 4104SOL     OW13210   2.717   5.090   1.038  0.6743 -0.0095  0.2107
 4104SOL    HW113211   2.712   4.992   1.015  1.3217 -0.2197  0.9236
 4104SOL    HW213212   2.812   5.120   1.036  0.6046  0.3086  1.1568
 4105SOL     OW13213   5.969   6.406   0.809 -0.5708 -0.3395  0.2249
 4105SOL    HW113214   5.939   6.498   0.833  1.8275  0.6320 -0.1624
 4105SOL    HW213215   6.019   6.409   0.722  0.0371 -1.8936  0.4864
 4106SOL     OW13216   6.923   3.976   5.782 -0.4690  0.3829  0.3990
 4106SOL    HW113217   6.869   4.006   5.861  0.3050  0.4484  0.9094
 4106SOL    HW213218   6.877   3.898   5.739 -2.1227  1.7628 -0.5071
 4107SOL     OW13219   0.349   6.690   6.281 -0.4258 -0.3461 -0.2172
 4107SOL    HW113220   0.400   6.770   6.249  0.1622 -0.5377  0.2219
 4107SOL    HW213221   0.405   6.608   6.269  0.6498 -0.2175  3.0027
 4108SOL     OW13222   6.054   0.353   4.687  0.3775 -0.3172  0.1012
 4108SOL    HW113223   5.996   0.401   4.622 -0.8444  1.1479  2.1356
 4108SOL    HW213224   6.148   0.386   4.679 -0.2097  1.6155  0.6378
 4109SOL     OW13225   3.671   6.552   4.576  0.1617 -0.0857  0.1883
 4109SOL    HW113226   3.604   6.592   4.514  0.6408  0.6663  0.1483
 4109SOL    HW213227   3.691   6.458   4.547  0.3595  0.2456 -0.7856
 4110SOL     OW13228   5.577   4.361   6.123 -0.3985  0.4890  0.4110
 4110SOL    HW113229   5.522   4.400   6.049 -0.1103 -0.1332 -0.1476
 4110SOL    HW213230   5.562   4.262   6.127 -2.6691  0.8363  3.1015
 4111SOL     OW13231   3.225   3.086   0.765  0.2373  0.3025 -0.0499
 4111SOL    HW113232   3.211   3.035   0.850 -1.2551 -0.0817 -0.4930
 4111SOL    HW213233   3.176   3.041   0.691 -1.2333  2.3816 -0.4401
 4112SOL     OW13234   4.403   5.942   6.764  0.7434  0.3647  0.3941
 4112SOL    HW113235   4.417   6.026   6.816  1.7632  0.6609 -0.3156
 4112SOL    HW213236   4.433   5.956   6.669 -1.7606  0.0790 -0.5200
 4113SOL     OW13237   3.339   5.778   4.484  0.1286 -0.0844 -0.1741
 4113SOL    HW113238   3.287   5.709   4.535  0.6113 -1.0813 -1.0025
 4113SOL    HW213239   3.280   5.817   4.412 -0.3004  0.7462  0.6088
 4114SOL     OW13240   2.841   0.890   2.724  0.0493  0.4735 -0.3766
 4114SOL    HW113241   2.876   0.897   2.631  3.5388 -4.2862  0.2198
 4114SOL    HW213242   2.756   0.838   2.725 -1.1822  2.3638 -0.9141
 4115SOL     OW13243   4.684   2.633   3.782  0.3468 -0.6374  0.5233
 4115SOL    HW113244   4.594   2.602   3.751  0.3353 -0.5619  0.4805
 4115SOL    HW213245   4.730   2.682   3.708 -0.1135  0.4650  0.9486
 4116SOL     OW13246   3.930   0.696   1.566  0.2689 -0.1319  0.0965
 4116SOL    HW113247   3.878   0.763   1.512  1.7932  3.4654  2.7259
 4116SOL    HW213248   4.017   0.677   1.521 -0.6645 -1.4149 -1.2643
 4117SOL     OW13249   1.993   6.242   1.443 -0.1715  0.3767 -0.3328
 4117SOL    HW113250   2.001   6.283   1.352  0.6906 -0.6564 -0.7307
 4117SOL    HW213251   2.081   6.204   1.471 -1.0721 -1.8312 -0.2849
 4118SOL     OW13252   3.164   1.334   0.078 -0.3519  0.0399  0.0244
 4118SOL    HW113253   3.212   1.248   0.091  1.4059  0.9344 -0.2359
 4118SOL    HW213254   3.071   1.316   0.044 -0.5323 -1.7673  1.3254
 4119SOL     OW13255   5.120   0.655   4.652  0.0250  0.1365 -0.2606
 4119SOL    HW113256   5.101   0.636   4.556  0.2290 -0.6836 -0.1495
 4119SOL    HW213257   5.034   0.657   4.703 -0.0664  0.3425 -0.4237
 4120SOL     OW13258   6.009   5.302   0.378  0.0154  0.3659  0.5723
 4120SOL    HW113259   5.982   5.388   0.422 -2.5537 -1.0561  2.0251
 4120SOL    HW213260   6.001   5.228   0.444 -0.9055 -1.4346 -1.4473
 4121SOL     OW13261   6.560   2.204   5.688  0.3134 -0.2677 -0.1978
 4121SOL    HW113262   6.629   2.238   5.752 -1.2453  0.0007  1.4140
 4121SOL    HW213263   6.489   2.273   5.676  0.6239 -0.2438 -2.4022
 4122SOL     OW13264   1.649   5.970   0.644 -0.3965 -0.5933  0.7633
 4122SOL    HW113265   1.722   6.035   0.623 -0.9969 -0.5532 -1.4366
 4122SOL    HW213266   1.565   6.019   0.667 -1.2209 -0.4364 -2.1800
 4123SOL     OW13267   4.074   3.772   3.009 -0.1175 -0.2820 -0.1726
 4123SOL    HW113268   4.023   3.811   3.086 -1.7223  0.2827 -1.4605
 4123SOL    HW213269   4.110   3.846   2.952  4.1439 -0.5292  1.7662
 4124SOL     OW13270   5.357   4.398   1.434  0.8129  0.6179 -0.0422
 4124SOL    HW113271   5.275   4.408   1.490  0.7834  2.4454 -0.3436
 4124SOL    HW213272   5.375   4.483   1.386  0.5799 -0.9912 -3.2271
 4125SOL     OW13273   3.985   3.126   6.252 -0.0492  0.1274  0.0518
 4125SOL    HW113274   4.036   3.150   6.335 -0.5516 -0.1936  0.4604
 4125SOL    HW213275   3.949   3.209   6.210  0.4698  0.3203 -0.0178
 4126SOL     OW13276   1.508   2.643   4.008 -0.3401  0.5153  0.5566
 4126SOL    HW113277   1.435   2.711   4.012 -0.3760  0.4257  1.4861
 4126SOL    HW213278   1.484   2.565   4.065  0.9736  0.9683  1.7858
 4127SOL     OW13279   5.158   2.455   1.987  0.1425  0.2023  0.0910
 4127SOL    HW113280   5.236   2.480   1.929  1.7559 -0.4898  1.8405
 4127SOL    HW213281   5.078   2.438   1.930  1.2878  0.8444 -1.7940
 4128SOL     OW13282   5.680   2.098   2.864  0.0776 -0.4391  0.1382
 4128SOL    HW113283   5.650   2.091   2.769  0.3428 -1.9412  0.1481
 4128SOL    HW213284   5.762   2.156   2.869  1.0780 -1.7278 -0.8026
 4129SOL     OW13285   6.934   4.141   2.875  0.2556 -0.5284 -0.2834
 4129SOL    HW113286   6.924   4.200   2.956  0.5084  0.5255 -0.9973
 4129SOL    HW213287   7.010   4.077   2.890 -0.3388 -1.0367  0.7025
 4130SOL     OW13288   6.106   1.921   1.950  0.8175 -0.0401 -0.3225
 4130SOL    HW113289   6.006   1.930   1.948  0.9089  1.1436  0.0730
 4130SOL    HW213290   6.141   1.918   1.857  0.6240  2.2325 -0.5043
 4131SOL     OW13291   5.678   4.207   4.125 -0.0816  1.0575 -0.0290
 4131SOL    HW113292   5.604   4.145   4.098 -0.0713  1.6501 -1.4999
 4131SOL    HW213293   5.763   4.154   4.132 -0.6020  0.3814  1.6364
 4132SOL     OW13294   4.816   0.429   5.687 -0.0875  0.2619  0.3007
 4132SOL    HW113295   4.896   0.368   5.690 -0.0367  0.3044 -0.0522
 4132SOL    HW213296   4.847   0.524   5.696 -0.0011  0.3407 -0.7043
 4133SOL     OW13297   2.352   3.791   0.220  0.2070  0.7067 -0.1578
 4133SOL    HW113298   2.386   3.697   0.214  0.2942  0.7510 -0.3815
 4133SOL    HW213299   2.275   3.794   0.283 -0.3489  0.3212 -0.7931
 4134SOL     OW13300   0.908   3.425   0.244  0.2259  0.2468 -0.0765
 4134SOL    HW113301   0.947   3.341   0.282  0.1561  0.0948 -0.3375
 4134SOL    HW213302   0.820   3.444   0.288  0.7553  0.7897  0.7772
 4135SOL     OW13303   1.601   1.679   1.144  0.6125  0.5215 -0.3836
 4135SOL    HW113304   1.692   1.679   1.185 -0.0789 -1.4803  1.2609
 4135SOL    HW213305   1.558   1.590   1.156 -2.0427  1.7396 -0.0771
 4136SOL     OW13306   6.034   1.454   3.014 -0.1734  0.4556  0.0995
 4136SOL    HW113307   6.047   1.379   3.079 -0.9067 -1.2223 -1.6198
 4136SOL    HW213308   6.122   1.499   2.998  0.8809 -1.7706 -0.8231
 4137SOL     OW13309   3.859   3.491   0.475 -0.3142 -0.4896  0.2478
 4137SOL    HW113310   3.872   3.471   0.378  2.4081 -1.2874  0.6846
 4137SOL    HW213311   3.807   3.418   0.518  1.8294 -2.2142  0.0757
 4138SOL     OW13312   5.066   5.300   1.950 -0.4010 -0.2835  0.6393
 4138SOL    HW113313   5.130   5.283   2.024  2.6123  1.3019 -1.3769
 4138SOL    HW213314   5.086   5.239   1.873 -1.9952 -0.4312  0.3031
 4139SOL     OW13315   4.031   0.716   0.972 -0.3130  0.4080 -0.4201
 4139SOL    HW113316   4.037   0.672   1.061  1.8356  2.8313  0.7603
 4139SOL    HW213317   4.103   0.682   0.912  0.0879  0.8554 -0.1982
 4140SOL     OW13318   4.817   2.214   5.381  0.0397  0.8132 -0.9603
 4140SOL    HW113319   4.759   2.217   5.463  0.2633 -0.1193 -0.7551
 4140SOL    HW213320   4.841   2.119   5.361  2.8792  1.2332 -0.0476
 4141SOL     OW13321   5.545   5.350   1.984 -0.3142 -0.3021  0.0111
 4141SOL    HW113322   5.622   5.383   2.039 -0.4586  0.5983 -0.3095
 4141SOL    HW213323   5.544   5.250   1.985  0.6890 -0.3207  0.2513
 4142SOL     OW13324   5.067   1.228   1.118 -0.5868 -0.3415 -0.2964
 4142SOL    HW113325   5.055   1.132   1.093  0.6950 -0.6102  0.0081
 4142SOL    HW213326   5.165   1.247   1.130 -0.8983  0.7085  0.8069
 4143SOL     OW13327   1.304   2.407   0.650 -0.8258  0.6419 -0.3459
 4143SOL    HW113328   1.346   2.433   0.736  1.0794  0.8589 -1.2845
 4143SOL    HW213329   1.305   2.308   0.640 -1.0216  0.6190 -0.1396
 4144SOL     OW13330   4.417   1.917   1.898 -0.1833  0.3684  0.9089
 4144SOL    HW113331   4.505   1.953   1.869  0.7425 -1.3328  1.4355
 4144SOL    HW213332   4.426   1.877   1.990 -1.1943 -0.8560  0.5090
 4145SOL     OW13333   3.708   6.357   4.290 -0.0527  0.1408 -0.4080
 4145SOL    HW113334   3.741   6.451   4.298  0.7135 -0.2244  0.9388
 4145SOL    HW213335   3.660   6.331   4.373  0.7206 -1.0226 -0.3032
 4146SOL     OW13336   4.822   5.389   0.793 -0.3775 -0.1417  0.2037
 4146SOL    HW113337   4.883   5.316   0.763 -1.4841 -0.7377 -0.6697
 4146SOL    HW213338   4.786   5.367   0.884 -0.8785 -0.8108 -0.1473
 4147SOL     OW13339   2.011   5.863   5.807 -0.7998  0.3210  0.3418
 4147SOL    HW113340   1.918   5.896   5.790 -0.6950  0.7517  0.5901
 4147SOL    HW213341   2.008   5.783   5.866 -1.0048  0.3994  0.4375
 4148SOL     OW13342   1.003   0.611   0.569 -0.0222  0.3665 -0.1514
 4148SOL    HW113343   0.998   0.603   0.669  0.8518 -0.2806 -0.1439
 4148SOL    HW213344   0.999   0.707   0.544  0.2982  0.5794  0.5596
 4149SOL     OW13345   4.424   4.921   2.600 -0.1559  0.7955  0.1235
 4149SOL    HW113346   4.375   4.912   2.513  1.1550 -1.0976 -0.4900
 4149SOL    HW213347   4.368   4.885   2.674 -0.6870  1.0205 -0.1653
 4150SOL     OW13348   4.018   0.483   3.440  0.0639 -0.3494  0.5540
 4150SOL    HW113349   3.925   0.499   3.474 -0.2088 -0.0656 -0.3096
 4150SOL    HW213350   4.082   0.544   3.487 -0.3392  0.1898  0.4034
 4151SOL     OW13351   2.245   5.392   6.914 -0.7147 -0.5182  0.2863
 4151SOL    HW113352   2.190   5.348   6.842 -1.8321  0.2706  0.6396
 4151SOL    HW213353   2.218   5.356   7.003  0.6443 -1.4647  0.3584
 4152SOL     OW13354   3.915   2.971   1.840 -0.0623 -0.3378  0.0688
 4152SOL    HW113355   3.909   2.971   1.940 -0.8211 -0.2660  0.0277
 4152SOL    HW213356   3.991   3.029   1.812  0.9462 -1.3351  0.6383
 4153SOL     OW13357   5.664   0.065   1.710  0.1868 -0.4278  0.5889
 4153SOL    HW113358   5.762   0.046   1.717  0.5939  1.0594 -0.5524
 4153SOL    HW213359   5.613  -0.005   1.759  1.9388  0.4703  3.9848
 4154SOL     OW13360   3.675   0.727   4.681 -0.1398  0.3886  0.3703
 4154SOL    HW113361   3.695   0.795   4.611  0.3000 -1.3429 -1.2648
 4154SOL    HW213362   3.719   0.754   4.767  1.2588  1.4259 -0.6278
 4155SOL     OW13363   2.137   1.380   1.247 -0.0538  0.8323  0.2111
 4155SOL    HW113364   2.057   1.354   1.301 -0.5490  1.9151  0.0291
 4155SOL    HW213365   2.189   1.450   1.295  0.2446  0.8372 -0.1129
 4156SOL     OW13366   5.645   0.813   6.247 -0.3035 -0.6721 -0.1654
 4156SOL    HW113367   5.613   0.897   6.203 -0.2936 -1.0310 -0.8733
 4156SOL    HW213368   5.738   0.827   6.282 -0.5895 -0.1510  0.4132
 4157SOL     OW13369   2.239   0.430   3.891  0.2838  0.7256  0.5281
 4157SOL    HW113370   2.291   0.509   3.859  0.5647  0.3144 -0.0649
 4157SOL    HW213371   2.141   0.444   3.871  0.5661 -0.0702 -1.8234
 4158SOL     OW13372   6.709   0.842   3.899  0.7066 -0.2545  0.1695
 4158SOL    HW113373   6.738   0.885   3.983 -0.0617  0.9699 -0.1669
 4158SOL    HW213374   6.785   0.792   3.858  1.8264  1.3768  0.2098
 4159SOL     OW13375   1.269   4.664   5.114  0.1197  0.3783  0.2420
 4159SOL    HW113376   1.328   4.741   5.090 -0.7487  1.2875  0.9148
 4159SOL    HW213377   1.311   4.610   5.187  0.0936  1.0658  0.7712
 4160SOL     OW13378   1.372   1.183   2.500 -0.0299  0.1339  0.0822
 4160SOL    HW113379   1.358   1.107   2.435  0.1087  0.1983 -0.0222
 4160SOL    HW213380   1.288   1.197   2.552  0.3192 -0.8997  0.9689
 4161SOL     OW13381   5.759   0.711   2.495  0.1675 -0.4344 -0.1092
 4161SOL    HW113382   5.737   0.633   2.554 -0.2121 -0.5638 -0.4154
 4161SOL    HW213383   5.675   0.756   2.466  0.3474 -0.3684 -0.5431
 4162SOL     OW13384   1.245   0.804   4.167 -0.4770 -0.1179  0.1584
 4162SOL    HW113385   1.217   0.724   4.113  0.8189 -1.0847  0.8747
 4162SOL    HW213386   1.343   0.818   4.158  0.4492 -2.1731  4.4782
 4163SOL     OW13387   6.034   2.949   6.642 -0.4869 -0.1989  0.1064
 4163SOL    HW113388   5.939   2.965   6.667 -0.0804  1.7847  0.5273
 4163SOL    HW213389   6.059   3.009   6.566  1.5071  2.4377  2.6301
 4164SOL     OW13390   4.197   1.107   4.205  0.4466 -0.4290 -0.2903
 4164SOL    HW113391   4.241   1.059   4.130  1.1902 -0.3223  0.0735
 4164SOL    HW213392   4.127   1.048   4.245  0.7416 -0.8712 -0.4154
 4165SOL     OW13393   0.736   5.856   1.155  0.1136  0.0523  0.4917
 4165SOL    HW113394   0.737   5.789   1.230 -0.6458 -0.4620  0.0540
 4165SOL    HW213395   0.674   5.931   1.178 -1.4610 -0.9508 -0.3141
 4166SOL     OW13396   5.191   0.587   1.496 -0.0371 -0.2979 -0.7198
 4166SOL    HW113397   5.097   0.573   1.464 -0.4039  0.1416  0.1510
 4166SOL    HW213398   5.216   0.511   1.557 -0.3743  0.3556  0.2574
 4167SOL     OW13399   0.996   2.264   0.244  0.6012  0.2180  0.2616
 4167SOL    HW113400   1.034   2.188   0.191  0.7273 -0.8045  1.7775
 4167SOL    HW213401   1.021   2.351   0.200  1.4347 -0.5597 -0.8577
 4168SOL     OW13402   4.465   6.003   1.474  0.2339  0.1050  0.1025
 4168SOL    HW113403   4.501   5.948   1.549  0.4828 -1.0588 -0.8426
 4168SOL    HW213404   4.520   5.987   1.391  0.1039  1.5277 -0.2846
 4169SOL     OW13405   6.394   4.825   5.172 -0.2005  0.1732  0.3016
 4169SOL    HW113406   6.463   4.892   5.145  1.6020 -2.4409 -2.2685
 4169SOL    HW213407   6.303   4.862   5.154  0.7446  1.6844 -1.8474
 4170SOL     OW13408   0.998   6.304   5.422 -0.5953 -0.0296  0.4016
 4170SOL    HW113409   0.955   6.377   5.370  1.1413 -0.4299 -1.7355
 4170SOL    HW213410   1.053   6.344   5.496  1.4479  1.0062 -1.5729
 4171SOL     OW13411   0.370   1.512   4.391  0.3167  0.5234  0.5377
 4171SOL    HW113412   0.272   1.536   4.388 -0.2286 -1.6344 -0.8928
 4171SOL    HW213413   0.410   1.548   4.475 -0.6992  4.9445 -0.5830
 4172SOL     OW13414   3.317   0.752   1.437 -0.4162  0.7283  0.0734
 4172SOL    HW113415   3.347   0.795   1.523  0.8301  0.9288 -0.4444
 4172SOL    HW213416   3.397   0.729   1.382 -0.9616 -2.7795  0.5485
 4173SOL     OW13417   4.186   3.090   0.467  0.3090 -0.1188 -0.1167
 4173SOL    HW113418   4.283   3.104   0.490  0.4786 -1.0291 -0.2267
 4173SOL    HW213419   4.154   3.164   0.409  0.4687  1.0999  1.2783
 4174SOL     OW13420   4.425   1.264   3.480 -0.1081  0.2685  0.1032
 4174SOL    HW113421   4.478   1.332   3.429 -0.3937 -0.3828 -1.0872
 4174SOL    HW213422   4.434   1.175   3.436  0.1978 -0.4757  1.5969
 4175SOL     OW13423   4.130   0.209   1.936  0.1723 -0.1758  0.3802
 4175SOL    HW113424   4.038   0.222   1.972 -0.5524  0.7543 -1.6407
 4175SOL    HW213425   4.155   0.113   1.941 -0.9259 -0.4531  0.8913
 4176SOL     OW13426   4.393   6.326   2.143  0.5306  0.3476  0.1296
 4176SOL    HW113427   4.484   6.357   2.172  0.7262  0.5099 -0.6541
 4176SOL    HW213428   4.398   6.232   2.111  0.5129  0.5139 -0.3626
 4177SOL     OW13429   0.786   6.104   3.554 -0.5581  0.7317  0.5703
 4177SOL    HW113430   0.843   6.167   3.608 -1.4555  1.2333  0.9472
 4177SOL    HW213431   0.753   6.031   3.614 -1.1112  0.9877  0.5802
 4178SOL     OW13432   4.230   1.356   4.873  0.0275 -0.3464  0.0509
 4178SOL    HW113433   4.232   1.301   4.790  2.0400 -1.1166  0.5511
 4178SOL    HW213434   4.210   1.297   4.951  0.6945 -0.1163  0.4057
 4179SOL     OW13435   6.513   1.629   6.417  0.3919 -0.4860  0.1741
 4179SOL    HW113436   6.540   1.652   6.511  1.1532  0.4020 -0.2359
 4179SOL    HW213437   6.469   1.540   6.416 -1.6116  0.4091  1.7022
 4180SOL     OW13438   5.523   2.326   2.218  0.0513 -0.6033 -0.2817
 4180SOL    HW113439   5.592   2.264   2.181 -1.7460 -2.8165 -0.1004
 4180SOL    HW213440   5.502   2.397   2.150  0.5804 -1.4781 -1.3800
 4181SOL     OW13441   6.056   0.207   6.078 -0.2600  0.2048  0.2624
 4181SOL    HW113442   6.128   0.165   6.134  0.6626  2.7725  1.1409
 4181SOL    HW213443   6.092   0.224   5.986  0.8968  2.8129  1.0993
 4182SOL     OW13444   5.247   1.077   4.409  0.4254  0.1097  0.0903
 4182SOL    HW113445   5.176   1.008   4.404  1.4450 -0.9943  0.3881
 4182SOL    HW213446   5.334   1.034   4.433  0.6616  1.7754  2.6176
 4183SOL     OW13447   2.126   0.643   2.891  0.2126  0.3339  0.1954
 4183SOL    HW113448   2.070   0.720   2.922 -0.0873  0.8487 -1.5156
 4183SOL    HW213449   2.081   0.598   2.813  0.8245 -1.0220  0.5895
 4184SOL     OW13450   4.386   5.108   5.976  0.5066  0.2874 -0.9188
 4184SOL    HW113451   4.308   5.045   5.975 -1.3459  2.4395 -0.7144
 4184SOL    HW213452   4.448   5.083   6.051 -1.2034 -0.1139  0.4249
 4185SOL     OW13453   5.590   0.838   4.879 -0.1495 -0.2550  0.0595
 4185SOL    HW113454   5.540   0.800   4.801 -0.4051 -0.4158  0.3037
 4185SOL    HW213455   5.537   0.826   4.962  0.5823 -1.0420  0.4290
 4186SOL     OW13456   2.559   6.037   1.698 -0.4169  0.5697 -0.3190
 4186SOL    HW113457   2.565   5.941   1.725  1.0966  0.5986 -0.4929
 4186SOL    HW213458   2.637   6.087   1.735 -1.0548  1.6923 -0.4410
 4187SOL     OW13459   4.522   5.326   4.203  0.3185 -0.0350 -0.1842
 4187SOL    HW113460   4.479   5.394   4.263 -0.5578  0.6187 -1.5036
 4187SOL    HW213461   4.454   5.287   4.142  1.3864  0.1834 -1.5669
 4188SOL     OW13462   5.479   6.758   3.000  0.0794  0.5550  0.0312
 4188SOL    HW113463   5.532   6.812   3.065 -1.3436  1.3390  0.5804
 4188SOL    HW213464   5.466   6.665   3.036  1.3606  0.2313 -0.2845
 4189SOL     OW13465   0.651   3.931   3.502  0.1808  0.0354  0.1097
 4189SOL    HW113466   0.604   3.860   3.448 -1.1647  1.5143 -0.7691
 4189SOL    HW213467   0.718   3.977   3.444 -0.0411  0.4914  0.2149
 4190SOL     OW13468   1.590   0.945   0.880 -0.1178 -0.4995  0.0096
 4190SOL    HW113469   1.498   0.937   0.918 -0.9293  0.1239 -1.7073
 4190SOL    HW213470   1.611   0.864   0.826  1.2616 -1.6541  2.1233
 4191SOL     OW13471   6.863   2.298   0.154  0.2327 -0.4298  0.0046
 4191SOL    HW113472   6.768   2.267   0.151  0.5670 -1.7236  1.3640
 4191SOL    HW213473   6.870   2.379   0.213 -0.1033 -0.0083 -0.5334
 4192SOL     OW13474   6.012   6.687   4.206  0.2356 -0.3446 -0.1066
 4192SOL    HW113475   6.014   6.685   4.306  0.5548 -1.1647 -0.1268
 4192SOL    HW213476   6.045   6.600   4.170  0.0840 -0.0683 -0.9290
 4193SOL     OW13477   0.197   5.781   3.418  0.0893 -0.4798 -0.1989
 4193SOL    HW113478   0.194   5.682   3.400 -2.3973 -0.5250  0.1535
 4193SOL    HW213479   0.143   5.829   3.349  0.7825  0.5912 -0.0101
 4194SOL     OW13480   4.807   1.710   3.128 -0.5312 -0.4399 -0.0898
 4194SOL    HW113481   4.844   1.778   3.191 -0.6189 -0.4147 -0.0649
 4194SOL    HW213482   4.725   1.746   3.084  1.3250  0.8896 -2.7429
 4195SOL     OW13483   4.022   6.509   3.081 -0.7882 -0.0752  0.2946
 4195SOL    HW113484   4.006   6.607   3.091 -0.9426  0.0108 -0.6335
 4195SOL    HW213485   4.085   6.493   3.004 -0.7801 -0.6999  0.4230
 4196SOL     OW13486   6.227   0.002   3.303  0.1924 -0.4395 -0.5778
 4196SOL    HW113487   6.266  -0.087   3.328  1.8994  0.8458  1.6386
 4196SOL    HW213488   6.278   0.041   3.227  1.4055 -0.0576  0.4105
 4197SOL     OW13489   6.738   4.673   1.737 -0.3448 -0.5731  0.3133
 4197SOL    HW113490   6.699   4.601   1.795  0.3562 -0.5520  0.8324
 4197SOL    HW213491   6.767   4.750   1.795 -1.0021  0.0969 -0.2236
 4198SOL     OW13492   5.998   2.379   6.427  0.5541 -0.2858  0.0493
 4198SOL    HW113493   6.024   2.410   6.518 -1.1516 -0.6899  0.7141
 4198SOL    HW213494   6.080   2.352   6.376  1.5874  0.5091  1.2329
 4199SOL     OW13495   4.387   4.181   6.453 -0.2311 -0.6289 -0.0783
 4199SOL    HW113496   4.483   4.210   6.462 -0.1361 -0.7411 -0.7297
 4199SOL    HW213497   4.360   4.186   6.357 -0.3643 -2.2442 -0.1453
 4200SOL     OW13498   2.408   0.990   5.132  0.7698  0.1693 -0.0484
 4200SOL    HW113499   2.483   1.051   5.103  1.3183 -0.5937 -0.2669
 4200SOL    HW213500   2.408   0.908   5.076  1.2518 -0.9099  1.4614
 4201SOL     OW13501   6.270   0.926   4.238  0.3870 -0.4321 -0.4923
 4201SOL    HW113502   6.307   0.985   4.166  0.2812 -0.1245 -0.2987
 4201SOL    HW213503   6.172   0.944   4.248  0.6860  0.6243  0.7504
 4202SOL     OW13504   6.029   3.181   5.834  0.0997  0.5730 -0.1680
 4202SOL    HW113505   5.962   3.124   5.787  1.5062 -0.2989 -1.2226
 4202SOL    HW213506   6.037   3.152   5.929  0.9272 -1.2091 -0.7300
 4203SOL     OW13507   2.914   5.880   3.956 -0.2239  0.7509  0.4632
 4203SOL    HW113508   2.993   5.824   3.981 -0.3898 -1.2719 -2.8901
 4203SOL    HW213509   2.940   5.942   3.881 -1.9602 -0.8127 -1.5617
 4204SOL     OW13510   1.298   5.762   0.756  0.0206 -0.2328  0.4626
 4204SOL    HW113511   1.237   5.740   0.833 -1.0104 -1.1881 -0.5837
 4204SOL    HW213512   1.264   5.844   0.710 -0.1850 -0.4840  0.1693
 4205SOL     OW13513   3.564   1.421   3.897  0.3800  0.7052 -0.1664
 4205SOL    HW113514   3.524   1.404   3.807  3.3196 -1.2865 -1.2448
 4205SOL    HW213515   3.646   1.478   3.887  0.3709  1.0129  1.3468
 4206SOL     OW13516   5.366   0.375   3.041  0.3572  0.3477 -0.8267
 4206SOL    HW113517   5.339   0.284   3.010 -1.2890  0.2309  0.7948
 4206SOL    HW213518   5.399   0.370   3.135 -2.2697  1.6953  0.2832
 4207SOL     OW13519   4.086   5.843   4.969  0.5320  0.0491 -0.1136
 4207SOL    HW113520   4.094   5.743   4.972 -1.6303 -0.1785 -0.6405
 4207SOL    HW213521   4.044   5.870   4.882 -2.1384  1.1129  1.4053
 4208SOL     OW13522   1.469   1.983   3.751  0.2561  0.2527  0.4033
 4208SOL    HW113523   1.543   1.932   3.706  0.7055 -1.1282  2.5971
 4208SOL    HW213524   1.500   2.077   3.766 -0.7309  1.5402 -4.0407
 4209SOL     OW13525   2.098   6.613   3.844 -0.2267 -0.0950 -0.0159
 4209SOL    HW113526   2.083   6.587   3.939  2.7633 -2.4678 -0.0597
 4209SOL    HW213527   2.128   6.708   3.839  1.1215 -0.4046  1.5930
 4210SOL     OW13528   4.025   2.813   1.144 -0.1342 -0.0309  0.4629
 4210SOL    HW113529   3.999   2.720   1.120  0.2893  0.2167 -1.0698
 4210SOL    HW213530   3.944   2.870   1.151 -0.3107 -0.2315  0.0904
 4211SOL     OW13531   0.949   3.823   4.823 -0.0233  0.5684 -0.1780
 4211SOL    HW113532   0.903   3.761   4.759  0.9109 -0.5492  0.2003
 4211SOL    HW213533   1.022   3.872   4.777 -1.4690  2.3086 -0.7661
 4212SOL     OW13534   4.931   6.555   3.053 -0.3547  0.1605  0.2325
 4212SOL    HW113535   4.868   6.614   3.104  1.8336  1.1101  1.9933
 4212SOL    HW213536   4.931   6.583   2.957 -3.3703 -0.6034 -0.0868
 4213SOL     OW13537   1.217   6.805   2.646 -0.0257  0.2131  0.4440
 4213SOL    HW113538   1.247   6.803   2.551 -0.0027 -3.6999  0.3849
 4213SOL    HW213539   1.293   6.777   2.705 -0.6442  0.5024  1.3953
 4214SOL     OW13540   3.079   5.379   4.498  0.5589  0.4385  0.2092
 4214SOL    HW113541   3.137   5.455   4.529  1.0805  0.1362 -0.0120
 4214SOL    HW213542   3.030   5.342   4.577 -0.7320  1.8549  0.1045
 4215SOL     OW13543   0.697   0.786   0.564  0.9020 -0.1428  0.2310
 4215SOL    HW113544   0.629   0.851   0.531 -0.2398 -0.8873  1.0292
 4215SOL    HW213545   0.767   0.773   0.494  0.4058  0.8887 -0.4894
 4216SOL     OW13546   1.385   0.529   5.114  0.4206  0.8779 -0.2103
 4216SOL    HW113547   1.381   0.550   5.212 -0.5001 -0.3058  0.0308
 4216SOL    HW213548   1.337   0.601   5.063  2.2201  2.3181  0.0226
 4217SOL     OW13549   4.235   0.887   4.974 -0.1161  0.1487  0.2695
 4217SOL    HW113550   4.250   0.846   4.885 -0.0767  1.4223 -0.3434
 4217SOL    HW213551   4.141   0.923   4.979  0.0925  0.6785  0.4818
 4218SOL     OW13552   3.434   5.386   4.042 -0.0760 -0.0304 -0.1904
 4218SOL    HW113553   3.472   5.478   4.039  0.6206 -0.3189 -0.6054
 4218SOL    HW213554   3.380   5.368   3.960 -0.1936  0.0019 -0.1200
 4219SOL     OW13555   4.247   0.049   1.549 -0.3562  0.1280  0.3403
 4219SOL    HW113556   4.314   0.046   1.475 -0.3663 -0.4146  0.3506
 4219SOL    HW213557   4.292   0.026   1.636 -0.1847  1.4744  0.6278
 4220SOL     OW13558   1.729   4.680   2.963 -0.4452  0.0729 -0.5755
 4220SOL    HW113559   1.789   4.760   2.969  0.7714 -0.8903  1.4065
 4220SOL    HW213560   1.648   4.695   3.019  1.2474 -1.1311  2.4563
 4221SOL     OW13561   5.952   5.260   5.039 -0.3635 -0.1283  0.4383
 4221SOL    HW113562   5.924   5.356   5.044 -0.4815 -0.1707  0.6014
 4221SOL    HW213563   5.992   5.242   4.949 -2.2145 -0.4308 -0.3726
 4222SOL     OW13564   3.159   1.734   6.846  0.7619 -0.9375 -0.2429
 4222SOL    HW113565   3.089   1.805   6.851  1.3368 -0.3724 -0.1727
 4222SOL    HW213566   3.239   1.768   6.797  1.2004 -1.4048  0.1310
 4223SOL     OW13567   3.419   2.914   2.992  0.2078  0.2604 -0.1004
 4223SOL    HW113568   3.335   2.913   3.046  0.8826 -2.7940  1.0843
 4223SOL    HW213569   3.396   2.926   2.896 -1.2728  2.5315  0.4418
 4224SOL     OW13570   2.520   2.478   5.365 -0.7965  0.0180 -0.6258
 4224SOL    HW113571   2.460   2.471   5.445 -0.0419 -0.3010 -0.0755
 4224SOL    HW213572   2.538   2.387   5.329  1.1922 -0.1380  0.6202
 4225SOL     OW13573   5.263   6.238   3.358  0.1979  0.5634 -0.5658
 4225SOL    HW113574   5.205   6.171   3.404  0.0757  0.8838 -0.2471
 4225SOL    HW213575   5.242   6.240   3.260  1.9883 -1.7430 -1.0976
 4226SOL     OW13576   2.152   2.244   2.915 -1.0270  0.1340 -0.1074
 4226SOL    HW113577   2.156   2.188   2.998  0.7197  0.0396 -0.2202
 4226SOL    HW213578   2.227   2.219   2.855 -1.9868  0.5526 -1.5156
 4227SOL     OW13579   3.876   3.524   6.535 -0.1625 -0.6372  0.5878
 4227SOL    HW113580   3.865   3.604   6.595 -1.0424 -0.0307 -0.3634
 4227SOL    HW213581   3.810   3.454   6.561 -0.9295 -0.1496 -0.0237
 4228SOL     OW13582   3.946   5.539   2.843 -0.0814  0.1926 -0.0519
 4228SOL    HW113583   3.955   5.638   2.835  2.3034  0.0300 -0.0208
 4228SOL    HW213584   3.895   5.503   2.765 -0.0249  1.3237 -0.6208
 4229SOL     OW13585   3.587   4.950   6.028 -0.2554  0.3926 -0.5988
 4229SOL    HW113586   3.607   5.021   5.960  0.8875  0.4681 -0.2099
 4229SOL    HW213587   3.522   4.986   6.095 -1.3527  0.3382 -1.5922
 4230SOL     OW13588   2.177   1.380   2.673  0.2915  0.1465  0.0059
 4230SOL    HW113589   2.268   1.356   2.709  0.8684  0.7778 -0.9692
 4230SOL    HW213590   2.176   1.364   2.574 -0.1233  1.7128 -0.2656
 4231SOL     OW13591   3.832   5.562   6.062  0.0609  0.4645  0.5728
 4231SOL    HW113592   3.778   5.558   6.146 -0.6928 -0.4477  0.0677
 4231SOL    HW213593   3.928   5.540   6.083 -0.3044 -0.7392  1.0596
 4232SOL     OW13594   2.146   5.577   1.864  0.9439  0.1062  0.0021
 4232SOL    HW113595   2.121   5.628   1.781  1.6000 -1.7822 -1.4333
 4232SOL    HW213596   2.244   5.592   1.883  1.3131 -1.1157 -0.8396
 4233SOL     OW13597   3.786   3.688   6.747 -0.0065 -0.7807  0.1314
 4233SOL    HW113598   3.807   3.736   6.832 -0.3687  0.0596 -0.2388
 4233SOL    HW213599   3.764   3.755   6.676  1.7919 -1.3783 -1.0563
 4234SOL     OW13600   3.163   4.484   5.333  0.1149 -0.0932  0.5367
 4234SOL    HW113601   3.081   4.473   5.276 -1.2967 -0.9868  2.5875
 4234SOL    HW213602   3.206   4.571   5.313  0.5634 -0.9530 -2.8737
 4235SOL     OW13603   0.005   3.267   4.971  0.1732  0.0991 -0.4926
 4235SOL    HW113604  -0.029   3.203   4.902 -1.5832 -0.1014  0.4962
 4235SOL    HW213605  -0.071   3.323   5.005  1.4322  1.8656 -0.4131
 4236SOL     OW13606   1.532   2.664   4.844 -0.2780  0.0681  0.6556
 4236SOL    HW113607   1.602   2.613   4.895 -0.2004  1.7449  2.3382
 4236SOL    HW213608   1.512   2.750   4.892 -2.8915  0.0355 -0.2530
 4237SOL     OW13609   6.936   3.973   3.647 -0.7002  1.0997 -0.0612
 4237SOL    HW113610   6.917   4.051   3.707 -1.4507  1.5230 -0.8402
 4237SOL    HW213611   6.949   4.004   3.553 -0.5505  0.3266 -0.3101
 4238SOL     OW13612   4.591   4.396   4.564 -0.2546 -0.7503 -0.4681
 4238SOL    HW113613   4.532   4.453   4.507 -0.0014  0.1654  0.1600
 4238SOL    HW213614   4.544   4.375   4.650  0.6592  0.7957  0.4532
 4239SOL     OW13615   7.015   6.253   5.329 -0.0566 -1.2059  0.3560
 4239SOL    HW113616   6.938   6.310   5.357 -1.0724 -1.1499 -2.3076
 4239SOL    HW213617   7.000   6.159   5.360 -0.4493 -0.9075  1.1039
 4240SOL     OW13618   2.505   4.601   6.608 -0.1138  0.1482  0.4208
 4240SOL    HW113619   2.502   4.568   6.514 -0.9192 -2.0214  1.1307
 4240SOL    HW213620   2.585   4.659   6.621 -0.3937  1.1074 -1.7566
 4241SOL     OW13621   2.364   2.461   0.572 -0.1364  0.8064 -0.0423
 4241SOL    HW113622   2.305   2.441   0.494  1.2490 -1.6154 -0.5636
 4241SOL    HW213623   2.438   2.522   0.543 -0.7328  1.5237 -0.0888
 4242SOL     OW13624   3.739   0.644   2.312  0.0352 -0.0906 -0.4036
 4242SOL    HW113625   3.784   0.683   2.232  1.5734  1.2471  1.0306
 4242SOL    HW213626   3.644   0.674   2.314  0.3026  0.8812 -1.0986
 4243SOL     OW13627   0.770   3.564   2.774 -0.4239 -0.2751 -0.2691
 4243SOL    HW113628   0.737   3.658   2.768 -1.2781 -0.5480 -0.0378
 4243SOL    HW213629   0.855   3.555   2.722  2.6978  1.9184  3.8134
 4244SOL     OW13630   2.300   0.623   6.976  0.2236 -0.2304 -0.0732
 4244SOL    HW113631   2.298   0.582   7.067 -1.1416  0.2981  0.1603
 4244SOL    HW213632   2.225   0.689   6.968  1.7733  1.5523 -0.7429
 4245SOL     OW13633   5.379   0.676   0.851  0.3944  0.6687 -0.5184
 4245SOL    HW113634   5.304   0.736   0.878 -0.1924  0.8091 -2.2821
 4245SOL    HW213635   5.345   0.607   0.786  1.4927 -0.2237 -0.1786
 4246SOL     OW13636   4.448   6.773   3.617 -0.9071 -0.1595 -0.3020
 4246SOL    HW113637   4.359   6.730   3.629 -0.0787 -2.2370 -1.2279
 4246SOL    HW213638   4.514   6.732   3.680 -0.4223  0.9048 -0.0830
 4247SOL     OW13639   2.022   4.933   5.959  0.0579  0.0527 -0.0525
 4247SOL    HW113640   1.981   4.991   5.889  1.9796  1.1087 -0.3917
 4247SOL    HW213641   2.001   4.837   5.940 -1.2966  0.4659 -0.7776
 4248SOL     OW13642   2.871   6.699   2.570  0.1818 -0.2577  0.0476
 4248SOL    HW113643   2.893   6.630   2.639 -1.3770 -0.1165  0.7128
 4248SOL    HW213644   2.913   6.673   2.483  0.5136 -1.4677  0.5416
 4249SOL     OW13645   5.661   6.330   5.484  0.6802 -0.0211  0.0392
 4249SOL    HW113646   5.574   6.365   5.520  0.3151  1.1799 -1.8661
 4249SOL    HW213647   5.731   6.402   5.490  1.1223 -0.4460  0.0885
 4250SOL     OW13648   1.289   6.724   5.867 -0.1942  0.2802 -0.0179
 4250SOL    HW113649   1.360   6.718   5.937  0.0418  0.0174 -0.2747
 4250SOL    HW213650   1.200   6.703   5.908 -0.5063  2.9027  0.8377
 4251SOL     OW13651   4.903   6.667   5.534  0.3563 -0.5094  0.5454
 4251SOL    HW113652   4.959   6.651   5.452  1.4448 -0.6754  1.2899
 4251SOL    HW213653   4.892   6.581   5.584 -0.7545 -0.5167  0.3022
 4252SOL     OW13654   0.075   6.465   6.351 -0.5581 -0.1982  0.1083
 4252SOL    HW113655   0.173   6.467   6.371 -0.0325  0.8438 -2.1878
 4252SOL    HW213656   0.023   6.480   6.435  1.3153  1.1488  1.1060
 4253SOL     OW13657   2.222   6.365   3.431  0.0281 -0.3148  0.6411
 4253SOL    HW113658   2.186   6.386   3.522  0.9485 -0.0590  0.9509
 4253SOL    HW213659   2.277   6.282   3.435  1.4957  0.6289  0.6928
 4254SOL     OW13660   0.179   2.134   4.844 -0.3253 -0.1382  0.2652
 4254SOL    HW113661   0.191   2.039   4.872 -0.3046 -0.1499  0.2168
 4254SOL    HW213662   0.219   2.147   4.754  0.0303  0.0128  0.4419
 4255SOL     OW13663   2.109   3.071   4.166  0.2389 -0.5419  0.8686
 4255SOL    HW113664   2.104   3.130   4.247 -0.4548 -0.1899  0.5802
 4255SOL    HW213665   2.166   2.991   4.186  0.3310 -0.3030  1.5986
 4256SOL     OW13666   6.005   6.692   0.457  0.1513 -0.1396  0.1091
 4256SOL    HW113667   5.950   6.650   0.385  1.1444 -1.0993 -0.1277
 4256SOL    HW213668   5.945   6.734   0.525 -0.8175  0.0449 -0.8366
 4257SOL     OW13669   0.242   0.643   2.724 -0.2003  0.2509  0.2317
 4257SOL    HW113670   0.148   0.623   2.751 -0.9474  0.3175 -2.0988
 4257SOL    HW213671   0.270   0.730   2.763 -2.2413  1.7541 -1.3907
 4258SOL     OW13672   3.147   5.512   1.718  0.6088  0.0731  0.4057
 4258SOL    HW113673   3.143   5.455   1.635  0.2897 -2.1301  1.8345
 4258SOL    HW213674   3.124   5.606   1.695 -2.7735 -1.0404 -1.5192
 4259SOL     OW13675   1.199   0.076   0.202 -0.1556 -1.0179  0.3575
 4259SOL    HW113676   1.249   0.159   0.177 -1.2927 -0.3446  0.2517
 4259SOL    HW213677   1.245  -0.004   0.161  1.0010 -0.4685  0.5422
 4260SOL     OW13678   5.406   1.463   5.244  0.4453  0.3595 -0.0977
 4260SOL    HW113679   5.481   1.505   5.193  1.0254  1.6288  1.7147
 4260SOL    HW213680   5.321   1.511   5.222  0.3103 -0.4179 -1.3720
 4261SOL     OW13681   2.415   6.017   2.766 -0.3145 -0.0208  0.1106
 4261SOL    HW113682   2.350   6.085   2.734 -0.0705 -0.7701 -2.1386
 4261SOL    HW213683   2.503   6.030   2.720  0.7490  0.0949  2.0507
 4262SOL     OW13684   2.658   4.884   6.389 -0.1992 -0.4652 -0.0540
 4262SOL    HW113685   2.747   4.840   6.393  0.6520  1.2244  0.4547
 4262SOL    HW213686   2.647   4.945   6.467  0.5219  3.5159 -2.7542
 4263SOL     OW13687   4.459   0.779   0.859 -0.7725  0.3955 -0.7876
 4263SOL    HW113688   4.475   0.843   0.784 -0.7709  0.2316 -0.9267
 4263SOL    HW213689   4.407   0.825   0.931  2.4678  1.8344  0.8775
 4264SOL     OW13690   4.828   0.797   7.007 -0.0727  0.6015 -0.2776
 4264SOL    HW113691   4.866   0.717   6.961 -0.3765 -0.0294  0.5461
 4264SOL    HW213692   4.730   0.783   7.023  0.2994  0.1098  1.9202
 4265SOL     OW13693   4.326   6.464   5.270 -0.0777 -0.2176  0.9575
 4265SOL    HW113694   4.357   6.370   5.280 -0.5946 -0.5658 -0.4349
 4265SOL    HW213695   4.299   6.480   5.175 -1.2529  0.9462  1.4572
 4266SOL     OW13696   1.670   3.236   3.463 -0.1532 -0.0473  0.0259
 4266SOL    HW113697   1.753   3.193   3.497 -1.0891 -1.6789  0.3500
 4266SOL    HW213698   1.664   3.223   3.364 -0.1301 -0.1135  0.0332
 4267SOL     OW13699   2.219   2.385   3.339  0.6394 -0.2783 -0.5686
 4267SOL    HW113700   2.194   2.432   3.254  1.0750 -1.1909 -1.2219
 4267SOL    HW213701   2.283   2.311   3.318  2.5173  0.8851  0.8502
 4268SOL     OW13702   0.374   3.941   4.846 -0.4123  0.4048  0.8905
 4268SOL    HW113703   0.428   3.868   4.805 -1.1500 -1.6054  3.2599
 4268SOL    HW213704   0.300   3.967   4.784 -0.4377 -1.2217  0.1910
 4269SOL     OW13705   1.775   2.977   3.271  0.4604 -0.0663  0.5631
 4269SOL    HW113706   1.796   2.968   3.368  2.7331 -1.5265  0.0154
 4269SOL    HW213707   1.725   3.062   3.255 -0.4943 -0.1056  3.0625
 4270SOL     OW13708   5.362   3.548   0.181 -0.2554  0.1802 -0.2293
 4270SOL    HW113709   5.374   3.573   0.277  1.9609 -0.1749 -0.3613
 4270SOL    HW213710   5.295   3.474   0.174  1.7323 -1.9452  1.4255
 4271SOL     OW13711   6.795   6.276   6.780  0.0735  0.3875  0.0637
 4271SOL    HW113712   6.821   6.191   6.826 -1.5240 -1.0524 -1.5469
 4271SOL    HW213713   6.878   6.327   6.756  1.0283 -0.0665  2.1253
 4272SOL     OW13714   5.759   2.761   5.398 -0.0393  0.6330 -0.1404
 4272SOL    HW113715   5.702   2.781   5.478  0.5987  0.7928  0.2793
 4272SOL    HW213716   5.824   2.836   5.384 -0.1346  0.5989 -0.8037
 4273SOL     OW13717   3.298   5.944   3.354  0.1058 -0.0914 -0.3690
 4273SOL    HW113718   3.376   5.998   3.387  1.5980 -0.9986 -2.2020
 4273SOL    HW213719   3.266   5.981   3.267 -0.5592 -0.6128 -0.3529
 4274SOL     OW13720   5.818   1.792   2.741 -0.2054  0.0479  0.0150
 4274SOL    HW113721   5.722   1.809   2.721 -0.0559 -0.5293 -1.3232
 4274SOL    HW213722   5.830   1.699   2.773  0.0251 -0.2321 -0.8537
 4275SOL     OW13723   5.246   0.815   3.608  0.5955  0.4405 -0.3097
 4275SOL    HW113724   5.178   0.803   3.536 -0.0756 -2.5581  0.6651
 4275SOL    HW213725   5.208   0.782   3.695  2.7114  0.2238  0.5902
 4276SOL     OW13726   2.012   1.539   3.931 -0.2843 -0.0847 -0.1944
 4276SOL    HW113727   2.110   1.551   3.946 -0.3940 -0.0798  0.5613
 4276SOL    HW213728   1.967   1.628   3.933 -0.7720 -0.2810  3.0351
 4277SOL     OW13729   5.893   4.982   3.328 -0.2461  0.0151  0.1202
 4277SOL    HW113730   5.911   4.991   3.230 -1.2369 -0.5655 -0.1329
 4277SOL    HW213731   5.967   4.930   3.371  0.1198  0.1443 -0.3494
 4278SOL     OW13732   5.278   0.826   1.615  0.5264 -0.6739  0.5239
 4278SOL    HW113733   5.272   0.798   1.711 -1.1030 -2.0177  0.0768
 4278SOL    HW213734   5.255   0.748   1.557 -1.5670  0.8957 -0.8788
 4279SOL     OW13735   1.562   3.196   2.930 -0.6617 -0.6207 -0.3648
 4279SOL    HW113736   1.590   3.204   3.025  0.2895  1.0253 -0.7300
 4279SOL    HW213737   1.512   3.278   2.903  0.5999 -0.2428 -1.7187
 4280SOL     OW13738   1.590   6.923   4.086 -0.0088  0.6676  0.3063
 4280SOL    HW113739   1.679   6.885   4.061 -0.0218  0.7520  0.1281
 4280SOL    HW213740   1.587   6.940   4.184  0.6431  1.8930  0.1305
 4281SOL     OW13741   6.650   0.784   1.233  0.2513  0.2577  0.0778
 4281SOL    HW113742   6.657   0.857   1.302  0.6522 -0.1674  0.4953
 4281SOL    HW213743   6.741   0.751   1.211  0.0720 -0.0814 -0.1520
 4282SOL     OW13744   5.486   4.497   0.815 -0.4526  0.4194  0.1899
 4282SOL    HW113745   5.429   4.415   0.808 -0.6486  0.5284  0.4694
 4282SOL    HW213746   5.453   4.565   0.749  0.7640 -0.3321 -1.2496
 4283SOL     OW13747   6.135   4.330   5.863  0.4308  0.5828 -0.0420
 4283SOL    HW113748   6.191   4.248   5.872  1.0347  0.9640 -0.2755
 4283SOL    HW213749   6.047   4.316   5.909  0.1527 -0.5293 -0.8742
 4284SOL     OW13750   4.384   5.563   6.640 -0.1030 -0.2328  0.2533
 4284SOL    HW113751   4.343   5.626   6.574  0.7486 -0.3550 -0.4048
 4284SOL    HW213752   4.388   5.608   6.730  0.6056  0.7206 -0.2327
 4285SOL     OW13753   3.968   2.407   6.760  0.7146 -0.7842 -0.1695
 4285SOL    HW113754   3.968   2.481   6.693 -1.1525 -0.1916  0.4181
 4285SOL    HW213755   3.896   2.423   6.828 -0.4628 -3.6248 -0.5930
 4286SOL     OW13756   5.921   5.012   4.433 -0.2922 -0.4034  0.7101
 4286SOL    HW113757   5.826   5.041   4.441 -0.1397  0.6413 -0.7744
 4286SOL    HW213758   5.925   4.920   4.395 -0.7082 -0.3474  0.5231
 4287SOL     OW13759   6.353   0.363   0.384 -0.2317  0.3669 -0.1440
 4287SOL    HW113760   6.334   0.303   0.462  1.7774  2.1071  1.8644
 4287SOL    HW213761   6.417   0.318   0.322  0.2149 -0.0791  0.6235
 4288SOL     OW13762   5.253   5.139   1.399  0.1716 -0.0690  0.1027
 4288SOL    HW113763   5.339   5.092   1.381 -0.5550 -0.8262 -1.5973
 4288SOL    HW213764   5.245   5.156   1.497  1.5799 -1.3120  0.4781
 4289SOL     OW13765   1.338   4.795   6.670 -0.6342 -0.2198 -0.0687
 4289SOL    HW113766   1.372   4.888   6.680 -1.1209 -0.0731  0.2578
 4289SOL    HW213767   1.353   4.763   6.577  0.1908 -0.0828  0.0102
 4290SOL     OW13768   5.503   1.809   2.978  0.0627  0.1868 -0.1150
 4290SOL    HW113769   5.516   1.907   2.998  0.3368  0.8207 -3.0572
 4290SOL    HW213770   5.543   1.755   3.053  1.4836  2.2979  0.7650
 4291SOL     OW13771   6.201   3.052   4.949  0.1955  0.3418  0.1683
 4291SOL    HW113772   6.285   3.092   4.913  0.2409  0.3232  0.2530
 4291SOL    HW213773   6.217   3.019   5.042  0.3927 -0.6257 -0.1952
 4292SOL     OW13774   0.273   1.016   6.979 -0.2512  0.5969  0.0829
 4292SOL    HW113775   0.236   0.929   6.946 -0.2977  0.0069  1.6157
 4292SOL    HW213776   0.372   1.015   6.973 -0.3021  0.9272 -1.0283
 4293SOL     OW13777   5.339   1.206   6.366  0.2753  0.1630  0.0140
 4293SOL    HW113778   5.245   1.197   6.400  0.6139  2.6528  1.9335
 4293SOL    HW213779   5.402   1.166   6.432  0.7757  2.5589  1.0843
 4294SOL     OW13780   2.363   6.640   0.210 -0.4702 -0.5448 -0.3548
 4294SOL    HW113781   2.460   6.618   0.213 -0.2619  0.2402 -0.8201
 4294SOL    HW213782   2.341   6.680   0.121 -1.1363 -0.3782 -0.1219
 4295SOL     OW13783   4.321   2.202   3.077  0.3969 -0.2996  0.2892
 4295SOL    HW113784   4.223   2.181   3.075  0.0351  1.3105 -0.2499
 4295SOL    HW213785   4.371   2.123   3.113 -0.8579 -1.9739 -1.4642
 4296SOL     OW13786   2.033   6.416   2.823  0.4830 -0.4340  1.2612
 4296SOL    HW113787   2.027   6.386   2.919 -3.3869  0.4517  1.4883
 4296SOL    HW213788   1.949   6.389   2.775  0.6054  2.4021 -0.8149
 4297SOL     OW13789   4.331   3.918   0.787  0.0024  0.5211 -0.0243
 4297SOL    HW113790   4.377   3.841   0.743  1.5942  0.7674  1.0800
 4297SOL    HW213791   4.384   4.002   0.770 -1.0175  1.1607 -0.1569
 4298SOL     OW13792   1.085   6.551   6.491  0.1848 -0.1766 -0.6162
 4298SOL    HW113793   1.091   6.610   6.411  2.1409  0.4215 -0.0990
 4298SOL    HW213794   1.124   6.461   6.470  2.2733  0.5135  0.0579
 4299SOL     OW13795   6.128   4.603   6.367  0.2267  0.3623  0.0021
 4299SOL    HW113796   6.104   4.663   6.291  0.6423 -3.2620 -3.2655
 4299SOL    HW213797   6.225   4.578   6.362  0.4599  0.6143  2.2323
 4300SOL     OW13798   3.412   1.164   2.019  0.2900  0.3851  1.0012
 4300SOL    HW113799   3.313   1.173   2.030  0.5365  1.7917  2.4730
 4300SOL    HW213800   3.458   1.199   2.101  1.9682 -2.1074  1.2226
 4301SOL     OW13801   1.563   0.320   2.828  0.3923 -0.0265  0.7414
 4301SOL    HW113802   1.515   0.404   2.854  0.8317  0.0619  1.2847
 4301SOL    HW213803   1.579   0.320   2.729 -0.3845  0.1203  0.6122
 4302SOL     OW13804   3.710   4.157   5.812  0.0521 -0.0923  0.0220
 4302SOL    HW113805   3.742   4.076   5.763 -0.1343  0.4919 -1.0983
 4302SOL    HW213806   3.787   4.221   5.824  0.2297 -0.4741  1.0190
 4303SOL     OW13807   2.737   5.112   2.666  0.0276 -0.0486  0.3485
 4303SOL    HW113808   2.655   5.122   2.610  1.1184  0.5036 -1.2114
 4303SOL    HW213809   2.818   5.130   2.611  1.1632  0.6351  2.1356
 4304SOL     OW13810   2.604   3.886   0.968 -0.4457  0.2970  0.2518
 4304SOL    HW113811   2.699   3.897   0.941 -0.2635 -1.8427 -0.0981
 4304SOL    HW213812   2.558   3.975   0.965  1.1803  1.1409 -0.8885
 4305SOL     OW13813   2.783   1.482   6.254  0.2480  0.2648  0.5217
 4305SOL    HW113814   2.877   1.448   6.250  0.4700  0.8752  0.3322
 4305SOL    HW213815   2.739   1.467   6.165 -0.5643 -1.9876  1.2407
 4306SOL     OW13816   0.379   4.382   5.701 -0.4199  0.3357  0.2094
 4306SOL    HW113817   0.388   4.452   5.630  2.8708 -0.7247 -0.6067
 4306SOL    HW213818   0.435   4.407   5.780  1.1702 -1.4488 -0.2747
 4307SOL     OW13819   6.848   1.990   3.705 -0.4308 -0.2521 -0.5734
 4307SOL    HW113820   6.924   1.929   3.729 -1.3852 -2.0195 -1.7917
 4307SOL    HW213821   6.813   1.964   3.615 -1.2715  1.7616 -0.8645
 4308SOL     OW13822   3.620   6.996   6.973 -0.2075  0.3417  0.0408
 4308SOL    HW113823   3.580   6.977   7.062 -0.6656 -0.0161 -0.2337
 4308SOL    HW213824   3.717   7.019   6.984 -0.3641  0.7134  0.6637
 4309SOL     OW13825   3.193   3.315   6.786  0.0559  0.6269  0.6336
 4309SOL    HW113826   3.222   3.248   6.717  0.0625  0.8523  0.4138
 4309SOL    HW213827   3.230   3.290   6.875  1.3402  1.1615  0.2818
 4310SOL     OW13828   4.481   1.660   5.175 -0.0232  0.4035  0.3710
 4310SOL    HW113829   4.401   1.719   5.172 -0.0771  0.3903  1.4366
 4310SOL    HW213830   4.463   1.581   5.233  0.6585  0.2365  0.3729
 4311SOL     OW13831   2.965   0.751   6.255  0.5998 -0.4606 -0.2332
 4311SOL    HW113832   2.951   0.827   6.318 -1.5622 -2.0239  1.3643
 4311SOL    HW213833   2.892   0.751   6.187  0.5988 -1.0677 -0.2376
 4312SOL     OW13834   0.186   2.686   4.595 -0.4410 -0.6050 -0.1832
 4312SOL    HW113835   0.247   2.716   4.668  1.3892 -0.3068 -1.7487
 4312SOL    HW213836   0.126   2.614   4.629  0.3671 -0.4973  1.5905
 4313SOL     OW13837   0.307   1.999   0.669 -0.2722  0.0953  0.1687
 4313SOL    HW113838   0.291   1.911   0.626  0.6657 -0.1228  0.2425
 4313SOL    HW213839   0.308   1.988   0.769  1.8954 -0.2286  0.1663
 4314SOL     OW13840   0.900   1.975   5.771 -0.3531  0.2436 -0.1326
 4314SOL    HW113841   0.808   2.008   5.794 -0.5418  0.3322 -0.9756
 4314SOL    HW213842   0.915   1.885   5.811 -0.8527  0.1797 -0.0883
 4315SOL     OW13843   3.094   2.469   0.270  0.2920  0.1315 -0.4437
 4315SOL    HW113844   3.128   2.537   0.336 -0.4205  1.3461 -1.2773
 4315SOL    HW213845   3.056   2.391   0.319  3.7993 -1.1067  0.5353
 4316SOL     OW13846   5.307   3.322   2.040  0.5773  0.2759 -0.0186
 4316SOL    HW113847   5.357   3.299   1.956 -1.4353 -1.6618 -0.7928
 4316SOL    HW213848   5.251   3.403   2.025  0.4091  0.0778 -0.4634
 4317SOL     OW13849   4.357   0.294   2.889  0.4629  0.0100 -0.6948
 4317SOL    HW113850   4.389   0.389   2.892 -0.9357  0.4747  1.5637
 4317SOL    HW213851   4.262   0.290   2.917  0.8616 -2.2073  0.5441
 4318SOL     OW13852   1.613   5.377   3.945 -0.3351 -0.2567 -0.2251
 4318SOL    HW113853   1.672   5.360   3.866 -0.3160 -1.9501  0.1067
 4318SOL    HW213854   1.532   5.318   3.939 -0.1250 -0.7357  1.2174
 4319SOL     OW13855   1.567   3.230   1.873  0.0713  0.0781  0.5425
 4319SOL    HW113856   1.634   3.173   1.920  0.8102 -0.5445 -1.1647
 4319SOL    HW213857   1.604   3.323   1.861 -1.1027  0.9864  3.2571
 4320SOL     OW13858   5.347   1.331   1.207  0.2217 -0.2806 -0.1425
 4320SOL    HW113859   5.417   1.355   1.139 -0.6149  0.1268 -0.8741
 4320SOL    HW213860   5.337   1.407   1.272  0.6661 -0.4666  0.1522
 4321SOL     OW13861   0.527   5.649   6.176 -0.6904 -0.0001 -0.2752
 4321SOL    HW113862   0.449   5.670   6.118 -0.1257  1.3554 -0.5948
 4321SOL    HW213863   0.529   5.551   6.197 -2.2263 -0.1136 -0.5890
 4322SOL     OW13864   1.964   1.266   2.215  0.2797 -0.5611 -0.4053
 4322SOL    HW113865   1.872   1.238   2.241 -0.8874 -0.8297 -4.3059
 4322SOL    HW213866   2.029   1.195   2.243 -0.1673  0.5718  4.3108
 4323SOL     OW13867   5.202   2.052   0.196 -0.1494  0.4072  0.0336
 4323SOL    HW113868   5.131   2.107   0.241 -0.4226 -0.0831  0.2108
 4323SOL    HW213869   5.167   2.015   0.111  0.4340  1.4947 -0.6997
 4324SOL     OW13870   1.231   4.090   6.549  0.3212 -0.8558 -0.1477
 4324SOL    HW113871   1.298   4.162   6.532  0.1546 -0.7974 -0.5720
 4324SOL    HW213872   1.140   4.130   6.555  0.2555 -1.0034 -0.1476
 4325SOL     OW13873   3.029   1.031   0.296  0.2511  0.3699 -0.5900
 4325SOL    HW113874   2.967   1.109   0.308  1.1194  1.2463 -1.6448
 4325SOL    HW213875   3.115   1.063   0.257  1.4386 -0.8102  0.9638
 4326SOL     OW13876   5.099   3.697   3.164 -0.1133  0.4543  0.0255
 4326SOL    HW113877   5.065   3.604   3.158 -3.1082  1.3504  1.1739
 4326SOL    HW213878   5.195   3.700   3.134  0.0021 -2.8717 -0.2930
 4327SOL     OW13879   2.534   6.660   3.822 -0.0208  0.2304  0.2703
 4327SOL    HW113880   2.484   6.654   3.908  0.3199  0.8311  0.5156
 4327SOL    HW213881   2.486   6.722   3.759  1.2152  2.0969  1.0906
 4328SOL     OW13882   0.675   0.761   1.064 -0.2967  0.0145  0.1084
 4328SOL    HW113883   0.701   0.846   1.018 -1.3757 -0.7188 -2.0134
 4328SOL    HW213884   0.661   0.690   0.995  2.7073 -2.5654  1.8993
 4329SOL     OW13885   6.978   5.002   6.631 -0.1313  0.0500  0.3007
 4329SOL    HW113886   6.970   5.098   6.603  0.3329 -0.5612 -2.1541
 4329SOL    HW213887   7.052   4.994   6.698  0.6749  1.2479 -0.3943
 4330SOL     OW13888   2.553   5.822   5.818 -0.3127 -0.5460  0.3927
 4330SOL    HW113889   2.480   5.873   5.771 -0.8522  0.5554  2.2882
 4330SOL    HW213890   2.637   5.827   5.765 -1.1753 -0.3494 -1.0000
 4331SOL     OW13891   4.963   1.807   2.314 -0.4471 -0.3664  0.3653
 4331SOL    HW113892   4.932   1.713   2.331  1.7123 -1.2835 -0.2897
 4331SOL    HW213893   4.929   1.837   2.225 -0.5557 -0.8242  0.2453
 4332SOL     OW13894   6.208   0.746   6.683 -0.2559 -0.1348  0.2722
 4332SOL    HW113895   6.122   0.795   6.670 -1.6568 -2.3918  0.4233
 4332SOL    HW213896   6.272   0.804   6.733 -1.1725  2.1030 -1.0226
 4333SOL     OW13897   4.942   2.038   6.488  0.3941  0.2943 -0.0509
 4333SOL    HW113898   5.029   2.026   6.440  0.7391 -2.7000  1.0834
 4333SOL    HW213899   4.872   1.980   6.444 -0.4884  1.0684  0.3048
 4334SOL     OW13900   1.445   2.468   3.775  0.0409  0.1654  0.7455
 4334SOL    HW113901   1.358   2.509   3.748  0.1906  1.3387  1.9203
 4334SOL    HW213902   1.504   2.538   3.815  2.5390 -0.0469 -2.2243
 4335SOL     OW13903   2.493   2.038   0.381 -0.2453 -0.2960  0.2445
 4335SOL    HW113904   2.552   2.117   0.364 -0.5758 -0.1797 -0.3913
 4335SOL    HW213905   2.397   2.066   0.372 -0.6265  0.2514  4.1329
 4336SOL     OW13906   1.426   6.525   4.378 -0.3218  0.4570 -0.2361
 4336SOL    HW113907   1.491   6.467   4.330 -0.4709 -0.3697  0.5451
 4336SOL    HW213908   1.333   6.500   4.351 -0.3516  2.2360 -2.0478
 4337SOL     OW13909   1.287   4.747   3.086 -0.0370 -0.5430  0.0846
 4337SOL    HW113910   1.239   4.821   3.039  0.7695 -0.7887 -1.2066
 4337SOL    HW213911   1.226   4.668   3.095 -0.2937 -0.4006 -0.3415
 4338SOL     OW13912   3.220   3.300   5.167  0.9763  0.8737 -0.2191
 4338SOL    HW113913   3.310   3.342   5.166  0.8989  1.0459 -0.0307
 4338SOL    HW213914   3.161   3.347   5.233  0.9504  0.3405  0.1449
 4339SOL     OW13915   4.774   3.974   5.772 -0.6862 -0.6671 -0.1865
 4339SOL    HW113916   4.721   3.893   5.747  1.7408 -1.5787 -3.1884
 4339SOL    HW213917   4.855   3.946   5.825 -0.4708 -0.0524 -0.1784
 4340SOL     OW13918   6.195   2.255   6.813 -0.2760  0.7328 -0.7432
 4340SOL    HW113919   6.123   2.186   6.797  0.5650 -0.2463 -0.4238
 4340SOL    HW213920   6.178   2.301   6.900 -0.0640 -0.0990 -0.2519
 4341SOL     OW13921   0.127   6.391   0.757 -0.0181 -0.6514 -0.0204
 4341SOL    HW113922   0.148   6.293   0.748 -1.7381 -1.0494 -0.0950
 4341SOL    HW213923   0.032   6.402   0.786  0.2533  1.0128  0.3528
 4342SOL     OW13924   6.251   3.125   0.946  0.3325  0.1991 -0.1552
 4342SOL    HW113925   6.322   3.058   0.970  1.0571  1.3973  1.2209
 4342SOL    HW213926   6.213   3.102   0.857  1.8849 -0.9399 -0.5812
 4343SOL     OW13927   4.831   5.605   6.267  0.0682  0.2773 -0.8548
 4343SOL    HW113928   4.797   5.692   6.304 -2.3840 -1.3509  0.9852
 4343SOL    HW213929   4.771   5.575   6.192 -0.1005 -0.6151 -0.3738
 4344SOL     OW13930   0.993   5.125   3.543  0.3068 -0.0075 -0.1922
 4344SOL    HW113931   1.064   5.089   3.482 -1.0796 -0.9421 -1.3131
 4344SOL    HW213932   0.988   5.225   3.534 -0.2263 -0.1630 -2.0621
 4345SOL     OW13933   4.133   2.495   1.534  0.4100 -0.3432 -0.4482
 4345SOL    HW113934   4.178   2.423   1.587  1.4992  0.8361  0.2935
 4345SOL    HW213935   4.089   2.560   1.596  0.6372  0.3875 -1.0380
 4346SOL     OW13936   0.653   2.513   0.096  0.6870 -0.0364 -0.3827
 4346SOL    HW113937   0.558   2.524   0.124  0.7084  2.3898 -1.0469
 4346SOL    HW213938   0.700   2.452   0.160 -0.9019 -0.0458  0.8433
 4347SOL     OW13939   5.754   6.853   1.265  0.5179 -0.1891 -0.3882
 4347SOL    HW113940   5.717   6.870   1.174  0.8815  0.4578 -0.4226
 4347SOL    HW213941   5.826   6.785   1.259  0.5581 -0.1306 -0.5898
 4348SOL     OW13942   5.877   5.899   6.450  0.1087  0.0881 -0.3122
 4348SOL    HW113943   5.906   5.956   6.527  1.3647 -0.8683 -0.0250
 4348SOL    HW213944   5.878   5.953   6.366  3.7190  0.0213 -0.4924
 4349SOL     OW13945   0.016   4.039   5.522 -0.0109  0.2040  0.2089
 4349SOL    HW113946  -0.034   4.046   5.608  0.2055 -0.3467  0.3858
 4349SOL    HW213947  -0.023   3.965   5.467 -0.1681  0.5722 -0.1838
 4350SOL     OW13948   4.938   0.417   1.954  0.1755  0.0175 -0.1517
 4350SOL    HW113949   4.867   0.366   2.002  0.3539 -0.0826  0.0078
 4350SOL    HW213950   4.902   0.505   1.926 -0.4477 -0.5855 -1.3123
 4351SOL     OW13951   1.268   6.883   1.816  0.0711 -0.3015 -0.7638
 4351SOL    HW113952   1.238   6.828   1.894  0.3984  1.0472  0.3585
 4351SOL    HW213953   1.233   6.976   1.827 -0.3116 -0.2145 -2.5166
 4352SOL     OW13954   6.366   3.807   1.124  0.2405  0.0661 -0.3777
 4352SOL    HW113955   6.406   3.797   1.033 -0.2826 -1.4259 -0.4815
 4352SOL    HW213956   6.421   3.756   1.190 -0.6675 -0.8422 -0.2915
 4353SOL     OW13957   0.817   4.841   0.409 -0.3840 -0.1011  0.0283
 4353SOL    HW113958   0.725   4.805   0.395 -1.3122  1.8766  0.6790
 4353SOL    HW213959   0.874   4.820   0.329 -1.8567 -0.0184 -1.0775
 4354SOL     OW13960   0.012   3.690   4.341  0.0821 -0.6427 -0.0739
 4354SOL    HW113961   0.048   3.600   4.363  1.5971  0.3049  1.6716
 4354SOL    HW213962   0.065   3.730   4.266  1.1892 -0.1996  0.9100
 4355SOL     OW13963   3.216   5.005   4.648 -0.3273 -0.6342 -0.0743
 4355SOL    HW113964   3.184   5.050   4.564  1.4421  1.5592  0.3241
 4355SOL    HW213965   3.137   4.973   4.701 -1.5494 -0.4307 -1.6857
 4356SOL     OW13966   6.065   2.065   5.202 -0.2331 -0.1785  0.1981
 4356SOL    HW113967   6.075   2.027   5.109  0.2871 -0.3324  0.3117
 4356SOL    HW213968   6.136   2.027   5.261 -0.5209 -0.0273  0.6473
 4357SOL     OW13969   5.679   4.655   3.848  0.5274  0.0664  0.2797
 4357SOL    HW113970   5.608   4.606   3.797  1.6971 -0.7110 -0.6555
 4357SOL    HW213971   5.699   4.606   3.933 -0.3858  0.5541  0.7825
 4358SOL     OW13972   3.475   6.904   0.197  0.0709 -0.2706  0.0404
 4358SOL    HW113973   3.439   6.881   0.106  0.5763  0.8219 -0.4572
 4358SOL    HW213974   3.520   6.824   0.236 -0.3635 -0.8228 -0.5688
 4359SOL     OW13975   2.575   4.137   1.287 -0.1812  0.0547 -0.1666
 4359SOL    HW113976   2.513   4.144   1.208 -0.4089 -1.6136 -0.1639
 4359SOL    HW213977   2.551   4.058   1.342  1.8985 -0.5968 -0.1033
 4360SOL     OW13978   1.293   6.107   4.986 -0.2974 -0.1819  0.4865
 4360SOL    HW113979   1.310   6.026   5.042  0.7392  0.6100  1.3371
 4360SOL    HW213980   1.368   6.118   4.921  0.3682  0.9559  1.4209
 4361SOL     OW13981   3.192   1.110   5.899 -0.1769 -0.2996  0.1541
 4361SOL    HW113982   3.126   1.139   5.829 -1.3699 -0.1751  1.2978
 4361SOL    HW213983   3.229   1.020   5.875 -0.5458 -0.2433 -0.6528
 4362SOL     OW13984   4.966   3.591   2.425 -0.1456 -0.1779  0.1110
 4362SOL    HW113985   4.961   3.545   2.337 -0.6726 -0.7859  0.4493
 4362SOL    HW213986   5.062   3.612   2.446 -0.1172  1.1544 -1.1832
 4363SOL     OW13987   4.450   1.105   4.706 -0.5339 -0.0879 -0.3854
 4363SOL    HW113988   4.510   1.163   4.760  1.3849 -1.2601 -1.1116
 4363SOL    HW213989   4.405   1.038   4.765 -1.2968  0.9261  0.1971
 4364SOL     OW13990   3.109   3.148   4.925 -0.2635  0.7459  0.0964
 4364SOL    HW113991   3.183   3.183   4.982  2.1504 -0.1121 -2.3143
 4364SOL    HW213992   3.142   3.070   4.872 -3.0975 -0.0354 -0.6931
 4365SOL     OW13993   1.762   1.234   1.975  0.2110  0.3763 -0.0467
 4365SOL    HW113994   1.829   1.309   1.973 -1.1544  1.6632  0.1694
 4365SOL    HW213995   1.718   1.231   2.064  1.1890 -1.6090  0.4160
 4366SOL     OW13996   5.631   6.476   4.318  0.7439  0.2654 -0.2022
 4366SOL    HW113997   5.559   6.544   4.308  1.0033  0.3297 -1.8455
 4366SOL    HW213998   5.650   6.433   4.230  2.0619 -0.4371  0.3838
 4367SOL     OW13999   1.041   0.348   2.390 -0.5254  0.5408  0.1313
 4367SOL    HW114000   1.064   0.423   2.328 -2.0851  2.4953  1.7767
 4367SOL    HW214001   0.957   0.303   2.359 -0.8769  1.0055  0.4134
 4368SOL     OW14002   4.335   6.923   3.962 -0.1131 -0.1471  0.9532
 4368SOL    HW114003   4.299   6.858   4.030  0.5231 -1.6663 -0.1062
 4368SOL    HW214004   4.432   6.904   3.947 -0.5618 -0.7860 -1.4099
 4369SOL     OW14005   5.232   3.727   4.093 -0.0887  0.5071  0.0534
 4369SOL    HW114006   5.259   3.715   3.997  0.0202 -0.5319  0.2099
 4369SOL    HW214007   5.194   3.819   4.105  0.0479  0.7084 -0.9461
 4370SOL     OW14008   4.860   6.400   2.171  0.1553  0.2617  0.1811
 4370SOL    HW114009   4.909   6.394   2.258  0.7062 -3.1796 -0.2468
 4370SOL    HW214010   4.924   6.391   2.095 -0.6942 -0.3621 -0.4870
 4371SOL     OW14011   0.987   1.571   1.925 -0.2102  0.2803  0.3941
 4371SOL    HW114012   0.939   1.532   1.846 -0.1557 -0.4719  0.7166
 4371SOL    HW214013   1.034   1.654   1.898 -0.8581  0.4764 -0.1748
 4372SOL     OW14014   2.475   5.304   0.246  0.3276 -0.6715 -0.3055
 4372SOL    HW114015   2.376   5.292   0.236 -0.3534  1.9204  2.0339
 4372SOL    HW214016   2.512   5.229   0.302 -0.8551 -0.2490  1.0982
 4373SOL     OW14017   4.701   0.608   0.568 -0.4025  0.5192 -0.2166
 4373SOL    HW114018   4.780   0.635   0.513 -1.3068  0.8544 -1.3766
 4373SOL    HW214019   4.733   0.567   0.654  1.0586 -0.3876 -1.1435
 4374SOL     OW14020   2.473   6.957   0.745  0.8905 -0.0355  0.2662
 4374SOL    HW114021   2.506   7.039   0.791  1.8281 -0.0028 -0.4487
 4374SOL    HW214022   2.550   6.899   0.718  0.5408  0.5945 -2.4477
 4375SOL     OW14023   4.201   6.777   4.648  0.2314 -0.4931 -0.2740
 4375SOL    HW114024   4.239   6.705   4.706  1.4351  0.4701  0.1820
 4375SOL    HW214025   4.272   6.845   4.629 -0.9500  0.7287 -0.4511
 4376SOL     OW14026   2.082   5.944   6.875 -0.2121 -0.1500 -0.1394
 4376SOL    HW114027   2.046   5.860   6.832 -0.0590  0.0420 -0.6524
 4376SOL    HW214028   2.152   5.984   6.816  1.7990 -1.1899  1.3860
 4377SOL     OW14029   5.836   6.001   5.921 -0.3262 -0.1395 -0.1758
 4377SOL    HW114030   5.767   6.073   5.910 -0.8627 -0.7706 -1.1034
 4377SOL    HW214031   5.893   5.997   5.839 -0.8220 -1.2864 -0.4852
 4378SOL     OW14032   2.015   4.262   6.189 -0.4930  0.0422 -0.0081
 4378SOL    HW114033   1.939   4.202   6.165  0.4161 -1.0002 -0.3809
 4378SOL    HW214034   2.020   4.272   6.288 -3.1091  2.8325 -0.0086
 4379SOL     OW14035   5.909   5.831   6.885  0.2475  0.1819  0.1909
 4379SOL    HW114036   5.985   5.896   6.887  0.4603 -0.0551 -0.1166
 4379SOL    HW214037   5.868   5.825   6.976 -2.1627  3.5099 -0.4949
 4380SOL     OW14038   2.245   1.441   5.002  0.7156  0.3463  0.1462
 4380SOL    HW114039   2.182   1.415   5.075  1.0861 -1.0521 -0.0192
 4380SOL    HW214040   2.331   1.474   5.043  0.5942  0.4113  0.3491
 4381SOL     OW14041   4.808   5.917   5.277 -0.4467 -0.7575  0.0597
 4381SOL    HW114042   4.829   5.904   5.181  0.4924  0.9434 -0.0080
 4381SOL    HW214043   4.816   5.831   5.326  0.5736 -1.3485 -1.1103
 4382SOL     OW14044   5.552   4.665   5.475  0.2484 -0.2909 -0.6407
 4382SOL    HW114045   5.645   4.695   5.456  0.3344 -1.5578 -2.4974
 4382SOL    HW214046   5.493   4.688   5.398 -0.8141 -0.1871  0.1826
 4383SOL     OW14047   0.427   0.339   0.150  0.7435 -0.0814  0.2264
 4383SOL    HW114048   0.390   0.246   0.154  1.6073 -0.4312  0.3539
 4383SOL    HW214049   0.352   0.404   0.139  0.1051 -0.7695  0.3966
 4384SOL     OW14050   3.816   0.133   1.918  0.1301  0.3046 -0.1063
 4384SOL    HW114051   3.747   0.062   1.905  0.3850  0.3135 -1.6703
 4384SOL    HW214052   3.774   0.214   1.959 -0.6281  0.0573 -0.3867
 4385SOL     OW14053   5.449   3.917   5.316  0.2386  0.0732  0.3984
 4385SOL    HW114054   5.469   3.987   5.247  1.5362  0.6721  1.3247
 4385SOL    HW214055   5.426   3.831   5.271 -2.5192  1.3068 -0.8139
 4386SOL     OW14056   0.836   5.341   0.184  0.3394 -0.1425 -0.3116
 4386SOL    HW114057   0.790   5.407   0.245  1.8929  0.1138  0.6252
 4386SOL    HW214058   0.856   5.258   0.235 -1.1121 -1.1734 -1.3453
 4387SOL     OW14059   0.094   2.304   0.814  0.1586 -0.2219  0.5068
 4387SOL    HW114060   0.170   2.259   0.860 -1.0854  0.5955  3.5902
 4387SOL    HW214061   0.058   2.243   0.742  1.3502 -2.1845  1.4936
 4388SOL     OW14062   3.197   1.803   4.685  0.0645  0.1155  0.1669
 4388SOL    HW114063   3.119   1.849   4.643 -1.0425  0.5244  2.5183
 4388SOL    HW214064   3.258   1.769   4.613 -2.1991 -0.1521 -1.7546
 4389SOL     OW14065   0.882   3.093   3.530 -0.4770 -0.1538  0.6686
 4389SOL    HW114066   0.865   2.994   3.532  1.2156 -0.4763  0.6254
 4389SOL    HW214067   0.878   3.129   3.624  2.6846 -1.0249  1.2512
 4390SOL     OW14068   1.192   3.647   1.355  0.1670  0.4366  0.4606
 4390SOL    HW114069   1.165   3.625   1.449  2.5838  0.2824  1.1645
 4390SOL    HW214070   1.275   3.596   1.332 -0.0774  0.9053 -1.5881
 4391SOL     OW14071   2.094   5.961   1.812 -0.2927 -0.1749 -0.1449
 4391SOL    HW114072   2.094   5.941   1.911  0.5292 -1.2293 -0.3347
 4391SOL    HW214073   2.006   5.936   1.773 -0.2651 -0.7411  0.1476
 4392SOL     OW14074   5.866   4.403   4.338 -0.1632  0.1403  0.4889
 4392SOL    HW114075   5.806   4.482   4.326 -0.4475 -0.3487 -1.9722
 4392SOL    HW214076   5.819   4.332   4.389 -0.7837  0.6513  0.6423
 4393SOL     OW14077   4.747   0.874   2.383 -0.0927  0.8751 -0.0359
 4393SOL    HW114078   4.802   0.860   2.465  1.5110  0.0739 -1.2016
 4393SOL    HW214079   4.683   0.949   2.399  1.4055  1.9269  1.3312
 4394SOL     OW14080   4.967   1.738   3.551 -0.6556 -0.2401  0.0037
 4394SOL    HW114081   4.914   1.738   3.636 -2.7785 -0.7995 -1.2381
 4394SOL    HW214082   4.928   1.671   3.488  0.1713  0.9294 -1.8168
 4395SOL     OW14083   5.104   2.995   1.364  0.4342 -0.2767  0.2463
 4395SOL    HW114084   5.136   3.083   1.400 -1.6124  1.1631 -1.2324
 4395SOL    HW214085   5.004   2.990   1.370  0.3973 -1.9391 -0.9503
 4396SOL     OW14086   2.844   1.909   2.745  0.0655 -0.7506 -0.2747
 4396SOL    HW114087   2.884   1.821   2.772  3.1498  0.6535  0.1070
 4396SOL    HW214088   2.884   1.939   2.658  1.3321  1.6122  1.0444
 4397SOL     OW14089   4.018   4.226   0.964  0.5051  0.0617  0.7546
 4397SOL    HW114090   3.951   4.186   1.026  0.9968  0.0763  1.3042
 4397SOL    HW214091   3.996   4.201   0.870 -1.1217  1.2805  0.7681
 4398SOL     OW14092   1.140   5.019   6.581 -0.2076 -0.3685  0.0865
 4398SOL    HW114093   1.089   4.935   6.565 -1.0597  0.4239 -1.5376
 4398SOL    HW214094   1.210   5.003   6.651 -0.2219 -2.4544 -0.3336
 4399SOL     OW14095   3.837   6.113   1.284 -0.0681  0.0692  0.7216
 4399SOL    HW114096   3.928   6.151   1.272 -0.0323 -0.3811 -0.5421
 4399SOL    HW214097   3.827   6.031   1.228 -0.5233 -1.1772  2.5308
 4400SOL     OW14098   2.447   5.287   2.122 -0.5668 -0.5887 -0.5169
 4400SOL    HW114099   2.502   5.209   2.093 -0.0389 -0.2938 -0.3182
 4400SOL    HW214100   2.372   5.301   2.057 -0.7795 -1.3771 -0.4491
 4401SOL     OW14101   3.075   6.800   4.428  0.1106  1.0430  0.4817
 4401SOL    HW114102   3.106   6.806   4.333 -1.6503  0.8985 -0.1352
 4401SOL    HW214103   3.095   6.887   4.474 -3.4124  3.1281 -1.4826
 4402SOL     OW14104   6.718   6.053   0.695  1.0037  0.2740 -0.5243
 4402SOL    HW114105   6.733   5.994   0.616 -1.3716  0.1355 -0.9272
 4402SOL    HW214106   6.712   6.148   0.665  1.5901  0.3913 -0.2914
 4403SOL     OW14107   4.990   1.435   3.403  0.1713 -0.1586 -0.1921
 4403SOL    HW114108   4.988   1.428   3.503 -0.3626  1.6418 -0.0485
 4403SOL    HW214109   4.911   1.486   3.371 -0.0498 -1.3354 -1.6281
 4404SOL     OW14110   2.901   4.917   1.544 -0.0307  0.5270  0.0019
 4404SOL    HW114111   2.801   4.914   1.550 -0.0298  0.5749  0.0395
 4404SOL    HW214112   2.940   4.848   1.605 -0.0274  0.8410  0.3542
 4405SOL     OW14113   2.908   4.363   0.611  0.0923 -0.9399  0.1509
 4405SOL    HW114114   2.991   4.419   0.610  0.0357 -0.8588 -0.0106
 4405SOL    HW214115   2.857   4.381   0.695  0.5303 -1.4186  0.5260
 4406SOL     OW14116   6.074   1.569   2.140  0.0141 -0.2207  0.0718
 4406SOL    HW114117   6.121   1.559   2.227  0.3215 -1.4397 -0.2061
 4406SOL    HW214118   6.118   1.511   2.071 -1.4584 -0.8697 -0.3736
 4407SOL     OW14119   2.104   7.000   0.149 -0.1524 -0.7270  0.4934
 4407SOL    HW114120   2.083   7.091   0.113 -1.8305 -1.6776 -1.1126
 4407SOL    HW214121   2.131   7.008   0.245 -4.0821  1.1582  1.6586
 4408SOL     OW14122   4.777   6.641   0.917  0.2092  0.0376 -0.1575
 4408SOL    HW114123   4.693   6.695   0.913 -0.2116 -0.6780 -1.6392
 4408SOL    HW214124   4.805   6.614   0.825  1.9625  0.0689  0.3194
 4409SOL     OW14125   4.604   1.221   2.892  0.1544 -0.4336  0.0969
 4409SOL    HW114126   4.613   1.320   2.896 -1.0332 -0.3460  1.5689
 4409SOL    HW214127   4.693   1.181   2.871  1.0671  0.8789  1.2301
 4410SOL     OW14128   1.446   5.696   1.081  0.1450 -0.0246  0.4537
 4410SOL    HW114129   1.386   5.623   1.114  0.2742  0.1687  1.1297
 4410SOL    HW214130   1.490   5.666   0.996 -1.1803 -0.0219 -0.2588
 4411SOL     OW14131   4.322   1.419   1.452 -0.2192  0.1699 -0.2016
 4411SOL    HW114132   4.374   1.496   1.490  2.8697 -1.3713 -0.9989
 4411SOL    HW214133   4.316   1.428   1.353  0.5217 -0.7792 -0.3463
 4412SOL     OW14134   3.806   0.248   0.815 -0.0315  0.0618 -0.8281
 4412SOL    HW114135   3.780   0.341   0.790  1.5820  0.8589  0.3009
 4412SOL    HW214136   3.819   0.242   0.914  0.8276 -1.1109 -0.9879
 4413SOL     OW14137   2.211   6.602   5.691 -0.2876 -0.2652  0.1618
 4413SOL    HW114138   2.186   6.570   5.600 -0.1848 -1.4131  0.5233
 4413SOL    HW214139   2.261   6.530   5.739 -0.7675  0.1344  1.3035
 4414SOL     OW14140   4.043   3.984   1.960  0.5312  0.0926  0.2451
 4414SOL    HW114141   4.108   4.044   2.006  0.1860  1.8885 -1.4829
 4414SOL    HW214142   4.078   3.890   1.960  1.5409  0.4219  2.1794
 4415SOL     OW14143   5.103   1.672   1.953  0.0450 -0.1801 -0.8273
 4415SOL    HW114144   5.187   1.715   1.987 -0.4832 -1.9974  3.3632
 4415SOL    HW214145   5.024   1.728   1.980 -0.4574 -2.1665  2.3872
 4416SOL     OW14146   3.084   2.060   0.050  0.4936 -0.3599  0.2908
 4416SOL    HW114147   3.163   2.095  -0.000  1.1410 -1.2672  0.6541
 4416SOL    HW214148   3.111   2.037   0.143 -0.6892  1.2775  1.0918
 4417SOL     OW14149   5.176   6.966   0.701 -0.0002  0.1569 -0.2948
 4417SOL    HW114150   5.113   6.977   0.777  0.0876  0.8742 -0.3149
 4417SOL    HW214151   5.135   6.907   0.631 -0.7881  0.8669 -0.4518
 4418SOL     OW14152   3.274   6.897   2.520 -0.2357 -0.3225  0.6908
 4418SOL    HW114153   3.308   6.991   2.525  1.4364 -0.9235  0.9442
 4418SOL    HW214154   3.176   6.896   2.541  0.0102  1.1839  2.1005
 4419SOL     OW14155   0.059   5.955   0.331  0.2897  0.2506  0.1337
 4419SOL    HW114156   0.144   6.008   0.322  0.8463 -0.8289 -1.4067
 4419SOL    HW214157  -0.017   6.008   0.293  0.6650  0.3569 -0.4740
 4420SOL     OW14158   5.639   0.035   1.400  0.1347  0.5745  0.0854
 4420SOL    HW114159   5.684  -0.033   1.342 -1.0951  0.0215 -0.2562
 4420SOL    HW214160   5.572  -0.011   1.458  1.8124  1.0153  2.4995
 4421SOL     OW14161   6.841   2.695   4.546 -0.2483  0.0195  0.0206
 4421SOL    HW114162   6.921   2.641   4.572 -0.4895  0.1935  1.1655
 4421SOL    HW214163   6.760   2.637   4.548 -0.2349 -0.0289 -0.6257
 4422SOL     OW14164   2.192   6.255   0.888  0.2685  0.3436  0.0298
 4422SOL    HW114165   2.235   6.295   0.969  1.2951  0.3479 -0.4924
 4422SOL    HW214166   2.151   6.327   0.832  0.2689  0.4328  0.1441
 4423SOL     OW14167   6.041   4.358   6.359 -0.3468  0.1640  0.0849
 4423SOL    HW114168   5.956   4.361   6.306  0.2660 -1.5206 -1.0932
 4423SOL    HW214169   6.072   4.451   6.378 -1.4760  0.8091 -1.0595
 4424SOL     OW14170   1.044   5.238   2.839 -0.0476 -0.4146 -0.0459
 4424SOL    HW114171   1.075   5.143   2.842  2.0565  0.1519 -1.4150
 4424SOL    HW214172   1.020   5.268   2.931 -1.1625 -2.3544  0.3574
 4425SOL     OW14173   0.120   3.855   1.761  0.2591  0.5958  0.0771
 4425SOL    HW114174   0.033   3.902   1.772 -1.3113 -1.8903 -0.9490
 4425SOL    HW214175   0.159   3.836   1.851 -1.0614  0.3393  0.6199
 4426SOL     OW14176   5.248   6.852   6.758  0.5528 -0.0349 -0.3345
 4426SOL    HW114177   5.264   6.765   6.712  1.0987  0.1623 -0.5172
 4426SOL    HW214178   5.177   6.903   6.709 -0.3468 -0.7183  0.2344
 4427SOL     OW14179   6.961   4.460   1.039  0.4563 -0.1268 -0.1385
 4427SOL    HW114180   7.034   4.392   1.032 -0.8474 -1.6048  0.2685
 4427SOL    HW214181   6.884   4.422   1.090 -0.6568  1.3643 -0.6342
 4428SOL     OW14182   6.890   2.762   1.554  0.1013 -0.1926  0.0441
 4428SOL    HW114183   6.872   2.769   1.653 -0.5739  0.5372 -0.1246
 4428SOL    HW214184   6.826   2.820   1.504 -0.2379 -1.3365 -0.8993
 4429SOL     OW14185   1.630   5.964   2.086 -0.3874  0.0173  0.0155
 4429SOL    HW114186   1.564   6.011   2.145 -0.2057 -0.8020  0.9007
 4429SOL    HW214187   1.720   5.964   2.131 -0.1555 -0.2724 -0.4460
 4430SOL     OW14188   1.212   1.610   1.194 -0.0285 -0.7003 -0.1507
 4430SOL    HW114189   1.182   1.545   1.125 -0.7323  0.9598 -1.4853
 4430SOL    HW214190   1.233   1.698   1.151  0.1517  0.2061  1.6661
 4431SOL     OW14191   3.041   0.604   3.462  0.0312 -0.4159 -0.3179
 4431SOL    HW114192   2.979   0.674   3.427  0.4316 -0.4007 -1.0251
 4431SOL    HW214193   3.009   0.572   3.551 -0.4131  0.3255 -0.2058
 4432SOL     OW14194   3.652   3.022   4.243  0.0013  0.3453  0.5220
 4432SOL    HW114195   3.584   2.992   4.311 -0.2100  1.4444  0.8238
 4432SOL    HW214196   3.741   3.031   4.288  0.0758  0.1227  0.4198
 4433SOL     OW14197   6.276   6.016   1.161  0.2424 -0.4647  0.0804
 4433SOL    HW114198   6.211   5.958   1.211 -0.2578  1.3020  1.5776
 4433SOL    HW214199   6.346   5.958   1.119 -0.9866 -2.2442  0.3536
 4434SOL     OW14200   6.012   2.905   5.539  0.1295 -0.5912  0.0480
 4434SOL    HW114201   6.045   2.813   5.560 -0.7326 -0.7681  0.6643
 4434SOL    HW214202   6.004   2.958   5.623 -0.1076 -0.1970 -0.2168
 4435SOL     OW14203   3.103   2.667   1.518 -0.1730  0.1804 -0.3538
 4435SOL    HW114204   3.037   2.603   1.477 -0.5980  0.3060  0.1175
 4435SOL    HW214205   3.116   2.745   1.458 -0.3578  0.0909 -0.5123
 4436SOL     OW14206   4.813   0.192   1.126  0.1500 -0.0693 -0.0801
 4436SOL    HW114207   4.742   0.150   1.069  0.7982 -0.1153 -0.8711
 4436SOL    HW214208   4.900   0.193   1.076  0.3141  1.5903  0.1740
 4437SOL     OW14209   1.517   5.287   6.832  0.2818 -0.3327  0.0776
 4437SOL    HW114210   1.566   5.284   6.920 -1.6013 -1.3559  1.1566
 4437SOL    HW214211   1.420   5.306   6.849 -0.0735 -0.2657 -1.8328
 4438SOL     OW14212   4.925   1.787   0.626 -0.1610  0.5765 -0.3247
 4438SOL    HW114213   5.018   1.758   0.603 -0.4105  0.0058 -0.6099
 4438SOL    HW214214   4.929   1.853   0.701  0.3638 -0.7120  0.8118
 4439SOL     OW14215   0.525   5.656   2.071  0.4287  0.2099 -0.0888
 4439SOL    HW114216   0.593   5.627   2.137  0.3025  0.7796  0.3000
 4439SOL    HW214217   0.521   5.590   1.995  0.8363 -0.2433  0.2809
 4440SOL     OW14218   0.580   1.282   6.685 -0.0838  0.0166 -0.5097
 4440SOL    HW114219   0.539   1.213   6.626 -4.5636  0.9477  1.0768
 4440SOL    HW214220   0.590   1.245   6.778 -2.2166  1.2551  0.2776
 4441SOL     OW14221   6.866   1.435   4.394 -0.4386  0.4923  0.3714
 4441SOL    HW114222   6.839   1.519   4.441 -0.0899  0.5826  0.4149
 4441SOL    HW214223   6.882   1.363   4.462  1.6532  1.0631  0.5513
 4442SOL     OW14224   2.430   6.194   3.548 -0.5968 -0.4908  0.6483
 4442SOL    HW114225   2.461   6.280   3.588 -0.0665  0.7380 -2.2046
 4442SOL    HW214226   2.498   6.160   3.484 -2.7423 -0.5353 -1.7637
 4443SOL     OW14227   2.907   1.138   2.120 -0.0485 -0.3088 -0.6498
 4443SOL    HW114228   2.899   1.071   2.047  0.2216 -0.2619 -0.7248
 4443SOL    HW214229   2.999   1.177   2.119  0.0928 -0.6146 -0.0199
 4444SOL     OW14230   6.168   2.440   4.137 -0.1004  0.0196  0.0833
 4444SOL    HW114231   6.184   2.534   4.166  2.3611 -0.1473 -0.4560
 4444SOL    HW214232   6.145   2.437   4.040 -0.9535  0.0963  0.2767
 4445SOL     OW14233   0.528   1.418   1.063  0.1044  0.5570 -0.8237
 4445SOL    HW114234   0.531   1.491   0.995 -0.6341  1.1267 -0.2560
 4445SOL    HW214235   0.449   1.431   1.123  0.7811  0.1056  0.1951
 4446SOL     OW14236   5.093   5.033   3.814  0.2177 -0.3294  0.0898
 4446SOL    HW114237   5.020   5.023   3.746 -0.4584  0.6128  0.6616
 4446SOL    HW214238   5.181   5.010   3.771 -0.2133  0.0746 -1.0535
 4447SOL     OW14239   4.857   4.401   6.080  0.1708 -0.0636 -0.5558
 4447SOL    HW114240   4.831   4.496   6.061 -0.9923 -0.2606 -0.0219
 4447SOL    HW214241   4.876   4.391   6.178 -1.0053 -0.6591 -0.3692
 4448SOL     OW14242   1.513   2.232   6.084  0.0666 -0.3927 -0.1299
 4448SOL    HW114243   1.557   2.216   5.996  0.3402 -0.9638  0.1113
 4448SOL    HW214244   1.413   2.229   6.073  0.1069 -0.9708 -0.3234
 4449SOL     OW14245   0.713   1.311   5.716  0.1155 -0.3057  0.1925
 4449SOL    HW114246   0.636   1.249   5.703 -0.9319  1.0042 -0.0125
 4449SOL    HW214247   0.798   1.259   5.710 -0.7059 -1.6180 -0.6117
 4450SOL     OW14248   3.277   3.700   3.745 -0.3717 -0.2770 -0.0396
 4450SOL    HW114249   3.367   3.686   3.706 -0.7148 -0.8209 -0.6595
 4450SOL    HW214250   3.279   3.680   3.843  0.5170  1.1998  0.2792
 4451SOL     OW14251   5.035   4.241   2.884  0.6895 -0.5386  0.7350
 4451SOL    HW114252   4.940   4.246   2.854  0.2137 -1.0518  2.1080
 4451SOL    HW214253   5.063   4.145   2.891  0.8627 -0.4289  1.6729
 4452SOL     OW14254   5.656   2.560   5.845 -0.1547  0.0045  0.4384
 4452SOL    HW114255   5.582   2.494   5.833  0.8003 -1.2709  1.2595
 4452SOL    HW214256   5.740   2.512   5.872  1.6596  1.1093 -2.6996
 4453SOL     OW14257   5.278   1.179   1.397  0.4320  0.0947 -0.0083
 4453SOL    HW114258   5.248   1.093   1.357  0.7728 -0.1510  0.2651
 4453SOL    HW214259   5.315   1.238   1.325  1.4865 -0.5351 -0.0010
 4454SOL     OW14260   4.659   1.800   1.700  0.0121  0.3252  0.0632
 4454SOL    HW114261   4.641   1.895   1.724  1.2199  0.8613 -1.0495
 4454SOL    HW214262   4.654   1.743   1.782 -0.0135  1.4501  0.8535
 4455SOL     OW14263   5.166   2.969   3.168  0.2479  0.4563  0.4749
 4455SOL    HW114264   5.108   2.903   3.121  0.0112  0.1685  1.1660
 4455SOL    HW214265   5.118   3.007   3.247  2.1407 -2.4271  3.2711
 4456SOL     OW14266   5.738   6.148   2.054 -0.0098  0.3593 -0.2881
 4456SOL    HW114267   5.810   6.168   1.987  0.6801 -1.4152 -0.1241
 4456SOL    HW214268   5.661   6.103   2.008 -0.3751  0.8722 -0.1926
 4457SOL     OW14269   5.355   1.838   6.851  0.9359  0.6667 -0.2177
 4457SOL    HW114270   5.406   1.754   6.866 -1.7524 -1.6935 -2.8117
 4457SOL    HW214271   5.416   1.908   6.813  2.7402 -1.0480 -0.6336
 4458SOL     OW14272   4.254   0.864   7.017 -0.4533  0.0929 -0.3506
 4458SOL    HW114273   4.265   0.923   6.937  0.6609 -0.6694 -0.7789
 4458SOL    HW214274   4.163   0.821   7.014 -0.6920  0.6068 -0.8233
 4459SOL     OW14275   0.236   0.013   6.999 -0.6882  0.4032  0.0383
 4459SOL    HW114276   0.275  -0.079   6.986 -1.8420 -0.2556  0.9993
 4459SOL    HW214277   0.287   0.079   6.944 -0.9756 -1.1000 -2.1388
 4460SOL     OW14278   2.422   1.514   0.535 -0.1918 -0.6597 -0.1299
 4460SOL    HW114279   2.339   1.570   0.539  1.0855  1.2515  0.5273
 4460SOL    HW214280   2.409   1.432   0.591 -1.2511  0.1229  0.8142
 4461SOL     OW14281   2.022   6.815   2.406 -0.2011 -0.7646  0.2114
 4461SOL    HW114282   1.955   6.824   2.480 -1.4300 -1.9825 -0.7056
 4461SOL    HW214283   1.989   6.748   2.340  2.0747 -1.5961 -0.1460
 4462SOL     OW14284   0.493   2.844   2.722  0.4937 -0.1444  0.1552
 4462SOL    HW114285   0.472   2.849   2.625  0.4105  2.5706  0.2351
 4462SOL    HW214286   0.414   2.806   2.771 -0.7639  1.5003 -0.5262
 4463SOL     OW14287   1.518   3.575   6.203 -0.0122  0.6429 -0.0056
 4463SOL    HW114288   1.562   3.627   6.129  0.0296  0.7286  0.0782
 4463SOL    HW214289   1.479   3.639   6.269 -1.0772  0.5810 -0.5462
 4464SOL     OW14290   1.133   4.047   1.597 -0.0258 -0.7223 -0.9725
 4464SOL    HW114291   1.198   3.973   1.616 -0.8983 -1.5334 -1.0556
 4464SOL    HW214292   1.162   4.130   1.645  0.0456 -1.5885  0.5579
 4465SOL     OW14293   6.319   4.360   6.916  0.3657 -0.3530 -0.2546
 4465SOL    HW114294   6.288   4.276   6.873 -0.9298  0.1766 -0.4360
 4465SOL    HW214295   6.240   4.420   6.932  1.1733  0.5784  0.4068
 4466SOL     OW14296   6.916   2.398   3.495 -0.3029 -0.0666 -0.1247
 4466SOL    HW114297   6.889   2.342   3.573  0.6551  1.4574  1.3593
 4466SOL    HW214298   6.834   2.428   3.445 -0.9140 -1.1921  0.1590
 4467SOL     OW14299   3.564   2.411   5.896  0.0530  0.3893  0.4128
 4467SOL    HW114300   3.556   2.453   5.806 -0.3476  0.0631  0.2928
 4467SOL    HW214301   3.659   2.416   5.926  0.3570 -0.2303 -0.3951
 4468SOL     OW14302   1.667   1.022   1.436  0.2466  0.0479 -0.2991
 4468SOL    HW114303   1.757   0.983   1.455  0.0246 -0.5603 -0.4722
 4468SOL    HW214304   1.601   0.948   1.423  0.1306  0.4166 -2.1767
 4469SOL     OW14305   3.159   6.243   6.296  0.0824 -0.9573  0.2822
 4469SOL    HW114306   3.065   6.265   6.267  0.1805 -1.8481 -0.7585
 4469SOL    HW214307   3.209   6.203   6.219  1.3462 -0.4516  0.8145
 4470SOL     OW14308   4.364   3.818   1.182  0.0373  0.2497 -0.0484
 4470SOL    HW114309   4.442   3.771   1.140  0.6926  0.1354  1.2265
 4470SOL    HW214310   4.345   3.903   1.133  0.6747  0.0444 -0.6592
 4471SOL     OW14311   4.200   1.765   1.860 -0.4639  0.1329  0.2124
 4471SOL    HW114312   4.124   1.806   1.911  1.5197  2.3262  1.6130
 4471SOL    HW214313   4.285   1.812   1.883  1.2299 -1.6075 -1.9910
 4472SOL     OW14314   2.017   6.427   1.674  0.6281 -0.3537 -0.2154
 4472SOL    HW114315   2.011   6.386   1.582  0.4724  0.4218 -0.5570
 4472SOL    HW214316   2.046   6.522   1.666  0.6816 -0.3032  0.5520
 4473SOL     OW14317   5.497   0.124   0.984  0.1860  0.4461 -0.7105
 4473SOL    HW114318   5.489   0.173   1.071 -0.4515  0.9440 -1.0411
 4473SOL    HW214319   5.564   0.169   0.926  1.3028 -0.4227 -0.1361
 4474SOL     OW14320   0.692   1.244   6.252 -0.3359  0.4900 -0.5671
 4474SOL    HW114321   0.734   1.241   6.343 -1.0229  0.8417 -0.2332
 4474SOL    HW214322   0.599   1.208   6.257 -0.5050  0.8502 -1.0571
 4475SOL     OW14323   2.028   3.391   1.488  0.5723 -0.0151 -0.0288
 4475SOL    HW114324   1.961   3.380   1.414  0.7012  1.1287 -0.3242
 4475SOL    HW214325   2.052   3.300   1.524 -0.4342 -0.5016 -0.5353
 4476SOL     OW14326   2.589   5.565   2.052 -0.2882 -0.0501  0.0498
 4476SOL    HW114327   2.608   5.641   2.114  0.2609 -1.4797  1.7077
 4476SOL    HW214328   2.552   5.488   2.103 -0.9257 -0.9047 -1.6001
 4477SOL     OW14329   1.461   3.049   0.174  0.3517  0.6108  0.0619
 4477SOL    HW114330   1.408   3.058   0.258 -0.5771  1.4857 -0.5883
 4477SOL    HW214331   1.456   3.135   0.123  2.5104  0.7665  0.0291
 4478SOL     OW14332   1.109   5.585   1.451  0.0780 -0.1386 -0.8778
 4478SOL    HW114333   1.184   5.526   1.425  0.4353  0.6467 -1.7054
 4478SOL    HW214334   1.023   5.533   1.450  0.5210 -0.8857 -0.5323
 4479SOL     OW14335   3.271   5.020   1.169 -0.4172 -0.5505 -0.1332
 4479SOL    HW114336   3.278   4.947   1.237 -0.7654  0.1561  0.6802
 4479SOL    HW214337   3.349   5.015   1.106 -0.5402 -1.7371 -0.2297
 4480SOL     OW14338   6.017   3.113   2.476 -0.1465  0.2304 -0.2762
 4480SOL    HW114339   6.086   3.073   2.535 -0.0250  0.3923 -0.3087
 4480SOL    HW214340   6.028   3.212   2.475 -1.9479  0.5254  1.7256
 4481SOL     OW14341   0.641   0.890   2.539 -0.5835 -0.4372 -0.1842
 4481SOL    HW114342   0.728   0.937   2.528  0.0283 -1.6683 -0.7378
 4481SOL    HW214343   0.653   0.793   2.520 -1.8373 -0.8144  0.8411
 4482SOL     OW14344   6.354   4.115   4.902  0.2975  0.0808 -0.5890
 4482SOL    HW114345   6.274   4.070   4.863  0.7132  0.1411 -1.5338
 4482SOL    HW214346   6.333   4.211   4.921 -0.7277 -0.5424  1.8175
 4483SOL     OW14347   6.562   2.961   0.403 -0.2301  0.2780 -0.0974
 4483SOL    HW114348   6.659   2.980   0.389  0.1929 -0.7902  1.1188
 4483SOL    HW214349   6.544   2.864   0.386 -1.5955  0.9028 -2.6790
 4484SOL     OW14350   4.978   4.044   5.964 -0.7007  0.2134  0.2552
 4484SOL    HW114351   5.015   4.099   6.038 -2.3056 -1.4352  2.4182
 4484SOL    HW214352   5.053   3.996   5.917  0.4190  1.9687  0.1733
 4485SOL     OW14353   2.518   0.255   4.676  0.0158 -0.3405  0.0965
 4485SOL    HW114354   2.482   0.170   4.637 -0.5843 -0.0215 -0.0580
 4485SOL    HW214355   2.445   0.302   4.725  0.0692  0.5930 -0.7044
 4486SOL     OW14356   5.637   4.200   3.515  0.1018 -0.2710  0.3294
 4486SOL    HW114357   5.696   4.234   3.442 -2.4026  2.6304 -0.5602
 4486SOL    HW214358   5.675   4.224   3.604  2.1817 -2.0862  0.0164
 4487SOL     OW14359   3.295   3.143   4.539  0.0923  0.1123  0.5117
 4487SOL    HW114360   3.227   3.145   4.466  0.1213 -2.5392  0.3201
 4487SOL    HW214361   3.277   3.066   4.599  1.2496  1.0846  2.1907
 4488SOL     OW14362   0.595   2.101   6.369  0.2010  0.0998  0.3359
 4488SOL    HW114363   0.525   2.032   6.351  0.5232 -0.3639  0.8004
 4488SOL    HW214364   0.631   2.137   6.283  0.4086 -0.7071  0.0764
 4489SOL     OW14365   5.995   3.760   3.715 -0.3810  0.3018 -0.2039
 4489SOL    HW114366   5.939   3.837   3.685  1.3629  2.4692  1.7283
 4489SOL    HW214367   6.085   3.765   3.670  0.5875  0.8714  1.6713
 4490SOL     OW14368   5.042   0.910   4.401 -0.1155 -0.7023  0.0735
 4490SOL    HW114369   4.944   0.910   4.424  0.3199 -1.4747  2.1606
 4490SOL    HW214370   5.065   0.824   4.355 -0.9929  0.8522 -3.6344
 4491SOL     OW14371   2.053   5.390   2.178  0.2684 -0.3374 -0.3267
 4491SOL    HW114372   2.112   5.330   2.232  0.3466 -0.4187 -0.5043
 4491SOL    HW214373   2.001   5.335   2.112 -0.6524 -0.3847  0.4152
 4492SOL     OW14374   4.758   4.316   4.335 -0.1271  0.3923  0.3894
 4492SOL    HW114375   4.744   4.218   4.351  0.5937  0.2870  0.4074
 4492SOL    HW214376   4.712   4.368   4.408 -1.6721  0.1447 -0.3538
 4493SOL     OW14377   4.061   5.648   3.651 -0.0067 -0.0013  0.6255
 4493SOL    HW114378   4.133   5.636   3.582 -0.0761  0.4267  0.4716
 4493SOL    HW214379   4.055   5.745   3.675 -0.5855 -0.0228  0.5741
 4494SOL     OW14380   4.647   2.519   3.485  0.3219  0.7135  0.2894
 4494SOL    HW114381   4.621   2.566   3.401  1.6401 -0.0777 -0.6000
 4494SOL    HW214382   4.567   2.512   3.546 -0.8023  0.7623 -1.1360
 4495SOL     OW14383   4.476   2.491   2.500  0.5053 -0.2940 -0.1021
 4495SOL    HW114384   4.415   2.413   2.489  2.9624 -2.4847  0.7875
 4495SOL    HW214385   4.501   2.527   2.410 -0.6661 -0.4611 -0.5164
 4496SOL     OW14386   6.923   2.621   4.914  0.4952 -0.1684  0.1304
 4496SOL    HW114387   7.001   2.577   4.957  1.7884 -1.1403 -2.9430
 4496SOL    HW214388   6.849   2.554   4.902 -0.4215  0.4473  1.9292
 4497SOL     OW14389   4.999   6.449   1.956  0.5781 -0.5545 -0.4153
 4497SOL    HW114390   5.083   6.468   2.006 -0.0809 -0.4658  0.7017
 4497SOL    HW214391   4.957   6.535   1.926  0.7240 -0.5798 -0.6903
 4498SOL     OW14392   2.825   3.733   5.570  0.4873 -0.2771  0.0212
 4498SOL    HW114393   2.791   3.819   5.608  0.9457 -0.6676  1.3811
 4498SOL    HW214394   2.749   3.681   5.530  0.2419  0.8383 -1.0101
 4499SOL     OW14395   0.500   4.332   0.339 -0.0706 -0.1704 -0.1726
 4499SOL    HW114396   0.495   4.388   0.422 -0.2668  0.3069 -0.5015
 4499SOL    HW214397   0.560   4.254   0.355 -0.4707 -0.3308  0.5654
 4500SOL     OW14398   3.496   2.440   1.661 -0.6918  0.4493 -0.4893
 4500SOL    HW114399   3.539   2.387   1.734 -1.0290 -1.3899 -1.5460
 4500SOL    HW214400   3.397   2.445   1.678 -0.6846  0.5927 -0.4872
 4501SOL     OW14401   1.155   5.307   5.068  0.1660 -0.3248  1.0569
 4501SOL    HW114402   1.203   5.324   5.154  1.0564 -0.9487  0.6962
 4501SOL    HW214403   1.198   5.360   4.995 -0.6696  0.3068  1.0098
 4502SOL     OW14404   5.027   1.239   0.813  0.2076 -0.5107 -0.5939
 4502SOL    HW114405   5.111   1.221   0.762  1.1187  0.8699  0.3721
 4502SOL    HW214406   5.047   1.251   0.910 -0.6314  2.6121 -0.6926
 4503SOL     OW14407   0.760   4.060   2.667  0.0292  0.0636 -0.1688
 4503SOL    HW114408   0.821   3.985   2.692  0.9842  0.2197 -1.8595
 4503SOL    HW214409   0.783   4.140   2.722  1.4291  0.1381 -0.8091
 4504SOL     OW14410   4.170   1.281   5.357  0.7383  0.2409 -0.0078
 4504SOL    HW114411   4.173   1.206   5.423  3.3211 -0.7653 -1.1351
 4504SOL    HW214412   4.112   1.255   5.279 -1.2917  0.9342  1.2008
 4505SOL     OW14413   3.146   3.480   0.278 -0.0257  0.7122  0.3720
 4505SOL    HW114414   3.179   3.538   0.352 -2.3373  0.5956  1.5843
 4505SOL    HW214415   3.074   3.527   0.228  0.4337  0.1737 -0.8548
 4506SOL     OW14416   2.579   0.077   4.231  0.3343 -0.0817 -0.0407
 4506SOL    HW114417   2.564  -0.012   4.273 -0.8458 -0.2426 -0.7611
 4506SOL    HW214418   2.624   0.138   4.296  2.1195 -1.5068  0.1124
 4507SOL     OW14419   5.978   4.746   4.299 -0.5718 -0.0709 -0.1967
 4507SOL    HW114420   6.053   4.767   4.236 -1.4519 -0.0776 -1.2705
 4507SOL    HW214421   6.014   4.737   4.391  1.0057 -1.6534 -0.9129
 4508SOL     OW14422   2.386   3.684   0.977 -0.0207  0.3463  0.3200
 4508SOL    HW114423   2.456   3.750   0.950  0.3550 -0.5845 -1.0726
 4508SOL    HW214424   2.390   3.604   0.917 -1.7867 -0.0599  0.6778
 4509SOL     OW14425   0.342   1.905   3.921 -0.1720 -0.2311 -0.0667
 4509SOL    HW114426   0.289   1.835   3.969 -0.6591  0.5301  0.5284
 4509SOL    HW214427   0.394   1.863   3.847 -1.5002 -1.0157 -0.5786
 4510SOL     OW14428   3.564   0.017   1.083  0.0129  0.1741 -0.2865
 4510SOL    HW114429   3.564  -0.071   1.035  0.6746  0.4432 -0.7880
 4510SOL    HW214430   3.597   0.003   1.176 -3.4673 -0.7689  0.9551
 4511SOL     OW14431   0.478   3.498   1.189  0.1270 -0.9281 -0.2295
 4511SOL    HW114432   0.384   3.529   1.176  0.5024  1.0187  1.2128
 4511SOL    HW214433   0.504   3.436   1.115 -1.7783 -0.2740 -1.4940
 4512SOL     OW14434   2.746   3.279   0.476 -0.1770 -0.2095 -0.1610
 4512SOL    HW114435   2.707   3.209   0.416  0.3074  0.6437 -1.5327
 4512SOL    HW214436   2.846   3.272   0.475 -0.1891 -0.9876  1.5836
 4513SOL     OW14437   6.317   2.565   1.246  0.1762 -0.3799  0.0535
 4513SOL    HW114438   6.303   2.470   1.275  0.2274 -0.3602  0.1428
 4513SOL    HW214439   6.320   2.569   1.146  0.5118 -0.5196  0.0564
 4514SOL     OW14440   3.559   0.915   6.036 -0.3445 -0.1707 -0.7397
 4514SOL    HW114441   3.612   0.883   5.958  0.8357  1.1967 -0.5354
 4514SOL    HW214442   3.607   0.892   6.121 -0.4134  0.4578 -0.5241
 4515SOL     OW14443   1.366   5.011   5.845  0.3527  0.2772  0.2608
 4515SOL    HW114444   1.380   4.916   5.871  0.7419 -0.0117 -0.9389
 4515SOL    HW214445   1.324   5.015   5.754 -0.1355  1.2502  0.5146
 4516SOL     OW14446   5.184   1.546   2.282  0.4312  0.1513  0.3291
 4516SOL    HW114447   5.246   1.493   2.225  0.3774 -0.7197  1.0530
 4516SOL    HW214448   5.204   1.644   2.273  0.4960  0.0250 -1.0717
 4517SOL     OW14449   2.452   0.368   1.398 -0.0322 -1.0465 -0.4125
 4517SOL    HW114450   2.466   0.383   1.300  0.0965 -2.0514 -0.5571
 4517SOL    HW214451   2.355   0.354   1.417 -0.2963  0.8923 -0.1269
 4518SOL     OW14452   5.967   1.525   4.040 -0.3071  0.0890  0.0843
 4518SOL    HW114453   5.958   1.498   4.136  0.1677 -1.4623 -0.2788
 4518SOL    HW214454   5.999   1.447   3.986 -0.4220  0.9748 -1.3213
 4519SOL     OW14455   5.715   5.473   3.367  0.0265  0.6488 -0.0432
 4519SOL    HW114456   5.732   5.534   3.444 -0.7324  0.9821 -0.1263
 4519SOL    HW214457   5.739   5.379   3.392  2.1050  1.0789 -0.2183
 4520SOL     OW14458   1.415   2.464   4.191  0.7005 -0.1265 -0.2506
 4520SOL    HW114459   1.502   2.420   4.210 -0.0158 -1.1602  0.8071
 4520SOL    HW214460   1.378   2.504   4.276  0.6695  1.3247 -0.9099
 4521SOL     OW14461   4.221   2.466   6.314 -0.0819 -0.3409 -0.4484
 4521SOL    HW114462   4.284   2.421   6.378 -0.5247  0.4070  0.5466
 4521SOL    HW214463   4.262   2.470   6.224 -0.5555 -3.9544 -0.9566
 4522SOL     OW14464   4.817   0.433   2.655 -0.5060 -0.4700 -0.2227
 4522SOL    HW114465   4.854   0.454   2.565  0.0607  0.8674  0.2964
 4522SOL    HW214466   4.868   0.357   2.695 -1.2117 -1.5367 -1.2846
 4523SOL     OW14467   3.984   2.387   5.340 -0.1382  0.1401 -1.0081
 4523SOL    HW114468   4.028   2.458   5.286 -0.5114 -0.2575 -1.8567
 4523SOL    HW214469   3.965   2.308   5.282 -1.6222  0.1537 -0.5826
 4524SOL     OW14470   3.994   2.732   5.593 -0.2880  0.0394 -0.1714
 4524SOL    HW114471   3.966   2.828   5.599 -0.2189 -0.0176  1.5720
 4524SOL    HW214472   4.002   2.705   5.497 -2.0653  1.2533 -0.7030
 4525SOL     OW14473   5.721   1.632   3.978 -0.2585  0.0877  0.1263
 4525SOL    HW114474   5.672   1.646   4.064  0.0506  1.0649  0.1507
 4525SOL    HW214475   5.818   1.614   3.997 -0.0460  1.0101 -0.0325
 4526SOL     OW14476   2.786   2.605   1.660 -0.0999 -0.5719  0.1408
 4526SOL    HW114477   2.851   2.640   1.727  0.6791 -3.0477  0.7628
 4526SOL    HW214478   2.731   2.533   1.701 -1.8256  0.0337 -1.0072
 4527SOL     OW14479   4.582   0.966   3.622 -0.1398 -0.0415 -0.4123
 4527SOL    HW114480   4.503   0.951   3.681 -1.2567  0.3672 -1.7220
 4527SOL    HW214481   4.553   0.957   3.526  1.6797 -1.0500 -0.9011
 4528SOL     OW14482   3.908   6.956   4.485  0.6362  0.1439 -0.1678
 4528SOL    HW114483   3.875   7.032   4.541  0.9475 -0.5830  1.0340
 4528SOL    HW214484   3.886   6.973   4.389 -0.1832  1.2757  0.2064
 4529SOL     OW14485   3.427   1.032   4.643 -0.2771  0.1857  0.5404
 4529SOL    HW114486   3.388   1.070   4.727  0.8186  1.7376  0.3701
 4529SOL    HW214487   3.522   1.008   4.659 -0.2670 -0.1885 -0.0681
 4530SOL     OW14488   5.885   2.740   3.566  0.2873  0.0345  0.1807
 4530SOL    HW114489   5.787   2.752   3.550 -0.1692  2.5096  3.6852
 4530SOL    HW214490   5.899   2.665   3.630  0.6439 -0.0687 -0.0166
 4531SOL     OW14491   6.456   2.787   3.819 -0.6435  0.1706  0.3227
 4531SOL    HW114492   6.522   2.767   3.746 -0.1074  1.2867  0.4745
 4531SOL    HW214493   6.506   2.808   3.904 -1.1918  0.9632  0.4558
 4532SOL     OW14494   1.225   2.464   0.000  0.0791  0.5019  0.2538
 4532SOL    HW114495   1.308   2.515   0.022  0.0191  0.5329  0.4074
 4532SOL    HW214496   1.157   2.526  -0.041  0.7186  0.1712 -1.3834
 4533SOL     OW14497   3.768   5.345   1.526 -0.0972 -0.2553  1.1390
 4533SOL    HW114498   3.691   5.323   1.586  0.0532 -2.1502  0.6889
 4533SOL    HW214499   3.734   5.378   1.438 -0.4331 -1.5802  0.7569
 4534SOL     OW14500   6.202   6.038   4.856 -0.1072 -0.1536 -0.0082
 4534SOL    HW114501   6.121   6.029   4.914  1.2936  0.2233  2.1278
 4534SOL    HW214502   6.273   6.088   4.905  0.9079  0.8983 -2.4016
 4535SOL     OW14503   3.676   1.737   2.671  0.2567 -0.3590 -0.6091
 4535SOL    HW114504   3.708   1.707   2.581  0.9917 -0.2929 -0.3761
 4535SOL    HW214505   3.625   1.822   2.662  1.8073  0.5864 -0.7694
 4536SOL     OW14506   6.815   6.890   3.237  0.0574 -0.3700  0.6603
 4536SOL    HW114507   6.860   6.979   3.252 -0.0733 -0.0312 -0.8322
 4536SOL    HW214508   6.885   6.820   3.221  0.1569  0.2682 -2.2660
 4537SOL     OW14509   6.074   2.561   5.987 -0.4084  0.7353 -0.4931
 4537SOL    HW114510   6.025   2.647   6.004  0.0923  1.0175 -0.4471
 4537SOL    HW214511   6.162   2.563   6.033 -0.9178 -0.3374  0.5641
 4538SOL     OW14512   2.873   1.454   1.055  0.3047  0.0786  0.1347
 4538SOL    HW114513   2.778   1.463   1.024  1.1687 -0.8211 -3.1547
 4538SOL    HW214514   2.909   1.543   1.079 -0.8534  0.6749 -0.2562
 4539SOL     OW14515   3.006   5.076   0.511  0.4759  0.1837  0.1419
 4539SOL    HW114516   3.061   5.147   0.467 -1.8477  0.3567 -2.8371
 4539SOL    HW214517   2.909   5.093   0.492 -0.2516 -3.0407  0.4402
 4540SOL     OW14518   3.261   2.975   4.181  0.3903 -0.4913 -0.3395
 4540SOL    HW114519   3.345   2.953   4.132  0.5464  0.3241 -0.4491
 4540SOL    HW214520   3.183   2.971   4.118  0.4848 -0.2417 -0.4741
 4541SOL     OW14521   6.900   1.061   3.597  0.3812  0.2918 -0.7773
 4541SOL    HW114522   6.908   1.112   3.683 -3.5560  0.7878 -0.5493
 4541SOL    HW214523   6.969   0.988   3.596  0.4415  0.0924  2.9452
 4542SOL     OW14524   5.787   6.086   3.478  0.3494  0.0524 -0.0973
 4542SOL    HW114525   5.882   6.069   3.450  0.4132 -0.9519  0.6763
 4542SOL    HW214526   5.763   6.181   3.457  1.2747  0.1125 -0.9890
 4543SOL     OW14527   4.562   2.540   2.255  0.2135 -0.1752  0.1713
 4543SOL    HW114528   4.544   2.616   2.193  0.5533 -0.8049 -0.7159
 4543SOL    HW214529   4.658   2.542   2.283  0.4919 -0.8882 -0.7061
 4544SOL     OW14530   6.916   4.143   0.118 -0.0056  0.6498 -0.4874
 4544SOL    HW114531   6.816   4.135   0.116  0.1197 -1.2557 -1.2658
 4544SOL    HW214532   6.945   4.213   0.054 -0.9168  2.9068  1.4190
 4545SOL     OW14533   6.149   5.810   0.687 -0.3335  0.1005  0.2941
 4545SOL    HW114534   6.244   5.821   0.659  0.1895  0.3294  1.9902
 4545SOL    HW214535   6.146   5.792   0.786 -2.1170  1.6196  0.5759
 4546SOL     OW14536   1.428   6.202   1.216  0.0600 -0.4965  0.7406
 4546SOL    HW114537   1.526   6.212   1.234 -0.1153  0.1755  1.4064
 4546SOL    HW214538   1.405   6.105   1.209  0.5502 -0.7144  1.9185
 4547SOL     OW14539   3.305   1.106   3.085  0.1307  0.2011 -0.4390
 4547SOL    HW114540   3.213   1.071   3.068  0.6497 -1.8021  0.5819
 4547SOL    HW214541   3.362   1.094   3.004 -0.3298  0.8960 -0.8739
 4548SOL     OW14542   5.797   4.455   5.585 -0.3870  0.3260 -0.1684
 4548SOL    HW114543   5.700   4.477   5.573 -0.6617 -0.1989  0.9081
 4548SOL    HW214544   5.806   4.360   5.612  0.1903  1.0376  2.4288
 4549SOL     OW14545   6.075   1.221   3.187 -0.3507  0.0949 -0.5749
 4549SOL    HW114546   6.059   1.231   3.285 -1.5086 -2.4543 -0.4322
 4549SOL    HW214547   6.149   1.156   3.172  0.0119  0.6876 -1.4138
 4550SOL     OW14548   2.559   5.782   6.207 -0.1539  0.4474  0.3314
 4550SOL    HW114549   2.600   5.694   6.185 -1.2212 -0.0523  0.3085
 4550SOL    HW214550   2.464   5.769   6.236 -0.6966  1.6952 -0.8079
 4551SOL     OW14551   6.418   1.634   1.067 -0.8607 -0.6336 -0.5111
 4551SOL    HW114552   6.406   1.656   0.971 -2.7117  0.8680  0.0066
 4551SOL    HW214553   6.335   1.659   1.118 -0.4372 -2.5376  1.2921
 4552SOL     OW14554   5.513   5.360   3.880 -0.1498 -0.2627 -1.0554
 4552SOL    HW114555   5.414   5.355   3.879 -0.1532 -0.2510 -2.8565
 4552SOL    HW214556   5.551   5.268   3.893 -0.3588 -0.1126  0.9810
 4553SOL     OW14557   5.637   5.647   0.296  0.7462 -0.0966  0.3315
 4553SOL    HW114558   5.548   5.682   0.267  0.9330 -0.2105 -0.4137
 4553SOL    HW214559   5.677   5.709   0.363  0.9578  0.9875 -0.7692
 4554SOL     OW14560   5.791   6.479   3.647 -0.2506  0.0439 -0.0280
 4554SOL    HW114561   5.760   6.573   3.660 -0.7242 -0.0129 -0.7038
 4554SOL    HW214562   5.790   6.457   3.550 -0.7974 -0.8787  0.1760
 4555SOL     OW14563   3.863   2.097   0.319  0.1414 -0.3305  0.3806
 4555SOL    HW114564   3.871   2.177   0.378  2.5333 -0.1891 -0.0500
 4555SOL    HW214565   3.923   2.107   0.240  0.3805 -2.4726  0.2224
 4556SOL     OW14566   2.732   0.916   3.922 -0.0404 -0.1916  0.2899
 4556SOL    HW114567   2.658   0.869   3.970 -1.1780 -0.1501 -1.3299
 4556SOL    HW214568   2.741   1.009   3.957 -1.6434  0.2293 -0.3385
 4557SOL     OW14569   4.505   1.241   5.361 -0.3214  0.2353 -0.7864
 4557SOL    HW114570   4.472   1.323   5.314  0.2562  1.1562  0.3932
 4557SOL    HW214571   4.506   1.256   5.459  0.2338 -1.0367 -0.5715
 4558SOL     OW14572   1.528   4.530   4.883  0.1103 -0.3703 -0.5425
 4558SOL    HW114573   1.478   4.445   4.893 -0.6635  0.0766 -0.5393
 4558SOL    HW214574   1.626   4.511   4.873 -0.0749 -1.2555 -0.6865
 4559SOL     OW14575   4.082   6.813   6.648 -0.1040 -0.1465 -0.3286
 4559SOL    HW114576   4.065   6.811   6.747  1.2682  0.8589 -0.0520
 4559SOL    HW214577   4.000   6.849   6.602 -0.9754 -1.1727  0.3638
 4560SOL     OW14578   6.665   1.288   4.794 -0.0591  0.3882 -0.1356
 4560SOL    HW114579   6.568   1.303   4.774 -0.2453 -0.1042  0.3942
 4560SOL    HW214580   6.676   1.204   4.846  0.7834 -0.3148 -1.4000
 4561SOL     OW14581   5.088   5.437   4.898  0.5835 -0.0120  0.0057
 4561SOL    HW114582   5.096   5.347   4.854 -0.3570 -0.2413  0.2934
 4561SOL    HW214583   5.151   5.501   4.853  1.2736 -0.8092 -0.1924
 4562SOL     OW14584   3.309   4.111   4.324  0.0571  0.3508 -0.2790
 4562SOL    HW114585   3.240   4.111   4.397 -0.7813  0.1193 -1.0424
 4562SOL    HW214586   3.271   4.158   4.243  0.7122  0.0177 -0.7884
 4563SOL     OW14587   6.823   3.636   0.961 -0.2199 -0.5680  0.2702
 4563SOL    HW114588   6.897   3.651   1.026  0.7080 -1.5307 -0.5207
 4563SOL    HW214589   6.741   3.608   1.010  0.6305 -1.8810  1.0228
 4564SOL     OW14590   6.018   6.549   6.972 -0.8549  0.6071 -0.4604
 4564SOL    HW114591   6.083   6.473   6.975 -0.5730  0.8788  0.6552
 4564SOL    HW214592   6.067   6.636   6.969 -1.1065  0.8019 -4.4515
 4565SOL     OW14593   4.654   6.943   2.034  0.4899  0.4823  0.0921
 4565SOL    HW114594   4.726   6.898   2.087  0.3501  1.3302  1.0241
 4565SOL    HW214595   4.587   6.875   2.005  0.5718 -0.0025  0.9985
 4566SOL     OW14596   2.290   0.717   1.679 -0.0540 -0.1161  0.3998
 4566SOL    HW114597   2.370   0.687   1.628  0.4187  0.2476  0.9138
 4566SOL    HW214598   2.274   0.655   1.756 -0.4650 -0.3763  0.1087
 4567SOL     OW14599   4.390   2.431   1.266 -0.1031 -0.3361 -0.5686
 4567SOL    HW114600   4.386   2.331   1.273  0.9745 -0.2968  1.1449
 4567SOL    HW214601   4.485   2.459   1.260 -0.3367  0.6431  0.1329
 4568SOL     OW14602   4.046   4.833   4.201  0.2360 -0.5428  0.1567
 4568SOL    HW114603   3.975   4.839   4.131  0.9412  0.4578 -0.5035
 4568SOL    HW214604   4.007   4.860   4.290 -0.6040 -1.5980  0.1244
 4569SOL     OW14605   2.192   0.653   3.412  0.4913 -0.0761 -0.2056
 4569SOL    HW114606   2.241   0.724   3.362  1.3561 -1.2874 -1.1270
 4569SOL    HW214607   2.256   0.581   3.440 -0.3427 -0.4472  0.8167
 4570SOL     OW14608   4.657   6.481   4.351  0.2791 -0.3640  0.2907
 4570SOL    HW114609   4.653   6.547   4.276  2.1961 -0.0106  0.4542
 4570SOL    HW214610   4.569   6.434   4.359 -0.2666  0.2739 -1.5421
 4571SOL     OW14611   2.908   3.342   4.884  0.1651 -0.2830 -0.4664
 4571SOL    HW114612   2.830   3.298   4.841 -0.6975 -0.1752  0.9165
 4571SOL    HW214613   2.971   3.271   4.918  0.9750 -0.3671 -2.0399
 4572SOL     OW14614   3.117   5.489   0.682 -0.2082 -0.4101 -0.0260
 4572SOL    HW114615   3.100   5.519   0.589  3.0651 -3.3780 -1.8111
 4572SOL    HW214616   3.041   5.432   0.714 -0.6739 -0.6151 -1.4619
 4573SOL     OW14617   5.912   6.976   2.089 -0.2687 -0.2794 -0.0082
 4573SOL    HW114618   5.998   6.960   2.137  0.3539 -1.1463 -1.3673
 4573SOL    HW214619   5.888   7.072   2.095 -0.1568 -0.3279  1.9087
 4574SOL     OW14620   0.304   4.416   1.309 -0.6010 -0.1688 -0.4132
 4574SOL    HW114621   0.387   4.404   1.364 -0.4607  0.9315 -0.3589
 4574SOL    HW214622   0.274   4.327   1.275  1.1105 -0.5025 -1.1749
 4575SOL     OW14623   6.915   1.219   0.316 -0.2252 -0.0508  0.0681
 4575SOL    HW114624   6.858   1.162   0.374 -1.0405  1.2246  0.5573
 4575SOL    HW214625   6.867   1.239   0.230  0.7500 -1.4743 -0.8404
 4576SOL     OW14626   3.996   7.001   3.621  0.4070  0.0364 -0.0980
 4576SOL    HW114627   4.049   7.072   3.573  0.3697  1.1508  1.4430
 4576SOL    HW214628   4.052   6.961   3.694 -0.6618  0.8631  1.2154
 4577SOL     OW14629   3.918   6.357   5.786  0.6279  0.7987  0.1232
 4577SOL    HW114630   3.858   6.314   5.718 -0.5241  0.3853  1.3726
 4577SOL    HW214631   3.910   6.310   5.873  3.6664 -0.0020  0.0889
 4578SOL     OW14632   6.946   6.231   2.746 -0.4296 -0.2060 -0.1320
 4578SOL    HW114633   6.952   6.330   2.760 -0.6775 -0.1405 -0.4869
 4578SOL    HW214634   6.957   6.185   2.834  1.2064  0.0732 -0.1538
 4579SOL     OW14635   3.860   1.267   2.683  0.5550 -0.5455 -0.1338
 4579SOL    HW114636   3.810   1.343   2.725  1.0604  0.3574 -1.1009
 4579SOL    HW214637   3.798   1.214   2.625  0.2894 -0.6447  0.2339
 4580SOL     OW14638   1.439   6.118   0.120  0.0977 -0.2215 -0.9319
 4580SOL    HW114639   1.512   6.180   0.090 -0.2045  1.7704  2.0292
 4580SOL    HW214640   1.354   6.169   0.129 -0.8597 -1.7466 -1.0369
 4581SOL     OW14641   1.960   4.466   4.079 -0.3646  0.6144  0.3096
 4581SOL    HW114642   2.049   4.445   4.039 -0.0678  1.7031  0.3564
 4581SOL    HW214643   1.971   4.535   4.151 -1.1582  0.2347  0.8139
 4582SOL     OW14644   3.220   5.318   2.503 -0.0120  0.8450  0.1848
 4582SOL    HW114645   3.280   5.238   2.502  0.8060  1.4529  0.4885
 4582SOL    HW214646   3.137   5.297   2.555  0.4101  0.3499  0.6582
 4583SOL     OW14647   4.400   6.878   4.848 -0.8412 -0.2425 -0.7017
 4583SOL    HW114648   4.323   6.923   4.894 -0.8844  0.6415 -1.5898
 4583SOL    HW214649   4.421   6.928   4.764  0.6348 -0.5505 -0.5302
 4584SOL     OW14650   6.648   5.067   5.446 -0.5034 -0.2794  0.0066
 4584SOL    HW114651   6.604   4.978   5.429  2.4573 -1.3385 -3.3214
 4584SOL    HW214652   6.604   5.137   5.390  0.5785 -0.8822 -1.6547
 4585SOL     OW14653   2.590   1.518   2.130 -0.0456 -1.1521  0.1546
 4585SOL    HW114654   2.562   1.424   2.110 -2.3482 -0.7140  0.9795
 4585SOL    HW214655   2.633   1.521   2.221 -0.2592 -1.3571  0.2638
 4586SOL     OW14656   1.218   6.124   2.042 -0.2456 -0.2847  0.0358
 4586SOL    HW114657   1.136   6.152   1.991 -1.4554 -0.4901  1.7819
 4586SOL    HW214658   1.244   6.196   2.106 -0.2269 -1.0067  0.8533
 4587SOL     OW14659   3.604   4.790   1.424 -0.3417  0.5098 -0.1302
 4587SOL    HW114660   3.645   4.739   1.499 -0.7163  0.6992  0.2116
 4587SOL    HW214661   3.630   4.887   1.431  0.2627  0.3952 -0.7015
 4588SOL     OW14662   3.581   3.326   4.388 -0.5067 -0.6537  0.0656
 4588SOL    HW114663   3.634   3.296   4.467  2.8446  1.2956 -1.2158
 4588SOL    HW214664   3.606   3.272   4.308 -0.4434  0.2839 -0.5647
 4589SOL     OW14665   2.559   0.701   2.266  0.2987 -0.0491 -0.0827
 4589SOL    HW114666   2.643   0.718   2.214 -0.6275 -0.3310 -1.7269
 4589SOL    HW214667   2.548   0.773   2.335  1.6577  0.2240 -0.1092
 4590SOL     OW14668   1.718   6.190   3.154 -0.2683 -0.1812 -0.3664
 4590SOL    HW114669   1.785   6.251   3.197 -0.4687 -0.1289 -0.1257
 4590SOL    HW214670   1.753   6.096   3.156 -0.3022 -0.1869 -0.0385
 4591SOL     OW14671   6.303   5.488   2.797 -0.2791  0.4150  0.5581
 4591SOL    HW114672   6.386   5.513   2.746  0.3450  0.5968  1.6353
 4591SOL    HW214673   6.256   5.571   2.827 -2.0572  0.3769 -1.8688
 4592SOL     OW14674   4.682   1.857   6.828  0.0555  0.5179  0.1967
 4592SOL    HW114675   4.780   1.874   6.838 -0.0363  0.5582  1.0851
 4592SOL    HW214676   4.666   1.795   6.751  1.1155 -2.7144  2.3770
 4593SOL     OW14677   4.620   3.405   1.099  0.6280  0.6370 -0.2316
 4593SOL    HW114678   4.576   3.371   1.016  2.0234  0.9312 -1.1298
 4593SOL    HW214679   4.608   3.504   1.105  0.3458  0.5880  0.0389
 4594SOL     OW14680   4.042   7.022   1.729  0.3634 -0.3197  0.1454
 4594SOL    HW114681   3.993   7.109   1.728 -0.0997 -0.5775 -0.6338
 4594SOL    HW214682   4.116   7.024   1.662 -0.5399 -1.0024 -0.9165
 4595SOL     OW14683   2.933   4.195   5.231 -0.4915  0.4160 -0.4223
 4595SOL    HW114684   2.938   4.168   5.327  0.8202 -1.0406 -0.8706
 4595SOL    HW214685   2.941   4.295   5.224  2.6775  0.3474  0.8337
 4596SOL     OW14686   4.804   1.286   1.743  0.1561 -0.5415 -0.5958
 4596SOL    HW114687   4.752   1.307   1.826 -0.3992 -0.6937 -0.9014
 4596SOL    HW214688   4.890   1.241   1.769  1.8106  2.7699  0.1276
 4597SOL     OW14689   6.650   1.661   0.506  0.6868 -0.4195 -0.4981
 4597SOL    HW114690   6.660   1.563   0.524 -0.0050 -0.3948  0.0826
 4597SOL    HW214691   6.589   1.701   0.574  0.7022  0.3548 -0.9272
 4598SOL     OW14692   1.606   4.038   5.945 -0.6859  0.0934 -0.1696
 4598SOL    HW114693   1.602   4.033   5.845 -2.0148 -0.0600 -0.1276
 4598SOL    HW214694   1.516   4.066   5.980 -0.6808 -1.3182  1.0566
 4599SOL     OW14695   1.431   5.988   6.887 -0.3914  0.1095  0.3901
 4599SOL    HW114696   1.514   6.016   6.936 -0.7747 -0.1208  1.1856
 4599SOL    HW214697   1.376   5.929   6.945  0.8129 -3.1601 -1.5010
 4600SOL     OW14698   1.604   4.572   0.377  0.4545 -0.1965 -0.6212
 4600SOL    HW114699   1.587   4.479   0.346 -1.1823  0.0186 -0.4510
 4600SOL    HW214700   1.701   4.594   0.366  0.8831 -1.9465 -0.5407
 4601SOL     OW14701   0.765   5.820   5.147  0.1105  0.1877 -0.6386
 4601SOL    HW114702   0.860   5.792   5.131  0.6274  2.3031 -1.6057
 4601SOL    HW214703   0.708   5.738   5.157  2.3930 -1.2159  2.8512
 4602SOL     OW14704   0.894   1.046   0.667 -0.1735  0.1119  1.3479
 4602SOL    HW114705   0.839   1.129   0.661  1.0297  0.9618  1.7434
 4602SOL    HW214706   0.958   1.054   0.743 -0.2883 -1.3519  1.6353
 4603SOL     OW14707   0.691   3.314   2.490 -0.1968 -0.3464 -0.1145
 4603SOL    HW114708   0.640   3.257   2.554  1.4090 -0.3850  1.2055
 4603SOL    HW214709   0.708   3.263   2.406 -1.2241 -0.7710 -0.0749
 4604SOL     OW14710   6.561   2.344   3.246  0.1352 -0.0129 -0.3023
 4604SOL    HW114711   6.528   2.403   3.319  2.1550  2.3893 -1.1929
 4604SOL    HW214712   6.566   2.249   3.279 -1.4296  0.5691  1.7919
 4605SOL     OW14713   6.891   6.494   5.750  0.6155 -0.0687 -0.2253
 4605SOL    HW114714   6.911   6.589   5.772 -2.0485  0.0934  2.0470
 4605SOL    HW214715   6.948   6.434   5.806  1.2597  0.1902 -0.5941
 4606SOL     OW14716   0.534   6.263   5.219  0.0489  0.2238 -0.4335
 4606SOL    HW114717   0.565   6.183   5.168 -0.8973  0.5961 -1.6327
 4606SOL    HW214718   0.605   6.290   5.284 -0.0217 -2.2271  0.8027
 4607SOL     OW14719   0.960   2.921   6.526 -0.2183 -0.3956 -0.0631
 4607SOL    HW114720   0.886   2.896   6.589  0.0369  1.9994  1.2829
 4607SOL    HW214721   1.047   2.914   6.574 -0.1640  3.4906  0.6814
 4608SOL     OW14722   1.039   3.719   5.539  0.5746  1.0301  0.6414
 4608SOL    HW114723   1.068   3.716   5.443 -2.5928  1.6133 -0.4468
 4608SOL    HW214724   1.002   3.630   5.566 -0.8504  1.5373  0.4620
 4609SOL     OW14725   3.358   6.924   6.416  0.3948 -0.0470  0.4914
 4609SOL    HW114726   3.382   6.961   6.506  1.4282 -0.2330  0.3050
 4609SOL    HW214727   3.397   6.832   6.406  0.4908  0.0649 -0.2327
 4610SOL     OW14728   1.975   2.353   0.781 -0.3347 -0.0400  0.2171
 4610SOL    HW114729   2.054   2.300   0.750  0.7462  0.5631  1.7983
 4610SOL    HW214730   1.953   2.328   0.875 -1.1938  0.7395  0.2407
 4611SOL     OW14731   1.611   4.867   5.071  0.0715 -0.0568  0.8677
 4611SOL    HW114732   1.539   4.846   5.004  0.9101 -1.5731  0.3978
 4611SOL    HW214733   1.674   4.934   5.032 -0.6333  0.6890  0.9815
 4612SOL     OW14734   2.570   0.795   6.293  0.0881 -0.4676  0.4572
 4612SOL    HW114735   2.572   0.863   6.366 -1.7677 -0.9004  0.9630
 4612SOL    HW214736   2.624   0.828   6.215  0.6390  0.7859  1.3353
 4613SOL     OW14737   4.759   4.926   6.695 -0.3229  0.0898  0.7382
 4613SOL    HW114738   4.857   4.921   6.677  0.0034  3.1942  1.1135
 4613SOL    HW214739   4.740   4.893   6.787  0.2376 -1.1207  0.4423
 4614SOL     OW14740   2.059   4.444   1.248  0.2018  0.2660  0.4895
 4614SOL    HW114741   2.156   4.460   1.227  0.2375  1.6016  1.5202
 4614SOL    HW214742   2.051   4.364   1.307  0.6975  0.2413  0.5280
 4615SOL     OW14743   4.987   3.923   6.256 -0.3732  0.6184 -0.0526
 4615SOL    HW114744   5.054   3.987   6.218 -0.6105 -0.0214 -1.6276
 4615SOL    HW214745   5.019   3.829   6.242 -0.8500  0.3388  0.6611
 4616SOL     OW14746   0.663   0.249   0.028 -0.0011  0.0802 -0.4128
 4616SOL    HW114747   0.577   0.276   0.072 -0.7451 -0.6245 -1.3736
 4616SOL    HW214748   0.734   0.239   0.097 -1.0462 -0.6623  0.6054
 4617SOL     OW14749   0.145   4.472   2.108  0.1720  0.3193  0.1628
 4617SOL    HW114750   0.075   4.543   2.099  0.8949  0.8367 -1.9219
 4617SOL    HW214751   0.217   4.503   2.169 -0.1014  0.8817  0.2021
 4618SOL     OW14752   2.544   1.843   0.170  0.3763 -0.0416  0.2449
 4618SOL    HW114753   2.536   1.919   0.233  0.6562 -0.5305  0.8788
 4618SOL    HW214754   2.586   1.874   0.085 -2.1158  1.1458 -0.6601
 4619SOL     OW14755   4.654   2.004   3.285 -0.2485  0.3353  0.2722
 4619SOL    HW114756   4.581   1.999   3.218  0.7240  1.8467 -0.9555
 4619SOL    HW214757   4.661   2.097   3.321  0.5619  0.0311  0.9441
 4620SOL     OW14758   1.715   5.005   2.070  0.2240 -0.5478  0.2740
 4620SOL    HW114759   1.796   4.947   2.076  0.7820 -0.1943 -2.5234
 4620SOL    HW214760   1.635   4.949   2.046  0.3384 -0.4539 -0.3366
 4621SOL     OW14761   5.655   1.802   5.934 -0.2751 -0.3005 -0.3151
 4621SOL    HW114762   5.585   1.740   5.899 -0.3987 -0.7796  0.7419
 4621SOL    HW214763   5.622   1.896   5.928 -0.7753 -0.4747 -0.3653
 4622SOL     OW14764   1.016   6.260   6.838  0.5036 -0.4082  0.3571
 4622SOL    HW114765   1.112   6.264   6.810  0.5519 -0.5860  0.5005
 4622SOL    HW214766   0.998   6.174   6.884  0.4135 -0.1368  0.8359
 4623SOL     OW14767   0.582   5.413   5.566  0.4998 -0.3860 -0.4160
 4623SOL    HW114768   0.520   5.427   5.489 -0.3712 -0.3507  0.2748
 4623SOL    HW214769   0.535   5.360   5.637  1.3230 -0.5065  0.0494
 4624SOL     OW14770   5.243   6.334   5.254 -0.2921 -0.3742  0.0614
 4624SOL    HW114771   5.225   6.350   5.157 -0.1518 -3.1456 -0.5014
 4624SOL    HW214772   5.157   6.317   5.302 -0.1643 -2.0841 -0.2569
 4625SOL     OW14773   6.412   4.611   6.273 -0.9905 -0.3650 -0.5472
 4625SOL    HW114774   6.396   4.708   6.254  0.4446  0.0927  0.4169
 4625SOL    HW214775   6.468   4.572   6.201 -1.1246 -0.3511 -0.6607
 4626SOL     OW14776   6.089   3.750   1.431  0.2358 -0.8340 -0.3292
 4626SOL    HW114777   6.181   3.785   1.450 -0.7130  0.8337  1.6798
 4626SOL    HW214778   6.022   3.822   1.449 -1.6010 -2.5697  0.1791
 4627SOL     OW14779   1.243   5.947   2.772 -0.2856  0.4085  0.2520
 4627SOL    HW114780   1.207   5.896   2.849 -2.0426 -0.0168 -0.7961
 4627SOL    HW214781   1.317   6.007   2.803  1.7394 -2.5402  1.5908
 4628SOL     OW14782   1.071   1.935   0.712 -0.2571 -0.2436 -0.3036
 4628SOL    HW114783   1.136   1.934   0.636 -2.9807 -0.0135 -2.8031
 4628SOL    HW214784   1.022   2.022   0.714  0.4633  0.2048  2.4893
 4629SOL     OW14785   3.624   6.472   3.966 -0.5234  0.1001 -0.3310
 4629SOL    HW114786   3.633   6.446   4.062  0.3626 -0.1039 -0.4598
 4629SOL    HW214787   3.569   6.403   3.918  0.1035 -0.4913 -0.2285
 4630SOL     OW14788   0.236   5.762   2.360 -0.0182  0.2027  0.2199
 4630SOL    HW114789   0.301   5.830   2.393 -0.3508  0.0513  1.2237
 4630SOL    HW214790   0.246   5.751   2.261  1.0385  0.6339  0.2706
 4631SOL     OW14791   0.386   0.825   3.792 -0.4803  0.5657  0.0483
 4631SOL    HW114792   0.414   0.729   3.797  1.5116  1.0889 -0.4659
 4631SOL    HW214793   0.406   0.861   3.700  3.7086  2.8308  1.5868
 4632SOL     OW14794   6.964   7.000   3.709  1.0932  0.8050 -0.3574
 4632SOL    HW114795   7.006   7.020   3.798  1.2747  1.0088 -0.4886
 4632SOL    HW214796   6.878   7.052   3.701  0.2090 -0.4927  0.3871
 4633SOL     OW14797   4.301   3.336   5.360  0.5654 -0.1422 -0.0027
 4633SOL    HW114798   4.277   3.340   5.457  2.1235  0.9102  0.3712
 4633SOL    HW214799   4.356   3.416   5.336 -0.0418 -0.2378 -1.8398
 4634SOL     OW14800   1.777   4.740   6.914 -0.4004  0.3701  0.1041
 4634SOL    HW114801   1.872   4.723   6.939 -1.2027 -4.9692  0.6864
 4634SOL    HW214802   1.716   4.703   6.984 -2.7765 -1.9522 -2.8868
 4635SOL     OW14803   4.316   4.288   6.147 -0.8155 -0.0454 -0.5231
 4635SOL    HW114804   4.245   4.338   6.099 -0.2939  2.7151  1.3215
 4635SOL    HW214805   4.382   4.252   6.081 -2.0831  0.3267 -2.0523
 4636SOL     OW14806   5.553   4.475   2.223  0.3197 -0.0820 -0.3875
 4636SOL    HW114807   5.584   4.387   2.261 -1.3812 -2.1659 -3.4592
 4636SOL    HW214808   5.499   4.523   2.292  3.9184  0.3033  2.5492
 4637SOL     OW14809   1.084   1.052   6.386 -0.0574  0.1210  0.2554
 4637SOL    HW114810   1.124   1.140   6.411 -0.1092 -0.0471  0.9517
 4637SOL    HW214811   1.083   0.992   6.466 -1.9920  0.2343  0.3484
 4638SOL     OW14812   5.229   4.580   4.975 -0.5646  0.0072  0.5181
 4638SOL    HW114813   5.319   4.614   4.948 -0.0971 -1.6130 -0.0781
 4638SOL    HW214814   5.189   4.528   4.899 -2.4484  1.5055  0.4225
 4639SOL     OW14815   6.209   2.207   5.763  0.3299  0.0695  0.1059
 4639SOL    HW114816   6.171   2.298   5.750  2.9369  1.0901 -1.2224
 4639SOL    HW214817   6.210   2.184   5.860 -4.7097 -0.6989  0.2562
 4640SOL     OW14818   1.160   3.413   3.390  0.3478  0.0108  0.1031
 4640SOL    HW114819   1.084   3.438   3.451  0.9845 -1.1386  1.4240
 4640SOL    HW214820   1.239   3.470   3.411  0.4435 -0.1097  0.0671
 4641SOL     OW14821   0.860   3.989   6.112  0.1464  0.1418  0.4067
 4641SOL    HW114822   0.763   3.980   6.136  0.4662  0.3394  1.8564
 4641SOL    HW214823   0.892   3.904   6.070 -0.2845 -0.4856  1.3244
 4642SOL     OW14824   0.165   5.650   5.302  0.2045 -0.2708 -0.2125
 4642SOL    HW114825   0.265   5.660   5.301  0.3608 -1.2930 -2.9545
 4642SOL    HW214826   0.141   5.553   5.297 -0.8713  0.0548 -2.1002
 4643SOL     OW14827   4.750   3.896   1.770  0.0079  0.0387  0.2851
 4643SOL    HW114828   4.659   3.905   1.728 -0.3710 -0.5991  0.9437
 4643SOL    HW214829   4.773   3.980   1.819 -0.7280 -0.2010  1.0634
 4644SOL     OW14830   3.625   4.749   5.340  0.6108 -0.3273  0.1958
 4644SOL    HW114831   3.573   4.665   5.357  0.9015 -1.2181 -2.8451
 4644SOL    HW214832   3.720   4.736   5.369  0.2170 -0.3028  1.5602
 4645SOL     OW14833   0.852   4.354   5.275 -0.3172  0.1258 -0.2498
 4645SOL    HW114834   0.767   4.388   5.316  1.2450  1.9917  1.6445
 4645SOL    HW214835   0.890   4.424   5.214  0.7871  0.1037  0.3842
 4646SOL     OW14836   3.660   1.746   0.595 -0.2916 -0.3204  0.0315
 4646SOL    HW114837   3.585   1.718   0.535  1.2796 -2.6036 -0.9989
 4646SOL    HW214838   3.702   1.830   0.560 -1.2954  0.0615 -0.3000
 4647SOL     OW14839   0.842   1.222   4.664 -0.0946 -0.4066  0.4042
 4647SOL    HW114840   0.823   1.165   4.584  0.1068  0.8217 -0.5522
 4647SOL    HW214841   0.844   1.165   4.746 -0.4124 -1.6807 -0.4451
 4648SOL     OW14842   1.791   5.015   4.696  0.0064 -0.5507 -0.2753
 4648SOL    HW114843   1.855   4.940   4.711  0.4011 -0.1711 -0.0553
 4648SOL    HW214844   1.724   4.988   4.626 -0.1765 -1.3060  0.1701
 4649SOL     OW14845   5.546   5.995   6.197 -0.5538  0.1844  0.5199
 4649SOL    HW114846   5.513   6.013   6.104  0.2366  1.6992  0.5080
 4649SOL    HW214847   5.646   5.994   6.198 -0.5486  0.4819  1.4068
 4650SOL     OW14848   6.424   6.333   1.597 -0.3850 -0.8244  0.0633
 4650SOL    HW114849   6.353   6.264   1.585 -0.0608 -0.9324 -1.4102
 4650SOL    HW214850   6.467   6.322   1.686 -1.5766 -1.3407  0.6007
 4651SOL     OW14851   6.896   1.486   0.072 -0.3590  0.7542  0.4288
 4651SOL    HW114852   6.839   1.546   0.128 -1.6768 -0.2338  0.1871
 4651SOL    HW214853   6.993   1.503   0.093 -0.7467  2.0451  1.2750
 4652SOL     OW14854   5.804   6.474   0.352  0.3482 -0.1416 -0.1295
 4652SOL    HW114855   5.888   6.421   0.361  0.9018  0.5085 -1.2530
 4652SOL    HW214856   5.736   6.421   0.301 -0.0320 -0.7647  0.9928
 4653SOL     OW14857   0.961   4.623   4.265  0.4549 -0.1205  0.3927
 4653SOL    HW114858   0.957   4.525   4.283 -0.0818  0.2988  2.9209
 4653SOL    HW214859   1.019   4.667   4.334 -0.0985  1.4490 -0.1082
 4654SOL     OW14860   1.124   2.214   6.983 -0.0661  0.0641 -0.0615
 4654SOL    HW114861   1.159   2.306   7.001  0.2900 -0.1426  0.3146
 4654SOL    HW214862   1.201   2.150   6.976 -0.2288 -0.0165 -1.4458
 4655SOL     OW14863   0.237   5.913   5.461 -0.3109  0.3813 -0.0050
 4655SOL    HW114864   0.287   5.994   5.491 -0.5581 -0.4613  3.0179
 4655SOL    HW214865   0.301   5.848   5.419  0.2792  1.1804 -0.3650
 4656SOL     OW14866   1.841   0.551   1.473 -0.3005 -0.1583 -0.0486
 4656SOL    HW114867   1.911   0.486   1.445 -0.1372  0.1145 -0.2838
 4656SOL    HW214868   1.781   0.570   1.395  2.1907  3.2624 -1.3950
 4657SOL     OW14869   1.291   1.121   5.476 -0.1965  0.0761 -0.5853
 4657SOL    HW114870   1.232   1.168   5.541 -1.1054 -0.0424 -1.3081
 4657SOL    HW214871   1.346   1.188   5.426 -0.6419  0.2865 -0.7964
 4658SOL     OW14872   4.628   6.575   3.321  0.3711 -0.4877 -0.0259
 4658SOL    HW114873   4.663   6.666   3.302  1.2130 -0.5580  1.0824
 4658SOL    HW214874   4.546   6.582   3.378  0.5196 -0.4171  0.1817
 4659SOL     OW14875   1.914   3.510   3.750  0.5116 -0.0277  0.3289
 4659SOL    HW114876   1.968   3.594   3.749  1.5765 -0.6977 -0.0160
 4659SOL    HW214877   1.940   3.452   3.673 -0.9093 -0.2561 -0.0052
 4660SOL     OW14878   0.323   1.647   4.865  0.6667 -0.3696  0.1062
 4660SOL    HW114879   0.373   1.679   4.945 -1.4872 -0.2321  1.4524
 4660SOL    HW214880   0.249   1.710   4.844  0.7425 -0.7890 -1.5924
 4661SOL     OW14881   3.719   3.286   3.313  0.2819 -0.3515 -0.1307
 4661SOL    HW114882   3.635   3.233   3.296  0.2836 -0.3556 -0.1254
 4661SOL    HW214883   3.705   3.380   3.284 -0.0882 -0.0896  0.8589
 4662SOL     OW14884   5.346   6.605   4.355  0.6176 -0.1840 -0.1829
 4662SOL    HW114885   5.287   6.682   4.380 -0.1416 -0.1655 -1.8917
 4662SOL    HW214886   5.295   6.520   4.367  0.2190 -0.1704 -1.6327
 4663SOL     OW14887   6.185   1.837   2.217  0.0983 -0.2503 -0.8334
 4663SOL    HW114888   6.159   1.874   2.129 -0.8534  0.6155 -0.2066
 4663SOL    HW214889   6.178   1.737   2.215  0.5101 -0.2714 -1.8508
 4664SOL     OW14890   4.209   5.030   6.629  0.2963  0.4051  0.0000
 4664SOL    HW114891   4.267   5.037   6.710  0.6375  0.5082 -0.2505
 4664SOL    HW214892   4.190   4.934   6.609  0.6077  0.3563 -0.0739
 4665SOL     OW14893   4.404   5.877   6.220 -0.2939 -0.1278 -0.1137
 4665SOL    HW114894   4.479   5.907   6.161 -0.2282  1.6508  0.7996
 4665SOL    HW214895   4.434   5.800   6.275  0.2070 -0.6901 -1.1407
 4666SOL     OW14896   2.063   0.259   2.123 -0.3137  0.1613  0.4736
 4666SOL    HW114897   1.966   0.247   2.102 -0.3048 -0.3420  0.7023
 4666SOL    HW214898   2.100   0.173   2.158  0.5524 -0.0814 -0.9327
 4667SOL     OW14899   0.844   0.682   4.102  0.1820  0.4664  0.0218
 4667SOL    HW114900   0.808   0.770   4.071  0.3658  0.6602  0.3538
 4667SOL    HW214901   0.769   0.624   4.131 -0.0455  0.1096 -1.2008
 4668SOL     OW14902   4.832   1.030   5.047 -0.4133 -0.2759  1.0412
 4668SOL    HW114903   4.834   0.984   4.958  0.6047  0.9079  0.4198
 4668SOL    HW214904   4.925   1.039   5.082 -0.7170  0.1410  1.7700
 4669SOL     OW14905   1.969   3.204   1.725 -0.3677  0.2759  0.4024
 4669SOL    HW114906   1.920   3.241   1.804 -0.0621  0.0549  0.7017
 4669SOL    HW214907   1.960   3.104   1.726 -0.6162  0.2926 -0.0155
 4670SOL     OW14908   2.403   2.715   3.499  0.2301 -0.0877 -0.7438
 4670SOL    HW114909   2.466   2.643   3.469 -0.9598 -1.4384 -0.0683
 4670SOL    HW214910   2.359   2.755   3.419 -0.4327 -1.3622 -1.0401
 4671SOL     OW14911   5.102   2.611   3.535  0.2909 -0.1299  0.4677
 4671SOL    HW114912   5.157   2.568   3.464  0.1252 -1.5461  1.1644
 4671SOL    HW214913   5.150   2.606   3.622 -0.9476 -1.5019  1.1128
 4672SOL     OW14914   1.463   0.635   6.194 -0.3417  0.0219  0.3709
 4672SOL    HW114915   1.432   0.616   6.287 -1.8789  0.3927 -0.0473
 4672SOL    HW214916   1.551   0.683   6.198 -0.7899  0.7888  1.6532
 4673SOL     OW14917   5.172   6.965   2.259  0.6942  0.1908  0.0900
 4673SOL    HW114918   5.111   6.921   2.324  0.3156  1.3013  0.5193
 4673SOL    HW214919   5.260   6.917   2.256  0.4902 -0.2397  0.9482
 4674SOL     OW14920   0.093   0.119   4.975  0.3352 -0.1223 -0.2984
 4674SOL    HW114921   0.106   0.135   5.073 -2.3859 -0.8946  0.2744
 4674SOL    HW214922   0.069   0.023   4.960 -1.1180  0.3999 -1.4818
 4675SOL     OW14923   0.147   4.786   5.824 -0.3747  0.1797 -0.3679
 4675SOL    HW114924   0.066   4.749   5.870  0.0050  2.3037  2.3046
 4675SOL    HW214925   0.118   4.845   5.749 -1.1639 -1.1830 -1.1649
 4676SOL     OW14926   0.637   6.803   2.814  0.2338  0.5828  0.1300
 4676SOL    HW114927   0.604   6.824   2.721  0.2014 -2.6822 -0.7405
 4676SOL    HW214928   0.565   6.753   2.863  0.4334  1.8669  1.8136
 4677SOL     OW14929   0.785   4.768   1.654 -0.2228 -0.0070 -0.2014
 4677SOL    HW114930   0.820   4.811   1.737 -0.5922  0.3391 -0.2202
 4677SOL    HW214931   0.738   4.683   1.678 -1.7038  0.8586  0.1578
 4678SOL     OW14932   1.713   1.572   1.452 -0.0153  0.2120 -0.5090
 4678SOL    HW114933   1.623   1.549   1.414  0.2261 -1.6119 -0.1067
 4678SOL    HW214934   1.716   1.544   1.548  0.6894  1.1072 -0.2576
 4679SOL     OW14935   6.067   6.436   2.189  0.3548 -0.0229 -0.2146
 4679SOL    HW114936   6.165   6.457   2.196  0.0257  1.4310  0.3828
 4679SOL    HW214937   6.014   6.519   2.206 -1.0322 -1.1654  1.4703
 4680SOL     OW14938   3.992   0.324   0.522 -0.3829 -0.2994 -0.3880
 4680SOL    HW114939   4.043   0.265   0.585  0.4856 -1.9415 -2.4892
 4680SOL    HW214940   3.992   0.282   0.431 -0.7759  2.4155 -1.7162
 4681SOL     OW14941   4.346   4.345   1.339  0.4726 -0.6680  0.2089
 4681SOL    HW114942   4.415   4.282   1.303  0.4237 -1.3733  1.3124
 4681SOL    HW214943   4.386   4.403   1.409  0.4720  0.4480 -0.6847
 4682SOL     OW14944   3.425   3.502   6.901  0.7027  0.0968 -0.8632
 4682SOL    HW114945   3.372   3.428   6.942  0.4148  1.4351  1.3160
 4682SOL    HW214946   3.508   3.465   6.861 -0.4495 -1.6593 -1.7623
 4683SOL     OW14947   0.197   3.578   3.739  0.2922 -0.0128 -0.6911
 4683SOL    HW114948   0.242   3.618   3.659  0.1424 -1.3516 -1.4758
 4683SOL    HW214949   0.125   3.640   3.771  1.1902  1.1204 -0.7922
 4684SOL     OW14950   4.130   5.545   5.479  0.1459  0.3780 -0.1337
 4684SOL    HW114951   4.071   5.476   5.521  1.0877 -0.6857 -0.4962
 4684SOL    HW214952   4.221   5.541   5.520  0.1381  1.6048  0.0287
 4685SOL     OW14953   3.302   4.022   4.030  0.3922 -0.2857  0.0203
 4685SOL    HW114954   3.246   4.055   3.953 -1.1501 -0.1440  1.1479
 4685SOL    HW214955   3.384   4.078   4.038 -0.0642  0.5130 -0.7312
 4686SOL     OW14956   0.781   1.229   6.491  0.0821 -0.7657 -0.3463
 4686SOL    HW114957   0.705   1.247   6.553 -0.7289 -1.9799 -0.9436
 4686SOL    HW214958   0.864   1.272   6.527 -0.5450 -0.7270  1.1404
 4687SOL     OW14959   0.470   6.674   3.009  0.2690 -0.0223 -0.7175
 4687SOL    HW114960   0.374   6.650   2.996 -0.0560 -0.6674  2.2311
 4687SOL    HW214961   0.525   6.591   3.017  0.7168  0.3147 -0.2142
 4688SOL     OW14962   5.520   1.761   5.296  0.3025  0.5093 -0.3600
 4688SOL    HW114963   5.547   1.708   5.216  1.3941  0.4507  0.0379
 4688SOL    HW214964   5.596   1.818   5.326 -0.2698  0.9418  0.3133
 4689SOL     OW14965   6.556   1.147   1.872 -0.5394  0.1162 -0.0699
 4689SOL    HW114966   6.562   1.176   1.967  1.4267 -4.2099  1.3702
 4689SOL    HW214967   6.634   1.183   1.821  0.7542 -0.9330  1.1083
 4690SOL     OW14968   1.981   0.802   1.233  0.0782 -0.0341  0.3289
 4690SOL    HW114969   2.047   0.752   1.177  0.4950  1.2402 -0.3720
 4690SOL    HW214970   1.911   0.843   1.174 -0.7150 -0.4495  0.9595
 4691SOL     OW14971   6.923   0.956   0.487 -0.1942 -0.0085  0.3196
 4691SOL    HW114972   7.009   0.992   0.525 -0.3285 -0.9756  1.6075
 4691SOL    HW214973   6.944   0.882   0.423 -0.0516  0.1636  0.1639
 4692SOL     OW14974   6.645   3.086   3.795  0.2617 -0.0067  0.0048
 4692SOL    HW114975   6.640   3.048   3.702 -2.0533 -0.9095  0.4206
 4692SOL    HW214976   6.606   3.178   3.795  0.3397  0.0258  0.0708
 4693SOL     OW14977   6.947   1.296   3.134  0.0106 -0.2699 -0.1353
 4693SOL    HW114978   6.962   1.209   3.087 -0.5801 -0.0312 -0.7695
 4693SOL    HW214979   6.850   1.306   3.157  0.1249  0.0904  0.2018
 4694SOL     OW14980   1.560   6.736   4.497 -0.0315  0.0764 -0.4343
 4694SOL    HW114981   1.480   6.688   4.461 -0.0429  0.0127 -0.3254
 4694SOL    HW214982   1.573   6.711   4.593  0.0126  0.2250 -0.4009
 4695SOL     OW14983   1.452   3.856   0.314 -0.2428  0.1638  0.2534
 4695SOL    HW114984   1.380   3.879   0.379 -0.9880 -1.8638  0.2117
 4695SOL    HW214985   1.533   3.824   0.364 -1.0554 -2.0553  0.2304
 4696SOL     OW14986   2.932   5.965   5.392  0.9335  0.8443  0.4628
 4696SOL    HW114987   2.884   5.885   5.356  1.5313  0.5770  0.2449
 4696SOL    HW214988   2.951   6.029   5.318 -3.0492  3.1304  1.1641
 4697SOL     OW14989   4.277   4.077   1.061  0.5847 -0.2182  0.0736
 4697SOL    HW114990   4.287   4.011   0.987  1.4478  0.0474 -0.0613
 4697SOL    HW214991   4.193   4.129   1.049  0.6801 -0.2316 -0.6772
 4698SOL     OW14992   5.288   2.269   4.860  0.8068 -0.4004 -0.3502
 4698SOL    HW114993   5.213   2.244   4.921  0.7616 -2.4514 -1.1799
 4698SOL    HW214994   5.345   2.339   4.904 -1.4860  1.1433  0.3416
 4699SOL     OW14995   1.722   1.433   2.629 -0.1518 -0.6193  0.1191
 4699SOL    HW114996   1.769   1.518   2.607 -2.2193  0.5827  0.0930
 4699SOL    HW214997   1.720   1.420   2.728  0.4485 -0.8456  0.1101
 4700SOL     OW14998   1.016   1.989   3.273 -0.1401  0.0293 -0.0442
 4700SOL    HW114999   0.959   1.934   3.335 -0.5300 -0.1901 -0.5922
 4700SOL    HW215000   0.967   2.073   3.249 -0.2503 -0.1719 -0.5374
 4701SOL     OW15001   1.300   2.825   4.015  0.0778 -0.8639 -0.8379
 4701SOL    HW115002   1.303   2.903   3.953  0.9793 -0.2124  0.0056
 4701SOL    HW215003   1.247   2.751   3.972 -1.7911  0.5894 -1.1963
 4702SOL     OW15004   0.082   3.855   4.136 -0.1567  1.3478  0.2621
 4702SOL    HW115005   0.054   3.945   4.170  0.7554  1.9291 -0.4878
 4702SOL    HW215006   0.061   3.848   4.038  0.5420  1.0694  0.1259
 4703SOL     OW15007   0.273   4.409   3.285  0.0502 -0.4482 -0.0112
 4703SOL    HW115008   0.294   4.408   3.382  0.4153  1.6860 -0.0228
 4703SOL    HW215009   0.198   4.472   3.267  0.9947  0.3793 -1.2698
 4704SOL     OW15010   1.071   5.279   2.404 -0.0709 -0.0385 -0.3904
 4704SOL    HW115011   1.036   5.312   2.492  0.9225  1.4989 -0.5205
 4704SOL    HW215012   1.007   5.304   2.331  0.9621  2.3846 -0.5753
 4705SOL     OW15013   2.960   4.540   6.579 -0.5153 -0.1167  0.0551
 4705SOL    HW115014   3.051   4.575   6.602 -0.3996 -0.8318  0.7078
 4705SOL    HW215015   2.925   4.486   6.655 -1.0575 -0.6972 -0.5936
 4706SOL     OW15016   1.939   1.413   0.980 -0.3148  0.0823  0.0685
 4706SOL    HW115017   1.993   1.411   0.896 -1.9094  0.0147 -1.0205
 4706SOL    HW215018   1.967   1.339   1.041 -0.2531 -0.9568 -1.1732
 4707SOL     OW15019   2.147   4.439   2.230 -0.6238 -0.3365  0.4873
 4707SOL    HW115020   2.069   4.492   2.197 -0.4359 -0.1521  0.3270
 4707SOL    HW215021   2.117   4.374   2.300 -1.0568 -0.8611 -0.1749
 4708SOL     OW15022   1.747   4.211   0.763 -0.2656  0.0860  0.3420
 4708SOL    HW115023   1.662   4.192   0.812  0.2611  0.7098  1.5318
 4708SOL    HW215024   1.807   4.267   0.820 -0.1775  2.0436 -1.5532
 4709SOL     OW15025   5.094   3.216   5.641 -0.7868 -0.2740  0.7274
 4709SOL    HW115026   5.161   3.229   5.714 -0.5263  0.4984  0.3582
 4709SOL    HW215027   5.039   3.298   5.631 -1.7262 -0.8570  0.9425
 4710SOL     OW15028   0.396   4.935   6.088 -0.0555  0.3251  0.2366
 4710SOL    HW115029   0.393   4.874   6.167  0.3822  1.4582  1.1689
 4710SOL    HW215030   0.340   5.016   6.106  2.7302  2.2736  0.9274
 4711SOL     OW15031   4.421   4.582   4.457 -0.5930 -0.7048 -0.3013
 4711SOL    HW115032   4.410   4.639   4.376  1.2865  1.5692  0.9351
 4711SOL    HW215033   4.359   4.613   4.529  1.5532  0.9891  0.9281
 4712SOL     OW15034   4.265   5.479   0.491 -0.6428 -0.0600  0.5948
 4712SOL    HW115035   4.204   5.454   0.566 -0.4474 -0.7103  0.5463
 4712SOL    HW215036   4.327   5.402   0.472 -2.2072 -0.8203 -1.7839
 4713SOL     OW15037   6.294   4.522   2.660 -0.2999  0.0101 -0.0779
 4713SOL    HW115038   6.368   4.511   2.594 -1.2396  0.7836 -1.3089
 4713SOL    HW215039   6.332   4.533   2.751  1.2242  2.2443 -0.8907
 4714SOL     OW15040   5.798   2.262   6.966 -0.3253 -0.8546 -0.2199
 4714SOL    HW115041   5.826   2.318   7.044 -0.1315  0.3552 -1.1267
 4714SOL    HW215042   5.711   2.295   6.930  0.9731  0.5584 -2.3000
 4715SOL     OW15043   0.799   0.727   1.852  0.3454 -0.1305 -0.2852
 4715SOL    HW115044   0.724   0.756   1.911  1.2640 -1.3951  1.6458
 4715SOL    HW215045   0.800   0.782   1.769 -2.4172  0.1948 -0.1814
 4716SOL     OW15046   4.923   3.379   4.401  0.1903  0.1138  0.2429
 4716SOL    HW115047   4.849   3.347   4.342 -0.2118  1.2895  0.0991
 4716SOL    HW215048   5.004   3.321   4.387 -0.8881 -1.6550  0.9320
 4717SOL     OW15049   0.994   4.539   0.004  0.2006  0.5180 -0.2886
 4717SOL    HW115050   0.920   4.529  -0.062 -0.0603  1.9342 -0.2436
 4717SOL    HW215051   1.081   4.547  -0.045  0.2255 -0.2175 -0.3764
 4718SOL     OW15052   4.925   2.488   1.827 -0.0618 -0.2304  0.7907
 4718SOL    HW115053   4.859   2.414   1.816 -0.2656 -0.3857  2.8329
 4718SOL    HW215054   4.877   2.576   1.827 -0.0106 -0.1956  0.1404
 4719SOL     OW15055   5.242   4.828   3.358 -0.1366 -0.0336  0.2861
 4719SOL    HW115056   5.203   4.878   3.281  1.3183 -2.3208 -2.1404
 4719SOL    HW215057   5.314   4.768   3.325 -0.0284 -1.8135  3.3564
 4720SOL     OW15058   6.259   2.682   5.237  0.2235  0.6849  0.1232
 4720SOL    HW115059   6.320   2.603   5.228 -0.3566  0.3744 -1.6009
 4720SOL    HW215060   6.164   2.650   5.238  0.0196  1.2985  0.2926
 4721SOL     OW15061   0.510   4.762   1.787  0.2008  0.2278 -0.3364
 4721SOL    HW115062   0.453   4.729   1.712  0.7711 -0.4840 -0.4687
 4721SOL    HW215063   0.549   4.684   1.836  1.1226  0.6991 -0.2987
 4722SOL     OW15064   1.574   6.019   6.049 -0.3022 -0.5980  0.3932
 4722SOL    HW115065   1.483   6.060   6.037 -0.2218 -0.0509  1.5140
 4722SOL    HW215066   1.643   6.092   6.052  0.0159 -0.9170  0.9069
 4723SOL     OW15067   3.386   4.336   6.394  0.1024  0.2748  0.3145
 4723SOL    HW115068   3.478   4.366   6.420 -0.5710  0.8433  2.2075
 4723SOL    HW215069   3.330   4.416   6.371 -0.4100  0.0856  0.8844
 4724SOL     OW15070   6.444   0.531   3.562  0.4477 -0.0698  0.6368
 4724SOL    HW115071   6.364   0.562   3.614  0.4913  1.0150  0.0698
 4724SOL    HW215072   6.520   0.514   3.625 -0.1035 -0.7489  1.1382
 4725SOL     OW15073   5.411   3.550   6.620 -0.0616  0.3817  0.2652
 4725SOL    HW115074   5.331   3.491   6.613  0.2025  0.0888 -0.3847
 4725SOL    HW215075   5.467   3.539   6.538  0.8440  0.2882  0.8839
 4726SOL     OW15076   0.195   2.945   0.265 -0.5161  0.2718  0.0512
 4726SOL    HW115077   0.244   2.869   0.307  1.5368  0.6516 -1.4962
 4726SOL    HW215078   0.204   3.027   0.322  1.1207  0.4572 -0.4407
 4727SOL     OW15079   0.092   4.693   0.446 -0.1133  0.3926  0.4918
 4727SOL    HW115080   0.121   4.779   0.487 -0.9901  0.8169  0.2463
 4727SOL    HW215081   0.098   4.620   0.514  0.3541  0.6995  0.7861
 4728SOL     OW15082   4.910   0.925   3.262 -0.4641 -0.0882 -0.6469
 4728SOL    HW115083   4.842   0.997   3.252 -0.4118 -0.2620 -2.7123
 4728SOL    HW215084   4.944   0.899   3.172  2.4856  0.0952  0.3161
 4729SOL     OW15085   6.392   1.232   2.820  0.3676 -0.2118 -0.3042
 4729SOL    HW115086   6.397   1.147   2.872 -0.4681 -0.3156 -0.3801
 4729SOL    HW215087   6.475   1.286   2.836  0.0411 -0.1422  1.2966
 4730SOL     OW15088   4.048   2.170   4.293 -0.1650 -0.2366  0.7864
 4730SOL    HW115089   4.035   2.110   4.215  0.7513  1.0969 -0.4496
 4730SOL    HW215090   4.146   2.189   4.305 -0.3733  0.4062  1.6039
 4731SOL     OW15091   3.483   6.592   2.629 -0.1812 -0.9980 -0.1449
 4731SOL    HW115092   3.528   6.597   2.540  0.3986 -0.4980  0.1662
 4731SOL    HW215093   3.486   6.497   2.663  2.7045 -0.6384  0.8851
 4732SOL     OW15094   0.185   6.618   4.051  0.2748  0.1745 -0.0093
 4732SOL    HW115095   0.096   6.616   4.006 -0.2648 -0.3641  1.0404
 4732SOL    HW215096   0.208   6.712   4.076  0.2786  0.3911 -0.8016
 4733SOL     OW15097   2.093   5.472   3.724 -0.1347 -0.3191 -0.0844
 4733SOL    HW115098   2.157   5.480   3.647 -0.1098 -2.5488 -0.3655
 4733SOL    HW215099   2.131   5.517   3.805  0.1921  1.3759 -1.1296
 4734SOL     OW15100   5.361   4.310   4.762 -0.1664  0.5259  0.4549
 4734SOL    HW115101   5.266   4.324   4.787 -0.1717  0.0955  0.6843
 4734SOL    HW215102   5.370   4.308   4.662 -0.4531  0.1828  0.4363
 4735SOL     OW15103   6.222   0.370   3.886  0.1162  0.4539  0.3590
 4735SOL    HW115104   6.236   0.392   3.982  2.6064 -1.1455  0.4536
 4735SOL    HW215105   6.197   0.274   3.877  0.5892  0.4080 -0.6179
 4736SOL     OW15106   5.625   6.760   2.747 -0.2539  0.4918  0.0378
 4736SOL    HW115107   5.593   6.760   2.842  0.0237 -0.8810  0.1498
 4736SOL    HW215108   5.713   6.713   2.742 -0.3171  0.4654 -0.9096
 4737SOL     OW15109   4.465   3.808   0.343  0.1791  0.1876  0.3313
 4737SOL    HW115110   4.560   3.840   0.355  0.6210 -1.6889  2.3992
 4737SOL    HW215111   4.463   3.735   0.275  0.6124 -1.0984  1.6345
 4738SOL     OW15112   1.196   6.692   2.017 -0.2359  0.0561  0.2568
 4738SOL    HW115113   1.290   6.674   2.046 -0.7765 -1.0449  1.3898
 4738SOL    HW215114   1.133   6.674   2.093 -1.4884 -0.4822 -0.8686
 4739SOL     OW15115   5.433   3.949   2.904 -0.4828  0.3857  0.3726
 4739SOL    HW115116   5.437   3.852   2.879 -1.3053  0.2523  0.7027
 4739SOL    HW215117   5.481   4.004   2.835 -0.8725 -0.1707 -0.3650
 4740SOL     OW15118   1.889   6.456   1.068  0.0676  0.4408 -0.4821
 4740SOL    HW115119   1.892   6.526   0.996 -0.8912 -0.7566 -1.7356
 4740SOL    HW215120   1.810   6.472   1.127 -0.0669  0.4933 -0.6754
 4741SOL     OW15121   5.198   2.145   2.543  0.1501  0.1946 -0.0148
 4741SOL    HW115122   5.227   2.091   2.622 -1.7988  0.0272  0.6251
 4741SOL    HW215123   5.104   2.120   2.518  0.1453  1.4227 -1.3592
 4742SOL     OW15124   1.908   5.886   2.198 -0.1288 -0.2222 -0.5349
 4742SOL    HW115125   1.938   5.797   2.165 -0.1802 -0.5612  0.2996
 4742SOL    HW215126   1.959   5.909   2.281 -0.0749  0.5526 -0.7779
 4743SOL     OW15127   3.712   3.844   0.504  0.0498 -0.2863 -0.6232
 4743SOL    HW115128   3.796   3.822   0.554  0.9141  0.2176 -1.8169
 4743SOL    HW215129   3.633   3.807   0.554  0.9909 -1.0281  0.3660
 4744SOL     OW15130   3.943   3.622   5.561 -0.9320  0.1002  0.6002
 4744SOL    HW115131   3.935   3.568   5.477 -0.8145  0.7245  0.1813
 4744SOL    HW215132   3.873   3.693   5.562 -0.5419  0.4890  0.7305
 4745SOL     OW15133   4.985   5.712   5.711  0.2059 -0.1588 -0.2039
 4745SOL    HW115134   4.994   5.719   5.611  2.0639  0.0838 -0.0470
 4745SOL    HW215135   5.030   5.628   5.742 -1.4122 -0.8544  0.3298
 4746SOL     OW15136   5.786   0.348   0.086  0.0692 -0.6244  0.8898
 4746SOL    HW115137   5.839   0.423   0.127 -1.3137 -0.8207  3.1802
 4746SOL    HW215138   5.849   0.282   0.045  1.3402  1.7144 -1.2021
 4747SOL     OW15139   0.317   2.258   3.165 -0.0904 -0.2303  0.0947
 4747SOL    HW115140   0.313   2.347   3.209 -0.7993 -0.0793 -0.2510
 4747SOL    HW215141   0.308   2.186   3.234 -0.4993 -0.0097  0.2795
 4748SOL     OW15142   2.548   6.946   1.523 -0.0304  0.1513 -0.6958
 4748SOL    HW115143   2.525   6.958   1.427  0.4063  3.0252 -0.5252
 4748SOL    HW215144   2.586   7.031   1.559 -2.7386  0.1166  2.7380
 4749SOL     OW15145   3.576   6.854   5.044 -0.3676  0.0282 -0.5063
 4749SOL    HW115146   3.515   6.804   5.105 -0.3874  0.7044  0.0489
 4749SOL    HW215147   3.596   6.799   4.963 -0.2943 -0.9045  0.1387
 4750SOL     OW15148   6.318   4.125   3.315 -0.1558  0.2427  0.0194
 4750SOL    HW115149   6.345   4.032   3.290 -0.6039  0.1901 -0.2872
 4750SOL    HW215150   6.240   4.153   3.258  0.8292  1.3093 -0.8592
 4751SOL     OW15151   1.938   2.738   1.039 -0.6989  0.6405 -0.0171
 4751SOL    HW115152   1.947   2.645   1.005 -1.0258  0.6062 -0.0193
 4751SOL    HW215153   2.003   2.754   1.113 -0.4105  0.5179 -0.2463
 4752SOL     OW15154   1.474   4.527   2.368 -0.3271 -0.2902  0.7454
 4752SOL    HW115155   1.432   4.546   2.279 -1.3495 -0.1599  1.2390
 4752SOL    HW215156   1.571   4.551   2.365 -0.2155 -0.8228 -0.4958
 4753SOL     OW15157   6.490   1.708   6.698  0.0545 -0.5026 -0.1754
 4753SOL    HW115158   6.399   1.668   6.685 -0.6341  0.5642  1.0711
 4753SOL    HW215159   6.485   1.779   6.768  1.7467 -0.0109 -0.5076
 4754SOL     OW15160   2.371   1.712   1.081 -0.0799  0.1690 -0.1582
 4754SOL    HW115161   2.365   1.614   1.059  1.9867  0.0808 -0.4871
 4754SOL    HW215162   2.385   1.764   0.997  0.1585  0.6198  0.1563
 4755SOL     OW15163   2.057   6.837   4.409  0.1835  0.4252 -0.7403
 4755SOL    HW115164   2.047   6.893   4.327 -0.6573  2.0671  0.4338
 4755SOL    HW215165   2.148   6.850   4.449 -0.4419  2.0491  0.2496
 4756SOL     OW15166   4.234   2.953   1.230 -0.2672  0.1326  0.5892
 4756SOL    HW115167   4.207   3.018   1.301 -0.7989  0.3392  0.2077
 4756SOL    HW215168   4.160   2.888   1.215 -0.7493  0.9560 -0.7638
 4757SOL     OW15169   2.774   4.353   0.862 -0.7529 -0.0277 -0.1637
 4757SOL    HW115170   2.805   4.261   0.838 -1.0426  0.0195 -0.7425
 4757SOL    HW215171   2.752   4.357   0.959  1.7161  0.1221  0.4549
 4758SOL     OW15172   6.757   2.321   5.870  0.0810 -0.6807 -0.1445
 4758SOL    HW115173   6.840   2.268   5.854  1.0896  0.5412  0.7494
 4758SOL    HW215174   6.772   2.416   5.842 -1.6715 -0.8018 -1.7116
 4759SOL     OW15175   5.606   5.335   4.509 -0.1627  0.3573  0.3002
 4759SOL    HW115176   5.703   5.341   4.534  0.3627 -0.2435 -1.4553
 4759SOL    HW215177   5.589   5.249   4.462 -1.6752  0.2409  1.0016
 4760SOL     OW15178   2.418   2.476   6.766  0.3464  0.6598  0.2592
 4760SOL    HW115179   2.502   2.434   6.730 -1.1781 -1.2420 -1.3658
 4760SOL    HW215180   2.393   2.431   6.852 -0.4449 -0.8262 -0.6905
 4761SOL     OW15181   2.431   0.226   1.886 -0.5174  0.1386  0.1454
 4761SOL    HW115182   2.466   0.294   1.822 -0.8987 -0.3651 -0.6257
 4761SOL    HW215183   2.507   0.179   1.930 -0.0452 -2.0262 -2.6487
 4762SOL     OW15184   1.402   0.189   3.611  0.0485 -0.0275  0.4981
 4762SOL    HW115185   1.317   0.221   3.655 -0.1059 -0.2382  0.3570
 4762SOL    HW215186   1.480   0.216   3.667  0.0702  2.1002 -0.4343
 4763SOL     OW15187   5.655   4.721   2.178  0.8429 -0.4040  0.4069
 4763SOL    HW115188   5.620   4.628   2.190 -0.1969  0.1599  1.9717
 4763SOL    HW215189   5.734   4.735   2.237  0.1497  0.1122  1.2425
 4764SOL     OW15190   2.996   3.309   3.470  0.2482 -0.1745 -0.2224
 4764SOL    HW115191   2.986   3.276   3.377  1.6450  1.3030 -0.9454
 4764SOL    HW215192   2.960   3.402   3.477  0.4011 -0.1703  0.6403
 4765SOL     OW15193   5.899   6.889   0.070  0.2206 -0.6339 -0.1926
 4765SOL    HW115194   5.992   6.881   0.037  0.9481  2.1530  0.8873
 4765SOL    HW215195   5.895   6.861   0.166  0.2016  0.2400  0.0704
 4766SOL     OW15196   4.777   2.368   2.590 -0.3487  0.0058 -0.0975
 4766SOL    HW115197   4.871   2.337   2.604 -0.5876 -1.6968 -1.8424
 4766SOL    HW215198   4.719   2.332   2.663  0.2868  0.9107  0.8870
 4767SOL     OW15199   5.561   1.082   5.638 -0.0668 -0.0883  0.0434
 4767SOL    HW115200   5.531   0.987   5.631 -0.7596  0.0998  0.4428
 4767SOL    HW215201   5.482   1.143   5.636  0.3591  0.4765 -0.0029
 4768SOL     OW15202   2.725   1.240   6.823  0.2857  0.2717  0.6257
 4768SOL    HW115203   2.653   1.200   6.880 -0.1055  0.3174  0.1702
 4768SOL    HW215204   2.796   1.278   6.882  0.1686 -0.1897  1.0754
 4769SOL     OW15205   3.213   0.674   2.850  0.3203  0.1577  0.1249
 4769SOL    HW115206   3.313   0.671   2.840  0.5879 -0.0487  2.2580
 4769SOL    HW215207   3.173   0.594   2.806  1.1437  0.0364 -0.4326
 4770SOL     OW15208   4.566   1.314   4.263 -0.2147 -0.3339  0.0391
 4770SOL    HW115209   4.646   1.371   4.243 -0.2380 -0.4827 -0.4779
 4770SOL    HW215210   4.522   1.347   4.347 -0.0184  0.1822 -0.0566
 4771SOL     OW15211   4.432   3.930   5.352  0.0838 -0.4570  0.4935
 4771SOL    HW115212   4.432   3.872   5.433 -2.2850  1.8335  2.3221
 4771SOL    HW215213   4.347   3.983   5.349  0.7061  0.5994 -2.7648
 4772SOL     OW15214   5.101   1.875   5.871 -0.5238 -0.3616  0.1068
 4772SOL    HW115215   5.133   1.781   5.882  1.3506  0.2756  0.3618
 4772SOL    HW215216   5.150   1.919   5.796 -1.8260  0.2407 -0.4188
 4773SOL     OW15217   0.158   6.335   2.449 -0.1492 -0.1470 -0.0037
 4773SOL    HW115218   0.250   6.342   2.410  1.0615 -0.7400  2.5341
 4773SOL    HW215219   0.129   6.240   2.447  0.3782 -0.3625  1.3881
 4774SOL     OW15220   3.476   3.682   5.702 -0.0554 -0.0043 -0.4508
 4774SOL    HW115221   3.477   3.628   5.617  1.0924 -0.9404  0.1292
 4774SOL    HW215222   3.568   3.681   5.742 -0.3862  1.1553  0.3557
 4775SOL     OW15223   1.195   4.179   3.102 -0.0164  0.1536 -0.1771
 4775SOL    HW115224   1.232   4.119   3.173 -2.4078 -3.0713 -1.4468
 4775SOL    HW215225   1.119   4.232   3.140  0.3422  0.3698  0.2596
 4776SOL     OW15226   5.717   4.999   0.697 -0.0556  0.0631  0.2417
 4776SOL    HW115227   5.654   5.012   0.775  0.0370  0.7595  0.2089
 4776SOL    HW215228   5.734   4.902   0.684 -0.3882 -0.0838  0.8479
 4777SOL     OW15229   1.964   3.477   1.031 -0.2285  1.1348  0.1623
 4777SOL    HW115230   1.990   3.404   0.967  0.2381  2.1236 -0.7893
 4777SOL    HW215231   2.045   3.522   1.066 -0.5555  2.3752 -0.6372
 4778SOL     OW15232   5.453   4.928   2.865 -0.4240  0.2960 -0.2532
 4778SOL    HW115233   5.412   4.881   2.944  1.1396 -2.4450 -0.9574
 4778SOL    HW215234   5.544   4.961   2.890 -0.9240  1.7314 -0.2224
 4779SOL     OW15235   1.287   0.661   2.004  0.0787  0.0610  0.6096
 4779SOL    HW115236   1.215   0.725   1.975 -0.2045 -0.6703 -0.3546
 4779SOL    HW215237   1.295   0.588   1.937  1.4112 -0.1273  0.9504
 4780SOL     OW15238   1.503   2.125   6.802 -0.3538 -0.0024  0.2764
 4780SOL    HW115239   1.549   2.128   6.890 -1.1547  1.8344  0.6803
 4780SOL    HW215240   1.565   2.157   6.730 -0.1884  0.0033  0.4235
 4781SOL     OW15241   1.751   6.427   4.084  0.0582  0.2101 -0.0844
 4781SOL    HW115242   1.775   6.452   3.991 -1.8445  0.2667 -0.5998
 4781SOL    HW215243   1.757   6.508   4.143  0.9650  0.2359 -0.1961
 4782SOL     OW15244   7.018   0.432   0.945 -0.0066  0.2893 -0.1900
 4782SOL    HW115245   7.079   0.499   0.987 -0.2667 -0.0728  0.7963
 4782SOL    HW215246   7.071   0.355   0.910  0.2251  0.6677 -0.6991
 4783SOL     OW15247   4.395   4.721   2.834 -0.1608  0.0801 -0.6151
 4783SOL    HW115248   4.483   4.765   2.850  0.6665 -2.3827  2.5117
 4783SOL    HW215249   4.408   4.641   2.776  0.0899 -1.3465  1.3234
 4784SOL     OW15250   3.264   5.972   4.019 -0.0024  0.2038  0.1923
 4784SOL    HW115251   3.352   6.009   4.048  1.0538 -0.3686 -2.0065
 4784SOL    HW215252   3.191   6.016   4.070  1.4582  1.8251  1.0144
 4785SOL     OW15253   6.606   6.121   6.637  0.1132  0.1459 -0.0052
 4785SOL    HW115254   6.672   6.181   6.681  0.0610  1.4407 -1.6248
 4785SOL    HW215255   6.533   6.099   6.702  0.2294  1.6867  0.6884
 4786SOL     OW15256   0.948   4.105   3.826  0.0426  0.0104  0.3702
 4786SOL    HW115257   0.990   4.026   3.781 -2.2286 -0.5728 -0.8626
 4786SOL    HW215258   0.850   4.089   3.837  0.0434  1.3199  3.1052
 4787SOL     OW15259   3.748   0.593   3.538  0.4895  0.0298  0.3054
 4787SOL    HW115260   3.760   0.690   3.556  0.1165  0.0921  0.2096
 4787SOL    HW215261   3.795   0.540   3.609 -0.7596  0.2696  1.3532
 4788SOL     OW15262   1.769   0.679   4.541 -0.0404 -0.2766  0.0722
 4788SOL    HW115263   1.671   0.667   4.555  0.2040 -1.6068  0.8422
 4788SOL    HW215264   1.802   0.612   4.475  0.2706  0.5512 -0.6392
 4789SOL     OW15265   5.192   3.678   6.884 -0.0168  0.3032  0.0806
 4789SOL    HW115266   5.135   3.595   6.884 -0.2882  0.4884 -0.3273
 4789SOL    HW215267   5.163   3.739   6.811  0.3766  0.6324  0.1926
 4790SOL     OW15268   6.369   6.216   4.979  0.2495  0.2596  0.0418
 4790SOL    HW115269   6.386   6.132   5.029 -1.3697  0.5901  1.2154
 4790SOL    HW215270   6.439   6.284   5.003  1.8056 -0.8351 -1.2337
 4791SOL     OW15271   4.763   2.889   2.643 -0.2001  0.0165 -0.2748
 4791SOL    HW115272   4.766   2.967   2.707  0.5028 -1.2858  1.3507
 4791SOL    HW215273   4.675   2.844   2.650  0.4272 -1.0761  1.0146
 4792SOL     OW15274   6.244   3.006   0.490 -0.4707 -0.2097  0.9286
 4792SOL    HW115275   6.220   3.085   0.546  0.0666  0.0901  0.7411
 4792SOL    HW215276   6.181   2.999   0.413 -1.1239 -0.5380  1.4714
 4793SOL     OW15277   0.155   2.957   0.631  0.4099  0.4872 -0.1045
 4793SOL    HW115278   0.061   2.972   0.601 -0.1672 -0.2709  1.2384
 4793SOL    HW215279   0.173   3.012   0.713  1.2430  0.8453 -0.5152
 4794SOL     OW15280   5.715   1.077   2.791 -0.3938 -0.0050  0.1902
 4794SOL    HW115281   5.707   1.176   2.804 -0.8762 -0.1359  0.8791
 4794SOL    HW215282   5.627   1.033   2.809  0.1006 -0.6842  1.0268
 4795SOL     OW15283   6.671   1.743   4.918  0.0985 -0.3145 -0.1738
 4795SOL    HW115284   6.746   1.677   4.906 -0.8366 -1.9189  2.2205
 4795SOL    HW215285   6.597   1.720   4.856 -0.5255 -2.0714  1.1564
 4796SOL     OW15286   5.366   3.663   1.111  0.1252  0.3992  0.5549
 4796SOL    HW115287   5.324   3.733   1.054  0.7166  0.3475  0.0445
 4796SOL    HW215288   5.366   3.576   1.062  0.7023  0.3695  0.6039
 4797SOL     OW15289   0.786   1.558   5.655  0.0176  0.4488 -0.0742
 4797SOL    HW115290   0.750   1.557   5.562  1.3473 -1.3863 -0.6439
 4797SOL    HW215291   0.764   1.471   5.700  0.2324  0.9294  0.9869
 4798SOL     OW15292   1.171   0.316   0.948  0.0777  0.4152 -1.0093
 4798SOL    HW115293   1.129   0.265   0.873 -0.2386  0.7282 -1.0466
 4798SOL    HW215294   1.100   0.359   1.004  0.0294 -2.5442  1.4931
 4799SOL     OW15295   4.576   1.932   4.893 -0.3359  0.0707 -0.4584
 4799SOL    HW115296   4.651   1.903   4.834  0.5469  0.3165  0.5287
 4799SOL    HW215297   4.573   2.032   4.898 -0.5488  0.0555 -0.2610
 4800SOL     OW15298   0.254   1.817   3.444 -0.3313 -0.0717 -0.0136
 4800SOL    HW115299   0.349   1.783   3.442 -0.6251 -0.8913 -1.5113
 4800SOL    HW215300   0.228   1.837   3.538  1.4531  0.5212  0.3904
 4801SOL     OW15301   1.103   0.247   6.342 -0.2140 -0.0443  0.2553
 4801SOL    HW115302   1.120   0.263   6.439 -0.0199 -0.6327  0.3221
 4801SOL    HW215303   1.099   0.335   6.294  2.1996  0.1895  0.3734
 4802SOL     OW15304   1.394   6.496   2.551 -0.1460  0.9343 -0.1365
 4802SOL    HW115305   1.361   6.554   2.477 -1.2191  0.2259 -0.2438
 4802SOL    HW215306   1.427   6.553   2.626  0.2235  1.6629 -0.8362
 4803SOL     OW15307   0.249   6.229   1.733  0.0035 -0.3158  0.4033
 4803SOL    HW115308   0.164   6.244   1.782  0.1771  2.1235  0.0771
 4803SOL    HW215309   0.325   6.268   1.785  0.4959  0.2248 -0.6787
 4804SOL     OW15310   3.342   4.523   6.038  0.2118 -0.4992  0.2131
 4804SOL    HW115311   3.310   4.430   6.023 -1.3712 -0.2177  1.4972
 4804SOL    HW215312   3.282   4.587   5.991 -0.5860 -0.0028  1.8396
 4805SOL     OW15313   6.185   6.752   0.083  0.9292 -0.2495  0.7309
 4805SOL    HW115314   6.225   6.661   0.094  1.3539  0.0216  1.5246
 4805SOL    HW215315   6.172   6.793   0.174  1.6080  0.8495  0.3437
 4806SOL     OW15316   0.080   3.369   3.483 -0.0679 -0.0326  0.2037
 4806SOL    HW115317   0.083   3.289   3.542  2.6174 -0.2443 -0.0745
 4806SOL    HW215318   0.022   3.351   3.404 -1.7062 -0.6419  1.5151
 4807SOL     OW15319   1.570   0.548   2.558  0.1682  0.7283 -0.4720
 4807SOL    HW115320   1.532   0.462   2.525  1.2804 -0.6400  1.5644
 4807SOL    HW215321   1.645   0.577   2.497  2.3225 -1.8340  0.7589
 4808SOL     OW15322   5.658   1.401   1.366 -0.2598  0.7458  0.4143
 4808SOL    HW115323   5.566   1.418   1.330 -0.9416  0.0995  1.7864
 4808SOL    HW215324   5.695   1.485   1.405  0.4039  1.4044 -1.5162
 4809SOL     OW15325   6.326   5.050   6.593  0.1052 -0.5628  0.2213
 4809SOL    HW115326   6.229   5.032   6.610  0.0868  0.8920  1.9757
 4809SOL    HW215327   6.381   4.983   6.644  0.0040  0.3072  1.5204
 4810SOL     OW15328   4.431   1.355   6.165  0.4628  0.5191 -0.6198
 4810SOL    HW115329   4.484   1.368   6.249 -0.1096 -1.0538  0.0329
 4810SOL    HW215330   4.466   1.275   6.116 -0.6389  0.0659 -0.6952
 4811SOL     OW15331   4.589   4.707   4.912  0.8822 -0.2684  0.1181
 4811SOL    HW115332   4.505   4.653   4.904  0.4615  0.1778  1.3475
 4811SOL    HW215333   4.641   4.676   4.991 -0.1419  2.0800  1.8448
 4812SOL     OW15334   6.150   4.062   2.106 -0.0753 -0.8206  0.0803
 4812SOL    HW115335   6.086   4.098   2.174  0.0148 -0.1544 -0.1828
 4812SOL    HW215336   6.214   4.000   2.150 -0.6370 -1.1696  0.4240
 4813SOL     OW15337   4.988   4.148   2.119  0.2779 -0.3175 -0.1502
 4813SOL    HW115338   5.014   4.207   2.196 -2.1187  1.0662 -0.3075
 4813SOL    HW215339   4.998   4.052   2.146  0.7835  0.1320  1.4049
 4814SOL     OW15340   0.513   2.282   2.505 -0.2728 -0.1446  0.1262
 4814SOL    HW115341   0.472   2.358   2.555 -2.6026  0.5372 -2.5260
 4814SOL    HW215342   0.441   2.230   2.459  1.5306 -2.0311 -0.7348
 4815SOL     OW15343   3.319   2.124   3.395 -0.1512 -0.4204  0.1365
 4815SOL    HW115344   3.343   2.068   3.474 -0.2065 -2.9441 -1.4857
 4815SOL    HW215345   3.237   2.178   3.415  1.7758  1.7510  2.8801
 4816SOL     OW15346   5.217   4.603   3.977  0.5536  0.3595 -0.6776
 4816SOL    HW115347   5.214   4.645   3.886  0.8614 -1.5670 -1.6397
 4816SOL    HW215348   5.126   4.569   4.001  0.9761 -1.4771 -1.4921
 4817SOL     OW15349   5.505   1.440   6.005  0.4933 -0.5706 -0.0620
 4817SOL    HW115350   5.588   1.410   6.051  0.2247  0.0475  0.8577
 4817SOL    HW215351   5.456   1.506   6.063  0.1032  0.1788 -1.2026
 4818SOL     OW15352   6.169   6.873   3.714 -0.6944  0.1337  0.2497
 4818SOL    HW115353   6.222   6.830   3.787 -2.4146 -1.9010  0.3858
 4818SOL    HW215354   6.231   6.904   3.642  0.9585  1.2604  2.0515
 4819SOL     OW15355   0.742   3.761   0.283 -0.2141 -0.1788  0.4425
 4819SOL    HW115356   0.796   3.758   0.198  0.6697  1.0232  0.9219
 4819SOL    HW215357   0.659   3.814   0.267 -1.1812 -1.8154 -0.2300
 4820SOL     OW15358   5.707   4.999   2.916 -0.3024  0.4186  0.8587
 4820SOL    HW115359   5.764   4.974   2.994 -0.1369 -1.6270  0.1485
 4820SOL    HW215360   5.764   5.024   2.839 -0.3421 -0.7244  0.4338
 4821SOL     OW15361   0.866   3.995   2.141 -0.3545  0.3751  0.1426
 4821SOL    HW115362   0.808   3.993   2.222  1.0105 -1.5456  1.1388
 4821SOL    HW215363   0.820   3.946   2.066  0.1005 -1.4814  1.0392
 4822SOL     OW15364   2.481   6.487   5.269  0.3860 -0.4047  0.4832
 4822SOL    HW115365   2.393   6.519   5.305 -0.0449 -0.7273 -0.2653
 4822SOL    HW215366   2.505   6.400   5.312  0.8579  0.2028  1.4645
 4823SOL     OW15367   0.654   1.551   1.513  0.6195  0.0306  0.4316
 4823SOL    HW115368   0.636   1.648   1.528  2.4305  0.2695  1.5041
 4823SOL    HW215369   0.568   1.501   1.508 -0.3329  1.5741  0.6907
 4824SOL     OW15370   5.747   2.151   0.351 -0.2185 -0.4428  0.0004
 4824SOL    HW115371   5.689   2.230   0.331  0.5643  0.1374 -0.0384
 4824SOL    HW215372   5.723   2.114   0.441 -1.7272 -1.2158 -0.6909
 4825SOL     OW15373   0.595   4.118   3.226  0.1269  0.2787  0.0682
 4825SOL    HW115374   0.565   4.134   3.321 -0.1598  1.7263 -0.2411
 4825SOL    HW215375   0.601   4.205   3.179  0.7102 -0.3983 -1.1329
 4826SOL     OW15376   4.881   5.593   0.619 -0.3062  0.4685 -0.2315
 4826SOL    HW115377   4.854   5.546   0.535  0.8835 -0.0744 -0.3287
 4826SOL    HW215378   4.881   5.529   0.695 -1.3579  0.9552  0.1895
 4827SOL     OW15379   0.512   0.449   3.273 -0.1979 -0.2905 -0.6034
 4827SOL    HW115380   0.553   0.466   3.183 -0.7545 -0.9864 -1.0017
 4827SOL    HW215381   0.552   0.511   3.340  1.4772 -0.8929 -0.9809
 4828SOL     OW15382   5.895   2.379   0.184  0.1336  0.4484 -0.2134
 4828SOL    HW115383   5.797   2.382   0.203  0.0602  0.6394 -0.6196
 4828SOL    HW215384   5.934   2.295   0.223 -0.2196  0.2913 -0.1959
 4829SOL     OW15385   5.590   6.630   5.407 -0.2376 -0.0155  0.3969
 4829SOL    HW115386   5.665   6.689   5.377  1.7849 -2.6612 -0.1563
 4829SOL    HW215387   5.607   6.601   5.501 -0.1519 -1.2314  0.0161
 4830SOL     OW15388   1.851   5.056   3.356  0.4770 -0.3057 -0.4235
 4830SOL    HW115389   1.942   5.097   3.361  0.5794 -0.6298  0.7117
 4830SOL    HW215390   1.803   5.091   3.276  0.6567  1.8057  0.3488
 4831SOL     OW15391   2.318   5.043   5.556 -0.0128 -0.1234 -0.2178
 4831SOL    HW115392   2.416   5.064   5.553  0.1632 -0.9227 -0.4690
 4831SOL    HW215393   2.265   5.126   5.541  0.6218  0.3874  0.3264
 4832SOL     OW15394   2.976   3.806   3.248 -0.0305 -0.1302 -0.3139
 4832SOL    HW115395   2.878   3.801   3.262 -0.1572 -0.7715 -1.3232
 4832SOL    HW215396   3.018   3.857   3.323 -1.2363  1.0059 -0.3830
 4833SOL     OW15397   6.872   3.021   6.318 -0.3598 -0.7103  0.8226
 4833SOL    HW115398   6.965   3.023   6.355 -0.8096 -0.6577  1.9680
 4833SOL    HW215399   6.821   3.100   6.351 -0.9914 -1.0401  0.6546
 4834SOL     OW15400   3.353   4.049   1.291 -0.1282 -0.5811 -0.2501
 4834SOL    HW115401   3.372   4.045   1.389  1.3286  3.1667 -0.2255
 4834SOL    HW215402   3.263   4.009   1.273 -0.2737 -1.7101  2.5209
 4835SOL     OW15403   1.007   5.055   5.849 -0.2184 -0.2289  0.3041
 4835SOL    HW115404   0.944   4.980   5.867  2.3909 -2.6576  0.0146
 4835SOL    HW215405   1.055   5.080   5.933  0.5692 -0.4767 -0.0672
 4836SOL     OW15406   3.355   6.743   5.237 -0.2206 -0.0695  0.4029
 4836SOL    HW115407   3.333   6.778   5.328  0.3497 -1.8329  1.2794
 4836SOL    HW215408   3.280   6.686   5.204  0.7613 -1.8689  1.1312
 4837SOL     OW15409   1.936   4.177   5.386 -0.2568 -0.0617 -0.3595
 4837SOL    HW115410   2.019   4.125   5.406 -1.3738 -2.0887 -0.7650
 4837SOL    HW215411   1.913   4.236   5.465  2.2349  1.5805 -0.7538
 4838SOL     OW15412   0.948   1.705   0.643 -0.2117 -0.6098  0.3344
 4838SOL    HW115413   0.877   1.715   0.572 -0.5193  0.9426  0.8069
 4838SOL    HW215414   0.994   1.793   0.655  0.2868 -1.0337  1.6110
 4839SOL     OW15415   3.577   2.089   2.335  0.3177  0.0374 -0.0630
 4839SOL    HW115416   3.676   2.088   2.330  0.3146  0.4146 -0.2568
 4839SOL    HW215417   3.542   2.175   2.296 -0.1539 -0.6860 -1.2906
 4840SOL     OW15418   4.730   1.731   3.796 -0.9742 -0.1249 -0.0065
 4840SOL    HW115419   4.719   1.774   3.886 -0.9478 -0.1512  0.0097
 4840SOL    HW215420   4.678   1.781   3.728  1.1605  1.5327 -0.5133
 4841SOL     OW15421   2.251   6.003   3.420 -0.0471  0.3253 -0.4457
 4841SOL    HW115422   2.314   6.069   3.460 -0.2660  0.5561 -0.4756
 4841SOL    HW215423   2.284   5.975   3.330  0.1759  0.2021 -0.3249
 4842SOL     OW15424   4.269   5.512   3.380 -0.3981 -0.7033 -0.0902
 4842SOL    HW115425   4.324   5.436   3.415 -1.8604 -0.6071  2.6636
 4842SOL    HW215426   4.175   5.482   3.366 -0.1627 -0.3716 -2.9254
 4843SOL     OW15427   5.304   2.429   6.931 -0.5611  0.7779 -0.2821
 4843SOL    HW115428   5.284   2.462   6.839  0.6115  1.3288 -0.3577
 4843SOL    HW215429   5.281   2.332   6.938 -0.9796  0.8222 -1.0541
 4844SOL     OW15430   2.492   5.556   0.128  0.0528  0.3272  0.4468
 4844SOL    HW115431   2.522   5.468   0.165 -1.6846 -0.8706 -0.8714
 4844SOL    HW215432   2.468   5.546   0.032 -2.0056  1.7852  0.7543
 4845SOL     OW15433   5.766   5.519   3.743 -0.9097  0.3770 -0.0943
 4845SOL    HW115434   5.739   5.556   3.832  0.5462 -1.9848  1.4458
 4845SOL    HW215435   5.698   5.452   3.713  0.2571 -1.3692  0.9994
 4846SOL     OW15436   0.315   2.279   5.046  0.6072  0.5959  0.3381
 4846SOL    HW115437   0.338   2.371   5.016  1.0452  0.4118  0.0866
 4846SOL    HW215438   0.273   2.228   4.971  2.7636 -0.2383 -0.3989
 4847SOL     OW15439   1.003   0.621   6.101  0.2054  0.1560 -0.3701
 4847SOL    HW115440   1.098   0.641   6.075  0.6160  0.0020  0.9751
 4847SOL    HW215441   0.966   0.552   6.039  1.1014 -0.0710 -0.6712
 4848SOL     OW15442   5.070   1.575   3.925  0.3009  0.1644  0.0978
 4848SOL    HW115443   5.088   1.653   3.864  1.7009 -0.9888 -1.0492
 4848SOL    HW215444   5.036   1.498   3.871  0.4880 -0.5360  0.9534
 4849SOL     OW15445   1.154   5.726   0.978  0.6837  0.4034  0.5119
 4849SOL    HW115446   1.163   5.651   1.044 -0.8569 -0.4441 -0.1732
 4849SOL    HW215447   1.112   5.805   1.022 -0.2006 -0.1050  0.6009
 4850SOL     OW15448   2.658   0.488   2.408 -0.1455 -0.5991 -0.3987
 4850SOL    HW115449   2.615   0.399   2.428 -1.4573  0.1540  0.2864
 4850SOL    HW215450   2.601   0.538   2.342  0.4566 -0.1509 -0.5910
 4851SOL     OW15451   5.790   5.581   5.618 -0.5466  0.1490  0.0363
 4851SOL    HW115452   5.785   5.591   5.718  0.4427  0.4697  0.0607
 4851SOL    HW215453   5.831   5.492   5.595  0.4562  0.6221 -0.0573
 4852SOL     OW15454   5.151   3.654   6.209 -0.2650 -0.4581 -0.5037
 4852SOL    HW115455   5.223   3.717   6.237  0.3768 -1.8984  1.2722
 4852SOL    HW215456   5.121   3.600   6.288 -2.1604 -1.0232 -1.5573
 4853SOL     OW15457   4.231   6.971   2.250  0.2767  0.0583  0.2304
 4853SOL    HW115458   4.150   7.029   2.244  0.1473 -0.1080  0.3825
 4853SOL    HW215459   4.233   6.925   2.339  1.1298  0.9337  0.6821
 4854SOL     OW15460   3.992   0.326   1.056  0.1312  0.0397 -0.1653
 4854SOL    HW115461   3.972   0.262   1.130 -0.7596 -0.4038 -0.7790
 4854SOL    HW215462   4.063   0.390   1.086  1.0792 -1.2475  0.4489
 4855SOL     OW15463   3.508   5.024   5.643 -0.5406 -0.2341  0.5420
 4855SOL    HW115464   3.427   5.057   5.596  0.3133  1.8298  0.4257
 4855SOL    HW215465   3.505   4.924   5.648 -1.1678 -0.4999 -2.9591
 4856SOL     OW15466   0.603   3.782   4.730  0.7233  0.0383  0.5208
 4856SOL    HW115467   0.556   3.737   4.655 -0.6924  2.6978 -0.3209
 4856SOL    HW215468   0.655   3.860   4.695  1.0911  0.5783  2.1562
 4857SOL     OW15469   3.393   1.581   5.388  0.5191  0.1094  0.0243
 4857SOL    HW115470   3.421   1.485   5.396  1.2574  0.2452 -0.7461
 4857SOL    HW215471   3.293   1.586   5.390  0.3263 -0.9737 -2.3289
 4858SOL     OW15472   2.519   0.999   2.916 -0.2700 -0.0999 -0.4793
 4858SOL    HW115473   2.488   0.904   2.919 -0.7807  0.0792  0.1977
 4858SOL    HW215474   2.457   1.052   2.858 -1.3649  0.2845  0.9744
 4859SOL     OW15475   0.252   5.669   2.100 -0.0894  0.2223  0.1956
 4859SOL    HW115476   0.236   5.593   2.163  0.4637 -0.4214 -0.4283
 4859SOL    HW215477   0.350   5.682   2.086 -0.2098  0.1517 -0.7711
 4860SOL     OW15478   4.247   5.381   5.274  0.7197  0.1949  0.0366
 4860SOL    HW115479   4.189   5.405   5.352 -0.2732  0.2676 -0.7181
 4860SOL    HW215480   4.233   5.446   5.200  1.2300 -0.2154 -0.4304
 4861SOL     OW15481   5.619   4.543   3.500 -0.0524  0.2528  0.0622
 4861SOL    HW115482   5.699   4.580   3.547 -0.4858  1.2877  0.0089
 4861SOL    HW215483   5.645   4.460   3.451  0.4310 -0.8326  2.0566
 4862SOL     OW15484   1.908   5.075   3.838 -0.0307 -0.3114  0.0016
 4862SOL    HW115485   1.981   5.096   3.773  1.2580  0.7731  1.7289
 4862SOL    HW215486   1.875   5.160   3.879 -2.3420 -0.7692 -0.7530
 4863SOL     OW15487   5.895   2.274   1.214  0.2305  0.2208  0.0662
 4863SOL    HW115488   5.874   2.298   1.119 -1.3564 -0.0635  0.3202
 4863SOL    HW215489   5.858   2.345   1.274  0.9663  0.2423  0.5078
 4864SOL     OW15490   3.341   3.333   1.651  0.2811  0.8113  0.2286
 4864SOL    HW115491   3.351   3.306   1.556  1.8147 -1.1233  0.8667
 4864SOL    HW215492   3.244   3.330   1.676  0.0343 -0.7346 -0.7482
 4865SOL     OW15493   3.918   6.851   4.755 -0.4735 -0.1326 -0.7135
 4865SOL    HW115494   3.882   6.915   4.687 -0.5102  1.2889  0.6005
 4865SOL    HW215495   4.017   6.842   4.744 -0.3867  0.5941 -0.5532
 4866SOL     OW15496   0.477   6.256   1.302  0.6875 -0.1127  0.4533
 4866SOL    HW115497   0.502   6.341   1.255  0.6068  0.6536  1.7551
 4866SOL    HW215498   0.531   6.248   1.386 -0.3289 -0.6219  1.0712
 4867SOL     OW15499   6.087   4.847   4.820  0.6421  0.1286  0.1198
 4867SOL    HW115500   5.995   4.874   4.848  0.3840 -1.3389  0.7772
 4867SOL    HW215501   6.114   4.899   4.739 -1.2813 -0.3419 -0.8603
 4868SOL     OW15502   1.526   5.704   2.235  0.4165  0.0348 -0.0693
 4868SOL    HW115503   1.549   5.707   2.137 -0.0218  1.3349 -0.1663
 4868SOL    HW215504   1.577   5.775   2.283  0.7359 -0.6952  0.6797
 4869SOL     OW15505   0.394   0.319   1.314  0.0727  0.3521 -0.0788
 4869SOL    HW115506   0.350   0.319   1.224  1.5287 -0.3132 -0.8233
 4869SOL    HW215507   0.387   0.228   1.354  0.7078  0.2488 -0.1891
 4870SOL     OW15508   5.825   0.428   2.200  0.2342  0.5910  0.2900
 4870SOL    HW115509   5.814   0.342   2.151  0.4330  0.5385  0.3351
 4870SOL    HW215510   5.802   0.504   2.140  2.0771  0.6282 -0.4264
 4871SOL     OW15511   0.298   1.719   5.771  0.0073 -0.5354  0.4887
 4871SOL    HW115512   0.382   1.773   5.778  0.2142 -0.7445 -0.2677
 4871SOL    HW215513   0.252   1.740   5.685 -0.8235 -0.2829  0.9819
 4872SOL     OW15514   3.609   1.465   1.164 -0.3961  0.5457 -0.3931
 4872SOL    HW115515   3.542   1.494   1.095 -0.4294  2.4863  0.3929
 4872SOL    HW215516   3.629   1.542   1.225  0.8110 -0.6798  0.8126
 4873SOL     OW15517   2.838   0.919   5.800  0.2637  0.5283  0.6647
 4873SOL    HW115518   2.902   0.841   5.798  1.5199  1.5144 -1.4697
 4873SOL    HW215519   2.877   0.992   5.855  1.1229  1.1743 -0.7322
 4874SOL     OW15520   6.145   1.670   5.331  0.1534  0.0512 -0.4505
 4874SOL    HW115521   6.079   1.602   5.300  0.2065  0.2345 -0.9736
 4874SOL    HW215522   6.238   1.635   5.319  0.1806 -1.1265  2.3306
 4875SOL     OW15523   1.805   4.105   6.140  0.1500  0.0517 -0.1297
 4875SOL    HW115524   1.742   4.094   6.063 -1.5768  1.1309  1.0671
 4875SOL    HW215525   1.827   4.016   6.179 -0.6298 -0.3378 -0.5667
 4876SOL     OW15526   0.575   1.252   5.960 -0.5540  0.2683 -0.7924
 4876SOL    HW115527   0.520   1.241   5.878 -0.3950  1.4873 -1.0852
 4876SOL    HW215528   0.642   1.179   5.966  0.3215  0.8933 -2.4737
 4877SOL     OW15529   4.197   1.231   2.721 -0.1162  0.0985 -0.1250
 4877SOL    HW115530   4.234   1.168   2.790  0.8260 -0.7407 -1.3511
 4877SOL    HW215531   4.102   1.206   2.701 -1.1317  1.6321  2.3087
 4878SOL     OW15532   0.238   2.947   4.167  0.1084  0.2047  0.1007
 4878SOL    HW115533   0.308   2.903   4.223  0.6028 -1.2158 -1.5555
 4878SOL    HW215534   0.195   2.879   4.108 -1.4335  1.3896 -0.2061
 4879SOL     OW15535   4.061   6.792   3.155 -0.3379  0.0994  0.2152
 4879SOL    HW115536   4.066   6.863   3.085  1.0379 -0.4676 -0.2996
 4879SOL    HW215537   3.975   6.801   3.206 -0.2425  2.0354  0.0915
 4880SOL     OW15538   6.782   4.677   6.386 -0.4423  0.4318  0.4278
 4880SOL    HW115539   6.699   4.731   6.397 -0.4433  0.7357 -0.9006
 4880SOL    HW215540   6.760   4.580   6.397 -1.1878  0.4263 -0.8829
 4881SOL     OW15541   3.183   7.002   5.981 -0.2721 -0.5064 -0.1274
 4881SOL    HW115542   3.257   6.955   6.028  0.8935 -1.5661 -2.8078
 4881SOL    HW215543   3.183   7.099   6.006  0.6836 -0.8861  1.4640
 4882SOL     OW15544   3.803   6.111   5.684 -0.0713  0.1983 -0.2497
 4882SOL    HW115545   3.822   6.052   5.762  2.5885  0.6911 -0.4043
 4882SOL    HW215546   3.877   6.102   5.616  0.6126  3.7398 -0.1841
 4883SOL     OW15547   6.712   6.617   0.430 -0.6135  0.0271  0.0820
 4883SOL    HW115548   6.701   6.716   0.423  0.4053  0.1082 -0.5727
 4883SOL    HW215549   6.803   6.596   0.468 -0.1224 -0.6594 -1.4212
 4884SOL     OW15550   3.682   5.035   1.538 -0.2240 -0.0250 -0.0462
 4884SOL    HW115551   3.684   5.130   1.510  0.1434 -0.0960 -0.2636
 4884SOL    HW215552   3.634   5.027   1.625  1.1225  0.5629  0.7695
 4885SOL     OW15553   0.963   1.403   0.988 -0.2337 -0.5026  0.1982
 4885SOL    HW115554   1.049   1.361   1.016 -0.9579 -1.7445  0.6066
 4885SOL    HW215555   0.961   1.412   0.888  0.0559 -1.1563  0.1292
 4886SOL     OW15556   6.012   6.706   4.477 -0.2734  0.0378  0.7140
 4886SOL    HW115557   6.049   6.799   4.468 -0.8584  0.4163  2.0516
 4886SOL    HW215558   6.030   6.672   4.569  1.1738 -1.7432 -0.1601
 4887SOL     OW15559   6.751   2.378   4.665 -0.0402  0.1269  0.0103
 4887SOL    HW115560   6.698   2.374   4.581 -0.9274 -3.4425  0.6140
 4887SOL    HW215561   6.753   2.289   4.709  6.8016 -0.3358 -0.0880
 4888SOL     OW15562   4.572   4.605   1.177 -0.3912 -0.3198 -0.4261
 4888SOL    HW115563   4.483   4.560   1.164 -1.4411  1.3881  0.4911
 4888SOL    HW215564   4.558   4.703   1.186  1.5782 -0.0634  0.1249
 4889SOL     OW15565   0.729   3.451   0.546 -0.1898  0.2131 -0.5028
 4889SOL    HW115566   0.730   3.550   0.557 -1.1725  0.3131 -1.2603
 4889SOL    HW215567   0.690   3.427   0.457 -2.1866 -0.9202  0.6172
 4890SOL     OW15568   6.164   2.453   2.823  0.5936 -0.2283  0.1027
 4890SOL    HW115569   6.154   2.538   2.874 -0.7292 -0.9672  1.1392
 4890SOL    HW215570   6.125   2.463   2.732 -0.2639  0.0436  0.4946
 4891SOL     OW15571   6.922   5.267   6.630 -0.3489  0.1885 -0.1311
 4891SOL    HW115572   6.978   5.321   6.567 -0.9511 -0.3026 -1.1240
 4891SOL    HW215573   6.870   5.329   6.690  0.0022  0.6780 -0.3246
 4892SOL     OW15574   2.982   6.580   3.792 -0.0883  0.1985  0.0477
 4892SOL    HW115575   2.949   6.600   3.700 -1.0150  1.0679  0.5487
 4892SOL    HW215576   2.904   6.566   3.854  0.4771  1.1312  1.0099
 4893SOL     OW15577   6.071   5.498   6.967  0.7313 -0.0329  0.4338
 4893SOL    HW115578   6.027   5.411   6.986  0.4023  0.3894  1.6690
 4893SOL    HW215579   6.094   5.503   6.869 -0.5056 -0.9097  0.0791
 4894SOL     OW15580   6.341   0.485   2.860  0.3987  0.3019 -0.5108
 4894SOL    HW115581   6.316   0.542   2.782  0.9893 -0.3421 -1.1755
 4894SOL    HW215582   6.399   0.538   2.922  1.2846  0.3106 -1.3240
 4895SOL     OW15583   6.564   4.315   0.610 -0.1954  0.8592 -0.2927
 4895SOL    HW115584   6.573   4.408   0.574 -0.0343  0.9997  0.1035
 4895SOL    HW215585   6.584   4.249   0.538 -4.2545  1.0138 -1.8241
 4896SOL     OW15586   3.727   1.454   6.156  0.3025 -0.0977  0.0560
 4896SOL    HW115587   3.671   1.515   6.100  0.2109  1.0902  1.3777
 4896SOL    HW215588   3.756   1.376   6.102  0.0779  0.9126 -1.5729
 4897SOL     OW15589   3.618   6.663   6.131  0.2547 -0.2826 -0.5898
 4897SOL    HW115590   3.635   6.579   6.080  0.3641 -1.2595  0.9942
 4897SOL    HW215591   3.651   6.652   6.225  0.1675  1.4999 -0.3152
 4898SOL     OW15592   5.007   2.022   4.624 -0.4560  0.6775  0.0178
 4898SOL    HW115593   4.979   2.039   4.530 -1.1819  0.7324  0.2385
 4898SOL    HW215594   5.103   2.047   4.636  0.1786 -0.9847 -1.1572
 4899SOL     OW15595   0.206   4.128   5.035 -0.6001  0.0614 -0.4656
 4899SOL    HW115596   0.240   4.164   5.122  0.9906 -0.9070 -0.6400
 4899SOL    HW215597   0.213   4.028   5.036  0.1764  0.0783 -1.9929
 4900SOL     OW15598   1.063   6.806   0.400  0.5069  0.0018  0.0935
 4900SOL    HW115599   1.078   6.744   0.477  3.0907  0.6162  0.1791
 4900SOL    HW215600   1.060   6.901   0.434 -1.2433  0.1106 -0.2807
 4901SOL     OW15601   5.788   5.778   2.972  0.1481  0.4269  0.3278
 4901SOL    HW115602   5.791   5.823   2.883  0.7988 -1.0858 -0.4451
 4901SOL    HW215603   5.864   5.810   3.028  1.3928 -0.6149 -0.6965
 4902SOL     OW15604   3.560   5.993   5.903  0.4010 -0.1221  0.2666
 4902SOL    HW115605   3.500   6.018   5.827  2.4117  0.7840 -1.1045
 4902SOL    HW215606   3.595   5.900   5.889  3.5903  1.2269 -2.0159
 4903SOL     OW15607   0.515   2.551   1.082  0.8559  0.4411  0.3381
 4903SOL    HW115608   0.443   2.482   1.079 -1.2726  2.5322 -0.6631
 4903SOL    HW215609   0.517   2.594   1.172  0.6063  0.6007  0.2686
 4904SOL     OW15610   3.152   6.564   5.220  0.0779  0.2623  0.1938
 4904SOL    HW115611   3.085   6.598   5.286 -1.2520  0.9997 -1.4878
 4904SOL    HW215612   3.109   6.498   5.159  0.7894  0.9081 -1.0492
 4905SOL     OW15613   5.203   5.118   1.774 -0.2340  0.5342  0.0435
 4905SOL    HW115614   5.291   5.147   1.738 -0.8169  0.0796 -1.8259
 4905SOL    HW215615   5.218   5.051   1.847  0.9660  0.9383  0.1924
 4906SOL     OW15616   6.709   1.095   2.794  0.6722 -0.1687  0.2249
 4906SOL    HW115617   6.637   1.036   2.830  1.0486 -0.2339  0.8956
 4906SOL    HW215618   6.688   1.190   2.818  0.1164 -0.0234 -0.7695
 4907SOL     OW15619   2.449   1.819   1.880  0.7778 -0.0898 -0.3380
 4907SOL    HW115620   2.368   1.797   1.825  0.7428 -0.5601 -0.1031
 4907SOL    HW215621   2.434   1.905   1.927 -0.3725 -1.0730  1.1925
 4908SOL     OW15622   5.752   3.859   0.212  0.3078  0.5144  0.1671
 4908SOL    HW115623   5.664   3.832   0.174 -0.2461  0.6621  1.3387
 4908SOL    HW215624   5.817   3.784   0.202  0.0759  0.4202 -0.7346
 4909SOL     OW15625   6.322   5.325   6.187  0.3294 -0.3846  0.0016
 4909SOL    HW115626   6.276   5.236   6.184 -0.9822  0.1120  2.4551
 4909SOL    HW215627   6.373   5.332   6.273 -0.2751  1.5118  0.2397
 4910SOL     OW15628   5.342   0.692   4.310  0.2291  0.6416 -0.0247
 4910SOL    HW115629   5.399   0.625   4.357  1.6138  1.3590 -0.6191
 4910SOL    HW215630   5.248   0.659   4.306  0.4220 -0.2177  1.6762
 4911SOL     OW15631   6.619   3.422   6.661  0.4128  0.6529  0.3092
 4911SOL    HW115632   6.700   3.480   6.656  2.8994 -2.6618 -1.7873
 4911SOL    HW215633   6.626   3.363   6.742  1.1692 -0.9052 -0.8298
 4912SOL     OW15634   6.720   3.931   2.889  0.1817  0.3063 -0.0390
 4912SOL    HW115635   6.788   3.858   2.895 -0.8155 -0.8685 -2.0515
 4912SOL    HW215636   6.741   3.990   2.811 -0.0909  1.0299  0.4277
 4913SOL     OW15637   3.881   3.527   1.796 -0.4023 -0.0010 -0.0426
 4913SOL    HW115638   3.851   3.620   1.779  0.3106  0.3228  0.4321
 4913SOL    HW215639   3.873   3.507   1.894  1.6198  0.3693  0.2448
 4914SOL     OW15640   6.768   6.973   1.651  0.1060  0.1273 -0.3346
 4914SOL    HW115641   6.669   6.980   1.668  0.4033 -2.2169  3.9099
 4914SOL    HW215642   6.817   7.020   1.725  2.1212 -0.8258 -1.0113
 4915SOL     OW15643   5.202   6.876   2.715 -0.3101 -0.2597  0.0254
 4915SOL    HW115644   5.161   6.921   2.635 -0.6520 -1.2705 -0.3829
 4915SOL    HW215645   5.142   6.890   2.795  0.5377  1.6307  0.3867
 4916SOL     OW15646   1.266   3.382   2.770  0.6914  0.1135  0.1002
 4916SOL    HW115647   1.332   3.375   2.695  0.1977 -1.5190 -0.2308
 4916SOL    HW215648   1.178   3.411   2.734  0.6576  0.1199  0.1874
 4917SOL     OW15649   0.010   5.743   6.310 -0.0671 -0.1631  0.1766
 4917SOL    HW115650   0.052   5.829   6.340  0.4804  0.4219 -2.0504
 4917SOL    HW215651  -0.084   5.759   6.282  0.1297 -0.1872 -0.5373
 4918SOL     OW15652   1.507   5.571   4.125 -0.1966  0.2852 -0.0285
 4918SOL    HW115653   1.524   5.512   4.047 -0.2103  0.3329 -0.0671
 4918SOL    HW215654   1.581   5.638   4.134 -0.5763  0.7765 -0.4579
 4919SOL     OW15655   3.264   2.815   1.888  0.1075 -0.6278  0.4708
 4919SOL    HW115656   3.292   2.908   1.911  3.2380 -1.2256 -0.3957
 4919SOL    HW215657   3.235   2.768   1.971  1.6010  0.2110  1.5231
 4920SOL     OW15658   3.571   2.102   6.400  0.0527  0.3336  0.1093
 4920SOL    HW115659   3.597   2.007   6.419  0.9482  0.8575  1.7461
 4920SOL    HW215660   3.626   2.138   6.325  0.4822 -0.1202  0.2036
 4921SOL     OW15661   4.582   4.091   1.405 -0.2252 -0.2073  0.2202
 4921SOL    HW115662   4.589   4.163   1.474  1.8047 -0.3729  0.2496
 4921SOL    HW215663   4.582   4.001   1.449 -2.3106 -0.3043  0.1547
 4922SOL     OW15664   6.305   3.154   5.840  0.5341  0.4670 -0.1398
 4922SOL    HW115665   6.215   3.191   5.817  0.4403  0.3812  0.0891
 4922SOL    HW215666   6.323   3.168   5.937 -0.0810 -1.2624  0.2719
 4923SOL     OW15667   4.762   1.547   0.666 -0.7781  0.2449  0.3873
 4923SOL    HW115668   4.676   1.582   0.628 -0.4850 -1.4626 -2.1487
 4923SOL    HW215669   4.836   1.610   0.644 -0.4643 -1.0604 -3.0318
 4924SOL     OW15670   2.831   2.099   4.915 -0.1724  0.1886  0.4523
 4924SOL    HW115671   2.851   2.173   4.980  1.0867 -0.0194  0.3365
 4924SOL    HW215672   2.884   2.018   4.940  0.7108  0.2493 -1.0824
 4925SOL     OW15673   5.188   5.941   5.426 -0.2101  0.3661 -0.1641
 4925SOL    HW115674   5.142   6.024   5.395 -2.4697 -0.9425 -0.5642
 4925SOL    HW215675   5.198   5.878   5.349  0.3583 -0.2217  0.3811
 4926SOL     OW15676   4.635   3.903   0.955  0.0097  0.4744 -0.1130
 4926SOL    HW115677   4.726   3.943   0.944  1.0043 -1.9955 -1.3416
 4926SOL    HW215678   4.602   3.869   0.867 -1.6837  0.4070  0.5146
 4927SOL     OW15679   3.646   2.137   1.666  0.4479 -0.2084 -0.1907
 4927SOL    HW115680   3.552   2.107   1.657  0.5932 -1.2728  1.4162
 4927SOL    HW215681   3.652   2.209   1.735  0.6098  1.0660 -1.4846
 4928SOL     OW15682   5.848   1.592   5.154  0.7312 -0.1550 -0.6428
 4928SOL    HW115683   5.897   1.595   5.067  1.9780  2.0804  0.0384
 4928SOL    HW215684   5.860   1.680   5.202 -0.6100 -1.0077  1.4134
 4929SOL     OW15685   0.842   3.748   3.759  0.0078 -0.4840 -0.0127
 4929SOL    HW115686   0.905   3.824   3.744 -0.3223 -0.2682 -0.3252
 4929SOL    HW215687   0.833   3.731   3.857 -2.4375  2.0579  0.3199
 4930SOL     OW15688   2.621   3.794   1.395  0.0014 -0.1779 -0.2495
 4930SOL    HW115689   2.715   3.774   1.367  0.8421  0.9260  1.6126
 4930SOL    HW215690   2.570   3.709   1.401  0.5922 -0.7167 -2.1728
 4931SOL     OW15691   6.438   4.751   0.429  0.9108  0.6200 -0.3061
 4931SOL    HW115692   6.463   4.842   0.460  0.1847  0.5942  0.4083
 4931SOL    HW215693   6.375   4.758   0.352  0.2106  0.7518  0.2640
 4932SOL     OW15694   3.801   2.411   1.657  0.6499 -0.5305 -0.1016
 4932SOL    HW115695   3.889   2.371   1.683  1.0410 -0.5319 -1.3463
 4932SOL    HW215696   3.728   2.367   1.709  1.2484 -1.5501 -0.0914
 4933SOL     OW15697   3.299   0.776   4.753 -0.3956  0.3720 -0.5800
 4933SOL    HW115698   3.351   0.788   4.668  0.7644  0.8388  0.1768
 4933SOL    HW215699   3.287   0.864   4.798 -0.7746  0.0907 -0.1201
 4934SOL     OW15700   2.512   4.670   6.281 -0.1552 -0.4107 -0.4629
 4934SOL    HW115701   2.565   4.617   6.215 -1.2450  1.3109 -2.9032
 4934SOL    HW215702   2.573   4.726   6.336  0.7055 -0.4023 -1.4002
 4935SOL     OW15703   0.188   2.788   2.467  0.3037 -0.2167 -0.0452
 4935SOL    HW115704   0.197   2.881   2.431  0.9501 -0.0880  0.4300
 4935SOL    HW215705   0.243   2.725   2.412 -1.0120 -0.5229 -1.0552
 4936SOL     OW15706   0.564   2.221   1.133 -0.5070  0.2773 -0.2337
 4936SOL    HW115707   0.594   2.179   1.047  0.1337 -1.0748  0.6150
 4936SOL    HW215708   0.643   2.234   1.194 -1.2378 -0.8528  1.0035
 4937SOL     OW15709   1.483   3.381   5.395  0.1984  0.5997 -0.3497
 4937SOL    HW115710   1.518   3.473   5.414 -0.0208  0.6647 -0.2663
 4937SOL    HW215711   1.501   3.358   5.299  2.8096 -0.3753  0.2953
 4938SOL     OW15712   2.275   4.748   6.712  0.1210 -0.0476  0.1196
 4938SOL    HW115713   2.275   4.846   6.691 -1.0670 -0.0367  0.0926
 4938SOL    HW215714   2.353   4.704   6.667  1.5312  1.1117  1.3359
 4939SOL     OW15715   2.981   1.679   2.849 -0.0886 -0.2570  0.0655
 4939SOL    HW115716   2.993   1.586   2.882 -0.7280 -0.7561 -1.0599
 4939SOL    HW215717   3.017   1.687   2.756 -0.9181  0.3533 -0.2169
 4940SOL     OW15718   2.224   1.462   6.199 -0.2830  0.0500  0.5874
 4940SOL    HW115719   2.227   1.474   6.298  0.6089  1.2729  0.4457
 4940SOL    HW215720   2.246   1.550   6.154  0.1183 -0.6632 -0.6711
 4941SOL     OW15721   3.928   2.830   6.368 -0.1099 -0.2207  0.1578
 4941SOL    HW115722   3.997   2.874   6.425 -0.8908 -1.1983  1.9999
 4941SOL    HW215723   3.906   2.887   6.290  2.1719  0.4703 -0.0470
 4942SOL     OW15724   0.044   1.121   1.808 -0.2461  0.2650 -0.3531
 4942SOL    HW115725  -0.018   1.176   1.863 -0.7347 -0.4790 -0.1547
 4942SOL    HW215726   0.111   1.076   1.867 -0.6681 -0.4030 -0.3772
 4943SOL     OW15727   0.163   1.027   0.654  0.4167 -0.2380 -0.1189
 4943SOL    HW115728   0.255   1.051   0.684 -0.1651  1.2608  0.5830
 4943SOL    HW215729   0.104   1.017   0.734 -0.6560  1.5980 -0.6244
 4944SOL     OW15730   0.963   5.937   0.448  0.0037  0.0846 -0.5350
 4944SOL    HW115731   0.890   5.934   0.516  0.1662  0.0920 -0.3585
 4944SOL    HW215732   0.937   5.881   0.368 -0.0600 -0.1667 -0.3394
 4945SOL     OW15733   2.600   0.814   5.352  0.5723 -0.2710  0.4091
 4945SOL    HW115734   2.548   0.743   5.401 -0.2676 -0.1196 -0.2432
 4945SOL    HW215735   2.540   0.891   5.332  1.0213 -0.1458 -0.4747
 4946SOL     OW15736   2.252   4.805   0.200  0.0698 -0.2509 -0.2078
 4946SOL    HW115737   2.156   4.833   0.202  0.1546  0.0165  0.0734
 4946SOL    HW215738   2.300   4.858   0.131 -0.3381 -1.5286 -1.5312
 4947SOL     OW15739   0.375   6.513   2.221 -0.1187 -0.1383  0.6230
 4947SOL    HW115740   0.460   6.564   2.235 -1.7460  2.7472  0.9250
 4947SOL    HW215741   0.299   6.578   2.215 -2.6906 -2.6821  2.9457
 4948SOL     OW15742   1.316   2.904   2.586 -0.3718 -0.0684 -0.3905
 4948SOL    HW115743   1.227   2.948   2.599 -1.1230 -1.8413  0.8189
 4948SOL    HW215744   1.387   2.960   2.629 -1.0633  0.7930 -0.3453
 4949SOL     OW15745   5.633   6.282   0.250 -0.4378  0.4751  0.1795
 4949SOL    HW115746   5.597   6.217   0.184 -1.6540  1.2634  0.0472
 4949SOL    HW215747   5.560   6.315   0.309  0.7080 -0.6532  2.3445
 4950SOL     OW15748   4.081   2.336   5.697  0.3747  0.0128  0.2726
 4950SOL    HW115749   4.040   2.275   5.629 -0.5018 -0.5285  1.2567
 4950SOL    HW215750   4.013   2.404   5.726  0.5582 -0.1067  1.0019
 4951SOL     OW15751   5.758   4.362   3.331 -0.0814 -0.2179 -0.5272
 4951SOL    HW115752   5.831   4.417   3.292  0.7854 -0.7366  0.3220
 4951SOL    HW215753   5.681   4.357   3.267  0.2812  1.0204 -1.0827
 4952SOL     OW15754   0.868   0.416   6.931 -0.4657 -0.5162 -0.2050
 4952SOL    HW115755   0.961   0.379   6.941 -0.2197  0.2340  0.3870
 4952SOL    HW215756   0.802   0.354   6.973 -0.1714 -0.7902 -0.1455
 4953SOL     OW15757   0.264   6.867   4.892  0.1994 -0.4016  0.5079
 4953SOL    HW115758   0.316   6.812   4.826  0.4805  0.6911 -0.2020
 4953SOL    HW215759   0.326   6.906   4.959  0.4072  1.2254 -0.5685
 4954SOL     OW15760   3.478   3.685   4.207  0.3711 -0.1132  0.1007
 4954SOL    HW115761   3.382   3.665   4.223 -1.3139  3.2281 -4.0434
 4954SOL    HW215762   3.522   3.605   4.166 -1.4960 -0.7075 -0.8468
 4955SOL     OW15763   4.353   4.835   0.712 -0.3979 -0.2603 -0.3367
 4955SOL    HW115764   4.265   4.871   0.681 -1.2648 -0.3148  1.8681
 4955SOL    HW215765   4.407   4.909   0.752 -1.2925 -0.8904  2.2401
 4956SOL     OW15766   2.362   2.152   3.270  0.1503  0.3517  0.4495
 4956SOL    HW115767   2.418   2.151   3.353  1.1296 -2.8776 -0.1345
 4956SOL    HW215768   2.412   2.198   3.197  1.3211 -0.8823  0.4352
 4957SOL     OW15769   0.050   6.522   6.628 -0.0683  0.4436  0.0311
 4957SOL    HW115770  -0.013   6.543   6.704  0.4365 -1.8848  1.1640
 4957SOL    HW215771   0.142   6.554   6.651 -0.1653  0.9079 -0.2025
 4958SOL     OW15772   2.596   6.069   5.475 -0.2873 -0.2616 -0.1031
 4958SOL    HW115773   2.598   5.979   5.431  0.5585 -0.1295 -0.3454
 4958SOL    HW215774   2.623   6.139   5.409 -1.1879  0.2071  0.0128
 4959SOL     OW15775   3.277   1.324   4.242  0.4247 -0.1292 -0.1823
 4959SOL    HW115776   3.203   1.343   4.177  0.4320 -2.2880 -0.8854
 4959SOL    HW215777   3.253   1.361   4.331 -0.9125  0.3365 -0.7062
 4960SOL     OW15778   5.666   3.092   5.431  0.0864  0.0029  0.4436
 4960SOL    HW115779   5.677   3.183   5.390  1.5724  0.5444  1.9356
 4960SOL    HW215780   5.569   3.069   5.436 -0.3813  1.9020  0.8449
 4961SOL     OW15781   3.701   3.995   2.994 -0.9029  0.1251  0.1147
 4961SOL    HW115782   3.716   4.058   2.918  3.0944 -0.2746  0.3750
 4961SOL    HW215783   3.663   3.909   2.960  0.3958  0.1159 -1.4105
 4962SOL     OW15784   1.170   1.907   3.503  0.6434 -0.5398  0.1087
 4962SOL    HW115785   1.153   1.973   3.577  2.3734 -0.5900  0.6014
 4962SOL    HW215786   1.137   1.945   3.417  1.8556  1.1491  0.3236
 4963SOL     OW15787   6.429   3.336   5.515 -0.2298  0.5787 -0.2164
 4963SOL    HW115788   6.446   3.419   5.462 -0.2377  0.1132 -0.9657
 4963SOL    HW215789   6.351   3.287   5.477  0.2678 -0.1824 -0.2828
 4964SOL     OW15790   0.248   4.667   1.632  0.4396  0.1322 -0.4137
 4964SOL    HW115791   0.183   4.639   1.560  1.0457 -1.3048 -0.4479
 4964SOL    HW215792   0.238   4.606   1.710  1.4518  0.1592 -0.2519
 4965SOL     OW15793   1.547   6.974   4.373  0.3628  0.1194 -0.6110
 4965SOL    HW115794   1.547   6.887   4.423  1.4673  0.7020  0.4673
 4965SOL    HW215795   1.473   7.032   4.407  0.9915  0.4384  0.2345
 4966SOL     OW15796   4.965   6.579   5.019 -0.1209  0.2962  0.3797
 4966SOL    HW115797   5.023   6.660   5.031  0.6835 -0.1186 -0.5550
 4966SOL    HW215798   4.895   6.578   5.090  1.7123  0.2147  2.3008
 4967SOL     OW15799   2.047   5.240   2.584  0.2071  0.2755 -0.0405
 4967SOL    HW115800   2.133   5.266   2.629 -1.2450  0.3128  2.9550
 4967SOL    HW215801   1.981   5.314   2.595 -0.8385 -0.5774 -0.4608
 4968SOL     OW15802   5.798   3.617   3.358 -0.4340  0.2718 -0.7522
 4968SOL    HW115803   5.758   3.532   3.394  0.8437 -0.2137 -0.4519
 4968SOL    HW215804   5.725   3.685   3.349 -1.5021 -0.8496 -1.0373
 4969SOL     OW15805   1.084   5.066   4.242  0.2550  0.3319  0.8055
 4969SOL    HW115806   1.174   5.033   4.214 -0.6661 -0.1340 -1.8765
 4969SOL    HW215807   1.086   5.091   4.339  3.0412 -0.3468  0.9931
 4970SOL     OW15808   2.163   0.030   0.405 -0.3135 -0.1538 -0.1248
 4970SOL    HW115809   2.092   0.095   0.432  1.1419  1.5754 -0.2798
 4970SOL    HW215810   2.187  -0.027   0.484 -1.5705 -0.4985  0.0285
 4971SOL     OW15811   0.585   1.392   1.824 -0.2484 -0.5384  0.3962
 4971SOL    HW115812   0.518   1.415   1.895  0.3692  1.1652  0.4777
 4971SOL    HW215813   0.539   1.383   1.736 -0.5998  0.6130  0.4508
 4972SOL     OW15814   0.113   3.770   0.508  0.1481 -0.5928  0.3326
 4972SOL    HW115815   0.160   3.857   0.488  0.7543 -0.9723  0.0630
 4972SOL    HW215816   0.181   3.697   0.513 -0.3281 -0.9967  0.8934
 4973SOL     OW15817   5.204   0.831   6.152  0.2849 -0.3854  0.3119
 4973SOL    HW115818   5.151   0.853   6.070 -0.5327 -1.1892  0.6157
 4973SOL    HW215819   5.302   0.838   6.130  0.1066 -1.5058 -1.0092
 4974SOL     OW15820   2.465   1.278   5.272  0.5209  0.0828  0.4165
 4974SOL    HW115821   2.379   1.256   5.319  0.2421  1.5465  0.6370
 4974SOL    HW215822   2.488   1.374   5.287  1.3984  0.1156 -0.9209
 4975SOL     OW15823   6.597   3.345   6.404  0.5541 -0.0920 -0.2095
 4975SOL    HW115824   6.602   3.371   6.501  0.9770 -0.0521 -0.2401
 4975SOL    HW215825   6.637   3.418   6.348  0.1301 -0.0267 -0.4302
 4976SOL     OW15826   1.338   1.629   4.013  0.4722  0.0139 -0.0787
 4976SOL    HW115827   1.242   1.627   4.042  0.2345 -0.0124 -0.8616
 4976SOL    HW215828   1.344   1.613   3.915  1.2279  0.6574 -0.1497
 4977SOL     OW15829   1.806   3.033   4.214 -0.0780 -0.2159 -0.6974
 4977SOL    HW115830   1.870   2.957   4.229  0.1398 -0.1143 -1.1082
 4977SOL    HW215831   1.777   3.069   4.302  1.4181  0.5594 -0.4902
 4978SOL     OW15832   5.043   5.996   4.721 -0.1396 -0.4881  0.3489
 4978SOL    HW115833   4.981   6.074   4.721 -0.3914 -0.6701 -1.0777
 4978SOL    HW215834   5.106   6.004   4.799  0.1157  1.3667  0.0045
 4979SOL     OW15835   3.441   0.484   1.355 -0.0413  0.5087  0.2847
 4979SOL    HW115836   3.376   0.443   1.419 -1.1792 -0.9084 -1.6510
 4979SOL    HW215837   3.534   0.471   1.389 -0.6544  0.9190  2.2130
 4980SOL     OW15838   5.973   4.886   1.268 -0.1078  0.0227  0.3105
 4980SOL    HW115839   5.906   4.891   1.194  0.6350  1.2634 -0.3024
 4980SOL    HW215840   5.977   4.974   1.316  0.7748 -0.1783  0.6221
 4981SOL     OW15841   3.198   6.369   2.691  0.0346 -0.0523 -0.4371
 4981SOL    HW115842   3.219   6.273   2.705 -3.6240 -0.8740  0.1935
 4981SOL    HW215843   3.103   6.380   2.663 -0.4829  3.5063  1.9451
 4982SOL     OW15844   1.962   2.790   4.982  0.4346 -0.1524 -0.1484
 4982SOL    HW115845   1.894   2.784   4.909  2.3095  0.1701 -2.0114
 4982SOL    HW215846   1.984   2.886   5.000 -0.2209 -0.2139  1.0871
 4983SOL     OW15847   3.718   5.121   4.343  0.5519  0.5454 -0.4869
 4983SOL    HW115848   3.675   5.144   4.431  0.8807  0.5863 -0.3372
 4983SOL    HW215849   3.651   5.076   4.284 -0.4892  2.9061 -1.2410
 4984SOL     OW15850   6.123   3.463   5.778  0.1664  0.3499 -0.3738
 4984SOL    HW115851   6.071   3.380   5.796  0.6170  0.2950  0.7890
 4984SOL    HW215852   6.077   3.517   5.707  0.0666 -1.0440 -1.4024
 4985SOL     OW15853   4.143   1.669   2.757  0.1566  0.2102 -0.5087
 4985SOL    HW115854   4.157   1.675   2.658  2.8608 -0.1840 -0.2272
 4985SOL    HW215855   4.046   1.654   2.776 -0.3706 -0.1433 -3.1041
 4986SOL     OW15856   0.165   5.469   1.532 -0.0173  0.2325  0.7850
 4986SOL    HW115857   0.066   5.477   1.518  0.1878  0.4206 -0.6492
 4986SOL    HW215858   0.204   5.559   1.551  0.1776  0.5042 -0.8152
 4987SOL     OW15859   0.148   4.476   2.434  0.0559 -0.1125  0.4861
 4987SOL    HW115860   0.144   4.568   2.395 -0.8692 -0.2131  0.3166
 4987SOL    HW215861   0.080   4.468   2.507  0.4982 -0.5051  0.8635
 4988SOL     OW15862   1.117   4.030   5.002  0.2218 -0.3559 -0.1869
 4988SOL    HW115863   1.195   3.983   4.961  2.5845  2.5694  0.5415
 4988SOL    HW215864   1.131   4.038   5.101 -0.7006  0.7183 -0.1154
 4989SOL     OW15865   0.372   1.094   3.834 -0.6169  0.2903  0.1438
 4989SOL    HW115866   0.426   1.144   3.765  0.5914  0.3152  1.0759
 4989SOL    HW215867   0.400   0.998   3.834  2.0944  0.9142  3.0080
 4990SOL     OW15868   3.707   3.265   0.129  0.0441 -0.0815  0.3059
 4990SOL    HW115869   3.776   3.336   0.115 -0.5844  0.4253 -0.3615
 4990SOL    HW215870   3.652   3.288   0.210  0.7789 -0.5932  0.9555
 4991SOL     OW15871   1.443   3.781   6.407 -0.2206  0.2499  0.2835
 4991SOL    HW115872   1.539   3.811   6.408 -0.3156  0.5583  0.1030
 4991SOL    HW215873   1.407   3.789   6.314  0.3999 -2.4829 -0.3137
 4992SOL     OW15874   3.606   3.830   4.390 -0.5870  0.0173  0.2122
 4992SOL    HW115875   3.535   3.853   4.457 -0.4799 -1.4081  0.8610
 4992SOL    HW215876   3.567   3.773   4.318 -0.4758  0.6991 -0.3932
 4993SOL     OW15877   1.506   5.557   3.469 -0.0902 -0.1084 -0.2895
 4993SOL    HW115878   1.601   5.534   3.448  0.4927 -0.3143  2.2717
 4993SOL    HW215879   1.461   5.478   3.512 -1.2510  0.2075 -0.8673
 4994SOL     OW15880   4.057   4.340   6.356 -0.0376 -0.0269  0.1607
 4994SOL    HW115881   3.971   4.357   6.405 -1.1114 -0.8582 -1.3381
 4994SOL    HW215882   4.088   4.247   6.375  0.0235 -0.0463 -0.0328
 4995SOL     OW15883   0.918   2.834   0.569  0.2220 -0.5986  0.0576
 4995SOL    HW115884   1.012   2.799   0.576  0.6739 -0.1692 -2.6749
 4995SOL    HW215885   0.916   2.930   0.594  0.3683 -0.7461  0.6705
 4996SOL     OW15886   0.591   2.530   4.328  0.6130  0.1501  0.1750
 4996SOL    HW115887   0.610   2.450   4.386 -0.4736  1.9029  3.1745
 4996SOL    HW215888   0.655   2.604   4.352  1.0874  0.4896 -1.9874
 4997SOL     OW15889   1.928   0.335   1.245  0.4930 -0.1012 -0.9837
 4997SOL    HW115890   1.977   0.278   1.311 -1.8070  0.8667  1.7781
 4997SOL    HW215891   1.989   0.361   1.171  2.4680 -3.5691 -0.7706
 4998SOL     OW15892   1.652   3.849   2.515  0.4766 -0.6476 -0.6072
 4998SOL    HW115893   1.594   3.868   2.594  0.0313  2.4372 -1.5649
 4998SOL    HW215894   1.595   3.835   2.434  0.9298 -3.7486 -0.5447
 4999SOL     OW15895   6.590   3.367   2.969 -0.4469 -0.6913 -0.6757
 4999SOL    HW115896   6.600   3.440   3.037 -1.0036 -2.7037  1.7224
 4999SOL    HW215897   6.679   3.350   2.926  0.1405  0.0843  0.1892
 5000SOL     OW15898   1.731   0.258   2.126 -0.2060 -0.0732  0.2340
 5000SOL    HW115899   1.681   0.190   2.073  1.7659 -1.5199  0.1473
 5000SOL    HW215900   1.721   0.348   2.083 -0.9475 -0.7037 -0.9600
 5001SOL     OW15901   5.886   4.654   1.422 -0.6540 -0.1336 -0.5362
 5001SOL    HW115902   5.910   4.744   1.385 -1.0172  0.0457 -0.3329
 5001SOL    HW215903   5.936   4.583   1.371 -1.0363  0.1169 -1.2757
 5002SOL     OW15904   0.436   5.039   2.156 -0.2813 -0.4089 -0.0415
 5002SOL    HW115905   0.428   5.137   2.171  0.9755 -0.1917 -0.7069
 5002SOL    HW215906   0.350   4.995   2.182 -0.3058  0.6417  1.8336
 5003SOL     OW15907   3.131   0.923   2.828  0.6251 -0.5615 -0.2253
 5003SOL    HW115908   3.033   0.905   2.821  0.4342 -0.4965  1.7700
 5003SOL    HW215909   3.180   0.838   2.843  0.9754 -0.6714 -1.8286
 5004SOL     OW15910   3.269   6.015   0.717  0.0247 -1.0275  0.1475
 5004SOL    HW115911   3.212   6.097   0.713  0.0032 -1.0799 -0.8297
 5004SOL    HW215912   3.271   5.979   0.811  2.1523  1.5651  1.2295
 5005SOL     OW15913   5.869   2.632   1.063 -0.3803  0.7896 -0.0194
 5005SOL    HW115914   5.886   2.622   1.161  0.5588 -1.1143 -0.3247
 5005SOL    HW215915   5.894   2.724   1.033 -0.3908  1.2881  1.4586
 5006SOL     OW15916   3.844   2.084   2.224 -0.2222  0.3957 -0.0756
 5006SOL    HW115917   3.880   2.013   2.164 -1.9060 -0.6575  0.0936
 5006SOL    HW215918   3.793   2.151   2.168  0.2973  0.7846 -0.0892
 5007SOL     OW15919   6.143   6.511   1.256 -0.1242 -0.1511 -0.3189
 5007SOL    HW115920   6.160   6.414   1.277  0.7318 -0.3235 -1.6795
 5007SOL    HW215921   6.052   6.537   1.290 -0.7593 -1.6925 -0.7458
 5008SOL     OW15922   7.010   6.690   3.222 -0.1038 -0.2147 -0.2065
 5008SOL    HW115923   6.991   6.638   3.305  0.2044  1.1430  0.7366
 5008SOL    HW215924   7.103   6.726   3.225 -0.3853  0.5921 -0.7263
 5009SOL     OW15925   1.052   2.044   4.989  0.0436  0.5926 -0.2671
 5009SOL    HW115926   1.016   2.014   4.900  0.6101  2.1053 -1.0492
 5009SOL    HW215927   1.073   2.142   4.985 -1.2585  1.0271  2.0027
 5010SOL     OW15928   5.797   3.152   0.457 -0.1953  0.3900 -0.1704
 5010SOL    HW115929   5.865   3.198   0.514 -0.2155  0.4686 -0.2097
 5010SOL    HW215930   5.709   3.199   0.467 -0.6933 -0.7950  1.2976
 5011SOL     OW15931   1.259   1.175   5.996  0.4303  0.3856 -0.2592
 5011SOL    HW115932   1.177   1.231   5.980 -0.2113 -0.6703 -0.7690
 5011SOL    HW215933   1.235   1.097   6.054  1.4108  0.8450  0.8094
 5012SOL     OW15934   6.438   2.177   6.707 -0.2862 -0.3233 -0.0965
 5012SOL    HW115935   6.371   2.208   6.775  0.2371  2.0594 -0.5871
 5012SOL    HW215936   6.393   2.117   6.641 -1.7092  0.4221  0.1491
 5013SOL     OW15937   6.138   4.667   4.558  0.2148 -0.1644 -0.5492
 5013SOL    HW115938   6.164   4.572   4.576  0.1348 -0.0357  0.2850
 5013SOL    HW215939   6.107   4.710   4.643 -1.6899  0.0239 -1.2904
 5014SOL     OW15940   1.216   2.968   1.973 -0.3662 -0.4792 -0.4304
 5014SOL    HW115941   1.280   2.968   1.896 -0.2833 -1.1512 -0.3740
 5014SOL    HW215942   1.212   2.875   2.012  0.0537 -0.0302  0.7417
 5015SOL     OW15943   5.731   5.300   3.123 -0.2017 -0.7201  0.0452
 5015SOL    HW115944   5.672   5.355   3.182  0.1574  0.8425 -0.9896
 5015SOL    HW215945   5.713   5.203   3.138  1.0868 -0.5265  3.9805
 5016SOL     OW15946   1.855   6.862   0.293  0.1718  0.2684 -0.3315
 5016SOL    HW115947   1.816   6.922   0.223  0.1248  0.2913 -0.2853
 5016SOL    HW215948   1.946   6.832   0.264  0.1801  0.3323 -0.3711
 5017SOL     OW15949   0.878   3.248   2.788  0.1087 -0.4865  0.2901
 5017SOL    HW115950   0.910   3.236   2.882  1.2245  1.6199  0.2624
 5017SOL    HW215951   0.784   3.215   2.779  0.0171 -0.8116  2.1089
 5018SOL     OW15952   1.573   0.736   1.972 -0.0414 -0.0209  0.2280
 5018SOL    HW115953   1.494   0.715   2.030  0.5318 -3.9896 -0.1782
 5018SOL    HW215954   1.542   0.786   1.890 -1.6410  0.9397  1.3615
 5019SOL     OW15955   1.220   4.285   5.236  0.0408  0.2961 -0.6104
 5019SOL    HW115956   1.174   4.207   5.278  3.2049 -1.2991  0.1465
 5019SOL    HW215957   1.207   4.366   5.294 -1.7630 -0.0350 -0.4796
 5020SOL     OW15958   1.465   0.838   2.972 -0.4549 -0.1905  0.1187
 5020SOL    HW115959   1.546   0.779   2.973 -0.1284  0.1732 -1.5068
 5020SOL    HW215960   1.493   0.933   2.977 -0.9372 -0.1110  1.8638
 5021SOL     OW15961   0.712   0.990   0.921  0.4259 -0.4008  0.0116
 5021SOL    HW115962   0.769   0.976   0.840  0.1021  0.4589 -0.3872
 5021SOL    HW215963   0.717   1.086   0.949 -0.4942 -0.3989  0.2167
 5022SOL     OW15964   6.748   3.020   3.093  0.3758 -0.1464 -0.1489
 5022SOL    HW115965   6.657   3.061   3.099  1.3147  1.9010  2.1735
 5022SOL    HW215966   6.772   2.982   3.182  2.0795  0.0804 -0.4769
 5023SOL     OW15967   6.924   3.313   2.593 -0.0233  0.5007  0.4376
 5023SOL    HW115968   6.964   3.227   2.561 -0.7311  0.1446  0.4868
 5023SOL    HW215969   6.947   3.327   2.689 -1.9459 -0.9080  1.1704
 5024SOL     OW15970   4.668   3.470   6.030 -0.2965 -0.2607 -0.2309
 5024SOL    HW115971   4.713   3.553   6.061 -2.5391  1.4336 -1.2271
 5024SOL    HW215972   4.679   3.398   6.099  0.6738  1.2207  1.2368
 5025SOL     OW15973   6.931   0.176   4.391 -0.2683  0.2655 -0.4563
 5025SOL    HW115974   6.864   0.247   4.412  0.0048  0.2459  0.5220
 5025SOL    HW215975   7.021   0.217   4.382  0.1947 -0.1126  1.7988
 5026SOL     OW15976   3.655   6.727   4.787  0.0991 -0.0600  0.3268
 5026SOL    HW115977   3.645   6.679   4.700 -0.0950  0.5175  0.0250
 5026SOL    HW215978   3.733   6.789   4.781 -1.2129  1.6216 -0.2217
 5027SOL     OW15979   5.772   6.623   0.001  0.1695  0.0687  0.5318
 5027SOL    HW115980   5.786   6.663   0.091 -0.5161  1.4903  0.0275
 5027SOL    HW215981   5.857   6.580  -0.030  0.6898  0.4333  1.4295
 5028SOL     OW15982   0.291   4.304   3.543 -0.2477 -0.0817 -0.1860
 5028SOL    HW115983   0.228   4.245   3.492 -1.1943 -1.6964  2.6024
 5028SOL    HW215984   0.366   4.248   3.579  1.1736  1.2698 -0.9524
 5029SOL     OW15985   5.397   1.446   3.845 -0.0751  0.2752 -0.0184
 5029SOL    HW115986   5.397   1.414   3.750  0.5592  0.9709 -0.2729
 5029SOL    HW215987   5.478   1.411   3.892  0.4979  1.2635 -0.2312
 5030SOL     OW15988   5.645   2.451   0.964 -0.4011  0.5220 -0.0921
 5030SOL    HW115989   5.606   2.465   1.055 -1.9409 -0.5844 -0.5391
 5030SOL    HW215990   5.577   2.473   0.895 -0.8938 -2.9139 -0.8921
 5031SOL     OW15991   5.979   0.430   5.780  0.2002  0.4512  0.5315
 5031SOL    HW115992   5.934   0.421   5.869  0.8214 -3.1430  0.6463
 5031SOL    HW215993   5.950   0.515   5.736 -3.9964  0.0673  2.0575
 5032SOL     OW15994   2.212   2.367   6.435  0.6504  0.0952 -0.0255
 5032SOL    HW115995   2.304   2.345   6.467  0.5222 -0.0431  0.2497
 5032SOL    HW215996   2.174   2.441   6.490  1.8617  2.5012 -2.2222
 5033SOL     OW15997   3.534   6.323   3.021  0.0410  0.7483  0.1554
 5033SOL    HW115998   3.454   6.320   3.082  2.2013  1.0155  3.2580
 5033SOL    HW215999   3.612   6.360   3.072  3.4901 -3.9478 -1.0487
 5034SOL     OW16000   4.581   4.928   4.258 -0.2790 -0.0509  1.2426
 5034SOL    HW116001   4.597   4.980   4.174 -0.6510 -2.9596 -0.8098
 5034SOL    HW216002   4.483   4.923   4.276 -0.1476  1.8020  2.8138
 5035SOL     OW16003   1.889   4.776   4.211 -0.2972 -0.2502 -0.0377
 5035SOL    HW116004   1.918   4.860   4.166  0.7437  0.1225  1.2598
 5035SOL    HW216005   1.938   4.766   4.298 -1.4281 -1.4911  0.4928
 5036SOL     OW16006   1.049   2.138   4.600  0.1791 -0.0250 -0.2478
 5036SOL    HW116007   0.968   2.148   4.658  0.8922  2.4164  0.4165
 5036SOL    HW216008   1.097   2.053   4.624 -0.9382 -0.3564  0.9162
 5037SOL     OW16009   4.565   6.059   1.024 -0.4297  0.0005 -0.5984
 5037SOL    HW116010   4.488   6.032   0.966 -0.3210 -0.3760 -0.5751
 5037SOL    HW216011   4.572   6.158   1.028 -0.1272  0.0250 -1.6442
 5038SOL     OW16012   3.545   3.126   3.164  0.0136 -0.0608 -0.2879
 5038SOL    HW116013   3.627   3.146   3.111 -0.2792 -0.9321 -1.0894
 5038SOL    HW216014   3.493   3.054   3.119 -1.2362  0.5250  0.1716
 5039SOL     OW16015   0.583   2.002   6.866  0.1913  0.7381  0.0217
 5039SOL    HW116016   0.510   1.978   6.802 -0.4857  0.1080  0.9996
 5039SOL    HW216017   0.546   2.061   6.938  0.9729  1.5514 -0.2273
 5040SOL     OW16018   3.611   1.142   5.516 -0.0872 -0.0378 -0.1912
 5040SOL    HW116019   3.682   1.187   5.569 -0.0559  0.4995 -0.6769
 5040SOL    HW216020   3.561   1.079   5.574  0.0582  0.4119  0.4334
 5041SOL     OW16021   6.916   3.026   1.472 -0.0902  0.0825  0.1149
 5041SOL    HW116022   7.007   3.005   1.437 -0.6250 -1.5667 -0.3959
 5041SOL    HW216023   6.922   3.052   1.568  0.8751 -0.5386  0.2339
 5042SOL     OW16024   2.379   1.097   4.347  0.2319 -0.4052  0.1136
 5042SOL    HW116025   2.313   1.167   4.376 -0.0281 -0.9652  0.8780
 5042SOL    HW216026   2.400   1.110   4.250 -0.1801  0.4404  0.1293
 5043SOL     OW16027   2.673   6.752   6.732  0.3722  0.4024 -0.6132
 5043SOL    HW116028   2.609   6.680   6.706 -1.2638  0.6686  2.3144
 5043SOL    HW216029   2.637   6.840   6.702 -0.4443  0.5044  0.6128
 5044SOL     OW16030   0.440   6.978   6.224  0.0483  0.1506 -0.2338
 5044SOL    HW116031   0.452   7.035   6.305  2.1613 -0.6143  0.0348
 5044SOL    HW216032   0.529   6.950   6.189 -0.8966 -1.8446 -1.1913
 5045SOL     OW16033   6.638   1.667   3.525  0.5056 -0.4861 -0.2733
 5045SOL    HW116034   6.724   1.617   3.529 -0.5629 -2.3497  0.8919
 5045SOL    HW216035   6.591   1.660   3.613 -2.0302 -1.7674 -1.6218
 5046SOL     OW16036   3.795   2.985   2.124  0.0871  0.1061 -0.4310
 5046SOL    HW116037   3.807   2.953   2.217  0.7408 -0.1351 -0.5917
 5046SOL    HW216038   3.732   2.925   2.076 -0.9668  0.7585  0.1143
 5047SOL     OW16039   1.347   3.912   4.028 -0.3354  0.3789 -0.0546
 5047SOL    HW116040   1.351   3.885   4.125  1.0252  0.0489 -0.1888
 5047SOL    HW216041   1.252   3.934   4.004 -0.6944  0.4793  1.3512
 5048SOL     OW16042   2.158   5.517   5.247  0.3605 -0.6137  0.2332
 5048SOL    HW116043   2.158   5.420   5.272  0.9904 -0.1879  2.0234
 5048SOL    HW216044   2.081   5.535   5.185 -1.2705 -1.7993  1.7963
 5049SOL     OW16045   3.145   2.135   4.798 -0.0700  0.1513  0.4244
 5049SOL    HW116046   3.225   2.096   4.842  0.5306  0.7461 -0.1032
 5049SOL    HW216047   3.109   2.209   4.855 -0.0475  0.0979  0.5083
 5050SOL     OW16048   1.063   6.730   6.304  0.0051  0.0835  0.2689
 5050SOL    HW116049   1.081   6.826   6.281  0.7705  0.4462  2.2306
 5050SOL    HW216050   0.973   6.704   6.269  0.3255  1.0908 -1.4429
 5051SOL     OW16051   4.446   3.682   0.730 -0.0908 -0.5601 -0.5556
 5051SOL    HW116052   4.472   3.622   0.806 -0.2423 -0.9819 -0.8280
 5051SOL    HW216053   4.374   3.637   0.677 -0.4145 -0.0022 -0.5922
 5052SOL     OW16054   0.034   5.294   2.928  0.0952 -0.4616  0.1487
 5052SOL    HW116055  -0.039   5.357   2.905 -1.0823 -2.0128 -0.5264
 5052SOL    HW216056   0.003   5.200   2.914  3.1518 -1.1889 -3.3144
 5053SOL     OW16057   0.668   0.034   1.391 -0.2899 -0.0862 -0.0434
 5053SOL    HW116058   0.653   0.076   1.302  1.7539  0.7877 -0.0360
 5053SOL    HW216059   0.620   0.088   1.461  0.1047  0.6724 -0.3463
 5054SOL     OW16060   2.971   4.778   3.716  0.1226 -0.0106  0.5339
 5054SOL    HW116061   2.921   4.788   3.802  0.3642 -0.7440  0.7687
 5054SOL    HW216062   2.968   4.683   3.686 -0.6971  0.3898 -0.7299
 5055SOL     OW16063   6.333   4.600   5.311  0.1813  0.2633  0.8902
 5055SOL    HW116064   6.408   4.534   5.305 -0.9198 -1.0372  0.8167
 5055SOL    HW216065   6.354   4.681   5.257  0.0351 -1.5972 -2.1542
 5056SOL     OW16066   5.011   5.553   2.881  0.5000  0.0129 -0.1793
 5056SOL    HW116067   5.051   5.468   2.917  0.3499 -0.9283 -2.1039
 5056SOL    HW216068   4.911   5.548   2.889  0.4494 -0.3188 -0.9127
 5057SOL     OW16069   6.809   4.798   1.254 -0.4940 -0.2632 -0.5061
 5057SOL    HW116070   6.752   4.744   1.316  1.7515 -1.9534  0.2597
 5057SOL    HW216071   6.772   4.792   1.161 -1.7654 -0.9409  0.0183
 5058SOL     OW16072   4.147   5.047   5.360 -0.3195 -0.1111 -0.4162
 5058SOL    HW116073   4.084   5.082   5.290 -0.0169 -1.2573 -1.2831
 5058SOL    HW216074   4.102   4.975   5.413 -0.1021 -0.1548 -0.2908
 5059SOL     OW16075   5.399   5.246   1.662  0.1259  0.3995 -0.1457
 5059SOL    HW116076   5.491   5.270   1.692 -0.4112  2.1691  0.1686
 5059SOL    HW216077   5.362   5.320   1.607 -1.4979  0.1795  0.6041
 5060SOL     OW16078   6.711   0.064   1.199 -0.3387  0.1924 -0.0174
 5060SOL    HW116079   6.716   0.084   1.296  1.6257  1.3907 -0.3110
 5060SOL    HW216080   6.767   0.130   1.148  0.7004 -1.8662 -1.7172
 5061SOL     OW16081   6.452   2.675   6.803  0.5398  0.6444 -0.0572
 5061SOL    HW116082   6.412   2.714   6.887 -1.2554 -0.2451 -0.4374
 5061SOL    HW216083   6.434   2.736   6.727  0.2744  0.4575 -0.1479
 5062SOL     OW16084   6.644   0.971   5.633 -0.2942  0.6004  0.9209
 5062SOL    HW116085   6.701   0.956   5.552 -1.8180  0.4451 -0.1571
 5062SOL    HW216086   6.691   0.935   5.713  0.6881 -0.4651 -0.0821
 5063SOL     OW16087   0.185   1.146   2.326 -0.2484 -0.4369  0.2876
 5063SOL    HW116088   0.166   1.218   2.393  2.0175  1.0344 -0.5527
 5063SOL    HW216089   0.279   1.115   2.337  0.7530  0.9672 -3.1401
 5064SOL     OW16090   4.642   3.104   5.684  0.0736 -0.5671 -0.2280
 5064SOL    HW116091   4.724   3.051   5.705 -0.9491 -2.9391 -1.7830
 5064SOL    HW216092   4.630   3.110   5.585 -0.9590  0.8829 -0.0573
 5065SOL     OW16093   5.088   4.604   5.278  0.4368 -0.1047 -0.5454
 5065SOL    HW116094   5.022   4.680   5.281  0.7804  0.1876 -0.3706
 5065SOL    HW216095   5.083   4.560   5.189  0.0512 -0.0409 -0.5588
 5066SOL     OW16096   6.612   3.257   5.713 -0.2485 -0.6570  1.0823
 5066SOL    HW116097   6.542   3.296   5.654 -2.1691 -1.0183  2.9791
 5066SOL    HW216098   6.615   3.157   5.700 -0.4560 -0.7005  1.3579
 5067SOL     OW16099   5.903   0.785   1.001 -0.1992  0.6541  0.2298
 5067SOL    HW116100   5.922   0.884   1.004 -0.8324  0.7652  0.9550
 5067SOL    HW216101   5.866   0.756   1.090  1.0047 -0.4465  0.4040
 5068SOL     OW16102   3.377   5.538   0.434  0.3636 -0.4392  0.0911
 5068SOL    HW116103   3.381   5.636   0.412 -1.4792 -0.8062 -2.3149
 5068SOL    HW216104   3.321   5.524   0.515 -0.8617  0.4281 -0.5736
 5069SOL     OW16105   6.570   3.833   1.654  0.3034  0.3548  0.1691
 5069SOL    HW116106   6.621   3.760   1.609  0.6950  0.1908  0.8589
 5069SOL    HW216107   6.623   3.918   1.649 -0.6241  0.8777 -1.5723
 5070SOL     OW16108   6.710   2.665   3.256  0.4654  0.1960 -0.3246
 5070SOL    HW116109   6.760   2.637   3.174 -0.2198 -0.5349 -0.4983
 5070SOL    HW216110   6.696   2.585   3.315  0.0732  0.5265  0.0332
 5071SOL     OW16111   4.367   1.082   2.902  0.8035 -0.2516 -0.5521
 5071SOL    HW116112   4.374   1.081   3.001  0.0728  1.4724 -0.4371
 5071SOL    HW216113   4.446   1.129   2.863 -0.1586  1.4338 -0.5719
 5072SOL     OW16114   1.313   3.044   3.832  0.5134 -0.0294 -0.1085
 5072SOL    HW116115   1.407   3.020   3.807  0.3310  0.4843 -1.3298
 5072SOL    HW216116   1.302   3.143   3.830  0.0046 -0.0727  0.2869
 5073SOL     OW16117   5.747   2.021   3.775  0.2116 -0.1820 -0.1053
 5073SOL    HW116118   5.807   2.027   3.695  1.0127  0.2323  0.5193
 5073SOL    HW216119   5.684   1.944   3.763  0.3307 -0.1270 -1.1313
 5074SOL     OW16120   3.423   2.826   5.806 -0.0822 -0.2057  0.5293
 5074SOL    HW116121   3.450   2.730   5.806  2.3513  0.3896  0.1768
 5074SOL    HW216122   3.346   2.840   5.745 -0.0280 -1.8223  0.0610
 5075SOL     OW16123   4.430   0.608   5.469 -0.2819  0.0122  0.3528
 5075SOL    HW116124   4.410   0.641   5.376  0.7401  1.0348  0.4713
 5075SOL    HW216125   4.492   0.530   5.464 -0.1119  0.1567  0.1764
 5076SOL     OW16126   5.643   5.939   0.677  0.3582 -0.8942 -0.4709
 5076SOL    HW116127   5.715   5.923   0.745  1.3435  0.4272 -1.1487
 5076SOL    HW216128   5.627   6.038   0.669  0.6123 -0.9813 -2.5069
 5077SOL     OW16129   6.545   1.490   3.315  0.1627  0.1056  0.0681
 5077SOL    HW116130   6.564   1.538   3.400  0.1493  0.0967  0.0761
 5077SOL    HW216131   6.465   1.431   3.327  0.4292 -0.2386  0.1821
 5078SOL     OW16132   6.926   1.114   5.846  0.2963  0.0125 -0.0066
 5078SOL    HW116133   6.994   1.051   5.883  0.8505  0.8936  0.5034
 5078SOL    HW216134   6.847   1.118   5.908 -0.6104 -1.5967 -0.9766
 5079SOL     OW16135   4.335   4.692   3.256  0.1086  0.5163 -0.7009
 5079SOL    HW116136   4.276   4.731   3.184 -0.5370 -1.1381 -1.1178
 5079SOL    HW216137   4.379   4.609   3.221 -0.0007 -0.1650  0.7324
 5080SOL     OW16138   4.731   6.519   6.362 -0.2925 -0.0281 -0.4774
 5080SOL    HW116139   4.717   6.526   6.461 -0.5288 -0.8065 -0.4515
 5080SOL    HW216140   4.644   6.533   6.315 -0.3078 -0.3363 -0.5410
 5081SOL     OW16141   3.023   3.789   4.502  0.1180  0.0347  0.2349
 5081SOL    HW116142   3.001   3.742   4.588 -0.4675  0.3718  0.2778
 5081SOL    HW216143   2.984   3.737   4.426 -3.6554  2.1218  0.4762
 5082SOL     OW16144   1.406   1.445   5.698 -0.0588 -0.4612  0.1999
 5082SOL    HW116145   1.472   1.429   5.772  0.6203 -0.6054 -0.4218
 5082SOL    HW216146   1.316   1.464   5.737  0.0471 -1.6163  1.0453
 5083SOL     OW16147   0.909   5.181   1.189  0.0778 -0.2318 -0.2752
 5083SOL    HW116148   0.975   5.248   1.153 -0.2329  0.3130  0.1559
 5083SOL    HW216149   0.946   5.089   1.178 -0.0450 -0.1107 -2.1058
 5084SOL     OW16150   6.528   5.315   1.624  0.4541 -0.0622 -0.0006
 5084SOL    HW116151   6.534   5.362   1.713  1.8551 -0.5950  0.2161
 5084SOL    HW216152   6.559   5.377   1.552  0.6713 -0.0842  0.0713
 5085SOL     OW16153   0.520   3.991   1.855 -0.5252 -0.2617  0.0818
 5085SOL    HW116154   0.617   3.969   1.857 -0.9103 -2.1767 -0.6281
 5085SOL    HW216155   0.477   3.959   1.940 -0.9231 -1.5485 -0.5743
 5086SOL     OW16156   0.586   1.349   4.732  0.1726 -0.0062 -0.5816
 5086SOL    HW116157   0.551   1.345   4.825 -0.6370 -1.4608 -0.9105
 5086SOL    HW216158   0.678   1.310   4.729  0.6749  1.1324 -0.2021
 5087SOL     OW16159   5.643   6.311   3.364  0.1110  0.2831 -0.3382
 5087SOL    HW116160   5.688   6.344   3.280  1.5871 -1.4347 -0.2915
 5087SOL    HW216161   5.569   6.249   3.340  1.6117 -1.5588 -0.4412
 5088SOL     OW16162   1.149   0.295   5.483 -0.0583  0.2256  0.3984
 5088SOL    HW116163   1.130   0.334   5.573  0.3406  1.6042 -0.1011
 5088SOL    HW216164   1.130   0.363   5.412  3.8258  0.7663 -0.3192
 5089SOL     OW16165   4.730   1.949   3.978 -0.5000  0.6299 -0.2089
 5089SOL    HW116166   4.642   1.995   3.971 -1.0683 -0.2720  0.6828
 5089SOL    HW216167   4.746   1.923   4.074  0.7539  0.8149 -0.3510
 5090SOL     OW16168   0.551   5.963   0.462  0.0091 -0.1490 -0.5225
 5090SOL    HW116169   0.561   5.910   0.377 -1.4373 -1.1117 -0.1307
 5090SOL    HW216170   0.619   5.934   0.528  0.1620 -0.4763 -0.8221
 5091SOL     OW16171   1.762   0.234   4.560  0.7020  0.6276 -0.0199
 5091SOL    HW116172   1.806   0.147   4.541 -1.8530 -0.5062 -1.2046
 5091SOL    HW216173   1.810   0.307   4.512  2.7817 -0.0954  0.8602
 5092SOL     OW16174   4.617   3.683   1.119  0.3348  0.1291  0.0572
 5092SOL    HW116175   4.690   3.698   1.186  0.2229  0.5595  0.0874
 5092SOL    HW216176   4.633   3.741   1.039 -0.2132  0.5670  0.2578
 5093SOL     OW16177   0.163   6.887   1.997 -0.2118 -0.0751  0.7493
 5093SOL    HW116178   0.101   6.869   1.921  0.4231 -1.3699  0.5148
 5093SOL    HW216179   0.186   6.984   1.999 -1.8985  0.3572  0.5976
 5094SOL     OW16180   6.867   6.187   4.692 -0.2417 -0.3065 -0.1604
 5094SOL    HW116181   6.866   6.285   4.670 -1.1111 -0.3811 -0.4924
 5094SOL    HW216182   6.926   6.172   4.771 -1.5903  0.7837  1.1343
 5095SOL     OW16183   1.884   5.181   4.476 -0.6460  0.6609  0.1409
 5095SOL    HW116184   1.852   5.158   4.385  1.4710  2.2061 -1.0912
 5095SOL    HW216185   1.851   5.113   4.542 -1.6690 -0.8616 -1.8530
 5096SOL     OW16186   4.073   5.909   3.766  0.4423 -0.7335 -0.6534
 5096SOL    HW116187   4.170   5.926   3.788 -0.2698  2.2217  0.8264
 5096SOL    HW216188   4.047   5.966   3.688 -0.8682  1.3103  1.1810
 5097SOL     OW16189   1.213   2.759   0.547  0.4677 -0.3695  0.0507
 5097SOL    HW116190   1.206   2.688   0.478  0.0153 -1.8297  1.5335
 5097SOL    HW216191   1.300   2.750   0.596  1.2799  1.3251 -0.9879
 5098SOL     OW16192   1.762   4.007   5.088  1.0454  0.3918 -0.7397
 5098SOL    HW116193   1.791   4.097   5.121  0.1998  0.4153 -0.0133
 5098SOL    HW216194   1.767   4.005   4.988 -1.2858  2.1403 -1.0077
 5099SOL     OW16195   1.042   1.985   5.542 -0.0698 -0.5766 -0.0860
 5099SOL    HW116196   0.977   1.978   5.617  0.7454 -1.3523  0.5792
 5099SOL    HW216197   0.999   1.954   5.457 -1.9963  3.1316 -0.6484
 5100SOL     OW16198   5.236   4.310   5.059 -0.7615 -0.0329  0.2007
 5100SOL    HW116199   5.172   4.277   4.990  0.3100 -0.6786 -0.5149
 5100SOL    HW216200   5.271   4.400   5.033  0.1283 -0.5520 -0.4572
 5101SOL     OW16201   5.229   0.746   5.785 -0.0087  0.1095 -0.0330
 5101SOL    HW116202   5.161   0.788   5.724 -0.9473  0.8640  1.4873
 5101SOL    HW216203   5.265   0.815   5.848  0.4984 -0.7925  0.6845
 5102SOL     OW16204   3.614   5.688   3.173  0.2792 -0.1276  0.2795
 5102SOL    HW116205   3.666   5.761   3.217 -0.7346  0.6248  0.2474
 5102SOL    HW216206   3.560   5.640   3.242 -0.4525  0.3294  0.0281
 5103SOL     OW16207   1.829   2.671   4.204 -0.0240  0.2678  0.1847
 5103SOL    HW116208   1.803   2.597   4.267  2.1714 -1.3619 -0.6777
 5103SOL    HW216209   1.891   2.734   4.251 -1.3936  1.2489  0.7297
 5104SOL     OW16210   5.693   6.719   0.294  0.4680  0.3189  0.8671
 5104SOL    HW116211   5.721   6.636   0.342  3.0022  0.5504 -0.0908
 5104SOL    HW216212   5.612   6.700   0.239  1.4182 -1.7660  0.0793
 5105SOL     OW16213   1.402   2.425   1.424 -0.0312  0.4547  0.2375
 5105SOL    HW116214   1.403   2.505   1.484  1.0328  0.4799  0.2120
 5105SOL    HW216215   1.475   2.435   1.356  0.0563 -0.4964  0.1858
 5106SOL     OW16216   2.857   6.481   2.743  0.2133  0.2368 -0.0857
 5106SOL    HW116217   2.793   6.406   2.727  1.9612 -0.7301 -3.4297
 5106SOL    HW216218   2.898   6.471   2.834  0.5503 -3.0670 -0.4765
 5107SOL     OW16219   3.106   1.403   6.507 -0.6567 -0.0965  0.1559
 5107SOL    HW116220   3.205   1.409   6.494 -0.7332  0.1579 -0.3328
 5107SOL    HW216221   3.060   1.404   6.418 -1.1305  0.4711  0.3968
 5108SOL     OW16222   3.083   3.855   4.874  0.5589  0.1231  0.0634
 5108SOL    HW116223   3.019   3.867   4.950  0.0086  0.4156 -0.4375
 5108SOL    HW216224   3.063   3.770   4.825 -1.0723  1.3662 -1.5859
 5109SOL     OW16225   0.961   0.874   2.459 -0.0812 -0.3471  0.0633
 5109SOL    HW116226   0.904   0.809   2.409  0.4383 -0.0006 -0.9974
 5109SOL    HW216227   1.022   0.824   2.520 -0.0727 -0.8281 -0.3318
 5110SOL     OW16228   1.447   4.321   6.192  0.2589  0.3210  0.3319
 5110SOL    HW116229   1.467   4.297   6.097 -0.6465 -1.2510  0.5061
 5110SOL    HW216230   1.521   4.290   6.251  0.8323  1.3185  0.1662
 5111SOL     OW16231   1.497   1.102   0.285 -0.5526 -0.1360 -0.1209
 5111SOL    HW116232   1.544   1.183   0.319  0.3318 -0.6593 -0.0653
 5111SOL    HW216233   1.491   1.034   0.358  1.8645 -1.4955 -1.0841
 5112SOL     OW16234   6.460   0.293   3.174 -0.8438 -0.5087 -0.2415
 5112SOL    HW116235   6.418   0.280   3.084 -1.9123  2.7989 -0.3383
 5112SOL    HW216236   6.552   0.253   3.174 -0.9843 -0.9898 -2.6355
 5113SOL     OW16237   0.413   2.781   6.979 -0.1766 -0.2103 -0.0161
 5113SOL    HW116238   0.404   2.714   7.052 -1.7700 -0.2949 -0.2612
 5113SOL    HW216239   0.386   2.740   6.892 -2.8989  1.1567  0.0871
 5114SOL     OW16240   6.133   4.947   5.543  0.2298  0.1709  0.0584
 5114SOL    HW116241   6.169   4.856   5.562  2.8921  1.0339 -0.5380
 5114SOL    HW216242   6.059   4.967   5.607  0.6807 -1.7728  1.2642
 5115SOL     OW16243   3.561   4.072   6.217  0.2058  0.0464  0.1968
 5115SOL    HW116244   3.559   4.133   6.137  0.6485  0.4953  0.5138
 5115SOL    HW216245   3.469   4.062   6.254  0.3214  1.8200  1.0812
 5116SOL     OW16246   5.954   4.325   2.919  0.0616 -0.0268  0.0067
 5116SOL    HW116247   5.861   4.288   2.910 -0.4281  1.0377  0.4423
 5116SOL    HW216248   5.991   4.343   2.828 -0.3247 -0.0733 -0.1637
 5117SOL     OW16249   2.682   5.261   2.906 -0.0934 -0.0282  0.3220
 5117SOL    HW116250   2.687   5.215   2.817 -0.0048 -0.6790  0.6562
 5117SOL    HW216251   2.771   5.252   2.952  0.0946  0.9502  0.1658
 5118SOL     OW16252   5.348   0.512   2.367  0.2264  0.1293  0.0993
 5118SOL    HW116253   5.336   0.497   2.269  1.2674  1.2129 -0.2162
 5118SOL    HW216254   5.434   0.470   2.396 -0.6656 -1.2768  0.8333
 5119SOL     OW16255   0.021   0.660   5.851 -0.1805  0.0853  0.2436
 5119SOL    HW116256   0.048   0.752   5.824 -0.3030 -0.2674 -1.1880
 5119SOL    HW216257  -0.018   0.662   5.943 -1.2651  1.6679 -0.2108
 5120SOL     OW16258   3.146   1.913   0.891  0.6989  0.3325  0.1592
 5120SOL    HW116259   3.131   1.983   0.960 -0.8485 -1.3121  1.5993
 5120SOL    HW216260   3.239   1.877   0.899  0.6400  0.3770  1.2256
 5121SOL     OW16261   1.883   4.033   4.486 -0.4964 -0.4208 -0.3307
 5121SOL    HW116262   1.793   4.068   4.460  0.0053  1.5262  0.3671
 5121SOL    HW216263   1.913   4.077   4.571  0.8961 -1.4215 -0.2573
 5122SOL     OW16264   3.768   5.415   1.946 -0.4564  0.1690 -0.9684
 5122SOL    HW116265   3.749   5.508   1.976 -0.8555  0.3432 -1.7123
 5122SOL    HW216266   3.752   5.408   1.847  0.6930 -0.3979 -1.1380
 5123SOL     OW16267   6.707   2.972   1.055  0.0620  0.4298  0.7230
 5123SOL    HW116268   6.695   2.980   1.154  1.6326  1.2587  0.8952
 5123SOL    HW216269   6.778   2.904   1.036  0.9704  1.4506  0.3004
 5124SOL     OW16270   3.505   5.391   5.947 -0.6770 -0.2578  0.2883
 5124SOL    HW116271   3.460   5.324   5.888 -2.9818  1.3798  0.0197
 5124SOL    HW216272   3.466   5.482   5.930  0.5403  0.7381  2.3790
 5125SOL     OW16273   0.602   0.839   6.779  0.3635  0.6330 -0.1335
 5125SOL    HW116274   0.586   0.838   6.680  0.5629  2.1376 -0.2071
 5125SOL    HW216275   0.699   0.823   6.796  0.2671  0.0013 -0.1513
 5126SOL     OW16276   6.651   0.863   6.117  0.2909  0.3387 -0.5174
 5126SOL    HW116277   6.610   0.822   6.199 -1.9217 -1.2486 -2.2802
 5126SOL    HW216278   6.651   0.962   6.125  0.0907  0.2235  1.3433
 5127SOL     OW16279   5.471   3.460   6.876 -0.4260  0.4864  0.0257
 5127SOL    HW116280   5.410   3.532   6.909 -0.5864  0.4800 -0.2571
 5127SOL    HW216281   5.496   3.479   6.781 -1.2761 -0.3709 -0.3833
 5128SOL     OW16282   1.065   2.197   0.518 -0.5689 -0.6432 -0.7091
 5128SOL    HW116283   1.077   2.253   0.436  2.3091 -0.2715 -0.1410
 5128SOL    HW216284   0.968   2.192   0.540 -1.1068  4.8871 -0.3385
 5129SOL     OW16285   3.852   1.527   3.229  0.8340 -0.8504 -0.4800
 5129SOL    HW116286   3.812   1.438   3.249  0.8974 -1.0094 -1.0335
 5129SOL    HW216287   3.784   1.586   3.186  0.6963 -0.5114  0.1934
 5130SOL     OW16288   0.875   6.551   5.310 -0.2321 -0.2605  0.1726
 5130SOL    HW116289   0.785   6.570   5.351 -1.0656 -2.2415 -0.6532
 5130SOL    HW216290   0.872   6.571   5.212 -0.4175 -2.2128 -0.2522
 5131SOL     OW16291   4.369   6.115   3.084  0.1923  0.0442  0.0098
 5131SOL    HW116292   4.372   6.186   3.155 -2.9835  0.1008  0.2071
 5131SOL    HW216293   4.412   6.150   3.001 -0.2202  1.7774  0.4831
 5132SOL     OW16294   2.970   2.773   0.198 -0.3561 -0.2080 -0.3303
 5132SOL    HW116295   2.904   2.814   0.135 -0.8509 -1.2958 -0.5484
 5132SOL    HW216296   3.031   2.713   0.147  0.3354  0.2234 -0.0158
 5133SOL     OW16297   3.542   3.124   4.665 -0.2963 -0.1901  0.1369
 5133SOL    HW116298   3.461   3.138   4.609 -0.1940 -1.9631 -0.5274
 5133SOL    HW216299   3.520   3.140   4.761 -0.8800  1.3234 -0.2189
 5134SOL     OW16300   6.391   5.702   0.638  0.2452 -0.1866 -0.1000
 5134SOL    HW116301   6.336   5.634   0.591  0.5854 -0.5991  0.0869
 5134SOL    HW216302   6.472   5.724   0.583  0.2169 -0.0476 -0.0873
 5135SOL     OW16303   0.635   2.036   3.801  0.5048  0.0822 -0.1155
 5135SOL    HW116304   0.547   2.072   3.833  0.7725  0.8153 -0.1849
 5135SOL    HW216305   0.672   2.097   3.730  1.5306  0.3198  0.6024
 5136SOL     OW16306   0.596   1.011   4.797  0.0394 -0.0330  0.1035
 5136SOL    HW116307   0.554   0.925   4.827 -1.9723  1.4948  2.0128
 5136SOL    HW216308   0.612   1.069   4.876  0.3047  1.7941 -1.2383
 5137SOL     OW16309   6.014   5.895   3.138  0.1100 -0.2357  0.5466
 5137SOL    HW116310   6.053   5.987   3.139 -0.4149 -0.0146  0.5279
 5137SOL    HW216311   6.039   5.847   3.222  0.0365  0.0619  0.7362
 5138SOL     OW16312   2.921   3.592   2.186  0.6678 -0.1116  0.7919
 5138SOL    HW116313   2.862   3.588   2.105 -0.4728  0.4694  1.5716
 5138SOL    HW216314   2.899   3.674   2.239  2.2929  0.1947  1.0356
 5139SOL     OW16315   4.352   1.619   5.605  0.0020 -0.8552 -0.0793
 5139SOL    HW116316   4.351   1.708   5.561 -0.3065 -0.1589  1.2696
 5139SOL    HW216317   4.262   1.600   5.645  0.6264 -0.8468  1.3857
 5140SOL     OW16318   2.851   3.210   6.594  0.3580 -0.5747  0.2669
 5140SOL    HW116319   2.873   3.177   6.686 -2.0547 -1.1912  0.6956
 5140SOL    HW216320   2.929   3.195   6.533  1.4441 -1.5806  1.8275
 5141SOL     OW16321   6.704   2.349   2.078 -0.4881  0.2372  0.6620
 5141SOL    HW116322   6.668   2.281   2.141 -0.3465 -0.8677 -0.4038
 5141SOL    HW216323   6.630   2.386   2.022 -0.4468  0.3803  0.7012
 5142SOL     OW16324   6.333   5.674   2.427 -0.5771  0.0623  0.4869
 5142SOL    HW116325   6.384   5.652   2.510 -1.3568 -0.6795  0.7816
 5142SOL    HW216326   6.389   5.652   2.347 -0.3203 -0.4742  0.8053
 5143SOL     OW16327   5.852   6.209   2.821  0.0756 -0.0703  0.2290
 5143SOL    HW116328   5.876   6.235   2.915 -1.1046 -2.0789  1.1584
 5143SOL    HW216329   5.755   6.225   2.805  0.9447  4.4857 -2.2720
 5144SOL     OW16330   1.490   1.643   6.016 -0.0395 -0.6047 -0.0917
 5144SOL    HW116331   1.526   1.552   5.995  1.7052 -0.0603  0.4025
 5144SOL    HW216332   1.549   1.712   5.973 -1.3297  0.3036 -0.4464
 5145SOL     OW16333   3.502   6.235   0.967  0.3276  0.9460  0.0614
 5145SOL    HW116334   3.552   6.306   1.018  0.8995  0.1580  0.6196
 5145SOL    HW216335   3.405   6.243   0.986  0.2666  2.1520 -0.6003
 5146SOL     OW16336   6.432   4.635   5.736  0.5542 -0.7343  0.0717
 5146SOL    HW116337   6.360   4.665   5.673  0.1098  0.8341  1.2552
 5146SOL    HW216338   6.515   4.614   5.684 -0.2008 -0.8118 -1.1463
 5147SOL     OW16339   3.540   1.419   4.282  0.1106  0.1599 -0.4806
 5147SOL    HW116340   3.587   1.331   4.291  0.1730  0.2506  0.1666
 5147SOL    HW216341   3.447   1.403   4.248 -0.0735 -0.2182  0.1718
 5148SOL     OW16342   0.907   0.145   0.179  0.1917 -0.1065  0.3684
 5148SOL    HW116343   0.998   0.102   0.182  1.9620  2.9754 -2.6708
 5148SOL    HW216344   0.843   0.083   0.134  1.7638 -0.9200 -0.8529
 5149SOL     OW16345   2.052   0.279   3.669  0.1855 -0.3345 -0.0249
 5149SOL    HW116346   2.147   0.309   3.677  0.5824 -1.1098 -1.4190
 5149SOL    HW216347   1.995   0.355   3.640  0.3770  0.1181  0.7532
 5150SOL     OW16348   6.547   1.675   3.776 -0.1584 -0.4430  0.4650
 5150SOL    HW116349   6.573   1.753   3.833 -0.9765 -0.1461  0.4502
 5150SOL    HW216350   6.447   1.666   3.776 -0.4362  1.1435 -2.9487
 5151SOL     OW16351   4.036   4.567   1.723 -0.5304 -0.2383  0.1225
 5151SOL    HW116352   3.985   4.499   1.670  2.1109 -0.4341 -2.4465
 5151SOL    HW216353   4.132   4.540   1.728  0.0137  1.7410  1.8476
 5152SOL     OW16354   1.944   0.975   1.447 -0.0439  0.3955  0.6628
 5152SOL    HW116355   1.968   0.934   1.535  0.1110  0.3988  0.6228
 5152SOL    HW216356   1.981   0.918   1.373 -1.5310 -0.4870  0.5575
 5153SOL     OW16357   2.418   3.424   0.906 -0.1343  0.1542 -0.3008
 5153SOL    HW116358   2.467   3.366   0.841 -1.3890  0.3739 -1.4922
 5153SOL    HW216359   2.407   3.376   0.993  0.8548 -0.4727 -0.5150
 5154SOL     OW16360   1.268   2.870   5.624  0.7825  0.0551  0.2937
 5154SOL    HW116361   1.296   2.963   5.597 -0.2120  0.3092  0.0713
 5154SOL    HW216362   1.246   2.869   5.721 -0.7263  0.4820 -0.0013
 5155SOL     OW16363   2.653   0.013   6.699  0.3730  0.5510 -0.0667
 5155SOL    HW116364   2.735   0.001   6.754  1.0557 -2.4135 -1.5171
 5155SOL    HW216365   2.677   0.053   6.610 -0.1454  1.7630  0.3131
 5156SOL     OW16366   3.372   4.352   6.695  0.2398 -0.8103 -0.0219
 5156SOL    HW116367   3.369   4.312   6.603 -1.7176 -1.9934  0.5125
 5156SOL    HW216368   3.359   4.280   6.763  1.5249  0.0717  1.2214
 5157SOL     OW16369   2.620   0.323   3.121 -0.2431  0.2939  0.0093
 5157SOL    HW116370   2.561   0.374   3.183 -2.7432 -0.3639 -1.6628
 5157SOL    HW216371   2.685   0.385   3.078 -0.2501  1.2140  1.2720
 5158SOL     OW16372   0.841   1.554   2.649 -1.1402  0.2675  0.2083
 5158SOL    HW116373   0.927   1.522   2.688 -0.7708  0.1038 -0.7343
 5158SOL    HW216374   0.850   1.565   2.550 -1.9624  1.0190  0.1977
 5159SOL     OW16375   4.714   4.329   0.239  0.3644  0.0528 -0.5708
 5159SOL    HW116376   4.749   4.238   0.216  0.7844  0.3206 -1.0380
 5159SOL    HW216377   4.785   4.381   0.286 -0.7465 -0.7532  2.1400
 5160SOL     OW16378   0.087   1.243   1.313  0.1621  0.4503  0.1625
 5160SOL    HW116379   0.026   1.185   1.259  0.6503  0.1452 -0.0682
 5160SOL    HW216380   0.053   1.249   1.407 -0.1502  0.1841  0.0689
 5161SOL     OW16381   0.240   1.402   6.518 -0.5807 -0.3889 -0.3655
 5161SOL    HW116382   0.203   1.313   6.544  0.6491 -0.9590 -0.4572
 5161SOL    HW216383   0.314   1.427   6.581  1.1105 -0.8791 -2.0470
 5162SOL     OW16384   0.064   0.533   0.357 -0.0264  0.2292 -0.2705
 5162SOL    HW116385   0.103   0.508   0.445  2.0473  1.5392 -0.7257
 5162SOL    HW216386  -0.001   0.608   0.368  0.6751  0.7960  0.1186
 5163SOL     OW16387   2.415   2.723   1.718 -0.3035 -0.2013 -0.0409
 5163SOL    HW116388   2.337   2.782   1.696 -0.2679  0.3791  1.2890
 5163SOL    HW216389   2.500   2.768   1.691 -0.3472 -0.2528 -0.2707
 5164SOL     OW16390   3.400   1.920   1.189 -0.4298 -0.2953 -0.1969
 5164SOL    HW116391   3.418   1.989   1.259 -2.5957 -1.4732  1.6958
 5164SOL    HW216392   3.304   1.925   1.161  0.3829  0.1333 -3.1828
 5165SOL     OW16393   0.126   5.897   6.746  0.2050  0.2027  0.0971
 5165SOL    HW116394   0.201   5.831   6.744  0.0770  0.0707 -0.9250
 5165SOL    HW216395   0.109   5.925   6.841 -0.9174 -2.6061  0.8385
 5166SOL     OW16396   1.370   5.672   6.207 -0.3789 -0.7710  0.1641
 5166SOL    HW116397   1.449   5.731   6.198 -1.3887  0.6587  0.2784
 5166SOL    HW216398   1.394   5.578   6.183  0.9475 -0.0821 -1.2810
 5167SOL     OW16399   6.089   4.459   5.180  0.6118 -0.3154 -0.7861
 5167SOL    HW116400   6.171   4.492   5.226  1.0671 -0.9594 -1.1050
 5167SOL    HW216401   6.075   4.510   5.095  0.3490  0.1873 -0.4411
 5168SOL     OW16402   5.098   1.055   5.099 -0.5941 -0.3423 -0.2226
 5168SOL    HW116403   5.131   1.107   5.021  1.6737 -0.7666  0.3783
 5168SOL    HW216404   5.065   1.117   5.170  0.0751  0.1848 -0.3675
 5169SOL     OW16405   0.084   5.284   3.778  0.3902 -0.5750  0.4022
 5169SOL    HW116406   0.029   5.324   3.705 -0.1571  0.4370  1.3311
 5169SOL    HW216407   0.134   5.206   3.743 -1.0694 -1.0803 -0.6694
 5170SOL     OW16408   1.763   3.074   6.839  0.1182 -0.2745  0.5809
 5170SOL    HW116409   1.708   3.008   6.788  1.6071  0.5665 -2.3706
 5170SOL    HW216410   1.715   3.161   6.842 -0.4204 -0.6016  1.5489
 5171SOL     OW16411   1.623   6.632   5.780 -0.1203 -0.2188  0.4440
 5171SOL    HW116412   1.684   6.700   5.738 -1.8159  0.9923 -0.1559
 5171SOL    HW216413   1.592   6.665   5.869 -0.8093 -0.2778  0.2311
 5172SOL     OW16414   6.409   6.925   5.583  0.1284  0.6213  0.1573
 5172SOL    HW116415   6.357   7.000   5.624 -0.3087 -0.2139  1.1942
 5172SOL    HW216416   6.502   6.955   5.564 -0.2953  1.6940 -0.3249
 5173SOL     OW16417   4.754   5.282   3.188  0.1910  0.2404  0.5603
 5173SOL    HW116418   4.759   5.309   3.092  0.1527  2.7293  1.1857
 5173SOL    HW216419   4.830   5.322   3.239 -0.4006 -0.0939  1.7641
 5174SOL     OW16420   5.628   5.090   3.235 -0.5589 -0.0423 -0.1076
 5174SOL    HW116421   5.557   5.021   3.219  0.2278 -0.5708 -1.4621
 5174SOL    HW216422   5.696   5.055   3.298  0.2406 -0.8389 -1.3693
 5175SOL     OW16423   3.625   1.253   1.591  0.8073 -0.1732  0.1849
 5175SOL    HW116424   3.661   1.170   1.632 -0.8856 -0.3115  1.5198
 5175SOL    HW216425   3.617   1.241   1.492  1.8775 -1.0692  0.1928
 5176SOL     OW16426   6.061   6.016   4.595  0.0091 -0.5970 -0.1616
 5176SOL    HW116427   6.113   6.008   4.680 -1.2702  0.1268  0.7420
 5176SOL    HW216428   6.074   6.108   4.557 -3.6913  1.2397  2.3463
 5177SOL     OW16429   3.949   4.761   0.949 -0.1877  0.1201 -0.1208
 5177SOL    HW116430   3.948   4.696   0.874 -0.1505 -1.0694  0.8802
 5177SOL    HW216431   4.005   4.725   1.024  0.2434  1.5285  0.2734
 5178SOL     OW16432   0.875   2.292   2.916  0.1298  0.0126  0.1715
 5178SOL    HW116433   0.851   2.359   2.986 -1.1980  1.5202 -1.6175
 5178SOL    HW216434   0.821   2.310   2.833  1.5525 -1.7555 -1.2177
 5179SOL     OW16435   3.513   5.401   3.135 -0.3780  0.1891 -0.0813
 5179SOL    HW116436   3.590   5.354   3.091 -0.8153  0.9553 -1.7229
 5179SOL    HW216437   3.517   5.498   3.113 -1.1715  0.4266  0.7961
 5180SOL     OW16438   3.392   5.390   2.792 -0.3488 -0.0687  0.7635
 5180SOL    HW116439   3.305   5.382   2.841 -1.6353  0.5166 -1.3199
 5180SOL    HW216440   3.390   5.471   2.734  1.2228 -0.5908 -0.0609
 5181SOL     OW16441   0.451   1.222   5.716  0.1341 -0.0595 -0.0671
 5181SOL    HW116442   0.447   1.128   5.682  0.4676  0.7292 -2.4246
 5181SOL    HW216443   0.402   1.283   5.654  1.7241  1.6492  0.2458
 5182SOL     OW16444   1.835   6.814   4.051 -0.5194  0.0340  0.3262
 5182SOL    HW116445   1.903   6.879   4.087  1.0072 -0.8888 -0.7738
 5182SOL    HW216446   1.810   6.750   4.124 -0.5557  0.6391  0.8648
 5183SOL     OW16447   4.730   1.563   3.447  0.3123  0.1291  0.0671
 5183SOL    HW116448   4.717   1.662   3.452  0.3747  0.1166  0.4784
 5183SOL    HW216449   4.669   1.525   3.378 -0.5898  0.2986  0.7608
 5184SOL     OW16450   3.538   0.852   1.316  0.0172  0.0688  0.0580
 5184SOL    HW116451   3.573   0.926   1.258 -0.8163  0.7377  0.3896
 5184SOL    HW216452   3.544   0.879   1.412  0.8814 -0.8162  0.2669
 5185SOL     OW16453   5.343   6.350   1.287  0.8766  0.4252 -0.4051
 5185SOL    HW116454   5.360   6.254   1.309 -2.5264 -0.0887  0.4501
 5185SOL    HW216455   5.360   6.406   1.368  0.1970  0.1653 -0.0792
 5186SOL     OW16456   6.714   3.266   0.644  0.6960  0.2395 -0.1211
 5186SOL    HW116457   6.772   3.289   0.567 -0.7187  0.9747 -1.0173
 5186SOL    HW216458   6.738   3.323   0.722  1.8200 -0.1751 -0.1441
 5187SOL     OW16459   3.060   3.207   6.371  0.5805 -0.4779 -0.1653
 5187SOL    HW116460   3.153   3.180   6.396  0.0596 -1.6808  0.5396
 5187SOL    HW216461   3.045   3.192   6.273  1.0928 -0.3320 -0.2697
 5188SOL     OW16462   5.820   0.106   2.424 -0.2627  0.0129  0.1008
 5188SOL    HW116463   5.901   0.046   2.424 -0.9690 -0.9914  2.0431
 5188SOL    HW216464   5.847   0.197   2.452  0.3893  0.0116 -0.4737
 5189SOL     OW16465   6.271   4.451   3.785 -0.0158 -0.4778 -0.3645
 5189SOL    HW116466   6.292   4.362   3.745 -0.1802 -1.3707  1.4457
 5189SOL    HW216467   6.351   4.487   3.832 -0.0069  0.2615 -0.9231
 5190SOL     OW16468   6.699   5.110   1.596 -0.2572  0.1671 -0.1338
 5190SOL    HW116469   6.655   5.200   1.600 -0.7218  0.3160 -4.2288
 5190SOL    HW216470   6.798   5.122   1.587 -0.2734  0.2341 -0.2210
 5191SOL     OW16471   1.582   3.651   0.635 -0.0190 -0.2864 -0.0530
 5191SOL    HW116472   1.490   3.677   0.664 -1.3241 -2.3044 -2.0611
 5191SOL    HW216473   1.618   3.718   0.570 -0.9863 -0.5595 -0.8888
 5192SOL     OW16474   0.871   4.307   1.850  0.1796 -0.2001 -0.3604
 5192SOL    HW116475   0.940   4.371   1.885 -0.1861  0.0909 -0.1721
 5192SOL    HW216476   0.892   4.215   1.884  0.0266  0.0240  0.3555
 5193SOL     OW16477   3.506   0.495   5.893 -0.3963 -0.0920  0.0222
 5193SOL    HW116478   3.550   0.521   5.979 -2.7552  1.6547  0.7805
 5193SOL    HW216479   3.557   0.533   5.816  0.3806  0.3903  0.7666
 5194SOL     OW16480   5.492   0.962   6.484  0.8533  0.0687 -0.6052
 5194SOL    HW116481   5.563   0.950   6.553  1.0588  1.1114 -0.6118
 5194SOL    HW216482   5.499   0.889   6.416  1.2380 -0.4378 -0.0344
 5195SOL     OW16483   2.625   0.738   4.261  0.1145  0.1748 -0.1886
 5195SOL    HW116484   2.598   0.642   4.268  3.1667 -0.6641  1.6750
 5195SOL    HW216485   2.646   0.774   4.352 -0.5318  2.5257 -0.8970
 5196SOL     OW16486   5.931   0.338   2.507 -0.6654  0.1864  0.2188
 5196SOL    HW116487   5.968   0.428   2.482 -2.9284  1.7187  1.9357
 5196SOL    HW216488   5.979   0.304   2.587  0.3736 -0.2923 -0.5894
 5197SOL     OW16489   2.314   1.618   7.019  0.6436 -0.6982 -0.1703
 5197SOL    HW116490   2.368   1.641   7.100  0.2702 -0.0972 -0.0831
 5197SOL    HW216491   2.283   1.703   6.974 -0.9547 -1.0060  0.2752
 5198SOL     OW16492   4.419   6.395   4.757  0.8172 -0.1418  0.3001
 5198SOL    HW116493   4.477   6.473   4.778  0.3500  0.1354  0.5851
 5198SOL    HW216494   4.432   6.368   4.662  1.6616 -0.3039  0.4584
 5199SOL     OW16495   0.091   5.103   0.768 -0.2422  0.5261  0.1046
 5199SOL    HW116496  -0.008   5.118   0.758 -0.4633 -1.3528 -1.1655
 5199SOL    HW216497   0.140   5.170   0.713 -0.8834  0.5284 -0.4850
 5200SOL     OW16498   0.044   3.945   0.006 -0.4255  0.6847 -0.6440
 5200SOL    HW116499   0.109   4.018  -0.012 -0.4266  0.7098 -0.5471
 5200SOL    HW216500  -0.015   3.970   0.083 -1.3815  1.2032 -1.5184
 5201SOL     OW16501   2.477   3.956   5.423 -0.0303  0.0035  0.0516
 5201SOL    HW116502   2.449   3.861   5.438  1.4801 -0.5133 -0.2095
 5201SOL    HW216503   2.479   3.974   5.324  3.2505 -0.8966 -0.1424
 5202SOL     OW16504   1.380   4.788   1.279 -0.0207 -0.1059 -0.2165
 5202SOL    HW116505   1.400   4.691   1.293  1.3634  0.3352  1.1878
 5202SOL    HW216506   1.320   4.799   1.200  0.6399 -2.0125 -1.0283
 5203SOL     OW16507   1.225   4.309   1.693 -0.1307 -0.0902  0.2712
 5203SOL    HW116508   1.176   4.336   1.775 -1.0876  1.4804 -0.7581
 5203SOL    HW216509   1.324   4.319   1.708 -0.3700  2.8652  0.4074
 5204SOL     OW16510   4.456   5.049   5.204  0.2580 -0.1335  0.1510
 5204SOL    HW116511   4.411   5.021   5.120 -0.7974 -0.0764  0.6871
 5204SOL    HW216512   4.531   5.112   5.183  0.1359 -0.2826 -0.7471
 5205SOL     OW16513   3.114   6.759   5.846  0.3225  0.3305 -0.1459
 5205SOL    HW116514   3.152   6.841   5.887 -1.4470  0.8758  0.4870
 5205SOL    HW216515   3.133   6.758   5.748  1.5883  0.7549  0.0848
 5206SOL     OW16516   5.696   3.705   6.253 -0.0493  0.4778  0.6991
 5206SOL    HW116517   5.784   3.671   6.222 -0.1275  1.3554 -0.5416
 5206SOL    HW216518   5.708   3.762   6.334  0.8934  2.8005 -0.9950
 5207SOL     OW16519   6.846   6.148   2.145 -0.0351  0.1757 -0.0997
 5207SOL    HW116520   6.825   6.086   2.069  1.9534 -1.7319  0.8074
 5207SOL    HW216521   6.929   6.199   2.124  0.7009 -0.5845  0.8807
 5208SOL     OW16522   3.607   0.363   1.701  0.4503 -0.4529 -0.0263
 5208SOL    HW116523   3.525   0.381   1.646  0.3673 -0.4188  0.1064
 5208SOL    HW216524   3.664   0.445   1.702  0.3212 -0.3636  0.1569
 5209SOL     OW16525   5.236   3.739   3.800 -0.4299 -0.0033 -0.0296
 5209SOL    HW116526   5.139   3.723   3.816 -0.6437  1.2133 -0.0175
 5209SOL    HW216527   5.254   3.838   3.796  0.8550 -0.1988  0.2819
 5210SOL     OW16528   5.832   4.681   3.606 -0.5024  0.2889  0.3218
 5210SOL    HW116529   5.875   4.757   3.557  1.1934 -0.6783  0.2263
 5210SOL    HW216530   5.810   4.710   3.699  1.9822  0.3669  0.9457
 5211SOL     OW16531   2.038   3.996   0.748  0.7979  0.3891 -0.1700
 5211SOL    HW116532   2.039   4.047   0.662 -1.3773 -1.5561 -1.4494
 5211SOL    HW216533   2.098   3.916   0.740 -0.7229 -0.7569 -0.5872
 5212SOL     OW16534   6.553   0.250   0.166 -0.2891  0.1906 -0.4797
 5212SOL    HW116535   6.610   0.317   0.214 -0.9638 -0.1000  0.7717
 5212SOL    HW216536   6.589   0.158   0.180  0.5391  0.2557 -2.0582
 5213SOL     OW16537   0.984   1.160   5.835 -0.2629  0.3101 -0.4862
 5213SOL    HW116538   1.055   1.092   5.847  0.1955  0.1658 -3.2238
 5213SOL    HW216539   0.900   1.131   5.881  0.8142 -0.5061  1.0356
 5214SOL     OW16540   3.674   0.029   1.401 -0.6581 -0.1918  0.3851
 5214SOL    HW116541   3.742  -0.041   1.425 -1.1120 -0.7124  0.1955
 5214SOL    HW216542   3.652   0.083   1.482 -1.2029 -1.0783  0.8466
 5215SOL     OW16543   0.696   5.699   4.225  0.2571  0.2052  0.1031
 5215SOL    HW116544   0.637   5.756   4.168  0.7935  0.6405 -0.0283
 5215SOL    HW216545   0.778   5.675   4.174 -0.9038 -2.5467 -0.6683
 5216SOL     OW16546   3.287   0.241   0.794  0.1001 -0.0326  0.2195
 5216SOL    HW116547   3.386   0.238   0.811  0.0659 -1.7194  0.2957
 5216SOL    HW216548   3.240   0.185   0.862 -0.4740 -3.1599 -2.5313
 5217SOL     OW16549   3.155   5.972   3.107 -0.3076  0.2637  0.4732
 5217SOL    HW116550   3.148   5.923   3.021  0.3912  0.8567  0.0681
 5217SOL    HW216551   3.093   5.931   3.174 -1.8147  0.5884 -0.6754
 5218SOL     OW16552   0.306   6.925   4.066  0.2752  0.2916 -0.6268
 5218SOL    HW116553   0.399   6.949   4.036  0.2096  0.6246 -0.5664
 5218SOL    HW216554   0.303   6.920   4.165  0.5785 -1.1717 -0.6730
 5219SOL     OW16555   2.782   0.593   0.903  0.5522  0.2675  0.0401
 5219SOL    HW116556   2.844   0.515   0.907  1.0646  0.6609 -0.0633
 5219SOL    HW216557   2.831   0.676   0.931  0.0854  0.5899 -0.0822
 5220SOL     OW16558   0.218   6.165   3.194 -0.8309 -0.1169 -0.2723
 5220SOL    HW116559   0.164   6.234   3.144 -0.9376  0.1386  0.1887
 5220SOL    HW216560   0.214   6.185   3.292 -1.1750 -1.0111 -0.1019
 5221SOL     OW16561   3.169   1.081   6.648  0.8007  0.1916 -0.1964
 5221SOL    HW116562   3.141   1.029   6.729  0.9558 -0.0368 -0.2890
 5221SOL    HW216563   3.131   1.173   6.654 -1.7835 -0.6954 -1.3295
 5222SOL     OW16564   4.882   4.924   0.047  0.9134 -0.0535 -0.5360
 5222SOL    HW116565   4.890   5.013   0.002  0.6512  0.6342  0.7176
 5222SOL    HW216566   4.971   4.895   0.081  0.5859  1.0473  1.4044
 5223SOL     OW16567   4.512   1.291   2.093 -0.3043  0.4450  0.5843
 5223SOL    HW116568   4.483   1.196   2.097 -2.5937  1.0689  0.3401
 5223SOL    HW216569   4.569   1.306   2.012 -3.5820  0.1115 -1.9862
 5224SOL     OW16570   6.270   0.414   4.417 -0.0063  0.1451 -0.1428
 5224SOL    HW116571   6.352   0.373   4.457 -0.7499  0.9118  2.4125
 5224SOL    HW216572   6.194   0.348   4.423 -0.2722  0.4852  0.3537
 5225SOL     OW16573   0.118   6.750   6.426  0.6566 -0.1521  0.0802
 5225SOL    HW116574   0.104   6.682   6.498  0.7597 -0.4392 -0.1688
 5225SOL    HW216575   0.181   6.713   6.357  0.4159  0.0498 -0.2483
 5226SOL     OW16576   1.490   0.888   3.871  0.3205  0.2284 -0.2079
 5226SOL    HW116577   1.507   0.885   3.970 -1.4765 -0.0195  0.1377
 5226SOL    HW216578   1.475   0.982   3.842  2.2270  0.4623 -0.5389
 5227SOL     OW16579   6.652   4.215   3.872  0.1536  0.1763  0.1152
 5227SOL    HW116580   6.746   4.223   3.904  0.2634 -1.3321  0.2633
 5227SOL    HW216581   6.624   4.119   3.874 -0.9254  0.4245 -1.2450
 5228SOL     OW16582   6.555   4.948   3.600  0.2939  0.9784 -0.3743
 5228SOL    HW116583   6.496   4.910   3.529 -1.5978  2.6796  0.1890
 5228SOL    HW216584   6.644   4.902   3.597 -0.7373 -1.1053 -1.8085
 5229SOL     OW16585   5.980   5.529   4.011 -0.4119 -0.0638  0.0183
 5229SOL    HW116586   6.014   5.455   3.953 -0.4618 -0.1657  0.1194
 5229SOL    HW216587   5.882   5.518   4.026 -0.6847  0.7928 -1.0991
 5230SOL     OW16588   0.503   3.112   0.465 -0.3399  0.1496  0.3360
 5230SOL    HW116589   0.403   3.120   0.474 -0.2076  0.2073  2.0059
 5230SOL    HW216590   0.534   3.170   0.389 -1.5042  0.6231  0.1968
 5231SOL     OW16591   3.527   4.181   4.033  0.0540  0.2498  0.2868
 5231SOL    HW116592   3.520   4.280   4.041 -0.4406  0.0727  2.5229
 5231SOL    HW216593   3.623   4.154   4.039  0.4090  0.6747 -2.3091
 5232SOL     OW16594   4.744   1.544   4.528  0.8733  0.9141 -0.3589
 5232SOL    HW116595   4.839   1.564   4.551  0.3807  3.2068 -0.0708
 5232SOL    HW216596   4.685   1.568   4.605  0.0353 -0.3413 -0.5844
 5233SOL     OW16597   0.953   0.084   1.834 -0.0537 -0.1301 -0.2755
 5233SOL    HW116598   1.038   0.093   1.887 -0.3949 -3.2300  1.0295
 5233SOL    HW216599   0.973   0.096   1.737  1.8734 -0.5938  0.0171
 5234SOL     OW16600   3.346   4.005   2.968  0.0019  0.2580 -0.3755
 5234SOL    HW116601   3.371   4.016   3.064 -0.4509  0.5986 -0.2917
 5234SOL    HW216602   3.258   3.959   2.961  1.4960 -2.8204 -0.7092
 5235SOL     OW16603   2.953   0.257   1.771 -0.1987 -0.2534 -0.3252
 5235SOL    HW116604   2.971   0.271   1.869 -1.3916 -2.6391  0.3181
 5235SOL    HW216605   3.025   0.200   1.732  0.1158  0.4487 -0.7839
 5236SOL     OW16606   6.953   0.854   1.125 -0.5533 -0.4259  0.4655
 5236SOL    HW116607   6.907   0.931   1.169  0.3514  1.4479 -1.6451
 5236SOL    HW216608   6.886   0.799   1.076 -1.0895 -0.4136  1.1622
 5237SOL     OW16609   0.471   2.543   2.640 -0.7249  0.7790 -0.2170
 5237SOL    HW116610   0.381   2.577   2.669 -1.0457  0.5144 -0.8872
 5237SOL    HW216611   0.542   2.583   2.699 -1.3955 -0.1155  1.2694
 5238SOL     OW16612   0.883   2.313   2.181 -0.5489 -0.3318  0.1215
 5238SOL    HW116613   0.817   2.371   2.229  1.1425  0.7769  1.2177
 5238SOL    HW216614   0.861   2.310   2.084 -1.3031  1.3080  0.2151
 5239SOL     OW16615   4.862   2.788   5.370  0.4631  0.0138 -0.3596
 5239SOL    HW116616   4.941   2.845   5.391 -0.7807  1.3558  0.8272
 5239SOL    HW216617   4.888   2.691   5.378  1.2123  0.3801  3.3697
 5240SOL     OW16618   3.899   1.630   2.848 -0.3719 -0.1274 -0.0350
 5240SOL    HW116619   3.836   1.572   2.795 -0.5575  0.0570 -0.0138
 5240SOL    HW216620   3.848   1.680   2.917 -0.2578  0.3124 -0.2694
 5241SOL     OW16621   4.258   7.020   3.332 -0.1804  0.2600 -0.1317
 5241SOL    HW116622   4.334   7.043   3.271 -1.0945 -0.4036 -1.5647
 5241SOL    HW216623   4.248   6.921   3.337 -1.3293  0.3503 -0.4481
 5242SOL     OW16624   1.921   0.392   6.194  0.4777  0.3310  0.0552
 5242SOL    HW116625   1.885   0.421   6.105 -0.8810 -0.4503  0.3212
 5242SOL    HW216626   1.995   0.453   6.221  1.3817  0.1962 -1.9136
 5243SOL     OW16627   0.852   2.971   5.198  0.6946 -0.1356 -0.2683
 5243SOL    HW116628   0.781   3.038   5.218  1.6235  0.6936  0.3551
 5243SOL    HW216629   0.864   2.910   5.277  2.0678  1.0481  0.5139
 5244SOL     OW16630   5.209   2.241   6.682 -0.1865 -0.1053  0.2544
 5244SOL    HW116631   5.117   2.264   6.649  0.1672  2.0011  0.5669
 5244SOL    HW216632   5.277   2.273   6.615  0.3912  0.8654  1.2557
 5245SOL     OW16633   3.070   4.506   1.106  0.2375 -0.2037  0.3399
 5245SOL    HW116634   3.048   4.476   1.013 -2.0816 -2.8577  1.5845
 5245SOL    HW216635   3.046   4.603   1.117  0.1021  0.0266 -1.6515
 5246SOL     OW16636   0.897   3.618   4.672 -1.1366  0.3723  0.0538
 5246SOL    HW116637   0.887   3.532   4.723  0.3770  0.4662  0.5826
 5246SOL    HW216638   0.930   3.598   4.580  1.2233  0.4088  0.8054
 5247SOL     OW16639   0.136   3.699   6.374  0.3691 -0.0204 -0.2094
 5247SOL    HW116640   0.061   3.739   6.427  0.2321 -0.2849 -0.2042
 5247SOL    HW216641   0.197   3.649   6.435 -0.1833 -0.9372 -0.3928
 5248SOL     OW16642   6.313   1.192   0.105 -0.3733  0.3870  0.0909
 5248SOL    HW116643   6.318   1.098   0.140 -0.4533  0.7717  1.1558
 5248SOL    HW216644   6.315   1.256   0.181  1.2381  1.3261 -0.6971
 5249SOL     OW16645   1.807   3.822   6.237  0.0438  0.0241  0.1487
 5249SOL    HW116646   1.764   3.773   6.162 -0.1083  1.8378 -0.9810
 5249SOL    HW216647   1.895   3.779   6.258  0.7062  0.2611 -1.9530
 5250SOL     OW16648   0.652   3.443   6.412  0.3003  0.1238  0.3031
 5250SOL    HW116649   0.586   3.368   6.401 -0.7573  1.2349 -1.5053
 5250SOL    HW216650   0.652   3.498   6.329  0.7157  2.4001  1.7455
 5251SOL     OW16651   0.063   1.207   2.088  0.0619 -0.1687 -0.3414
 5251SOL    HW116652   0.088   1.303   2.077  3.0364 -0.7723  0.3564
 5251SOL    HW216653   0.116   1.167   2.162 -2.0783 -2.0754  0.2717
 5252SOL     OW16654   4.279   6.289   2.402 -0.5072  0.3764  0.3801
 5252SOL    HW116655   4.320   6.311   2.313 -0.5581  1.0596  0.5185
 5252SOL    HW216656   4.201   6.228   2.388  0.0518 -0.2790  0.0444
 5253SOL     OW16657   6.197   3.421   3.598 -0.3110 -0.8129  0.2249
 5253SOL    HW116658   6.262   3.496   3.604 -1.3393  0.0133  1.3207
 5253SOL    HW216659   6.141   3.431   3.515 -0.9189  0.0420  0.7256
 5254SOL     OW16660   6.652   1.030   4.921 -0.6859 -0.3041 -0.1588
 5254SOL    HW116661   6.632   0.939   4.883 -0.0147 -1.0500  1.2039
 5254SOL    HW216662   6.593   1.046   5.000 -1.6023  0.9489 -1.0719
 5255SOL     OW16663   2.688   3.352   1.805  0.0274 -0.2436 -0.1499
 5255SOL    HW116664   2.608   3.357   1.864  1.7452 -1.6847  2.5046
 5255SOL    HW216665   2.759   3.412   1.841  0.2379  1.0206 -2.4558
 5256SOL     OW16666   5.392   6.804   2.280  0.3789 -0.5007 -0.2607
 5256SOL    HW116667   5.365   6.708   2.288  0.6799 -0.5760 -0.1383
 5256SOL    HW216668   5.436   6.833   2.365 -2.3310  0.6011  0.9014
 5257SOL     OW16669   2.893   6.710   1.504  0.1314  0.1990 -0.2724
 5257SOL    HW116670   2.839   6.740   1.425 -0.7086 -1.6715 -0.4453
 5257SOL    HW216671   2.934   6.790   1.548  0.0047  1.3499 -2.1434
 5258SOL     OW16672   3.801   1.766   2.010  0.0766 -0.2538  0.3909
 5258SOL    HW116673   3.828   1.716   2.092 -2.5363  0.0003  1.5218
 5258SOL    HW216674   3.874   1.829   1.983  1.1056 -0.5104  2.3973
 5259SOL     OW16675   6.046   5.512   1.346  0.3481  0.4692 -0.5333
 5259SOL    HW116676   6.091   5.448   1.408 -1.1154 -0.4950 -0.4100
 5259SOL    HW216677   6.056   5.480   1.252 -0.9415 -0.3415 -0.4182
 5260SOL     OW16678   5.511   2.510   2.028  0.1975  0.3309 -0.1958
 5260SOL    HW116679   5.542   2.602   2.055 -0.3111  0.4596 -0.0325
 5260SOL    HW216680   5.467   2.516   1.939  2.0460 -0.1266 -1.1812
 5261SOL     OW16681   2.210   3.533   5.824 -0.3285 -0.3612 -0.2775
 5261SOL    HW116682   2.295   3.582   5.802 -1.1787  2.0221  1.3324
 5261SOL    HW216683   2.166   3.503   5.739  1.6683 -0.9104 -1.1781
 5262SOL     OW16684   1.282   0.448   2.828  0.0851 -0.2600 -0.2288
 5262SOL    HW116685   1.220   0.474   2.755  1.5399  0.2220 -1.3367
 5262SOL    HW216686   1.269   0.351   2.849 -0.6963 -0.2798 -0.7601
 5263SOL     OW16687   0.460   0.763   0.242 -0.5103  0.1835  0.3067
 5263SOL    HW116688   0.507   0.839   0.287 -0.7776 -0.0120  0.9277
 5263SOL    HW216689   0.481   0.678   0.290 -2.7136  0.2937  1.5792
 5264SOL     OW16690   1.243   0.342   0.341  0.3557 -0.0880  0.6064
 5264SOL    HW116691   1.259   0.426   0.289 -0.7905 -0.9044 -1.1757
 5264SOL    HW216692   1.327   0.289   0.347  0.1864 -0.7254 -1.8722
 5265SOL     OW16693   3.649   5.484   3.488  0.2432  0.1221 -0.5370
 5265SOL    HW116694   3.735   5.524   3.456  0.2290  0.1317 -0.5633
 5265SOL    HW216695   3.655   5.385   3.487  0.7485  0.1215  0.8083
 5266SOL     OW16696   6.560   6.325   1.824  0.0806 -0.0547 -0.0198
 5266SOL    HW116697   6.545   6.416   1.863 -1.0623 -1.1594  2.2999
 5266SOL    HW216698   6.653   6.295   1.843 -0.6941 -0.9306  2.8965
 5267SOL     OW16699   4.140   3.500   4.404 -0.2140  0.4191 -0.2559
 5267SOL    HW116700   4.130   3.554   4.320 -0.7402  0.4785 -0.1590
 5267SOL    HW216701   4.122   3.557   4.483 -2.4778 -0.2531 -0.2113
 5268SOL     OW16702   6.185   3.155   5.458 -0.0833  0.1309 -0.5709
 5268SOL    HW116703   6.123   3.221   5.501 -0.2611 -0.4312  0.0470
 5268SOL    HW216704   6.171   3.065   5.498  0.0632 -0.3220 -1.5155
 5269SOL     OW16705   3.648   6.056   3.930 -0.3056  0.2258 -0.1817
 5269SOL    HW116706   3.745   6.078   3.932 -0.0539 -0.6892 -1.3574
 5269SOL    HW216707   3.619   6.028   4.022  0.3813  1.1102  0.3168
 5270SOL     OW16708   5.716   2.080   2.082  0.3177 -0.8570  0.4318
 5270SOL    HW116709   5.743   2.008   2.018 -1.8040 -1.6911  0.4011
 5270SOL    HW216710   5.752   2.059   2.173  0.8048 -1.2400  0.1557
 5271SOL     OW16711   5.893   2.612   2.931  0.2890 -0.6247  0.2920
 5271SOL    HW116712   5.825   2.653   2.991  0.0958 -0.0336 -0.3185
 5271SOL    HW216713   5.848   2.564   2.856  0.5052  1.0404 -0.9712
 5272SOL     OW16714   2.174   1.956   3.414 -0.1321  0.2484  0.6084
 5272SOL    HW116715   2.208   2.028   3.474 -1.4398  0.5770  0.9992
 5272SOL    HW216716   2.250   1.914   3.365  0.7327  1.3505  0.9744
 5273SOL     OW16717   0.098   2.528   5.086  0.3175  0.2861  0.3645
 5273SOL    HW116718   0.182   2.493   5.127 -0.6276 -0.9628  1.3018
 5273SOL    HW216719   0.074   2.615   5.129  0.5866  0.1401  0.8178
 5274SOL     OW16720   2.121   5.044   3.402 -0.3420  0.1511 -0.3080
 5274SOL    HW116721   2.096   4.964   3.348 -0.5246 -1.5693  2.1613
 5274SOL    HW216722   2.219   5.040   3.424 -0.7475 -0.6117  1.5764
 5275SOL     OW16723   1.107   5.454   6.329  0.6231  0.2082  0.5655
 5275SOL    HW116724   1.100   5.474   6.231 -1.3015 -0.1475  0.5892
 5275SOL    HW216725   1.094   5.538   6.381  0.7837  0.2600  0.5206
 5276SOL     OW16726   0.890   2.305   0.771 -0.7274 -0.1952 -0.5230
 5276SOL    HW116727   0.973   2.291   0.825 -0.5192 -0.6953 -0.9590
 5276SOL    HW216728   0.857   2.399   0.784  1.3951  0.9026 -2.3523
 5277SOL     OW16729   1.143   1.337   2.175 -0.0872 -0.4512  0.3187
 5277SOL    HW116730   1.052   1.318   2.138  0.3020 -0.5101 -0.6429
 5277SOL    HW216731   1.163   1.435   2.165 -0.7933 -0.0652  2.2927
 5278SOL     OW16732   6.501   4.836   5.438 -0.2456  0.0090  0.2110
 5278SOL    HW116733   6.490   4.840   5.339  3.2242  0.7822 -0.2726
 5278SOL    HW216734   6.539   4.747   5.464  0.3863  0.3914  0.6185
 5279SOL     OW16735   3.444   6.198   6.708  0.2445 -0.3108  1.2136
 5279SOL    HW116736   3.380   6.171   6.780  1.3491 -2.8682  1.3294
 5279SOL    HW216737   3.527   6.236   6.750 -0.1999  0.7844  1.1417
 5280SOL     OW16738   3.530   0.101   5.635  0.3077 -0.6102  0.0662
 5280SOL    HW116739   3.564   0.192   5.613 -1.9217  0.3700  0.4383
 5280SOL    HW216740   3.562   0.074   5.725  2.1435 -0.8419 -0.6155
 5281SOL     OW16741   2.302   5.942   5.326 -0.5944  0.4508 -0.2323
 5281SOL    HW116742   2.260   5.853   5.314 -0.0542  0.2442 -0.6318
 5281SOL    HW216743   2.374   5.955   5.257  1.8104 -0.2895  1.9836
 5282SOL     OW16744   0.822   3.150   0.550 -0.0758 -0.8061 -0.4630
 5282SOL    HW116745   0.745   3.116   0.495  0.4108 -2.3456 -0.2493
 5282SOL    HW216746   0.807   3.246   0.573 -1.2056 -0.6600 -1.6799
 5283SOL     OW16747   1.584   5.564   5.719  0.0488  0.3571 -0.4950
 5283SOL    HW116748   1.587   5.464   5.723 -1.6836  0.2482 -1.1184
 5283SOL    HW216749   1.589   5.601   5.812  1.9160 -0.2331 -0.3334
 5284SOL     OW16750   6.220   3.425   1.021  0.3480 -0.2543 -1.0322
 5284SOL    HW116751   6.196   3.495   1.089  1.2972  0.6028 -1.5494
 5284SOL    HW216752   6.150   3.353   1.021 -1.1933  1.1859 -1.1951
 5285SOL     OW16753   2.214   2.590   4.354 -0.1714  0.3977 -0.2833
 5285SOL    HW116754   2.168   2.537   4.282  2.2903  0.1237 -1.7536
 5285SOL    HW216755   2.279   2.531   4.402 -0.9909  0.8710  1.5074
 5286SOL     OW16756   1.466   2.493   0.846 -0.7124 -0.4159 -0.6854
 5286SOL    HW116757   1.503   2.548   0.770  0.1617 -1.7219 -1.2341
 5286SOL    HW216758   1.540   2.467   0.907 -1.1028 -1.0854 -0.4946
 5287SOL     OW16759   1.747   5.784   2.400 -0.3981 -0.2277  0.5587
 5287SOL    HW116760   1.819   5.748   2.460 -0.3534  1.3621  1.5124
 5287SOL    HW216761   1.789   5.830   2.322 -0.4382 -1.1492 -0.0213
 5288SOL     OW16762   6.356   2.034   2.285 -0.1092 -0.0051 -0.2927
 5288SOL    HW116763   6.426   1.983   2.334  0.6775  0.5127 -0.8538
 5288SOL    HW216764   6.290   1.970   2.246 -0.2768 -0.4670  0.7096
 5289SOL     OW16765   0.541   5.869   5.821  0.0755 -0.1767  1.0165
 5289SOL    HW116766   0.636   5.881   5.847  0.9729  1.0532 -2.2939
 5289SOL    HW216767   0.530   5.782   5.771 -0.5034 -0.2296  1.2233
 5290SOL     OW16768   2.081   1.665   4.886  0.0460 -0.1546  0.5368
 5290SOL    HW116769   2.133   1.749   4.899  0.3041 -0.3690  0.9240
 5290SOL    HW216770   2.124   1.591   4.938 -1.1221 -0.1547  1.5495
 5291SOL     OW16771   3.212   0.602   4.115  0.7827  0.4929 -0.0714
 5291SOL    HW116772   3.129   0.630   4.066  2.2469  0.8465 -2.5628
 5291SOL    HW216773   3.195   0.600   4.213 -2.2763  0.0840 -0.5291
 5292SOL     OW16774   0.230   2.835   3.024 -0.1738 -0.0956 -0.1536
 5292SOL    HW116775   0.269   2.922   3.055 -1.7571  0.9353 -0.9058
 5292SOL    HW216776   0.201   2.781   3.103  0.6356  0.1372  0.3149
 5293SOL     OW16777   6.885   0.813   3.120  0.0858 -0.5742  0.7489
 5293SOL    HW116778   6.939   0.801   3.037  0.0188  1.8391  0.2899
 5293SOL    HW216779   6.813   0.744   3.124  1.0005 -1.6277 -0.4258
 5294SOL     OW16780   4.739   6.757   3.148  0.0441 -0.0655 -0.1398
 5294SOL    HW116781   4.724   6.814   3.067 -2.3130  1.2925  1.1414
 5294SOL    HW216782   4.804   6.802   3.208 -1.9353  1.5333  0.9508
 5295SOL     OW16783   2.159   0.919   3.071 -0.2252  0.3480 -0.6280
 5295SOL    HW116784   2.146   1.010   3.111 -3.0466  1.0309 -2.7919
 5295SOL    HW216785   2.183   0.854   3.143 -0.0407  2.3892  1.2831
 5296SOL     OW16786   4.934   6.034   1.714  0.2339  0.3026  0.3906
 5296SOL    HW116787   4.956   5.978   1.633  0.5548  2.3731 -1.0333
 5296SOL    HW216788   5.019   6.060   1.760  0.0988 -0.1262  0.8947
 5297SOL     OW16789   2.325   4.879   6.325  0.8341  0.2380 -0.5399
 5297SOL    HW116790   2.409   4.830   6.301  0.6154  0.0537 -0.9554
 5297SOL    HW216791   2.246   4.817   6.314  0.6672  0.3416  0.0671
 5298SOL     OW16792   2.777   6.601   4.882  0.0992  0.4266 -0.4092
 5298SOL    HW116793   2.862   6.634   4.922 -1.3332  2.0797  1.4653
 5298SOL    HW216794   2.750   6.515   4.927 -0.5240  1.2844  0.9249
 5299SOL     OW16795   1.770   1.243   1.128 -0.0232 -0.3240  0.2450
 5299SOL    HW116796   1.709   1.245   1.207 -0.3738 -1.2181  0.0110
 5299SOL    HW216797   1.748   1.318   1.067  0.2575  0.3850  0.9898
 5300SOL     OW16798   3.873   4.235   5.214  0.3685  0.2406  0.7613
 5300SOL    HW116799   3.784   4.280   5.209  0.5284  0.5308  0.4773
 5300SOL    HW216800   3.887   4.199   5.307 -0.2941 -0.3371  0.6416
 5301SOL     OW16801   5.728   0.175   3.188 -0.0292  0.4222  0.0234
 5301SOL    HW116802   5.815   0.220   3.209 -0.1642  1.0822 -0.7760
 5301SOL    HW216803   5.725   0.151   3.091 -0.0526 -1.1505  0.3931
 5302SOL     OW16804   3.582   5.933   4.181 -0.8625  0.4980 -0.2521
 5302SOL    HW116805   3.579   5.833   4.183  0.0052  0.4720  0.5495
 5302SOL    HW216806   3.624   5.967   4.266 -0.9849  1.5356 -0.5909
 5303SOL     OW16807   0.397   5.086   4.964  0.2029  0.0976  0.0175
 5303SOL    HW116808   0.465   5.018   4.990 -0.0631  0.3687  1.5068
 5303SOL    HW216809   0.442   5.164   4.920  0.6243 -0.5298 -0.6974
 5304SOL     OW16810   4.673   1.617   1.911  0.1102 -0.0085 -0.3090
 5304SOL    HW116811   4.599   1.571   1.862  0.7269  0.9179 -2.2262
 5304SOL    HW216812   4.658   1.609   2.010 -2.3164 -0.1877 -0.6211
 5305SOL     OW16813   5.861   5.896   4.349 -0.6568 -0.3420 -0.4893
 5305SOL    HW116814   5.786   5.852   4.298 -1.0449 -0.6737  0.3453
 5305SOL    HW216815   5.825   5.933   4.435 -0.3317  1.6214 -1.1611
 5306SOL     OW16816   2.486   1.192   1.718  0.1670  0.4146 -0.0439
 5306SOL    HW116817   2.575   1.161   1.685  0.9477  1.2211  1.2319
 5306SOL    HW216818   2.422   1.115   1.717  1.0021 -0.2899 -0.5498
 5307SOL     OW16819   2.107   0.592   1.517  0.2841 -0.4840 -0.3948
 5307SOL    HW116820   2.172   0.647   1.570  0.3550 -0.9252 -0.0128
 5307SOL    HW216821   2.037   0.651   1.478  0.3389 -0.1247  0.0381
 5308SOL     OW16822   1.490   3.912   5.163  0.0238 -0.0473  0.0318
 5308SOL    HW116823   1.453   3.868   5.081  1.0646 -0.1093 -0.4247
 5308SOL    HW216824   1.590   3.911   5.159  0.1548 -1.3541  1.9924
 5309SOL     OW16825   6.021   0.044   1.131 -0.7276 -0.0896 -0.2754
 5309SOL    HW116826   6.026  -0.001   1.220 -1.2738  0.9298  0.3000
 5309SOL    HW216827   6.084   0.122   1.130 -0.2013 -0.5214 -1.0422
 5310SOL     OW16828   4.926   2.944   6.364  0.2401 -0.0306  1.0115
 5310SOL    HW116829   4.963   3.038   6.364  0.4565 -0.0949 -0.0883
 5310SOL    HW216830   4.951   2.899   6.278 -0.4279 -0.8810  1.2487
 5311SOL     OW16831   6.171   6.975   1.411 -0.2422 -0.0774 -0.2721
 5311SOL    HW116832   6.202   7.062   1.449 -0.0806 -0.0578 -0.4452
 5311SOL    HW216833   6.237   6.944   1.342 -0.5723 -0.0760 -0.5863
 5312SOL     OW16834   4.248   5.326   2.790  0.5870  0.6275 -0.3631
 5312SOL    HW116835   4.305   5.302   2.712 -0.3972 -0.7635 -0.6926
 5312SOL    HW216836   4.154   5.343   2.759 -0.3183 -1.9327  0.6639
 5313SOL     OW16837   3.158   1.622   6.012 -1.0760  0.1123  0.0974
 5313SOL    HW116838   3.145   1.682   6.090  1.3620  2.4071 -1.0941
 5313SOL    HW216839   3.221   1.548   6.037 -1.5032 -0.0458  0.7081
 5314SOL     OW16840   6.152   0.998   1.644 -0.2892  0.2370  0.5518
 5314SOL    HW116841   6.245   1.033   1.633  1.0466 -2.6157  1.7701
 5314SOL    HW216842   6.119   0.963   1.557 -0.1495  1.0474  0.1637
 5315SOL     OW16843   4.362   1.481   5.340 -0.0844  0.5752 -0.3858
 5315SOL    HW116844   4.280   1.424   5.341 -1.0015  1.8419  0.7582
 5315SOL    HW216845   4.390   1.500   5.434  0.0369  2.2135 -0.7333
 5316SOL     OW16846   5.946   2.618   5.255 -0.4293 -0.0596 -0.1035
 5316SOL    HW116847   5.951   2.519   5.246  1.3512 -0.1154  0.9590
 5316SOL    HW216848   5.893   2.641   5.337 -1.0304 -0.1136 -0.4718
 5317SOL     OW16849   4.556   2.548   2.945 -1.0922 -0.0787  0.4595
 5317SOL    HW116850   4.636   2.592   2.986 -1.8679 -0.7119  2.7686
 5317SOL    HW216851   4.554   2.569   2.847  1.3890  0.6869  0.4942
 5318SOL     OW16852   0.727   6.149   6.786  0.2936  0.4746 -0.0865
 5318SOL    HW116853   0.747   6.171   6.691  0.1483 -1.4449 -0.6071
 5318SOL    HW216854   0.811   6.115   6.830  0.7514  2.7622  0.9632
 5319SOL     OW16855   4.616   5.298   2.466 -0.0886  0.3531  0.4839
 5319SOL    HW116856   4.674   5.318   2.388  1.3718  1.3167  1.7651
 5319SOL    HW216857   4.557   5.377   2.486  1.4890  1.2264  1.9595
 5320SOL     OW16858   5.317   5.392   6.862  0.4660 -0.8317 -0.1514
 5320SOL    HW116859   5.234   5.414   6.811 -0.2021 -1.3806  0.6635
 5320SOL    HW216860   5.379   5.470   6.860 -0.1295 -0.3598 -0.6541
 5321SOL     OW16861   1.609   4.896   5.343 -0.2382 -0.5495  0.0361
 5321SOL    HW116862   1.595   4.883   5.244 -2.5550  0.4358  0.1599
 5321SOL    HW216863   1.594   4.992   5.366 -0.5111 -0.9116  1.4364
 5322SOL     OW16864   3.909   6.806   0.941  0.7972  0.0285 -0.0276
 5322SOL    HW116865   3.889   6.725   0.996 -0.7307  0.1547 -0.3459
 5322SOL    HW216866   3.984   6.858   0.983  0.6403 -0.6433  1.1142
 5323SOL     OW16867   4.746   0.114   6.434 -0.1379  0.3312 -0.0649
 5323SOL    HW116868   4.762   0.211   6.456 -1.5384  0.3875  0.8532
 5323SOL    HW216869   4.801   0.057   6.495 -0.4669  0.5465  0.4432
 5324SOL     OW16870   0.119   2.637   3.550 -0.2076 -0.4604 -0.1476
 5324SOL    HW116871   0.096   2.672   3.641 -2.0579 -1.8770 -0.0099
 5324SOL    HW216872   0.085   2.543   3.542  0.8577 -0.7234 -1.9528
 5325SOL     OW16873   2.098   1.712   5.446  0.0232 -0.6630 -0.6362
 5325SOL    HW116874   2.036   1.777   5.401 -1.2064 -0.4492  1.2689
 5325SOL    HW216875   2.119   1.745   5.538  1.3161 -1.8000 -0.5031
 5326SOL     OW16876   6.910   0.192   1.033  0.1785  0.1627  0.8028
 5326SOL    HW116877   6.967   0.142   0.969  0.0863  0.7917  0.2232
 5326SOL    HW216878   6.936   0.288   1.034 -1.5722  0.6881 -0.3015
 5327SOL     OW16879   1.563   2.068   0.908 -0.5662 -0.0117 -0.3151
 5327SOL    HW116880   1.619   1.999   0.861  0.2794  0.4334  0.0076
 5327SOL    HW216881   1.492   2.100   0.846 -0.7052 -0.8677 -0.6095
 5328SOL     OW16882   5.028   4.335   0.687  0.3329 -0.4623 -0.3037
 5328SOL    HW116883   5.085   4.326   0.605  0.6550 -0.7260 -0.0484
 5328SOL    HW216884   4.936   4.364   0.659  1.2796  2.6467 -0.5077
 5329SOL     OW16885   3.108   1.023   5.637 -0.0687  0.6390  0.3421
 5329SOL    HW116886   3.010   1.012   5.620 -0.0729  1.3918 -0.1441
 5329SOL    HW216887   3.153   0.934   5.631 -0.5498  0.4445 -0.5403
 5330SOL     OW16888   2.799   4.762   0.677  0.0033 -0.0183  0.0343
 5330SOL    HW116889   2.812   4.769   0.579 -2.0061  3.0114 -0.1540
 5330SOL    HW216890   2.749   4.679   0.699  0.8571 -0.9522 -1.4030
 5331SOL     OW16891   6.497   1.900   6.360  0.0707 -0.1656  0.4322
 5331SOL    HW116892   6.462   1.807   6.352 -1.4556  0.5263 -1.8351
 5331SOL    HW216893   6.529   1.932   6.271 -0.0321  1.6868  1.0103
 5332SOL     OW16894   1.332   5.687   1.836 -0.0833  0.5273  0.2629
 5332SOL    HW116895   1.353   5.752   1.910  1.0546  0.0468  0.3881
 5332SOL    HW216896   1.386   5.604   1.848 -0.9017 -0.1088 -0.3656
 5333SOL     OW16897   0.794   6.296   4.868  0.5436  0.5817 -0.7921
 5333SOL    HW116898   0.864   6.348   4.918 -0.0201  0.5645  0.0357
 5333SOL    HW216899   0.778   6.209   4.913  0.1066  0.5145 -1.0686
 5334SOL     OW16900   3.166   0.043   4.751 -0.6780 -0.1027  0.3272
 5334SOL    HW116901   3.201   0.082   4.836  0.0850  0.7318 -0.3556
 5334SOL    HW216902   3.170  -0.057   4.757  2.4412 -0.0894  0.0764
 5335SOL     OW16903   0.995   1.408   6.530  0.2375  0.1288  0.3765
 5335SOL    HW116904   0.972   1.482   6.467 -0.3431 -1.3419 -1.2023
 5335SOL    HW216905   1.058   1.344   6.486 -0.4383 -1.1241  1.1575
 5336SOL     OW16906   6.856   3.489   2.979 -0.4262  0.5605 -0.3859
 5336SOL    HW116907   6.845   3.581   2.941  0.8499  0.1660 -1.7897
 5336SOL    HW216908   6.864   3.495   3.079  0.5988  2.0760 -0.5285
 5337SOL     OW16909   3.907   3.936   2.211 -0.0495  0.0673  0.1534
 5337SOL    HW116910   3.809   3.930   2.196 -0.1276  1.0261  0.2002
 5337SOL    HW216911   3.953   3.959   2.125  0.1889 -0.7847  0.0399
 5338SOL     OW16912   5.567   3.329   0.073 -0.0172 -0.2493  0.1672
 5338SOL    HW116913   5.589   3.390   0.149  1.4304  0.6880 -0.9528
 5338SOL    HW216914   5.529   3.383  -0.003 -1.0687 -1.1113  0.0581
 5339SOL     OW16915   0.952   1.408   3.567  0.2261  0.0095  0.1216
 5339SOL    HW116916   1.026   1.342   3.580 -0.6197 -1.0275 -0.2160
 5339SOL    HW216917   0.990   1.493   3.531  1.2625 -0.4880  0.0038
 5340SOL     OW16918   6.960   1.655   6.101 -0.1853  0.4290 -0.5387
 5340SOL    HW116919   7.052   1.632   6.071  0.6960  0.6296  1.7793
 5340SOL    HW216920   6.932   1.742   6.062  1.3827  1.2850  0.1581
 5341SOL     OW16921   4.790   1.095   0.956 -0.6170  0.6148  0.1727
 5341SOL    HW116922   4.842   1.134   0.880  0.6851 -3.0474 -0.9980
 5341SOL    HW216923   4.692   1.112   0.941 -0.2487  1.6002 -1.3146
 5342SOL     OW16924   1.881   0.125   5.224  0.5901  0.4267 -0.7897
 5342SOL    HW116925   1.877   0.028   5.201 -1.5062 -0.5948  3.0468
 5342SOL    HW216926   1.789   0.164   5.219 -0.2910 -0.0381  5.0793
 5343SOL     OW16927   2.078   4.656   6.897 -0.1673 -0.4159  0.5540
 5343SOL    HW116928   2.162   4.708   6.882 -0.2759  0.0609  1.5934
 5343SOL    HW216929   2.089   4.564   6.857  0.6991 -0.2329  0.3482
 5344SOL     OW16930   2.540   1.794   2.394 -0.1286 -0.4412  0.2170
 5344SOL    HW116931   2.629   1.816   2.356  0.6330  0.1945  2.2466
 5344SOL    HW216932   2.526   1.844   2.479 -1.0671 -2.9410  1.6553
 5345SOL     OW16933   4.763   5.912   1.900 -0.5068 -0.0217 -0.0273
 5345SOL    HW116934   4.835   5.944   1.838 -1.6047  1.5958 -0.5373
 5345SOL    HW216935   4.768   5.963   1.986  0.3531 -1.5235  0.8512
 5346SOL     OW16936   3.035   6.917   4.115  0.5517  0.1653  0.1157
 5346SOL    HW116937   2.944   6.910   4.155  0.6303 -0.7178  0.1574
 5346SOL    HW216938   3.042   6.856   4.036  0.4328  1.8089 -1.2266
 5347SOL     OW16939   0.420   1.832   3.048  0.1114  0.1814  0.1898
 5347SOL    HW116940   0.435   1.735   3.029  0.3411  0.0719  0.9025
 5347SOL    HW216941   0.483   1.862   3.119 -0.3271  0.7181  0.3591
 5348SOL     OW16942   6.699   1.407   6.706  0.1296 -0.3192 -0.0204
 5348SOL    HW116943   6.774   1.441   6.763 -0.1383 -0.8979  0.6975
 5348SOL    HW216944   6.613   1.448   6.736  0.2323  0.8899 -1.3033
 5349SOL     OW16945   5.522   0.920   0.126  0.3049  0.5484 -0.3987
 5349SOL    HW116946   5.501   0.956   0.217 -2.0753 -1.1637 -0.1807
 5349SOL    HW216947   5.589   0.846   0.134  0.4643  0.7222 -0.1049
 5350SOL     OW16948   3.344   0.437   1.628 -0.2846 -0.2446  0.3876
 5350SOL    HW116949   3.259   0.385   1.637 -1.1940  1.2674  0.9394
 5350SOL    HW216950   3.330   0.530   1.663  0.8680  0.8243 -1.7573
 5351SOL     OW16951   3.952   1.173   2.916  0.1102 -0.0476 -0.7750
 5351SOL    HW116952   3.915   1.212   2.831  0.6690  0.7248 -0.6712
 5351SOL    HW216953   3.977   1.247   2.978 -1.6556 -0.5841  0.6844
 5352SOL     OW16954   4.767   6.055   3.055  0.1636 -0.2657 -0.2838
 5352SOL    HW116955   4.789   5.964   3.089 -0.7700 -1.0152 -1.6238
 5352SOL    HW216956   4.811   6.124   3.114 -0.3105 -1.5171  1.6029
 5353SOL     OW16957   6.827   0.081   5.154  0.4270  0.0653  0.1610
 5353SOL    HW116958   6.926   0.090   5.167  0.4687  0.2937 -0.3041
 5353SOL    HW216959   6.785   0.172   5.155  0.3597  0.0506 -0.7210
 5354SOL     OW16960   6.670   1.748   1.014 -0.0856  0.1490 -0.9362
 5354SOL    HW116961   6.688   1.659   0.971 -3.2738 -0.0913 -2.0847
 5354SOL    HW216962   6.578   1.746   1.055  0.3530  2.4888  0.2926
 5355SOL     OW16963   3.374   1.821   4.941  0.2394 -0.1147 -0.2043
 5355SOL    HW116964   3.328   1.809   4.852  2.0373  0.6946 -1.2848
 5355SOL    HW216965   3.383   1.918   4.961 -1.5359 -0.2690  1.6794
 5356SOL     OW16966   6.916   3.009   2.529 -0.1700 -0.3731  0.2759
 5356SOL    HW116967   6.900   2.911   2.520 -1.5959 -0.1931  0.5776
 5356SOL    HW216968   6.900   3.037   2.624 -3.1675  0.6455 -0.3924
 5357SOL     OW16969   5.259   6.437   0.030  0.2773 -0.2720 -0.2907
 5357SOL    HW116970   5.183   6.430  -0.034 -0.5998 -0.6202  0.7641
 5357SOL    HW216971   5.334   6.488  -0.013 -0.7322  0.5136 -1.1741
 5358SOL     OW16972   5.202   4.478   2.037  0.3190 -0.4925  0.5880
 5358SOL    HW116973   5.103   4.491   2.031  0.1440 -2.2488 -0.9721
 5358SOL    HW216974   5.227   4.464   2.133 -1.0677 -0.8927  0.9222
 5359SOL     OW16975   1.599   5.769   5.197 -0.2106 -0.0973 -0.0171
 5359SOL    HW116976   1.674   5.784   5.132 -0.3711 -0.6197 -0.3268
 5359SOL    HW216977   1.636   5.759   5.289 -0.0986  2.6655  0.3320
 5360SOL     OW16978   3.487   3.677   0.581  0.3246 -0.2809  0.0085
 5360SOL    HW116979   3.422   3.688   0.656  1.1846  0.7464  0.6203
 5360SOL    HW216980   3.501   3.579   0.563 -0.2710 -0.5244  0.8519
 5361SOL     OW16981   0.232   3.207   0.463 -0.6018 -0.2442  0.0315
 5361SOL    HW116982   0.213   3.283   0.401  0.7985 -0.4140 -0.6326
 5361SOL    HW216983   0.206   3.233   0.556  0.9836  1.5318  0.0342
 5362SOL     OW16984   5.664   5.055   4.133  0.5028 -0.4226 -0.0735
 5362SOL    HW116985   5.752   5.091   4.102  0.5958 -0.8181 -0.2819
 5362SOL    HW216986   5.610   5.027   4.054  0.4414 -0.7493  0.0825
 5363SOL     OW16987   0.086   6.357   3.063 -0.5050  0.4943 -0.1606
 5363SOL    HW116988   0.126   6.364   2.971 -0.4470 -0.5684 -0.2405
 5363SOL    HW216989  -0.006   6.396   3.062 -0.6246  0.2234 -0.7623
 5364SOL     OW16990   2.132   5.984   6.522 -0.2144  0.2675 -0.2763
 5364SOL    HW116991   2.058   6.046   6.548 -0.5035 -0.4306  0.6261
 5364SOL    HW216992   2.209   5.995   6.585 -0.6262 -0.9137  0.4660
 5365SOL     OW16993   5.423   2.165   0.071 -0.1335 -0.2013 -0.2809
 5365SOL    HW116994   5.495   2.101   0.044  2.1678  1.5735  1.2619
 5365SOL    HW216995   5.362   2.120   0.136  1.2333 -0.9944  0.5180
 5366SOL     OW16996   3.842   3.414   3.715  0.4182  0.2313 -0.2681
 5366SOL    HW116997   3.860   3.367   3.629  0.0575 -0.3396 -0.0455
 5366SOL    HW216998   3.927   3.424   3.767  0.3516 -1.1638  0.1552
 5367SOL     OW16999   6.674   4.438   1.121  0.0835 -0.4077  0.9158
 5367SOL    HW117000   6.630   4.377   1.056 -0.1351  0.1671  0.5260
 5367SOL    HW217001   6.662   4.533   1.093 -1.2107 -0.0524  2.5152
 5368SOL     OW17002   6.532   1.076   3.942 -0.9266 -0.0588  0.3095
 5368SOL    HW117003   6.578   1.136   3.877  0.0435  0.8774  1.8065
 5368SOL    HW217004   6.596   1.008   3.977 -1.0243  0.4259  1.4424
 5369SOL     OW17005   2.771   4.630   1.639 -0.0316  0.3255  0.1461
 5369SOL    HW117006   2.672   4.649   1.638 -0.7216 -2.6789 -1.6511
 5369SOL    HW217007   2.797   4.596   1.729 -0.6406  1.0651  0.6179
 5370SOL     OW17008   2.898   3.572   2.549  0.0580  0.1940 -0.7586
 5370SOL    HW117009   2.959   3.634   2.500  0.3505  2.1676  1.8794
 5370SOL    HW217010   2.874   3.495   2.490  2.1558  1.2169 -3.1196
 5371SOL     OW17011   1.498   3.643   4.118  0.2287  0.6063 -0.1837
 5371SOL    HW117012   1.529   3.555   4.080 -0.9673  0.6528 -1.3612
 5371SOL    HW217013   1.476   3.705   4.042 -3.2131  0.3860  0.4804
 5372SOL     OW17014   4.900   5.222   1.386 -0.0435 -0.5306 -0.6111
 5372SOL    HW117015   4.815   5.179   1.356  0.2235 -0.5474 -1.3647
 5372SOL    HW217016   4.922   5.192   1.478 -1.3934  0.2566  0.0063
 5373SOL     OW17017   2.216   3.943   3.937  0.5724  0.4138 -0.3469
 5373SOL    HW117018   2.121   3.977   3.936  0.8526  1.2180 -0.9244
 5373SOL    HW217019   2.252   3.948   4.030 -0.0161 -0.0953 -0.0808
 5374SOL     OW17020   2.245   3.386   0.183 -0.1750  0.1657 -0.5835
 5374SOL    HW117021   2.309   3.421   0.116  0.5693 -0.5370 -0.2516
 5374SOL    HW217022   2.272   3.417   0.274  0.6224 -1.3896 -0.2542
 5375SOL     OW17023   1.526   4.072   4.741  0.0164  0.2567 -0.2247
 5375SOL    HW117024   1.480   3.991   4.778  1.9135 -1.2233 -0.9390
 5375SOL    HW217025   1.603   4.097   4.800 -1.4280  2.5700  0.8406
 5376SOL     OW17026   4.060   3.744   6.318 -0.0772 -0.1682 -1.0114
 5376SOL    HW117027   3.986   3.772   6.257 -0.1614 -0.4374 -1.0333
 5376SOL    HW217028   4.148   3.765   6.275 -0.0405 -3.0539 -2.5987
 5377SOL     OW17029   0.206   3.737   1.526 -0.0815  0.0320 -0.2545
 5377SOL    HW117030   0.305   3.731   1.541  0.0870  0.9977 -0.8815
 5377SOL    HW217031   0.163   3.785   1.602 -0.0911 -0.5198  0.0900
 5378SOL     OW17032   3.771   6.687   6.372  0.1522 -0.4902  0.2309
 5378SOL    HW117033   3.817   6.764   6.416  1.1573 -0.1565 -1.3087
 5378SOL    HW217034   3.833   6.645   6.305 -0.6299 -2.1851  0.5170
 5379SOL     OW17035   2.158   6.764   1.539  0.2545  0.1190 -0.1927
 5379SOL    HW117036   2.215   6.839   1.505  0.0686  0.1270 -0.4912
 5379SOL    HW217037   2.177   6.681   1.487  0.6488 -0.1149  0.3093
 5380SOL     OW17038   2.438   1.832   5.864 -0.5678  0.0875  0.2374
 5380SOL    HW117039   2.466   1.766   5.793 -0.0037 -0.8493  1.2996
 5380SOL    HW217040   2.511   1.899   5.877 -0.8364  0.4952 -0.3387
 5381SOL     OW17041   5.466   4.484   1.118 -0.4360 -0.4052 -0.6163
 5381SOL    HW117042   5.492   4.529   1.032 -0.8713 -1.9960 -1.6295
 5381SOL    HW217043   5.367   4.495   1.132 -0.1880  0.8615  0.3305
 5382SOL     OW17044   1.561   6.974   2.251 -0.0574 -0.1848 -0.2250
 5382SOL    HW117045   1.566   6.921   2.336  3.1443  0.6815  0.2371
 5382SOL    HW217046   1.634   7.041   2.248 -3.6217  4.1863 -0.9490
 5383SOL     OW17047   2.517   2.479   4.007  0.0954 -0.0427 -0.0343
 5383SOL    HW117048   2.428   2.434   4.013  0.2825 -0.2128  2.1974
 5383SOL    HW217049   2.517   2.541   3.929 -1.2868 -1.4652 -1.2320
 5384SOL     OW17050   3.456   0.011   5.377 -0.1153 -0.5292  0.0133
 5384SOL    HW117051   3.532   0.045   5.322 -0.2266  1.5677  1.0575
 5384SOL    HW217052   3.479   0.017   5.474 -1.2334 -0.8339  0.3222
 5385SOL     OW17053   3.295   3.508   1.326 -0.4788 -0.0704  0.1250
 5385SOL    HW117054   3.386   3.517   1.287 -1.2079 -1.0164 -1.9027
 5385SOL    HW217055   3.274   3.589   1.382  0.8483  1.0643 -0.9630
 5386SOL     OW17056   5.674   6.401   5.210  0.6245 -0.1141  0.4322
 5386SOL    HW117057   5.676   6.376   5.306 -1.6044 -0.9400  0.3123
 5386SOL    HW217058   5.601   6.351   5.163  0.0732  2.0354 -1.1720
 5387SOL     OW17059   3.605   6.797   0.916  0.2527  0.4715 -0.0423
 5387SOL    HW117060   3.703   6.817   0.925  0.4029 -0.5014  0.6691
 5387SOL    HW217061   3.577   6.808   0.821  0.6970  2.3049  0.0084
 5388SOL     OW17062   5.646   5.818   3.407 -0.4494 -0.2057 -0.0345
 5388SOL    HW117063   5.599   5.811   3.319  3.1268 -0.6648 -2.0935
 5388SOL    HW217064   5.712   5.893   3.404 -1.5832  1.0946  3.0775
 5389SOL     OW17065   5.681   1.353   6.551 -0.0404 -0.0568  0.1865
 5389SOL    HW117066   5.770   1.382   6.589  0.2293 -1.3479  0.5690
 5389SOL    HW217067   5.611   1.419   6.579  0.5757  0.3003  0.9472
 5390SOL     OW17068   6.879   5.182   6.952  0.0690 -0.4511  0.0478
 5390SOL    HW117069   6.902   5.196   7.048  0.7246  0.3697 -0.2149
 5390SOL    HW217070   6.945   5.120   6.910  0.8045  0.5238 -0.2752
 5391SOL     OW17071   3.949   4.328   0.081  0.1586  0.2463 -0.1622
 5391SOL    HW117072   3.940   4.427   0.093 -4.0049  0.0143  0.0203
 5391SOL    HW217073   3.918   4.282   0.164  2.2344 -1.3027 -0.1712
 5392SOL     OW17074   5.880   5.307   2.663 -0.0538 -0.1494  0.5767
 5392SOL    HW117075   5.957   5.359   2.699 -0.6101  1.8584 -0.9441
 5392SOL    HW217076   5.799   5.323   2.720 -0.1271  0.3409  0.3366
 5393SOL     OW17077   1.051   1.270   5.585  0.2037  0.4809 -0.5416
 5393SOL    HW117078   1.036   1.225   5.673 -1.9734 -0.6310 -1.3886
 5393SOL    HW217079   1.064   1.368   5.599  3.2656 -0.0484  1.2204
 5394SOL     OW17080   3.265   2.576   5.859  0.0964  0.4051  0.2654
 5394SOL    HW117081   3.170   2.559   5.885  0.2028 -0.5427  0.0572
 5394SOL    HW217082   3.324   2.506   5.898  1.0843  2.3078  2.4347
 5395SOL     OW17083   4.624   1.066   0.180 -0.3910 -0.4007  0.1460
 5395SOL    HW117084   4.545   1.127   0.183  1.1471  1.8347 -1.4253
 5395SOL    HW217085   4.674   1.080   0.094  1.0406 -2.6248  0.5368
 5396SOL     OW17086   3.869   3.048   6.614 -0.0496 -0.2783 -0.0423
 5396SOL    HW117087   3.909   2.960   6.639  0.6562  0.3836  1.2655
 5396SOL    HW217088   3.925   3.090   6.542 -0.2190 -0.7533 -0.4599
 5397SOL     OW17089   2.073   2.057   1.833 -0.4841 -0.4497 -0.1652
 5397SOL    HW117090   2.143   2.125   1.809  0.1697 -0.7034  0.9168
 5397SOL    HW217091   2.116   1.981   1.882 -1.3412 -1.2332 -0.5933
 5398SOL     OW17092   3.406   3.342   1.921 -0.2690 -0.2104 -0.1638
 5398SOL    HW117093   3.349   3.326   1.840  0.8758  0.4304 -1.1234
 5398SOL    HW217094   3.500   3.314   1.902  0.0387  0.0419  0.9166
 5399SOL     OW17095   6.897   0.693   1.456 -0.2416 -0.3845  0.3959
 5399SOL    HW117096   6.828   0.660   1.521  0.7557 -0.6507  1.3346
 5399SOL    HW217097   6.902   0.793   1.461 -1.9105 -0.1757 -1.0834
 5400SOL     OW17098   2.143   4.402   0.778 -0.0706  0.0183  0.2542
 5400SOL    HW117099   2.137   4.472   0.850  2.0399  0.9708 -0.4322
 5400SOL    HW217100   2.230   4.355   0.784 -0.0406 -0.1914 -1.4185
 5401SOL     OW17101   5.777   2.478   1.332  0.1325 -0.2805 -0.4220
 5401SOL    HW117102   5.684   2.473   1.295 -0.5037 -1.7770  1.2148
 5401SOL    HW217103   5.779   2.540   1.409  0.5506 -0.0824 -0.5892
 5402SOL     OW17104   6.721   6.499   2.054  0.1338 -0.9233 -0.0537
 5402SOL    HW117105   6.664   6.421   2.079  1.1128 -1.8337 -0.5763
 5402SOL    HW217106   6.739   6.554   2.136 -1.2559 -0.7545  0.1645
 5403SOL     OW17107   6.754   2.578   5.317 -0.3720  0.0875 -0.1435
 5403SOL    HW117108   6.745   2.649   5.248  0.8774  0.2643 -0.1393
 5403SOL    HW217109   6.812   2.504   5.282 -0.6171 -0.3387  0.3242
 5404SOL     OW17110   2.287   2.849   2.955  0.2166 -0.0757  0.6701
 5404SOL    HW117111   2.342   2.874   2.876 -0.7885  1.3907  0.3981
 5404SOL    HW217112   2.232   2.768   2.934  0.0774  0.2108 -0.0672
 5405SOL     OW17113   4.996   4.344   5.535  0.0918 -0.4095  0.5928
 5405SOL    HW117114   5.077   4.333   5.478 -0.5931 -0.3305 -0.4150
 5405SOL    HW217115   4.939   4.263   5.528 -1.2056  0.5768 -0.8170
 5406SOL     OW17116   0.384   1.354   3.418  0.0813  0.0649  0.4129
 5406SOL    HW117117   0.350   1.407   3.496 -0.5533  2.7217 -1.5253
 5406SOL    HW217118   0.307   1.331   3.357  0.6827 -1.1524  0.0765
 5407SOL     OW17119   2.134   2.671   0.036  0.1272  0.1530 -0.2268
 5407SOL    HW117120   2.063   2.655   0.105  0.0754  0.1185 -0.2873
 5407SOL    HW217121   2.090   2.694  -0.051  0.1867 -0.0564 -0.3126
 5408SOL     OW17122   4.466   6.577   6.293  0.1333 -0.4500  0.3298
 5408SOL    HW117123   4.487   6.664   6.338  1.0421 -0.4316 -0.0998
 5408SOL    HW217124   4.399   6.526   6.347 -1.8788  1.3234 -0.3356
 5409SOL     OW17125   4.840   3.036   1.438 -0.1882 -0.8886 -0.1973
 5409SOL    HW117126   4.815   3.132   1.423  3.4480  0.1146 -0.7751
 5409SOL    HW217127   4.855   3.020   1.535  0.8424 -0.3337 -0.2438
 5410SOL     OW17128   1.427   1.977   2.710 -0.1929  0.6345 -0.1057
 5410SOL    HW117129   1.520   1.974   2.674 -0.9407  0.1476 -2.1450
 5410SOL    HW217130   1.362   1.988   2.635 -1.7864  1.3052  1.2938
 5411SOL     OW17131   2.370   5.048   5.144  0.1655 -0.1511  0.0477
 5411SOL    HW117132   2.323   4.981   5.202  2.0222 -0.4061  1.3581
 5411SOL    HW217133   2.380   5.011   5.051  1.2207 -1.7853  0.7584
 5412SOL     OW17134   0.269   1.374   1.144  0.0705 -0.0141 -0.4613
 5412SOL    HW117135   0.233   1.333   1.228 -0.8838  0.5622 -0.5775
 5412SOL    HW217136   0.304   1.302   1.084  1.5732 -0.3778  0.7773
 5413SOL     OW17137   0.811   2.008   2.346  0.0467  0.2700  0.2319
 5413SOL    HW117138   0.836   1.913   2.368  0.6712  0.3351 -0.1762
 5413SOL    HW217139   0.876   2.070   2.388  0.8032  0.4277 -1.1099
 5414SOL     OW17140   6.105   0.202   5.316  0.2529 -0.2957  0.1005
 5414SOL    HW117141   6.018   0.226   5.360  0.7051  0.5842  0.5521
 5414SOL    HW217142   6.103   0.230   5.220  0.4219  0.7375  0.3836
 5415SOL     OW17143   4.643   5.076   2.653 -0.0864 -0.2105  0.1110
 5415SOL    HW117144   4.647   5.163   2.603  0.7974 -0.5155 -0.3732
 5415SOL    HW217145   4.561   5.026   2.625  0.1448 -0.1597 -0.6976
 5416SOL     OW17146   4.646   5.657   4.949  0.1151  0.3937 -0.4095
 5416SOL    HW117147   4.731   5.613   4.922  0.1023  0.7184 -0.9873
 5416SOL    HW217148   4.649   5.678   5.047  0.6637  0.3309 -0.4116
 5417SOL     OW17149   3.571   5.859   5.499 -0.3669  0.0169 -0.0128
 5417SOL    HW117150   3.646   5.825   5.556  0.5565  1.0524 -0.5828
 5417SOL    HW217151   3.553   5.955   5.521 -1.0013 -0.0025 -0.4345
 5418SOL     OW17152   2.574   6.814   4.368 -0.2735 -0.0518 -0.2066
 5418SOL    HW117153   2.637   6.852   4.437 -0.3210 -0.0057 -0.1885
 5418SOL    HW217154   2.544   6.723   4.396  0.2669 -0.3357 -0.5099
 5419SOL     OW17155   2.073   3.770   5.969  0.4814  0.4067 -0.5330
 5419SOL    HW117156   2.056   3.672   5.959  0.2070  0.1763  1.6758
 5419SOL    HW217157   2.167   3.791   5.942  1.2829 -0.8916  1.0946
 5420SOL     OW17158   1.141   3.684   2.808 -0.5654  0.7163 -0.2273
 5420SOL    HW117159   1.136   3.689   2.908 -1.9646  0.2445 -0.2570
 5420SOL    HW217160   1.124   3.590   2.779  2.4382  0.2582 -0.8171
 5421SOL     OW17161   3.898   3.335   1.610  0.3027  0.5211  0.0686
 5421SOL    HW117162   3.891   3.393   1.691 -1.0002 -0.0220  0.3645
 5421SOL    HW217163   3.994   3.315   1.591  0.6027  0.1655  1.8240
 5422SOL     OW17164   1.287   3.285   1.117 -0.2270  0.3306  0.2328
 5422SOL    HW117165   1.366   3.309   1.173  0.9098  1.6871 -1.8359
 5422SOL    HW217166   1.312   3.211   1.054 -0.8737  0.1655  0.1622
 5423SOL     OW17167   4.023   3.158   5.445  0.1863 -0.2815  0.1418
 5423SOL    HW117168   4.034   3.118   5.536 -1.6290  0.4454  0.7274
 5423SOL    HW217169   3.972   3.095   5.387  2.2097 -1.1845 -0.7444
 5424SOL     OW17170   5.810   4.449   6.208  0.5668 -0.2841 -0.2027
 5424SOL    HW117171   5.711   4.440   6.199  0.0761  1.9121  1.9602
 5424SOL    HW217172   5.850   4.467   6.117 -1.4813  2.1614 -0.7257
 5425SOL     OW17173   5.584   2.054   5.884  1.1449  0.1084  0.0796
 5425SOL    HW117174   5.660   2.101   5.838  0.8737  0.0629 -0.4282
 5425SOL    HW217175   5.506   2.116   5.890  1.0621 -0.0043  0.1662
 5426SOL     OW17176   1.417   1.452   4.349  0.4644 -0.6717 -0.6820
 5426SOL    HW117177   1.485   1.520   4.375 -1.2980  0.5756  0.9815
 5426SOL    HW217178   1.338   1.497   4.308  0.5218 -2.0668 -2.4351
 5427SOL     OW17179   2.698   6.367   6.760 -0.0359  0.2918  0.1095
 5427SOL    HW117180   2.658   6.447   6.715  1.6163  1.5757  0.8041
 5427SOL    HW217181   2.791   6.352   6.726  0.1954 -0.4653  1.0154
 5428SOL     OW17182   2.179   6.789   5.225  0.1312  0.0213 -0.7414
 5428SOL    HW117183   2.274   6.817   5.216  0.0967 -0.0280 -1.2629
 5428SOL    HW217184   2.126   6.864   5.266  0.4212 -0.0090 -0.3041
 5429SOL     OW17185   2.185   2.404   6.175  0.5055 -0.2972  0.0455
 5429SOL    HW117186   2.091   2.379   6.149  0.3815 -0.8935  1.0296
 5429SOL    HW217187   2.196   2.395   6.274  1.4404  0.3444  0.0121
 5430SOL     OW17188   2.281   2.609   6.580 -0.2270  0.2420 -0.3287
 5430SOL    HW117189   2.338   2.659   6.515  1.3224 -0.2633  0.5849
 5430SOL    HW217190   2.339   2.566   6.649 -1.8480  1.5508  1.9941
 5431SOL     OW17191   2.319   4.589   4.443  0.0899  0.3571 -0.5555
 5431SOL    HW117192   2.268   4.506   4.425 -0.9342  0.5804  1.1018
 5431SOL    HW217193   2.404   4.589   4.390 -0.3679 -1.2581 -1.3281
 5432SOL     OW17194   6.081   4.395   0.972  0.0997  0.0446 -0.3478
 5432SOL    HW117195   6.123   4.304   0.978  1.2595  0.6428  1.1512
 5432SOL    HW217196   6.099   4.434   0.882 -0.4709 -1.2094 -1.0423
 5433SOL     OW17197   2.094   1.713   2.614 -0.0174 -0.3596 -0.0667
 5433SOL    HW117198   2.092   1.640   2.545  2.4949 -0.4409 -0.1445
 5433SOL    HW217199   2.085   1.802   2.569  0.8478 -0.4574 -0.4671
 5434SOL     OW17200   1.968   4.040   3.911  0.2257  0.7741 -0.1110
 5434SOL    HW117201   1.899   4.026   3.841 -0.7373  1.0954  0.7421
 5434SOL    HW217202   1.926   4.030   4.002  1.5203 -0.0609  0.4263
 5435SOL     OW17203   5.523   0.906   3.245 -0.3784  0.2610 -0.6464
 5435SOL    HW117204   5.445   0.876   3.301 -0.0724 -0.2755 -0.4965
 5435SOL    HW217205   5.533   1.005   3.253  0.1137  0.1277  0.8778
 5436SOL     OW17206   4.855   3.942   3.901 -0.0606  0.0130 -0.2110
 5436SOL    HW117207   4.892   3.976   3.987 -0.6638 -1.6515  0.7752
 5436SOL    HW217208   4.775   3.996   3.874 -0.2799  0.1296  0.6619
 5437SOL     OW17209   2.643   5.504   5.782  0.0090 -0.1151  0.3403
 5437SOL    HW117210   2.666   5.507   5.684 -0.9566  0.4569  0.1161
 5437SOL    HW217211   2.552   5.543   5.796 -0.8391 -2.2508  1.1886
 5438SOL     OW17212   6.051   1.193   7.006 -0.6704 -0.3567 -0.7528
 5438SOL    HW117213   6.007   1.185   7.095 -0.7347 -0.7502 -0.8159
 5438SOL    HW217214   6.148   1.171   7.015 -0.2796  1.3531 -0.4525
 5439SOL     OW17215   0.782   2.636   0.452  0.4868 -0.3154 -0.3802
 5439SOL    HW117216   0.852   2.595   0.394  1.1473  0.5360 -0.2043
 5439SOL    HW217217   0.823   2.709   0.507 -0.2372 -0.7440  0.7629
 5440SOL     OW17218   2.059   0.769   6.911 -0.2177 -0.1954  0.0886
 5440SOL    HW117219   1.986   0.722   6.962  0.3030 -0.2721  0.7740
 5440SOL    HW217220   2.028   0.785   6.817 -0.9618 -0.5961  0.2515
 5441SOL     OW17221   4.241   4.515   6.460  0.1800 -0.1904 -0.0085
 5441SOL    HW117222   4.182   4.439   6.431  1.0057 -1.7572  2.1814
 5441SOL    HW217223   4.300   4.485   6.535  0.8898  2.5042  0.6218
 5442SOL     OW17224   3.756   0.434   0.608  0.0409 -0.2528  0.1884
 5442SOL    HW117225   3.681   0.407   0.549  0.2585 -0.0963 -0.1593
 5442SOL    HW217226   3.838   0.382   0.584 -0.0777 -0.7830  0.8913
 5443SOL     OW17227   2.932   4.729   6.104 -0.2193 -0.3607 -0.2982
 5443SOL    HW117228   2.935   4.762   6.198  0.0242 -1.1395 -0.0216
 5443SOL    HW217229   2.850   4.673   6.090 -0.3012 -0.1766 -0.5756
 5444SOL     OW17230   5.944   1.975   3.572 -0.5611 -0.1520  0.0850
 5444SOL    HW117231   5.931   1.973   3.473 -0.8946 -1.1247  0.1364
 5444SOL    HW217232   6.040   1.995   3.593 -0.4687 -0.0480 -0.4329
 5445SOL     OW17233   4.599   2.679   2.680  0.6465 -0.0884  0.3885
 5445SOL    HW117234   4.506   2.661   2.648  0.5114  0.2111  0.6044
 5445SOL    HW217235   4.663   2.621   2.631  0.4496  0.3762 -0.4431
 5446SOL     OW17236   0.070   5.724   6.018  0.3627 -0.0665  0.1413
 5446SOL    HW117237   0.054   5.717   6.117  0.4737  1.0235  0.2536
 5446SOL    HW217238   0.169   5.724   6.001  0.3460 -1.6861 -0.1099
 5447SOL     OW17239   4.141   3.529   6.787  0.2877  0.4573 -0.1593
 5447SOL    HW117240   4.084   3.455   6.751 -0.3210  0.1394  1.3788
 5447SOL    HW217241   4.143   3.605   6.721 -1.4525  0.2429 -0.5078
 5448SOL     OW17242   5.903   0.494   6.448  0.5937  0.0628 -1.5773
 5448SOL    HW117243   5.891   0.424   6.377  2.9228 -0.7788 -1.2053
 5448SOL    HW217244   5.814   0.516   6.487 -0.2073 -3.0809 -1.3604
 5449SOL     OW17245   0.494   4.654   6.182  0.2023 -0.1624 -0.8692
 5449SOL    HW117246   0.400   4.658   6.147 -0.6118 -0.6736  1.0986
 5449SOL    HW217247   0.509   4.732   6.243  0.7547 -0.5884 -0.4595
 5450SOL     OW17248   2.205   5.128   0.604 -0.2198  0.5726 -0.0033
 5450SOL    HW117249   2.237   5.046   0.558  0.4312  1.5389 -1.3510
 5450SOL    HW217250   2.277   5.163   0.665 -0.5031  0.1530  0.5826
 5451SOL     OW17251   1.435   1.213   4.240 -0.1916 -0.4269 -0.3233
 5451SOL    HW117252   1.414   1.282   4.309  0.7986  0.4964 -0.9040
 5451SOL    HW217253   1.444   1.257   4.150 -0.7546 -1.4972 -0.9263
 5452SOL     OW17254   6.843   3.356   6.166  0.0214 -0.0225 -0.3889
 5452SOL    HW117255   6.766   3.316   6.117  0.6483 -0.3446 -1.1172
 5452SOL    HW217256   6.838   3.456   6.159  0.3492 -0.0715 -1.4948
 5453SOL     OW17257   0.118   5.467   6.705 -0.1477  0.3286  0.2183
 5453SOL    HW117258   0.110   5.459   6.805 -2.7577 -0.6447  0.0177
 5453SOL    HW217259   0.072   5.551   6.675  0.7921  0.7121 -0.1681
 5454SOL     OW17260   0.099   3.320   6.283  0.0901 -0.2468  0.2234
 5454SOL    HW117261   0.012   3.335   6.236 -0.7371  1.9311  2.2824
 5454SOL    HW217262   0.174   3.345   6.221 -0.9446  2.3573 -0.0955
 5455SOL     OW17263   6.139   1.429   1.094 -0.8411  0.4967 -0.2593
 5455SOL    HW117264   6.143   1.468   1.002  2.2773 -0.3262 -0.5673
 5455SOL    HW217265   6.175   1.496   1.160  1.9059 -0.6884 -0.4279
 5456SOL     OW17266   5.120   5.728   0.631  0.0610  0.0935  0.3111
 5456SOL    HW117267   5.117   5.825   0.609 -0.5361  0.0705  0.2878
 5456SOL    HW217268   5.029   5.687   0.619  0.5458 -0.7196 -0.8464
 5457SOL     OW17269   1.380   1.470   2.678 -0.5462 -0.2378 -0.2830
 5457SOL    HW117270   1.353   1.454   2.583 -2.1697 -0.1018  0.1300
 5457SOL    HW217271   1.302   1.503   2.730  0.6126  0.8354  0.8580
 5458SOL     OW17272   3.556   3.885   5.907 -0.9520  0.4702  0.3254
 5458SOL    HW117273   3.494   3.893   5.829 -1.0758  0.7803  0.4563
 5458SOL    HW217274   3.504   3.883   5.992 -1.1989 -3.9465  0.3231
 5459SOL     OW17275   0.759   5.254   5.109  0.5314 -0.5019  0.0175
 5459SOL    HW117276   0.786   5.294   5.197  0.4355  0.2673 -0.2960
 5459SOL    HW217277   0.676   5.299   5.076  0.4052 -0.9839 -0.3347
 5460SOL     OW17278   4.827   6.939   3.358 -0.2137 -0.4716 -0.0733
 5460SOL    HW117279   4.728   6.951   3.370 -0.0559  0.1885  0.6786
 5460SOL    HW217280   4.872   6.941   3.448  0.5110 -0.4999 -0.4276
 5461SOL     OW17281   2.845   6.275   4.718  0.4270  0.0839 -0.3436
 5461SOL    HW117282   2.838   6.218   4.636 -1.4176  1.4483 -1.2196
 5461SOL    HW217283   2.854   6.217   4.798 -2.2708 -1.5810 -1.0951
 5462SOL     OW17284   0.327   0.986   1.869 -0.4628 -0.5680 -0.3301
 5462SOL    HW117285   0.360   0.926   1.796  2.0581 -1.2102  1.2440
 5462SOL    HW217286   0.312   0.934   1.952 -0.2040  0.6462  0.5078
 5463SOL     OW17287   6.891   4.340   1.521 -0.0867  0.8951  0.8071
 5463SOL    HW117288   6.991   4.336   1.512 -0.2133 -1.6734 -0.3987
 5463SOL    HW217289   6.849   4.293   1.444 -2.1749 -0.3774  2.6155
 5464SOL     OW17290   0.786   6.388   4.356 -0.6251 -0.0825  0.0279
 5464SOL    HW117291   0.820   6.331   4.281 -2.6558 -1.8644  0.3534
 5464SOL    HW217292   0.778   6.332   4.439 -0.4207  1.3174  1.0250
 5465SOL     OW17293   4.579   4.417   5.780 -0.3900  0.9617  0.4085
 5465SOL    HW117294   4.483   4.444   5.783 -0.3310  1.2088  0.0635
 5465SOL    HW217295   4.593   4.339   5.841 -1.0087  0.2918 -0.2830
 5466SOL     OW17296   5.336   6.772   3.893 -0.2895  0.2685  0.0293
 5466SOL    HW117297   5.358   6.802   3.800  0.3122 -0.8920 -0.2151
 5466SOL    HW217298   5.414   6.723   3.932 -0.6313  0.5096  1.0537
 5467SOL     OW17299   0.920   1.016   2.196 -0.4431 -0.3435 -0.1273
 5467SOL    HW117300   0.821   1.011   2.188 -0.5081  2.0313 -1.9767
 5467SOL    HW217301   0.945   1.082   2.267 -0.0800 -2.6290  1.9911
 5468SOL     OW17302   3.862   1.677   6.255  0.2033 -0.2680  0.1811
 5468SOL    HW117303   3.937   1.645   6.313 -0.4508 -1.6514  0.3042
 5468SOL    HW217304   3.831   1.602   6.197 -1.7554 -0.0421  0.8555
 5469SOL     OW17305   4.618   3.542   1.498  0.0485 -0.3820 -0.5307
 5469SOL    HW117306   4.688   3.563   1.566  1.4130  1.5076 -2.4030
 5469SOL    HW217307   4.558   3.622   1.486 -0.3848 -0.8114 -1.2962
 5470SOL     OW17308   5.789   4.780   2.463  0.3019 -0.2928 -0.1114
 5470SOL    HW117309   5.878   4.824   2.456  0.5551 -0.5716  1.1445
 5470SOL    HW217310   5.800   4.687   2.498 -0.4860 -0.3104  0.1144
 5471SOL     OW17311   6.464   3.543   1.566 -0.5639 -0.1231 -0.5399
 5471SOL    HW117312   6.505   3.470   1.512 -0.7787 -0.2477 -0.5347
 5471SOL    HW217313   6.377   3.511   1.606 -0.6288  0.1135 -0.4897
 5472SOL     OW17314   1.933   5.467   3.438 -0.3301  0.5286 -0.7714
 5472SOL    HW117315   1.927   5.543   3.503  0.1259  0.7554 -0.9853
 5472SOL    HW217316   2.022   5.469   3.392 -0.4065  0.0061 -0.9571
 5473SOL     OW17317   4.602   6.616   3.808  0.3225 -0.1980  0.0672
 5473SOL    HW117318   4.684   6.577   3.766  0.4880  0.4701 -0.2404
 5473SOL    HW217319   4.528   6.549   3.806  0.7231 -0.6355 -0.0867
 5474SOL     OW17320   1.320   6.136   4.563  0.1436 -0.1388 -0.1754
 5474SOL    HW117321   1.300   6.039   4.554 -1.0429  0.1371 -0.6279
 5474SOL    HW217322   1.310   6.181   4.475  1.4722  0.2805 -0.1454
 5475SOL     OW17323   3.191   0.756   0.741 -0.0035 -0.4696  0.7108
 5475SOL    HW117324   3.190   0.664   0.702 -0.9225 -1.3517  2.6834
 5475SOL    HW217325   3.285   0.791   0.740  0.3410 -1.3611 -0.1913
 5476SOL     OW17326   2.116   5.047   6.237  0.0605 -0.3516 -0.0396
 5476SOL    HW117327   2.195   5.002   6.281  1.3252  0.8368 -1.0104
 5476SOL    HW217328   2.103   5.009   6.146  1.3903  1.3874 -1.0320
 5477SOL     OW17329   1.770   3.327   2.711  0.4200 -0.3829  0.4904
 5477SOL    HW117330   1.724   3.396   2.767  1.4053  0.3200  0.4638
 5477SOL    HW217331   1.781   3.361   2.618  0.4479 -0.7990  0.3384
 5478SOL     OW17332   1.118   6.892   3.535  0.2869 -0.1284 -0.3038
 5478SOL    HW117333   1.050   6.892   3.461 -0.6411 -0.8142  0.5215
 5478SOL    HW217334   1.172   6.808   3.531  0.9643  0.3235 -0.8360
 5479SOL     OW17335   3.687   0.862   5.782  0.2534  0.0959  0.6534
 5479SOL    HW117336   3.689   0.765   5.756  2.0248  0.1014  0.6383
 5479SOL    HW217337   3.779   0.892   5.804  0.2210  2.4687 -1.9096
 5480SOL     OW17338   0.150   2.363   5.775  0.3984 -0.2928  0.1726
 5480SOL    HW117339   0.128   2.374   5.678  0.7788 -4.0132 -0.4537
 5480SOL    HW217340   0.066   2.371   5.829  0.0986  1.2136 -0.4448
 5481SOL     OW17341   4.263   6.855   0.133 -0.1141 -0.0934 -0.2629
 5481SOL    HW117342   4.323   6.935   0.124  0.0852 -0.2447 -0.3118
 5481SOL    HW217343   4.200   6.869   0.209 -0.3543  0.2828 -0.5286
 5482SOL     OW17344   2.563   6.260   2.417  0.2050  0.2909 -0.0155
 5482SOL    HW117345   2.623   6.337   2.440  1.1674 -0.3402 -0.3564
 5482SOL    HW217346   2.563   6.247   2.318 -0.4185  0.2206 -0.0043
 5483SOL     OW17347   1.394   1.278   6.247 -0.5050  0.6397  0.0425
 5483SOL    HW117348   1.391   1.242   6.154  0.7078 -2.5811  1.1317
 5483SOL    HW217349   1.452   1.360   6.249  2.5924 -1.3358 -1.5054
 5484SOL     OW17350   5.583   1.811   4.703 -0.1107 -0.4871 -0.0221
 5484SOL    HW117351   5.536   1.862   4.776  0.4572  0.8520 -0.5481
 5484SOL    HW217352   5.648   1.747   4.744 -0.3455 -0.3002  0.6638
 5485SOL     OW17353   3.197   0.125   2.961 -0.3264  0.5179 -0.9115
 5485SOL    HW117354   3.130   0.051   2.965 -0.2330  0.4635 -0.2438
 5485SOL    HW217355   3.207   0.166   3.051  1.1030  0.0110 -0.8082
 5486SOL     OW17356   2.241   5.708   5.727  0.2640 -0.0599  0.4848
 5486SOL    HW117357   2.287   5.662   5.803  0.0779 -1.4898 -0.2493
 5486SOL    HW217358   2.161   5.757   5.761 -0.2617 -1.3239  1.1228
 5487SOL     OW17359   2.861   6.844   5.872 -0.5087 -0.2567  0.0288
 5487SOL    HW117360   2.828   6.826   5.779  0.6961 -1.2161 -0.2396
 5487SOL    HW217361   2.958   6.821   5.878 -0.0924  1.6155  1.0418
 5488SOL     OW17362   6.065   1.014   5.360 -0.0478 -0.1250 -0.5661
 5488SOL    HW117363   5.998   1.073   5.406  0.4422  1.6985 -2.0743
 5488SOL    HW217364   6.139   1.070   5.323  0.6464 -1.7561 -1.7458
 5489SOL     OW17365   6.428   1.365   4.706  0.5678 -0.2375 -0.2188
 5489SOL    HW117366   6.340   1.329   4.738  0.1758  1.2682  0.4915
 5489SOL    HW217367   6.433   1.359   4.607 -0.0872 -0.8896 -0.2143
 5490SOL     OW17368   1.904   5.237   1.992 -0.2932 -0.2199  0.6901
 5490SOL    HW117369   1.879   5.142   2.012  1.6200 -0.4477  2.3796
 5490SOL    HW217370   1.981   5.238   1.928 -1.6973  0.3233 -1.0815
 5491SOL     OW17371   1.982   2.655   6.790 -0.5033  0.7189 -0.3302
 5491SOL    HW117372   1.994   2.562   6.823 -1.0362  0.5570 -0.5821
 5491SOL    HW217373   2.005   2.659   6.693 -1.7136  0.5622 -0.6367
 5492SOL     OW17374   2.369   2.475   1.492  0.0355 -0.8484  0.3837
 5492SOL    HW117375   2.377   2.551   1.556 -1.0061 -0.5817  0.2117
 5492SOL    HW217376   2.407   2.502   1.403  0.4143 -0.8172  0.5528
 5493SOL     OW17377   4.846   5.252   6.197  0.5883  0.0717  0.5015
 5493SOL    HW117378   4.836   5.187   6.122  1.1609 -1.8857  2.0063
 5493SOL    HW217379   4.767   5.313   6.200  0.9502  0.7641 -2.1315
 5494SOL     OW17380   1.349   1.703   5.111 -0.1282 -0.7094  0.2496
 5494SOL    HW117381   1.446   1.697   5.087 -0.6604 -0.4552 -2.2365
 5494SOL    HW217382   1.321   1.799   5.116 -0.8059 -0.7562 -1.7903
 5495SOL     OW17383   4.395   0.000   6.389 -0.5625 -0.1371 -0.3581
 5495SOL    HW117384   4.447  -0.049   6.319 -0.2615  0.7661 -0.7844
 5495SOL    HW217385   4.450   0.006   6.472 -0.0435  0.6472 -0.7460
 5496SOL     OW17386   4.048   6.283   0.416  0.1672  0.1047  0.0427
 5496SOL    HW117387   3.975   6.241   0.470 -0.5666  0.3186 -0.7633
 5496SOL    HW217388   4.113   6.213   0.386  0.4658 -0.0453  1.0094
 5497SOL     OW17389   1.169   1.784   5.873  0.2563  0.0966 -0.4930
 5497SOL    HW117390   1.070   1.775   5.879  0.1747  1.1842 -0.0366
 5497SOL    HW217391   1.212   1.720   5.938 -0.2047  0.8579  0.5852
 5498SOL     OW17392   0.685   4.665   1.275 -0.0169  0.1269 -0.1069
 5498SOL    HW117393   0.741   4.586   1.298  0.3319 -0.0415 -1.4754
 5498SOL    HW217394   0.716   4.705   1.189 -0.5615  1.4020  0.2571
 5499SOL     OW17395   1.450   1.137   3.768 -0.2154  0.9222 -0.0386
 5499SOL    HW117396   1.410   1.228   3.763 -1.1962  0.4417 -2.3453
 5499SOL    HW217397   1.464   1.102   3.675 -0.3039 -1.4461  0.7767
 5500SOL     OW17398   1.580   0.597   3.160 -0.4635 -0.1659 -0.2058
 5500SOL    HW117399   1.621   0.666   3.220  1.0239 -1.5509  0.4495
 5500SOL    HW217400   1.574   0.634   3.067 -3.8875  2.4510  0.8436
 5501SOL     OW17401   5.196   1.708   6.385 -0.4218  0.2753 -0.2522
 5501SOL    HW117402   5.262   1.639   6.353 -0.0026 -0.1447  1.4464
 5501SOL    HW217403   5.139   1.669   6.456 -2.3788  0.7228 -1.5029
 5502SOL     OW17404   5.389   4.433   0.072 -0.0554  0.0216 -0.2973
 5502SOL    HW117405   5.427   4.374   0.001  0.1219  0.3995 -0.5181
 5502SOL    HW217406   5.463   4.484   0.116  0.0810 -1.6405  1.4992
 5503SOL     OW17407   6.830   2.294   0.921  0.2783 -0.0890  0.1935
 5503SOL    HW117408   6.922   2.313   0.887  1.0829 -2.2222  0.9745
 5503SOL    HW217409   6.829   2.303   1.021 -0.8506  1.6169  0.0619
 5504SOL     OW17410   5.127   2.935   0.914 -0.4124  0.1189  0.7184
 5504SOL    HW117411   5.041   2.964   0.872 -0.1215 -0.6349 -0.4503
 5504SOL    HW217412   5.186   3.014   0.928  0.2148  0.2439 -2.0492
 5505SOL     OW17413   4.238   5.836   3.018  0.0205 -0.1581 -0.5009
 5505SOL    HW117414   4.146   5.844   2.980  0.4682 -0.9935 -1.8581
 5505SOL    HW217415   4.279   5.927   3.027 -1.7012  0.4433  2.2495
 5506SOL     OW17416   6.631   3.166   0.048  0.1108 -0.0621 -0.1640
 5506SOL    HW117417   6.697   3.102   0.088  2.1410  0.5484 -2.3319
 5506SOL    HW217418   6.665   3.259   0.057 -2.1018  0.6659  1.6012
 5507SOL     OW17419   3.202   0.696   6.158 -0.1838 -0.2778  0.0818
 5507SOL    HW117420   3.258   0.652   6.228 -0.5909  0.3018  0.7815
 5507SOL    HW217421   3.118   0.731   6.199 -1.0067 -1.0084 -0.9375
 5508SOL     OW17422   5.516   4.204   6.898  0.1053 -0.4618 -0.0273
 5508SOL    HW117423   5.540   4.209   6.801  0.9759 -0.2965  0.1871
 5508SOL    HW217424   5.593   4.236   6.954 -0.6084  0.0265  0.6999
 5509SOL     OW17425   7.001   3.358   2.301 -0.3885 -0.4237 -0.0924
 5509SOL    HW117426   7.000   3.383   2.398 -1.2758  1.6432 -0.5573
 5509SOL    HW217427   6.925   3.405   2.255  1.3221  0.4496 -2.1754
 5510SOL     OW17428   5.502   6.307   6.892 -0.0543 -0.5294  0.9335
 5510SOL    HW117429   5.411   6.268   6.878  0.3054 -0.7054 -1.1711
 5510SOL    HW217430   5.497   6.406   6.884 -0.0599 -0.5401  0.7986
 5511SOL     OW17431   1.796   1.920   5.580 -0.0163 -0.2848  0.7107
 5511SOL    HW117432   1.725   1.874   5.633 -0.0529 -1.3029 -0.1867
 5511SOL    HW217433   1.831   1.858   5.510  0.0595  0.9977 -0.4297
 5512SOL     OW17434   2.524   5.177   2.540  0.4393  0.2294 -0.4933
 5512SOL    HW117435   2.436   5.205   2.579  1.0231  1.0214  0.2780
 5512SOL    HW217436   2.511   5.094   2.485 -0.7719  0.2895 -0.3179
 5513SOL     OW17437   4.312   2.891   0.231 -0.2239  0.3977 -0.1281
 5513SOL    HW117438   4.383   2.836   0.185 -1.0907 -0.0125 -1.0011
 5513SOL    HW217439   4.288   2.847   0.318  0.2719  0.3063 -0.0291
 5514SOL     OW17440   4.946   2.130   1.688 -0.5536 -0.4504 -0.3884
 5514SOL    HW117441   5.007   2.121   1.767  0.9619 -2.9193 -1.7163
 5514SOL    HW217442   4.880   2.055   1.689 -0.8822 -0.1754 -1.1584
 5515SOL     OW17443   3.432   4.986   3.098 -0.1301  0.6275  0.1303
 5515SOL    HW117444   3.456   5.050   3.025  1.7347 -0.5603 -0.3735
 5515SOL    HW217445   3.452   5.028   3.187  2.2078  0.4025 -0.2236
 5516SOL     OW17446   0.762   2.845   5.431 -0.3408 -0.2995 -0.1896
 5516SOL    HW117447   0.855   2.854   5.466 -0.1212  0.3999 -0.9333
 5516SOL    HW217448   0.706   2.920   5.467 -0.7616 -1.0037  0.6680
 5517SOL     OW17449   0.574   2.758   4.579  0.0701 -0.4591  0.0494
 5517SOL    HW117450   0.650   2.787   4.638 -0.0120  2.3104 -1.0577
 5517SOL    HW217451   0.556   2.661   4.594  2.3187 -0.6795  1.9966
 5518SOL     OW17452   3.677   4.667   0.754 -0.2781  0.0136 -0.1955
 5518SOL    HW117453   3.605   4.692   0.819  0.8846  1.2757  0.6504
 5518SOL    HW217454   3.651   4.699   0.662 -1.8274 -1.5931 -0.3907
 5519SOL     OW17455   4.854   1.313   5.038  0.1406  0.2762  0.3024
 5519SOL    HW117456   4.870   1.216   5.056 -1.5240  0.0850  0.9463
 5519SOL    HW217457   4.930   1.350   4.984  1.3525 -1.1021  0.9752
 5520SOL     OW17458   3.697   6.398   1.076  0.0133 -0.5281 -0.3160
 5520SOL    HW117459   3.779   6.455   1.083 -1.2006  1.1766  0.8393
 5520SOL    HW217460   3.674   6.360   1.165 -0.8025 -0.4682 -0.4919
 5521SOL     OW17461   4.913   4.808   3.685  0.1539  0.1948 -0.1753
 5521SOL    HW117462   4.995   4.753   3.667  1.8745  2.0921  1.4521
 5521SOL    HW217463   4.884   4.796   3.780 -1.6682 -0.6381 -0.7909
 5522SOL     OW17464   6.407   0.260   6.398  0.4641 -0.4252 -0.0924
 5522SOL    HW117465   6.370   0.321   6.327  0.1730 -1.8758 -1.2349
 5522SOL    HW217466   6.466   0.191   6.355  1.1191 -0.7140  1.2189
 5523SOL     OW17467   6.805   1.253   2.059 -0.0059 -0.1206  0.0165
 5523SOL    HW117468   6.758   1.302   2.132  2.3206  3.6385 -0.7271
 5523SOL    HW217469   6.887   1.210   2.095 -1.5898 -3.0272  0.4849
 5524SOL     OW17470   2.331   1.620   2.080 -0.2396  0.1247  0.4522
 5524SOL    HW117471   2.409   1.573   2.123  0.0342 -1.2743 -1.4358
 5524SOL    HW217472   2.364   1.704   2.035 -0.2572  0.7432  1.5494
 5525SOL     OW17473   6.919   1.182   6.773  0.1908 -0.5609  0.0566
 5525SOL    HW117474   6.959   1.156   6.861  0.7921  0.2572  0.0241
 5525SOL    HW217475   6.822   1.156   6.772 -0.0645  0.2792  1.3256
 5526SOL     OW17476   5.005   4.396   4.301  0.5205 -1.0736  0.5488
 5526SOL    HW117477   5.033   4.426   4.392 -0.4004  1.8145 -0.0156
 5526SOL    HW217478   4.907   4.374   4.302  0.3461 -0.3445  0.1239
 5527SOL     OW17479   6.695   6.310   0.588  0.5157 -0.0559 -0.1556
 5527SOL    HW117480   6.646   6.272   0.509 -0.6316 -0.0015  0.5035
 5527SOL    HW217481   6.650   6.395   0.617  1.9003  0.7980 -0.4287
 5528SOL     OW17482   3.384   1.526   0.152  0.1385 -0.5632  0.3616
 5528SOL    HW117483   3.379   1.626   0.146  1.0427 -0.5575 -0.5773
 5528SOL    HW217484   3.300   1.486   0.115  0.6572 -0.1771 -1.3272
 5529SOL     OW17485   2.775   1.873   2.276  0.2396  0.3290 -0.0347
 5529SOL    HW117486   2.839   1.867   2.199 -1.6681  0.8043 -1.7403
 5529SOL    HW217487   2.815   1.931   2.347  1.7400  0.5393 -0.9895
 5530SOL     OW17488   0.563   1.932   0.520  0.1310 -0.4071 -0.0878
 5530SOL    HW117489   0.529   1.840   0.497 -0.9717 -0.5449  1.8937
 5530SOL    HW217490   0.550   1.992   0.442 -3.1747 -0.9004 -0.0959
 5531SOL     OW17491   2.732   4.489   5.348 -0.0767  0.2492 -0.0211
 5531SOL    HW117492   2.812   4.482   5.290  1.0407  1.4345  1.3119
 5531SOL    HW217493   2.692   4.580   5.340 -0.4914  0.1032  0.3274
 5532SOL     OW17494   0.973   5.570   5.658 -0.4815 -0.4074  0.9315
 5532SOL    HW117495   0.953   5.482   5.702  0.6174 -0.1055  2.0735
 5532SOL    HW217496   1.070   5.576   5.636 -0.7747 -0.0060 -0.3955
 5533SOL     OW17497   6.066   2.792   3.338  0.4887 -0.1512 -0.0141
 5533SOL    HW117498   6.002   2.771   3.411 -0.8441 -0.4450 -1.2327
 5533SOL    HW217499   6.113   2.878   3.359 -1.3174  0.8066  0.2456
 5534SOL     OW17500   2.617   0.174   6.127  0.4965 -0.3927 -0.3593
 5534SOL    HW117501   2.534   0.220   6.157  0.8726  0.3472 -0.4209
 5534SOL    HW217502   2.593   0.091   6.077 -0.1533 -1.2555  1.3180
 5535SOL     OW17503   6.546   6.336   2.643 -0.6547 -0.0798  0.3118
 5535SOL    HW117504   6.615   6.391   2.595 -3.7463  3.9670 -0.0772
 5535SOL    HW217505   6.561   6.343   2.742 -0.3260  0.5439  0.2265
 5536SOL     OW17506   4.264   0.172   5.415  0.1116  0.4924 -0.2565
 5536SOL    HW117507   4.166   0.156   5.430  0.0736  0.9377 -0.0162
 5536SOL    HW217508   4.290   0.138   5.325 -0.7175  2.2652 -1.2074
 5537SOL     OW17509   2.119   3.090   2.135  0.0718 -0.6090 -0.1873
 5537SOL    HW117510   2.163   3.051   2.216  0.4447  1.5702  0.7029
 5537SOL    HW217511   2.185   3.144   2.083 -0.8622  0.4503 -0.3116
 5538SOL     OW17512   3.426   5.678   3.989 -0.8207 -0.6639 -0.0253
 5538SOL    HW117513   3.358   5.687   3.916 -1.0280  2.2307  0.4060
 5538SOL    HW217514   3.393   5.724   4.071  1.1467 -0.2899  0.6027
 5539SOL     OW17515   2.417   4.916   6.982 -0.5829 -0.2499  0.0986
 5539SOL    HW117516   2.434   4.930   6.884  2.5519  0.6612  0.6716
 5539SOL    HW217517   2.478   4.844   7.017 -1.5618 -0.4730  1.4288
 5540SOL     OW17518   3.694   6.111   2.242 -0.0268 -0.1126  0.0053
 5540SOL    HW117519   3.731   6.163   2.318  1.2213 -0.9245 -0.0245
 5540SOL    HW217520   3.594   6.122   2.239  0.0243  0.7677  1.1006
 5541SOL     OW17521   5.352   0.082   0.297  0.2442 -0.0374  0.0237
 5541SOL    HW117522   5.438   0.133   0.291 -0.7078  1.5511 -0.8049
 5541SOL    HW217523   5.358   0.015   0.370  2.0226  0.3661  0.2858
 5542SOL     OW17524   5.435   3.100   6.309 -0.5285  0.2014 -0.1868
 5542SOL    HW117525   5.489   3.184   6.312 -0.9881  0.4894  0.4387
 5542SOL    HW217526   5.468   3.037   6.380 -0.6631  0.1545 -0.1659
 5543SOL     OW17527   0.086   1.915   4.350 -0.6281 -0.0382 -0.0563
 5543SOL    HW117528   0.101   1.852   4.274  2.4499  0.1143  0.2989
 5543SOL    HW217529   0.054   2.003   4.316 -0.1051 -0.2415 -1.0976
 5544SOL     OW17530   6.246   0.197   2.162  0.0404  0.2544 -0.5026
 5544SOL    HW117531   6.211   0.284   2.197  0.4002  0.7392 -1.3171
 5544SOL    HW217532   6.343   0.209   2.137  1.3392 -1.3842  3.0083
 5545SOL     OW17533   3.351   1.809   1.855 -0.0991 -0.0721 -0.4113
 5545SOL    HW117534   3.406   1.892   1.841 -0.8765  0.8435  1.6598
 5545SOL    HW217535   3.391   1.754   1.928 -0.4407 -0.7594 -0.7346
 5546SOL     OW17536   2.049   5.023   4.151 -0.3398  0.1112  0.4288
 5546SOL    HW117537   2.121   5.041   4.083  1.9921  1.5197  3.0297
 5546SOL    HW217538   1.984   5.099   4.151  0.1005  0.4954  0.3053
 5547SOL     OW17539   5.508   4.042   2.649  0.3699 -0.2071 -0.4192
 5547SOL    HW117540   5.601   4.017   2.623 -0.1325 -0.8840 -1.6886
 5547SOL    HW217541   5.444   4.006   2.581 -0.8639 -0.1693  0.6802
 5548SOL     OW17542   4.222   1.431   4.163 -0.7062 -0.3635  0.5780
 5548SOL    HW117543   4.297   1.387   4.113  0.8539  0.7930  1.7708
 5548SOL    HW217544   4.222   1.398   4.257 -1.2408  0.1762  0.7734
 5549SOL     OW17545   3.209   3.736   5.811 -0.4293 -0.4596 -0.9524
 5549SOL    HW117546   3.181   3.761   5.718  1.2149  0.3202 -1.2878
 5549SOL    HW217547   3.294   3.684   5.807 -0.5853 -0.8121  0.1019
 5550SOL     OW17548   2.862   6.173   0.762  0.0875  0.2448 -0.4175
 5550SOL    HW117549   2.776   6.149   0.808 -0.1781  1.9513  0.0758
 5550SOL    HW217550   2.896   6.095   0.710 -2.1312 -0.2566 -1.2024
 5551SOL     OW17551   1.761   0.776   3.859 -0.1497 -0.2997  0.0158
 5551SOL    HW117552   1.687   0.841   3.841 -1.2425 -1.3975  0.3783
 5551SOL    HW217553   1.779   0.722   3.776 -1.2623 -1.4839  0.5088
 5552SOL     OW17554   2.013   4.873   1.785 -0.4656  0.4281 -0.5505
 5552SOL    HW117555   2.106   4.881   1.823 -1.1043  1.3524  0.9377
 5552SOL    HW217556   2.008   4.794   1.724  0.6597 -1.1763  1.3212
 5553SOL     OW17557   5.352   5.290   4.394 -0.3537 -0.2603 -0.0683
 5553SOL    HW117558   5.429   5.293   4.457  0.8753  0.4527 -1.5534
 5553SOL    HW217559   5.337   5.381   4.356 -1.7979 -0.4362  0.0283
 5554SOL     OW17560   4.097   5.973   6.767  0.1817 -0.4694 -0.2384
 5554SOL    HW117561   4.073   5.884   6.805  1.7569 -1.5613 -1.6233
 5554SOL    HW217562   4.195   5.975   6.746 -0.1501  0.9260 -1.9144
 5555SOL     OW17563   1.331   5.872   2.035  0.3235 -0.6539 -0.2287
 5555SOL    HW117564   1.294   5.961   2.060  2.0407 -0.4141  1.6991
 5555SOL    HW217565   1.283   5.801   2.087  1.6235 -0.4499  1.3264
 5556SOL     OW17566   1.772   1.424   3.945 -0.2227  0.2106  0.1863
 5556SOL    HW117567   1.773   1.326   3.965  1.0043 -0.1826 -1.5054
 5556SOL    HW217568   1.866   1.459   3.948 -0.3947  0.8582 -1.2166
 5557SOL     OW17569   2.477   1.271   2.014 -0.1661 -0.2461 -0.2349
 5557SOL    HW117570   2.480   1.270   1.914 -0.9493 -1.2746 -0.2607
 5557SOL    HW217571   2.522   1.189   2.050 -0.1616 -0.0342  0.2505
 5558SOL     OW17572   0.420   2.203   0.547 -0.0426 -0.0888 -0.0053
 5558SOL    HW117573   0.453   2.270   0.614 -0.2077  0.4679 -0.4669
 5558SOL    HW217574   0.387   2.122   0.594  0.2874  0.1016  0.5611
 5559SOL     OW17575   2.291   0.070   4.183  0.3742 -0.1019  0.0489
 5559SOL    HW117576   2.390   0.056   4.182  0.3678 -0.3240 -1.8105
 5559SOL    HW217577   2.261   0.099   4.092 -0.9045  2.8594  1.2795
 5560SOL     OW17578   1.780   6.795   5.594 -0.2084 -0.4340  0.2981
 5560SOL    HW117579   1.746   6.887   5.615 -0.2870 -0.6568  1.1874
 5560SOL    HW217580   1.726   6.756   5.520 -0.9055 -0.1890  0.6673
 5561SOL     OW17581   1.767   5.093   4.976  0.7209  0.0746  0.9011
 5561SOL    HW117582   1.847   5.034   4.972  0.4651 -0.2365 -1.2205
 5561SOL    HW217583   1.732   5.107   4.883 -0.8120  1.4007  1.6275
 5562SOL     OW17584   0.041   2.455   5.531  0.2888  0.5033  0.4830
 5562SOL    HW117585   0.016   2.447   5.434 -0.3659 -0.3119  0.7168
 5562SOL    HW217586   0.008   2.543   5.566 -0.8007  0.1573  0.3507
 5563SOL     OW17587   5.544   4.664   6.198  0.3787  0.3781 -0.5219
 5563SOL    HW117588   5.638   4.698   6.202  0.0837  1.2334  3.6535
 5563SOL    HW217589   5.488   4.726   6.144  1.6803  1.3503 -0.8016
 5564SOL     OW17590   0.357   1.782   2.017  0.1596 -0.0289 -0.1683
 5564SOL    HW117591   0.285   1.851   2.010 -0.2779 -0.4499  0.1202
 5564SOL    HW217592   0.397   1.783   2.109  3.1287  2.7446 -1.3030
 5565SOL     OW17593   6.332   2.347   4.825 -0.0117 -1.1507  0.3121
 5565SOL    HW117594   6.364   2.433   4.865  1.8187 -1.5316 -0.2553
 5565SOL    HW217595   6.232   2.350   4.815 -0.0666  0.5718  1.0266
 5566SOL     OW17596   1.984   4.885   0.199 -0.1293 -0.1002  0.0043
 5566SOL    HW117597   2.010   4.960   0.259 -0.3294 -0.1480  0.1513
 5566SOL    HW217598   1.947   4.921   0.113 -1.6015 -0.0106  0.6536
 5567SOL     OW17599   1.013   3.463   4.135  0.1460  0.3402  0.7138
 5567SOL    HW117600   1.061   3.399   4.194 -0.5618 -0.8138  0.0780
 5567SOL    HW217601   1.078   3.503   4.070  0.6150  0.3286  1.1739
 5568SOL     OW17602   5.477   1.540   6.638  0.0281 -0.0464  0.5372
 5568SOL    HW117603   5.380   1.564   6.645  0.0085  0.0872 -0.2011
 5568SOL    HW217604   5.520   1.592   6.565  0.8920  0.6159  1.4920
 5569SOL     OW17605   4.766   0.432   5.049 -0.2963  0.3952  0.0759
 5569SOL    HW117606   4.792   0.496   5.121  0.6695 -0.0296  0.1205
 5569SOL    HW217607   4.699   0.474   4.989 -0.3341  1.1241  0.6228
 5570SOL     OW17608   2.823   2.870   6.391 -0.2323 -0.6409 -0.0551
 5570SOL    HW117609   2.761   2.947   6.407 -1.4775 -1.4708 -0.7045
 5570SOL    HW217610   2.899   2.874   6.456  0.2046  1.5973 -0.6461
 5571SOL     OW17611   1.258   5.852   0.029  0.2043  0.0494 -0.2189
 5571SOL    HW117612   1.224   5.889   0.115 -0.2346  0.4978 -0.5813
 5571SOL    HW217613   1.185   5.853  -0.039  1.0339  1.4501 -1.1421
 5572SOL     OW17614   1.471   2.908   4.982 -0.1239  0.4293  0.8449
 5572SOL    HW117615   1.399   2.946   4.923  0.0857  2.8714  2.0751
 5572SOL    HW217616   1.450   2.927   5.077  1.7010  0.3533  1.2934
 5573SOL     OW17617   1.606   3.400   0.722 -0.1945 -0.0754  0.2812
 5573SOL    HW117618   1.696   3.364   0.699  0.0343  0.3972  0.4240
 5573SOL    HW217619   1.598   3.494   0.688 -0.3051  0.1915  1.0277
 5574SOL     OW17620   0.640   6.568   4.202  0.9822 -0.2045 -0.7773
 5574SOL    HW117621   0.644   6.486   4.258 -1.2744 -0.1802 -0.5232
 5574SOL    HW217622   0.716   6.567   4.136  2.0522 -1.5599  0.4139
 5575SOL     OW17623   0.044   2.155   1.605  0.4524 -0.1253  0.5636
 5575SOL    HW117624   0.056   2.134   1.702  1.9966 -0.2508  0.3670
 5575SOL    HW217625   0.040   2.254   1.592  1.4726 -0.0669  0.6405
 5576SOL     OW17626   5.709   0.016   5.499 -0.4609 -0.1855 -0.3998
 5576SOL    HW117627   5.701   0.084   5.572 -0.3692 -0.7047  0.1013
 5576SOL    HW217628   5.618  -0.017   5.473 -0.4327 -0.8229  0.2739
 5577SOL     OW17629   2.494   5.407   6.659 -1.0079  0.2961 -0.0298
 5577SOL    HW117630   2.538   5.330   6.705 -0.8995  0.5517  0.2979
 5577SOL    HW217631   2.415   5.437   6.713 -0.6898  0.8042  0.1599
 5578SOL     OW17632   5.631   0.533   6.584  0.1968 -0.1053 -0.2269
 5578SOL    HW117633   5.547   0.552   6.533 -0.2898 -1.9711 -0.2116
 5578SOL    HW217634   5.616   0.549   6.681 -0.5142 -1.3942 -0.0941
 5579SOL     OW17635   5.087   4.504   3.363  0.0977 -0.1355  0.2590
 5579SOL    HW117636   5.091   4.424   3.303  0.1111  0.7824 -0.9725
 5579SOL    HW217637   5.177   4.547   3.368 -0.3340  0.9053 -0.6087
 5580SOL     OW17638   0.637   1.308   2.245  0.2085 -0.0352  0.5159
 5580SOL    HW117639   0.547   1.350   2.237  0.4416  0.2311 -1.1385
 5580SOL    HW217640   0.635   1.217   2.204  1.5772  1.4910 -3.4523
 5581SOL     OW17641   3.268   3.977   0.807 -0.2111  0.8532  0.1352
 5581SOL    HW117642   3.306   4.065   0.835 -2.6514  2.1084 -0.2855
 5581SOL    HW217643   3.271   3.969   0.708 -0.5598  0.7262  0.1341
 5582SOL     OW17644   3.537   3.466   4.059 -0.6639  0.1721  0.7130
 5582SOL    HW117645   3.465   3.408   4.097  0.8594  0.0846  3.6912
 5582SOL    HW217646   3.608   3.408   4.019 -1.1515  0.2069 -0.2590
 5583SOL     OW17647   3.084   6.316   6.941 -0.6234 -0.3475 -0.1428
 5583SOL    HW117648   3.068   6.345   6.846 -1.5561 -0.6521 -0.0831
 5583SOL    HW217649   3.117   6.222   6.941  2.7382  0.6823 -0.3592
 5584SOL     OW17650   3.569   5.872   3.725  0.1220 -0.4378 -0.4731
 5584SOL    HW117651   3.616   5.917   3.650  0.5459 -2.1804 -1.3051
 5584SOL    HW217652   3.601   5.909   3.812  0.0696  1.1818 -1.1052
 5585SOL     OW17653   0.971   0.784   3.803  0.7349 -0.1954  0.1535
 5585SOL    HW117654   0.906   0.821   3.737 -0.2637 -0.0490  1.1889
 5585SOL    HW217655   0.972   0.842   3.885  3.3860  0.7580 -0.4335
 5586SOL     OW17656   1.322   2.183   1.527  0.3857  0.2909  0.2024
 5586SOL    HW117657   1.382   2.122   1.475 -1.4591 -0.4527 -1.1777
 5586SOL    HW217658   1.348   2.278   1.510  3.3843  0.0213  2.4859
 5587SOL     OW17659   2.455   6.673   2.065 -0.2600 -0.3117 -0.6768
 5587SOL    HW117660   2.458   6.737   1.988 -1.2048 -0.1109 -0.5620
 5587SOL    HW217661   2.362   6.636   2.073  0.2365 -1.5908 -0.6549
 5588SOL     OW17662   5.560   5.217   0.295 -0.3908  0.2966 -0.2859
 5588SOL    HW117663   5.507   5.144   0.338  0.9741 -0.6075 -0.0752
 5588SOL    HW217664   5.564   5.296   0.356 -1.5106  0.4099 -0.3309
 5589SOL     OW17665   2.702   1.846   6.574  0.7493  0.2448  0.1680
 5589SOL    HW117666   2.742   1.927   6.529  0.9068  0.1531  0.1401
 5589SOL    HW217667   2.692   1.773   6.507  0.7486  0.1910  0.2272
 5590SOL     OW17668   6.247   0.850   4.951  0.3360 -0.1924  0.0093
 5590SOL    HW117669   6.198   0.786   4.891  0.2038 -0.1175  0.0386
 5590SOL    HW217670   6.219   0.943   4.930 -1.6844 -0.2971  1.9407
 5591SOL     OW17671   5.587   1.605   5.078  0.2305 -0.2692 -0.5339
 5591SOL    HW117672   5.533   1.623   4.996  0.8475  0.9469 -0.7035
 5591SOL    HW217673   5.684   1.624   5.059  0.2477  1.1074  0.7711
 5592SOL     OW17674   1.796   3.569   3.182  0.0539 -0.6293  0.7747
 5592SOL    HW117675   1.774   3.618   3.267 -0.3663  0.0707  0.2693
 5592SOL    HW217676   1.882   3.603   3.145 -0.2308 -0.2831  0.4301
 5593SOL     OW17677   3.591   4.175   5.193  0.1288  0.5774 -0.1056
 5593SOL    HW117678   3.631   4.125   5.117  0.8150  0.8937  0.0442
 5593SOL    HW217679   3.493   4.189   5.176 -1.4717 -5.0350  1.9317
 5594SOL     OW17680   2.451   2.118   6.212  0.2750 -0.5321 -0.7571
 5594SOL    HW117681   2.390   2.137   6.135  1.0143  1.0226 -0.9898
 5594SOL    HW217682   2.524   2.055   6.182 -0.5707 -1.5294 -0.7652
 5595SOL     OW17683   0.090   5.749   0.526 -0.2328  0.2179  0.3138
 5595SOL    HW117684   0.060   5.826   0.469 -2.3546  0.4218  1.6034
 5595SOL    HW217685   0.030   5.741   0.605  0.4899 -2.2562  0.6884
 5596SOL     OW17686   5.026   4.243   4.599 -0.1566 -0.5001  0.0835
 5596SOL    HW117687   5.036   4.337   4.567  0.3664 -0.9686 -1.1917
 5596SOL    HW217688   4.932   4.229   4.632 -0.0901  0.5986  0.8016
 5597SOL     OW17689   0.409   0.722   5.624  0.1724 -0.3969 -0.0083
 5597SOL    HW117690   0.387   0.816   5.599 -1.3879 -0.6515  0.3001
 5597SOL    HW217691   0.355   0.659   5.568 -1.2777 -1.0236  1.9775
 5598SOL     OW17692   6.932   1.172   3.860 -0.4280 -0.0585  0.2666
 5598SOL    HW117693   7.030   1.186   3.875 -0.5727 -0.1560  1.4691
 5598SOL    HW217694   6.893   1.127   3.941 -1.4455 -0.0920 -0.2325
 5599SOL     OW17695   4.374   2.241   0.648 -0.1466 -0.1322 -0.6748
 5599SOL    HW117696   4.303   2.170   0.640 -1.1806  0.8710 -0.6809
 5599SOL    HW217697   4.455   2.203   0.692 -1.0611 -1.0593  0.2437
 5600SOL     OW17698   1.820   4.368   3.322  0.3336 -0.0391 -0.0022
 5600SOL    HW117699   1.839   4.429   3.245  0.6609  0.3140  0.3601
 5600SOL    HW217700   1.894   4.301   3.330 -0.1631 -0.6762 -0.5770
 5601SOL     OW17701   1.265   1.166   6.735 -0.0513 -0.2611 -0.0229
 5601SOL    HW117702   1.292   1.070   6.727  0.2655 -0.1261 -0.5994
 5601SOL    HW217703   1.275   1.212   6.646 -0.5604  0.2129  0.1564
 5602SOL     OW17704   5.126   0.541   3.078  0.0510 -0.1917 -0.0216
 5602SOL    HW117705   5.171   0.623   3.112 -1.0737  0.6764 -0.5822
 5602SOL    HW217706   5.196   0.475   3.049  0.9631  0.6866  0.1090
 5603SOL     OW17707   3.013   2.234   0.441  0.2006  0.1948 -0.0508
 5603SOL    HW117708   2.961   2.292   0.504 -0.7500 -1.4790  0.7613
 5603SOL    HW217709   2.972   2.143   0.437  3.1201 -1.3119  0.8063
 5604SOL     OW17710   1.610   6.433   3.034  0.1228 -0.1754 -0.4781
 5604SOL    HW117711   1.690   6.492   3.028 -1.1959  1.7668  0.2234
 5604SOL    HW217712   1.633   6.351   3.087  1.2419  1.1039  1.1313
 5605SOL     OW17713   3.878   0.449   4.339 -0.3723  0.0674 -0.2106
 5605SOL    HW117714   3.877   0.546   4.316  1.4076 -0.3686 -2.4451
 5605SOL    HW217715   3.808   0.401   4.287  1.4205 -0.4025 -2.3064
 5606SOL     OW17716   4.727   3.951   0.177  0.7897  0.2568  0.2583
 5606SOL    HW117717   4.803   4.011   0.153  0.5255  0.2042 -0.7556
 5606SOL    HW217718   4.652   4.006   0.214 -0.3077  0.9365 -2.6747
 5607SOL     OW17719   1.664   1.805   2.707  0.8630 -0.2149 -0.4522
 5607SOL    HW117720   1.590   1.778   2.768  0.0089  1.9519 -0.4454
 5607SOL    HW217721   1.751   1.775   2.746  0.0974 -1.9276  0.0379
 5608SOL     OW17722   6.571   5.865   3.397  0.5318  0.7470 -0.0051
 5608SOL    HW117723   6.659   5.843   3.356 -0.1220  1.5047 -1.9575
 5608SOL    HW217724   6.498   5.837   3.335 -0.6288  0.1843  1.5440
 5609SOL     OW17725   6.962   0.718   6.379 -0.0727  0.5495  0.3279
 5609SOL    HW117726   6.965   0.627   6.422 -1.2305  0.2950 -0.0837
 5609SOL    HW217727   7.026   0.721   6.303  0.7929  0.4627  1.0276
 5610SOL     OW17728   5.786   6.184   0.575 -0.0612  0.1119 -0.2451
 5610SOL    HW117729   5.856   6.114   0.585  0.3230  0.6594  1.1178
 5610SOL    HW217730   5.761   6.219   0.666 -2.2431 -0.2122 -0.6601
 5611SOL     OW17731   0.346   3.491   3.520  0.3265 -0.5073  0.3585
 5611SOL    HW117732   0.286   3.529   3.449  0.2435 -0.7114  0.3191
 5611SOL    HW217733   0.292   3.436   3.583  0.0376  1.2409  1.7323
 5612SOL     OW17734   4.196   2.544   1.063 -0.4735 -0.0219  0.0692
 5612SOL    HW117735   4.216   2.642   1.068  0.0160 -0.1642  1.4719
 5612SOL    HW217736   4.253   2.495   1.130  0.8032 -1.5280 -1.9829
 5613SOL     OW17737   0.457   4.124   4.105 -0.3545  0.5141 -0.7228
 5613SOL    HW117738   0.385   4.072   4.060 -1.7560  2.3623 -0.6982
 5613SOL    HW217739   0.434   4.138   4.201  0.9391 -0.4001 -0.2434
 5614SOL     OW17740   5.719   3.396   3.512  0.1298  0.2532 -0.0141
 5614SOL    HW117741   5.757   3.305   3.498 -0.4636  0.1119 -0.7931
 5614SOL    HW217742   5.770   3.443   3.584  1.4966 -0.0650 -0.7493
 5615SOL     OW17743   7.022   3.915   2.198  0.3046 -0.2429  0.7405
 5615SOL    HW117744   7.088   3.972   2.147  0.5147 -1.1224  0.0057
 5615SOL    HW217745   6.991   3.840   2.140 -0.9059 -0.1890  1.2883
 5616SOL     OW17746   1.644   3.773   4.352 -0.1023 -0.1824  0.3873
 5616SOL    HW117747   1.602   3.705   4.291  1.5472 -0.8090 -0.1096
 5616SOL    HW217748   1.645   3.862   4.306 -1.3646 -0.0179  0.6374
 5617SOL     OW17749   6.983   5.675   6.659  0.4018 -0.0874 -0.1309
 5617SOL    HW117750   7.014   5.765   6.688  2.6514 -0.5836 -0.7904
 5617SOL    HW217751   6.933   5.683   6.573 -0.7079  0.6398  0.5409
 5618SOL     OW17752   6.064   0.283   2.733 -0.6021  0.1693 -0.5028
 5618SOL    HW117753   6.108   0.373   2.730 -0.8850  0.2945 -1.4156
 5618SOL    HW217754   6.039   0.261   2.827  0.2379  0.6642 -0.1545
 5619SOL     OW17755   3.480   3.864   5.232 -0.0851  0.0106 -0.4560
 5619SOL    HW117756   3.525   3.946   5.268 -0.2116 -0.5429  1.0193
 5619SOL    HW217757   3.533   3.828   5.156  1.7684 -0.3687  0.9490
 5620SOL     OW17758   5.734   2.455   5.091 -0.0733  0.5598 -0.3392
 5620SOL    HW117759   5.683   2.533   5.127 -0.6245  0.3337 -0.6219
 5620SOL    HW217760   5.735   2.381   5.158 -0.6758  0.3233 -0.5849
 5621SOL     OW17761   1.248   4.134   0.728 -0.5451 -0.1879  0.5132
 5621SOL    HW117762   1.179   4.100   0.792  0.2392  1.8722  2.5935
 5621SOL    HW217763   1.292   4.057   0.682 -1.8945 -1.7044  1.6549
 5622SOL     OW17764   6.977   5.582   3.812  0.2358  0.3197 -0.4594
 5622SOL    HW117765   6.967   5.681   3.822  1.7541  0.2384  3.3659
 5622SOL    HW217766   6.929   5.536   3.887 -0.7295 -1.9400 -2.3434
 5623SOL     OW17767   3.241   5.261   4.805 -0.6160  0.0371 -0.3449
 5623SOL    HW117768   3.287   5.336   4.757  0.5398  1.2572  2.4836
 5623SOL    HW217769   3.263   5.174   4.759 -0.1248  1.1549 -2.3540
 5624SOL     OW17770   4.581   5.449   3.291  0.0057  0.1957 -0.0577
 5624SOL    HW117771   4.608   5.546   3.291 -0.3001  0.4230  3.2647
 5624SOL    HW217772   4.652   5.395   3.247  1.0629  1.7594 -0.3701
 5625SOL     OW17773   3.380   6.447   5.431 -0.0019 -0.4020  0.2465
 5625SOL    HW117774   3.343   6.526   5.382  0.6075  0.5988  1.3589
 5625SOL    HW217775   3.309   6.411   5.492 -0.3962 -0.9546 -0.5196
 5626SOL     OW17776   0.650   5.889   5.417  0.1569 -0.4205 -0.2688
 5626SOL    HW117777   0.705   5.896   5.334 -3.1018 -2.2625 -2.7772
 5626SOL    HW217778   0.672   5.804   5.465  0.2389 -0.6307 -0.6757
 5627SOL     OW17779   6.858   5.739   1.039  0.1067  0.0442 -0.2767
 5627SOL    HW117780   6.958   5.736   1.034  0.0438 -1.4537 -1.6544
 5627SOL    HW217781   6.826   5.677   1.111  0.1621  0.9799  0.5767
 5628SOL     OW17782   0.896   4.015   0.098 -0.1652  0.2596  0.2369
 5628SOL    HW117783   0.900   4.101   0.047 -1.9363 -0.1248 -0.6465
 5628SOL    HW217784   0.835   4.026   0.177 -0.4851 -0.1932  0.0594
 5629SOL     OW17785   0.729   2.676   5.686 -0.5989 -0.3612  0.0308
 5629SOL    HW117786   0.741   2.585   5.646 -0.7734 -0.6740  0.6748
 5629SOL    HW217787   0.717   2.743   5.613  1.2612 -0.5820 -0.5382
 5630SOL     OW17788   0.593   3.796   6.360  0.1144 -0.3333  0.0573
 5630SOL    HW117789   0.625   3.711   6.318  1.8587 -0.7433  2.0258
 5630SOL    HW217790   0.599   3.870   6.294  0.7639 -1.3051 -1.0197
 5631SOL     OW17791   3.782   1.077   5.198 -0.3686 -0.5068  0.3929
 5631SOL    HW117792   3.743   1.013   5.263 -0.0543  0.9208  2.0387
 5631SOL    HW217793   3.723   1.157   5.190  0.4545  0.0952  0.2306
 5632SOL     OW17794   1.652   6.712   5.355  0.0352 -0.7120 -0.2337
 5632SOL    HW117795   1.584   6.664   5.412  1.1944 -1.7582  0.3104
 5632SOL    HW217796   1.614   6.726   5.264 -0.7932 -1.5747 -0.0464
 5633SOL     OW17797   1.791   5.635   6.430 -0.3299  0.3063  0.5669
 5633SOL    HW117798   1.875   5.685   6.451  0.3593 -0.8031  0.5456
 5633SOL    HW217799   1.803   5.539   6.456 -1.5367  0.1006  0.3969
 5634SOL     OW17800   0.602   0.357   2.469 -0.1049 -0.0237  0.5314
 5634SOL    HW117801   0.562   0.281   2.417 -0.3974  0.3283  0.2389
 5634SOL    HW217802   0.529   0.410   2.512  0.0426  0.6403 -0.0300
 5635SOL     OW17803   2.178   0.845   4.645 -0.2621 -0.3191  0.5367
 5635SOL    HW117804   2.102   0.790   4.678 -0.6869 -0.1599 -0.1468
 5635SOL    HW217805   2.185   0.928   4.699 -0.7003 -0.2442  0.4825
 5636SOL     OW17806   6.292   6.106   4.404 -0.2394 -0.4782  0.1253
 5636SOL    HW117807   6.246   6.025   4.367  0.8418 -0.2555 -1.8558
 5636SOL    HW217808   6.339   6.082   4.489  0.4720 -2.0812 -0.6823
 5637SOL     OW17809   0.346   0.130   5.429  0.6958  0.4093  0.0882
 5637SOL    HW117810   0.443   0.106   5.436  0.4734 -0.8064 -0.6920
 5637SOL    HW217811   0.302   0.120   5.519  1.2699  0.9257  0.4337
 5638SOL     OW17812   3.493   6.155   0.474 -0.3618  0.2270 -0.3730
 5638SOL    HW117813   3.569   6.177   0.536 -0.0310  1.2113 -1.0802
 5638SOL    HW217814   3.508   6.065   0.434 -0.3723 -0.2455  0.6526
 5639SOL     OW17815   3.779   1.029   1.717 -0.7547  0.1568  0.2922
 5639SOL    HW117816   3.849   1.073   1.773  1.1594 -1.0980 -0.9819
 5639SOL    HW217817   3.722   0.971   1.774 -0.9630  1.3960  1.4021
 5640SOL     OW17818   4.729   5.510   4.155 -0.1678 -0.7239 -0.2466
 5640SOL    HW117819   4.642   5.460   4.155 -0.3709 -0.4170 -2.0016
 5640SOL    HW217820   4.711   5.608   4.158  0.0621 -0.6212 -1.6732
 5641SOL     OW17821   0.204   4.636   5.202 -0.2255  0.6035  0.2502
 5641SOL    HW117822   0.162   4.716   5.243 -0.0292  0.3964  0.8599
 5641SOL    HW217823   0.247   4.661   5.115 -1.0255  0.9485 -0.0528
 5642SOL     OW17824   0.881   1.204   5.347 -0.4669 -0.0439 -0.1703
 5642SOL    HW117825   0.801   1.145   5.356 -1.9894  1.7576 -1.1772
 5642SOL    HW217826   0.910   1.234   5.438 -1.5248  0.0335  0.1583
 5643SOL     OW17827   5.419   2.328   4.639  0.4619  0.1288 -0.5855
 5643SOL    HW117828   5.416   2.423   4.607 -0.5492  0.0928 -0.6143
 5643SOL    HW217829   5.354   2.317   4.714  1.9169 -0.0844  0.7105
 5644SOL     OW17830   3.240   1.391   4.539  0.0226 -0.5662  0.1218
 5644SOL    HW117831   3.258   1.303   4.584 -0.6120  0.1938  1.9896
 5644SOL    HW217832   3.144   1.415   4.552  0.6091  1.3228  1.4754
 5645SOL     OW17833   0.003   5.038   4.590  0.2428  0.1915 -0.0034
 5645SOL    HW117834   0.026   4.940   4.588  1.4922  0.4540  0.7052
 5645SOL    HW217835   0.019   5.075   4.681  0.1296  1.1368 -0.3530
 5646SOL     OW17836   6.672   3.172   1.660 -0.0623  0.1230  0.4348
 5646SOL    HW117837   6.650   3.153   1.756  0.8819 -2.1328  0.2734
 5646SOL    HW217838   6.678   3.086   1.609 -2.6379  1.3434 -2.1965
 5647SOL     OW17839   5.849   2.382   5.938 -0.3407 -0.3927 -0.1588
 5647SOL    HW117840   5.839   2.368   6.036 -0.7232 -0.5229 -0.2124
 5647SOL    HW217841   5.933   2.432   5.919  0.5917 -1.8091  0.1161
 5648SOL     OW17842   6.700   1.530   5.211 -0.1853 -0.5414 -0.1503
 5648SOL    HW117843   6.795   1.547   5.237  0.1739  0.7112 -2.1067
 5648SOL    HW217844   6.696   1.500   5.116 -1.8532  0.9385 -0.6055
 5649SOL     OW17845   6.055   0.213   4.304 -0.3395  0.1660  0.4578
 5649SOL    HW117846   5.969   0.254   4.335 -0.5191  0.5015 -0.4500
 5649SOL    HW217847   6.038   0.121   4.269 -0.5505  0.6641 -0.8142
 5650SOL     OW17848   0.090   5.146   5.636 -0.3211 -0.1642 -0.0991
 5650SOL    HW117849   0.002   5.100   5.642 -0.7058  0.3539 -1.4013
 5650SOL    HW217850   0.132   5.150   5.727 -2.1867  0.6421  0.7888
 5651SOL     OW17851   5.173   6.618   3.592  0.1682 -0.4513  0.2584
 5651SOL    HW117852   5.217   6.681   3.527 -0.4447  0.0937  0.3572
 5651SOL    HW217853   5.233   6.540   3.609  1.5409  0.7553  1.1755
 5652SOL     OW17854   4.317   4.706   5.997  0.2144  0.2676 -0.1366
 5652SOL    HW117855   4.390   4.673   6.057 -1.6422 -1.3596  1.3797
 5652SOL    HW217856   4.291   4.633   5.933 -0.5164  0.5948 -0.2226
 5653SOL     OW17857   3.664   2.134   4.833  0.8058 -0.4234 -0.4155
 5653SOL    HW117858   3.674   2.125   4.734 -0.0956 -0.5073 -0.5040
 5653SOL    HW217859   3.750   2.167   4.872  1.1372 -0.2919 -1.2351
 5654SOL     OW17860   2.132   5.281   6.701  0.2274 -0.2036  0.3692
 5654SOL    HW117861   2.069   5.204   6.709  0.6920 -0.8777 -1.7347
 5654SOL    HW217862   2.112   5.333   6.618  1.0173  0.9105  0.8489
 5655SOL     OW17863   4.791   4.500   1.350 -0.3896  0.2460  0.2869
 5655SOL    HW117864   4.704   4.503   1.303 -0.0666 -0.8106 -0.4092
 5655SOL    HW217865   4.866   4.510   1.284  0.0321  1.6673  0.9286
 5656SOL     OW17866   3.806   4.229   6.891  0.4287  0.8816 -0.1236
 5656SOL    HW117867   3.865   4.273   6.959  0.0357  2.3840 -0.7101
 5656SOL    HW217868   3.846   4.240   6.800  0.0854  0.4080 -0.3388
 5657SOL     OW17869   5.976   5.253   0.700 -0.0457  0.8204 -0.4036
 5657SOL    HW117870   5.881   5.271   0.724  0.4090 -0.1186  2.3889
 5657SOL    HW217871   5.995   5.155   0.710  0.2441  0.1868 -5.0181
 5658SOL     OW17872   3.662   5.018   5.394 -0.2187 -0.4988  0.1216
 5658SOL    HW117873   3.608   4.940   5.362 -0.7268 -0.1381  0.0821
 5658SOL    HW217874   3.628   5.047   5.484 -0.8249  0.4176 -0.3863
 5659SOL     OW17875   3.917   3.022   2.658  0.5331  0.0303 -0.4627
 5659SOL    HW117876   3.902   2.992   2.564 -1.5580  0.2766 -0.2585
 5659SOL    HW217877   3.850   2.979   2.718  1.2420  0.5992  0.7820
 5660SOL     OW17878   2.079   5.949   2.438 -0.3630 -0.0115  0.2491
 5660SOL    HW117879   2.072   6.027   2.500  1.0643  0.3752 -0.0519
 5660SOL    HW217880   2.139   5.971   2.361  0.2810 -1.4740  0.2831
 5661SOL     OW17881   0.951   5.662   4.138  0.0339  0.2371 -0.0172
 5661SOL    HW117882   0.991   5.590   4.194  0.1137 -1.1901 -1.8166
 5661SOL    HW217883   1.004   5.747   4.150  1.2905 -0.5904  0.5066
 5662SOL     OW17884   4.052   5.996   5.513 -0.1240 -0.2866  0.5559
 5662SOL    HW117885   4.035   5.946   5.428 -0.3872 -1.6930  1.4077
 5662SOL    HW217886   4.089   6.087   5.491 -3.4176  0.8345 -1.2212
 5663SOL     OW17887   1.611   4.233   0.988 -0.6611  0.2872 -0.3308
 5663SOL    HW117888   1.694   4.281   1.016  0.2979 -0.2577 -2.0660
 5663SOL    HW217889   1.607   4.144   1.033  0.6416 -0.4146 -1.5511
 5664SOL     OW17890   6.383   0.832   1.475 -0.2345  0.0651  0.0417
 5664SOL    HW117891   6.320   0.759   1.501  2.1805 -1.4565  2.0511
 5664SOL    HW217892   6.398   0.829   1.376 -0.4065 -2.0001  0.0355
 5665SOL     OW17893   2.495   6.788   5.561  0.0178 -0.5359 -0.5251
 5665SOL    HW117894   2.427   6.737   5.507  0.7599  0.0572 -2.0779
 5665SOL    HW217895   2.451   6.868   5.602 -0.6458 -1.2060  0.1004
 5666SOL     OW17896   4.454   6.987   5.566  0.6624  0.5798  0.5273
 5666SOL    HW117897   4.415   6.915   5.624 -0.2337  0.1205 -0.6019
 5666SOL    HW217898   4.436   7.076   5.607  1.4574  0.2047  1.7557
 5667SOL     OW17899   4.121   6.449   3.817 -0.2211  0.3912 -0.2402
 5667SOL    HW117900   4.034   6.499   3.819 -0.6735 -0.3878 -0.0663
 5667SOL    HW217901   4.123   6.384   3.893 -0.1835 -0.7378 -1.1822
 5668SOL     OW17902   5.121   1.904   7.013  0.0347 -0.0875  0.5229
 5668SOL    HW117903   5.210   1.898   6.968 -1.1396 -0.4823 -1.9421
 5668SOL    HW217904   5.105   1.822   7.067  0.5385 -0.7419 -0.2996
 5669SOL     OW17905   2.161   2.444   4.837 -0.1026  0.3056 -0.2087
 5669SOL    HW117906   2.151   2.349   4.809 -0.4840  0.0971  0.5885
 5669SOL    HW217907   2.148   2.504   4.758  1.5295 -0.3327 -1.0201
 5670SOL     OW17908   0.030   2.279   3.935  0.2880  0.1919  0.0677
 5670SOL    HW117909   0.082   2.322   3.861  1.1548 -0.9973 -0.0521
 5670SOL    HW217910   0.077   2.195   3.964 -1.0198 -0.3461  0.7056
 5671SOL     OW17911   3.192   1.777   5.633 -0.2950  0.0256  0.3028
 5671SOL    HW117912   3.165   1.770   5.536 -0.9706 -2.1781  0.5930
 5671SOL    HW217913   3.160   1.865   5.669  0.0087  0.9251 -1.4654
 5672SOL     OW17914   4.673   3.725   0.038  0.0145 -0.5235 -0.2389
 5672SOL    HW117915   4.679   3.809   0.091  0.4983 -0.9783  0.4482
 5672SOL    HW217916   4.595   3.671   0.070  0.7375 -1.1376  0.5343
 5673SOL     OW17917   2.014   6.704   2.885  0.3182 -0.5484  0.0794
 5673SOL    HW117918   2.108   6.733   2.864  0.4554 -1.8119 -1.2271
 5673SOL    HW217919   1.982   6.642   2.813 -2.1956  1.2803 -0.5145
 5674SOL     OW17920   0.891   4.536   0.671 -0.1141  0.4425 -0.0357
 5674SOL    HW117921   0.791   4.526   0.673  0.0096 -1.2829 -0.5206
 5674SOL    HW217922   0.927   4.488   0.590  1.1342  0.7706  0.3124
 5675SOL     OW17923   4.229   3.475   0.087 -0.3888 -0.1588 -0.4143
 5675SOL    HW117924   4.279   3.416   0.024  1.2032  0.7141 -0.0019
 5675SOL    HW217925   4.166   3.534   0.035 -1.2824 -1.4896 -0.9026
 5676SOL     OW17926   2.528   4.527   3.553 -0.4652  0.1618  0.6947
 5676SOL    HW117927   2.562   4.570   3.637  1.7544 -0.4810  0.1761
 5676SOL    HW217928   2.489   4.438   3.574  1.0864 -0.4838  0.9455
 5677SOL     OW17929   4.452   0.541   2.977  0.5352 -0.8239 -0.4037
 5677SOL    HW117930   4.412   0.565   3.065  0.1025 -1.3823 -0.4469
 5677SOL    HW217931   4.416   0.602   2.906  0.9048 -0.3565 -0.2017
 5678SOL     OW17932   1.096   5.845   2.986  0.3981  0.4585  0.9575
 5678SOL    HW117933   1.149   5.778   3.039 -0.2206 -0.0742  0.9138
 5678SOL    HW217934   1.095   5.932   3.035  0.4354  0.1789  1.4700
 5679SOL     OW17935   2.832   5.760   5.196 -0.2485 -0.5420 -0.5054
 5679SOL    HW117936   2.867   5.667   5.188  1.6515  0.2756 -2.8609
 5679SOL    HW217937   2.781   5.785   5.114 -1.3019  0.3058  0.3705
 5680SOL     OW17938   2.239   0.216   6.918  0.3205 -0.1820 -0.2378
 5680SOL    HW117939   2.267   0.306   6.886  2.5235 -0.3440  1.0580
 5680SOL    HW217940   2.293   0.146   6.873 -1.6075 -0.9626 -1.4924
 5681SOL     OW17941   4.214   3.625   6.500  0.7869  0.1574 -0.5635
 5681SOL    HW117942   4.139   3.679   6.462  1.9007  1.7958 -0.5335
 5681SOL    HW217943   4.241   3.554   6.434 -1.1479 -0.8797 -0.3148
 5682SOL     OW17944   2.233   6.135   4.512  0.6093  0.2654 -0.2425
 5682SOL    HW117945   2.238   6.040   4.544 -4.6955 -0.3872 -0.4197
 5682SOL    HW217946   2.189   6.191   4.581 -1.0443  1.3364 -2.0487
 5683SOL     OW17947   3.356   3.261   4.166 -0.2586 -0.3977 -0.0983
 5683SOL    HW117948   3.358   3.161   4.159 -0.3054 -0.3630 -0.6105
 5683SOL    HW217949   3.395   3.288   4.255  0.9481 -0.8154 -0.4713
 5684SOL     OW17950   3.659   3.776   2.217  0.2859 -0.5160  0.3568
 5684SOL    HW117951   3.653   3.701   2.151  0.2605 -1.3932  1.3310
 5684SOL    HW217952   3.579   3.773   2.278  0.3111  0.2761  0.4334
 5685SOL     OW17953   0.078   0.922   1.638 -0.2268 -0.0910 -0.3043
 5685SOL    HW117954   0.053   0.993   1.704 -1.8041 -0.3009 -0.6448
 5685SOL    HW217955   0.109   0.840   1.687  1.7189  0.8262  0.0909
 5686SOL     OW17956   4.067   4.611   6.252  0.2907 -0.5906  0.3689
 5686SOL    HW117957   4.040   4.673   6.325 -2.4621 -1.4700  0.2297
 5686SOL    HW217958   4.121   4.536   6.290 -0.8842 -0.9049  1.4918
 5687SOL     OW17959   4.604   5.466   5.250  0.6329  0.9183  0.1495
 5687SOL    HW117960   4.563   5.404   5.318 -2.1654  0.0371 -2.1321
 5687SOL    HW217961   4.538   5.537   5.225  1.5554  1.2241 -1.6095
 5688SOL     OW17962   6.583   1.936   2.424  0.2431 -0.3765  0.2096
 5688SOL    HW117963   6.664   1.879   2.439 -0.3281 -1.1059  0.5873
 5688SOL    HW217964   6.546   1.966   2.511 -0.0555 -0.2767  0.0500
 5689SOL     OW17965   2.120   3.028   4.999 -0.1969  0.4334 -0.4541
 5689SOL    HW117966   2.111   3.122   4.967 -0.3209  0.3475 -0.6725
 5689SOL    HW217967   2.217   3.004   5.005 -0.1785  0.1648 -1.6016
 5690SOL     OW17968   1.875   0.709   2.253 -0.8009 -0.3700 -0.2229
 5690SOL    HW117969   1.941   0.675   2.319  0.5763  2.3506 -0.0497
 5690SOL    HW217970   1.922   0.739   2.170 -1.9157  0.6291 -0.5277
 5691SOL     OW17971   2.484   0.979   3.429 -0.4394  0.2213 -0.0874
 5691SOL    HW117972   2.437   1.053   3.477  0.0019 -0.2084  1.0374
 5691SOL    HW217973   2.556   0.941   3.488  0.2287 -0.2193 -1.1551
 5692SOL     OW17974   0.347   3.201   3.217 -0.2258 -0.3085 -0.1013
 5692SOL    HW117975   0.280   3.129   3.236  1.2440 -0.8303  3.9221
 5692SOL    HW217976   0.300   3.281   3.179 -2.5423 -1.8243 -0.6522
 5693SOL     OW17977   5.732   1.448   1.974  0.0780 -0.1542  0.5896
 5693SOL    HW117978   5.790   1.383   2.024  2.4804  1.4287  0.0299
 5693SOL    HW217979   5.723   1.418   1.879 -0.5507 -0.6949  0.8073
 5694SOL     OW17980   1.023   2.827   5.493 -0.0931 -0.6172 -0.2951
 5694SOL    HW117981   1.043   2.730   5.481 -0.8556 -0.6502 -1.3782
 5694SOL    HW217982   1.090   2.867   5.557  0.4508 -1.7571 -0.1250
 5695SOL     OW17983   1.486   3.899   1.435  0.2371 -0.3610 -0.0971
 5695SOL    HW117984   1.524   3.932   1.521 -0.4469  1.6347 -0.5003
 5695SOL    HW217985   1.557   3.850   1.384  1.4790  0.8421  0.3932
 5696SOL     OW17986   2.360   1.821   0.827  0.1040  0.0987 -0.5599
 5696SOL    HW117987   2.362   1.827   0.727 -1.5627 -1.0547 -0.6860
 5696SOL    HW217988   2.381   1.911   0.866  0.0090  0.7432 -1.9455
 5697SOL     OW17989   0.520   4.179   0.648 -1.2661  0.6669 -0.4852
 5697SOL    HW117990   0.436   4.232   0.661 -1.1357  1.8246 -3.5316
 5697SOL    HW217991   0.497   4.089   0.610 -1.1965  0.4235  0.0425
 5698SOL     OW17992   2.115   5.223   4.901 -0.4324  0.0676  0.4032
 5698SOL    HW117993   2.158   5.178   4.822  0.6901 -0.2270  1.1542
 5698SOL    HW217994   2.053   5.159   4.946 -0.2536 -0.1213  0.3836
 5699SOL     OW17995   6.401   4.059   5.166 -0.2988 -0.0931 -0.5584
 5699SOL    HW117996   6.488   4.106   5.180 -0.5332  0.1289  0.1880
 5699SOL    HW217997   6.363   4.087   5.077  0.4778 -0.3512 -0.9876
 5700SOL     OW17998   2.320   4.641   5.127 -0.0397  0.1097  0.1781
 5700SOL    HW117999   2.407   4.608   5.092 -0.7711  0.2333 -1.9084
 5700SOL    HW218000   2.335   4.692   5.211  1.7556 -0.7641  0.4354
 5701SOL     OW18001   5.116   2.085   3.373 -0.1100 -0.1151 -0.2963
 5701SOL    HW118002   5.091   2.182   3.366  1.4542  0.3040 -0.4452
 5701SOL    HW218003   5.199   2.076   3.428 -0.8358 -1.4894  0.6352
 5702SOL     OW18004   4.349   5.240   4.981  0.0501 -0.1813 -0.0717
 5702SOL    HW118005   4.330   5.248   5.079 -1.2598 -1.7421 -0.1516
 5702SOL    HW218006   4.270   5.199   4.935  0.6515  0.4876 -1.7966
 5703SOL     OW18007   5.084   3.905   2.148 -0.2218 -0.0256  0.6479
 5703SOL    HW118008   5.179   3.922   2.173 -0.6552  0.9367  1.7689
 5703SOL    HW218009   5.080   3.847   2.067  1.3618  2.1653 -1.1227
 5704SOL     OW18010   5.011   4.149   5.320  0.2630  0.4387 -0.6877
 5704SOL    HW118011   5.090   4.210   5.312  1.6053 -1.1748 -0.3885
 5704SOL    HW218012   5.027   4.067   5.264 -1.3228  0.1985 -0.8201
 5705SOL     OW18013   0.755   0.095   5.035 -0.3107 -0.7650 -0.4260
 5705SOL    HW118014   0.729   0.142   5.119  2.1802 -0.5816  0.3274
 5705SOL    HW218015   0.782   0.001   5.056 -2.5163 -1.7197 -1.5150
 5706SOL     OW18016   1.349   2.675   6.078 -0.2522  0.7109  0.9421
 5706SOL    HW118017   1.310   2.621   6.004  1.0451  0.7705  0.1880
 5706SOL    HW218018   1.448   2.667   6.077 -0.1776  1.1118  2.3807
 5707SOL     OW18019   5.359   6.031   1.632  0.6882 -0.5157 -0.9269
 5707SOL    HW118020   5.429   6.058   1.697  0.4463 -0.9232 -0.4874
 5707SOL    HW218021   5.272   6.018   1.680 -0.3835  2.5719 -1.8333
 5708SOL     OW18022   0.808   0.377   1.576  0.5756  0.3804 -0.2619
 5708SOL    HW118023   0.773   0.370   1.669  2.1056  0.4286  0.3484
 5708SOL    HW218024   0.824   0.473   1.553  1.5690  0.2809 -0.0231
 5709SOL     OW18025   0.009   1.487   1.026  0.2917  0.1774  0.0236
 5709SOL    HW118026  -0.010   1.431   0.945 -0.7505 -0.9951  1.0486
 5709SOL    HW218027   0.088   1.448   1.074 -0.4118 -0.4055  0.7179
 5710SOL     OW18028   4.365   6.057   5.580  0.2332  0.3782  0.0306
 5710SOL    HW118029   4.312   6.105   5.650 -0.7497  0.6952 -0.9078
 5710SOL    HW218030   4.368   6.112   5.497  2.5892  0.6673  0.2338
 5711SOL     OW18031   5.220   2.701   5.418  0.4731 -0.2429  0.0929
 5711SOL    HW118032   5.248   2.709   5.514  5.4464 -1.2506 -0.9555
 5711SOL    HW218033   5.191   2.607   5.400 -1.0787  0.1046  0.6880
 5712SOL     OW18034   4.650   6.665   6.888 -0.6190  0.6807  0.4708
 5712SOL    HW118035   4.732   6.645   6.941 -0.4343  0.8165  0.2374
 5712SOL    HW218036   4.569   6.654   6.946 -0.3378  2.2762  1.2120
 5713SOL     OW18037   0.143   2.408   1.328 -0.5537  0.1130 -0.5011
 5713SOL    HW118038   0.129   2.446   1.419 -2.5341  0.0833 -0.7574
 5713SOL    HW218039   0.080   2.331   1.313 -0.6458  0.4504 -2.0736
 5714SOL     OW18040   1.975   1.895   1.523  0.0081 -0.0054  0.5490
 5714SOL    HW118041   2.071   1.908   1.501  0.2904 -0.3724  1.4810
 5714SOL    HW218042   1.959   1.921   1.619 -1.0107  0.9232  0.1501
 5715SOL     OW18043   6.412   6.970   4.459 -0.2473 -0.0992  0.3325
 5715SOL    HW118044   6.492   6.910   4.460  0.2952  0.6083  0.4198
 5715SOL    HW218045   6.345   6.938   4.525  0.2367 -0.3404  0.7128
 5716SOL     OW18046   2.133   1.499   5.260 -0.3433 -0.1764  0.6176
 5716SOL    HW118047   2.144   1.594   5.290 -0.2776  0.8011 -2.2161
 5716SOL    HW218048   2.044   1.487   5.216  0.1124 -1.1102 -0.0999
 5717SOL     OW18049   2.213   4.106   6.899  0.1810  0.1960  0.5050
 5717SOL    HW118050   2.249   4.166   6.970 -1.1824 -2.2535  3.4765
 5717SOL    HW218051   2.122   4.075   6.924  0.0598 -1.6398 -1.8223
 5718SOL     OW18052   3.481   7.013   4.353  0.3851  0.0509  0.1038
 5718SOL    HW118053   3.478   7.106   4.390  2.2717  0.0881  0.2669
 5718SOL    HW218054   3.410   7.002   4.284  0.0055  1.5416  0.2221
 5719SOL     OW18055   1.572   1.244   6.983 -0.2748  0.0430 -0.2278
 5719SOL    HW118056   1.535   1.189   7.058  0.3751 -0.8542 -0.5539
 5719SOL    HW218057   1.595   1.184   6.906  0.0204  0.8307 -0.7648
 5720SOL     OW18058   2.715   5.479   4.081  0.5438  0.0230  0.7709
 5720SOL    HW118059   2.662   5.424   4.146  1.0452  1.6719  2.6905
 5720SOL    HW218060   2.810   5.447   4.082  0.6925  0.4656  1.3765
 5721SOL     OW18061   6.363   5.380   0.075  0.4646 -0.0466 -0.2066
 5721SOL    HW118062   6.284   5.321   0.089  0.5674  0.1623  1.3981
 5721SOL    HW218063   6.360   5.418  -0.017  0.7292 -3.0425 -1.5921
 5722SOL     OW18064   4.977   6.879   2.917 -0.0444  0.0287  0.0403
 5722SOL    HW118065   4.913   6.807   2.944 -0.5559  0.1436 -0.8477
 5722SOL    HW218066   5.013   6.923   2.999  1.0499 -1.8781  0.6645
 5723SOL     OW18067   0.411   5.191   0.299  0.0890  0.1186 -0.6298
 5723SOL    HW118068   0.470   5.188   0.219 -2.4565  0.8349 -2.6701
 5723SOL    HW218069   0.440   5.122   0.365  1.5865 -1.2946 -2.6729
 5724SOL     OW18070   5.272   2.711   5.705 -0.7311 -0.1766  0.4545
 5724SOL    HW118071   5.314   2.623   5.729 -1.9678 -0.6577  0.9296
 5724SOL    HW218072   5.306   2.781   5.768  2.0435  0.2491 -1.3276
 5725SOL     OW18073   0.440   0.385   5.528 -0.0245 -0.0050  0.4609
 5725SOL    HW118074   0.534   0.371   5.498  0.5434  2.2702  0.9665
 5725SOL    HW218075   0.377   0.342   5.463  1.3041  0.3802 -1.1531
 5726SOL     OW18076   3.661   5.563   6.298 -0.3424  0.5006  0.3804
 5726SOL    HW118077   3.690   5.589   6.390  0.5478  2.0342 -0.2904
 5726SOL    HW218078   3.627   5.644   6.250 -0.8136 -0.2779 -0.6388
 5727SOL     OW18079   4.988   4.165   1.700 -0.1513  0.3040 -0.4669
 5727SOL    HW118080   4.905   4.140   1.750 -0.0688 -0.2897 -0.6236
 5727SOL    HW218081   5.068   4.138   1.754 -0.0588  0.4634 -0.5236
 5728SOL     OW18082   2.869   1.568   4.811 -0.3088  0.1884  0.9811
 5728SOL    HW118083   2.844   1.614   4.896 -1.5120  0.2310  0.6183
 5728SOL    HW218084   2.854   1.469   4.821 -0.7304  0.2263  0.7194
 5729SOL     OW18085   1.787   2.659   5.601 -0.6617 -0.3326  0.1839
 5729SOL    HW118086   1.881   2.632   5.621 -0.5654  0.0448  0.2584
 5729SOL    HW218087   1.724   2.592   5.639 -0.4311 -0.3896  0.4708
 5730SOL     OW18088   6.035   4.870   6.270 -0.5216  0.3711  0.2663
 5730SOL    HW118089   6.094   4.946   6.293 -1.2506  0.7077  1.0915
 5730SOL    HW218090   6.043   4.849   6.172 -1.1547  2.2437 -0.2294
 5731SOL     OW18091   4.652   0.787   5.841  0.3108 -0.0036 -0.3465
 5731SOL    HW118092   4.717   0.752   5.774 -0.1544 -2.6459  0.4900
 5731SOL    HW218093   4.606   0.711   5.887 -2.3682  1.7561  0.1181
 5732SOL     OW18094   6.166   3.232   4.113  0.4007  0.1789  0.0055
 5732SOL    HW118095   6.228   3.166   4.155  1.2579  2.6044  2.8670
 5732SOL    HW218096   6.213   3.280   4.039  1.0580  0.1678  0.4088
 5733SOL     OW18097   2.242   6.015   5.834  0.6113 -0.0510 -0.5309
 5733SOL    HW118098   2.153   5.976   5.853 -0.4681  1.2058 -2.5745
 5733SOL    HW218099   2.272   5.988   5.742  1.1220  1.5555 -0.8791
 5734SOL     OW18100   1.823   2.484   6.383 -0.4562 -0.8275  0.0972
 5734SOL    HW118101   1.877   2.547   6.440 -0.2784 -1.8568  1.1076
 5734SOL    HW218102   1.748   2.534   6.341  0.7297  0.4403 -0.5939
 5735SOL     OW18103   4.165   0.675   1.404  0.4595  0.7096  0.4196
 5735SOL    HW118104   4.090   0.705   1.345  0.7336 -1.4664 -1.1392
 5735SOL    HW218105   4.253   0.701   1.363  0.6551 -0.9317 -0.2864
 5736SOL     OW18106   3.522   2.520   5.628 -0.2880  0.9399  0.5484
 5736SOL    HW118107   3.607   2.536   5.579  1.1530 -4.0744  0.9168
 5736SOL    HW218108   3.449   2.502   5.562  0.1588  0.3387  0.2092
 5737SOL     OW18109   4.628   5.565   2.252 -0.3249 -0.2172  0.1503
 5737SOL    HW118110   4.700   5.497   2.270 -1.3922 -0.9566  1.9040
 5737SOL    HW218111   4.573   5.536   2.174  0.7077 -0.0966 -0.6441
 5738SOL     OW18112   4.529   6.755   0.876 -0.1638  0.2433  0.3746
 5738SOL    HW118113   4.457   6.824   0.868  0.4757  0.6934 -2.3634
 5738SOL    HW218114   4.515   6.683   0.808  0.2925 -1.3312  1.8737
 5739SOL     OW18115   6.701   0.997   0.937  0.1909 -0.9521 -0.1900
 5739SOL    HW118116   6.734   1.087   0.966  1.9252 -2.1026  1.7101
 5739SOL    HW218117   6.628   0.967   0.999 -1.8486 -0.0485 -2.0600
 5740SOL     OW18118   6.396   0.870   4.684  0.1299  0.1494  0.3345
 5740SOL    HW118119   6.345   0.795   4.640  2.1615 -0.1249 -1.7602
 5740SOL    HW218120   6.434   0.837   4.770 -1.2575 -0.3356  0.8027
 5741SOL     OW18121   1.055   6.414   3.880 -0.2864  0.3156 -0.1002
 5741SOL    HW118122   1.087   6.319   3.875 -0.4302  0.2667 -0.1146
 5741SOL    HW218123   1.129   6.473   3.911  0.2665  0.4406 -1.5815
 5742SOL     OW18124   6.650   3.962   2.440  0.9314 -0.0476  0.2388
 5742SOL    HW118125   6.713   3.894   2.478  0.2928 -1.9680 -1.8756
 5742SOL    HW218126   6.701   4.027   2.384  1.2226 -0.7993 -0.3912
 5743SOL     OW18127   4.002   0.589   6.559 -0.4002  0.1929  0.0027
 5743SOL    HW118128   4.098   0.572   6.539 -0.8401 -2.1058 -0.4465
 5743SOL    HW218129   3.980   0.553   6.649 -0.8553  0.6509  0.0781
 5744SOL     OW18130   5.103   6.044   2.910  0.8024  0.1461 -0.1941
 5744SOL    HW118131   5.146   6.096   2.836  1.6574  0.9983  0.8784
 5744SOL    HW218132   5.048   5.970   2.870 -0.1239  1.5916 -1.7561
 5745SOL     OW18133   2.573   4.936   4.200  0.1494 -0.2389  0.7127
 5745SOL    HW118134   2.565   5.014   4.137 -1.2255 -0.4057  0.6647
 5745SOL    HW218135   2.482   4.903   4.225  0.6956 -0.9873  1.8031
 5746SOL     OW18136   5.362   6.959   1.495 -0.0234 -0.4392 -0.0769
 5746SOL    HW118137   5.372   6.877   1.438 -0.2201 -0.5191  0.0034
 5746SOL    HW218138   5.305   7.026   1.446 -1.1258 -0.9484  0.4951
 5747SOL     OW18139   1.392   0.844   3.361 -0.2521  0.6648  0.0303
 5747SOL    HW118140   1.351   0.835   3.270 -0.7622 -0.7903  0.3800
 5747SOL    HW218141   1.486   0.811   3.359  0.0777  1.5927 -0.1878
 5748SOL     OW18142   6.724   6.783   5.588 -0.8178  0.5671 -0.3660
 5748SOL    HW118143   6.805   6.723   5.584 -2.0520 -1.1642 -0.8747
 5748SOL    HW218144   6.692   6.800   5.495 -1.0384  1.2401 -0.1670
 5749SOL     OW18145   1.988   6.329   6.883  0.1298 -0.2484 -0.7761
 5749SOL    HW118146   2.024   6.369   6.798  1.2697 -2.3186 -1.3185
 5749SOL    HW218147   2.060   6.275   6.928 -1.7283 -3.0913 -0.9849
 5750SOL     OW18148   4.563   2.439   5.338  0.3970 -0.3323  0.0473
 5750SOL    HW118149   4.627   2.437   5.262  0.1979 -1.2837 -0.1155
 5750SOL    HW218150   4.611   2.416   5.423  0.2992 -0.9691 -0.0631
 5751SOL     OW18151   6.826   6.673   6.186  0.1699  0.0113 -0.2604
 5751SOL    HW118152   6.872   6.750   6.230 -1.5469  1.1327 -0.2857
 5751SOL    HW218153   6.749   6.708   6.131 -0.0953 -1.6637 -1.0247
 5752SOL     OW18154   5.690   1.648   6.171 -0.4374 -0.3665 -0.2710
 5752SOL    HW118155   5.681   1.552   6.144 -0.8804 -0.0431 -1.2976
 5752SOL    HW218156   5.669   1.707   6.094 -1.9788  0.6049  0.8176
 5753SOL     OW18157   3.627   3.818   2.659  0.2862  0.2711  0.3263
 5753SOL    HW118158   3.672   3.907   2.658  0.3125  0.2543 -0.0874
 5753SOL    HW218159   3.679   3.755   2.717 -0.2812  0.8030  1.4297
 5754SOL     OW18160   6.087   6.813   6.777 -0.1284  0.1932 -0.5586
 5754SOL    HW118161   6.110   6.760   6.696 -1.8140  0.7547 -1.4517
 5754SOL    HW218162   6.169   6.858   6.813  0.3853  1.2877 -2.9550
 5755SOL     OW18163   1.183   2.512   5.027 -0.7375 -0.2240  0.0514
 5755SOL    HW118164   1.280   2.490   5.022 -0.9506 -1.5354  1.1813
 5755SOL    HW218165   1.168   2.579   5.100 -0.9626 -2.1555  1.8913
 5756SOL     OW18166   0.693   1.285   2.697  0.4231 -0.7409  0.1029
 5756SOL    HW118167   0.619   1.306   2.634  1.0262  0.8260 -0.1157
 5756SOL    HW218168   0.694   1.353   2.771  2.4579  0.1012 -0.6329
 5757SOL     OW18169   3.266   1.731   2.475 -0.0941  0.2849  0.5712
 5757SOL    HW118170   3.280   1.827   2.499  1.0759  0.2021  0.2819
 5757SOL    HW218171   3.169   1.709   2.484 -0.1340  0.9818  2.4897
 5758SOL     OW18172   4.824   6.924   4.583 -0.1681 -0.2834  0.0148
 5758SOL    HW118173   4.827   6.983   4.502 -0.8765  0.5476  0.5768
 5758SOL    HW218174   4.916   6.913   4.620  0.1108 -0.3806 -0.6913
 5759SOL     OW18175   3.810   5.517   4.007 -0.2789  0.1782  0.4977
 5759SOL    HW118176   3.881   5.511   4.077  0.5045 -1.4782 -0.3870
 5759SOL    HW218177   3.735   5.575   4.040  0.5640  0.3280  2.2434
 5760SOL     OW18178   0.733   1.672   0.479  0.4000 -0.7470  0.7306
 5760SOL    HW118179   0.741   1.641   0.384  2.1386 -1.1493  0.9764
 5760SOL    HW218180   0.647   1.639   0.518 -1.5378  1.4060 -1.3916
 5761SOL     OW18181   6.864   1.788   5.627 -0.4253 -1.1512 -0.0613
 5761SOL    HW118182   6.810   1.789   5.543 -3.4522  1.3464  1.6861
 5761SOL    HW218183   6.834   1.712   5.685 -1.0580 -0.6742  0.2579
 5762SOL     OW18184   1.491   0.103   4.977 -0.1709 -0.5184  0.3809
 5762SOL    HW118185   1.453   0.134   5.064  2.1396 -0.6214  1.4993
 5762SOL    HW218186   1.495   0.181   4.914 -1.8601 -0.4413  0.3119
 5763SOL     OW18187   5.403   6.057   0.336  0.4103 -0.5691  0.2337
 5763SOL    HW118188   5.468   6.094   0.270  0.9871 -1.9949 -0.0140
 5763SOL    HW218189   5.340   5.995   0.291  0.3073 -0.9502  0.8838
 5764SOL     OW18190   1.576   5.536   4.722  0.0624 -0.5102  0.4315
 5764SOL    HW118191   1.520   5.551   4.640  0.7501 -1.4633 -0.2312
 5764SOL    HW218192   1.569   5.616   4.782 -0.4947  0.1845 -0.5307
 5765SOL     OW18193   5.224   4.449   1.751  0.0344 -0.6279  0.7406
 5765SOL    HW118194   5.206   4.494   1.838  0.0463  0.4227  0.2188
 5765SOL    HW218195   5.322   4.448   1.733 -0.0209 -0.1043  0.3733
 5766SOL     OW18196   2.751   0.603   3.057 -0.2589  0.0584  0.1590
 5766SOL    HW118197   2.675   0.639   3.002  1.1845  1.9800 -0.6963
 5766SOL    HW218198   2.798   0.679   3.101  2.5107 -0.7893 -1.1287
 5767SOL     OW18199   5.771   0.694   0.751 -0.3054  0.3630 -0.0939
 5767SOL    HW118200   5.797   0.718   0.844 -0.6268 -0.4791  0.2115
 5767SOL    HW218201   5.839   0.732   0.687  1.2020 -1.0294  0.6335
 5768SOL     OW18202   0.854   5.428   6.524  0.1486 -0.5550 -0.5344
 5768SOL    HW118203   0.862   5.449   6.622  1.4121  0.9194 -0.9181
 5768SOL    HW218204   0.784   5.487   6.483 -2.2133 -2.8773 -0.1151
 5769SOL     OW18205   6.969   2.592   0.297 -0.4511  0.1774 -0.3567
 5769SOL    HW118206   7.000   2.588   0.392  0.8588 -0.0624 -0.7837
 5769SOL    HW218207   6.869   2.599   0.296 -0.8050 -3.0538  1.0011
 5770SOL     OW18208   2.269   4.883   0.896 -0.5620  0.0807  0.0102
 5770SOL    HW118209   2.333   4.913   0.966 -0.2984 -0.0718 -0.1596
 5770SOL    HW218210   2.177   4.913   0.919 -0.7292 -1.2616  1.2065
 5771SOL     OW18211   3.748   5.552   2.386  0.4344  0.1594 -0.1087
 5771SOL    HW118212   3.740   5.471   2.328  1.2512  0.3035 -0.4480
 5771SOL    HW218213   3.821   5.610   2.350  1.0134  0.2103  1.1192
 5772SOL     OW18214   1.135   1.398   3.837 -0.3852  0.2763 -0.1407
 5772SOL    HW118215   1.141   1.361   3.930  0.4930  1.7104  0.4100
 5772SOL    HW218216   1.227   1.402   3.798 -0.5893  0.9318 -0.5571
 5773SOL     OW18217   5.156   1.734   4.518 -0.2097 -0.6277 -0.5809
 5773SOL    HW118218   5.191   1.683   4.439  0.9974  0.2439 -0.6390
 5773SOL    HW218219   5.221   1.806   4.543 -2.2018  1.4706 -1.0342
 5774SOL     OW18220   1.161   1.894   4.676  0.3490 -0.0822  0.3487
 5774SOL    HW118221   1.248   1.907   4.723 -0.4582 -1.7433  2.4468
 5774SOL    HW218222   1.169   1.820   4.610  0.8769  0.7146 -0.4963
 5775SOL     OW18223   5.848   5.678   4.646 -0.2573 -0.5648  0.2168
 5775SOL    HW118224   5.900   5.704   4.727 -1.8177  0.5041  0.9338
 5775SOL    HW218225   5.906   5.624   4.584  1.6707  0.6211  0.9209
 5776SOL     OW18226   1.401   6.106   4.145 -0.3062 -0.6389  0.1117
 5776SOL    HW118227   1.393   6.013   4.183  0.0279 -0.4322  0.6991
 5776SOL    HW218228   1.488   6.146   4.173  0.4263 -0.8600 -1.7557
 5777SOL     OW18229   0.858   1.469   1.681  0.4159  0.3308  0.4654
 5777SOL    HW118230   0.800   1.482   1.601  0.9159  0.4340  0.1206
 5777SOL    HW218231   0.823   1.391   1.734 -0.4621  0.8288  0.6519
 5778SOL     OW18232   6.934   0.458   6.876  0.0800 -0.0285 -0.0515
 5778SOL    HW118233   7.010   0.520   6.857 -0.0768 -0.3672 -1.9913
 5778SOL    HW218234   6.848   0.500   6.845  0.0178 -1.3050 -1.7345
 5779SOL     OW18235   6.379   1.799   1.405 -0.0861 -0.0891 -0.1630
 5779SOL    HW118236   6.382   1.844   1.495  2.0372 -0.8489  0.1916
 5779SOL    HW218237   6.472   1.778   1.375 -0.8761 -1.8917 -1.5133
 5780SOL     OW18238   4.264   5.811   4.153  0.1106  0.3279 -0.2484
 5780SOL    HW118239   4.350   5.802   4.203 -0.8455  1.4713  1.6780
 5780SOL    HW218240   4.252   5.731   4.093  2.2873 -0.0527 -0.2516
 5781SOL     OW18241   1.390   5.563   6.990 -0.3930  0.2999 -0.4257
 5781SOL    HW118242   1.472   5.606   6.953 -1.7760  1.4847 -2.2918
 5781SOL    HW218243   1.327   5.633   7.023 -1.0657 -0.5374  0.1201
 5782SOL     OW18244   5.752   6.838   5.257 -0.7084  0.1149 -0.3356
 5782SOL    HW118245   5.848   6.813   5.254 -0.7028  0.0837  0.0937
 5782SOL    HW218246   5.741   6.921   5.312 -1.2146 -1.2613  1.7566
 5783SOL     OW18247   2.102   4.708   6.283  0.9094 -0.3643  0.0348
 5783SOL    HW118248   2.003   4.700   6.296  1.0187  0.8683  2.1971
 5783SOL    HW218249   2.148   4.630   6.325  0.9526  0.7875  2.3345
 5784SOL     OW18250   6.393   6.752   0.478  0.0704 -0.4634  0.4775
 5784SOL    HW118251   6.473   6.738   0.420 -0.8950 -2.7783 -0.4346
 5784SOL    HW218252   6.349   6.664   0.496 -1.3709  0.5516  2.2944
 5785SOL     OW18253   5.866   1.540   2.810  0.0834  0.6036  0.7164
 5785SOL    HW118254   5.935   1.491   2.863  0.3031 -1.1993 -1.1312
 5785SOL    HW218255   5.808   1.474   2.762  0.1307  2.1303 -1.5848
 5786SOL     OW18256   6.071   4.344   0.574  0.0727 -0.9286 -0.1425
 5786SOL    HW118257   6.014   4.343   0.492 -0.4009 -1.2539  0.1877
 5786SOL    HW218258   6.118   4.256   0.583  2.2795  0.0179 -1.5362
 5787SOL     OW18259   1.827   1.893   0.791 -0.9918  0.3690  0.0176
 5787SOL    HW118260   1.855   1.816   0.848 -0.8620  0.8691  0.6462
 5787SOL    HW218261   1.769   1.860   0.716 -1.5102 -0.2615  0.6750
 5788SOL     OW18262   1.862   6.862   5.129 -0.1635  0.6887 -0.0441
 5788SOL    HW118263   1.873   6.880   5.031  0.4428  0.7662  0.0347
 5788SOL    HW218264   1.892   6.770   5.150  0.5631  0.9779  0.2127
 5789SOL     OW18265   4.271   4.678   5.601  0.1931 -0.3385  0.4778
 5789SOL    HW118266   4.242   4.763   5.645 -2.7172 -1.5571  1.1534
 5789SOL    HW218267   4.192   4.632   5.561  2.0991 -1.4277 -2.3406
 5790SOL     OW18268   2.447   1.593   5.132  0.3078  0.3171  0.1550
 5790SOL    HW118269   2.397   1.679   5.143  2.0891  1.6174 -1.2701
 5790SOL    HW218270   2.529   1.594   5.189  0.5067 -0.2982 -0.1076
 5791SOL     OW18271   0.204   5.716   1.679 -0.3990  0.1222 -0.5565
 5791SOL    HW118272   0.271   5.658   1.726 -0.2211 -0.2502 -1.2524
 5791SOL    HW218273   0.217   5.811   1.707  0.4478  0.0570 -0.7103
 5792SOL     OW18274   1.142   0.561   3.987  0.1832 -0.0063  0.6618
 5792SOL    HW118275   1.194   0.488   4.030  0.3107 -0.4664 -0.2400
 5792SOL    HW218276   1.045   0.552   4.011  0.1037 -0.8477  0.0635
 5793SOL     OW18277   5.158   2.294   5.870  0.1432 -0.2254  0.5469
 5793SOL    HW118278   5.085   2.308   5.803  1.2707 -0.1639 -0.7102
 5793SOL    HW218279   5.123   2.313   5.961 -1.1820  0.6351 -0.1086
 5794SOL     OW18280   5.549   3.486   6.405 -0.3405  0.3787  0.2160
 5794SOL    HW118281   5.564   3.398   6.359  1.5244 -0.0527  1.5316
 5794SOL    HW218282   5.609   3.555   6.364 -0.2486  0.5064  0.5637
 5795SOL     OW18283   2.037   4.977   1.004 -0.4142  0.6878  0.0859
 5795SOL    HW118284   1.973   4.903   1.027 -0.3395  0.1100 -1.4183
 5795SOL    HW218285   2.005   5.024   0.921  1.3379  0.0519 -1.0012
 5796SOL     OW18286   1.729   2.267   1.759 -0.1568  0.0102 -0.0597
 5796SOL    HW118287   1.758   2.190   1.815  0.0647  0.8183  0.9630
 5796SOL    HW218288   1.630   2.263   1.745 -0.1027 -0.6367 -0.3186
 5797SOL     OW18289   4.012   3.524   6.018 -0.6240  0.3523 -0.1151
 5797SOL    HW118290   3.962   3.497   5.936  2.2007  2.2594 -2.7150
 5797SOL    HW218291   3.997   3.621   6.036  1.7646  0.9314 -0.8661
 5798SOL     OW18292   6.003   4.473   2.692  0.3437 -0.2732  0.1749
 5798SOL    HW118293   6.097   4.494   2.719  0.5020 -0.9632  0.1753
 5798SOL    HW218294   5.944   4.551   2.714  1.0895  0.5814 -0.7884
 5799SOL     OW18295   4.336   6.358   3.222  0.0062  0.0012  0.3260
 5799SOL    HW118296   4.410   6.385   3.284 -0.2142  1.3086  0.0631
 5799SOL    HW218297   4.278   6.438   3.203 -0.4220 -0.5673 -0.8777
 5800SOL     OW18298   4.290   6.564   4.970 -0.2001  0.3516  0.2317
 5800SOL    HW118299   4.197   6.583   5.003 -0.7851  0.0516 -1.1815
 5800SOL    HW218300   4.350   6.639   4.997 -0.9869  0.8652  0.6193
 5801SOL     OW18301   3.148   1.359   3.459 -0.2737  0.0672  0.6434
 5801SOL    HW118302   3.120   1.439   3.511  0.8877  0.0354  1.3326
 5801SOL    HW218303   3.074   1.333   3.396 -0.2702  2.2562 -0.3282
 5802SOL     OW18304   6.656   1.353   2.903 -0.4545  0.1668  0.7649
 5802SOL    HW118305   6.675   1.443   2.865  0.9160 -0.8708 -1.1678
 5802SOL    HW218306   6.660   1.357   3.003  0.7851  1.9764  0.6828
 5803SOL     OW18307   1.137   6.638   1.356  0.1131 -0.5514  0.2045
 5803SOL    HW118308   1.199   6.702   1.401 -1.7421 -0.6891  3.2331
 5803SOL    HW218309   1.180   6.547   1.352  1.3014  0.0253 -0.7138
 5804SOL     OW18310   0.171   4.644   6.150  0.0909 -0.6680  0.3982
 5804SOL    HW118311   0.099   4.586   6.114  1.4743 -1.0366 -2.0217
 5804SOL    HW218312   0.152   4.740   6.127  0.6893 -0.8428 -0.8972
 5805SOL     OW18313   5.383   2.098   0.584 -0.0366  0.1858  0.2717
 5805SOL    HW118314   5.369   2.064   0.677  1.9889 -2.6231 -0.3219
 5805SOL    HW218315   5.474   2.138   0.577  0.9419 -2.1005 -1.0581
 5806SOL     OW18316   1.869   6.909   1.242  0.2894  0.1465  0.5590
 5806SOL    HW118317   1.935   6.834   1.235 -2.0503 -2.0149 -0.0103
 5806SOL    HW218318   1.876   6.968   1.162  0.3146 -1.1416 -0.4134
 5807SOL     OW18319   2.046   5.376   2.923 -0.3191 -0.3745 -0.6639
 5807SOL    HW118320   2.135   5.386   2.967 -1.6590 -0.2476  2.2329
 5807SOL    HW218321   2.000   5.465   2.920 -1.1969 -0.7926 -0.1346
 5808SOL     OW18322   6.564   1.094   2.382  0.2235  0.1733  0.0469
 5808SOL    HW118323   6.650   1.094   2.433  0.1605 -0.5806  0.1741
 5808SOL    HW218324   6.582   1.115   2.286  0.8292 -1.7470 -0.3140
 5809SOL     OW18325   0.947   3.146   3.034 -0.1762 -0.0787 -0.3937
 5809SOL    HW118326   0.905   3.092   3.108  2.4533  1.2033  2.2411
 5809SOL    HW218327   1.017   3.092   2.988  0.3058  0.0651  0.1571
 5810SOL     OW18328   3.786   0.978   2.375  1.1125  0.4376 -0.3584
 5810SOL    HW118329   3.836   1.026   2.303  1.7458  0.3909  0.0440
 5810SOL    HW218330   3.818   0.883   2.381  0.9814  0.4088 -0.0887
 5811SOL     OW18331   2.934   6.311   6.651 -0.0528 -0.3328 -0.4111
 5811SOL    HW118332   2.958   6.235   6.592 -0.4132 -0.2272 -0.7047
 5811SOL    HW218333   3.006   6.380   6.649  0.6271 -0.9993  0.4545
 5812SOL     OW18334   4.883   1.475   5.641 -0.0521 -0.0831 -0.2985
 5812SOL    HW118335   4.842   1.402   5.694 -2.7155  0.3568 -1.5962
 5812SOL    HW218336   4.950   1.524   5.697 -1.7421 -0.4616  2.1825
 5813SOL     OW18337   6.628   2.966   4.589  0.1060  0.2786  0.0876
 5813SOL    HW118338   6.655   3.024   4.666 -0.3059 -1.6413  1.7933
 5813SOL    HW218339   6.601   2.876   4.624 -2.0288 -0.0453 -2.1547
 5814SOL     OW18340   1.410   4.298   0.367 -0.1083  0.0342  0.0242
 5814SOL    HW118341   1.405   4.375   0.431  0.3424 -0.0753  0.1908
 5814SOL    HW218342   1.482   4.236   0.395 -0.6586 -0.6043  0.0520
 5815SOL     OW18343   5.902   5.522   5.098  0.9002  0.1900  0.6988
 5815SOL    HW118344   5.906   5.582   5.178 -0.0745 -0.3225  1.1468
 5815SOL    HW218345   5.932   5.572   5.017 -1.4433  1.8191  0.7664
 5816SOL     OW18346   4.606   7.010   0.332 -0.0436 -0.3417  0.2703
 5816SOL    HW118347   4.560   7.055   0.256 -0.7862  0.5746  1.2368
 5816SOL    HW218348   4.570   6.918   0.343 -0.1457 -0.3750 -0.2809
 5817SOL     OW18349   6.693   3.664   5.495  0.3554  0.0764 -0.0409
 5817SOL    HW118350   6.730   3.588   5.548  0.8299 -0.0373 -0.5339
 5817SOL    HW218351   6.615   3.632   5.441 -0.8919  0.4477  1.4536
 5818SOL     OW18352   6.151   5.716   2.913  0.0083  0.4259 -0.0157
 5818SOL    HW118353   6.185   5.794   2.859  0.4352  1.2222  1.3453
 5818SOL    HW218354   6.134   5.746   3.007 -0.1501 -1.0681  0.4538
 5819SOL     OW18355   6.191   1.186   0.564 -0.3127 -0.3074 -0.3501
 5819SOL    HW118356   6.113   1.221   0.616  0.4154  0.6958  0.0944
 5819SOL    HW218357   6.275   1.197   0.617  0.0376 -2.3234 -0.3924
 5820SOL     OW18358   6.104   5.331   1.123 -0.2775  0.1883 -0.7247
 5820SOL    HW118359   6.165   5.304   1.198 -1.2052  0.0926  0.0108
 5820SOL    HW218360   6.102   5.258   1.054  1.3806  0.7093 -1.3852
 5821SOL     OW18361   3.105   0.039   3.536 -0.2891 -0.5183 -0.2870
 5821SOL    HW118362   3.026  -0.019   3.515  0.1256 -1.3460  0.3521
 5821SOL    HW218363   3.150   0.004   3.619 -0.2818  0.9884  0.3751
 5822SOL     OW18364   0.841   0.280   2.725  0.3013 -0.4205 -0.1753
 5822SOL    HW118365   0.850   0.290   2.824  1.5800  1.1818 -0.4054
 5822SOL    HW218366   0.744   0.284   2.700  0.0536  1.7904  0.8238
 5823SOL     OW18367   6.289   2.987   4.194 -0.0349 -0.7828  0.1574
 5823SOL    HW118368   6.343   2.967   4.276 -0.1986 -0.8263  0.2546
 5823SOL    HW218369   6.349   2.988   4.114  0.2999  0.2444  0.4042
 5824SOL     OW18370   5.344   5.557   3.407 -0.1355 -0.2696  0.0236
 5824SOL    HW118371   5.349   5.508   3.320 -1.1819 -0.8970  0.3028
 5824SOL    HW218372   5.298   5.645   3.394 -1.3553 -0.8730  0.1398
 5825SOL     OW18373   3.092   1.798   1.750  0.3915 -0.0068  0.2704
 5825SOL    HW118374   3.191   1.799   1.760  0.4278 -2.0527  0.5098
 5825SOL    HW218375   3.055   1.715   1.792 -1.4141  0.6300  0.0293
 5826SOL     OW18376   0.132   6.320   4.352  0.4852 -0.4189  0.1620
 5826SOL    HW118377   0.069   6.359   4.285  0.9360 -0.1739 -0.1281
 5826SOL    HW218378   0.100   6.229   4.379 -0.0256 -0.2686  0.0729
 5827SOL     OW18379   2.172   5.986   0.260  0.3230  0.5671  0.5134
 5827SOL    HW118380   2.261   6.022   0.233  0.4106 -0.4375 -0.5830
 5827SOL    HW218381   2.172   5.970   0.359  1.7006 -0.3109  0.4008
 5828SOL     OW18382   5.607   1.519   0.702 -0.1235  0.4091 -0.0921
 5828SOL    HW118383   5.629   1.430   0.742 -1.3937  0.2101  0.2131
 5828SOL    HW218384   5.508   1.526   0.690  0.0536  1.3560 -1.1425
 5829SOL     OW18385   0.761   1.886   1.356 -0.4323 -0.5687 -0.1959
 5829SOL    HW118386   0.812   1.805   1.326  2.9135  1.2771  0.0585
 5829SOL    HW218387   0.732   1.938   1.276  0.7342 -0.1467 -0.3631
 5830SOL     OW18388   2.732   6.379   5.594  0.9361  0.3753 -0.4304
 5830SOL    HW118389   2.734   6.288   5.635  0.0530  0.6648  0.2947
 5830SOL    HW218390   2.670   6.437   5.646  0.8875  1.1721 -1.3548
 5831SOL     OW18391   4.766   5.254   2.909 -0.0225 -0.1603  0.1488
 5831SOL    HW118392   4.779   5.187   2.836 -1.1581  0.0812 -0.2979
 5831SOL    HW218393   4.753   5.345   2.869  0.2372  0.1199  0.6966
 5832SOL     OW18394   3.205   2.952   4.735 -0.6097 -0.1212 -0.3676
 5832SOL    HW118395   3.116   2.911   4.716 -1.2921  0.5587  1.2112
 5832SOL    HW218396   3.247   2.907   4.813 -0.3866  0.7461  0.0229
 5833SOL     OW18397   3.153   3.593   2.951  0.1840 -0.2183  0.1122
 5833SOL    HW118398   3.063   3.590   2.908 -0.4249  0.0248  1.3364
 5833SOL    HW218399   3.184   3.501   2.972 -1.1625 -0.2001  2.4459
 5834SOL     OW18400   6.013   2.057   5.637 -0.7354  0.0769 -0.3163
 5834SOL    HW118401   6.090   2.097   5.686 -0.2874 -1.0943 -0.0206
 5834SOL    HW218402   5.965   1.992   5.697 -2.0266  0.8516 -0.4623
 5835SOL     OW18403   5.235   1.747   2.953 -0.0132 -0.5773  0.2926
 5835SOL    HW118404   5.192   1.838   2.955 -0.4108 -0.7231 -0.7855
 5835SOL    HW218405   5.328   1.754   2.988 -0.3544  0.0639  1.1143
 5836SOL     OW18406   0.917   1.436   4.264 -0.2916 -0.3443  0.2016
 5836SOL    HW118407   0.915   1.507   4.334  1.0900  1.1061 -1.1297
 5836SOL    HW218408   0.829   1.389   4.261 -0.0998 -1.1164  3.4956
 5837SOL     OW18409   5.460   4.398   0.498  0.3450  0.7418 -0.5041
 5837SOL    HW118410   5.397   4.322   0.485 -0.7233  1.8186 -2.0486
 5837SOL    HW218411   5.549   4.376   0.459  1.5008 -1.3129  2.8374
 5838SOL     OW18412   1.735   0.944   4.925 -0.4461 -0.3586 -0.0145
 5838SOL    HW118413   1.803   1.002   4.970  0.7266 -1.7166  0.0566
 5838SOL    HW218414   1.724   0.860   4.977 -0.2771 -1.2543 -1.3844
 5839SOL     OW18415   5.715   4.190   3.778  0.1685  0.4287 -0.0643
 5839SOL    HW118416   5.746   4.272   3.827 -0.4617 -0.1013  1.2566
 5839SOL    HW218417   5.788   4.121   3.779  1.4749  1.5971 -2.8707
 5840SOL     OW18418   4.411   6.190   6.935  0.2928 -0.0202  0.2347
 5840SOL    HW118419   4.344   6.162   7.004 -0.7960 -1.5312 -1.3312
 5840SOL    HW218420   4.503   6.165   6.965  0.2324  2.0257  2.3960
 5841SOL     OW18421   0.041   3.373   2.826  0.2347 -0.0606  0.0023
 5841SOL    HW118422   0.121   3.365   2.886 -0.5302 -0.6480  0.9598
 5841SOL    HW218423  -0.039   3.398   2.880 -0.2178  0.6481 -0.9681
 5842SOL     OW18424   3.948   2.378   1.346 -0.3858  0.1528 -0.2176
 5842SOL    HW118425   3.874   2.357   1.410 -0.1208 -0.5315 -0.1252
 5842SOL    HW218426   4.023   2.421   1.396  0.4093 -1.6548  0.2420
 5843SOL     OW18427   6.948   2.893   3.584 -0.3152  0.0473  0.0440
 5843SOL    HW118428   6.992   2.983   3.594  0.6411 -0.3897 -0.1699
 5843SOL    HW218429   7.017   2.824   3.563 -1.2162 -0.5141 -1.1786
 5844SOL     OW18430   1.330   0.321   0.038 -0.0606 -0.4125  0.1928
 5844SOL    HW118431   1.429   0.329   0.028 -0.1306 -0.7527 -0.9510
 5844SOL    HW218432   1.291   0.412   0.050  0.3573 -0.2324  0.2126
 5845SOL     OW18433   1.827   1.602   4.217 -0.3867  0.2805  0.0659
 5845SOL    HW118434   1.769   1.594   4.298  0.1906  1.1428  0.5729
 5845SOL    HW218435   1.808   1.525   4.156  0.0212 -1.0700  1.5633
 5846SOL     OW18436   6.318   3.536   5.986 -0.2471 -0.5273 -0.1936
 5846SOL    HW118437   6.393   3.473   5.964  1.4009  1.7383 -1.4607
 5846SOL    HW218438   6.267   3.557   5.903  0.1778  0.9476 -0.0973
 5847SOL     OW18439   0.716   2.671   2.679 -0.0200 -0.0410 -0.6668
 5847SOL    HW118440   0.654   2.750   2.674 -2.0351 -1.5030 -0.1532
 5847SOL    HW218441   0.798   2.697   2.730 -0.5400  1.7704 -0.6619
 5848SOL     OW18442   6.166   4.223   2.677  0.4911 -0.3010 -0.5257
 5848SOL    HW118443   6.091   4.288   2.671 -1.1762 -1.8609  1.8527
 5848SOL    HW218444   6.134   4.132   2.652  1.5657 -1.0207  0.6307
 5849SOL     OW18445   2.195   0.921   6.050  0.5710 -0.3813 -0.7531
 5849SOL    HW118446   2.114   0.949   6.102  0.4379  1.3530 -1.8094
 5849SOL    HW218447   2.244   0.850   6.101  0.3696  1.0809  1.6738
 5850SOL     OW18448   1.746   3.702   3.412  0.1709  0.4525  0.4507
 5850SOL    HW118449   1.734   3.635   3.486 -0.1506  0.1297  0.1080
 5850SOL    HW218450   1.823   3.763   3.435  0.4183  0.0176  0.7992
 5851SOL     OW18451   1.886   3.843   0.919 -0.4754  0.0879 -0.2112
 5851SOL    HW118452   1.947   3.874   0.993 -0.4965  0.1466 -0.2188
 5851SOL    HW218453   1.914   3.884   0.833 -0.6074  0.2185 -0.1917
 5852SOL     OW18454   4.569   0.062   2.257 -0.0686 -0.0121 -0.1060
 5852SOL    HW118455   4.596   0.151   2.220 -1.1168  0.1980 -0.3913
 5852SOL    HW218456   4.569  -0.006   2.183 -0.4778  0.0313 -0.1507
 5853SOL     OW18457   4.766   3.983   6.516 -0.3190 -0.5719 -0.2898
 5853SOL    HW118458   4.775   4.017   6.423 -0.9631  0.2189 -0.0839
 5853SOL    HW218459   4.672   3.996   6.547  0.1918  0.5120  0.9508
 5854SOL     OW18460   0.728   1.251   0.621 -0.1999 -0.2964  0.4051
 5854SOL    HW118461   0.632   1.276   0.612  0.0063  0.6231  0.5734
 5854SOL    HW218462   0.775   1.267   0.534 -0.0770 -0.1188  0.5005
 5855SOL     OW18463   2.632   2.375   4.643  0.6057 -0.1750  0.4661
 5855SOL    HW118464   2.650   2.278   4.659 -0.9723 -0.9436 -1.9501
 5855SOL    HW218465   2.684   2.406   4.564 -4.2545 -1.2386 -3.6890
 5856SOL     OW18466   6.354   1.316   3.321 -0.0077 -0.2706 -0.6520
 5856SOL    HW118467   6.352   1.225   3.279 -0.1387 -1.7015  2.1858
 5856SOL    HW218468   6.265   1.336   3.361  0.9106 -0.4239  1.6212
 5857SOL     OW18469   1.574   3.249   5.950  0.4737  0.4142 -0.6535
 5857SOL    HW118470   1.637   3.306   5.897 -0.1957  0.6327 -1.2180
 5857SOL    HW218471   1.613   3.157   5.959  1.1847  0.7314 -0.4236
 5858SOL     OW18472   1.631   5.863   3.594  0.5749  0.4581 -0.6344
 5858SOL    HW118473   1.612   5.846   3.498  1.3873  0.5581 -0.8245
 5858SOL    HW218474   1.554   5.833   3.650  0.2487  0.0742 -1.2843
 5859SOL     OW18475   6.528   4.427   1.558 -0.6610 -0.3838 -0.0036
 5859SOL    HW118476   6.456   4.493   1.535 -0.0534  0.0598 -0.6697
 5859SOL    HW218477   6.486   4.340   1.586 -1.4544 -0.0204 -0.0405
 5860SOL     OW18478   0.226   4.193   1.190  0.4858 -0.3250 -0.4017
 5860SOL    HW118479   0.290   4.125   1.155 -0.0366  0.0939 -2.3271
 5860SOL    HW218480   0.154   4.209   1.122 -0.0973  1.2363  0.5177
 5861SOL     OW18481   4.627   1.046   4.043 -0.1040  0.0142  0.0052
 5861SOL    HW118482   4.695   1.120   4.037 -1.1824  0.9158 -3.1943
 5861SOL    HW218483   4.674   0.959   4.056  1.3511  0.9901  1.7116
 5862SOL     OW18484   5.578   5.765   4.952  0.1357 -0.7579  0.5837
 5862SOL    HW118485   5.593   5.737   5.046 -1.7774 -2.4655  0.4339
 5862SOL    HW218486   5.599   5.689   4.890  0.1494 -0.0690 -0.2808
 5863SOL     OW18487   3.795   2.689   0.862 -0.2457  0.0678 -0.2802
 5863SOL    HW118488   3.846   2.623   0.918 -0.0679 -0.9054 -1.5458
 5863SOL    HW218489   3.757   2.643   0.782 -0.7777  1.3543 -0.7995
 5864SOL     OW18490   5.035   4.855   6.633 -0.5104  0.1179 -0.4409
 5864SOL    HW118491   5.014   4.760   6.656  2.6699 -0.7299 -0.6553
 5864SOL    HW218492   5.096   4.893   6.702 -0.6569  1.5813 -1.0877
 5865SOL     OW18493   3.562   5.863   1.628  0.1054 -0.6842  0.0344
 5865SOL    HW118494   3.579   5.810   1.545 -0.5858 -0.9946  0.0791
 5865SOL    HW218495   3.485   5.925   1.613  0.4590 -0.2030  0.2084
 5866SOL     OW18496   2.955   0.752   6.666  0.5411  0.2887 -0.1123
 5866SOL    HW118497   2.880   0.693   6.696 -1.2121  1.4700 -1.9010
 5866SOL    HW218498   2.966   0.827   6.731 -0.0243  0.2371  0.0514
 5867SOL     OW18499   5.457   3.854   1.283 -0.0883  0.7271 -0.2995
 5867SOL    HW118500   5.449   3.952   1.264 -0.6068  0.4263 -1.7482
 5867SOL    HW218501   5.404   3.802   1.216 -0.4476 -0.5273  0.8989
 5868SOL     OW18502   2.406   2.800   5.240  0.0035 -0.0131  0.3408
 5868SOL    HW118503   2.451   2.887   5.219 -0.0608 -0.4088 -1.5779
 5868SOL    HW218504   2.307   2.810   5.231  0.0505 -0.5160 -0.8983
 5869SOL     OW18505   3.345   5.358   4.310 -0.2102 -0.0251  0.4645
 5869SOL    HW118506   3.414   5.387   4.377 -1.3254  2.2083  0.7295
 5869SOL    HW218507   3.389   5.338   4.223  0.8828  0.4080  0.9011
 5870SOL     OW18508   5.750   5.951   2.757 -0.8963 -0.1116 -0.1250
 5870SOL    HW118509   5.801   6.035   2.773 -0.7466 -0.1001 -0.6290
 5870SOL    HW218510   5.750   5.930   2.659  2.9778 -3.1141  0.2773
 5871SOL     OW18511   3.708   4.950   0.836 -0.0833  0.0501  0.0358
 5871SOL    HW118512   3.796   4.993   0.819 -0.6150  0.3541 -2.3679
 5871SOL    HW218513   3.704   4.862   0.787 -0.9418 -0.1797  0.4946
 5872SOL     OW18514   3.232   4.003   5.839 -0.0034  0.8012 -0.5273
 5872SOL    HW118515   3.292   4.017   5.760 -0.2107 -0.3609 -0.9094
 5872SOL    HW218516   3.203   3.907   5.842 -0.1504  0.8760  0.8554
 5873SOL     OW18517   1.281   3.822   1.639  0.1514  0.1943  0.4666
 5873SOL    HW118518   1.331   3.854   1.559 -1.1903 -1.3939 -1.1119
 5873SOL    HW218519   1.246   3.730   1.621 -2.2027  0.7121  1.9744
 5874SOL     OW18520   1.158   4.522   6.546 -0.7916  0.6647 -0.2147
 5874SOL    HW118521   1.222   4.597   6.526  1.3347 -0.0072  3.2484
 5874SOL    HW218522   1.099   4.548   6.622  0.3620 -1.2546  1.4279
 5875SOL     OW18523   4.271   2.664   1.371  0.5674  0.1338  0.2293
 5875SOL    HW118524   4.338   2.607   1.323 -0.1288 -1.0050  0.5926
 5875SOL    HW218525   4.220   2.609   1.436  1.7709  1.7208  2.6502
 5876SOL     OW18526   3.023   3.776   6.449 -0.6169 -0.6973  0.0077
 5876SOL    HW118527   3.044   3.867   6.483 -0.0670 -0.7842 -0.0965
 5876SOL    HW218528   2.929   3.752   6.475 -0.5438 -0.3661  0.6029
 5877SOL     OW18529   6.946   6.883   2.768  0.3066  0.1562  0.0530
 5877SOL    HW118530   6.933   6.835   2.681 -1.0779  0.3692  0.1179
 5877SOL    HW218531   7.044   6.890   2.788  0.5889 -1.3761 -0.6487
 5878SOL     OW18532   4.797   4.143   1.886  0.3504  0.1568 -0.0043
 5878SOL    HW118533   4.866   4.173   1.953  0.3555 -1.1316  0.5853
 5878SOL    HW218534   4.711   4.191   1.903  1.2495  2.3286 -1.1971
 5879SOL     OW18535   3.387   5.384   0.091 -0.3007  0.2544 -0.5644
 5879SOL    HW118536   3.412   5.301   0.140  0.3376  1.1178  0.6250
 5879SOL    HW218537   3.297   5.415   0.121  1.1403  2.2039  2.1224
 5880SOL     OW18538   5.208   2.729   1.066 -0.2703 -0.2914  0.0630
 5880SOL    HW118539   5.151   2.715   1.147 -0.2798  0.2100  0.1494
 5880SOL    HW218540   5.169   2.804   1.012 -0.1413 -0.4810 -0.2928
 5881SOL     OW18541   2.359   6.827   3.701  0.4101 -0.3112 -0.1208
 5881SOL    HW118542   2.302   6.851   3.623 -0.6442 -1.8323  0.1340
 5881SOL    HW218543   2.309   6.847   3.786  1.0465  0.1601  0.1512
 5882SOL     OW18544   0.975   0.915   4.041  0.5519 -0.4549 -0.4567
 5882SOL    HW118545   1.047   0.979   4.065 -0.8939  0.7149  0.9674
 5882SOL    HW218546   0.974   0.840   4.107 -1.5564  1.2541  1.6374
 5883SOL     OW18547   0.257   6.737   7.005  0.1406 -0.4746  0.0931
 5883SOL    HW118548   0.288   6.653   7.049 -0.1467 -0.1967  0.8350
 5883SOL    HW218549   0.180   6.717   6.944 -0.6869 -0.5848  1.1432
 5884SOL     OW18550   0.597   1.887   3.236 -0.4493  0.3633  0.5337
 5884SOL    HW118551   0.609   1.980   3.200  0.4872 -0.3607 -1.1232
 5884SOL    HW218552   0.582   1.892   3.334  2.7115  2.1167  1.0681
 5885SOL     OW18553   0.150   5.937   1.346  0.2371  0.0945  0.0657
 5885SOL    HW118554   0.181   6.010   1.407 -1.7877  0.5679  0.6188
 5885SOL    HW218555   0.121   5.978   1.259 -0.5494 -0.0917  0.2382
 5886SOL     OW18556   2.037   4.684   1.568  0.1446 -0.6171 -0.5154
 5886SOL    HW118557   2.132   4.682   1.597  0.4010 -1.4029 -1.3954
 5886SOL    HW218558   2.031   4.716   1.473 -0.4233 -1.0839 -0.6429
 5887SOL     OW18559   3.338   3.973   0.529  0.5129 -0.4279  0.0482
 5887SOL    HW118560   3.410   4.039   0.550  0.2896 -0.5954  1.4520
 5887SOL    HW218561   3.337   3.955   0.431  2.1107 -0.1079 -0.0576
 5888SOL     OW18562   2.459   0.345   0.570  0.4928 -0.2322 -0.2763
 5888SOL    HW118563   2.551   0.384   0.577  0.3996  0.0010 -0.3695
 5888SOL    HW218564   2.456   0.279   0.494  1.2519 -2.0763  1.2140
 5889SOL     OW18565   3.439   0.772   1.756  0.0378 -0.1547  0.1748
 5889SOL    HW118566   3.495   0.829   1.817  0.4738 -0.5007  0.1004
 5889SOL    HW218567   3.404   0.694   1.807  2.2935 -1.7262 -0.5166
 5890SOL     OW18568   0.171   5.551   3.082 -0.4512 -0.5326 -0.0152
 5890SOL    HW118569   0.171   5.472   3.020  1.4262  0.4054 -1.3330
 5890SOL    HW218570   0.265   5.583   3.094 -0.8365 -0.2106  2.7920
 5891SOL     OW18571   2.400   3.330   6.809 -0.0993  0.2313  0.0130
 5891SOL    HW118572   2.320   3.271   6.820  0.2018 -0.0239  0.8678
 5891SOL    HW218573   2.481   3.273   6.796  0.1161  0.4748  0.2983
 5892SOL     OW18574   0.241   1.106   0.976 -0.6327  0.1311 -0.1882
 5892SOL    HW118575   0.189   1.091   0.892  1.8755 -0.5268 -1.7297
 5892SOL    HW218576   0.226   1.030   1.039 -2.1668  0.4011 -0.1833
 5893SOL     OW18577   0.629   6.009   2.626  0.0162 -0.8086 -0.0078
 5893SOL    HW118578   0.532   5.985   2.623  0.4164 -3.5615  3.1691
 5893SOL    HW218579   0.682   5.941   2.576  0.4985 -0.8868  0.5990
 5894SOL     OW18580   3.574   4.861   0.193 -0.5342  0.1763  0.6619
 5894SOL    HW118581   3.558   4.836   0.098 -0.1381  1.0991  0.3452
 5894SOL    HW218582   3.670   4.845   0.217 -0.8417 -0.9450  1.1913
 5895SOL     OW18583   5.109   0.160   4.295 -1.1816 -0.2454  0.1417
 5895SOL    HW118584   5.175   0.089   4.269  0.4257  0.9233  0.8096
 5895SOL    HW218585   5.083   0.212   4.214  0.2921  0.5115  0.1079
 5896SOL     OW18586   4.868   1.802   0.357  0.3641 -0.5668 -0.3319
 5896SOL    HW118587   4.878   1.787   0.456 -2.0435 -2.0758 -0.2232
 5896SOL    HW218588   4.835   1.895   0.341 -1.3310 -0.9764  0.5204
 5897SOL     OW18589   2.396   2.781   5.508  0.3853 -0.3499  0.0639
 5897SOL    HW118590   2.415   2.769   5.411  0.9757  0.7573  0.0362
 5897SOL    HW218591   2.346   2.866   5.522  0.6353 -0.3161  0.7713
 5898SOL     OW18592   3.444   1.393   6.901 -0.0493  0.4977 -0.6279
 5898SOL    HW118593   3.504   1.375   6.979  0.6533  1.7959 -0.8473
 5898SOL    HW218594   3.393   1.477   6.916 -0.6614  0.2326 -1.1410
 5899SOL     OW18595   0.537   6.712   0.669  0.0464 -0.1884  0.5659
 5899SOL    HW118596   0.446   6.699   0.708  0.0505  0.4126  0.7899
 5899SOL    HW218597   0.591   6.629   0.683  0.6934  0.6144  3.6424
 5900SOL     OW18598   4.696   5.311   1.046  0.2680 -0.1338 -0.6085
 5900SOL    HW118599   4.790   5.313   1.080  0.2750 -0.1970 -0.6261
 5900SOL    HW218600   4.652   5.398   1.069  0.7821  0.4926 -1.8955
 5901SOL     OW18601   6.747   0.635   5.209 -0.1629 -0.0282  0.5843
 5901SOL    HW118602   6.746   0.639   5.109 -0.0875 -2.0860  0.4763
 5901SOL    HW218603   6.836   0.605   5.241  0.7893  3.2891  1.4811
 5902SOL     OW18604   3.242   3.381   3.792 -0.2951  0.0713 -0.2922
 5902SOL    HW118605   3.234   3.458   3.854 -0.0555  0.1201 -0.3221
 5902SOL    HW218606   3.283   3.303   3.840 -1.7721 -0.4758  0.1201
 5903SOL     OW18607   5.296   6.150   6.528 -0.0165 -0.2290  0.1335
 5903SOL    HW118608   5.345   6.066   6.550 -0.3392 -0.5335 -0.2994
 5903SOL    HW218609   5.263   6.192   6.612  0.5829 -0.2613  0.3948
 5904SOL     OW18610   6.381   0.803   1.187 -0.2542  0.1098  0.1368
 5904SOL    HW118611   6.351   0.897   1.170  1.3377  0.5266 -0.5701
 5904SOL    HW218612   6.479   0.797   1.173 -0.6496 -2.2019 -2.2513
 5905SOL     OW18613   5.972   2.209   4.510 -0.6729 -0.0513 -0.0895
 5905SOL    HW118614   5.968   2.119   4.554 -1.9658 -0.0749 -0.2158
 5905SOL    HW218615   6.024   2.202   4.425  0.2481 -0.4068  0.4783
 5906SOL     OW18616   5.678   2.187   3.957 -0.5459 -0.5168  0.0400
 5906SOL    HW118617   5.698   2.126   3.880 -1.8332  0.5226 -1.1834
 5906SOL    HW218618   5.650   2.133   4.036 -2.1411 -1.5523 -1.1582
 5907SOL     OW18619   1.196   2.105   6.534 -0.3795  0.3679  0.4453
 5907SOL    HW118620   1.224   2.069   6.622  1.0223 -0.1923 -0.1970
 5907SOL    HW218621   1.250   2.062   6.461 -0.0717  2.2636 -0.5221
 5908SOL     OW18622   1.700   1.863   6.017  0.5629 -0.4770  0.0355
 5908SOL    HW118623   1.646   1.890   6.097  0.3044 -0.2622 -0.2096
 5908SOL    HW218624   1.772   1.799   6.045 -0.9740 -2.2654  0.1115
 5909SOL     OW18625   0.199   3.450   4.993 -0.8145 -0.2561 -0.2613
 5909SOL    HW118626   0.270   3.398   4.946 -1.0603  1.5287 -2.8744
 5909SOL    HW218627   0.116   3.396   4.999  0.2603 -1.8151  1.4594
 5910SOL     OW18628   1.603   5.084   0.704  0.3804 -0.5067 -0.0287
 5910SOL    HW118629   1.512   5.045   0.688 -0.2050  0.4938  0.7808
 5910SOL    HW218630   1.596   5.183   0.710  1.8338 -0.2461 -1.8728
 5911SOL     OW18631   1.729   0.147   6.607 -0.9051  0.7139  0.4843
 5911SOL    HW118632   1.765   0.163   6.515 -0.7799  2.4850  0.8082
 5911SOL    HW218633   1.631   0.128   6.602 -1.1968  2.2045  0.0630
 5912SOL     OW18634   1.375   3.294   4.905 -0.2446 -0.1692  0.7467
 5912SOL    HW118635   1.283   3.265   4.933 -1.4023  1.9728 -0.5386
 5912SOL    HW218636   1.411   3.229   4.838 -1.0881 -0.7066  0.7887
 5913SOL     OW18637   1.820   1.239   5.460 -0.7159 -0.3256  0.0200
 5913SOL    HW118638   1.866   1.152   5.441 -1.4987 -0.7226 -0.0818
 5913SOL    HW218639   1.750   1.256   5.391 -0.5079  0.4415 -0.0169
 5914SOL     OW18640   6.586   4.644   0.190 -0.0928 -0.3119 -0.5420
 5914SOL    HW118641   6.517   4.706   0.227 -0.7028 -2.0140  1.3382
 5914SOL    HW218642   6.676   4.670   0.224 -0.2965 -0.2483 -0.0508
 5915SOL     OW18643   5.063   5.210   4.748 -0.0930  0.3010  0.3654
 5915SOL    HW118644   5.083   5.175   4.656  1.7956 -1.8117  1.4880
 5915SOL    HW218645   5.005   5.144   4.796 -1.5081  1.6421  0.5733
 5916SOL     OW18646   3.149   0.220   6.077 -0.7564  0.1561  0.0282
 5916SOL    HW118647   3.061   0.267   6.068 -1.0883 -0.5819 -0.6453
 5916SOL    HW218648   3.171   0.212   6.175 -0.1351  2.6722  0.1779
 5917SOL     OW18649   3.057   4.466   1.685  0.0690 -0.2483 -0.6080
 5917SOL    HW118650   2.982   4.484   1.749  0.2144  1.1866 -0.8142
 5917SOL    HW218651   3.092   4.373   1.700 -1.4459 -0.7803 -0.2192
 5918SOL     OW18652   4.269   1.393   2.458 -0.1294  0.3997  0.1831
 5918SOL    HW118653   4.216   1.384   2.543  1.0499 -1.6936  0.7768
 5918SOL    HW218654   4.344   1.327   2.459  0.9142  1.4735 -1.7920
 5919SOL     OW18655   2.317   0.720   6.170 -0.1093 -0.1856  0.0321
 5919SOL    HW118656   2.352   0.679   6.086 -0.7916 -1.4701  0.3473
 5919SOL    HW218657   2.393   0.736   6.233  0.1591 -1.1682 -0.0209
 5920SOL     OW18658   2.994   5.070   6.101 -0.4978  0.0843 -0.6305
 5920SOL    HW118659   3.093   5.075   6.084 -0.4381 -0.8571 -0.6325
 5920SOL    HW218660   2.978   5.015   6.184 -1.0649 -0.8465 -1.3407
 5921SOL     OW18661   3.296   6.755   3.590  0.0306  0.1097  0.7973
 5921SOL    HW118662   3.257   6.834   3.638  1.2901  1.4473 -0.2707
 5921SOL    HW218663   3.384   6.731   3.630 -0.1420 -0.4763  0.8343
 5922SOL     OW18664   5.824   5.681   2.337  0.0719 -0.1122  0.5956
 5922SOL    HW118665   5.851   5.701   2.243 -0.4464  0.5539  0.5802
 5922SOL    HW218666   5.905   5.667   2.393  0.3866 -0.4360  0.0660
 5923SOL     OW18667   0.188   6.961   2.840  0.1882  0.3757  0.5724
 5923SOL    HW118668   0.152   6.883   2.892 -1.0095  0.3699 -0.2381
 5923SOL    HW218669   0.282   6.980   2.870  1.1376 -2.4057 -0.2987
 5924SOL     OW18670   4.229   2.876   5.766  0.4146  0.3053 -0.5322
 5924SOL    HW118671   4.241   2.834   5.857  0.9268  0.1319 -0.6758
 5924SOL    HW218672   4.158   2.827   5.717  0.2016  0.3372 -0.2590
 5925SOL     OW18673   5.906   0.824   6.631  0.3545 -0.1728 -0.0612
 5925SOL    HW118674   5.870   0.744   6.679 -1.0398  0.7435  0.4997
 5925SOL    HW218675   5.890   0.906   6.687 -0.0664  0.7516 -1.4900
 5926SOL     OW18676   2.941   6.947   2.477  0.1751 -0.5953 -0.1822
 5926SOL    HW118677   2.881   6.869   2.495  0.2808 -0.6406 -0.0249
 5926SOL    HW218678   2.891   7.017   2.426  0.0054 -0.6564 -0.0981
 5927SOL     OW18679   2.927   5.795   2.818  0.4648  0.0207  0.3212
 5927SOL    HW118680   2.858   5.748   2.761  0.7005 -0.1068  0.1411
 5927SOL    HW218681   3.018   5.762   2.794  0.8100  1.7131 -0.9779
 5928SOL     OW18682   5.867   0.315   6.241 -0.7868  0.5730 -0.4728
 5928SOL    HW118683   5.947   0.276   6.195 -0.3759  2.0323 -1.0339
 5928SOL    HW218684   5.786   0.261   6.218  0.0098 -0.9468  0.1358
 5929SOL     OW18685   0.775   1.206   7.013 -0.1131 -0.5212 -0.4196
 5929SOL    HW118686   0.850   1.185   6.950  0.1190 -0.7053 -0.0842
 5929SOL    HW218687   0.796   1.290   7.063 -0.2565 -0.4237 -0.5236
 5930SOL     OW18688   5.466   3.821   5.584  0.1105  0.1338  0.4988
 5930SOL    HW118689   5.370   3.805   5.607  0.0953 -0.4338  0.0407
 5930SOL    HW218690   5.472   3.856   5.490  0.3582  0.0790  0.4948
 5931SOL     OW18691   5.140   4.756   2.083 -0.2927 -0.7103  0.1691
 5931SOL    HW118692   5.154   4.665   2.046 -0.8564 -1.2796  1.2968
 5931SOL    HW218693   5.093   4.750   2.171 -3.6941  0.8446 -1.3543
 5932SOL     OW18694   2.376   0.493   1.144  0.3068  0.0688 -0.5152
 5932SOL    HW118695   2.413   0.458   1.058 -1.9803  1.4497 -2.1803
 5932SOL    HW218696   2.377   0.593   1.142 -0.5715  0.1239  0.7192
 5933SOL     OW18697   5.751   0.795   3.361  0.3565 -0.2814  0.0397
 5933SOL    HW118698   5.772   0.878   3.308  0.4820 -2.2410 -3.2232
 5933SOL    HW218699   5.652   0.787   3.373  0.4058  1.0287  1.7247
 5934SOL     OW18700   3.826   3.414   2.958  0.3124 -0.1828  0.0272
 5934SOL    HW118701   3.815   3.315   2.956 -1.4256 -0.0296  0.1635
 5934SOL    HW218702   3.922   3.438   2.942  0.8165 -1.8833  0.3494
 5935SOL     OW18703   3.677   2.890   2.999 -0.0397  0.2916  0.4359
 5935SOL    HW118704   3.721   2.859   3.083 -0.5317 -0.1833  0.5264
 5935SOL    HW218705   3.579   2.900   3.015 -0.1090  0.3749 -0.0314
 5936SOL     OW18706   1.287   5.308   6.970  0.4132  0.1594  0.0886
 5936SOL    HW118707   1.338   5.234   7.013  1.4514 -0.0715 -1.4406
 5936SOL    HW218708   1.332   5.395   6.989 -1.5358  0.6735  3.0000
 5937SOL     OW18709   2.363   1.874   0.574 -0.0160 -0.5699 -0.2288
 5937SOL    HW118710   2.281   1.860   0.519 -0.4389  1.1207 -0.0777
 5937SOL    HW218711   2.431   1.925   0.521  0.5530 -1.0794 -0.0050
 5938SOL     OW18712   2.532   2.547   0.245 -0.1516 -0.0102 -0.2099
 5938SOL    HW118713   2.573   2.564   0.156 -0.7901 -0.9240 -0.6921
 5938SOL    HW218714   2.467   2.620   0.267 -1.6373 -0.8736 -1.5107
 5939SOL     OW18715   1.135   0.731   2.619  0.5800 -0.2089 -0.4227
 5939SOL    HW118716   1.227   0.752   2.651 -0.0161  0.5485  0.8848
 5939SOL    HW218717   1.111   0.637   2.641  1.9576 -1.3030 -3.1183
 5940SOL     OW18718   4.373   4.814   1.405  0.2632 -0.3031  0.0486
 5940SOL    HW118719   4.336   4.731   1.364 -1.0084  0.6271 -0.7678
 5940SOL    HW218720   4.419   4.791   1.490  1.0303 -1.9947 -0.7767
 5941SOL     OW18721   6.738   2.731   2.674  0.3471  0.0290 -0.1114
 5941SOL    HW118722   6.820   2.693   2.631  0.4519 -0.1080  0.2054
 5941SOL    HW218723   6.753   2.740   2.772 -0.7728 -2.0797  0.3212
 5942SOL     OW18724   4.059   1.945   5.604 -0.1644 -0.0966 -0.5409
 5942SOL    HW118725   3.987   2.012   5.623 -0.4748 -0.6835  0.4613
 5942SOL    HW218726   4.043   1.902   5.516 -0.4397  0.5368 -0.8035
 5943SOL     OW18727   2.598   5.080   0.725  0.4108  0.3289 -0.6856
 5943SOL    HW118728   2.579   4.993   0.680  0.0531  0.0010  0.0935
 5943SOL    HW218729   2.653   5.065   0.806 -2.0026  0.4547  1.0916
 5944SOL     OW18730   5.473   1.678   2.411 -0.2539 -0.3188 -0.3659
 5944SOL    HW118731   5.387   1.707   2.369 -1.0034  1.3583  2.1414
 5944SOL    HW218732   5.540   1.752   2.404 -0.6576  0.3383  1.9603
 5945SOL     OW18733   5.576   6.828   6.069  0.1560  0.0359  0.3913
 5945SOL    HW118734   5.676   6.825   6.065  0.1500  0.8932 -1.0286
 5945SOL    HW218735   5.540   6.741   6.037  0.4451  0.3183 -0.7502
 5946SOL     OW18736   4.234   2.457   5.500  0.4149 -0.6273 -0.8188
 5946SOL    HW118737   4.231   2.398   5.581  1.1799  0.7706  0.2886
 5946SOL    HW218738   4.142   2.466   5.462 -0.4823  0.6939  1.4480
 5947SOL     OW18739   4.855   3.810   3.051  0.3401  0.3549  0.6789
 5947SOL    HW118740   4.939   3.770   3.087 -1.1174 -1.8107  1.9192
 5947SOL    HW218741   4.845   3.904   3.086  1.8458  0.3806  1.1019
 5948SOL     OW18742   3.221   4.908   4.921  0.1220  0.0085  0.0917
 5948SOL    HW118743   3.303   4.916   4.977 -0.5100  1.9865  0.7866
 5948SOL    HW218744   3.195   4.811   4.914  1.5507 -0.4833  1.2203
 5949SOL     OW18745   4.879   3.220   2.551  0.0504  0.1295  0.3957
 5949SOL    HW118746   4.955   3.222   2.486  0.2866  0.5615  0.6822
 5949SOL    HW218747   4.823   3.139   2.534  0.9068 -0.5155  0.5591
 5950SOL     OW18748   6.240   2.377   5.504  0.4612  0.0335  0.0430
 5950SOL    HW118749   6.327   2.417   5.476  1.3237 -1.4088  0.5595
 5950SOL    HW218750   6.208   2.421   5.588 -0.2828  1.8343 -1.1170
 5951SOL     OW18751   1.924   2.386   2.878 -0.1384 -0.1371  0.2835
 5951SOL    HW118752   1.959   2.475   2.907 -0.0420  0.4206 -1.4278
 5951SOL    HW218753   1.994   2.316   2.895  0.3044  0.3321  0.4247
 5952SOL     OW18754   6.724   6.046   4.103  0.6834  0.1501  0.4010
 5952SOL    HW118755   6.722   6.119   4.171 -0.3581  0.5456 -0.0343
 5952SOL    HW218756   6.702   6.083   4.013  2.3157 -0.3193 -0.2124
 5953SOL     OW18757   2.409   4.160   1.087  0.3565 -0.2596  0.0899
 5953SOL    HW118758   2.406   4.182   0.989 -1.1407  0.3249  0.2412
 5953SOL    HW218759   2.343   4.087   1.106 -1.0291  1.1715  0.9937
 5954SOL     OW18760   2.186   5.844   0.890  0.0428  0.3179 -0.4272
 5954SOL    HW118761   2.225   5.918   0.834  0.1677  1.8817  1.6128
 5954SOL    HW218762   2.086   5.850   0.888  0.0431  0.2578 -0.6210
 5955SOL     OW18763   2.829   5.383   1.492 -0.3124 -0.3647 -0.2935
 5955SOL    HW118764   2.900   5.315   1.508  0.3263  0.2398 -0.4868
 5955SOL    HW218765   2.853   5.439   1.412  0.0503  1.1961  0.8573
 5956SOL     OW18766   1.088   2.247   1.376  0.1964 -0.4070 -0.3051
 5956SOL    HW118767   1.080   2.194   1.291  0.1088 -0.4391 -0.2776
 5956SOL    HW218768   1.159   2.208   1.433  1.3458  0.5485 -1.0411
 5957SOL     OW18769   3.127   6.926   1.035  0.2926 -0.0671  0.1298
 5957SOL    HW118770   3.176   6.896   1.118  0.6821 -1.1327 -0.4686
 5957SOL    HW218771   3.162   6.876   0.956 -1.2130 -0.2575 -0.4456
 5958SOL     OW18772   2.218   0.005   2.950  0.4107  0.5162 -0.1524
 5958SOL    HW118773   2.288   0.076   2.942  1.1297  0.0015  1.3404
 5958SOL    HW218774   2.192  -0.026   2.858  1.3027  1.5077 -0.7676
 5959SOL     OW18775   1.225   5.984   6.434 -0.8682 -0.4507 -0.3768
 5959SOL    HW118776   1.266   6.000   6.344 -2.1703  1.4287 -0.6893
 5959SOL    HW218777   1.286   5.927   6.489 -0.7639 -3.1377 -2.9888
 5960SOL     OW18778   0.469   1.537   3.091 -0.0834  0.3195  0.2384
 5960SOL    HW118779   0.478   1.560   3.187  0.7686 -2.5610  0.9330
 5960SOL    HW218780   0.399   1.465   3.080 -0.8233  1.2287 -1.4295
 5961SOL     OW18781   2.645   2.043   5.848 -0.0125  0.0057 -0.3214
 5961SOL    HW118782   2.579   2.096   5.794 -1.8762 -1.6937  0.1563
 5961SOL    HW218783   2.711   1.999   5.787 -0.2150  0.5522 -0.9416
 5962SOL     OW18784   5.713   3.591   5.399  0.1244 -0.7778 -0.7210
 5962SOL    HW118785   5.681   3.591   5.304 -2.9582  1.8527  0.1459
 5962SOL    HW218786   5.639   3.562   5.459 -0.1628  3.3358  1.2606
 5963SOL     OW18787   5.277   5.502   2.795  0.0235  0.8682 -0.2024
 5963SOL    HW118788   5.180   5.520   2.811  0.2126  0.7951  1.1009
 5963SOL    HW218789   5.288   5.408   2.764 -0.5533  1.6221 -2.9909
 5964SOL     OW18790   6.211   4.171   4.496  0.1665  0.0508 -0.4283
 5964SOL    HW118791   6.128   4.163   4.552  0.0141  0.6994 -0.5584
 5964SOL    HW218792   6.267   4.089   4.507  0.6367  0.5935  1.4425
 5965SOL     OW18793   6.832   1.839   2.545  0.8569  0.2871 -0.1818
 5965SOL    HW118794   6.855   1.935   2.529 -0.9609  1.0674  1.4990
 5965SOL    HW218795   6.884   1.806   2.624 -0.1068  0.5688  0.5824
 5966SOL     OW18796   1.664   3.309   4.771  0.2998  0.2115 -0.0475
 5966SOL    HW118797   1.678   3.407   4.758  0.8723  0.0156 -1.0054
 5966SOL    HW218798   1.728   3.258   4.714 -0.2831 -0.7268  0.1047
 5967SOL     OW18799   4.997   5.598   7.012  0.2175  0.1179 -0.1992
 5967SOL    HW118800   4.986   5.541   6.931 -4.1597 -2.4505  1.8294
 5967SOL    HW218801   5.060   5.553   7.076 -0.0079 -0.3361 -0.2931
 5968SOL     OW18802   0.501   2.967   2.308  0.0550 -0.2457 -0.8173
 5968SOL    HW118803   0.489   2.868   2.299 -0.5398 -0.3471  0.6749
 5968SOL    HW218804   0.596   2.991   2.291  0.4235 -1.2225 -0.2154
 5969SOL     OW18805   0.321   2.624   2.294 -0.1602 -0.3104 -0.2660
 5969SOL    HW118806   0.281   2.546   2.246  1.6012 -1.1004 -0.5163
 5969SOL    HW218807   0.420   2.621   2.285 -0.0623  2.1219 -0.4946
 5970SOL     OW18808   0.313   3.799   3.541 -0.3451 -0.0566  0.0203
 5970SOL    HW118809   0.402   3.764   3.513 -0.0278  0.5520  0.2716
 5970SOL    HW218810   0.315   3.821   3.638 -0.6071  0.4576 -0.0868
 5971SOL     OW18811   2.148   6.898   3.871 -0.4583  0.5530  0.0451
 5971SOL    HW118812   2.190   6.985   3.898 -2.2172  0.4336  3.7771
 5971SOL    HW218813   2.057   6.915   3.835 -0.6164  0.2678  0.3147
 5972SOL     OW18814   5.032   0.224   0.968  0.1877 -0.1389 -0.5072
 5972SOL    HW118815   5.026   0.290   0.893  0.4026  1.4269  0.7941
 5972SOL    HW218816   5.119   0.234   1.015  0.0473 -1.0780 -0.0179
 5973SOL     OW18817   2.102   4.786   3.279 -0.3157 -0.4635  0.3556
 5973SOL    HW118818   2.165   4.712   3.304 -0.5454 -1.2088 -1.1602
 5973SOL    HW218819   2.012   4.766   3.316 -0.5851 -1.4166 -0.7337
 5974SOL     OW18820   1.708   3.999   6.896  0.4395 -0.6277 -0.1234
 5974SOL    HW118821   1.652   4.010   6.978 -0.8913  0.1318 -1.0937
 5974SOL    HW218822   1.668   3.931   6.836 -1.3406  2.0809 -2.2652
 5975SOL     OW18823   1.876   4.639   0.365 -0.4797 -0.0960 -0.4254
 5975SOL    HW118824   1.922   4.710   0.310  0.6173 -0.7985 -0.4377
 5975SOL    HW218825   1.892   4.656   0.462 -0.4677 -0.1635 -0.4157
 5976SOL     OW18826   3.522   3.401   2.898 -0.3106  0.4866 -0.8254
 5976SOL    HW118827   3.619   3.403   2.923 -0.6423 -0.5837  0.7604
 5976SOL    HW218828   3.489   3.494   2.883  0.9883  0.8494 -1.5664
 5977SOL     OW18829   0.366   4.279   3.053 -0.3311  0.2794 -0.3873
 5977SOL    HW118830   0.352   4.180   3.060  1.3409 -0.0050 -0.6181
 5977SOL    HW218831   0.350   4.321   3.142  3.0975 -0.8419  0.9280
 5978SOL     OW18832   5.401   2.713   1.258  0.1183  0.1707 -0.6192
 5978SOL    HW118833   5.354   2.742   1.342 -0.1087 -2.3567  0.2056
 5978SOL    HW218834   5.339   2.721   1.180 -0.4227  0.4014 -0.1692
 5979SOL     OW18835   0.409   2.620   1.594  0.2355 -0.2425  0.6733
 5979SOL    HW118836   0.439   2.524   1.600  0.9962  0.0132  1.1181
 5979SOL    HW218837   0.326   2.632   1.648 -0.7919 -0.9917 -0.6759
 5980SOL     OW18838   5.186   3.810   4.969 -0.2940 -0.3452  0.1681
 5980SOL    HW118839   5.138   3.736   4.922 -1.2439 -0.7706  1.7336
 5980SOL    HW218840   5.157   3.897   4.931 -1.5728 -0.6452  0.3889
 5981SOL     OW18841   3.152   3.859   1.017  0.1094 -0.0327 -0.0031
 5981SOL    HW118842   3.193   3.768   1.027  1.4486  0.5674  0.1680
 5981SOL    HW218843   3.198   3.908   0.943  0.8969  1.3015  1.3337
 5982SOL     OW18844   5.943   2.202   4.819  0.1482 -0.2726 -0.2412
 5982SOL    HW118845   5.846   2.176   4.814  0.3180 -1.2858  1.1942
 5982SOL    HW218846   5.951   2.293   4.859 -0.2126 -0.2700 -0.1713
 5983SOL     OW18847   0.520   6.942   3.462 -0.6543 -0.8195  0.0599
 5983SOL    HW118848   0.514   6.888   3.546  0.7820  1.0786  1.4789
 5983SOL    HW218849   0.463   7.023   3.471  0.3571 -0.0531 -0.3352
 5984SOL     OW18850   1.301   1.488   0.320  0.1465  0.0981  0.1312
 5984SOL    HW118851   1.233   1.475   0.393  1.0712 -0.5338  0.9190
 5984SOL    HW218852   1.295   1.412   0.255  0.3785 -0.1947  0.4456
 5985SOL     OW18853   5.060   3.575   4.869 -0.0337  0.3164 -0.6605
 5985SOL    HW118854   5.068   3.490   4.817 -1.0838  0.1791 -0.6170
 5985SOL    HW218855   4.971   3.579   4.914 -0.1206  1.5795 -0.9000
 5986SOL     OW18856   3.869   3.929   2.485  0.0689 -0.3738  0.1263
 5986SOL    HW118857   3.886   3.831   2.469 -1.3161 -0.4010 -1.4180
 5986SOL    HW218858   3.868   3.977   2.397  1.8669  1.2751  0.9293
 5987SOL     OW18859   3.166   0.561   4.855  0.3113 -0.7197  0.2557
 5987SOL    HW118860   3.095   0.562   4.785 -0.7569 -2.6965  1.2341
 5987SOL    HW218861   3.230   0.636   4.839 -2.4827  1.7416 -0.1464
 5988SOL     OW18862   2.562   0.615   3.726  0.0978  0.0251  0.0187
 5988SOL    HW118863   2.596   0.606   3.819  3.9333  3.9963 -0.7219
 5988SOL    HW218864   2.608   0.548   3.667  0.4494 -0.0226  0.3454
 5989SOL     OW18865   3.270   3.066   0.152  0.3449 -0.1826  0.4213
 5989SOL    HW118866   3.197   3.068   0.221 -0.6122  1.1688 -0.5452
 5989SOL    HW218867   3.297   3.160   0.130  0.3675 -0.5471 -1.2752
 5990SOL     OW18868   2.785   6.628   3.137  0.4882 -0.3992  0.7529
 5990SOL    HW118869   2.788   6.726   3.154 -0.8407 -0.2814  0.3943
 5990SOL    HW218870   2.864   6.601   3.083  0.5006  0.5964  0.2490
 5991SOL     OW18871   3.579   5.131   1.315 -0.0745  0.0334  0.1744
 5991SOL    HW118872   3.613   5.099   1.226  1.5792 -0.3592  0.9001
 5991SOL    HW218873   3.615   5.072   1.387  0.8875  1.9542  1.3366
 5992SOL     OW18874   4.405   1.684   3.597  0.0911 -0.2370 -0.0514
 5992SOL    HW118875   4.413   1.713   3.693 -1.2227  0.3860 -0.1083
 5992SOL    HW218876   4.485   1.717   3.546  1.7112 -2.0925  1.1546
 5993SOL     OW18877   1.962   4.347   3.786 -0.0448  0.3059 -0.3985
 5993SOL    HW118878   1.925   4.277   3.724 -1.1353  0.5972 -0.0962
 5993SOL    HW218879   1.980   4.307   3.876  1.3928 -0.0802 -0.8252
 5994SOL     OW18880   5.254   2.766   0.410 -0.4417  0.2376 -0.1076
 5994SOL    HW118881   5.196   2.691   0.380  1.5448 -1.2987 -0.3462
 5994SOL    HW218882   5.238   2.784   0.508 -1.0837 -0.3551 -0.0980
 5995SOL     OW18883   6.611   4.903   2.249  0.7549  0.3887  0.7571
 5995SOL    HW118884   6.700   4.936   2.281  0.6018  1.3049  0.2597
 5995SOL    HW218885   6.576   4.965   2.178 -0.7013  0.5630  1.6002
 5996SOL     OW18886   2.487   0.585   5.944  0.2637  0.5788 -0.0165
 5996SOL    HW118887   2.451   0.621   5.858 -0.3493  0.8217  0.3354
 5996SOL    HW218888   2.539   0.502   5.926 -1.5342 -0.5161 -0.4153
 5997SOL     OW18889   1.711   0.206   1.736 -0.2715  0.3106 -0.0155
 5997SOL    HW118890   1.700   0.106   1.740  0.7852  0.2021  0.4921
 5997SOL    HW218891   1.623   0.250   1.756 -0.3953 -0.5081  1.3944
 5998SOL     OW18892   5.566   3.153   2.775 -0.5507 -0.2109 -0.5226
 5998SOL    HW118893   5.580   3.122   2.869  0.4098 -2.2355 -1.2693
 5998SOL    HW218894   5.480   3.203   2.769 -0.4373  0.3156  1.4978
 5999SOL     OW18895   2.969   1.236   3.662 -0.2875  0.2307  0.5795
 5999SOL    HW118896   3.033   1.307   3.632 -0.5064  0.0558 -0.3120
 5999SOL    HW218897   3.002   1.146   3.632 -0.5801  0.0652  0.7500
 6000SOL     OW18898   5.029   3.203   2.292 -0.1640 -0.1170  0.4299
 6000SOL    HW118899   5.006   3.287   2.243  1.3625  0.1339  0.0735
 6000SOL    HW218900   4.979   3.126   2.252  0.4542  0.2109 -1.0267
 6001SOL     OW18901   5.946   0.133   0.062 -0.3521 -0.2906  0.6566
 6001SOL    HW118902   6.036   0.154   0.026 -0.1221 -0.6383  1.0221
 6001SOL    HW218903   5.928   0.035   0.053 -1.1689 -0.0571 -0.4854
 6002SOL     OW18904   1.674   0.803   0.173 -0.7643  0.0866  0.9307
 6002SOL    HW118905   1.689   0.855   0.258 -0.1452  1.4124  0.0526
 6002SOL    HW218906   1.583   0.762   0.175 -1.5047  1.6502  1.4697
 6003SOL     OW18907   4.834   3.014   4.050  0.2070  0.1943  0.0060
 6003SOL    HW118908   4.839   3.107   4.012 -0.3675  0.5112  0.6898
 6003SOL    HW218909   4.820   3.019   4.148 -0.3060 -0.6206 -0.0160
 6004SOL     OW18910   0.733   3.079   2.002 -0.5202  0.1911 -0.2727
 6004SOL    HW118911   0.803   3.014   1.972  0.0922  2.5372 -4.6066
 6004SOL    HW218912   0.650   3.065   1.949 -0.6552  2.3231 -0.6922
 6005SOL     OW18913   1.950   0.058   3.743  0.2208 -0.7348 -0.6698
 6005SOL    HW118914   1.908   0.003   3.671 -1.4075  1.1458 -1.2399
 6005SOL    HW218915   1.975   0.148   3.706 -2.3133  0.9791  1.4301
 6006SOL     OW18916   2.404   6.391   6.067  0.0717 -0.0707 -0.4511
 6006SOL    HW118917   2.341   6.314   6.070 -0.0366  0.0458  0.5908
 6006SOL    HW218918   2.497   6.359   6.088 -0.2013  0.2852  1.4678
 6007SOL     OW18919   0.762   4.607   5.761 -0.2805  0.6323 -0.1570
 6007SOL    HW118920   0.683   4.610   5.700  0.3745  0.7500 -1.0149
 6007SOL    HW218921   0.788   4.512   5.778 -0.4254  0.6007 -0.1093
 6008SOL     OW18922   5.096   4.321   1.486 -0.0508  0.3351  0.7357
 6008SOL    HW118923   5.052   4.264   1.556  0.2107 -1.0910 -0.2017
 6008SOL    HW218924   5.129   4.405   1.528 -0.8272  0.0012  2.1082
 6009SOL     OW18925   3.392   2.686   6.334 -0.3672 -0.1301 -1.6550
 6009SOL    HW118926   3.451   2.752   6.287  0.7039  1.4454  1.6226
 6009SOL    HW218927   3.312   2.733   6.371 -0.7944 -1.1371 -1.2738
 6010SOL     OW18928   6.872   5.058   2.271  0.3346  0.0784  0.2202
 6010SOL    HW118929   6.889   5.039   2.175 -0.3216  0.3772  0.0456
 6010SOL    HW218930   6.836   5.150   2.282  0.0143 -0.1005  0.7085
 6011SOL     OW18931   6.505   2.529   1.967 -0.5396 -0.2429  0.6388
 6011SOL    HW118932   6.434   2.498   2.031  0.1011 -0.0496  1.4579
 6011SOL    HW218933   6.536   2.621   1.994  0.5958 -0.6516  0.7827
 6012SOL     OW18934   1.243   1.277   6.472 -0.7144 -0.0313 -0.1977
 6012SOL    HW118935   1.309   1.263   6.399 -1.0407 -1.9390 -0.1824
 6012SOL    HW218936   1.250   1.370   6.506  0.2067  0.5588 -1.8978
 6013SOL     OW18937   6.004   1.109   2.663 -0.2129  0.4026  0.1149
 6013SOL    HW118938   6.060   1.189   2.644  0.8424  0.0584  1.5894
 6013SOL    HW218939   5.917   1.137   2.702  0.5939  0.8389  1.6865
 6014SOL     OW18940   6.313   0.957   6.433 -0.4412 -0.5505  0.2890
 6014SOL    HW118941   6.396   0.901   6.441  0.1975  0.2730 -0.3860
 6014SOL    HW218942   6.246   0.909   6.376  0.1003 -0.6417 -0.2893
 6015SOL     OW18943   4.834   5.063   4.547 -0.2461 -0.2583 -0.0173
 6015SOL    HW118944   4.896   5.092   4.474 -1.2214  1.7335 -0.1332
 6015SOL    HW218945   4.866   5.102   4.634  0.2956 -1.7140  0.4676
 6016SOL     OW18946   1.782   5.858   5.012  0.3627  0.3794 -0.2555
 6016SOL    HW118947   1.783   5.909   4.925 -1.0353  1.4579  0.3133
 6016SOL    HW218948   1.844   5.903   5.077  0.3841  0.3781 -0.2749
 6017SOL     OW18949   6.188   3.918   1.886 -0.0188  0.3778 -0.0400
 6017SOL    HW118950   6.183   3.952   1.980 -1.8297  0.9064 -0.3027
 6017SOL    HW218951   6.104   3.868   1.864  0.7160 -0.4190 -1.1428
 6018SOL     OW18952   2.037   5.249   0.801 -0.1234 -0.0837  0.0646
 6018SOL    HW118953   2.032   5.194   0.718  0.4743  0.4662 -0.3485
 6018SOL    HW218954   2.126   5.237   0.844 -0.5687 -0.6696  0.8552
 6019SOL     OW18955   6.340   0.764   2.695  0.3992  0.1507 -0.2578
 6019SOL    HW118956   6.286   0.787   2.776  1.8777 -1.4583  1.2750
 6019SOL    HW218957   6.278   0.732   2.623 -0.8488  0.1685  0.7626
 6020SOL     OW18958   2.449   0.463   3.281 -0.0645 -0.1142 -0.3469
 6020SOL    HW118959   2.413   0.428   3.368 -1.1891  3.5058  0.8651
 6020SOL    HW218960   2.373   0.486   3.221  0.5964 -0.1508 -1.2069
 6021SOL     OW18961   2.608   0.236   3.761 -0.0613 -0.3863  0.3544
 6021SOL    HW118962   2.569   0.231   3.853 -0.0890  0.3828  0.3906
 6021SOL    HW218963   2.560   0.171   3.701 -0.1313 -0.7971  0.8468
 6022SOL     OW18964   4.326   3.122   5.731  0.5348  0.1034  0.0226
 6022SOL    HW118965   4.282   3.032   5.742  0.3972 -0.0338 -1.4074
 6022SOL    HW218966   4.399   3.114   5.664  1.3186  0.8165  0.7827
 6023SOL     OW18967   2.089   3.335   3.014  0.0836  0.0809 -0.2691
 6023SOL    HW118968   2.131   3.246   3.035 -2.4946 -1.1561  0.1752
 6023SOL    HW218969   2.089   3.350   2.915 -0.7049 -1.1511 -0.4834
 6024SOL     OW18970   5.542   2.450   1.210  0.4254 -0.2728  0.0822
 6024SOL    HW118971   5.518   2.537   1.252  0.0461 -0.9782  1.3824
 6024SOL    HW218972   5.459   2.407   1.173  0.8546  0.6834 -2.1520
 6025SOL     OW18973   4.071   1.459   3.028 -0.2335 -0.3735  0.2166
 6025SOL    HW118974   4.016   1.504   2.957  0.3368  0.4965  0.3137
 6025SOL    HW218975   4.034   1.482   3.118  0.2585  0.2060  0.2821
 6026SOL     OW18976   1.396   4.744   0.302  0.2778 -0.9138 -0.4055
 6026SOL    HW118977   1.396   4.832   0.350 -1.5476  0.0102 -1.9396
 6026SOL    HW218978   1.449   4.677   0.354 -1.3747  0.0403  2.7664
 6027SOL     OW18979   5.911   4.727   0.800 -0.6326  0.2651  0.1718
 6027SOL    HW118980   5.861   4.699   0.718  0.4094  0.8907 -0.7098
 6027SOL    HW218981   5.987   4.664   0.816  0.0560  0.9784 -0.2194
 6028SOL     OW18982   2.065   3.058   5.573 -0.2941  0.0952 -0.2033
 6028SOL    HW118983   2.160   3.056   5.541 -0.3581  1.8311 -0.5617
 6028SOL    HW218984   2.056   2.998   5.653  0.7002 -1.3998 -1.1577
 6029SOL     OW18985   0.260   4.910   0.070  0.3085  0.0035  0.4400
 6029SOL    HW118986   0.216   4.995   0.040  0.4168  0.0874  0.5197
 6029SOL    HW218987   0.239   4.895   0.167  0.6377  0.1563  0.5344
 6030SOL     OW18988   1.543   5.422   2.738 -0.2144 -0.4200  0.1317
 6030SOL    HW118989   1.447   5.438   2.718  0.1792  0.7662 -0.9974
 6030SOL    HW218990   1.597   5.499   2.702  1.4253 -2.2789 -1.6114
 6031SOL     OW18991   4.393   0.416   3.771  0.1033 -0.0233  0.2567
 6031SOL    HW118992   4.411   0.476   3.848  0.0260 -0.0127  0.2668
 6031SOL    HW218993   4.305   0.370   3.785 -1.1088  1.7827 -0.9567
 6032SOL     OW18994   0.242   3.438   3.038 -0.2269  0.1582  1.0134
 6032SOL    HW118995   0.334   3.463   3.011 -0.3640 -0.5380 -0.1818
 6032SOL    HW218996   0.208   3.503   3.106  1.0187  0.5973  1.2356
 6033SOL     OW18997   6.579   6.764   4.448 -0.1883 -0.2880 -0.4667
 6033SOL    HW118998   6.588   6.683   4.505 -0.7180 -0.0928 -0.0945
 6033SOL    HW218999   6.626   6.750   4.361  1.6070 -0.1509  0.4531
 6034SOL     OW19000   3.123   5.628   6.669 -0.4355 -0.4780  0.1223
 6034SOL    HW119001   3.102   5.604   6.574  0.3710 -0.8224  0.0263
 6034SOL    HW219002   3.158   5.722   6.672 -1.5448 -0.0587  0.2287
 6035SOL     OW19003   5.479   6.932   5.456 -0.5901 -0.4715  0.3940
 6035SOL    HW119004   5.444   6.874   5.530  0.3547 -0.3450  0.9567
 6035SOL    HW219005   5.432   6.909   5.371 -0.3707 -1.9411  0.6447
 6036SOL     OW19006   6.233   1.914   4.495  0.6763 -0.1563 -0.0332
 6036SOL    HW119007   6.244   1.829   4.443 -2.4233  0.0223 -1.1900
 6036SOL    HW219008   6.223   1.991   4.432  0.6920  0.6722  0.9429
 6037SOL     OW19009   1.249   5.694   3.878 -0.1539 -0.4614 -0.1509
 6037SOL    HW119010   1.298   5.620   3.832  1.9353  0.6888  0.0839
 6037SOL    HW219011   1.236   5.671   3.974  1.3781 -0.1714  0.1543
 6038SOL     OW19012   5.885   3.566   6.452 -0.3454  0.2651 -0.3769
 6038SOL    HW119013   5.956   3.545   6.518 -0.8675 -0.6778 -0.0997
 6038SOL    HW219014   5.832   3.645   6.484  1.4820  1.9808 -1.3193
 6039SOL     OW19015   3.261   2.980   3.461  0.3342  0.3293 -0.2435
 6039SOL    HW119016   3.329   3.048   3.436  0.7788 -0.3179 -0.8448
 6039SOL    HW219017   3.207   2.956   3.380 -1.1086  1.3610  0.3720
 6040SOL     OW19018   1.802   1.114   0.740  0.1518  0.2706  0.7483
 6040SOL    HW119019   1.899   1.090   0.735  0.1556  0.2543  0.8789
 6040SOL    HW219020   1.761   1.069   0.820  0.9012  3.1884  2.9897
 6041SOL     OW19021   0.970   3.791   5.960 -0.1500 -0.0892 -0.2794
 6041SOL    HW119022   0.951   3.694   5.973 -1.1882  0.3551  1.9764
 6041SOL    HW219023   1.069   3.805   5.952  0.0609 -1.2594  0.0933
 6042SOL     OW19024   6.633   6.388   5.749  0.4203  0.1700  0.6447
 6042SOL    HW119025   6.728   6.417   5.734  0.8080 -1.0542  0.6942
 6042SOL    HW219026   6.575   6.432   5.680  1.0536  0.7339  0.4524
 6043SOL     OW19027   6.418   3.879   3.255 -0.3035 -0.1935 -0.2102
 6043SOL    HW119028   6.363   3.795   3.255  0.9277 -1.0473  0.8940
 6043SOL    HW219029   6.497   3.867   3.195  1.1653 -0.7991  1.7067
 6044SOL     OW19030   1.785   6.909   6.335  0.3756 -0.3535 -0.3819
 6044SOL    HW119031   1.868   6.907   6.390 -0.3831 -0.3080  0.7952
 6044SOL    HW219032   1.752   6.816   6.320 -1.3176 -0.2957  2.2735
 6045SOL     OW19033   4.986   3.896   5.560  0.7538 -0.1033 -0.1644
 6045SOL    HW119034   5.038   3.970   5.519  0.1913 -0.0289 -0.7621
 6045SOL    HW219035   4.889   3.906   5.537  0.7120 -1.2024 -0.5476
 6046SOL     OW19036   0.656   2.980   0.943 -0.2927  0.2781  0.7710
 6046SOL    HW119037   0.748   3.016   0.959 -0.5690  0.4925  2.0134
 6046SOL    HW219038   0.663   2.886   0.910  0.4116  1.1249 -1.7029
 6047SOL     OW19039   1.805   5.379   5.014  0.0851 -0.5911  0.2755
 6047SOL    HW119040   1.836   5.291   5.050 -2.1057 -1.1909  0.8103
 6047SOL    HW219041   1.744   5.364   4.936 -2.1359  0.2638  1.7431
 6048SOL     OW19042   6.747   1.652   4.548  0.3062 -0.0872  0.0587
 6048SOL    HW119043   6.696   1.609   4.622  1.7054  0.9359  1.6741
 6048SOL    HW219044   6.688   1.719   4.502 -1.0251 -1.7537 -0.7468
 6049SOL     OW19045   4.951   5.531   6.501  0.2374  0.1161 -0.0526
 6049SOL    HW119046   4.984   5.620   6.535  0.6159 -0.0531  0.0263
 6049SOL    HW219047   4.877   5.546   6.435  1.3210  0.5543 -1.1932
 6050SOL     OW19048   4.838   3.994   4.196 -0.1774 -0.6661  0.5175
 6050SOL    HW119049   4.853   4.029   4.289  0.7877  0.6812 -0.0993
 6050SOL    HW219050   4.826   3.895   4.199  1.1080 -0.8243  1.9751
 6051SOL     OW19051   4.119   1.742   3.755  0.0649  0.3327 -0.4503
 6051SOL    HW119052   4.060   1.815   3.791  0.2999  0.8952 -1.1693
 6051SOL    HW219053   4.062   1.669   3.718 -0.2056  1.1165 -1.6234
 6052SOL     OW19054   1.469   2.596   6.941 -0.5340 -0.1899  0.3334
 6052SOL    HW119055   1.485   2.694   6.953  1.2590 -0.3682 -0.2602
 6052SOL    HW219056   1.518   2.564   6.860 -1.4957 -1.5049  0.2296
 6053SOL     OW19057   6.804   0.894   5.404 -0.7610  0.1990  0.4715
 6053SOL    HW119058   6.766   0.810   5.366 -1.7601  1.4670 -1.4882
 6053SOL    HW219059   6.897   0.877   5.437 -0.6236 -1.4750 -0.6616
 6054SOL     OW19060   0.445   5.501   0.049 -0.4888 -0.5995 -0.0560
 6054SOL    HW119061   0.523   5.556   0.018 -0.2092 -1.5001 -1.0064
 6054SOL    HW219062   0.466   5.404   0.037 -1.1315 -0.9114  1.2179
 6055SOL     OW19063   3.995   3.983   1.587 -0.0692  0.2369  0.8749
 6055SOL    HW119064   4.041   4.034   1.515  1.4766 -2.0971  0.0789
 6055SOL    HW219065   4.061   3.924   1.633 -1.6615 -0.7598  1.9951
 6056SOL     OW19066   4.870   2.692   0.442  0.1503 -0.2869 -0.7468
 6056SOL    HW119067   4.791   2.698   0.503  1.2899  3.5244  0.6608
 6056SOL    HW219068   4.842   2.713   0.349 -0.5264  1.2313 -0.2322
 6057SOL     OW19069   5.030   6.755   6.217  0.4367 -0.0278 -0.3749
 6057SOL    HW119070   5.057   6.851   6.208 -0.9288  0.1852 -3.4051
 6057SOL    HW219071   4.930   6.748   6.212  0.5375 -1.6309 -0.5802
 6058SOL     OW19072   4.490   3.097   5.432  0.4191 -0.7753 -0.5384
 6058SOL    HW119073   4.457   3.183   5.395 -1.3718 -0.9748  0.4784
 6058SOL    HW219074   4.417   3.028   5.427  0.4819 -1.1408  2.1560
 6059SOL     OW19075   5.569   6.641   5.744 -1.1539 -0.3839 -0.2690
 6059SOL    HW119076   5.485   6.691   5.766 -1.3139 -0.1690 -1.3038
 6059SOL    HW219077   5.641   6.706   5.720 -1.0530 -0.6002 -0.5637
 6060SOL     OW19078   2.095   4.474   0.105 -0.7333 -0.1405  0.0920
 6060SOL    HW119079   2.083   4.397   0.043 -0.6527 -0.4011  0.3947
 6060SOL    HW219080   2.068   4.559   0.059  2.4582  0.1694 -1.4889
 6061SOL     OW19081   2.218   0.823   6.552  0.2806  0.0078  0.6575
 6061SOL    HW119082   2.271   0.901   6.583 -0.9208  0.4715  1.6397
 6061SOL    HW219083   2.122   0.849   6.543 -0.1150 -1.3059  0.8086
 6062SOL     OW19084   6.737   5.718   2.612  0.4840  0.1739  0.1308
 6062SOL    HW119085   6.763   5.708   2.516 -0.3743 -0.0707 -0.0816
 6062SOL    HW219086   6.760   5.810   2.644 -3.1561  1.8406 -1.5708
 6063SOL     OW19087   5.925   6.117   6.602 -0.9579 -0.4180 -0.1883
 6063SOL    HW119088   5.961   6.199   6.558 -0.0260 -0.5850  0.2431
 6063SOL    HW219089   5.844   6.141   6.655  0.3721  0.6373  1.4860
 6064SOL     OW19090   5.952   5.534   2.021  0.4794  0.7766 -0.3748
 6064SOL    HW119091   5.957   5.628   1.988  0.5466 -0.2252 -3.5980
 6064SOL    HW219092   5.865   5.520   2.069 -0.2166  2.1168 -1.1759
 6065SOL     OW19093   6.609   6.931   6.914  0.0520 -0.1349 -0.5751
 6065SOL    HW119094   6.706   6.912   6.897 -0.3136 -1.4907 -1.3182
 6065SOL    HW219095   6.586   7.021   6.877  0.6668 -0.4881 -1.8728
 6066SOL     OW19096   2.942   1.066   5.264  0.3337 -0.2059 -0.5871
 6066SOL    HW119097   2.999   1.128   5.318 -1.4622  0.9286  0.1007
 6066SOL    HW219098   2.882   1.015   5.325 -1.3277  0.6764 -1.4153
 6067SOL     OW19099   6.449   6.782   1.350  0.0543  0.1080  0.0236
 6067SOL    HW119100   6.540   6.784   1.309  1.1630 -0.3715  2.3301
 6067SOL    HW219101   6.423   6.688   1.370 -1.0261  0.2320 -0.7109
 6068SOL     OW19102   4.942   0.603   6.526  0.6743 -0.5927  0.2537
 6068SOL    HW119103   4.963   0.667   6.452 -2.1030  1.4771  1.0469
 6068SOL    HW219104   5.025   0.557   6.556  2.1991 -0.0076 -2.7680
 6069SOL     OW19105   6.258   4.405   4.948  0.6849  0.5154  0.0674
 6069SOL    HW119106   6.346   4.430   4.988 -0.0423  1.0001  1.4034
 6069SOL    HW219107   6.201   4.486   4.938 -0.4526 -0.0865  1.3613
 6070SOL     OW19108   3.710   1.526   0.867  0.0819 -0.3110  0.0841
 6070SOL    HW119109   3.705   1.453   0.798  0.8196 -0.1771 -0.1188
 6070SOL    HW219110   3.771   1.498   0.941  3.5082  1.5145 -1.7944
 6071SOL     OW19111   0.385   6.483   0.261  0.0167  0.5438 -0.2533
 6071SOL    HW119112   0.311   6.459   0.198  1.7721 -1.1479 -1.7929
 6071SOL    HW219113   0.349   6.484   0.355 -2.2085  1.1236 -1.0382
 6072SOL     OW19114   6.152   0.904   2.846 -0.1746 -0.1680 -0.1850
 6072SOL    HW119115   6.129   0.960   2.766 -0.3644 -0.1919 -0.1483
 6072SOL    HW219116   6.077   0.908   2.912  0.5263  0.8883  0.5747
 6073SOL     OW19117   4.056   0.392   0.206  0.1481  0.1774 -0.6042
 6073SOL    HW119118   4.088   0.455   0.278  0.0871  0.0811 -0.4921
 6073SOL    HW219119   4.013   0.445   0.133  1.4979  0.4018 -1.2614
 6074SOL     OW19120   0.952   0.808   5.077 -0.0947 -0.2627  0.4201
 6074SOL    HW119121   1.030   0.870   5.085  0.3447 -0.9018  1.1679
 6074SOL    HW219122   0.967   0.745   5.000  0.5144 -0.9141  1.0588
 6075SOL     OW19123   4.504   1.885   0.912  0.3058  0.3705  0.3868
 6075SOL    HW119124   4.603   1.894   0.922  0.4097 -1.9426  2.6853
 6075SOL    HW219125   4.482   1.794   0.875 -0.9847  0.8116 -0.0031
 6076SOL     OW19126   3.435   0.822   2.986  0.2959  0.0285  0.1584
 6076SOL    HW119127   3.445   0.904   2.930  1.0846  0.2279  0.5749
 6076SOL    HW219128   3.352   0.829   3.042  1.2130  1.2896  1.4049
 6077SOL     OW19129   5.993   4.458   2.276  0.1396  0.1470  0.2171
 6077SOL    HW119130   6.005   4.505   2.188 -1.1542  0.0500 -0.0473
 6077SOL    HW219131   6.081   4.426   2.310  0.8492  1.4455 -0.3373
 6078SOL     OW19132   1.433   4.194   5.095  0.0142 -0.3949  0.0283
 6078SOL    HW119133   1.450   4.095   5.105 -2.3575 -0.8704 -0.1290
 6078SOL    HW219134   1.357   4.221   5.153  0.0880  1.1978 -0.5652
 6079SOL     OW19135   3.116   3.468   6.366 -0.1053  0.5867  0.5567
 6079SOL    HW119136   3.086   3.373   6.379  0.6072  0.1905 -0.5697
 6079SOL    HW219137   3.054   3.514   6.302 -0.7162  1.0353  1.4510
 6080SOL     OW19138   6.839   3.464   3.816  0.6533 -0.4113 -0.1121
 6080SOL    HW119139   6.891   3.382   3.840  1.8996  0.8930  2.0003
 6080SOL    HW219140   6.820   3.516   3.899  0.4587  1.7556 -1.4428
 6081SOL     OW19141   0.516   6.950   1.005  0.3672  0.3429  0.1120
 6081SOL    HW119142   0.566   7.013   1.064  0.4747 -1.4390  2.0517
 6081SOL    HW219143   0.566   6.863   0.999  0.1657  0.3102 -2.3635
 6082SOL     OW19144   3.769   0.696   6.494  0.3387  1.1253 -0.4443
 6082SOL    HW119145   3.848   0.647   6.532  0.4202  1.2619 -0.4376
 6082SOL    HW219146   3.697   0.702   6.563  0.6656  1.7835 -0.1536
 6083SOL     OW19147   0.846   4.977   0.830  0.0552 -0.0110 -0.1533
 6083SOL    HW119148   0.942   5.000   0.840  0.4378 -1.6573  0.3018
 6083SOL    HW219149   0.835   4.908   0.758 -0.9014  0.7959 -0.8065
 6084SOL     OW19150   5.816   6.825   6.763  0.4741 -0.6229 -0.5044
 6084SOL    HW119151   5.914   6.807   6.757  0.6161 -0.0664  0.0513
 6084SOL    HW219152   5.790   6.836   6.859 -0.0107 -0.1169 -0.6880
 6085SOL     OW19153   5.166   3.430   1.102  0.0738  0.5605 -0.7323
 6085SOL    HW119154   5.070   3.443   1.129  0.2013  0.2563 -0.1341
 6085SOL    HW219155   5.207   3.357   1.157  0.2558 -0.2652 -1.9227
 6086SOL     OW19156   2.951   1.883   1.552 -0.9824 -0.2344 -0.8511
 6086SOL    HW119157   3.006   1.837   1.621 -0.1020 -0.4981 -1.6961
 6086SOL    HW219158   2.855   1.884   1.580 -0.7750 -1.1293 -0.0624
 6087SOL     OW19159   2.929   1.615   2.260  0.2002 -0.1826 -0.7981
 6087SOL    HW119160   2.960   1.520   2.250  1.6419  0.1897 -0.0692
 6087SOL    HW219161   2.959   1.668   2.180 -1.7489 -0.5926 -1.8589
 6088SOL     OW19162   5.857   0.840   3.884 -0.2333 -0.2318 -0.3352
 6088SOL    HW119163   5.802   0.884   3.955  0.2946  1.1842 -0.7689
 6088SOL    HW219164   5.816   0.752   3.860 -0.6743 -0.5351  1.3874
 6089SOL     OW19165   0.365   3.886   0.658 -0.0115 -0.3819 -0.1343
 6089SOL    HW119166   0.386   3.812   0.722 -2.0507 -0.5145  0.4343
 6089SOL    HW219167   0.286   3.937   0.690  0.1241  0.7953 -1.5561
 6090SOL     OW19168   6.920   5.358   3.975  0.4684  0.6579  0.0303
 6090SOL    HW119169   6.845   5.292   3.976  0.7437  0.3328  1.3036
 6090SOL    HW219170   6.985   5.333   3.903 -0.5628  0.8661 -0.9921
 6091SOL     OW19171   5.213   3.059   2.806 -0.3149  0.5377  0.7969
 6091SOL    HW119172   5.231   3.133   2.742  0.2624  0.2609  0.6360
 6091SOL    HW219173   5.284   3.057   2.877  1.0772 -1.3312 -0.5373
 6092SOL     OW19174   0.201   2.903   1.859  0.1309  0.1878  0.3116
 6092SOL    HW119175   0.254   2.965   1.917 -0.0408  1.0579 -0.4421
 6092SOL    HW219176   0.150   2.839   1.916  0.7970  0.3301  1.0858
 6093SOL     OW19177   3.109   4.558   0.539 -0.9812 -0.3143 -0.1682
 6093SOL    HW119178   3.165   4.544   0.457 -2.8313 -0.8231 -1.4040
 6093SOL    HW219179   3.102   4.656   0.558 -1.4808 -0.1137 -1.3172
 6094SOL     OW19180   6.208   1.680   1.226  0.0314  0.5860 -0.3679
 6094SOL    HW119181   6.263   1.704   1.306  0.4788 -1.0570 -0.1427
 6094SOL    HW219182   6.111   1.674   1.253  0.0924  0.7217 -0.1149
 6095SOL     OW19183   2.219   3.603   5.310 -0.2158 -0.5697 -0.4397
 6095SOL    HW119184   2.258   3.551   5.234 -1.4044 -0.5311 -1.0962
 6095SOL    HW219185   2.208   3.698   5.284 -0.5409 -0.5347 -0.1938
 6096SOL     OW19186   6.062   1.309   3.909 -0.0414  0.7725  0.0451
 6096SOL    HW119187   6.033   1.225   3.862  1.4059  0.4504 -0.3405
 6096SOL    HW219188   6.130   1.286   3.979 -1.2399  1.4047  1.4674
 6097SOL     OW19189   3.858   6.876   3.366 -0.0301  0.5547 -0.3547
 6097SOL    HW119190   3.765   6.840   3.373 -0.1967  1.2556  1.6337
 6097SOL    HW219191   3.899   6.881   3.457  2.4877 -1.0160 -1.2918
 6098SOL     OW19192   1.421   1.465   1.674  0.4934 -0.0540  0.1074
 6098SOL    HW119193   1.520   1.471   1.685  0.5359  1.3106 -0.8188
 6098SOL    HW219194   1.389   1.537   1.612 -0.9973 -0.8942 -0.1683
 6099SOL     OW19195   6.968   4.516   3.798  0.2136 -0.1402 -0.3809
 6099SOL    HW119196   6.934   4.507   3.891 -0.2037 -1.5634 -0.6384
 6099SOL    HW219197   7.015   4.604   3.787 -1.2229  0.7917  0.6669
 6100SOL     OW19198   0.801   3.469   2.086  0.2789 -0.0744  0.0366
 6100SOL    HW119199   0.870   3.540   2.098  0.3844 -0.1760  0.0348
 6100SOL    HW219200   0.841   3.392   2.035  0.1497 -0.1107 -0.0101
 6101SOL     OW19201   5.038   5.918   4.176 -0.6567  0.3995  0.5086
 6101SOL    HW119202   5.057   5.955   4.085  2.4391 -0.6356  0.6147
 6101SOL    HW219203   4.951   5.870   4.175 -0.3831 -0.1728 -2.1198
 6102SOL     OW19204   4.232   5.159   6.959 -0.0514  0.0916 -0.0034
 6102SOL    HW119205   4.289   5.235   6.989  1.4207 -0.6347 -0.8476
 6102SOL    HW219206   4.289   5.079   6.941 -1.5917 -1.4272  1.3804
 6103SOL     OW19207   4.631   2.391   6.118  0.0990 -0.3382  0.2725
 6103SOL    HW119208   4.681   2.383   6.032  0.7725  0.9637  0.5254
 6103SOL    HW219209   4.695   2.408   6.193 -0.6985  1.8346  0.5297
 6104SOL     OW19210   3.588   3.120   1.362 -0.0929  0.4048  0.7033
 6104SOL    HW119211   3.500   3.169   1.365 -0.7798 -0.7407 -0.0190
 6104SOL    HW219212   3.589   3.048   1.432  0.2270  0.3300  0.6239
 6105SOL     OW19213   3.737   6.483   4.910 -0.3035 -0.1331 -0.2008
 6105SOL    HW119214   3.694   6.552   4.852 -0.0130 -0.8723 -1.3360
 6105SOL    HW219215   3.714   6.392   4.876  1.3621 -0.5613 -0.2966
 6106SOL     OW19216   0.333   6.382   5.095 -0.1153  0.1921 -0.3979
 6106SOL    HW119217   0.342   6.479   5.117  0.1527  0.5023 -1.7426
 6106SOL    HW219218   0.409   6.331   5.134 -1.1715  0.2088  1.8095
 6107SOL     OW19219   0.747   4.981   5.162 -0.3934 -0.3399 -0.1336
 6107SOL    HW119220   0.833   4.951   5.201 -0.0009  0.1355 -0.6215
 6107SOL    HW219221   0.760   5.067   5.112 -1.3199  0.2213  0.5404
 6108SOL     OW19222   4.400   0.672   2.747  0.3241 -0.1478 -0.1172
 6108SOL    HW119223   4.363   0.588   2.707  2.2119 -1.0131 -0.1282
 6108SOL    HW219224   4.495   0.683   2.719  0.1244  2.0265 -0.1184
 6109SOL     OW19225   1.239   4.826   1.518 -0.1906  0.5706  0.0142
 6109SOL    HW119226   1.273   4.817   1.425 -0.5640 -0.5390 -0.0251
 6109SOL    HW219227   1.148   4.867   1.517 -0.4573 -0.0242 -0.1566
 6110SOL     OW19228   2.653   0.602   4.626  0.4070  0.0418  0.1734
 6110SOL    HW119229   2.639   0.530   4.558 -0.3832  2.3628 -2.2926
 6110SOL    HW219230   2.571   0.610   4.682 -0.6977  0.8887 -1.4852
 6111SOL     OW19231   6.876   2.851   4.775  0.1693 -0.3576  0.0096
 6111SOL    HW119232   6.834   2.824   4.688  1.3509  0.2280 -0.7773
 6111SOL    HW219233   6.878   2.773   4.837 -1.2708 -0.6172 -0.2399
 6112SOL     OW19234   1.107   6.997   6.308  0.3906  0.0488  0.0056
 6112SOL    HW119235   1.105   7.096   6.296 -0.7986  0.3330  2.1461
 6112SOL    HW219236   1.194   6.969   6.350 -0.2310  0.5278  1.6800
 6113SOL     OW19237   0.890   6.004   6.277 -0.5300  0.0482 -0.2869
 6113SOL    HW119238   0.831   5.945   6.222 -1.0633  0.8745 -0.6294
 6113SOL    HW219239   0.859   6.099   6.269  0.3408  0.3906  0.1999
 6114SOL     OW19240   3.473   2.348   0.639 -0.1673 -0.5516  0.9752
 6114SOL    HW119241   3.547   2.326   0.576 -1.4656  1.8089 -1.5722
 6114SOL    HW219242   3.498   2.428   0.693 -0.6355 -0.0934  0.5146
 6115SOL     OW19243   0.444   3.824   1.625  0.6403  0.1957 -0.4699
 6115SOL    HW119244   0.442   3.887   1.703 -0.8280 -0.5831  0.1643
 6115SOL    HW219245   0.538   3.794   1.608  1.2787  2.0266 -0.3834
 6116SOL     OW19246   3.414   1.751   0.443  0.3198  0.1104 -0.1899
 6116SOL    HW119247   3.326   1.721   0.482 -0.4782  1.0358 -1.2155
 6116SOL    HW219248   3.404   1.763   0.345  1.4705  0.7165 -0.2447
 6117SOL     OW19249   6.467   6.887   4.093 -0.3560 -0.0310  0.9642
 6117SOL    HW119250   6.492   6.963   4.033 -0.4735 -0.4787  0.3430
 6117SOL    HW219251   6.486   6.912   4.188  2.4404 -0.3118  0.5613
 6118SOL     OW19252   5.377   0.471   3.901 -0.0450 -0.4647 -0.2129
 6118SOL    HW119253   5.435   0.461   3.820 -0.8526 -0.3166 -0.8183
 6118SOL    HW219254   5.415   0.541   3.961  1.3454 -1.5578  0.2455
 6119SOL     OW19255   5.959   3.958   6.199  0.7409  0.0467  0.4310
 6119SOL    HW119256   5.962   3.858   6.197  1.0410  0.0653 -0.6980
 6119SOL    HW219257   6.048   3.994   6.229  1.3489 -0.0037 -1.2231
 6120SOL     OW19258   2.493   0.922   2.468  0.6606 -0.2766  0.0325
 6120SOL    HW119259   2.551   1.003   2.461  0.4936  0.0050  1.5874
 6120SOL    HW219260   2.520   0.869   2.548  0.2149 -1.3285 -0.4903
 6121SOL     OW19261   0.899   2.741   2.898  0.0038  0.0849  0.3986
 6121SOL    HW119262   0.870   2.821   2.951 -1.3273 -0.1114 -0.0155
 6121SOL    HW219263   0.861   2.658   2.939  0.1731 -0.2066 -0.0272
 6122SOL     OW19264   5.976   6.289   4.464 -0.1163 -0.4148  0.6638
 6122SOL    HW119265   6.062   6.326   4.501 -0.0073 -0.1417  0.1451
 6122SOL    HW219266   5.899   6.342   4.499 -0.0459 -0.4240  0.8350
 6123SOL     OW19267   6.152   3.094   2.026 -0.0578  0.3034 -0.0708
 6123SOL    HW119268   6.062   3.093   1.983  0.3806 -1.6623 -1.0132
 6123SOL    HW219269   6.219   3.133   1.963  0.2534 -0.8738 -0.4786
 6124SOL     OW19270   2.325   1.229   0.359 -0.0115 -0.6857 -0.3520
 6124SOL    HW119271   2.410   1.193   0.398  1.4187  2.9339  0.3078
 6124SOL    HW219272   2.344   1.270   0.270 -1.1212 -0.0497 -0.3151
 6125SOL     OW19273   6.987   4.398   3.552  0.2325  0.2963  0.4680
 6125SOL    HW119274   7.034   4.437   3.631  0.3423  1.5581 -0.1986
 6125SOL    HW219275   6.892   4.379   3.576 -0.5161  3.2307  0.1925
 6126SOL     OW19276   2.762   0.425   0.041  0.2451 -0.1721 -0.0666
 6126SOL    HW119277   2.811   0.340   0.056  1.8549  0.0464 -3.1189
 6126SOL    HW219278   2.690   0.411  -0.028 -0.3397  0.6639  0.3498
 6127SOL     OW19279   1.472   6.738   1.395 -0.0282  0.3477 -0.3008
 6127SOL    HW119280   1.570   6.722   1.400 -0.3473 -3.5070 -2.4126
 6127SOL    HW219281   1.430   6.718   1.483  0.7966 -1.3418 -0.2548
 6128SOL     OW19282   6.875   3.852   6.861 -0.7779  0.2401 -0.1642
 6128SOL    HW119283   6.951   3.880   6.920 -0.9967 -2.7831  1.7544
 6128SOL    HW219284   6.909   3.785   6.794 -1.2158  1.0481 -1.2069
 6129SOL     OW19285   4.932   3.870   2.367 -0.4056 -0.2696  0.1505
 6129SOL    HW119286   4.912   3.772   2.371 -0.8404 -0.2368 -0.8774
 6129SOL    HW219287   4.987   3.889   2.286 -1.5647  0.5203 -0.4827
 6130SOL     OW19288   5.846   1.522   2.372  0.2352 -0.1860  0.1622
 6130SOL    HW119289   5.815   1.611   2.337  1.3979 -0.0979 -0.6763
 6130SOL    HW219290   5.808   1.508   2.463  1.9382  2.2886  1.3812
 6131SOL     OW19291   5.581   2.162   4.471  0.3987 -0.4922  0.2142
 6131SOL    HW119292   5.538   2.230   4.529 -1.3724 -0.2804 -1.2626
 6131SOL    HW219293   5.651   2.113   4.523 -0.1006  0.6595  2.0500
 6132SOL     OW19294   6.877   3.365   0.874 -0.2825  0.6017  0.6049
 6132SOL    HW119295   6.885   3.465   0.879 -0.1481  0.6184  0.0763
 6132SOL    HW219296   6.845   3.330   0.962  3.1635  0.7661  2.0827
 6133SOL     OW19297   1.643   0.104   1.489  1.2274 -0.3829  0.7218
 6133SOL    HW119298   1.593   0.042   1.549  1.3312 -1.2005 -0.0273
 6133SOL    HW219299   1.740   0.083   1.492  1.0388 -1.8436 -1.2953
 6134SOL     OW19300   4.238   4.662   6.810  0.8424 -0.1963 -0.6804
 6134SOL    HW119301   4.313   4.602   6.782  1.1912  0.5389 -1.3593
 6134SOL    HW219302   4.224   4.732   6.740 -0.5624 -0.3964 -0.6271
 6135SOL     OW19303   5.945   5.104   1.438  0.0675 -1.2195  0.3603
 6135SOL    HW119304   5.860   5.158   1.442 -0.7845 -2.5010  0.0876
 6135SOL    HW219305   5.976   5.085   1.531  0.6982  0.1973  0.4658
 6136SOL     OW19306   0.938   1.757   4.423  0.1956  1.3867  0.0538
 6136SOL    HW119307   1.027   1.749   4.468  0.7553 -0.0815 -1.2596
 6136SOL    HW219308   0.950   1.791   4.330 -0.5662  0.6825 -0.3133
 6137SOL     OW19309   5.104   0.293   6.106  0.6828  0.2660 -0.4190
 6137SOL    HW119310   5.174   0.292   6.035 -0.0510  0.6987 -1.1708
 6137SOL    HW219311   5.039   0.367   6.088 -0.4100 -0.6023 -0.1934
 6138SOL     OW19312   5.275   1.304   2.952 -0.0784 -0.2892 -0.0362
 6138SOL    HW119313   5.317   1.250   2.879 -1.1812  1.3915 -2.0071
 6138SOL    HW219314   5.244   1.392   2.916 -2.9470 -0.3661  1.8451
 6139SOL     OW19315   2.508   0.820   4.027 -0.1663  0.1555  0.7053
 6139SOL    HW119316   2.553   0.793   4.112 -0.9352  0.4484  1.2172
 6139SOL    HW219317   2.424   0.768   4.015  0.8664 -1.2612 -0.8560
 6140SOL     OW19318   2.923   5.244   1.920 -0.3575 -0.0245 -0.1028
 6140SOL    HW119319   3.020   5.265   1.928 -0.2383  1.3528 -3.5126
 6140SOL    HW219320   2.871   5.328   1.907 -1.3033 -0.9413 -3.1535
 6141SOL     OW19321   0.544   6.236   3.790  0.3877  0.0522  0.3137
 6141SOL    HW119322   0.545   6.142   3.823  1.9593 -0.0814 -0.0485
 6141SOL    HW219323   0.505   6.296   3.860 -2.1572 -1.0277 -0.0613
 6142SOL     OW19324   6.430   2.374   3.811  0.5731 -0.2994  0.0825
 6142SOL    HW119325   6.522   2.411   3.804 -0.2276  1.7664 -0.5871
 6142SOL    HW219326   6.390   2.401   3.898 -0.3694  1.4243 -0.8204
 6143SOL     OW19327   5.842   5.648   5.354  0.2139 -0.4547  0.3584
 6143SOL    HW119328   5.797   5.635   5.442  0.8262 -0.9038  0.6128
 6143SOL    HW219329   5.935   5.610   5.358  0.6180  0.4420 -0.1534
 6144SOL     OW19330   1.919   4.965   6.489 -0.7073 -0.6962  0.0399
 6144SOL    HW119331   1.959   4.883   6.528  0.9473 -0.3209 -0.7490
 6144SOL    HW219332   1.884   4.945   6.397  2.3475  0.0053 -1.4101
 6145SOL     OW19333   5.764   6.440   2.233  0.9488 -0.1004  0.0951
 6145SOL    HW119334   5.746   6.364   2.171  2.0271 -0.0146 -0.3566
 6145SOL    HW219335   5.689   6.506   2.228  0.5726 -0.5594 -0.4081
 6146SOL     OW19336   6.780   0.023   4.002  0.3545  0.1476  0.2793
 6146SOL    HW119337   6.719   0.071   4.066 -1.8720  0.4381 -1.9179
 6146SOL    HW219338   6.829   0.090   3.946  0.7973 -0.1086  0.3613
 6147SOL     OW19339   6.990   4.821   3.800 -0.3666 -0.0170  0.1896
 6147SOL    HW119340   6.951   4.824   3.892 -1.3270 -1.2411 -0.1385
 6147SOL    HW219341   6.928   4.866   3.736 -2.4229 -3.6046 -0.6563
 6148SOL     OW19342   6.248   1.130   4.017  0.1567 -0.1095  0.0431
 6148SOL    HW119343   6.343   1.143   3.991  0.1356 -2.4519 -1.4337
 6148SOL    HW219344   6.208   1.055   3.964 -1.0633 -2.6568  4.1005
 6149SOL     OW19345   7.001   4.421   4.495 -0.1227 -0.4305  0.3435
 6149SOL    HW119346   7.004   4.439   4.594 -0.3024  0.5299  0.1861
 6149SOL    HW219347   7.094   4.427   4.458 -0.1594  0.0204  0.3208
 6150SOL     OW19348   5.401   6.360   5.532  0.4807 -0.4533  0.0052
 6150SOL    HW119349   5.386   6.303   5.451  1.6745  0.4496 -0.8823
 6150SOL    HW219350   5.324   6.351   5.594  0.3644 -2.5941 -0.3731
 6151SOL     OW19351   3.901   0.726   4.883  0.3930  0.5509 -0.0299
 6151SOL    HW119352   3.854   0.638   4.885  0.3567  0.5715  0.0360
 6151SOL    HW219353   3.944   0.739   4.793  0.4491  0.4402 -0.0189
 6152SOL     OW19354   1.569   3.835   6.700  0.5873 -0.2348 -0.2771
 6152SOL    HW119355   1.477   3.868   6.719  0.4418 -0.7684 -0.0525
 6152SOL    HW219356   1.592   3.854   6.604 -0.6873 -2.2668 -1.0365
 6153SOL     OW19357   4.691   0.110   5.212 -0.3010  0.4484 -0.2506
 6153SOL    HW119358   4.607   0.117   5.158 -0.7088  1.4280  0.4671
 6153SOL    HW219359   4.769   0.138   5.156 -0.4955 -0.0932 -0.8029
 6154SOL     OW19360   5.107   4.873   2.925 -0.1832 -0.8067  0.3325
 6154SOL    HW119361   5.049   4.843   2.849 -0.2636  0.8795 -0.3226
 6154SOL    HW219362   5.069   4.957   2.964  1.0406 -0.4667  0.8196
 6155SOL     OW19363   2.095   4.467   5.026 -0.1224 -0.2144 -0.0851
 6155SOL    HW119364   2.113   4.373   5.057  0.2573 -0.4343 -0.9387
 6155SOL    HW219365   2.181   4.511   5.002 -0.4811 -0.3907 -1.7622
 6156SOL     OW19366   6.545   6.640   4.044 -0.3784  0.3387 -0.4280
 6156SOL    HW119367   6.620   6.648   4.110  1.3552  0.4409 -2.3270
 6156SOL    HW219368   6.475   6.709   4.064  1.0314  1.6464  0.1404
 6157SOL     OW19369   1.791   6.814   4.815 -0.1289 -0.1281  0.4885
 6157SOL    HW119370   1.864   6.771   4.763 -1.0144 -0.5398 -0.4515
 6157SOL    HW219371   1.794   6.913   4.802 -0.7774 -0.2725 -0.9889
 6158SOL     OW19372   5.357   0.518   2.084  0.0245 -0.2406 -0.3943
 6158SOL    HW119373   5.438   0.539   2.028  0.0797  0.1230 -0.1774
 6158SOL    HW219374   5.277   0.510   2.025  0.4822 -2.1999 -0.8276
 6159SOL     OW19375   3.000   6.728   6.723 -0.3041 -0.3542  0.1591
 6159SOL    HW119376   2.975   6.748   6.628  0.5236  2.3340  0.4399
 6159SOL    HW219377   3.098   6.713   6.730 -0.3722 -0.6334  0.6145
 6160SOL     OW19378   5.715   4.284   0.843 -0.2177  0.0028  0.5395
 6160SOL    HW119379   5.731   4.246   0.934 -1.0574 -0.8213  0.3554
 6160SOL    HW219380   5.686   4.380   0.852 -0.1090 -0.0159  1.1283
 6161SOL     OW19381   4.167   4.954   5.963  0.6050  0.4785 -0.1763
 6161SOL    HW119382   4.072   4.980   5.979  0.9583  1.3920  0.4998
 6161SOL    HW219383   4.184   4.863   6.001 -0.2404 -0.1160 -1.1700
 6162SOL     OW19384   0.544   5.953   3.836  0.6459  0.6828  0.1108
 6162SOL    HW119385   0.472   5.926   3.773 -0.2110  0.7956  1.0173
 6162SOL    HW219386   0.633   5.921   3.801 -0.1132 -1.8068  0.2628
 6163SOL     OW19387   0.666   4.053   3.897 -0.5577  0.1156 -0.6030
 6163SOL    HW119388   0.578   4.052   3.848  0.4703 -1.3285 -2.5584
 6163SOL    HW219389   0.652   4.087   3.990 -3.1216  0.2133 -0.9496
 6164SOL     OW19390   5.314   3.245   6.890  0.2265 -0.3015  0.0895
 6164SOL    HW119391   5.371   3.327   6.885 -1.5130  0.8827 -1.9477
 6164SOL    HW219392   5.350   3.175   6.829 -0.7338  0.6478 -1.6195
 6165SOL     OW19393   4.720   0.044   1.581  0.1649  0.5741 -0.0479
 6165SOL    HW119394   4.810   0.004   1.565  0.5821  1.8755 -1.1838
 6165SOL    HW219395   4.653   0.002   1.519  0.6732  1.8021 -1.4913
 6166SOL     OW19396   4.210   6.988   0.559  0.1224 -0.6906  0.0756
 6166SOL    HW119397   4.156   7.026   0.634 -1.5754 -1.0050 -0.9355
 6166SOL    HW219398   4.281   7.054   0.533 -0.9517  0.5788  0.2272
 6167SOL     OW19399   0.541   4.203   3.592 -0.5021  0.3433  0.1637
 6167SOL    HW119400   0.601   4.249   3.657  0.9327 -0.2627 -0.6701
 6167SOL    HW219401   0.585   4.118   3.562 -1.5124  0.1987 -0.9467
 6168SOL     OW19402   0.641   1.920   1.075  0.3961 -0.2162 -0.6974
 6168SOL    HW119403   0.622   1.918   0.977  0.0110  0.2779 -0.6345
 6168SOL    HW219404   0.664   1.827   1.106  0.5637 -0.3657 -1.2585
 6169SOL     OW19405   1.111   3.919   0.861  0.3674 -0.2286 -0.5056
 6169SOL    HW119406   1.177   3.874   0.921  0.2137  0.4491  0.1839
 6169SOL    HW219407   1.071   3.852   0.799 -0.7994 -1.2901  1.3326
 6170SOL     OW19408   5.985   1.501   3.588  0.4703 -0.3844  0.6703
 6170SOL    HW119409   5.906   1.465   3.638  0.4861  1.3745  2.0750
 6170SOL    HW219410   5.957   1.524   3.495 -0.0382 -2.0042  0.3888
 6171SOL     OW19411   0.264   3.104   0.838  0.1852 -0.1739 -0.0858
 6171SOL    HW119412   0.358   3.109   0.804  0.2639  1.3207  0.2908
 6171SOL    HW219413   0.266   3.074   0.934  0.1651 -1.4129 -0.4516
 6172SOL     OW19414   6.044   4.345   3.227  0.1422  0.0928 -0.0722
 6172SOL    HW119415   6.133   4.356   3.270 -0.5517  2.1245  0.9588
 6172SOL    HW219416   6.046   4.384   3.134  0.4347 -0.2411 -0.2054
 6173SOL     OW19417   5.008   5.725   1.953 -0.0011  0.2009 -0.2717
 6173SOL    HW119418   4.938   5.787   1.916  0.6081  0.8862 -0.2957
 6173SOL    HW219419   4.979   5.694   2.044 -0.1516  0.8135 -0.1008
 6174SOL     OW19420   6.207   3.247   3.834  0.4003 -0.1130  0.2446
 6174SOL    HW119421   6.121   3.200   3.853  0.3802 -0.0195  0.3920
 6174SOL    HW219422   6.203   3.289   3.743  0.3427 -0.2233  0.1956
 6175SOL     OW19423   4.234   1.650   6.857 -0.8169 -0.1631  0.4485
 6175SOL    HW119424   4.264   1.582   6.790 -0.7669 -0.6300  0.9445
 6175SOL    HW219425   4.191   1.605   6.934 -1.0207  0.3871  0.6620
 6176SOL     OW19426   1.604   6.359   6.312  0.2942  0.3424 -0.6892
 6176SOL    HW119427   1.559   6.356   6.223 -1.9743  1.3711  0.3457
 6176SOL    HW219428   1.659   6.277   6.324 -2.1349 -1.5714 -1.6620
 6177SOL     OW19429   4.667   4.467   0.946  0.5281  0.3608 -0.4658
 6177SOL    HW119430   4.615   4.383   0.955 -0.9583  1.1088 -1.6589
 6177SOL    HW219431   4.651   4.525   1.027  0.3433  0.1368 -0.3408
 6178SOL     OW19432   4.496   3.900   1.608  0.2746 -0.3810  0.5229
 6178SOL    HW119433   4.470   3.811   1.646  0.8262 -0.8369 -0.1274
 6178SOL    HW219434   4.422   3.966   1.622  0.6016 -0.4040  2.6989
 6179SOL     OW19435   5.893   4.690   3.224  0.1311  1.1754 -0.8681
 6179SOL    HW119436   5.810   4.724   3.269  0.1476  1.1379 -0.8087
 6179SOL    HW219437   5.868   4.633   3.146  0.0350 -0.9631  0.6416
 6180SOL     OW19438   0.247   2.860   6.178  0.5841  0.2801 -0.6533
 6180SOL    HW119439   0.240   2.940   6.238 -0.2038  0.5353 -1.0694
 6180SOL    HW219440   0.275   2.890   6.087 -0.1463  0.1540 -0.9308
 6181SOL     OW19441   1.837   0.077   4.797  0.4751 -0.2136  0.3663
 6181SOL    HW119442   1.809   0.105   4.705 -1.1459 -1.1292  0.5403
 6181SOL    HW219443   1.888   0.151   4.840 -0.3206  0.9381 -0.6080
 6182SOL     OW19444   2.407   1.351   6.009 -0.5106  0.0697  0.6823
 6182SOL    HW119445   2.342   1.401   6.066  0.5067  2.3260 -0.0329
 6182SOL    HW219446   2.471   1.301   6.067 -1.2559 -0.0588  1.4228
 6183SOL     OW19447   6.110   0.350   0.612 -0.0917 -0.2528  0.4099
 6183SOL    HW119448   6.038   0.290   0.576  0.0740 -0.8038  0.9698
 6183SOL    HW219449   6.195   0.298   0.620  0.9115  0.8563 -2.0052
 6184SOL     OW19450   2.605   6.419   4.159 -0.1084 -0.1006  0.3154
 6184SOL    HW119451   2.598   6.319   4.164  0.5792 -0.1334  0.7547
 6184SOL    HW219452   2.657   6.453   4.237 -0.3592  0.6120  0.1862
 6185SOL     OW19453   3.972   3.320   4.055  0.0683 -0.4008 -0.1547
 6185SOL    HW119454   3.884   3.326   4.009 -0.9029  0.5452  1.6998
 6185SOL    HW219455   3.958   3.323   4.154  2.2022 -0.0223  0.1831
 6186SOL     OW19456   2.269   1.171   2.165 -0.1847 -0.0074 -0.1382
 6186SOL    HW119457   2.281   1.073   2.179 -0.0858 -0.3511 -2.1909
 6186SOL    HW219458   2.345   1.206   2.110  0.2476  1.4251  1.3234
 6187SOL     OW19459   4.661   4.207   5.925  0.0423  0.2719 -0.0069
 6187SOL    HW119460   4.709   4.121   5.908 -2.1758 -1.1986  0.6238
 6187SOL    HW219461   4.720   4.269   5.976  0.8628 -1.9388  1.8964
 6188SOL     OW19462   1.911   1.679   6.096 -0.2020  0.7473 -0.0569
 6188SOL    HW119463   1.909   1.603   6.162  0.5912  0.7957  0.0288
 6188SOL    HW219464   1.944   1.762   6.141 -1.7641  1.3549  0.0446
 6189SOL     OW19465   6.453   5.990   6.896  0.3148  0.0450 -0.1088
 6189SOL    HW119466   6.385   6.024   6.831 -0.1652  0.7901  0.7617
 6189SOL    HW219467   6.514   5.926   6.849  1.3651  2.2172 -1.8683
 6190SOL     OW19468   6.454   3.417   3.984 -0.6113  0.8590  0.3000
 6190SOL    HW119469   6.367   3.447   3.945 -1.3070 -0.2712  0.9001
 6190SOL    HW219470   6.510   3.375   3.912 -1.0439  0.5906  0.1108
 6191SOL     OW19471   3.332   5.205   0.594 -0.6249  0.1134  0.0334
 6191SOL    HW119472   3.300   5.216   0.500  0.5168 -0.1670 -0.3946
 6191SOL    HW219473   3.338   5.295   0.638  1.5397  0.5648 -1.0734
 6192SOL     OW19474   3.098   2.229   6.405  0.3224 -0.4838  0.5091
 6192SOL    HW119475   3.162   2.253   6.478  1.9420 -0.3599 -0.8918
 6192SOL    HW219476   3.028   2.300   6.397  0.4848 -0.1965  1.5187
 6193SOL     OW19477   6.297   4.776   6.776 -0.2552  0.2459 -0.4788
 6193SOL    HW119478   6.219   4.798   6.717 -1.0833 -1.8608 -0.2735
 6193SOL    HW219479   6.363   4.721   6.724  0.9384  1.6425 -0.5195
 6194SOL     OW19480   5.002   6.512   6.716 -0.1745  0.8848 -0.0719
 6194SOL    HW119481   4.912   6.482   6.682 -0.8433  0.6662  1.7626
 6194SOL    HW219482   5.060   6.536   6.639 -1.4478  0.0155 -1.3684
 6195SOL     OW19483   0.397   4.785   3.368 -0.2768  0.1757  0.0501
 6195SOL    HW119484   0.362   4.703   3.413 -0.6679 -0.1701 -0.8541
 6195SOL    HW219485   0.493   4.770   3.343 -0.3770 -0.0450 -0.2052
 6196SOL     OW19486   5.157   2.970   2.497 -0.3033 -0.5094 -0.5605
 6196SOL    HW119487   5.145   3.006   2.589  0.9707 -1.0435 -0.1607
 6196SOL    HW219488   5.158   3.045   2.431  1.2993  0.1320  0.1438
 6197SOL     OW19489   6.368   6.134   2.552 -0.4564 -0.4477  0.1465
 6197SOL    HW119490   6.341   6.145   2.457 -2.2417 -0.8424  0.5679
 6197SOL    HW219491   6.440   6.200   2.575 -0.7009  0.3079 -1.1946
 6198SOL     OW19492   0.287   2.090   6.146 -0.1912 -0.2695 -0.0969
 6198SOL    HW119493   0.351   2.163   6.170  1.8884 -2.1341  0.3470
 6198SOL    HW219494   0.220   2.079   6.219  0.6150 -0.0231  0.6997
 6199SOL     OW19495   2.471   0.366   6.304 -0.8903 -0.1940 -0.0230
 6199SOL    HW119496   2.556   0.404   6.342 -2.3745  0.9900  2.3136
 6199SOL    HW219497   2.395   0.385   6.366 -3.3611  0.9447 -3.1131
 6200SOL     OW19498   2.479   5.820   0.321  0.0699 -0.1266  0.0996
 6200SOL    HW119499   2.494   5.729   0.283  1.1436  0.1480 -0.2001
 6200SOL    HW219500   2.478   5.887   0.246  1.1329  0.3001  0.4464
 6201SOL     OW19501   1.136   6.516   4.301 -0.1570  0.2758 -0.0027
 6201SOL    HW119502   1.143   6.560   4.211  0.1375 -1.4391 -0.8684
 6201SOL    HW219503   1.041   6.521   4.333 -0.6890 -0.7543 -1.3223
 6202SOL     OW19504   4.665   1.888   2.412 -0.5871 -0.2143  0.2214
 6202SOL    HW119505   4.606   1.968   2.417  0.0121  0.2369  0.1250
 6202SOL    HW219506   4.618   1.809   2.452  0.5058  1.1466  4.7941
 6203SOL     OW19507   0.153   3.011   1.383  0.6602 -0.3089 -0.7551
 6203SOL    HW119508   0.221   3.072   1.423  0.1271 -0.1954 -0.0159
 6203SOL    HW219509   0.118   3.052   1.298 -0.8239  1.2060  0.5083
 6204SOL     OW19510   0.696   6.794   4.836 -0.1266  0.1177  0.2996
 6204SOL    HW119511   0.670   6.863   4.768  0.5027 -0.2986 -0.3789
 6204SOL    HW219512   0.795   6.788   4.841 -0.1379  0.8193  1.9775
 6205SOL     OW19513   0.023   4.551   3.283  0.1948  0.5299 -0.3231
 6205SOL    HW119514  -0.056   4.606   3.254 -0.9710 -1.7302 -1.7520
 6205SOL    HW219515   0.007   4.518   3.376 -0.5624  0.1360 -0.5786
 6206SOL     OW19516   5.766   1.339   3.653 -0.0747 -0.2069  0.0865
 6206SOL    HW119517   5.789   1.242   3.647 -0.9781 -0.3714 -1.2690
 6206SOL    HW219518   5.669   1.351   3.630 -0.6028  0.7752  2.5077
 6207SOL     OW19519   2.221   5.461   3.432 -0.2294  0.1050 -0.4037
 6207SOL    HW119520   2.204   5.550   3.473 -0.0790 -0.0764  0.0588
 6207SOL    HW219521   2.319   5.449   3.417 -0.0394 -0.7420  1.3142
 6208SOL     OW19522   6.847   4.430   0.652 -0.1157  1.2628 -0.0231
 6208SOL    HW119523   6.848   4.379   0.738 -2.8059  0.7086 -0.2176
 6208SOL    HW219524   6.753   4.455   0.630  0.5474  1.7376 -2.6136
 6209SOL     OW19525   1.345   6.841   3.954  0.1359 -0.8372  0.3539
 6209SOL    HW119526   1.369   6.859   3.859 -0.1935 -0.0859  0.4054
 6209SOL    HW219527   1.428   6.829   4.008  0.6631  3.5325  0.8893
 6210SOL     OW19528   4.997   6.358   4.517 -0.3692 -0.2599 -0.0130
 6210SOL    HW119529   4.951   6.422   4.579 -1.0376  0.2602 -1.0202
 6210SOL    HW219530   5.082   6.400   4.483  0.7740 -1.1109  1.6289
 6211SOL     OW19531   5.539   3.541   5.193 -0.3240 -0.1925 -0.2224
 6211SOL    HW119532   5.511   3.637   5.192  0.1646 -0.0456 -0.1762
 6211SOL    HW219533   5.537   3.505   5.099  2.0116  0.6280 -0.6714
 6212SOL     OW19534   4.875   3.834   4.698  0.6123 -0.4974 -0.4166
 6212SOL    HW119535   4.873   3.737   4.672  0.5270 -0.6427  0.1231
 6212SOL    HW219536   4.819   3.848   4.780  0.0987  0.1277 -0.8679
 6213SOL     OW19537   5.345   5.411   6.434  0.0715 -0.1859  0.1730
 6213SOL    HW119538   5.316   5.320   6.463 -0.6941 -0.5263 -1.5686
 6213SOL    HW219539   5.280   5.448   6.368  0.8142  1.2880  0.2183
 6214SOL     OW19540   6.743   6.252   4.285  0.6267  0.1124  0.0473
 6214SOL    HW119541   6.781   6.222   4.372  1.6725  1.7505  0.2027
 6214SOL    HW219542   6.681   6.328   4.300  1.5166  1.0150 -0.6900
 6215SOL     OW19543   5.233   4.978   5.289  0.2512 -0.1441  0.1147
 6215SOL    HW119544   5.237   4.949   5.385 -0.0765 -0.8102 -0.0679
 6215SOL    HW219545   5.278   5.066   5.279 -0.9455  0.6209  1.1472
 6216SOL     OW19546   5.786   1.891   0.266  0.1547  0.0185 -0.6817
 6216SOL    HW119547   5.694   1.888   0.229  1.2959 -0.2735 -3.8236
 6216SOL    HW219548   5.796   1.971   0.325 -2.3279 -0.5293  0.6049
 6217SOL     OW19549   0.133   2.693   3.246  0.2013 -0.0756 -0.0600
 6217SOL    HW119550   0.038   2.697   3.215  0.5230 -0.2585 -1.1182
 6217SOL    HW219551   0.136   2.672   3.344 -0.8285 -1.3335 -0.2682
 6218SOL     OW19552   5.463   6.970   2.086 -0.0045  0.5905  0.0563
 6218SOL    HW119553   5.426   6.899   2.146 -0.0874  1.3748  0.9572
 6218SOL    HW219554   5.407   7.053   2.093  1.3335  1.4734  0.7064
 6219SOL     OW19555   2.015   0.496   6.655 -0.0656  0.3039 -0.5036
 6219SOL    HW119556   2.114   0.508   6.652  0.1302 -1.2279 -1.2757
 6219SOL    HW219557   1.993   0.399   6.657 -1.5603  0.6007 -0.9695
 6220SOL     OW19558   1.750   1.941   2.482  0.7964 -0.8569  0.3278
 6220SOL    HW119559   1.717   1.891   2.563  0.7708 -0.6854  0.4238
 6220SOL    HW219560   1.710   1.899   2.400  0.4548 -0.7458  0.4341
 6221SOL     OW19561   5.671   5.271   5.915 -0.0257  0.2367  0.0633
 6221SOL    HW119562   5.604   5.285   5.987  0.7978  1.6428  0.5820
 6221SOL    HW219563   5.662   5.342   5.846  0.2209 -0.2044 -0.4350
 6222SOL     OW19564   0.532   1.110   1.153  0.6725 -0.1928 -0.3643
 6222SOL    HW119565   0.626   1.077   1.148  0.8002  0.1511 -0.2453
 6222SOL    HW219566   0.531   1.210   1.152  0.2300 -0.1927 -1.6835
 6223SOL     OW19567   5.132   3.083   1.708 -0.2802 -0.4464  0.2112
 6223SOL    HW119568   5.209   3.044   1.759 -0.4847 -0.5606  0.4403
 6223SOL    HW219569   5.047   3.040   1.740 -0.6651  1.0988  1.4082
 6224SOL     OW19570   4.428   1.015   1.998 -0.4839 -0.0618  0.6474
 6224SOL    HW119571   4.367   0.974   1.930 -0.3612  0.9797 -0.1175
 6224SOL    HW219572   4.412   0.972   2.087 -2.6321  0.4428  0.5594
 6225SOL     OW19573   4.224   4.790   4.883  0.0995  0.1125  0.3761
 6225SOL    HW119574   4.300   4.851   4.904  0.3237 -0.4761  1.3197
 6225SOL    HW219575   4.255   4.695   4.889 -0.4159 -0.1101 -0.4041
 6226SOL     OW19576   6.320   0.688   4.392  0.0868 -0.3690  0.2553
 6226SOL    HW119577   6.281   0.598   4.412 -0.5941 -0.1171  0.0735
 6226SOL    HW219578   6.281   0.723   4.307 -0.1785  0.4053  0.6892
 6227SOL     OW19579   1.338   5.230   0.624  0.1441 -0.0119 -0.0559
 6227SOL    HW119580   1.374   5.309   0.574 -0.9912  0.2850 -0.4230
 6227SOL    HW219581   1.284   5.262   0.702  1.0245 -0.4609  0.7601
 6228SOL     OW19582   0.698   3.191   5.195 -0.1172 -0.2053  0.1967
 6228SOL    HW119583   0.757   3.272   5.194 -1.7060  1.0110  1.0435
 6228SOL    HW219584   0.625   3.204   5.262 -2.0284 -1.1454 -1.5829
 6229SOL     OW19585   7.004   4.510   5.144 -0.1646  0.7958  0.3047
 6229SOL    HW119586   7.077   4.575   5.164  0.4959  0.3006 -0.4423
 6229SOL    HW219587   6.998   4.443   5.217 -1.1021  1.8793  1.2746
 6230SOL     OW19588   1.121   0.831   0.904  0.3555  0.2991  0.0384
 6230SOL    HW119589   1.065   0.912   0.923 -0.8319 -0.8341  1.6139
 6230SOL    HW219590   1.207   0.837   0.955  0.3107  0.6041  0.0805
 6231SOL     OW19591   1.290   6.998   6.044 -0.4516 -0.4193 -0.5520
 6231SOL    HW119592   1.359   6.936   6.081 -0.9789 -0.8651 -0.2888
 6231SOL    HW219593   1.240   6.952   5.970  0.5940  0.4653 -1.8470
 6232SOL     OW19594   3.865   6.612   6.891 -0.3436  0.0060 -0.1795
 6232SOL    HW119595   3.794   6.662   6.842  2.0967  2.3937 -1.5233
 6232SOL    HW219596   3.889   6.529   6.841 -0.0667  0.7946 -1.3890
 6233SOL     OW19597   4.765   4.381   3.319  0.7465  0.2793 -0.3494
 6233SOL    HW119598   4.697   4.324   3.273  0.2228  1.2415 -0.7929
 6233SOL    HW219599   4.808   4.329   3.393 -0.8389 -0.1733  0.2747
 6234SOL     OW19600   4.433   5.233   3.254 -0.4272 -0.1599 -0.2317
 6234SOL    HW119601   4.418   5.234   3.155  1.1299  1.0546 -0.4956
 6234SOL    HW219602   4.490   5.311   3.280 -1.4272 -0.0278  1.7458
 6235SOL     OW19603   0.727   1.104   0.249 -0.4138 -0.2406 -0.4687
 6235SOL    HW119604   0.808   1.100   0.307 -0.0527  0.4344 -0.9074
 6235SOL    HW219605   0.755   1.109   0.153 -0.9584  0.4895 -0.6052
 6236SOL     OW19606   0.075   6.103   3.682  0.0250  0.3640 -0.2274
 6236SOL    HW119607   0.069   6.180   3.745 -0.2321 -0.2844  0.5510
 6236SOL    HW219608  -0.015   6.059   3.674  0.4431 -0.6244  0.3153
 6237SOL     OW19609   3.727   0.301   3.104  0.5293 -0.2141  0.7259
 6237SOL    HW119610   3.772   0.356   3.034  0.4202 -0.9451  0.0646
 6237SOL    HW219611   3.790   0.231   3.137 -0.4527 -2.0983 -1.1531
 6238SOL     OW19612   1.259   5.663   4.170  0.8740  0.1795 -0.0493
 6238SOL    HW119613   1.352   5.627   4.157  0.8963 -0.1970  1.0253
 6238SOL    HW219614   1.209   5.604   4.233 -0.3001  0.0630 -1.0523
 6239SOL     OW19615   3.930   2.163   4.916 -0.5918 -0.1020  0.5831
 6239SOL    HW119616   3.956   2.068   4.899 -1.6991 -0.2065 -0.7197
 6239SOL    HW219617   4.008   2.223   4.899 -0.5094 -0.5925 -0.9118
 6240SOL     OW19618   3.654   3.382   2.502  0.2132  0.5920  0.1493
 6240SOL    HW119619   3.663   3.319   2.424  0.5570 -0.1028  0.7392
 6240SOL    HW219620   3.739   3.384   2.553  0.1490  1.4303  0.2343
 6241SOL     OW19621   3.898   6.182   2.985 -0.3291 -0.4282 -0.2201
 6241SOL    HW119622   3.885   6.083   2.990  0.4328 -0.5958 -1.2340
 6241SOL    HW219623   3.963   6.211   3.054 -1.2418 -0.4861  0.6905
 6242SOL     OW19624   3.788   2.131   3.130  0.3346 -0.7501  0.2978
 6242SOL    HW119625   3.741   2.104   3.046  0.6727 -0.9379  0.1670
 6242SOL    HW219626   3.721   2.152   3.201  0.0415 -0.3155 -0.1060
 6243SOL     OW19627   3.063   6.669   0.106  0.6790 -0.6527 -0.2231
 6243SOL    HW119628   3.150   6.625   0.084  1.2228 -0.4098  1.2953
 6243SOL    HW219629   3.025   6.627   0.189 -0.8528 -1.0145 -1.0736
 6244SOL     OW19630   4.278   2.395   1.917  0.0356 -0.0521 -0.6222
 6244SOL    HW119631   4.238   2.452   1.989  0.5436  0.0149 -0.3891
 6244SOL    HW219632   4.361   2.439   1.882  0.3710 -0.5918 -0.5134
 6245SOL     OW19633   6.455   3.304   1.140  0.7860 -0.1958 -0.6257
 6245SOL    HW119634   6.435   3.207   1.154 -0.1837  0.1539  0.5276
 6245SOL    HW219635   6.383   3.345   1.085  0.7240  0.0503 -0.3651
 6246SOL     OW19636   0.620   4.469   3.521  0.0157 -0.0842  0.0283
 6246SOL    HW119637   0.676   4.433   3.596 -0.3651 -0.9041 -0.0820
 6246SOL    HW219638   0.601   4.566   3.538  0.5057 -0.0900  0.6446
 6247SOL     OW19639   6.635   5.036   1.316 -0.6063  0.2268  0.2006
 6247SOL    HW119640   6.648   5.074   1.408 -3.2129 -2.1627  1.6998
 6247SOL    HW219641   6.719   4.989   1.288  1.3808  3.7009 -0.1596
 6248SOL     OW19642   5.482   4.155   5.115  0.2445 -0.1167 -0.7112
 6248SOL    HW119643   5.396   4.199   5.140  0.9386  1.3748 -0.8288
 6248SOL    HW219644   5.482   4.137   5.016  0.2260  0.2537 -0.7803
 6249SOL     OW19645   5.656   1.376   3.900  0.1936 -0.0172  0.0932
 6249SOL    HW119646   5.700   1.359   3.812 -0.8415 -0.3564 -0.3815
 6249SOL    HW219647   5.680   1.468   3.932 -0.3860  0.6049 -1.1605
 6250SOL     OW19648   5.278   0.436   5.343 -0.2915 -0.3213 -0.5625
 6250SOL    HW119649   5.204   0.403   5.401  0.3177  1.3559  1.2733
 6250SOL    HW219650   5.362   0.386   5.365 -0.2365 -0.2304 -0.5657
 6251SOL     OW19651   1.890   1.806   5.056  0.2218 -0.4951  0.1816
 6251SOL    HW119652   1.883   1.874   4.984  3.2901  0.3239  0.5089
 6251SOL    HW219653   1.920   1.719   5.017 -0.7994 -0.8515  0.1572
 6252SOL     OW19654   2.745   3.539   6.215 -0.1945 -0.1398  0.3345
 6252SOL    HW119655   2.673   3.606   6.230  0.1267  1.0391 -2.6959
 6252SOL    HW219656   2.833   3.585   6.207  0.1857 -0.9950 -0.7633
 6253SOL     OW19657   4.685   5.785   4.217 -0.9506 -0.1811 -0.9498
 6253SOL    HW119658   4.668   5.880   4.246  0.8964  0.4630 -1.8167
 6253SOL    HW219659   4.695   5.728   4.299 -0.6651  0.6595 -0.3723
 6254SOL     OW19660   6.511   0.740   0.704 -0.1256  0.0446  0.7358
 6254SOL    HW119661   6.461   0.692   0.631 -2.1536 -0.0283  2.1008
 6254SOL    HW219662   6.609   0.741   0.682 -0.5818 -0.6059 -1.6061
 6255SOL     OW19663   2.707   6.851   0.525 -0.2150  0.4357 -0.4375
 6255SOL    HW119664   2.697   6.935   0.473 -0.0105  0.2953 -0.7020
 6255SOL    HW219665   2.765   6.787   0.475  0.1366  0.3720  0.0449
 6256SOL     OW19666   0.332   4.189   2.762 -0.8541 -0.4553 -0.1867
 6256SOL    HW119667   0.397   4.215   2.834 -1.2436 -0.5909  0.2148
 6256SOL    HW219668   0.312   4.270   2.706 -0.5200 -0.3573 -0.1696
 6257SOL     OW19669   4.490   2.706   0.151  0.5338 -0.6863  0.1349
 6257SOL    HW119670   4.459   2.665   0.066  1.6114  0.9301 -1.0953
 6257SOL    HW219671   4.476   2.641   0.226  0.4957 -2.5487 -1.4013
 6258SOL     OW19672   3.699   5.268   4.023  0.5462 -0.0458  0.3092
 6258SOL    HW119673   3.755   5.351   4.019  1.4867 -0.6983 -0.2754
 6258SOL    HW219674   3.604   5.294   4.042  0.5562  1.2891 -1.2135
 6259SOL     OW19675   4.386   5.902   5.019  0.4570  0.7023  0.0072
 6259SOL    HW119676   4.401   5.989   4.972 -1.1191 -0.1659 -2.2501
 6259SOL    HW219677   4.289   5.891   5.038  0.7818 -0.0885  1.3083
 6260SOL     OW19678   5.277   0.801   0.086  0.4886 -0.2139 -0.4219
 6260SOL    HW119679   5.368   0.839   0.099 -0.0670  0.5467  1.5204
 6260SOL    HW219680   5.264   0.723   0.147 -1.0241  1.3187  1.3211
 6261SOL     OW19681   3.226   5.934   0.977 -0.3025 -0.0189  0.2747
 6261SOL    HW119682   3.175   5.848   0.981  0.9036 -0.7397  0.8835
 6261SOL    HW219683   3.227   5.977   1.067 -0.5873  0.4458  0.0587
 6262SOL     OW19684   6.639   2.902   4.013  0.0440 -0.2440 -0.0447
 6262SOL    HW119685   6.626   2.985   3.959 -1.9813 -0.4289  0.0938
 6262SOL    HW219686   6.701   2.922   4.089 -1.4710  1.5424  0.7953
 6263SOL     OW19687   6.468   6.833   4.830  0.0122 -0.3680 -0.1772
 6263SOL    HW119688   6.554   6.838   4.779 -0.2280 -2.0180 -0.8142
 6263SOL    HW219689   6.392   6.850   4.767 -0.1825 -0.2409  0.0938
 6264SOL     OW19690   1.974   1.340   0.560 -0.6058  0.6989 -0.1655
 6264SOL    HW119691   2.019   1.300   0.480 -1.0106 -1.7756  0.7410
 6264SOL    HW219692   1.887   1.293   0.576 -0.0596  0.3597  2.2929
 6265SOL     OW19693   4.501   5.718   5.207 -0.5356 -0.6951 -0.1654
 6265SOL    HW119694   4.438   5.722   5.284 -0.1812  1.1935  0.0613
 6265SOL    HW219695   4.508   5.808   5.164  2.0402 -0.7916 -0.1218
 6266SOL     OW19696   2.118   5.669   5.465  0.1857  0.5634 -0.2855
 6266SOL    HW119697   2.132   5.612   5.384 -0.9372 -0.1089 -0.0278
 6266SOL    HW219698   2.158   5.623   5.545  1.2784  1.2181 -0.4270
 6267SOL     OW19699   0.636   6.124   2.174 -0.0788  0.6191 -0.2869
 6267SOL    HW119700   0.668   6.141   2.267  1.9036  1.3640 -1.0572
 6267SOL    HW219701   0.642   6.026   2.155 -1.7071  0.2900  0.7605
 6268SOL     OW19702   3.110   1.942   0.626 -0.4667  0.1096 -0.5203
 6268SOL    HW119703   3.095   1.935   0.724 -2.9704  2.7915 -0.6036
 6268SOL    HW219704   3.152   2.030   0.605  1.9736 -1.2481 -1.7678
 6269SOL     OW19705   2.580   6.173   6.891  0.1652  0.1813 -0.1742
 6269SOL    HW119706   2.636   6.090   6.884  2.6843  1.8628 -1.2598
 6269SOL    HW219707   2.629   6.250   6.850 -2.3884  2.1035  0.1423
 6270SOL     OW19708   1.522   0.113   0.254 -0.4671  0.1700 -0.1829
 6270SOL    HW119709   1.460   0.047   0.211  1.4010 -0.9123 -1.3172
 6270SOL    HW219710   1.540   0.085   0.348  0.4109 -1.0765 -0.6877
 6271SOL     OW19711   6.719   3.401   5.333  0.2315  0.0747 -1.2134
 6271SOL    HW119712   6.638   3.460   5.331 -0.4753 -0.7301  0.8093
 6271SOL    HW219713   6.756   3.398   5.426  0.3301 -2.4669 -1.2626
 6272SOL     OW19714   5.960   1.183   1.671 -0.2256 -0.1108 -0.0821
 6272SOL    HW119715   6.023   1.110   1.646 -1.1445 -0.9058 -0.1691
 6272SOL    HW219716   5.989   1.224   1.757 -0.9526 -2.1766  1.2248
 6273SOL     OW19717   0.140   1.340   3.327  0.5116 -0.2766  0.7362
 6273SOL    HW119718   0.133   1.439   3.337  2.2152  0.0014 -0.4674
 6273SOL    HW219719   0.064   1.307   3.270  2.1647  0.9902 -2.4580
 6274SOL     OW19720   3.844   1.617   3.918 -0.2834  0.2191  0.3259
 6274SOL    HW119721   3.849   1.716   3.906  3.0365  0.0983 -0.1520
 6274SOL    HW219722   3.881   1.592   4.007 -0.7940 -0.6465  0.3098
 6275SOL     OW19723   2.501   3.598   6.667  0.0398 -0.2250  0.3343
 6275SOL    HW119724   2.544   3.663   6.730  0.3667 -1.2360  1.1924
 6275SOL    HW219725   2.482   3.513   6.716  0.1515 -0.9801 -0.9094
 6276SOL     OW19726   1.539   3.551   2.506 -0.1297  0.5516 -0.1673
 6276SOL    HW119727   1.531   3.470   2.565 -1.3127 -3.0791 -4.7190
 6276SOL    HW219728   1.635   3.577   2.498  0.1638  0.5199  2.3570
 6277SOL     OW19729   6.067   1.208   1.941 -0.0260 -0.5723  0.6233
 6277SOL    HW119730   6.098   1.120   1.977  0.4732 -0.2920  0.8817
 6277SOL    HW219731   5.978   1.231   1.982  0.3575 -0.4397  1.3920
 6278SOL     OW19732   4.744   2.808   0.206  0.1215  0.0806 -0.2654
 6278SOL    HW119733   4.647   2.793   0.228  0.4356 -1.6445  0.1168
 6278SOL    HW219734   4.767   2.757   0.123  1.3751 -2.1252  1.3299
 6279SOL     OW19735   2.600   0.461   1.820  0.4345  0.0046 -0.7813
 6279SOL    HW119736   2.571   0.513   1.740  1.2513  1.7119 -0.0168
 6279SOL    HW219737   2.541   0.482   1.897 -0.7044 -2.0643 -1.0109
 6280SOL     OW19738   5.163   0.527   5.927 -0.6500  0.4145 -0.0646
 6280SOL    HW119739   5.186   0.599   5.862 -1.6196  0.9561  0.1737
 6280SOL    HW219740   5.246   0.475   5.951  0.0852  1.5439 -0.1111
 6281SOL     OW19741   5.808   4.759   4.599 -0.2290  0.4692  0.6118
 6281SOL    HW119742   5.797   4.801   4.689 -1.4357 -2.3058  1.8553
 6281SOL    HW219743   5.718   4.746   4.557 -0.2567 -3.1623  1.4889
 6282SOL     OW19744   1.628   5.710   6.942  0.2235  0.2814 -0.0039
 6282SOL    HW119745   1.655   5.783   7.005  0.2660 -1.4475  2.1279
 6282SOL    HW219746   1.643   5.739   6.848  1.0480  2.6640  0.8018
 6283SOL     OW19747   0.973   5.540   3.055 -0.5727  0.5409  0.1205
 6283SOL    HW119748   0.973   5.617   2.992 -0.5941  0.4105 -0.0399
 6283SOL    HW219749   0.881   5.500   3.060 -0.8729  1.3298  1.1973
 6284SOL     OW19750   3.391   3.942   4.552 -0.4543 -0.3094  0.2232
 6284SOL    HW119751   3.327   3.987   4.615  0.7533  1.2200  0.4436
 6284SOL    HW219752   3.383   3.983   4.461 -0.0992 -0.4128  0.1441
 6285SOL     OW19753   2.106   6.231   3.052 -0.0356 -0.5070 -0.0920
 6285SOL    HW119754   2.198   6.260   3.077  0.2405 -1.5188  0.0967
 6285SOL    HW219755   2.042   6.257   3.125  0.3378 -1.0687  0.4462
 6286SOL     OW19756   0.119   3.057   6.381  0.4199  0.0044 -0.5048
 6286SOL    HW119757   0.205   3.048   6.431 -0.3332  0.5151  0.9251
 6286SOL    HW219758   0.106   3.152   6.353 -1.2730  0.7435  2.3753
 6287SOL     OW19759   3.018   5.699   4.540  0.0553 -0.3309 -0.3283
 6287SOL    HW119760   3.007   5.745   4.627  0.9651 -0.7209  0.0018
 6287SOL    HW219761   3.030   5.767   4.467 -0.6236 -0.0098 -0.1475
 6288SOL     OW19762   4.515   4.632   5.198 -0.4349 -0.7606  0.3743
 6288SOL    HW119763   4.472   4.602   5.113  0.8910 -1.1526 -0.1772
 6288SOL    HW219764   4.457   4.701   5.241 -0.5817  0.3066 -1.4291
 6289SOL     OW19765   4.140   4.298   5.291 -0.1291  0.4350  0.1098
 6289SOL    HW119766   4.193   4.358   5.231 -1.2574  0.0264 -1.3628
 6289SOL    HW219767   4.054   4.274   5.246 -1.4993  0.8909  2.2932
 6290SOL     OW19768   0.325   0.284   3.204 -0.2505 -0.4288 -0.3635
 6290SOL    HW119769   0.394   0.355   3.220 -1.1891  0.1509  1.4771
 6290SOL    HW219770   0.272   0.307   3.123  0.4689  0.1301 -0.6945
 6291SOL     OW19771   3.300   3.034   2.057 -0.0987 -0.2639  0.3051
 6291SOL    HW119772   3.384   3.083   2.083 -0.8861  1.5155 -0.3344
 6291SOL    HW219773   3.256   2.997   2.139  1.2634 -1.1946  0.6535
 6292SOL     OW19774   0.341   3.003   5.525  1.1364  0.0054 -0.4102
 6292SOL    HW119775   0.339   2.904   5.512  2.1050 -0.1962  0.7748
 6292SOL    HW219776   0.261   3.031   5.578  2.5409 -0.6885  2.2828
 6293SOL     OW19777   3.665   1.255   1.322  0.0858 -0.0041 -0.1326
 6293SOL    HW119778   3.629   1.307   1.245 -2.0326 -0.4371  0.5001
 6293SOL    HW219779   3.737   1.193   1.290 -0.7886 -0.2131 -1.7825
 6294SOL     OW19780   1.239   1.525   3.256 -0.0607 -0.2268  0.0997
 6294SOL    HW119781   1.190   1.603   3.217  1.2751 -0.0890 -1.3868
 6294SOL    HW219782   1.216   1.442   3.206  1.7569 -0.0296 -1.1346
 6295SOL     OW19783   4.540   2.956   6.066 -0.1281  0.2637  0.4163
 6295SOL    HW119784   4.629   2.928   6.030  0.1335  3.1482 -1.5227
 6295SOL    HW219785   4.517   2.899   6.145  2.8098 -1.4283  0.2127
 6296SOL     OW19786   6.228   2.040   0.120  0.5811  0.3701 -0.5098
 6296SOL    HW119787   6.133   2.057   0.094 -0.0348 -1.1009  0.6349
 6296SOL    HW219788   6.254   2.101   0.195  0.3159  0.3313 -0.3847
 6297SOL     OW19789   0.762   2.444   5.535 -0.2980  0.4229 -0.5216
 6297SOL    HW119790   0.770   2.353   5.575 -1.7772  0.4357 -0.1370
 6297SOL    HW219791   0.823   2.452   5.456 -0.4570 -1.0505 -0.8161
 6298SOL     OW19792   0.103   1.491   5.127 -0.2140  0.1971 -0.1297
 6298SOL    HW119793   0.112   1.478   5.028  1.1891 -0.5819  0.0743
 6298SOL    HW219794   0.070   1.584   5.145  0.2190  0.6090 -1.3176
 6299SOL     OW19795   2.919   1.585   3.255  0.1735  0.3415  0.0538
 6299SOL    HW119796   2.884   1.494   3.231 -0.9794  0.9066 -0.4867
 6299SOL    HW219797   2.862   1.655   3.212  1.1234  1.3291  0.3577
 6300SOL     OW19798   3.918   1.560   2.201 -0.1428  0.0618 -0.2998
 6300SOL    HW119799   3.907   1.489   2.270  1.4170 -0.0878 -0.1683
 6300SOL    HW219800   4.011   1.597   2.205 -0.7810  1.8143 -0.6539
 6301SOL     OW19801   2.616   6.159   5.764  0.4573  0.4032 -0.2636
 6301SOL    HW119802   2.618   6.102   5.682 -1.4898  0.1072 -0.1565
 6301SOL    HW219803   2.571   6.109   5.838 -0.8135  1.8573  0.0009
 6302SOL     OW19804   0.958   2.961   6.254 -0.6535 -0.3634 -0.0509
 6302SOL    HW119805   1.047   3.000   6.228  0.7140 -2.3249  1.4245
 6302SOL    HW219806   0.958   2.940   6.351 -2.2027 -1.7617 -0.3061
 6303SOL     OW19807   5.598   6.026   3.679  0.8383  0.0246  0.3926
 6303SOL    HW119808   5.665   6.030   3.604 -0.6261 -0.6059 -0.9908
 6303SOL    HW219809   5.620   5.949   3.739  1.8210  0.3230  0.4438
 6304SOL     OW19810   6.963   3.004   3.941 -0.1466  0.2341  0.0044
 6304SOL    HW119811   6.958   2.932   4.011  0.0406  1.0802  0.9085
 6304SOL    HW219812   6.885   2.996   3.879 -1.0121  0.2202  1.0661
 6305SOL     OW19813   1.515   5.286   6.412 -0.4212  0.7026  0.1564
 6305SOL    HW119814   1.461   5.355   6.458  0.5273  1.2120  0.5299
 6305SOL    HW219815   1.581   5.247   6.476  1.0765  1.5912 -0.7861
 6306SOL     OW19816   1.965   5.925   4.360  0.1835  0.4274 -0.8143
 6306SOL    HW119817   1.990   5.850   4.421  1.3548 -0.3854 -2.2067
 6306SOL    HW219818   2.047   5.958   4.313 -0.7155  0.6465 -2.3179
 6307SOL     OW19819   2.971   3.156   2.130 -0.3368  0.1206  0.3638
 6307SOL    HW119820   2.895   3.150   2.065  0.0581  0.9355 -0.1924
 6307SOL    HW219821   3.057   3.145   2.081 -0.0817 -0.7392  0.9844
 6308SOL     OW19822   1.452   0.629   0.179  0.6429  0.3375 -0.0606
 6308SOL    HW119823   1.499   0.544   0.203 -2.5721 -1.3096  1.0177
 6308SOL    HW219824   1.400   0.662   0.259  1.7640  3.3725 -0.4524
 6309SOL     OW19825   1.471   5.433   5.045  0.2734 -0.1470  0.0228
 6309SOL    HW119826   1.564   5.465   5.026  0.1457 -0.3744 -1.0387
 6309SOL    HW219827   1.471   5.333   5.053  0.4971 -0.0233  2.3350
 6310SOL     OW19828   0.111   0.478   1.910  0.0750 -0.1114 -0.1364
 6310SOL    HW119829   0.144   0.391   1.945 -1.3725 -0.9976 -0.8402
 6310SOL    HW219830   0.095   0.470   1.811  0.9113  1.2900 -0.4147
 6311SOL     OW19831   5.192   0.529   6.643 -0.2058  0.1780 -0.7313
 6311SOL    HW119832   5.198   0.430   6.626  3.3717  0.4669 -2.0659
 6311SOL    HW219833   5.221   0.548   6.736 -0.2741  0.0156 -0.6752
 6312SOL     OW19834   5.195   3.934   1.188  0.1197 -0.4772 -0.1987
 6312SOL    HW119835   5.188   3.894   1.097  2.2024 -1.0828 -0.1493
 6312SOL    HW219836   5.160   4.027   1.187 -2.2901 -1.3141 -0.9726
 6313SOL     OW19837   5.856   5.000   1.947 -0.2941  0.1558 -0.4122
 6313SOL    HW119838   5.919   4.923   1.935  0.2279  0.0531  2.3578
 6313SOL    HW219839   5.883   5.053   2.028 -3.7911  0.0460  0.9861
 6314SOL     OW19840   0.366   0.371   2.911  0.5812 -0.6462 -0.0360
 6314SOL    HW119841   0.281   0.398   2.865  0.6532  1.9514  1.1639
 6314SOL    HW219842   0.432   0.446   2.904  2.5018 -2.2685 -0.1897
 6315SOL     OW19843   1.022   3.413   3.140  0.0998 -0.1023 -0.1534
 6315SOL    HW119844   0.989   3.319   3.152  0.7790 -0.2818  0.3917
 6315SOL    HW219845   1.079   3.438   3.218  2.5650 -0.3776 -1.7681
 6316SOL     OW19846   3.468   0.870   6.482 -0.4488 -0.3421  0.2976
 6316SOL    HW119847   3.474   0.910   6.574  1.3672 -0.5933  0.3134
 6316SOL    HW219848   3.518   0.928   6.417 -1.4684 -0.3284 -0.5000
 6317SOL     OW19849   4.137   4.757   3.906  0.3482 -0.1246 -0.4304
 6317SOL    HW119850   4.076   4.788   3.979  0.6320 -0.3430 -0.0961
 6317SOL    HW219851   4.096   4.779   3.817  0.7063  1.5163 -0.2128
 6318SOL     OW19852   4.508   5.633   0.368  0.3913 -0.2285 -0.7031
 6318SOL    HW119853   4.427   5.581   0.396  0.4378 -0.8832 -1.7469
 6318SOL    HW219854   4.559   5.660   0.450  0.7019 -2.3696 -0.1262
 6319SOL     OW19855   3.665   1.462   4.970 -0.0426 -0.7209 -0.4489
 6319SOL    HW119856   3.629   1.399   4.901  0.7166 -1.3290 -0.2964
 6319SOL    HW219857   3.763   1.475   4.956  0.0972 -0.7506  0.4295
 6320SOL     OW19858   5.432   2.409   5.800  0.4170 -0.0256  0.0370
 6320SOL    HW119859   5.336   2.405   5.772  0.6932  0.5231 -1.0238
 6320SOL    HW219860   5.486   2.344   5.747  0.5517 -0.7452  1.0307
 6321SOL     OW19861   0.067   3.278   0.725 -0.2567  0.3638  0.0635
 6321SOL    HW119862   0.001   3.329   0.781 -1.5616 -0.3149 -0.7891
 6321SOL    HW219863   0.139   3.241   0.783 -2.3778 -1.6063  1.6015
 6322SOL     OW19864   3.051   0.210   2.249 -0.0445  0.1951  0.3045
 6322SOL    HW119865   3.121   0.140   2.234  0.1544 -0.0671  2.1491
 6322SOL    HW219866   3.020   0.204   2.344  0.9547  3.4627  0.9546
 6323SOL     OW19867   1.630   5.188   2.233  0.1802 -0.3042  0.0452
 6323SOL    HW119868   1.679   5.116   2.185  1.3986 -0.2982  1.2233
 6323SOL    HW219869   1.677   5.275   2.220  0.0591 -0.1566  0.5597
 6324SOL     OW19870   6.474   4.177   2.271 -0.4806 -0.0464 -0.0574
 6324SOL    HW119871   6.524   4.252   2.227 -0.9900  0.8895  0.9014
 6324SOL    HW219872   6.520   4.151   2.356 -1.2292  0.3576  0.4846
 6325SOL     OW19873   0.987   4.390   3.952  0.2669 -0.4909  0.3368
 6325SOL    HW119874   0.981   4.473   3.896 -0.5059  0.4030  1.6678
 6325SOL    HW219875   1.078   4.382   3.990  0.9443 -1.3606 -1.3712
 6326SOL     OW19876   6.558   3.949   3.917  0.0016 -0.0499  0.0324
 6326SOL    HW119877   6.608   3.930   4.001  0.6773 -1.9614 -0.7475
 6326SOL    HW219878   6.581   3.881   3.848  0.0674  1.8975 -1.9993
 6327SOL     OW19879   6.650   1.613   2.771 -0.1895  0.3646  0.0438
 6327SOL    HW119880   6.563   1.628   2.723 -0.2993  0.7938  0.3671
 6327SOL    HW219881   6.678   1.698   2.816 -0.0744 -0.0268  0.7183
 6328SOL     OW19882   3.532   3.696   3.576  0.3574 -0.1829  0.6940
 6328SOL    HW119883   3.622   3.706   3.533  1.9368 -1.3724  3.4183
 6328SOL    HW219884   3.521   3.602   3.608 -1.8196 -0.0058  0.5878
 6329SOL     OW19885   6.273   4.279   5.589 -0.3173  0.4658  0.2755
 6329SOL    HW119886   6.235   4.203   5.536  0.9926 -0.0153 -0.0126
 6329SOL    HW219887   6.203   4.315   5.651 -1.2296 -0.3690 -0.2462
 6330SOL     OW19888   2.703   1.168   4.037  0.2094  0.6189 -0.3029
 6330SOL    HW119889   2.603   1.170   4.026  0.3832  1.2083 -1.9978
 6330SOL    HW219890   2.732   1.246   4.093 -0.4357 -0.7349  2.0437
 6331SOL     OW19891   0.903   2.844   3.921 -0.0451 -0.3028  0.2897
 6331SOL    HW119892   0.991   2.869   3.880 -0.9411  0.9743 -0.9550
 6331SOL    HW219893   0.829   2.887   3.869 -1.3814 -0.8093  1.7087
 6332SOL     OW19894   0.750   1.692   0.127  0.2609  0.0789 -0.1155
 6332SOL    HW119895   0.656   1.664   0.149  1.0914 -1.8977  1.2107
 6332SOL    HW219896   0.761   1.790   0.146 -2.0833  0.8890 -2.4087
 6333SOL     OW19897   4.328   1.901   5.562 -0.0872  0.7282  0.3365
 6333SOL    HW119898   4.232   1.928   5.573 -0.1802  1.5918 -2.0451
 6333SOL    HW219899   4.380   1.979   5.528  1.2448 -0.0509  0.5361
 6334SOL     OW19900   2.900   1.670   1.382 -0.3654 -0.4177  0.1698
 6334SOL    HW119901   2.958   1.597   1.419 -0.8979 -0.7858  0.2839
 6334SOL    HW219902   2.911   1.752   1.437 -0.1252 -0.5532  0.3264
 6335SOL     OW19903   0.653   0.570   5.322  0.5532  0.1478  0.3934
 6335SOL    HW119904   0.705   0.501   5.371  1.0345  0.2301  0.0020
 6335SOL    HW219905   0.556   0.564   5.348  0.7456 -0.0371  1.0805
 6336SOL     OW19906   2.543   4.607   4.980  0.5771  0.5078  0.1036
 6336SOL    HW119907   2.545   4.643   4.887  1.5832  1.6232  0.5282
 6336SOL    HW219908   2.635   4.608   5.018  0.1004  0.6101  1.3082
 6337SOL     OW19909   0.632   7.005   6.941  0.0307  0.3667 -0.7661
 6337SOL    HW119910   0.688   7.015   6.859 -1.4799  0.2225 -1.8712
 6337SOL    HW219911   0.631   7.091   6.992  0.8329  0.5201 -1.0023
 6338SOL     OW19912   0.120   6.996   2.555 -0.3647 -0.7294  0.1717
 6338SOL    HW119913   0.146   6.989   2.651 -1.2580  0.0801  0.4934
 6338SOL    HW219914   0.025   7.029   2.549 -0.7123 -1.8851 -0.9642
 6339SOL     OW19915   6.884   4.774   3.211  0.2946 -0.2937  0.6804
 6339SOL    HW119916   6.784   4.767   3.219 -0.1013 -0.9619 -2.9762
 6339SOL    HW219917   6.914   4.862   3.247 -1.6539  0.1255  1.4470
 6340SOL     OW19918   3.289   5.108   5.231  0.4505 -0.7886 -0.1794
 6340SOL    HW119919   3.355   5.038   5.203  1.6703 -0.2551  1.2350
 6340SOL    HW219920   3.313   5.195   5.189 -0.7068 -1.0405 -1.4418
 6341SOL     OW19921   1.994   4.157   3.317 -0.1508  0.4911  0.1436
 6341SOL    HW119922   1.975   4.141   3.220 -0.5964  0.6282  0.2073
 6341SOL    HW219923   2.091   4.182   3.328 -0.3633  1.6108 -0.4024
 6342SOL     OW19924   4.833   0.701   5.660 -0.1996  0.5183  0.2398
 6342SOL    HW119925   4.771   0.737   5.591  0.8396  0.5982 -0.6773
 6342SOL    HW219926   4.926   0.732   5.641  0.0607  0.8304  1.8864
 6343SOL     OW19927   1.806   2.779   6.951  0.2003 -0.1595 -0.1609
 6343SOL    HW119928   1.835   2.726   7.031 -1.3930 -3.9400 -1.8574
 6343SOL    HW219929   1.866   2.758   6.874 -1.9890 -1.7159 -1.5476
 6344SOL     OW19930   1.194   1.871   4.236  0.5257  0.4360  0.2753
 6344SOL    HW119931   1.197   1.956   4.289 -0.7246  0.6027  0.0989
 6344SOL    HW219932   1.212   1.891   4.140 -0.0925  0.5505  0.1824
 6345SOL     OW19933   6.486   4.003   6.020 -0.4664 -0.2132 -0.4663
 6345SOL    HW119934   6.585   4.012   6.010 -0.4000 -1.7782 -1.5713
 6345SOL    HW219935   6.464   3.914   6.060 -1.4338  0.2155  0.0059
 6346SOL     OW19936   1.775   5.456   4.328 -0.4296  0.3165  0.4486
 6346SOL    HW119937   1.697   5.419   4.379  0.9731 -0.4967  2.0821
 6346SOL    HW219938   1.855   5.460   4.387 -0.1716  5.0966  0.1394
 6347SOL     OW19939   2.705   2.633   0.839  0.4362 -0.6144  0.2020
 6347SOL    HW119940   2.710   2.554   0.900  0.4679  0.1249  1.1782
 6347SOL    HW219941   2.680   2.714   0.892  1.0137  0.1507 -0.6752
 6348SOL     OW19942   6.519   1.225   6.946  1.0043 -0.0591  0.3682
 6348SOL    HW119943   6.439   1.236   7.004  0.5794  0.9429 -0.3684
 6348SOL    HW219944   6.601   1.253   6.996  0.5749  1.3562  0.3171
 6349SOL     OW19945   5.395   0.776   2.734  0.1753  0.5428 -0.2720
 6349SOL    HW119946   5.417   0.842   2.806 -0.7430  0.9272 -0.3426
 6349SOL    HW219947   5.426   0.685   2.762  0.3193  0.7865  0.3681
 6350SOL     OW19948   4.903   0.059   3.116 -0.4922  0.3292  0.2142
 6350SOL    HW119949   4.881   0.012   3.202  0.6725 -0.6249  0.0055
 6350SOL    HW219950   4.958   0.140   3.136 -1.9454  1.2952  0.5130
 6351SOL     OW19951   5.556   1.942   1.672 -0.2104  0.3052 -0.6475
 6351SOL    HW119952   5.610   2.026   1.668  0.2947  0.0003 -0.3825
 6351SOL    HW219953   5.459   1.964   1.680 -0.0770  0.8613 -0.5757
 6352SOL     OW19954   4.169   6.826   5.308  0.4614 -0.3975  0.1457
 6352SOL    HW119955   4.230   6.773   5.366  0.8771  1.4225  1.4619
 6352SOL    HW219956   4.221   6.867   5.233  0.2802 -1.1944 -0.4295
 6353SOL     OW19957   3.505   4.760   5.700  0.1746  0.0311 -0.0886
 6353SOL    HW119958   3.419   4.712   5.717  0.3140 -0.1871 -0.0032
 6353SOL    HW219959   3.582   4.701   5.724  0.3416  0.4295  0.3816
 6354SOL     OW19960   1.148   5.677   2.089  0.4479 -0.6306 -0.5507
 6354SOL    HW119961   1.162   5.697   2.186 -0.0163 -0.2032 -0.5708
 6354SOL    HW219962   1.195   5.592   2.066  1.7792  0.0182 -0.2924
 6355SOL     OW19963   4.769   6.368   5.977 -0.0658  0.6055 -0.4136
 6355SOL    HW119964   4.692   6.420   6.014 -0.4382 -0.5384  0.4874
 6355SOL    HW219965   4.845   6.430   5.958 -0.5054  1.4881  0.5813
 6356SOL     OW19966   0.474   6.178   6.209  0.6767  0.2543 -0.5805
 6356SOL    HW119967   0.479   6.084   6.177  0.0083  0.2560 -0.7048
 6356SOL    HW219968   0.383   6.215   6.191  1.3510  1.4053 -1.8816
 6357SOL     OW19969   3.551   1.107   3.307  0.1786  0.2090  0.3579
 6357SOL    HW119970   3.496   1.029   3.335  1.5325 -0.2770  1.8401
 6357SOL    HW219971   3.497   1.191   3.314 -0.6153 -0.3437  0.9543
 6358SOL     OW19972   1.943   0.049   5.798  0.9139  0.0524  0.5437
 6358SOL    HW119973   1.924   0.074   5.703  0.0803  2.1422  1.2092
 6358SOL    HW219974   2.042   0.041   5.810  1.3646  3.5084  0.2553
 6359SOL     OW19975   6.629   4.022   1.298 -0.6269  0.9012 -0.6934
 6359SOL    HW119976   6.549   4.000   1.353 -0.2820  1.1467 -0.0844
 6359SOL    HW219977   6.638   4.122   1.290  1.7988  1.1101  2.5961
 6360SOL     OW19978   2.210   2.238   2.096 -0.5031 -0.0251 -0.1560
 6360SOL    HW119979   2.277   2.187   2.042  0.2868  1.3297 -0.5092
 6360SOL    HW219980   2.155   2.296   2.036 -1.1299 -0.1579  0.2744
 6361SOL     OW19981   0.641   0.901   4.076  0.0925  0.0203 -0.3892
 6361SOL    HW119982   0.626   0.902   3.977 -1.7671  0.4338 -0.1531
 6361SOL    HW219983   0.553   0.888   4.122  1.1501 -2.1926  1.1923
 6362SOL     OW19984   1.261   3.936   2.870 -0.1807 -0.1361 -0.0897
 6362SOL    HW119985   1.288   3.851   2.915 -0.3188 -1.0162 -1.6356
 6362SOL    HW219986   1.166   3.929   2.840 -0.3903  0.8152  0.3041
 6363SOL     OW19987   6.506   1.185   2.129  0.0792 -0.2362  0.4469
 6363SOL    HW119988   6.488   1.275   2.089 -1.1988 -0.5922  0.1627
 6363SOL    HW219989   6.425   1.127   2.118  0.8614 -1.4066  0.6767
 6364SOL     OW19990   2.487   2.198   2.532 -0.5355  0.2695  0.3213
 6364SOL    HW119991   2.510   2.295   2.526  0.2378  0.1360  0.9300
 6364SOL    HW219992   2.538   2.147   2.463  0.8639  0.0125  1.4831
 6365SOL     OW19993   3.344   0.491   1.120 -0.3146  0.1438  0.6127
 6365SOL    HW119994   3.378   0.515   1.211 -1.0603  0.6363  0.7705
 6365SOL    HW219995   3.384   0.404   1.091  2.5462  1.5300  0.0069
 6366SOL     OW19996   6.618   0.937   4.572 -0.1328 -0.8701 -0.4898
 6366SOL    HW119997   6.527   0.929   4.613 -0.0602  1.5582  0.3023
 6366SOL    HW219998   6.684   0.959   4.643  0.7129 -0.5099 -1.3733
 6367SOL     OW19999   0.944   2.781   4.375 -0.9614 -0.2637  0.2818
 6367SOL    HW120000   1.003   2.717   4.326 -0.1048  1.2034 -0.6370
 6367SOL    HW220001   0.853   2.781   4.333 -0.4313  0.4776 -0.8919
 6368SOL     OW20002   0.842   3.111   4.938 -0.5077  0.0628  0.5407
 6368SOL    HW120003   0.847   3.026   4.886  1.5164  0.2342  0.3691
 6368SOL    HW220004   0.809   3.092   5.030 -1.2401 -0.7096  0.1287
 6369SOL     OW20005   2.903   4.968   1.274 -0.2943 -0.1667 -0.2075
 6369SOL    HW120006   2.930   5.064   1.262 -0.3014 -0.3113 -1.5884
 6369SOL    HW220007   2.899   4.947   1.371 -0.8318  1.3850  0.1458
 6370SOL     OW20008   5.987   3.680   6.206 -0.5041  0.2665  0.2502
 6370SOL    HW120009   6.075   3.633   6.194  1.3484  3.0410  1.7819
 6370SOL    HW220010   5.947   3.653   6.294 -0.2698  0.3727  0.3892
 6371SOL     OW20011   6.466   3.648   0.898  0.3991  0.1420 -0.1719
 6371SOL    HW120012   6.518   3.613   0.976  0.7143  1.7291  0.3744
 6371SOL    HW220013   6.408   3.576   0.861  0.7365 -0.8213  1.1127
 6372SOL     OW20014   5.019   0.936   1.782  0.2862  0.3737 -0.5049
 6372SOL    HW120015   4.946   0.946   1.714 -0.5844  1.2436  0.5329
 6372SOL    HW220016   5.036   1.024   1.825  0.5022 -0.2557  0.7382
 6373SOL     OW20017   3.919   2.162   1.161  0.3047  0.2916 -0.0589
 6373SOL    HW120018   3.926   2.230   1.235  0.8748 -2.2746  2.4082
 6373SOL    HW220019   3.828   2.120   1.163  0.4526 -0.0515 -0.5740
 6374SOL     OW20020   4.876   2.681   7.002 -0.0079 -0.3409  0.2516
 6374SOL    HW120021   4.887   2.673   6.902  0.0276 -1.0135  0.3039
 6374SOL    HW220022   4.831   2.599   7.037 -0.3776  0.0703  0.7412
 6375SOL     OW20023   6.863   2.103   3.198  0.3388  0.1605 -0.4468
 6375SOL    HW120024   6.766   2.122   3.215  0.8231  0.5949  2.2738
 6375SOL    HW220025   6.878   2.004   3.202  0.0838  0.1284 -0.2307
 6376SOL     OW20026   1.746   6.022   5.401 -0.2502 -0.4271  0.1549
 6376SOL    HW120027   1.839   6.000   5.433  0.4179  0.5328 -1.0333
 6376SOL    HW220028   1.680   5.992   5.470  1.0523  0.7718  2.0546
 6377SOL     OW20029   1.369   0.175   6.736  0.0372 -0.2824  0.1128
 6377SOL    HW120030   1.371   0.077   6.756 -1.7308 -0.6736 -1.3239
 6377SOL    HW220031   1.274   0.205   6.727  0.5673  1.1528 -1.2767
 6378SOL     OW20032   6.779   1.912   3.443 -0.1325  0.0010 -0.6042
 6378SOL    HW120033   6.709   1.841   3.440 -0.5029  0.3776 -2.2527
 6378SOL    HW220034   6.834   1.907   3.359  3.2518 -1.6499  1.5052
 6379SOL     OW20035   3.560   4.481   5.365 -0.3581 -0.2058 -0.1191
 6379SOL    HW120036   3.564   4.424   5.447  1.1586 -0.1862 -0.1506
 6379SOL    HW220037   3.506   4.434   5.295  0.1600 -1.2532  0.1529
 6380SOL     OW20038   1.815   2.432   5.391  0.0641  0.5136 -0.2215
 6380SOL    HW120039   1.842   2.351   5.445  2.9116  0.9283 -0.8470
 6380SOL    HW220040   1.793   2.507   5.453 -0.1983 -0.0377  0.3645
 6381SOL     OW20041   4.951   5.133   1.636 -0.1897  0.0060  0.2740
 6381SOL    HW120042   4.876   5.070   1.655 -1.2943  0.4393 -2.2093
 6381SOL    HW220043   5.032   5.104   1.686 -0.6305 -3.4164 -0.7082
 6382SOL     OW20044   2.627   0.097   2.172 -0.6487 -0.2838 -0.5088
 6382SOL    HW120045   2.664   0.111   2.264  1.0240 -2.8105 -0.6656
 6382SOL    HW220046   2.657   0.171   2.112  0.1287  0.2322  0.4819
 6383SOL     OW20047   3.339   0.484   3.376 -0.2449 -0.1952 -0.4169
 6383SOL    HW120048   3.271   0.479   3.303  0.6812  0.6989 -1.3797
 6383SOL    HW220049   3.395   0.566   3.363 -0.8672  0.6846  2.0403
 6384SOL     OW20050   0.493   1.752   2.246 -0.1632  0.4628 -0.5909
 6384SOL    HW120051   0.503   1.745   2.345  1.1982 -0.0243 -0.7466
 6384SOL    HW220052   0.576   1.791   2.206  0.7167 -2.3786 -1.8314
 6385SOL     OW20053   7.014   2.181   1.309 -0.5886  0.3175 -0.4611
 6385SOL    HW120054   6.916   2.177   1.288 -0.6087 -0.5625 -0.2375
 6385SOL    HW220055   7.027   2.175   1.408 -0.3069  0.3209 -0.4982
 6386SOL     OW20056   2.833   6.271   1.588  0.3125 -0.0500  0.0013
 6386SOL    HW120057   2.755   6.331   1.571  0.8409  0.4917 -0.5439
 6386SOL    HW220058   2.895   6.274   1.510  0.4965 -1.0845  0.0922
 6387SOL     OW20059   6.021   6.818   5.301  0.3383  0.1872  0.4126
 6387SOL    HW120060   6.044   6.821   5.399  1.7164  2.3366  0.0858
 6387SOL    HW220061   6.099   6.851   5.247 -0.7973  0.1335 -1.3339
 6388SOL     OW20062   0.179   4.068   0.726  0.1046 -0.8713  0.0684
 6388SOL    HW120063   0.205   4.134   0.797  1.3788 -1.1690 -0.0993
 6388SOL    HW220064   0.161   4.116   0.641  1.1565 -0.7278 -0.0887
 6389SOL     OW20065   0.184   1.769   1.325  0.2127  0.5224 -0.1926
 6389SOL    HW120066   0.136   1.809   1.403  1.2763  0.8268  0.3218
 6389SOL    HW220067   0.221   1.680   1.350  1.8701  1.2640  0.1889
 6390SOL     OW20068   5.392   4.643   0.569  0.2445 -0.0824 -1.1085
 6390SOL    HW120069   5.394   4.699   0.486  0.0771  0.4294 -0.7717
 6390SOL    HW220070   5.429   4.552   0.549  3.0596  0.9443 -1.0476
 6391SOL     OW20071   1.077   2.092   3.700 -0.2216 -0.4545 -0.1996
 6391SOL    HW120072   1.010   2.035   3.749  1.6448 -1.9509  0.7154
 6391SOL    HW220073   1.120   2.156   3.764  2.1088 -2.3069  0.2018
 6392SOL     OW20074   4.156   0.518   3.202  0.1475  0.2982  0.3842
 6392SOL    HW120075   4.092   0.496   3.276 -3.0752  1.7078 -1.7516
 6392SOL    HW220076   4.176   0.616   3.203 -0.8795  0.5602 -1.2056
 6393SOL     OW20077   2.685   2.399   6.638  0.0471  0.2149 -0.1644
 6393SOL    HW120078   2.729   2.447   6.714 -2.3071  1.8015  0.3297
 6393SOL    HW220079   2.696   2.452   6.554  1.4360 -0.8160 -0.6494
 6394SOL     OW20080   1.612   4.877   0.982  0.7141 -0.2312  0.5440
 6394SOL    HW120081   1.524   4.914   0.954  0.7430  0.8663  1.7789
 6394SOL    HW220082   1.669   4.860   0.901  0.2146  1.2370 -0.1551
 6395SOL     OW20083   1.733   3.576   6.731 -0.2121  0.3087  0.1196
 6395SOL    HW120084   1.671   3.520   6.676  0.7591 -1.4070  0.7097
 6395SOL    HW220085   1.706   3.672   6.723 -2.7592 -0.3278  0.1339
 6396SOL     OW20086   0.396   5.328   2.700 -0.1731 -0.0587  0.2001
 6396SOL    HW120087   0.344   5.395   2.647  0.2552  0.1192 -0.0040
 6396SOL    HW220088   0.414   5.248   2.643  1.6186  0.7702 -0.4695
 6397SOL     OW20089   0.674   3.680   4.980 -0.1737  0.5941  0.1494
 6397SOL    HW120090   0.679   3.762   5.038  0.6869  1.4832 -1.1306
 6397SOL    HW220091   0.610   3.696   4.905  0.1339  0.1573 -0.2116
 6398SOL     OW20092   0.099   0.777   3.848  0.9785  0.0879 -0.3467
 6398SOL    HW120093   0.197   0.779   3.831  1.1632  0.3169  0.6508
 6398SOL    HW220094   0.069   0.682   3.860  1.2750  0.0744  0.3434
 6399SOL     OW20095   0.714   6.255   5.442  0.2058  0.0472 -0.1263
 6399SOL    HW120096   0.813   6.269   5.447  0.3225 -0.1609 -1.3548
 6399SOL    HW220097   0.686   6.189   5.511  0.8440  0.4953  0.5752
 6400SOL     OW20098   0.530   0.080   2.279 -0.1410 -0.1998  0.7379
 6400SOL    HW120099   0.543   0.055   2.375 -0.2000 -2.0247  0.3030
 6400SOL    HW220100   0.493   0.002   2.229  0.2622  0.5930 -0.8622
 6401SOL     OW20101   2.670   4.317   6.563  1.0434  0.3301 -0.1335
 6401SOL    HW120102   2.667   4.217   6.557 -2.5883  0.3231 -0.4013
 6401SOL    HW220103   2.695   4.355   6.474  3.5972 -0.2812  0.2632
 6402SOL     OW20104   3.460   3.966   6.557  0.0274 -0.1202 -0.1804
 6402SOL    HW120105   3.555   3.938   6.568  0.0267 -0.3261 -0.6788
 6402SOL    HW220106   3.409   3.946   6.641  0.5539  0.5256  0.3005
 6403SOL     OW20107   1.542   5.406   5.377 -0.1549 -1.2825 -0.3661
 6403SOL    HW120108   1.482   5.332   5.348 -0.7107 -0.8133 -0.4285
 6403SOL    HW220109   1.524   5.488   5.323  0.5175 -1.1186 -0.3628
 6404SOL     OW20110   5.133   4.351   0.040  0.1213 -0.1155  0.3481
 6404SOL    HW120111   5.080   4.436   0.040 -0.3254 -0.3859  0.7706
 6404SOL    HW220112   5.227   4.370   0.068  1.0374  0.8138 -2.8806
 6405SOL     OW20113   4.881   2.121   4.363 -0.5493  0.2422 -0.0109
 6405SOL    HW120114   4.827   2.041   4.337  0.0423 -0.0208 -0.4700
 6405SOL    HW220115   4.963   2.126   4.305 -0.4051  0.9881  0.2416
 6406SOL     OW20116   6.930   4.394   2.563  0.0284 -0.2062 -0.3954
 6406SOL    HW120117   6.852   4.369   2.620 -1.3305  3.5324 -0.2900
 6406SOL    HW220118   6.906   4.383   2.466  0.4045 -1.5464 -0.3570
 6407SOL     OW20119   0.329   0.956   3.545 -0.5990  0.0648 -0.0042
 6407SOL    HW120120   0.373   1.044   3.525 -0.2529  0.2064  1.3113
 6407SOL    HW220121   0.343   0.894   3.468 -0.2386  0.9206 -0.6525
 6408SOL     OW20122   5.639   0.414   1.158 -0.1381 -0.3510 -0.2187
 6408SOL    HW120123   5.706   0.360   1.108 -0.2325 -0.2893 -0.4128
 6408SOL    HW220124   5.625   0.375   1.248  1.8546  0.9243  0.7113
 6409SOL     OW20125   5.623   2.730   2.640 -0.1099  0.3097  0.3594
 6409SOL    HW120126   5.620   2.683   2.551  0.7915  0.4944  0.2168
 6409SOL    HW220127   5.655   2.824   2.626  0.4435  0.2111  0.9155
 6410SOL     OW20128   2.143   1.399   0.774  0.2493  0.5426 -0.1240
 6410SOL    HW120129   2.084   1.391   0.694 -0.4737 -0.6032  0.4869
 6410SOL    HW220130   2.225   1.344   0.761  0.3332  0.6955 -0.2439
 6411SOL     OW20131   6.670   2.515   3.483  0.4340  0.1414  0.1888
 6411SOL    HW120132   6.585   2.480   3.523 -0.5670  2.3258  0.0657
 6411SOL    HW220133   6.690   2.606   3.519  2.2301  0.0738 -0.5153
 6412SOL     OW20134   4.236   6.950   1.994  0.5113  0.1477 -0.8980
 6412SOL    HW120135   4.161   6.884   1.987  0.3748  0.2557 -0.4536
 6412SOL    HW220136   4.250   6.974   2.090 -0.7119  2.2478 -1.2027
 6413SOL     OW20137   5.418   6.509   3.102 -0.2436  0.5400 -0.2272
 6413SOL    HW120138   5.371   6.525   3.016 -1.4497 -0.4446  0.2296
 6413SOL    HW220139   5.460   6.419   3.101 -1.4199 -0.0433  0.7066
 6414SOL     OW20140   4.082   6.225   6.383  0.1840 -0.6310 -0.7813
 6414SOL    HW120141   4.024   6.184   6.454 -1.0464  0.8510 -0.8777
 6414SOL    HW220142   4.072   6.172   6.299 -1.3172 -0.2338 -0.8850
 6415SOL     OW20143   6.541   2.792   1.987  0.8266  0.0561  0.2016
 6415SOL    HW120144   6.453   2.816   2.026  0.5272 -0.4944 -0.1172
 6415SOL    HW220145   6.585   2.873   1.949  0.8148  0.4701  1.0610
 6416SOL     OW20146   2.659   5.666   0.648  0.1220 -1.0358 -0.3499
 6416SOL    HW120147   2.698   5.628   0.732 -1.5350  1.0343  1.5026
 6416SOL    HW220148   2.632   5.592   0.587 -0.1298 -2.7133  1.6909
 6417SOL     OW20149   4.865   5.381   4.414 -0.1704 -0.0611 -0.1581
 6417SOL    HW120150   4.835   5.398   4.320 -0.4750  1.1183  0.1362
 6417SOL    HW220151   4.857   5.466   4.467  1.4078 -0.3261  0.5555
 6418SOL     OW20152   3.899   4.234   6.649  0.2504 -0.4825  0.1347
 6418SOL    HW120153   3.949   4.148   6.644  1.1804 -0.0966  2.0970
 6418SOL    HW220154   3.963   4.310   6.661 -0.6661  0.2614  0.4722
 6419SOL     OW20155   0.644   6.521   0.182 -0.1616 -0.3945  0.0177
 6419SOL    HW120156   0.551   6.507   0.215  0.7423 -1.2410  2.4086
 6419SOL    HW220157   0.649   6.608   0.131 -2.1683 -0.2177  0.0600
 6420SOL     OW20158   2.852   5.154   3.692 -0.3715  0.6739 -0.3008
 6420SOL    HW120159   2.946   5.171   3.664 -0.1091 -0.2374 -0.0177
 6420SOL    HW220160   2.811   5.086   3.630 -0.9449  1.2888 -0.6093
 6421SOL     OW20161   4.228   6.112   2.027  0.1560  0.0968 -0.4714
 6421SOL    HW120162   4.174   6.188   2.064  1.7865  0.5380  1.1212
 6421SOL    HW220163   4.167   6.038   1.999 -1.2910  0.6470  1.0798
 6422SOL     OW20164   1.790   0.617   6.563  0.0621  0.1321 -0.1953
 6422SOL    HW120165   1.882   0.579   6.573  0.4526  0.6220 -1.6665
 6422SOL    HW220166   1.734   0.557   6.506  0.0730  0.7420 -0.8752
 6423SOL     OW20167   0.146   3.984   2.863 -0.2648 -0.2722 -0.9825
 6423SOL    HW120168   0.154   3.887   2.843  1.5354 -0.3136 -0.2674
 6423SOL    HW220169   0.178   4.037   2.784  0.1701 -0.3104 -0.8389
 6424SOL     OW20170   5.936   3.670   0.160 -0.3517  0.0682  0.3856
 6424SOL    HW120171   6.015   3.697   0.215  0.9500  1.9127 -2.1934
 6424SOL    HW220172   5.960   3.591   0.103 -0.6068  0.2005  0.0909
 6425SOL     OW20173   0.276   1.140   4.506 -0.2954  0.0046 -0.5318
 6425SOL    HW120174   0.255   1.083   4.427 -0.0587 -0.0336 -0.5661
 6425SOL    HW220175   0.372   1.129   4.531 -0.7992 -1.4679  0.9496
 6426SOL     OW20176   5.245   6.104   4.533  0.0547  0.3214  0.0491
 6426SOL    HW120177   5.247   6.037   4.458  0.9435 -2.1211  2.1175
 6426SOL    HW220178   5.189   6.068   4.608  0.8333  1.7694  1.3805
 6427SOL     OW20179   2.646   2.913   1.233 -0.3392  0.2202 -0.1377
 6427SOL    HW120180   2.594   2.840   1.277  0.1194  0.6429  1.1457
 6427SOL    HW220181   2.720   2.943   1.293 -1.9873  3.4223  0.4858
 6428SOL     OW20182   0.907   6.297   1.307  0.0011  0.1411 -0.5751
 6428SOL    HW120183   0.842   6.357   1.353  2.3976  2.7388 -0.2618
 6428SOL    HW220184   0.951   6.237   1.374 -0.2311  0.2244 -0.3474
 6429SOL     OW20185   2.168   1.268   3.892 -0.5611  0.2312 -0.5752
 6429SOL    HW120186   2.119   1.354   3.902  2.6622  2.0266  1.7883
 6429SOL    HW220187   2.251   1.284   3.838 -1.1384 -2.0803 -2.2947
 6430SOL     OW20188   5.704   3.212   4.530  0.5508 -0.4824  0.0363
 6430SOL    HW120189   5.795   3.245   4.557  0.2779 -0.9322  1.6389
 6430SOL    HW220190   5.714   3.137   4.466  1.2056  1.6280 -2.5288
 6431SOL     OW20191   3.863   0.194   1.260 -0.2559  0.1199 -0.0244
 6431SOL    HW120192   3.771   0.156   1.274  0.7445 -2.4882 -0.1739
 6431SOL    HW220193   3.910   0.200   1.348  0.2004 -0.6367 -0.2132
 6432SOL     OW20194   3.159   4.840   0.569  0.1690 -0.1627  0.2752
 6432SOL    HW120195   3.109   4.925   0.552 -2.1485 -1.5947 -0.5917
 6432SOL    HW220196   3.218   4.819   0.491  0.9611  0.7447  0.6090
 6433SOL     OW20197   5.358   5.382   0.762  0.2971  0.0331  0.3987
 6433SOL    HW120198   5.414   5.457   0.794  1.3605 -0.9529  0.9073
 6433SOL    HW220199   5.329   5.400   0.668  1.7484  0.4219  0.0027
 6434SOL     OW20200   5.383   4.126   0.447  0.3550  0.3336 -0.0106
 6434SOL    HW120201   5.386   4.036   0.490  0.5422  0.6437  0.6483
 6434SOL    HW220202   5.465   4.140   0.391 -1.3442 -1.3394 -3.1664
 6435SOL     OW20203   5.058   0.802   6.380 -0.3763  0.2288  0.0761
 6435SOL    HW120204   5.132   0.815   6.446 -0.2281 -1.0913  0.2047
 6435SOL    HW220205   5.086   0.834   6.290  0.5803 -0.7847 -0.0034
 6436SOL     OW20206   0.514   1.237   3.641 -0.2728  0.2343  0.5174
 6436SOL    HW120207   0.613   1.244   3.648  0.1146 -2.6280 -0.7663
 6436SOL    HW220208   0.484   1.275   3.553  0.0328 -1.1568 -0.2071
 6437SOL     OW20209   1.920   2.656   0.194  0.5440  0.1066 -0.0408
 6437SOL    HW120210   1.959   2.600   0.267  1.6688 -0.3763 -0.9905
 6437SOL    HW220211   1.830   2.621   0.170  0.6837 -0.4819  0.2727
 6438SOL     OW20212   0.626   4.984   1.219 -0.0985 -0.0931 -0.4238
 6438SOL    HW120213   0.687   4.934   1.158 -0.2722  0.6886 -1.2519
 6438SOL    HW220214   0.647   4.961   1.314  3.0514  1.8835 -0.5203
 6439SOL     OW20215   2.215   4.593   1.880 -0.0575  0.4426  0.5643
 6439SOL    HW120216   2.211   4.604   1.781  0.5526  1.5884  0.6518
 6439SOL    HW220217   2.168   4.509   1.906 -1.0879  0.6331 -0.5999
 6440SOL     OW20218   0.656   1.872   4.025  0.1085  0.2568  0.2643
 6440SOL    HW120219   0.752   1.886   4.000 -0.4611  1.7617 -1.3179
 6440SOL    HW220220   0.598   1.929   3.966 -1.8532 -1.5282  0.3518
 6441SOL     OW20221   2.831   1.220   2.768  0.4962 -0.3941  0.0277
 6441SOL    HW120222   2.882   1.148   2.721 -0.0653 -0.7271 -0.0786
 6441SOL    HW220223   2.768   1.179   2.834 -0.5665 -0.0669 -0.7551
 6442SOL     OW20224   2.202   1.967   3.880  0.3956 -0.1067 -0.6950
 6442SOL    HW120225   2.233   1.906   3.807  1.5119 -0.3785 -0.0226
 6442SOL    HW220226   2.212   1.921   3.969  3.8814  1.8985  0.1360
 6443SOL     OW20227   3.092   2.887   0.606 -0.1542  0.0392  1.1210
 6443SOL    HW120228   3.149   2.822   0.656 -1.6767 -0.1435  2.6914
 6443SOL    HW220229   2.997   2.856   0.607 -0.3472  0.3132 -1.4808
 6444SOL     OW20230   0.043   4.155   6.521 -0.9313 -0.2308  0.9249
 6444SOL    HW120231   0.108   4.110   6.461  0.0971  0.9154  1.1493
 6444SOL    HW220232  -0.050   4.144   6.485 -0.2957  0.8531 -1.1386
 6445SOL     OW20233   3.262   3.573   3.970  0.0602 -0.0574 -0.1032
 6445SOL    HW120234   3.212   3.636   4.030 -1.4476 -1.5300  0.2636
 6445SOL    HW220235   3.354   3.559   4.006 -0.3628  0.1542  1.1018
 6446SOL     OW20236   0.593   1.193   3.298  0.4937  0.0041  0.2989
 6446SOL    HW120237   0.676   1.247   3.313  0.5782 -0.0746  0.1311
 6446SOL    HW220238   0.515   1.237   3.341  0.6863 -0.1041  0.7663
 6447SOL     OW20239   0.367   3.978   2.338 -0.1017  0.9902 -0.2203
 6447SOL    HW120240   0.420   3.960   2.421 -1.2319 -1.0650  0.1430
 6447SOL    HW220241   0.271   3.994   2.363 -0.7756 -1.1978 -1.1384
 6448SOL     OW20242   3.809   2.946   2.386  0.0434  0.4013  0.9015
 6448SOL    HW120243   3.724   2.954   2.437 -0.9445 -1.8491 -0.2423
 6448SOL    HW220244   3.864   2.872   2.426 -0.4453 -0.9408 -0.7827
 6449SOL     OW20245   4.053   0.571   6.267  0.2609  0.4828  0.3574
 6449SOL    HW120246   4.032   0.566   6.365 -0.1832  0.2554  0.2519
 6449SOL    HW220247   3.990   0.512   6.217  0.8961  0.0999 -0.0060
 6450SOL     OW20248   4.631   2.373   6.853  0.0204  0.4308 -0.1647
 6450SOL    HW120249   4.575   2.455   6.866  2.0854  1.9157 -0.1282
 6450SOL    HW220250   4.655   2.334   6.942  1.3316  1.4570 -0.0476
 6451SOL     OW20251   5.087   2.636   5.958 -0.6679 -0.8773 -0.3277
 6451SOL    HW120252   5.039   2.593   5.883 -0.5574 -0.8516 -0.4141
 6451SOL    HW220253   5.174   2.674   5.925 -0.5858 -0.9275 -0.1737
 6452SOL     OW20254   6.549   2.040   4.184  0.0530 -0.2552 -0.0836
 6452SOL    HW120255   6.494   2.011   4.106 -0.5985 -1.3752  0.7628
 6452SOL    HW220256   6.505   2.116   4.230 -0.4643 -0.7236  0.2060
 6453SOL     OW20257   2.108   0.229   2.555  0.2435  0.7408 -0.1633
 6453SOL    HW120258   2.160   0.274   2.482 -0.5817 -0.1233 -1.3282
 6453SOL    HW220259   2.021   0.277   2.569 -0.5084 -0.2538 -1.2053
 6454SOL     OW20260   4.283   2.281   5.894  0.0639  0.4720  0.1259
 6454SOL    HW120261   4.367   2.268   5.840  0.3399  0.8261  0.4608
 6454SOL    HW220262   4.207   2.301   5.833  0.1670 -0.1256 -0.2016
 6455SOL     OW20263   6.722   4.650   4.397  0.1848  0.1633 -0.1868
 6455SOL    HW120264   6.758   4.557   4.394  1.8777  0.7777  0.2312
 6455SOL    HW220265   6.746   4.693   4.484 -1.5745  0.6314  0.1056
 6456SOL     OW20266   5.099   3.165   4.330  0.0844 -0.0709 -0.3043
 6456SOL    HW120267   5.089   3.085   4.272  0.2140 -0.1510 -0.2156
 6456SOL    HW220268   5.136   3.241   4.277 -0.9181  0.2135 -0.6313
 6457SOL     OW20269   1.477   0.528   4.062 -0.0774  0.0669 -0.3111
 6457SOL    HW120270   1.576   0.537   4.065  0.3296 -2.4491 -2.8244
 6457SOL    HW220271   1.440   0.581   3.986 -0.5009 -0.1842 -0.2862
 6458SOL     OW20272   0.894   1.915   3.829 -0.1811  0.1278  0.0158
 6458SOL    HW120273   0.815   1.956   3.782 -1.8341 -2.6246  0.1527
 6458SOL    HW220274   0.922   1.832   3.781  2.2939  0.6786  0.3640
 6459SOL     OW20275   6.769   4.233   4.168  0.5908  0.0511 -0.0332
 6459SOL    HW120276   6.747   4.262   4.261 -0.5172 -1.7457  0.3056
 6459SOL    HW220277   6.687   4.199   4.123  1.2726  0.1581 -1.4028
 6460SOL     OW20278   2.525   5.143   4.044 -0.0066 -0.3486 -0.9043
 6460SOL    HW120279   2.444   5.172   3.993 -1.2388 -1.1466  0.5225
 6460SOL    HW220280   2.537   5.201   4.124  0.4496 -0.6443 -0.7504
 6461SOL     OW20281   6.026   0.688   1.389 -0.5536  0.3854 -0.4087
 6461SOL    HW120282   5.995   0.638   1.470  0.7825 -2.0960 -1.2945
 6461SOL    HW220283   5.955   0.683   1.318 -0.1502 -1.0471 -0.7548
 6462SOL     OW20284   2.722   2.663   5.454  0.5856  0.2229  0.5697
 6462SOL    HW120285   2.700   2.736   5.389  1.8858  1.7600  1.7618
 6462SOL    HW220286   2.657   2.588   5.442 -0.9661  1.6436 -0.5611
 6463SOL     OW20287   5.242   3.636   2.516 -0.3106  0.6163 -0.6788
 6463SOL    HW120288   5.231   3.571   2.591  0.6796 -0.2172 -1.2286
 6463SOL    HW220289   5.330   3.621   2.471 -1.3337  0.3298 -2.7187
 6464SOL     OW20290   5.377   4.199   3.415 -0.3699 -0.4981  0.1712
 6464SOL    HW120291   5.467   4.191   3.457  0.7759  0.3246 -1.9352
 6464SOL    HW220292   5.311   4.142   3.465  0.9972 -0.1388  2.5273
 6465SOL     OW20293   3.750   1.955   1.300 -0.4394  0.1041  0.2469
 6465SOL    HW120294   3.731   1.893   1.224  0.4920 -1.3672  1.1667
 6465SOL    HW220295   3.668   1.962   1.358 -1.3660  1.7217 -1.1551
 6466SOL     OW20296   0.105   5.216   4.873  0.2259  0.0738 -0.8023
 6466SOL    HW120297   0.192   5.256   4.844  1.4331 -0.2372  2.0100
 6466SOL    HW220298   0.114   5.182   4.967 -2.7998 -0.4928 -0.6143
 6467SOL     OW20299   1.185   1.620   6.745 -0.2074 -0.1463 -0.0662
 6467SOL    HW120300   1.164   1.642   6.650 -2.6578 -0.6845  0.2829
 6467SOL    HW220301   1.273   1.660   6.770 -0.5146  1.8447 -1.9173
 6468SOL     OW20302   1.390   0.896   6.093 -0.4367 -0.2648 -0.0627
 6468SOL    HW120303   1.388   0.797   6.082  1.3883 -0.1553 -1.8361
 6468SOL    HW220304   1.296   0.930   6.105 -1.3495 -1.9526 -1.8881
 6469SOL     OW20305   4.460   6.379   6.628 -0.2978 -0.0737  0.0408
 6469SOL    HW120306   4.406   6.320   6.687 -1.8453  0.6418 -0.6016
 6469SOL    HW220307   4.400   6.422   6.560  0.9615  1.3404 -0.2254
 6470SOL     OW20308   5.475   1.865   5.662  0.2170 -0.4595  0.2833
 6470SOL    HW120309   5.449   1.951   5.707  0.8315  0.1005 -0.3999
 6470SOL    HW220310   5.476   1.791   5.730  1.0819  0.3574  1.1970
 6471SOL     OW20311   6.018   6.722   6.264 -0.5561  0.0839  0.0726
 6471SOL    HW120312   6.083   6.659   6.307 -0.9424 -0.5863 -0.3127
 6471SOL    HW220313   5.929   6.713   6.308 -0.0024  2.3409  1.8890
 6472SOL     OW20314   1.358   6.904   6.408  0.4020  0.3000 -0.1323
 6472SOL    HW120315   1.418   6.836   6.450  1.3734 -1.0188 -3.2997
 6472SOL    HW220316   1.406   6.992   6.403  1.0620 -0.0592 -0.2719
 6473SOL     OW20317   3.826   0.660   4.176 -0.0467  0.6524  0.0229
 6473SOL    HW120318   3.814   0.630   4.082 -3.1218 -1.9026  1.0348
 6473SOL    HW220319   3.749   0.720   4.202  0.5098  0.9563  1.0408
 6474SOL     OW20320   4.746   0.374   3.725 -0.4574  0.0727 -0.4421
 6474SOL    HW120321   4.737   0.416   3.635 -1.0130 -1.2507 -1.0191
 6474SOL    HW220322   4.664   0.321   3.746 -0.1928  0.0863  0.7004
 6475SOL     OW20323   6.363   4.546   4.339 -0.0634  0.0925  0.0955
 6475SOL    HW120324   6.350   4.631   4.288 -0.7206 -0.6859 -1.0824
 6475SOL    HW220325   6.278   4.492   4.336  0.4694 -0.7873  0.4752
 6476SOL     OW20326   6.275   5.292   3.793  0.5594  0.3745 -0.3046
 6476SOL    HW120327   6.362   5.272   3.748 -0.1829 -0.9806 -1.2139
 6476SOL    HW220328   6.221   5.353   3.735 -0.0360 -0.6714 -0.8907
 6477SOL     OW20329   0.941   0.883   0.449  0.0291 -0.1175  0.1239
 6477SOL    HW120330   0.908   0.935   0.528  0.4624 -1.7149  1.4155
 6477SOL    HW220331   1.015   0.934   0.405 -0.9122  1.2844  0.0679
 6478SOL     OW20332   4.403   5.263   0.315  0.0089  0.2430  0.7154
 6478SOL    HW120333   4.458   5.192   0.273 -0.6720  0.5018 -0.6906
 6478SOL    HW220334   4.306   5.246   0.296 -0.1870  1.3504  0.6343
 6479SOL     OW20335   5.552   6.632   3.949 -0.2470 -0.4547  0.4451
 6479SOL    HW120336   5.566   6.609   3.853 -1.4125  1.0306 -0.1133
 6479SOL    HW220337   5.638   6.664   3.989  0.2075 -0.9450 -0.1275
 6480SOL     OW20338   5.777   0.726   4.233 -0.6646 -0.4712  0.7815
 6480SOL    HW120339   5.738   0.803   4.183 -0.1586 -0.4857  0.3486
 6480SOL    HW220340   5.776   0.645   4.174  1.6834 -0.0458  0.0473
 6481SOL     OW20341   3.416   1.766   0.822  0.2904 -0.3056 -0.1108
 6481SOL    HW120342   3.419   1.852   0.772 -0.0744 -0.1137  0.1904
 6481SOL    HW220343   3.405   1.690   0.758 -1.2546  0.0192 -0.2548
 6482SOL     OW20344   6.341   5.991   5.116  0.8660 -0.5586  0.4023
 6482SOL    HW120345   6.420   5.950   5.161  0.0280 -0.4852  2.0464
 6482SOL    HW220346   6.268   5.923   5.108  0.7153 -0.3415 -0.0934
 6483SOL     OW20347   1.961   6.853   6.935 -0.0924 -0.1189 -0.3559
 6483SOL    HW120348   1.862   6.854   6.946 -0.1779  0.3251 -1.0690
 6483SOL    HW220349   2.004   6.890   7.017 -0.5462  0.2018 -0.2566
 6484SOL     OW20350   3.512   0.784   5.004 -0.5142  0.0131  0.3404
 6484SOL    HW120351   3.472   0.783   5.096 -2.5895  1.3943 -0.4619
 6484SOL    HW220352   3.516   0.878   4.971  0.1358 -0.4659 -1.0206
 6485SOL     OW20353   2.762   2.641   6.270 -0.3711  0.1585  0.4211
 6485SOL    HW120354   2.753   2.636   6.170 -0.5287 -1.3026  0.4851
 6485SOL    HW220355   2.781   2.736   6.297 -1.5298  0.8009 -0.8893
 6486SOL     OW20356   0.245   3.824   2.006 -0.4069  0.0927  0.3506
 6486SOL    HW120357   0.337   3.855   2.031  1.2814 -2.6701 -1.7427
 6486SOL    HW220358   0.199   3.788   2.086  1.3674 -0.7392  1.0618
 6487SOL     OW20359   0.359   0.511   4.527  0.4202  0.8260 -0.0550
 6487SOL    HW120360   0.442   0.468   4.493  0.3289 -0.6732  1.4739
 6487SOL    HW220361   0.284   0.492   4.464  0.7662  0.2484 -0.3046
 6488SOL     OW20362   1.788   6.440   3.827  0.0442 -0.4854  0.0144
 6488SOL    HW120363   1.831   6.453   3.737 -0.2022 -0.2484 -0.0693
 6488SOL    HW220364   1.792   6.343   3.852 -1.3353 -0.8391 -0.9919
 6489SOL     OW20365   1.174   4.823   6.905  0.9150 -0.5803  0.0687
 6489SOL    HW120366   1.237   4.866   6.841  0.3548  0.3642  0.1263
 6489SOL    HW220367   1.170   4.877   6.989  0.9732 -1.3210  0.5569
 6490SOL     OW20368   3.192   1.197   5.402  0.0465 -0.3784 -0.0743
 6490SOL    HW120369   3.207   1.134   5.479 -0.7695 -2.1671 -1.3128
 6490SOL    HW220370   3.263   1.267   5.402 -0.2719  0.0682  2.6547
 6491SOL     OW20371   0.535   0.006   1.888 -0.1017  0.1676  0.1242
 6491SOL    HW120372   0.617   0.060   1.906  0.8855 -1.4230  0.6433
 6491SOL    HW220373   0.510   0.014   1.792 -0.5431  2.2346  0.3641
 6492SOL     OW20374   3.747   3.609   3.869 -0.3927 -0.3731  0.1330
 6492SOL    HW120375   3.719   3.566   3.954 -1.5929 -0.5020 -0.2994
 6492SOL    HW220376   3.781   3.540   3.805  0.7445 -0.2463  0.5732
 6493SOL     OW20377   2.129   5.381   4.077  0.5830 -0.4209  0.5014
 6493SOL    HW120378   2.175   5.469   4.066 -0.0352 -0.2931 -1.5522
 6493SOL    HW220379   2.119   5.360   4.174  0.7694  1.7456  1.0320
 6494SOL     OW20380   1.273   0.458   3.386  0.1765 -0.4625 -0.6026
 6494SOL    HW120381   1.272   0.470   3.287  0.7511 -1.0723 -0.6880
 6494SOL    HW220382   1.357   0.497   3.424 -0.7380  1.1448 -0.1603
 6495SOL     OW20383   0.805   5.951   1.781  0.6190 -0.2220  0.0539
 6495SOL    HW120384   0.792   5.889   1.704  0.5946 -0.0502 -0.0825
 6495SOL    HW220385   0.852   5.904   1.855  3.2682  0.3595 -1.1139
 6496SOL     OW20386   2.717   2.098   0.737  0.2451 -0.0173  0.3233
 6496SOL    HW120387   2.619   2.079   0.731 -0.2082  1.5893  1.8795
 6496SOL    HW220388   2.767   2.012   0.748 -1.0653 -0.7998  0.3683
 6497SOL     OW20389   0.387   3.339   2.038  0.5850  0.9079 -0.5199
 6497SOL    HW120390   0.470   3.377   1.998  1.0367  1.1623  0.6291
 6497SOL    HW220391   0.309   3.360   1.979  1.4709 -0.4084 -2.2662
 6498SOL     OW20392   2.903   4.804   4.502  0.1317  0.6399  0.3071
 6498SOL    HW120393   2.819   4.846   4.538  0.0958  0.8729 -0.0451
 6498SOL    HW220394   2.946   4.866   4.437  1.3079  1.1062  1.4856
 6499SOL     OW20395   4.818   2.724   2.140 -0.4357  0.1655  0.5944
 6499SOL    HW120396   4.834   2.676   2.227  0.3031  1.1622  1.0204
 6499SOL    HW220397   4.906   2.740   2.094 -0.8127 -0.2785 -0.3087
 6500SOL     OW20398   2.429   4.619   3.967 -0.4092 -0.9214 -0.5051
 6500SOL    HW120399   2.393   4.711   3.981  0.1342 -0.2183 -3.1792
 6500SOL    HW220400   2.359   4.552   3.993 -1.1981  0.2434  0.5086
 6501SOL     OW20401   4.895   0.988   4.753  0.4202 -0.2564  0.1022
 6501SOL    HW120402   4.856   1.078   4.733  0.9585  0.4298  1.8819
 6501SOL    HW220403   4.994   0.997   4.763  0.6531 -1.3352 -1.0912
 6502SOL     OW20404   1.417   3.123   4.679 -0.0777 -0.2584  0.0313
 6502SOL    HW120405   1.392   3.216   4.650 -0.5507 -1.4178 -3.7859
 6502SOL    HW220406   1.335   3.074   4.707 -0.3391 -0.4517 -1.0285
 6503SOL     OW20407   6.488   3.762   5.797  0.2875 -0.5110 -0.1720
 6503SOL    HW120408   6.478   3.754   5.896 -1.6580  0.2761 -0.2616
 6503SOL    HW220409   6.402   3.794   5.757  1.0594 -0.7096 -2.1169
 6504SOL     OW20410   3.587   1.699   5.115  0.3822 -0.7199  0.3542
 6504SOL    HW120411   3.598   1.603   5.086 -0.2447 -0.9281  0.8062
 6504SOL    HW220412   3.518   1.743   5.058  0.9730 -0.4085 -0.1348
 6505SOL     OW20413   1.844   0.627   0.418 -0.1138  0.0402  0.1426
 6505SOL    HW120414   1.894   0.609   0.333 -0.3430 -0.1012  0.0363
 6505SOL    HW220415   1.872   0.561   0.488 -1.6613 -1.3859 -0.5333
 6506SOL     OW20416   2.078   4.244   1.434  0.4288  0.9698  0.6820
 6506SOL    HW120417   2.053   4.149   1.416 -1.5648  1.5879 -0.0871
 6506SOL    HW220418   2.177   4.250   1.445  0.4645 -1.5178  2.9359
 6507SOL     OW20419   6.166   3.779   6.644  0.3585  0.2026  0.0403
 6507SOL    HW120420   6.141   3.741   6.733 -1.4330 -0.7399 -0.8058
 6507SOL    HW220421   6.249   3.733   6.611 -0.8352 -1.9021 -0.2212
 6508SOL     OW20422   0.156   1.696   2.881  0.0475  0.4612 -0.2046
 6508SOL    HW120423   0.253   1.688   2.906  0.3081  0.2042 -1.2659
 6508SOL    HW220424   0.102   1.633   2.937  0.4277  0.9043  0.6838
 6509SOL     OW20425   2.956   3.167   6.841 -0.0757 -0.0268 -0.6540
 6509SOL    HW120426   2.882   3.203   6.898 -1.6567 -0.7464 -2.1399
 6509SOL    HW220427   3.016   3.242   6.813  0.7152  0.3508  1.8134
 6510SOL     OW20428   3.927   6.117   3.887  0.3993 -0.0195  0.2303
 6510SOL    HW120429   3.991   6.179   3.933 -0.0429 -2.0428  3.9776
 6510SOL    HW220430   3.975   6.034   3.861 -0.3029 -0.8567  1.5226
 6511SOL     OW20431   3.458   4.211   0.556  0.0276  0.7860  0.2240
 6511SOL    HW120432   3.395   4.199   0.632 -0.1408 -0.4932 -0.1014
 6511SOL    HW220433   3.460   4.308   0.530 -1.1732  0.9799  0.7668
 6512SOL     OW20434   5.051   1.877   2.650 -0.2244 -0.4589 -0.2124
 6512SOL    HW120435   4.980   1.914   2.589  0.3377  1.6086  0.3369
 6512SOL    HW220436   5.029   1.899   2.745  2.4320  2.7407 -0.1660
 6513SOL     OW20437   4.022   5.323   2.281  0.2462 -0.2769  0.1968
 6513SOL    HW120438   4.117   5.301   2.260  0.3084 -1.1946  1.3774
 6513SOL    HW220439   3.964   5.243   2.265 -0.3310  0.2445 -0.4142
 6514SOL     OW20440   5.501   4.225   1.924 -0.2730 -0.4682 -0.1403
 6514SOL    HW120441   5.483   4.314   1.967  1.3333 -0.6340  0.9801
 6514SOL    HW220442   5.576   4.233   1.859 -1.3796 -0.6407 -1.4714
 6515SOL     OW20443   0.291   3.737   2.788 -0.2090 -0.1382 -0.2068
 6515SOL    HW120444   0.220   3.691   2.734 -0.6561 -1.2240  1.2182
 6515SOL    HW220445   0.379   3.729   2.742 -0.6267 -0.7978 -0.9145
 6516SOL     OW20446   6.330   6.978   2.905 -0.2001 -0.2352 -0.1231
 6516SOL    HW120447   6.400   6.935   2.849 -0.3236 -0.5484 -0.0405
 6516SOL    HW220448   6.363   7.067   2.938  0.3222 -0.5659  0.2615
 6517SOL     OW20449   1.196   4.489   1.488  0.3203  0.5486 -0.6267
 6517SOL    HW120450   1.185   4.427   1.566 -0.1616 -0.9871 -1.8622
 6517SOL    HW220451   1.162   4.579   1.512 -0.4748 -0.0799  0.7142
 6518SOL     OW20452   1.015   3.474   2.657  0.2750  0.3203 -0.0281
 6518SOL    HW120453   0.963   3.393   2.686  0.7258 -0.5495 -1.5130
 6518SOL    HW220454   1.039   3.465   2.560  0.4583  2.1949 -0.1939
 6519SOL     OW20455   2.253   0.043   1.808  0.8013  0.3813 -0.1413
 6519SOL    HW120456   2.162   0.048   1.850 -0.3985 -0.7854 -2.4199
 6519SOL    HW220457   2.308   0.121   1.839 -0.9449  1.1105  1.3148
 6520SOL     OW20458   6.646   0.252   0.820  0.6444 -0.4142 -0.2600
 6520SOL    HW120459   6.731   0.257   0.873  0.7477 -0.1829 -0.4444
 6520SOL    HW220460   6.589   0.331   0.841  0.6179 -0.4014 -0.3790
 6521SOL     OW20461   2.832   5.825   5.642  0.3531 -0.6140 -0.1263
 6521SOL    HW120462   2.779   5.745   5.615  1.7474 -1.8050  0.5405
 6521SOL    HW220463   2.854   5.880   5.562 -1.0062 -0.6307 -0.5327
 6522SOL     OW20464   2.029   2.950   6.803 -0.1427 -0.6953 -0.2226
 6522SOL    HW120465   1.993   2.906   6.721  1.3792  0.3389 -1.4899
 6522SOL    HW220466   1.955   2.960   6.870 -1.3480 -1.8503 -1.3062
 6523SOL     OW20467   5.370   4.099   0.839 -0.4364  0.1403 -0.4879
 6523SOL    HW120468   5.442   4.099   0.769  0.9324 -2.3493  0.7851
 6523SOL    HW220469   5.406   4.133   0.925 -0.9856 -0.4175 -0.0231
 6524SOL     OW20470   4.043   1.304   1.540 -1.0387 -0.2532  0.4303
 6524SOL    HW120471   4.102   1.260   1.608 -1.0403 -1.4255 -0.2940
 6524SOL    HW220472   4.087   1.386   1.505 -0.3491 -0.4980  0.7085
 6525SOL     OW20473   4.122   5.697   4.644  0.1919  0.4361 -0.0849
 6525SOL    HW120474   4.054   5.760   4.681 -0.8035 -0.4859 -0.2739
 6525SOL    HW220475   4.214   5.736   4.653 -0.1583  0.8773  2.0192
 6526SOL     OW20476   5.801   1.671   0.038  0.1246 -0.8083 -0.3203
 6526SOL    HW120477   5.832   1.757   0.078  0.0820 -0.7007 -0.5185
 6526SOL    HW220478   5.874   1.603   0.046 -0.1703 -1.0287  0.6691
 6527SOL     OW20479   6.146   3.669   1.137  0.2995 -0.0698 -0.1257
 6527SOL    HW120480   6.236   3.713   1.139  1.2591 -1.9601  0.9311
 6527SOL    HW220481   6.104   3.673   1.227 -0.2545 -0.0488 -0.3785
 6528SOL     OW20482   5.698   0.739   0.187 -0.1191  0.0841  0.1450
 6528SOL    HW120483   5.723   0.643   0.196 -1.0170 -0.2535 -0.8638
 6528SOL    HW220484   5.761   0.795   0.242  1.1122 -0.9694 -0.1538
 6529SOL     OW20485   1.853   4.911   2.896 -0.4880 -0.2408 -0.3811
 6529SOL    HW120486   1.815   4.979   2.834 -0.6772 -0.1747 -0.1929
 6529SOL    HW220487   1.946   4.937   2.920  0.2471 -1.1606 -2.0134
 6530SOL     OW20488   0.294   4.853   4.345  0.0589 -0.5548 -0.3412
 6530SOL    HW120489   0.278   4.936   4.398 -0.6629 -0.3646 -0.8513
 6530SOL    HW220490   0.389   4.823   4.359 -0.7218 -1.8586  2.9251
 6531SOL     OW20491   3.063   3.233   4.130 -0.0957  0.3598 -0.1716
 6531SOL    HW120492   3.044   3.149   4.079  0.1794  0.3088 -0.1926
 6531SOL    HW220493   3.162   3.247   4.135 -0.0953 -0.0385  1.0243
 6532SOL     OW20494   0.670   0.176   0.747  0.1477 -0.0079  0.0864
 6532SOL    HW120495   0.699   0.082   0.763 -0.8644 -0.2667  0.4598
 6532SOL    HW220496   0.574   0.177   0.718 -0.2404  0.9945  1.3247
 6533SOL     OW20497   4.029   5.457   1.617 -0.0325  0.1184  0.9240
 6533SOL    HW120498   4.043   5.482   1.713 -0.4713 -0.8984  1.2678
 6533SOL    HW220499   3.950   5.396   1.610  1.1889 -1.4425  0.1818
 6534SOL     OW20500   4.854   3.815   3.420 -0.1032 -0.5395 -0.3400
 6534SOL    HW120501   4.794   3.756   3.366  0.1503 -0.7098 -0.4382
 6534SOL    HW220502   4.935   3.838   3.366  0.3841 -1.1015  0.1331
 6535SOL     OW20503   5.343   2.108   6.143  0.2424 -0.0068 -0.2125
 6535SOL    HW120504   5.417   2.169   6.168 -0.6857  0.9605  0.2461
 6535SOL    HW220505   5.288   2.087   6.225  0.7016 -1.6956 -0.2938
 6536SOL     OW20506   0.561   0.131   5.841  0.2537  0.1531 -0.1087
 6536SOL    HW120507   0.505   0.142   5.922 -0.5825 -0.1963 -0.6340
 6536SOL    HW220508   0.510   0.082   5.770  0.5921  1.3299 -1.2123
 6537SOL     OW20509   0.263   4.802   2.446  0.1488  0.3219 -0.2116
 6537SOL    HW120510   0.224   4.892   2.423  0.8463  0.4588 -0.9244
 6537SOL    HW220511   0.271   4.793   2.545  0.5643  1.2749 -0.1459
 6538SOL     OW20512   1.055   3.913   3.410 -0.0167 -0.4500  0.1093
 6538SOL    HW120513   1.021   3.820   3.397  0.6504 -0.6960  0.1220
 6538SOL    HW220514   0.981   3.978   3.389 -0.3032 -0.9617 -0.5076
 6539SOL     OW20515   5.957   4.907   5.334  0.5112 -0.1657 -0.1382
 6539SOL    HW120516   6.016   4.952   5.402  1.3400 -1.6890  0.1803
 6539SOL    HW220517   5.902   4.837   5.379 -0.7754  0.4850 -0.6342
 6540SOL     OW20518   6.742   3.147   6.546 -0.2373 -0.9122 -0.5999
 6540SOL    HW120519   6.696   3.201   6.476 -0.9452 -0.7730 -0.0475
 6540SOL    HW220520   6.760   3.204   6.626 -0.0885 -1.2447 -0.3916
 6541SOL     OW20521   1.823   1.748   0.059  1.0508  0.1341 -0.2557
 6541SOL    HW120522   1.729   1.780   0.067  0.9039 -0.6975  2.3828
 6541SOL    HW220523   1.823   1.653   0.026  0.7024 -0.8094  2.2643
 6542SOL     OW20524   1.785   6.098   2.575  1.4199 -0.3251 -0.8298
 6542SOL    HW120525   1.832   6.010   2.570  0.4707 -0.9852  0.9051
 6542SOL    HW220526   1.691   6.083   2.606  1.3914  1.3268 -0.0097
 6543SOL     OW20527   3.010   1.862   4.902  0.3557  0.3786 -0.3836
 6543SOL    HW120528   2.960   1.793   4.954  1.1424 -0.0446 -0.1812
 6543SOL    HW220529   3.053   1.819   4.823  2.3788  0.2401  0.7301
 6544SOL     OW20530   1.986   2.665   2.997 -0.4333  0.4034 -0.0624
 6544SOL    HW120531   1.949   2.727   2.928  0.3192 -0.6382 -1.4447
 6544SOL    HW220532   1.934   2.674   3.082 -0.7792  2.3975 -0.4432
 6545SOL     OW20533   6.420   4.321   6.445 -0.3359  0.2660 -0.4211
 6545SOL    HW120534   6.411   4.282   6.353 -0.5118 -1.1163  0.1617
 6545SOL    HW220535   6.329   4.328   6.487 -0.0207 -2.7551  1.0615
 6546SOL     OW20536   3.289   3.655   6.185 -0.2413 -0.2242  0.1966
 6546SOL    HW120537   3.366   3.592   6.193  1.1605  1.5233  1.3305
 6546SOL    HW220538   3.204   3.603   6.178  0.9306 -2.2107 -0.0983
 6547SOL     OW20539   0.578   6.062   5.614  0.0456 -0.1279  0.0373
 6547SOL    HW120540   0.603   6.016   5.528  0.2647 -1.3842  0.7541
 6547SOL    HW220541   0.573   5.995   5.687  1.0661  1.1085  1.2890
 6548SOL     OW20542   0.950   6.745   4.214  0.0289  0.3324 -0.3168
 6548SOL    HW120543   0.908   6.692   4.140 -0.6113 -0.3895  0.5419
 6548SOL    HW220544   0.925   6.704   4.302  0.2131  1.5846  0.3332
 6549SOL     OW20545   1.632   2.496   2.674  0.1877 -0.1805  0.9478
 6549SOL    HW120546   1.590   2.406   2.688  0.4991 -0.9501 -2.2709
 6549SOL    HW220547   1.724   2.485   2.637 -0.7736  1.3147 -2.2459
 6550SOL     OW20548   6.767   6.965   2.961  0.0536  0.0057 -0.3979
 6550SOL    HW120549   6.827   6.935   2.888  0.5704 -1.6262  0.6435
 6550SOL    HW220550   6.802   6.933   3.049 -0.6623  1.7273  0.5815
 6551SOL     OW20551   4.460   4.682   0.481  0.7204  0.2577  0.3911
 6551SOL    HW120552   4.418   4.732   0.557  0.5956  0.1010  0.4265
 6551SOL    HW220553   4.540   4.732   0.449 -0.7596  1.7675 -1.1795
 6552SOL     OW20554   2.176   4.178   6.600 -0.2495  0.7690  0.7529
 6552SOL    HW120555   2.127   4.247   6.547 -0.4421  1.4801  1.8149
 6552SOL    HW220556   2.264   4.215   6.631 -0.0763  0.3204  0.8148
 6553SOL     OW20557   6.811   1.029   3.304 -1.0089 -0.2898 -0.5721
 6553SOL    HW120558   6.831   1.039   3.402  0.5022  2.9727 -1.0552
 6553SOL    HW220559   6.843   0.941   3.272 -0.5157 -0.9809  1.6479
 6554SOL     OW20560   4.381   2.048   3.839 -0.2510  0.1742 -0.1953
 6554SOL    HW120561   4.411   1.955   3.817  0.1528  0.5186 -1.1509
 6554SOL    HW220562   4.334   2.048   3.927  0.2165 -0.8435  0.0694
 6555SOL     OW20563   0.670   4.419   2.419 -0.1380 -0.2561 -0.0713
 6555SOL    HW120564   0.604   4.472   2.472 -0.0690 -0.6425  0.4154
 6555SOL    HW220565   0.624   4.339   2.380  0.0008 -0.4478  0.1488
 6556SOL     OW20566   5.523   3.560   2.458  0.7031 -0.4147  0.0865
 6556SOL    HW120567   5.500   3.469   2.423  1.6012 -1.3986  1.9552
 6556SOL    HW220568   5.521   3.626   2.382 -0.6111 -1.8415 -1.1831
 6557SOL     OW20569   1.700   1.157   2.253 -0.6153  0.5785 -0.5898
 6557SOL    HW120570   1.669   1.063   2.267 -0.8136  0.4669 -1.6408
 6557SOL    HW220571   1.651   1.218   2.315  1.3945 -0.2843  1.9781
 6558SOL     OW20572   6.387   0.605   0.520  0.8735 -0.5104 -0.3808
 6558SOL    HW120573   6.300   0.649   0.498  0.5017  0.8965  3.1082
 6558SOL    HW220574   6.397   0.521   0.468 -2.4379 -0.5617 -1.1319
 6559SOL     OW20575   6.115   2.908   7.006  0.7966  0.0056  0.1814
 6559SOL    HW120576   6.035   2.949   7.050  1.0643  0.6258  0.1101
 6559SOL    HW220577   6.086   2.841   6.939  0.2856  0.9795 -0.5946
 6560SOL     OW20578   0.687   2.323   6.513 -0.0561 -0.7157  0.2613
 6560SOL    HW120579   0.647   2.248   6.459  0.4545 -1.5680  1.0361
 6560SOL    HW220580   0.732   2.285   6.594  1.5582  0.2797 -0.1255
 6561SOL     OW20581   2.521   4.500   0.413  0.4559  0.1617 -0.4074
 6561SOL    HW120582   2.465   4.509   0.331  0.4347 -0.2416 -0.4409
 6561SOL    HW220583   2.589   4.427   0.400  0.3803  0.0181 -0.0286
 6562SOL     OW20584   4.524   2.753   1.770  0.0272  0.3219 -0.4592
 6562SOL    HW120585   4.499   2.768   1.674 -0.4002  1.2646 -0.2134
 6562SOL    HW220586   4.533   2.842   1.816 -0.7835 -0.1324  0.6273
 6563SOL     OW20587   5.988   2.449   4.900 -0.2552 -0.0660  0.0315
 6563SOL    HW120588   5.896   2.476   4.929 -0.8087 -1.6250 -0.1822
 6563SOL    HW220589   6.026   2.519   4.840 -1.0416  0.9010  0.6415
 6564SOL     OW20590   6.767   4.141   2.246  0.3918  0.0880 -0.0086
 6564SOL    HW120591   6.793   4.237   2.233  0.2410  0.1054 -0.1957
 6564SOL    HW220592   6.803   4.086   2.170  0.2233  0.0478 -0.0615
 6565SOL     OW20593   4.406   4.591   2.348 -0.5259 -0.1795  0.4823
 6565SOL    HW120594   4.322   4.600   2.294 -0.0268 -0.3624 -0.3448
 6565SOL    HW220595   4.452   4.679   2.352  0.4369 -0.5727 -1.0877
 6566SOL     OW20596   5.788   6.729   4.045  0.1351 -0.5606  0.3783
 6566SOL    HW120597   5.764   6.823   4.069  0.2028 -0.4122 -0.1121
 6566SOL    HW220598   5.876   6.705   4.085  0.6733 -0.0123 -0.4378
 6567SOL     OW20599   3.674   1.545   4.504  0.0282 -0.2346  0.6375
 6567SOL    HW120600   3.637   1.622   4.555 -0.2377  0.6500 -0.8182
 6567SOL    HW220601   3.621   1.532   4.420 -0.7056 -2.8045  1.4239
 6568SOL     OW20602   5.046   1.537   1.150  0.1238  0.4938  0.5463
 6568SOL    HW120603   4.992   1.545   1.066  0.5209 -2.7860 -0.1622
 6568SOL    HW220604   5.011   1.461   1.205  2.3909 -0.0875  1.2907
 6569SOL     OW20605   1.280   2.342   2.092 -0.0465 -0.0260 -0.4435
 6569SOL    HW120606   1.247   2.338   2.187  0.1433  1.4374 -0.2968
 6569SOL    HW220607   1.374   2.375   2.091  0.2732 -0.9194 -1.0993
 6570SOL     OW20608   4.633   0.890   1.769  0.6708  0.0525 -0.0105
 6570SOL    HW120609   4.675   0.897   1.860  0.2949  1.5304  0.0643
 6570SOL    HW220610   4.699   0.919   1.700  0.1594  1.3167  0.0147
 6571SOL     OW20611   2.097   6.474   4.098  0.1743 -0.4511 -0.3833
 6571SOL    HW120612   2.062   6.463   4.191  0.1774 -2.4421 -0.5652
 6571SOL    HW220613   2.117   6.384   4.059  0.6364  0.3611 -2.1482
 6572SOL     OW20614   5.646   0.908   4.057 -0.5177  0.6908  0.2108
 6572SOL    HW120615   5.571   0.896   3.992  0.2109  2.6026 -1.0835
 6572SOL    HW220616   5.625   0.984   4.118  0.2463  1.0587  0.0198
 6573SOL     OW20617   0.383   2.943   4.437 -0.2324 -0.3391 -0.4143
 6573SOL    HW120618   0.433   2.870   4.483  1.0190 -0.9182 -2.5411
 6573SOL    HW220619   0.448   3.004   4.390 -1.4116  0.2214 -1.3767
 6574SOL     OW20620   5.769   5.566   0.779  0.3209 -0.0889 -0.0691
 6574SOL    HW120621   5.681   5.588   0.820  1.0151  2.4192  0.2885
 6574SOL    HW220622   5.839   5.563   0.850  1.2802  2.8215 -0.7186
 6575SOL     OW20623   0.937   6.426   6.071  1.0605 -0.5029  0.8535
 6575SOL    HW120624   0.881   6.366   6.127 -0.7393 -0.9809 -1.3088
 6575SOL    HW220625   1.033   6.418   6.099  0.2259 -0.2668  4.1339
 6576SOL     OW20626   4.565   6.915   3.431 -0.2655  1.1128  0.0352
 6576SOL    HW120627   4.505   6.851   3.478  1.7595  0.8816  2.4686
 6576SOL    HW220628   4.531   7.008   3.443  0.1777  1.0496  1.9805
 6577SOL     OW20629   2.721   1.004   4.733 -0.2460  0.1863  0.5038
 6577SOL    HW120630   2.806   1.054   4.715  0.0429 -0.1789  0.8443
 6577SOL    HW220631   2.735   0.940   4.808 -0.6660 -0.2821  0.1888
 6578SOL     OW20632   0.282   6.981   6.522 -0.1665  0.0073 -0.4258
 6578SOL    HW120633   0.351   6.961   6.591 -3.1954 -0.6944  2.6840
 6578SOL    HW220634   0.222   6.902   6.510 -2.3063  1.5453 -0.5534
 6579SOL     OW20635   2.737   2.409   3.120 -0.1501 -0.1826 -0.1874
 6579SOL    HW120636   2.834   2.417   3.099  0.2636 -2.2452  0.6297
 6579SOL    HW220637   2.725   2.397   3.219 -1.3204  0.8462 -0.1768
 6580SOL     OW20638   4.434   2.319   0.969  0.0672  1.1788  0.7574
 6580SOL    HW120639   4.428   2.225   0.937  0.7384  1.3399  0.1489
 6580SOL    HW220640   4.359   2.373   0.929  1.3730  1.5819 -1.3044
 6581SOL     OW20641   6.684   1.406   2.253  0.0914  0.0781 -0.1244
 6581SOL    HW120642   6.727   1.346   2.321 -1.0905 -0.2272  0.3885
 6581SOL    HW220643   6.731   1.494   2.252 -0.1483  0.2618  1.4520
 6582SOL     OW20644   4.592   6.536   2.537  0.2220  0.7634  0.5432
 6582SOL    HW120645   4.529   6.589   2.595 -0.3816  2.3002 -1.4089
 6582SOL    HW220646   4.641   6.470   2.594 -1.0100  1.5293  2.6315
 6583SOL     OW20647   1.679   4.452   6.346  0.3860 -0.4803 -0.3461
 6583SOL    HW120648   1.659   4.378   6.410 -1.0332  0.6699  0.6030
 6583SOL    HW220649   1.599   4.470   6.290  1.5020 -1.2425 -2.2891
 6584SOL     OW20650   5.898   2.821   5.076  1.1743 -0.4962  0.6789
 6584SOL    HW120651   5.879   2.888   5.148  1.1303  0.2294  0.0130
 6584SOL    HW220652   5.897   2.729   5.115  0.3736 -0.1785  1.4566
 6585SOL     OW20653   3.675   6.474   1.626  0.0738 -0.4260 -0.2242
 6585SOL    HW120654   3.638   6.414   1.555 -0.3321 -0.9354  0.4094
 6585SOL    HW220655   3.679   6.425   1.712  0.8720  0.0897  0.0400
 6586SOL     OW20656   5.817   2.382   6.225 -0.0908 -0.8102  0.6949
 6586SOL    HW120657   5.870   2.359   6.307  1.3460  0.1685  0.0834
 6586SOL    HW220658   5.719   2.373   6.245  0.2666 -2.5807  1.8847
 6587SOL     OW20659   2.547   4.235   5.721 -0.0044  0.4406  0.4295
 6587SOL    HW120660   2.531   4.271   5.630  0.4431 -0.0699  0.1424
 6587SOL    HW220661   2.495   4.151   5.734  0.1766  0.3428  0.5323
 6588SOL     OW20662   2.212   3.023   7.019 -0.2343  0.5845  0.1674
 6588SOL    HW120663   2.152   2.973   7.081 -0.1469  0.2785  0.0087
 6588SOL    HW220664   2.158   3.081   6.959 -0.2887  1.2757  0.8684
 6589SOL     OW20665   6.738   1.387   0.575  0.0614  0.6795  0.4900
 6589SOL    HW120666   6.686   1.316   0.528 -0.7459  0.3559  1.8246
 6589SOL    HW220667   6.833   1.384   0.544 -0.4613  0.5760 -1.1883
 6590SOL     OW20668   0.658   6.094   5.023 -0.1062  0.4585 -0.7598
 6590SOL    HW120669   0.576   6.081   4.968 -1.3062  2.2753  0.4711
 6590SOL    HW220670   0.683   6.008   5.067 -1.8674  0.0502 -0.5021
 6591SOL     OW20671   5.228   3.963   3.239  0.5172  0.3161  0.1778
 6591SOL    HW120672   5.322   3.998   3.229  0.6090 -0.1171 -0.5246
 6591SOL    HW220673   5.229   3.884   3.301  0.4519  0.9631  1.0132
 6592SOL     OW20674   6.672   6.287   5.300 -0.1174 -0.0310  0.1284
 6592SOL    HW120675   6.577   6.261   5.316 -0.0587 -0.1045  0.3500
 6592SOL    HW220676   6.709   6.334   5.380 -0.2895  0.9457 -0.3506
 6593SOL     OW20677   0.993   5.498   3.915 -0.0802 -0.2470  0.3694
 6593SOL    HW120678   1.072   5.526   3.860 -0.4114  0.5774  0.2904
 6593SOL    HW220679   0.976   5.567   3.986 -1.2635  0.0593 -0.1807
 6594SOL     OW20680   5.770   0.816   4.503  0.2514  0.2922 -0.2170
 6594SOL    HW120681   5.699   0.883   4.528 -0.6709 -0.4453 -0.7691
 6594SOL    HW220682   5.765   0.799   4.405  2.0059  1.1061 -0.4828
 6595SOL     OW20683   5.391   6.890   3.685 -0.1000  0.7159 -0.0942
 6595SOL    HW120684   5.347   6.968   3.731  1.7858  0.4117  2.4778
 6595SOL    HW220685   5.487   6.912   3.668 -0.4178  0.2738 -2.8299
 6596SOL     OW20686   3.939   1.102   1.361  0.6730 -0.4163 -0.2728
 6596SOL    HW120687   3.963   1.125   1.267 -0.2930 -1.3871 -0.7708
 6596SOL    HW220688   3.967   1.176   1.422  0.7311  0.5012 -1.3989
 6597SOL     OW20689   0.849   3.588   3.042  0.0656 -0.3007  0.3410
 6597SOL    HW120690   0.819   3.590   2.947  0.2669  0.7510  0.2794
 6597SOL    HW220691   0.911   3.511   3.056  1.0484  0.2568 -0.7209
 6598SOL     OW20692   0.676   5.419   2.600 -0.3357  0.3630 -0.6058
 6598SOL    HW120693   0.678   5.471   2.685 -0.8894 -1.3033  0.4524
 6598SOL    HW220694   0.600   5.452   2.543 -0.3282  1.0723 -0.2230
 6599SOL     OW20695   0.775   6.551   2.170 -0.0157  0.4246 -0.3563
 6599SOL    HW120696   0.715   6.605   2.111  0.7504  0.5699 -1.0322
 6599SOL    HW220697   0.810   6.473   2.119 -0.3307 -0.1590  0.3106
 6600SOL     OW20698   5.437   0.226   5.429  0.6273 -0.3454  0.4802
 6600SOL    HW120699   5.377   0.168   5.374 -0.6768  1.4124 -0.0536
 6600SOL    HW220700   5.433   0.197   5.524 -1.0121 -0.3590  0.4352
 6601SOL     OW20701   6.856   2.821   2.924 -0.4255  0.3293  0.6386
 6601SOL    HW120702   6.830   2.879   3.001 -1.8572 -1.4153  1.5457
 6601SOL    HW220703   6.930   2.864   2.873  0.4865  1.5925  2.9098
 6602SOL     OW20704   4.355   5.706   0.664  0.4284  0.9967  0.1055
 6602SOL    HW120705   4.449   5.683   0.637  0.8561  3.1176 -0.3922
 6602SOL    HW220706   4.291   5.672   0.596  1.0716  1.7013 -0.8834
 6603SOL     OW20707   0.223   5.016   2.709  0.2170 -0.1844 -0.4520
 6603SOL    HW120708   0.317   5.019   2.675  0.8853 -0.5194  1.2659
 6603SOL    HW220709   0.222   4.972   2.798 -1.5377  0.1481 -0.2859
 6604SOL     OW20710   2.647   5.937   3.963  0.0451  0.6659 -0.2446
 6604SOL    HW120711   2.745   5.928   3.942 -0.5710 -0.0608 -3.4347
 6604SOL    HW220712   2.618   6.031   3.944 -0.0902  0.5748 -0.4933
 6605SOL     OW20713   1.137   4.633   0.388  0.0539  0.3586 -0.1093
 6605SOL    HW120714   1.074   4.561   0.359  0.4561  0.6689 -1.8713
 6605SOL    HW220715   1.222   4.592   0.421  0.1666  0.0235 -0.8179
 6606SOL     OW20716   0.666   6.445   2.397  0.2008  0.0975  0.1439
 6606SOL    HW120717   0.704   6.486   2.315  1.2725  1.3077  1.2067
 6606SOL    HW220718   0.706   6.354   2.411  0.7333  0.2878 -0.1424
 6607SOL     OW20719   0.740   1.899   4.560  0.0900  0.1986 -0.2441
 6607SOL    HW120720   0.684   1.932   4.484  0.2067  3.3286  0.8750
 6607SOL    HW220721   0.833   1.882   4.528 -0.1794  0.1948 -1.0410
 6608SOL     OW20722   2.323   0.107   6.336 -0.3515 -0.3868  0.1817
 6608SOL    HW120723   2.262   0.105   6.257  0.0230  1.1468 -0.1738
 6608SOL    HW220724   2.317   0.196   6.381  1.3050 -0.3407  0.3903
 6609SOL     OW20725   2.668   3.351   0.177 -0.3772  0.0033  0.2922
 6609SOL    HW120726   2.717   3.278   0.129  0.7344  0.0707  1.2770
 6609SOL    HW220727   2.603   3.311   0.242 -0.2038 -0.1071  0.3978
 6610SOL     OW20728   2.778   6.462   0.565 -0.1848 -0.1583  0.6152
 6610SOL    HW120729   2.807   6.367   0.579  0.7624 -0.1367 -0.9285
 6610SOL    HW220730   2.682   6.464   0.538  0.2061 -0.8523 -0.9413
 6611SOL     OW20731   1.372   0.229   5.773 -0.4318  0.2616  0.1448
 6611SOL    HW120732   1.400   0.295   5.704 -2.1770  1.2419  0.3096
 6611SOL    HW220733   1.395   0.263   5.864  0.4876 -0.3172  0.1371
 6612SOL     OW20734   5.846   6.851   0.632 -0.2969 -0.5227  0.3347
 6612SOL    HW120735   5.822   6.899   0.547 -2.1167 -0.7389  0.6839
 6612SOL    HW220736   5.878   6.918   0.699  1.1970 -0.3532 -0.4928
 6613SOL     OW20737   6.027   0.154   2.999 -0.5110  0.4887 -0.1457
 6613SOL    HW120738   6.004   0.193   3.088 -0.5589 -0.4857  0.2831
 6613SOL    HW220739   5.991   0.061   2.993 -0.5878  0.5723 -1.2222
 6614SOL     OW20740   4.173   5.512   1.205 -0.3655  0.1248 -0.3779
 6614SOL    HW120741   4.208   5.502   1.298  0.1711  2.4517 -0.2633
 6614SOL    HW220742   4.215   5.444   1.145  1.1140  0.1367  0.6060
 6615SOL     OW20743   3.908   4.140   5.476 -0.4423 -0.6258 -0.0758
 6615SOL    HW120744   3.887   4.236   5.495 -0.7825 -0.8956  0.9808
 6615SOL    HW220745   3.922   4.091   5.562  1.6194 -1.1320 -0.6306
 6616SOL     OW20746   3.647   3.058   6.407  0.3933 -0.2995  0.4509
 6616SOL    HW120747   3.706   3.053   6.488 -0.7095 -0.5874  1.2531
 6616SOL    HW220748   3.652   3.150   6.369  2.3434 -0.6467 -0.2803
 6617SOL     OW20749   3.722   1.993   4.152  0.0902  0.1023 -0.7010
 6617SOL    HW120750   3.681   1.969   4.064 -0.0795 -1.0849 -0.3157
 6617SOL    HW220751   3.652   2.031   4.213  0.2083  0.9273 -1.0648
 6618SOL     OW20752   4.950   1.894   3.280  0.2215  0.4973 -0.1413
 6618SOL    HW120753   4.970   1.992   3.290 -0.5613  0.9293 -2.2978
 6618SOL    HW220754   4.974   1.846   3.365  2.1229  2.2889  0.4015
 6619SOL     OW20755   6.167   5.450   3.322  0.2942  0.1033  0.2454
 6619SOL    HW120756   6.258   5.439   3.282 -0.0170  2.3847 -1.2536
 6619SOL    HW220757   6.173   5.443   3.422  2.3250  1.4545  0.2621
 6620SOL     OW20758   6.542   1.054   3.209  0.0528  0.2005  0.3448
 6620SOL    HW120759   6.515   1.069   3.304 -0.4638 -1.3280  0.4712
 6620SOL    HW220760   6.626   1.000   3.205 -2.1096 -3.4664  0.0600
 6621SOL     OW20761   3.120   4.616   1.471  0.2103 -0.1417 -0.1461
 6621SOL    HW120762   3.097   4.548   1.540 -1.5164  0.1105 -0.4290
 6621SOL    HW220763   3.087   4.706   1.501 -0.2762  0.0259 -1.1493
 6622SOL     OW20764   6.862   4.576   0.361 -0.1862  0.1970 -0.4057
 6622SOL    HW120765   6.919   4.638   0.415 -0.9068  0.4522  0.0809
 6622SOL    HW220766   6.805   4.522   0.423  1.4259 -2.0060 -0.7134
 6623SOL     OW20767   2.484   2.187   5.662  0.3611 -0.4248 -0.3116
 6623SOL    HW120768   2.561   2.161   5.604  1.5669 -0.0231  1.0537
 6623SOL    HW220769   2.466   2.285   5.652 -0.4797 -0.6476 -1.1725
 6624SOL     OW20770   1.348   2.486   3.151  0.7060 -0.5219 -0.1228
 6624SOL    HW120771   1.439   2.487   3.108 -0.1092 -1.4497 -1.9893
 6624SOL    HW220772   1.280   2.458   3.083 -1.0448  0.5262  1.1304
 6625SOL     OW20773   0.384   0.181   4.866 -0.3893 -0.6291 -0.1454
 6625SOL    HW120774   0.396   0.168   4.965  0.0765 -0.1918 -0.1381
 6625SOL    HW220775   0.295   0.147   4.838  0.2758 -2.7260  0.0764
 6626SOL     OW20776   3.534   5.721   5.265 -0.3912  0.4768 -0.3008
 6626SOL    HW120777   3.565   5.750   5.355 -0.0985  0.5368 -0.4174
 6626SOL    HW220778   3.475   5.791   5.226 -0.6049  0.4021 -0.1107
 6627SOL     OW20779   2.760   6.158   3.695 -0.6726  0.1075 -0.8056
 6627SOL    HW120780   2.849   6.175   3.738 -0.6477  0.8552 -1.1489
 6627SOL    HW220781   2.762   6.069   3.650 -0.0426  0.1866 -0.9482
 6628SOL     OW20782   4.293   0.418   4.159 -0.2235  0.1843 -0.1824
 6628SOL    HW120783   4.201   0.429   4.198 -0.8674  1.1830 -1.8384
 6628SOL    HW220784   4.316   0.321   4.153 -1.2311 -0.0839  0.1342
 6629SOL     OW20785   4.189   4.816   3.022 -0.5468 -0.3988  0.3051
 6629SOL    HW120786   4.147   4.856   2.941 -2.6879 -0.7765  1.1626
 6629SOL    HW220787   4.269   4.763   2.995 -0.0193  1.1026 -1.2987
 6630SOL     OW20788   0.825   0.219   0.466  0.0697 -0.4258 -0.4412
 6630SOL    HW120789   0.859   0.286   0.399  1.0220 -2.5862 -2.2395
 6630SOL    HW220790   0.759   0.264   0.527  0.6559  2.1210 -1.5380
 6631SOL     OW20791   1.273   1.415   6.938  0.2362  0.0110 -0.0636
 6631SOL    HW120792   1.282   1.502   6.890  1.3330 -0.2900 -0.4395
 6631SOL    HW220793   1.275   1.340   6.872  1.4012 -0.3922  0.4059
 6632SOL     OW20794   1.212   1.611   5.337 -0.4353  0.0510  0.1866
 6632SOL    HW120795   1.215   1.649   5.244  0.2487  0.9993  0.5857
 6632SOL    HW220796   1.128   1.558   5.348 -0.6171  0.0785 -0.9112
 6633SOL     OW20797   2.870   6.900   5.159  0.3847 -0.4438 -0.1616
 6633SOL    HW120798   2.881   6.951   5.245  0.6305 -0.0118 -0.4438
 6633SOL    HW220799   2.812   6.820   5.175  1.6123 -1.1863  0.7308
 6634SOL     OW20800   2.490   2.161   4.289 -0.6619  0.3892  0.2801
 6634SOL    HW120801   2.494   2.107   4.373 -1.1791  3.0005  2.1427
 6634SOL    HW220802   2.530   2.109   4.213  1.2323 -1.5415  2.4340
 6635SOL     OW20803   4.537   5.063   4.716 -0.4387 -0.6010 -0.3782
 6635SOL    HW120804   4.471   5.123   4.670  0.1941  0.2131 -0.2437
 6635SOL    HW220805   4.599   5.119   4.772 -0.8765 -1.5147  1.0796
 6636SOL     OW20806   4.082   0.807   0.397  0.6135  0.0970 -0.0562
 6636SOL    HW120807   4.004   0.843   0.346 -1.4492 -2.3359  1.1605
 6636SOL    HW220808   4.149   0.769   0.334  0.1110  0.8327 -1.0637
 6637SOL     OW20809   2.074   3.623   6.592  0.2136 -0.3848  0.3593
 6637SOL    HW120810   2.165   3.644   6.628  0.0067  1.3057 -0.0282
 6637SOL    HW220811   2.004   3.663   6.652 -0.1773  1.0393 -0.9759
 6638SOL     OW20812   3.550   3.411   0.308 -0.3351 -0.2363  0.4356
 6638SOL    HW120813   3.606   3.494   0.305 -1.3635  0.4750 -0.0018
 6638SOL    HW220814   3.530   3.388   0.403  1.3109 -0.9524  0.6315
 6639SOL     OW20815   5.305   1.141   0.915 -0.3943  0.1947 -0.3522
 6639SOL    HW120816   5.248   1.065   0.885  0.6645 -1.1359  0.8462
 6639SOL    HW220817   5.343   1.188   0.835 -2.3898  0.5645 -1.1426
 6640SOL     OW20818   6.339   3.385   2.828  0.5571  0.2301  0.2141
 6640SOL    HW120819   6.301   3.465   2.875 -0.8636 -0.8539  0.9732
 6640SOL    HW220820   6.432   3.369   2.860  0.6185  1.1763  0.5498
 6641SOL     OW20821   4.097   0.952   0.860  0.1406 -0.0568  0.1665
 6641SOL    HW120822   4.178   0.970   0.916  1.4158  1.5455 -2.0512
 6641SOL    HW220823   4.065   0.859   0.878  0.9437  0.1073  2.8958
 6642SOL     OW20824   0.611   6.475   5.932  0.1746  0.6987  0.3804
 6642SOL    HW120825   0.684   6.442   5.872  0.4404  0.5640  0.7772
 6642SOL    HW220826   0.533   6.412   5.926  0.0163  0.9342 -0.1722
 6643SOL     OW20827   0.502   5.004   5.468 -0.2310 -0.0599  0.5123
 6643SOL    HW120828   0.591   5.002   5.513  0.3267  3.8364 -0.1091
 6643SOL    HW220829   0.514   4.986   5.370  0.0560  1.2563  0.2867
 6644SOL     OW20830   3.186   5.735   2.891  0.2775 -0.3984 -0.4312
 6644SOL    HW120831   3.167   5.699   2.982  2.5895  1.0456  0.7097
 6644SOL    HW220832   3.284   5.749   2.879 -0.2016  2.9658 -1.6934
 6645SOL     OW20833   4.871   1.224   6.659 -0.1271  0.4774  1.5082
 6645SOL    HW120834   4.772   1.231   6.649 -0.1259  0.7969  1.6983
 6645SOL    HW220835   4.893   1.148   6.721 -0.2395  0.2100  1.2198
 6646SOL     OW20836   3.027   0.124   5.760 -0.6454 -0.1622  0.2607
 6646SOL    HW120837   2.997   0.053   5.824 -0.8595  0.1857  0.5544
 6646SOL    HW220838   3.107   0.093   5.710 -0.1442 -0.2357  1.0905
 6647SOL     OW20839   2.299   6.648   0.464 -0.2816 -0.0825  0.3199
 6647SOL    HW120840   2.317   6.660   0.367 -1.2241 -1.2884 -0.0266
 6647SOL    HW220841   2.201   6.633   0.478 -0.3756  1.4654  1.6100
 6648SOL     OW20842   3.989   6.589   4.151  0.5149 -0.3046  0.1918
 6648SOL    HW120843   4.053   6.528   4.197  0.4524  1.6024  3.0122
 6648SOL    HW220844   3.897   6.576   4.189  0.0490 -0.0145 -0.7999
 6649SOL     OW20845   0.189   2.042   5.199  0.0623  0.1843 -0.4019
 6649SOL    HW120846   0.220   2.122   5.147 -0.3570  0.4091 -0.3101
 6649SOL    HW220847   0.193   2.062   5.297  1.1120 -0.3345 -0.3291
 6650SOL     OW20848   4.345   0.777   5.206  0.4808 -0.7463 -0.4504
 6650SOL    HW120849   4.380   0.842   5.274  1.9256 -0.6479 -1.2377
 6650SOL    HW220850   4.303   0.827   5.131 -0.5742 -0.8333  0.0675
 6651SOL     OW20851   4.997   1.417   3.681 -0.3506  0.0048  0.1940
 6651SOL    HW120852   4.906   1.428   3.721 -0.3254 -0.0365  0.2635
 6651SOL    HW220853   5.041   1.336   3.720  0.1713  0.6692  1.0246
 6652SOL     OW20854   1.827   4.555   6.668  0.0509  0.1245 -0.8228
 6652SOL    HW120855   1.751   4.504   6.625  0.6594 -1.9665  0.4586
 6652SOL    HW220856   1.796   4.593   6.755  0.4341 -0.7336 -0.2973
 6653SOL     OW20857   6.183   4.030   0.027 -0.2615 -0.5708  1.0044
 6653SOL    HW120858   6.207   4.050  -0.068 -0.6229  0.6406  1.1467
 6653SOL    HW220859   6.254   3.972   0.068 -0.0677 -1.0472  0.0268
 6654SOL     OW20860   6.937   2.363   2.440 -1.2275  0.3594  0.1598
 6654SOL    HW120861   6.966   2.415   2.360 -1.7007 -1.5168 -1.3081
 6654SOL    HW220862   6.841   2.382   2.460 -1.4386 -0.0282 -0.4596
 6655SOL     OW20863   6.263   0.156   1.855  0.0124 -0.8371  0.5542
 6655SOL    HW120864   6.232   0.158   1.950  0.9865 -2.0280  0.9345
 6655SOL    HW220865   6.344   0.214   1.845 -0.9947  0.5221  0.0726
 6656SOL     OW20866   5.966   1.439   1.608 -0.2601  0.3313  1.1363
 6656SOL    HW120867   5.950   1.341   1.613 -0.0261  0.2133 -0.0358
 6656SOL    HW220868   5.894   1.482   1.553  2.0784  0.0859 -2.4620
 6657SOL     OW20869   3.912   1.683   3.446  0.1566 -0.9354  0.2890
 6657SOL    HW120870   3.893   1.668   3.349 -0.7305 -0.1519  0.3314
 6657SOL    HW220871   3.970   1.764   3.456 -0.5508 -0.4468  0.4676
 6658SOL     OW20872   4.172   4.924   3.380  0.4101 -0.5741 -0.3122
 6658SOL    HW120873   4.228   4.851   3.340  1.6290 -0.1227  0.5072
 6658SOL    HW220874   4.095   4.944   3.320 -0.0627 -2.6432 -0.4848
 6659SOL     OW20875   1.293   6.685   1.585  0.2802  0.1923  0.1330
 6659SOL    HW120876   1.325   6.733   1.667  1.1730 -1.0922  0.5658
 6659SOL    HW220877   1.196   6.662   1.596  0.4416 -0.1424  0.9253
 6660SOL     OW20878   0.010   2.202   2.986  0.0924  0.4173 -0.0547
 6660SOL    HW120879   0.103   2.167   2.998  0.6132  1.9073  0.4134
 6660SOL    HW220880  -0.042   2.188   3.070  0.5341  1.4398  0.3961
 6661SOL     OW20881   3.598   5.624   2.685  0.2740  0.2196 -0.6411
 6661SOL    HW120882   3.518   5.585   2.640  0.4476 -0.4197 -0.4058
 6661SOL    HW220883   3.648   5.681   2.620 -1.0684  1.7205 -0.4496
 6662SOL     OW20884   5.541   6.724   0.691 -0.0664  0.3715 -0.3673
 6662SOL    HW120885   5.587   6.718   0.780 -0.4338 -1.0165 -0.2428
 6662SOL    HW220886   5.559   6.640   0.639  2.6860  2.3047 -2.9000
 6663SOL     OW20887   1.728   3.441   5.803  0.5571 -0.9419 -0.3099
 6663SOL    HW120888   1.794   3.401   5.740  0.8494 -1.4530  0.3114
 6663SOL    HW220889   1.705   3.533   5.773  1.0407 -1.0083 -0.9019
 6664SOL     OW20890   2.382   6.697   0.878  0.3421  0.3661 -0.2097
 6664SOL    HW120891   2.457   6.634   0.899 -0.8165 -1.0076 -0.0482
 6664SOL    HW220892   2.419   6.788   0.860  1.9729 -0.0948  0.6255
 6665SOL     OW20893   5.314   0.169   0.783 -0.0749 -0.0603  0.5112
 6665SOL    HW120894   5.256   0.091   0.762  0.2560  0.2307 -1.7268
 6665SOL    HW220895   5.379   0.144   0.855 -0.1718 -1.7472  0.0439
 6666SOL     OW20896   3.003   6.936   0.262 -0.1538  0.1947 -0.4045
 6666SOL    HW120897   2.997   6.837   0.272 -2.0835  0.0714 -2.0556
 6666SOL    HW220898   3.082   6.970   0.312  0.1719 -2.0793  0.7623
 6667SOL     OW20899   6.366   6.440   0.734 -0.0245  0.0095  0.1239
 6667SOL    HW120900   6.298   6.470   0.667  0.0788 -0.9888 -0.4438
 6667SOL    HW220901   6.324   6.439   0.825 -0.1631  1.3847  0.1004
 6668SOL     OW20902   5.790   3.003   6.302 -0.1113  0.2848  0.2841
 6668SOL    HW120903   5.833   3.023   6.390 -0.1175 -2.3435  0.9878
 6668SOL    HW220904   5.693   3.024   6.306 -0.2308 -0.3817  1.1511
 6669SOL     OW20905   1.235   3.322   4.249  0.5182 -0.6509 -0.4373
 6669SOL    HW120906   1.294   3.275   4.184  0.7016 -2.3893  0.9125
 6669SOL    HW220907   1.291   3.360   4.323  0.1692 -0.2181 -0.3957
 6670SOL     OW20908   1.676   3.823   0.455 -0.4814 -0.0884  0.4481
 6670SOL    HW120909   1.633   3.913   0.447  1.0719  0.6847  0.3207
 6670SOL    HW220910   1.775   3.833   0.447 -0.3803 -2.1465 -2.8616
 6671SOL     OW20911   5.592   7.004   6.930 -0.0163  0.4744 -0.4477
 6671SOL    HW120912   5.611   7.048   7.018  0.2566  0.3169 -0.4254
 6671SOL    HW220913   5.651   7.044   6.860  1.4501 -0.9907 -0.1018
 6672SOL     OW20914   2.300   3.802   1.613 -0.4126 -0.3828  0.7544
 6672SOL    HW120915   2.322   3.850   1.698 -0.9644 -1.6427  1.6521
 6672SOL    HW220916   2.298   3.704   1.630 -0.9966 -0.6400 -0.6184
 6673SOL     OW20917   5.453   4.413   2.710 -0.5125 -0.1982 -0.0216
 6673SOL    HW120918   5.483   4.508   2.701 -0.9306 -0.0154  0.4878
 6673SOL    HW220919   5.528   4.359   2.749 -0.3709 -0.0191 -0.0403
 6674SOL     OW20920   6.353   1.355   5.749  0.3262  0.2245  0.2038
 6674SOL    HW120921   6.449   1.332   5.763  0.5525  1.2933  0.4951
 6674SOL    HW220922   6.305   1.275   5.714  1.3953 -0.2248 -0.2957
 6675SOL     OW20923   6.578   2.082   0.537 -0.1147 -0.5174 -0.2064
 6675SOL    HW120924   6.555   2.020   0.462  0.3594 -0.4790 -0.3900
 6675SOL    HW220925   6.500   2.141   0.558 -0.1760 -0.3741 -0.8261
 6676SOL     OW20926   5.892   3.423   6.083  0.2602 -0.2984  0.1078
 6676SOL    HW120927   5.905   3.517   6.113  1.5107 -0.4479  0.0488
 6676SOL    HW220928   5.974   3.370   6.100 -0.5076 -1.4549  0.3599
 6677SOL     OW20929   6.436   2.773   5.435 -0.1007  0.0000  0.0331
 6677SOL    HW120930   6.381   2.785   5.353  1.6187 -0.9619 -1.3304
 6677SOL    HW220931   6.490   2.689   5.427  1.3788  0.7667  1.4088
 6678SOL     OW20932   3.955   5.190   6.880  0.0354 -0.5724 -0.2340
 6678SOL    HW120933   4.048   5.184   6.916 -0.1208 -2.3927 -0.0270
 6678SOL    HW220934   3.916   5.098   6.874 -1.5250  0.1026 -0.9303
 6679SOL     OW20935   0.191   5.075   3.650 -0.4185 -0.0901  0.1817
 6679SOL    HW120936   0.241   5.078   3.563 -2.3258  1.0627 -0.9413
 6679SOL    HW220937   0.194   4.983   3.688  2.0506 -0.1890 -0.0946
 6680SOL     OW20938   5.622   5.612   1.475 -0.0080  0.4153  0.4464
 6680SOL    HW120939   5.673   5.637   1.557 -0.2908  1.2573  0.3733
 6680SOL    HW220940   5.526   5.595   1.499  0.2226 -0.9125  0.5411
 6681SOL     OW20941   4.078   6.574   0.487 -0.4613 -0.2600  0.4621
 6681SOL    HW120942   4.030   6.566   0.574  1.8549 -0.1273  1.8369
 6681SOL    HW220943   4.100   6.483   0.452  0.7351 -0.3227  1.3157
 6682SOL     OW20944   2.157   3.185   6.757 -0.3580  0.2451 -0.8205
 6682SOL    HW120945   2.103   3.245   6.816 -0.1355  0.9659 -1.3378
 6682SOL    HW220946   2.123   3.092   6.764  0.4032  0.0792  1.3521
 6683SOL     OW20947   0.489   6.847   6.691  0.3610 -0.0326  0.2967
 6683SOL    HW120948   0.568   6.801   6.649  0.0446 -3.3968  2.9476
 6683SOL    HW220949   0.519   6.892   6.775 -0.5218 -2.1474  1.8448
 6684SOL     OW20950   2.387   7.003   5.716 -0.9107 -0.1522  0.4940
 6684SOL    HW120951   2.295   6.988   5.752 -1.4920  0.2902 -0.7564
 6684SOL    HW220952   2.453   7.001   5.791 -1.7347 -2.0729  1.2325
 6685SOL     OW20953   3.918   4.152   0.296 -0.6105 -0.0128 -0.5397
 6685SOL    HW120954   3.945   4.056   0.285 -3.6803 -0.9158 -1.1490
 6685SOL    HW220955   3.856   4.160   0.374 -0.4989  1.4915 -0.5874
 6686SOL     OW20956   4.112   6.284   5.512  0.4515  0.3233  0.2788
 6686SOL    HW120957   4.064   6.370   5.490  2.0252  1.4043  0.9090
 6686SOL    HW220958   4.183   6.267   5.444  1.8003  0.8711  1.5027
 6687SOL     OW20959   0.890   2.088   6.993  0.0430  0.5690  0.1030
 6687SOL    HW120960   0.817   2.142   6.950 -0.9312 -0.5074  0.3271
 6687SOL    HW220961   0.979   2.119   6.959 -0.6546 -0.0978 -2.6323
 6688SOL     OW20962   0.943   6.247   0.669 -0.5838 -0.3856 -0.1277
 6688SOL    HW120963   0.910   6.189   0.743  0.0522  0.3851  0.7951
 6688SOL    HW220964   0.921   6.343   0.690  1.2410  0.0484  0.0139
 6689SOL     OW20965   4.866   3.871   5.025 -0.1173  0.4738 -0.2662
 6689SOL    HW120966   4.830   3.778   5.033 -3.2536  1.6706  1.0884
 6689SOL    HW220967   4.935   3.886   5.095  0.7007 -0.8885 -0.7310
 6690SOL     OW20968   1.083   6.566   1.053 -0.3982  0.0300  0.2838
 6690SOL    HW120969   1.135   6.483   1.036  0.1528  0.4140  0.0883
 6690SOL    HW220970   1.044   6.563   1.145 -0.3067 -0.4042  0.3077
 6691SOL     OW20971   3.763   1.068   0.874 -0.5631  0.0549  0.0419
 6691SOL    HW120972   3.694   1.108   0.935 -0.4598  0.2182  0.0516
 6691SOL    HW220973   3.737   0.974   0.851 -1.0208  0.2664 -0.3180
 6692SOL     OW20974   4.174   1.025   3.163 -0.6579  0.5328  0.0840
 6692SOL    HW120975   4.107   1.026   3.088 -0.4162  2.4973 -0.1625
 6692SOL    HW220976   4.179   1.116   3.203  1.6936  0.3694  0.2730
 6693SOL     OW20977   4.325   2.887   0.935 -0.1450  0.0536 -0.2192
 6693SOL    HW120978   4.256   2.937   0.988  0.5578  1.4486 -0.5795
 6693SOL    HW220979   4.380   2.831   0.996  1.1347  2.1912  0.6867
 6694SOL     OW20980   4.547   3.086   1.483  0.3288 -0.0835  0.4443
 6694SOL    HW120981   4.609   3.108   1.558  0.9791 -2.3919  0.6577
 6694SOL    HW220982   4.518   3.171   1.438  1.7919  1.1977  1.7815
 6695SOL     OW20983   4.537   1.140   6.007 -0.6840 -0.0025 -0.2190
 6695SOL    HW120984   4.473   1.066   5.984 -1.6417  0.4430  0.9582
 6695SOL    HW220985   4.620   1.100   6.046 -0.5272 -0.5395 -1.0669
 6696SOL     OW20986   4.767   1.949   6.039  0.1328 -0.5797 -0.0517
 6696SOL    HW120987   4.703   2.008   6.087 -1.5621 -2.8384  0.6729
 6696SOL    HW220988   4.857   1.955   6.081 -0.7919 -0.9152  2.1080
 6697SOL     OW20989   3.113   0.436   3.223 -0.0590  0.1942 -0.1871
 6697SOL    HW120990   3.129   0.338   3.240 -0.8086 -0.3694 -2.3610
 6697SOL    HW220991   3.080   0.480   3.306  2.0303 -0.9679  1.3684
 6698SOL     OW20992   1.701   4.574   0.873  0.3646 -0.4859 -0.1238
 6698SOL    HW120993   1.620   4.555   0.929 -0.7425 -0.1721 -1.5630
 6698SOL    HW220994   1.781   4.530   0.915 -0.5168 -0.7572  1.3645
 6699SOL     OW20995   1.812   2.952   6.230  0.0149  0.6802  0.1998
 6699SOL    HW120996   1.781   3.004   6.309 -0.3965 -0.5142  0.8591
 6699SOL    HW220997   1.909   2.928   6.242 -0.5498 -1.2873  1.4277
 6700SOL     OW20998   4.169   6.032   1.426  0.4673 -0.1180  0.2393
 6700SOL    HW120999   4.261   5.997   1.409  0.0190 -0.2652 -2.2016
 6700SOL    HW221000   4.101   5.963   1.401 -0.3437  1.0268 -0.8917
 6701SOL     OW21001   0.671   1.181   1.629 -0.5846  0.0567 -0.2086
 6701SOL    HW121002   0.623   1.237   1.697 -3.5585  0.3732 -2.3479
 6701SOL    HW221003   0.726   1.112   1.675 -0.4555  1.8164  2.4727
 6702SOL     OW21004   5.745   1.531   0.476 -0.1302  0.2369 -0.3789
 6702SOL    HW121005   5.697   1.530   0.564 -0.8325  0.7247 -0.7508
 6702SOL    HW221006   5.679   1.524   0.402  0.4227  0.3843 -0.8914
 6703SOL     OW21007   1.052   5.354   1.793 -0.8336  0.1116 -0.2653
 6703SOL    HW121008   1.048   5.447   1.756 -0.5908  0.1360 -0.2331
 6703SOL    HW221009   0.959   5.321   1.812 -0.8608  0.8456  0.9558
 6704SOL     OW21010   3.334   6.389   4.554  0.3747 -0.7813  0.4496
 6704SOL    HW121011   3.262   6.334   4.513 -0.9509  0.8535  0.4953
 6704SOL    HW221012   3.308   6.415   4.647  0.6354  0.5207  0.1762
 6705SOL     OW21013   1.981   2.649   3.575 -0.0405  0.1340  0.0204
 6705SOL    HW121014   2.001   2.555   3.545  0.0637  0.4720 -1.0237
 6705SOL    HW221015   1.894   2.650   3.625 -0.4208 -0.4146 -0.6075
 6706SOL     OW21016   0.486   4.275   1.481 -0.4632  0.1920 -0.2325
 6706SOL    HW121017   0.446   4.184   1.467  0.0002 -0.0517  0.0233
 6706SOL    HW221018   0.583   4.267   1.500 -0.6325  0.6634  0.9190
 6707SOL     OW21019   6.058   5.752   3.378  0.2543 -0.1029 -0.6115
 6707SOL    HW121020   6.011   5.733   3.464 -0.6414 -0.9083 -1.2516
 6707SOL    HW221021   6.056   5.670   3.320  2.7105 -0.2402 -0.5778
 6708SOL     OW21022   0.585   2.142   1.666 -0.6508 -0.1689 -0.0108
 6708SOL    HW121023   0.664   2.143   1.605 -1.5135  1.7784 -1.2310
 6708SOL    HW221024   0.507   2.100   1.619 -0.6763 -0.9699  0.7256
 6709SOL     OW21025   2.811   5.191   4.323 -0.5654 -0.2793 -0.4601
 6709SOL    HW121026   2.852   5.100   4.328 -1.2737 -0.6011 -0.3293
 6709SOL    HW221027   2.865   5.255   4.377 -0.4147 -0.7601 -0.0305
 6710SOL     OW21028   4.978   2.049   3.876  0.0520  0.4536 -0.1237
 6710SOL    HW121029   4.964   2.147   3.862  0.6216  0.6019  0.3199
 6710SOL    HW221030   4.890   2.005   3.892 -0.3554  0.6826 -1.5507
 6711SOL     OW21031   3.404   5.130   1.940  0.3333  0.1015  0.3984
 6711SOL    HW121032   3.379   5.059   2.006  0.6998 -0.2900  0.1226
 6711SOL    HW221033   3.502   5.150   1.948  0.6876 -0.9429 -0.9564
 6712SOL     OW21034   6.671   2.257   6.112  0.3083  0.0143 -0.1614
 6712SOL    HW121035   6.688   2.271   6.014  0.9225 -2.3654 -0.4552
 6712SOL    HW221036   6.695   2.163   6.136 -0.5583  0.3403  2.1405
 6713SOL     OW21037   1.782   3.517   3.979  0.1264  0.2668 -0.0622
 6713SOL    HW121038   1.764   3.426   4.017 -0.9470  1.1031  1.5559
 6713SOL    HW221039   1.837   3.508   3.896  3.8706 -1.6273  2.3366
 6714SOL     OW21040   0.259   0.841   2.092 -0.1036  0.4784  0.3942
 6714SOL    HW121041   0.186   0.855   2.159 -1.3922 -0.4579 -0.7478
 6714SOL    HW221042   0.284   0.744   2.090 -0.7085  0.3161 -1.0413
 6715SOL     OW21043   6.920   6.754   4.858 -0.2648  0.7258 -0.5129
 6715SOL    HW121044   6.855   6.812   4.809  1.5202  4.6840  1.3759
 6715SOL    HW221045   7.008   6.755   4.810 -0.2726 -0.6872 -0.5824
 6716SOL     OW21046   3.174   5.900   6.180  0.5907  0.4425  0.4602
 6716SOL    HW121047   3.252   5.962   6.190 -0.7928  2.2889  0.2272
 6716SOL    HW221048   3.092   5.952   6.155 -0.3741 -1.6394 -1.0282
 6717SOL     OW21049   6.207   3.772   5.142 -0.7008  0.5875 -0.7346
 6717SOL    HW121050   6.259   3.820   5.212 -1.1722 -2.0661  1.5973
 6717SOL    HW221051   6.265   3.702   5.100 -1.6448 -0.8625  0.2772
 6718SOL     OW21052   5.128   2.981   6.052 -0.3605  0.3428  0.4679
 6718SOL    HW121053   5.084   3.070   6.038 -0.5350  0.2066  0.1636
 6718SOL    HW221054   5.065   2.920   6.100 -0.3059  0.3227  0.5147
 6719SOL     OW21055   1.938   0.018   1.472 -0.2096 -0.1551 -0.0166
 6719SOL    HW121056   2.037   0.004   1.475 -0.4844 -2.1812  1.8627
 6719SOL    HW221057   1.895  -0.054   1.418 -0.8416 -0.7641  1.2655
 6720SOL     OW21058   0.150   2.070   4.048 -0.6263  0.0406  0.3512
 6720SOL    HW121059   0.234   2.024   4.017 -0.9145  0.0144 -0.4099
 6720SOL    HW221060   0.079   2.002   4.066 -0.6477  0.1008  0.4977
 6721SOL     OW21061   5.911   6.415   6.714 -0.6577  0.3209 -1.0699
 6721SOL    HW121062   5.907   6.460   6.803 -0.3089 -2.8609  0.7002
 6721SOL    HW221063   5.828   6.361   6.700 -0.8734  1.0636 -2.8946
 6722SOL     OW21064   0.259   3.782   0.976 -0.1510  0.1486  0.3308
 6722SOL    HW121065   0.292   3.857   1.033 -1.3626  0.3376  0.8180
 6722SOL    HW221066   0.336   3.738   0.930  0.6548  1.1731  0.6705
 6723SOL     OW21067   1.873   3.663   4.191 -0.5311  0.2911  0.2128
 6723SOL    HW121068   1.821   3.649   4.275 -0.0492 -0.3993  0.4000
 6723SOL    HW221069   1.842   3.598   4.121 -0.4571  0.4027  0.0752
 6724SOL     OW21070   2.290   4.169   4.510 -0.1414 -0.9075  0.2331
 6724SOL    HW121071   2.385   4.196   4.495 -0.3839  0.1279  0.4962
 6724SOL    HW221072   2.275   4.153   4.608 -0.2917 -0.8549  0.2190
 6725SOL     OW21073   4.773   2.503   4.381 -0.4093 -0.4652 -0.0336
 6725SOL    HW121074   4.843   2.457   4.326  0.3592  0.8985 -0.2392
 6725SOL    HW221075   4.787   2.481   4.477  1.0509  0.6654  0.0614
 6726SOL     OW21076   0.551   3.161   6.749 -0.2228  0.0391  0.0213
 6726SOL    HW121077   0.606   3.244   6.762  0.9660 -0.8230  0.6502
 6726SOL    HW221078   0.593   3.085   6.799 -2.6434 -0.4108  1.5101
 6727SOL     OW21079   1.891   5.402   6.554 -0.4284 -0.2713 -0.0758
 6727SOL    HW121080   1.813   5.338   6.550 -1.0177  0.4769 -0.9233
 6727SOL    HW221081   1.953   5.382   6.478 -0.9472  0.5609 -0.7362
 6728SOL     OW21082   2.124   2.067   5.227 -0.6451 -0.0517  0.6375
 6728SOL    HW121083   2.050   2.106   5.172 -0.6912 -1.6421 -0.5158
 6728SOL    HW221084   2.185   2.139   5.258 -0.9818  0.9680 -0.9753
 6729SOL     OW21085   3.244   0.239   1.289  0.2720 -0.2060  0.2093
 6729SOL    HW121086   3.162   0.289   1.263  0.1340  0.0134  1.0446
 6729SOL    HW221087   3.324   0.279   1.245  0.0277  0.0599  0.0091
 6730SOL     OW21088   6.025   0.388   1.359 -0.5349  0.6099  0.2185
 6730SOL    HW121089   6.064   0.342   1.279 -0.2027 -1.3054  1.4208
 6730SOL    HW221090   5.937   0.346   1.381 -0.3963  0.7918  1.1400
 6731SOL     OW21091   4.465   5.466   4.567 -0.3347  0.3347 -0.4684
 6731SOL    HW121092   4.437   5.466   4.663  0.5938  3.1573 -0.1059
 6731SOL    HW221093   4.539   5.401   4.554 -0.5962 -0.2196  0.6633
 6732SOL     OW21094   0.874   4.383   6.280 -0.2645  0.6536  0.2867
 6732SOL    HW121095   0.872   4.463   6.220 -0.0881 -0.0219 -0.6446
 6732SOL    HW221096   0.784   4.371   6.321 -0.7429  0.4619 -0.7638
 6733SOL     OW21097   5.788   5.088   5.199  0.5737  0.1746 -0.0596
 6733SOL    HW121098   5.850   5.017   5.231  0.6404 -0.1972 -0.9836
 6733SOL    HW221099   5.835   5.144   5.129  0.3942  0.8823  0.3751
 6734SOL     OW21100   5.402   2.511   5.144 -0.2492  0.4165  0.0989
 6734SOL    HW121101   5.416   2.479   5.050 -0.7139  1.4018 -0.3238
 6734SOL    HW221102   5.459   2.592   5.160  0.1806 -0.0217  0.8290
 6735SOL     OW21103   5.793   3.565   5.728 -0.3736 -0.1193 -0.3178
 6735SOL    HW121104   5.788   3.584   5.826  1.2837 -1.9872  0.1869
 6735SOL    HW221105   5.741   3.634   5.678 -0.5263  1.3905  1.8035
 6736SOL     OW21106   4.877   5.181   6.925  0.0793  0.0267 -0.0058
 6736SOL    HW121107   4.908   5.172   6.830 -1.0056 -0.3010 -0.3464
 6736SOL    HW221108   4.898   5.273   6.958 -1.0333  0.7429 -1.1541
 6737SOL     OW21109   4.556   1.497   6.718  0.0031  0.1541 -0.1367
 6737SOL    HW121110   4.571   1.521   6.813  0.4515  0.3805 -0.2618
 6737SOL    HW221111   4.468   1.450   6.708 -0.5330  1.0719  0.2166
 6738SOL     OW21112   0.230   0.561   2.382 -0.3269  0.7920 -0.2150
 6738SOL    HW121113   0.229   0.634   2.451  0.6386  0.7520 -0.1465
 6738SOL    HW221114   0.143   0.561   2.333 -0.9220  1.0218  0.7937
 6739SOL     OW21115   0.662   0.647   0.824  0.5312  0.3219  0.6355
 6739SOL    HW121116   0.638   0.713   0.754  2.4483  0.8533  0.4202
 6739SOL    HW221117   0.762   0.637   0.828  0.4279 -0.4487  2.5907
 6740SOL     OW21118   3.104   0.620   1.833 -0.6504 -0.0828 -0.7558
 6740SOL    HW121119   3.122   0.592   1.927  0.1559 -1.1363 -1.1964
 6740SOL    HW221120   3.006   0.627   1.817 -0.7892  1.2799  0.4718
 6741SOL     OW21121   3.693   2.172   0.024 -0.3226 -0.3629  0.4903
 6741SOL    HW121122   3.771   2.234   0.021 -0.5180 -0.0394  1.5799
 6741SOL    HW221123   3.636   2.194   0.103 -2.3605  0.3758 -1.1077
 6742SOL     OW21124   6.737   3.950   0.853  0.3961  0.1249 -0.2814
 6742SOL    HW121125   6.637   3.953   0.856  0.3892  3.5110  0.3794
 6742SOL    HW221126   6.773   3.937   0.946  0.5406  0.8192 -0.2355
 6743SOL     OW21127   4.443   3.168   0.518 -0.2913  0.3450  0.0446
 6743SOL    HW121128   4.473   3.239   0.582 -0.6059  0.7516 -0.2610
 6743SOL    HW221129   4.512   3.096   0.515  0.0412  0.6463  0.3383
 6744SOL     OW21130   1.566   6.890   5.152  0.4765 -0.3721 -0.6313
 6744SOL    HW121131   1.629   6.918   5.224  0.0782  0.9009 -0.7593
 6744SOL    HW221132   1.581   6.947   5.071 -0.2052 -0.6756 -0.9760
 6745SOL     OW21133   5.251   4.668   6.847 -0.0555  0.2667 -0.2299
 6745SOL    HW121134   5.161   4.656   6.805 -0.2923  0.3571  0.2391
 6745SOL    HW221135   5.309   4.590   6.824 -0.3581  0.0520 -0.2807
 6746SOL     OW21136   1.309   3.043   3.194  0.2321  0.2681  0.4966
 6746SOL    HW121137   1.273   3.023   3.103  1.0570 -1.0001  0.4205
 6746SOL    HW221138   1.237   3.081   3.251 -0.9795 -1.2850  0.0646
 6747SOL     OW21139   2.312   6.772   4.527  0.1703  0.4512 -0.3949
 6747SOL    HW121140   2.294   6.673   4.526  0.1898  0.3681  1.9552
 6747SOL    HW221141   2.387   6.791   4.591 -1.0799  2.1616  0.6272
 6748SOL     OW21142   2.226   2.844   4.289 -0.2336 -0.4359  0.3208
 6748SOL    HW121143   2.227   2.747   4.313 -0.8237 -0.2065  1.3035
 6748SOL    HW221144   2.278   2.857   4.204 -1.3140 -1.8031 -0.6015
 6749SOL     OW21145   2.371   6.436   2.510 -0.2036 -0.0152 -0.1018
 6749SOL    HW121146   2.420   6.506   2.458  0.3910  0.4139  1.0083
 6749SOL    HW221147   2.425   6.352   2.513 -0.4768 -0.2117 -0.6136
 6750SOL     OW21148   3.406   2.103   4.925 -0.7995  0.7380  0.1562
 6750SOL    HW121149   3.495   2.123   4.885 -0.6434 -0.0331  0.0901
 6750SOL    HW221150   3.384   2.171   4.995  0.5482  0.1044  1.2715
 6751SOL     OW21151   4.291   0.189   5.666 -0.0389  0.1803 -0.2331
 6751SOL    HW121152   4.338   0.273   5.691  0.3595  0.0671 -0.5935
 6751SOL    HW221153   4.298   0.174   5.568  0.7076 -0.7466 -0.0618
 6752SOL     OW21154   2.317   4.766   3.659 -1.0718  0.5480 -0.8963
 6752SOL    HW121155   2.345   4.785   3.753 -0.5321 -0.9219 -0.7399
 6752SOL    HW221156   2.386   4.801   3.595 -0.8615  0.4845 -0.7013
 6753SOL     OW21157   1.057   2.633   2.707 -1.0542 -0.7098 -0.1623
 6753SOL    HW121158   1.015   2.666   2.792  2.4225  1.8489  0.7733
 6753SOL    HW221159   1.033   2.695   2.632 -0.4715 -0.3461 -0.0471
 6754SOL     OW21160   4.960   5.036   0.315 -0.4574 -0.2494 -0.5397
 6754SOL    HW121161   4.875   5.007   0.271 -0.5763 -1.0020  0.1540
 6754SOL    HW221162   4.997   4.960   0.369  0.8766 -0.0822 -1.1530
 6755SOL     OW21163   2.800   6.509   4.357  0.2295  0.5737 -0.2217
 6755SOL    HW121164   2.884   6.546   4.318  0.3995  1.1795  0.6917
 6755SOL    HW221165   2.802   6.519   4.457  0.3046 -1.9363  0.1007
 6756SOL     OW21166   5.755   1.672   4.862  0.1751  0.5129 -0.0259
 6756SOL    HW121167   5.845   1.714   4.877  1.3676 -0.8882 -2.6512
 6756SOL    HW221168   5.763   1.573   4.870 -0.6384  0.2145 -2.2442
 6757SOL     OW21169   2.755   0.402   3.553 -0.2735  0.1458  0.0960
 6757SOL    HW121170   2.848   0.372   3.533 -0.9741 -0.9454 -1.8075
 6757SOL    HW221171   2.703   0.326   3.591 -0.8389  0.2208 -0.5011
 6758SOL     OW21172   4.470   2.611   5.041  0.2199  0.8870 -0.2782
 6758SOL    HW121173   4.388   2.562   5.011 -0.1236  0.0910  1.8416
 6758SOL    HW221174   4.458   2.709   5.022 -0.8765  0.6939 -0.7116
 6759SOL     OW21175   1.228   3.121   2.253  0.2143 -0.0025  0.0857
 6759SOL    HW121176   1.213   3.173   2.168  0.8260 -0.9570 -0.6271
 6759SOL    HW221177   1.240   3.025   2.231  0.1096 -0.3055  1.3027
 6760SOL     OW21178   5.164   2.840   5.210  0.5460 -0.1585 -0.0777
 6760SOL    HW121179   5.114   2.922   5.234 -0.6149 -1.1265  0.9540
 6760SOL    HW221180   5.197   2.794   5.293  0.5980 -1.0666 -0.5789
 6761SOL     OW21181   2.780   1.392   4.181 -0.2521 -0.2417  0.3984
 6761SOL    HW121182   2.868   1.437   4.199 -1.3498  0.9449  3.4884
 6761SOL    HW221183   2.706   1.446   4.220 -2.2421 -2.0116 -0.6888
 6762SOL     OW21184   5.559   3.989   2.056  0.1638 -0.1728 -0.1680
 6762SOL    HW121185   5.541   4.081   2.022 -0.1122  0.0987  0.7034
 6762SOL    HW221186   5.655   3.981   2.082  0.6126 -0.6607 -1.8242
 6763SOL     OW21187   5.355   5.613   5.814 -0.2348 -0.0699 -0.0963
 6763SOL    HW121188   5.259   5.586   5.803 -0.7294  1.8322 -0.8078
 6763SOL    HW221189   5.381   5.607   5.910 -1.0069 -0.7435  0.0802
 6764SOL     OW21190   2.767   5.263   2.208  0.2126 -0.3679 -0.1371
 6764SOL    HW121191   2.823   5.292   2.130 -0.1684 -0.3184 -0.3922
 6764SOL    HW221192   2.701   5.194   2.179 -1.1050  0.8964 -0.2545
 6765SOL     OW21193   1.528   4.538   1.938 -0.3914 -0.4644  0.0097
 6765SOL    HW121194   1.626   4.521   1.924 -0.1852  1.3515 -0.9936
 6765SOL    HW221195   1.476   4.480   1.875  0.0048 -1.7238  0.8164
 6766SOL     OW21196   5.909   6.165   7.020 -0.2272  0.0391 -0.0634
 6766SOL    HW121197   5.837   6.191   6.955  0.9683  0.9747 -1.0666
 6766SOL    HW221198   5.968   6.096   6.977  0.3825  0.4256  0.1457
 6767SOL     OW21199   2.045   6.369   5.395 -0.0545 -0.1674  0.2571
 6767SOL    HW121200   2.056   6.325   5.484 -0.3977 -1.1438 -0.1650
 6767SOL    HW221201   1.953   6.352   5.360  0.5645 -1.1997 -0.9904
 6768SOL     OW21202   2.294   2.008   5.661  0.4764  0.9331 -0.6200
 6768SOL    HW121203   2.368   2.074   5.667  0.8914  0.4671 -0.4869
 6768SOL    HW221204   2.319   1.936   5.596  1.0443 -0.3179  0.8830
 6769SOL     OW21205   5.776   0.471   3.250  0.4479  0.1744 -0.5905
 6769SOL    HW121206   5.782   0.559   3.202 -2.8223  0.8357 -0.0722
 6769SOL    HW221207   5.701   0.418   3.211  2.1070 -2.2741 -0.6130
 6770SOL     OW21208   1.273   1.903   1.157  0.0661 -0.3387 -0.2797
 6770SOL    HW121209   1.303   1.854   1.240  1.0883  0.7461  0.0222
 6770SOL    HW221210   1.319   1.991   1.153 -0.6158 -0.0273 -1.5925
 6771SOL     OW21211   5.076   0.732   3.412 -0.0467  0.1929 -0.1417
 6771SOL    HW121212   5.117   0.778   3.333  0.7629 -1.0122 -0.4544
 6771SOL    HW221213   4.976   0.740   3.407  0.0687  3.1275  0.5968
 6772SOL     OW21214   4.400   0.985   5.363 -0.4213 -0.5119  0.3076
 6772SOL    HW121215   4.447   1.073   5.361 -0.3936 -0.5335 -0.0341
 6772SOL    HW221216   4.348   0.976   5.448  0.7495 -0.7763  1.0120
 6773SOL     OW21217   6.203   2.811   3.745  0.3160  0.0884  0.1084
 6773SOL    HW121218   6.299   2.810   3.775  0.1033  0.3374  0.8280
 6773SOL    HW221219   6.194   2.870   3.665  1.1466 -1.7097 -1.3992
 6774SOL     OW21220   3.085   2.865   6.092 -0.3477  0.8334  0.0344
 6774SOL    HW121221   2.992   2.837   6.069 -0.4164  0.9523  0.1630
 6774SOL    HW221222   3.138   2.877   6.008 -0.4989  0.9319 -0.0485
 6775SOL     OW21223   0.120   2.106   6.432  0.1807 -0.4947  0.5221
 6775SOL    HW121224   0.023   2.090   6.412  0.1936  0.7620 -0.7469
 6775SOL    HW221225   0.167   2.019   6.444 -0.7888 -1.1839 -0.5076
 6776SOL     OW21226   1.866   2.055   0.176 -0.1392 -0.2570 -0.0100
 6776SOL    HW121227   1.856   1.965   0.219  1.0252  0.2388  1.4090
 6776SOL    HW221228   1.953   2.057   0.125 -0.3227 -0.0348 -0.3146
 6777SOL     OW21229   5.547   5.184   6.908  0.3337 -0.4552  0.1808
 6777SOL    HW121230   5.525   5.106   6.966  0.4883 -1.0224 -0.5082
 6777SOL    HW221231   5.484   5.259   6.928  1.0086 -0.2857  1.7629
 6778SOL     OW21232   0.548   4.581   4.256  0.3594 -0.7772  0.2629
 6778SOL    HW121233   0.550   4.666   4.310  0.0224 -0.0930 -0.7802
 6778SOL    HW221234   0.586   4.507   4.311  2.6730  0.4634  0.4730
 6779SOL     OW21235   4.670   2.420   5.579  0.2550 -0.1522  0.0984
 6779SOL    HW121236   4.614   2.383   5.652 -0.1857 -0.5599 -0.4375
 6779SOL    HW221237   4.715   2.504   5.610  1.0731 -0.9790  1.2509
 6780SOL     OW21238   2.440   1.233   2.749 -0.0134  0.3093  0.8444
 6780SOL    HW121239   2.440   1.314   2.808  1.0815  0.8678  0.1081
 6780SOL    HW221240   2.496   1.251   2.668 -0.4427 -0.8978  0.2580
 6781SOL     OW21241   5.744   4.623   4.274  0.0199 -0.1785  0.1164
 6781SOL    HW121242   5.840   4.651   4.277 -0.1594  0.5009 -0.1886
 6781SOL    HW221243   5.687   4.699   4.307 -0.6893  0.8904 -3.2214
 6782SOL     OW21244   6.289   2.222   2.076 -0.1071 -0.1479  0.2170
 6782SOL    HW121245   6.191   2.236   2.068  0.0249 -0.1313 -2.1775
 6782SOL    HW221246   6.311   2.181   2.165 -2.2358 -0.0306  0.8318
 6783SOL     OW21247   2.303   6.070   6.725  0.0912  0.7409  0.1757
 6783SOL    HW121248   2.334   6.155   6.767 -0.5202  2.2482 -2.2179
 6783SOL    HW221249   2.382   6.010   6.709  0.6756  1.2874  0.9632
 6784SOL     OW21250   3.143   2.014   5.096  0.2004  0.4016  0.2995
 6784SOL    HW121251   3.112   2.108   5.079  2.1641  0.6661 -2.7117
 6784SOL    HW221252   3.121   1.957   5.017  2.0975 -0.7683  0.5474
 6785SOL     OW21253   4.643   5.994   1.264 -0.3223  0.2087  0.2117
 6785SOL    HW121254   4.688   6.079   1.291  1.3923 -0.5432 -0.1470
 6785SOL    HW221255   4.610   6.003   1.170 -0.3082  0.5315  0.2356
 6786SOL     OW21256   1.400   4.498   4.641  0.2587 -0.1308 -0.5474
 6786SOL    HW121257   1.321   4.437   4.645 -0.2299  0.3194 -2.4130
 6786SOL    HW221258   1.413   4.541   4.731 -1.1965 -0.7106 -0.0264
 6787SOL     OW21259   0.210   5.202   5.895  0.4027 -0.2008 -0.8181
 6787SOL    HW121260   0.230   5.168   5.987  0.8452 -0.0369 -0.8498
 6787SOL    HW221261   0.148   5.280   5.901 -2.4120 -2.2847 -0.8596
 6788SOL     OW21262   2.357   3.083   5.570  0.4009  0.0141 -0.4251
 6788SOL    HW121263   2.357   3.095   5.470  0.1915 -0.7801 -0.5253
 6788SOL    HW221264   2.446   3.048   5.599  0.7194  0.9425 -0.2333
 6789SOL     OW21265   2.164   5.018   2.656  0.4314  0.1199  0.1752
 6789SOL    HW121266   2.113   4.940   2.620  0.8434 -0.0332 -0.0890
 6789SOL    HW221267   2.128   5.103   2.618  0.1879  0.0347  0.2182
 6790SOL     OW21268   2.279   3.934   1.134  0.1085  0.5945 -0.4316
 6790SOL    HW121269   2.315   3.913   1.225  4.1255  0.6010 -1.8449
 6790SOL    HW221270   2.293   3.855   1.074  0.6201  1.7298 -1.8565
 6791SOL     OW21271   3.731   3.156   5.788 -0.1231 -0.0346  0.3165
 6791SOL    HW121272   3.650   3.164   5.729  0.1638  2.2668  0.1588
 6791SOL    HW221273   3.704   3.114   5.875 -1.6484  1.2648  0.5115
 6792SOL     OW21274   0.455   4.864   6.357 -0.4323  0.1973  0.0484
 6792SOL    HW121275   0.503   4.951   6.368 -0.2454  0.1498 -0.3517
 6792SOL    HW221276   0.411   4.838   6.443  1.4280 -0.4544  0.8548
 6793SOL     OW21277   0.179   6.948   1.614  0.4860 -0.1253  0.6204
 6793SOL    HW121278   0.216   6.869   1.565  0.6894  0.5572 -0.3617
 6793SOL    HW221279   0.093   6.923   1.660 -0.4593 -0.4461 -1.2449
 6794SOL     OW21280   3.573   2.969   5.441  0.0795  0.0110 -0.0807
 6794SOL    HW121281   3.549   2.873   5.426 -1.0924  0.3710 -0.7026
 6794SOL    HW221282   3.646   2.995   5.378  1.3694 -0.8103  1.0313
 6795SOL     OW21283   2.857   6.048   6.317  0.2372 -0.0498  0.4063
 6795SOL    HW121284   2.844   5.958   6.359  2.3962 -1.7753 -2.2584
 6795SOL    HW221285   2.879   6.036   6.220 -3.0604  3.5924 -1.0425
 6796SOL     OW21286   2.950   2.197   2.785 -0.6520  0.8310  0.2413
 6796SOL    HW121287   2.926   2.253   2.705  0.2165  0.1374 -0.5172
 6796SOL    HW221288   2.908   2.107   2.776 -0.8137  0.8567  0.7294
 6797SOL     OW21289   5.601   2.505   2.420  0.3411 -0.0252  0.0492
 6797SOL    HW121290   5.583   2.440   2.494 -2.0775  2.3726  1.7606
 6797SOL    HW221291   5.583   2.462   2.332 -1.7338 -1.5208  1.1308
 6798SOL     OW21292   5.901   6.990   1.820 -0.4961  0.1729  0.2017
 6798SOL    HW121293   5.982   7.046   1.801  1.2047 -1.9372  0.8051
 6798SOL    HW221294   5.880   6.994   1.917 -1.9047  1.6368 -0.1244
 6799SOL     OW21295   6.041   5.863   1.239 -0.6142  0.5535 -0.1243
 6799SOL    HW121296   5.999   5.954   1.250 -0.2145  0.7323 -0.0529
 6799SOL    HW221297   5.972   5.793   1.256 -0.4179  0.8237  2.1003
 6800SOL     OW21298   2.723   2.956   0.478  0.4204 -0.3731 -0.1274
 6800SOL    HW121299   2.657   2.913   0.417  0.7191  0.9389 -1.4330
 6800SOL    HW221300   2.784   2.886   0.517 -1.5949 -1.5894  0.9959
 6801SOL     OW21301   0.075   3.194   4.208  0.0323  0.1918 -0.5875
 6801SOL    HW121302   0.110   3.106   4.177 -1.9490 -0.5292 -0.9502
 6801SOL    HW221303   0.032   3.184   4.298 -0.9440  0.5598 -0.9902
 6802SOL     OW21304   3.262   5.084   1.682 -0.1187  0.1850 -0.4573
 6802SOL    HW121305   3.250   4.985   1.683 -0.3442  0.2052  0.8836
 6802SOL    HW221306   3.333   5.109   1.748 -1.4153  1.0526  0.6613
 6803SOL     OW21307   4.273   0.541   6.472 -0.6210 -0.5227 -0.2252
 6803SOL    HW121308   4.261   0.622   6.415 -1.5604 -1.6150 -1.6744
 6803SOL    HW221309   4.361   0.498   6.451  0.1130  0.3917  0.9274
 6804SOL     OW21310   0.422   5.077   2.562 -0.2190 -0.2501  0.1226
 6804SOL    HW121311   0.494   5.073   2.493  0.1046 -1.0436  0.4909
 6804SOL    HW221312   0.334   5.054   2.519  0.0368 -1.1178  0.0377
 6805SOL     OW21313   5.991   1.933   4.591 -0.2150 -0.0249  0.0182
 6805SOL    HW121314   6.086   1.937   4.561 -0.4972  0.4869 -0.8196
 6805SOL    HW221315   5.985   1.878   4.675  0.4760 -2.1135 -1.2389
 6806SOL     OW21316   3.966   5.649   5.291 -0.5494 -0.0161 -0.3533
 6806SOL    HW121317   4.039   5.611   5.348  0.0164 -1.5738 -2.0258
 6806SOL    HW221318   3.878   5.621   5.329 -0.2215 -0.1943  0.3017
 6807SOL     OW21319   1.169   3.117   6.809 -0.6421  0.4552 -0.1225
 6807SOL    HW121320   1.075   3.112   6.776 -0.4318 -0.4018 -0.6418
 6807SOL    HW221321   1.212   3.202   6.779 -1.1857  0.7497 -0.0621
 6808SOL     OW21322   2.031   5.718   4.549  0.0567  0.3732  0.3255
 6808SOL    HW121323   1.950   5.703   4.606 -0.6590  0.5881 -0.6139
 6808SOL    HW221324   2.046   5.638   4.491  0.3600  0.4497  0.2955
 6809SOL     OW21325   1.328   3.680   0.736 -0.5054 -0.4440  0.2310
 6809SOL    HW121326   1.259   3.639   0.677  0.9654 -1.2069 -1.0351
 6809SOL    HW221327   1.349   3.618   0.812  1.0778 -1.7484 -1.1911
 6810SOL     OW21328   5.846   1.438   4.284  0.3181 -0.1248  0.3067
 6810SOL    HW121329   5.781   1.511   4.262 -0.7296 -0.4444  2.1292
 6810SOL    HW221330   5.811   1.385   4.361  1.4073 -2.1181 -0.5126
 6811SOL     OW21331   3.916   5.137   3.388 -0.3723  0.0427 -0.0786
 6811SOL    HW121332   3.891   5.089   3.472 -1.4091  0.8354  0.0903
 6811SOL    HW221333   3.961   5.074   3.325  2.5554 -0.0999  1.9214
 6812SOL     OW21334   3.750   3.546   3.191  0.0662 -0.5458  0.2054
 6812SOL    HW121335   3.786   3.489   3.117 -0.3853 -0.8302  0.1967
 6812SOL    HW221336   3.679   3.607   3.155 -0.7509 -1.2719  0.5418
 6813SOL     OW21337   6.096   3.342   0.293  0.1854  0.0690 -0.0083
 6813SOL    HW121338   6.183   3.390   0.303 -0.0474  0.2768  1.3093
 6813SOL    HW221339   6.059   3.358   0.202  0.8516  1.1492 -0.1118
 6814SOL     OW21340   2.193   2.459   1.173 -0.6647 -0.1766  0.5781
 6814SOL    HW121341   2.265   2.525   1.193 -0.9900  0.8902 -1.4918
 6814SOL    HW221342   2.234   2.374   1.140 -0.2864  0.7672 -1.5581
 6815SOL     OW21343   2.072   6.455   6.369 -0.2986  0.0805 -0.1255
 6815SOL    HW121344   2.091   6.408   6.283  0.3767  1.1524 -0.5830
 6815SOL    HW221345   2.085   6.553   6.357 -1.3124  0.3727  0.9025
 6816SOL     OW21346   6.299   4.306   0.405 -0.2076 -0.1766  0.6162
 6816SOL    HW121347   6.257   4.393   0.431  1.1009  0.4149  0.8213
 6816SOL    HW221348   6.392   4.323   0.372  0.0867 -1.5136  0.7261
 6817SOL     OW21349   2.695   2.373   4.928  0.3338 -0.1578  0.1025
 6817SOL    HW121350   2.616   2.411   4.976  1.6840  1.8981  0.8688
 6817SOL    HW221351   2.691   2.398   4.831  0.6605  1.0850  0.3925
 6818SOL     OW21352   4.254   5.294   1.002 -0.3315 -0.1497  0.1164
 6818SOL    HW121353   4.169   5.290   0.950 -1.0244 -1.4897  1.2818
 6818SOL    HW221354   4.258   5.217   1.066  1.2370  0.5229  0.8919
 6819SOL     OW21355   4.042   1.439   3.452 -0.1450  0.3623 -0.5817
 6819SOL    HW121356   3.979   1.488   3.392 -0.2986  0.5591 -0.2662
 6819SOL    HW221357   4.008   1.444   3.547  0.0860  0.0480 -0.4816
 6820SOL     OW21358   6.484   5.762   3.640 -0.4863  0.6981 -0.4954
 6820SOL    HW121359   6.394   5.805   3.647 -0.7160  0.7934 -3.0873
 6820SOL    HW221360   6.530   5.792   3.556  2.0079  0.6639  0.7548
 6821SOL     OW21361   6.853   2.266   3.727 -0.5668  0.2194 -0.2163
 6821SOL    HW121362   6.833   2.168   3.722  0.3322 -0.0298  0.8380
 6821SOL    HW221363   6.926   2.282   3.793  0.7820  1.3898 -1.9061
 6822SOL     OW21364   4.736   1.604   5.102  0.7407  0.5918 -0.0569
 6822SOL    HW121365   4.768   1.512   5.123  2.1006  1.4158  1.8832
 6822SOL    HW221366   4.645   1.618   5.141  0.7577  0.2277  0.1163
 6823SOL     OW21367   4.453   2.831   1.497 -0.1970  0.6936  0.0544
 6823SOL    HW121368   4.459   2.930   1.509  1.6826  0.7632 -1.1460
 6823SOL    HW221369   4.379   2.810   1.432  1.1883  1.5626 -1.8995
 6824SOL     OW21370   0.143   5.698   4.433 -0.1286 -0.8340 -0.0226
 6824SOL    HW121371   0.078   5.623   4.445  0.9890 -1.7305  0.6701
 6824SOL    HW221372   0.159   5.742   4.521  0.5671 -0.9468 -0.0883
 6825SOL     OW21373   4.264   0.624   6.091 -0.1571  0.1181 -0.6723
 6825SOL    HW121374   4.234   0.655   6.001 -0.9098  1.2657 -0.0460
 6825SOL    HW221375   4.188   0.578   6.138  0.4240 -1.0950 -0.8668
 6826SOL     OW21376   2.022   2.392   3.519  0.6349  0.2656 -0.2994
 6826SOL    HW121377   2.102   2.382   3.460 -0.4117 -1.9616 -1.4622
 6826SOL    HW221378   1.942   2.353   3.474 -1.1945  2.5058  0.7815
 6827SOL     OW21379   4.237   5.991   6.503  0.1322 -0.5827  0.5647
 6827SOL    HW121380   4.217   6.016   6.408  2.0785 -1.4838 -0.1392
 6827SOL    HW221381   4.332   6.013   6.524 -0.6866  1.2213  2.9238
 6828SOL     OW21382   1.486   4.278   1.756 -0.0150  0.1827  0.2838
 6828SOL    HW121383   1.464   4.206   1.690  0.6043  1.0963 -0.9583
 6828SOL    HW221384   1.585   4.290   1.760 -0.0744  0.4288  1.0624
 6829SOL     OW21385   5.489   4.817   3.137  0.1596 -0.3542  0.2565
 6829SOL    HW121386   5.478   4.728   3.091  2.3176 -1.5061  1.7815
 6829SOL    HW221387   5.540   4.804   3.222  0.2910  2.3630  0.6748
 6830SOL     OW21388   4.070   0.317   3.007 -0.8058  0.2100 -0.7918
 6830SOL    HW121389   4.086   0.386   3.078 -1.4145  0.1659 -0.6037
 6830SOL    HW221390   4.009   0.355   2.938 -0.8442 -0.0194 -0.8813
 6831SOL     OW21391   1.198   2.362   6.366 -0.7147  0.1231 -0.2604
 6831SOL    HW121392   1.214   2.336   6.271 -3.5954 -0.0398 -0.8178
 6831SOL    HW221393   1.179   2.280   6.420  0.4541  0.2554  0.3833
 6832SOL     OW21394   1.753   6.489   2.320 -0.1960 -0.2192  0.0019
 6832SOL    HW121395   1.728   6.447   2.233 -0.5912  0.6050 -0.2916
 6832SOL    HW221396   1.804   6.424   2.375 -0.4312 -0.9361 -0.6176
 6833SOL     OW21397   4.312   0.081   5.163 -0.3104 -0.1874 -0.6331
 6833SOL    HW121398   4.379   0.150   5.137 -1.1850  0.7547 -0.4278
 6833SOL    HW221399   4.245   0.070   5.090 -3.2245  3.0236  1.2738
 6834SOL     OW21400   2.935   5.291   3.017 -0.3857 -0.5459 -0.1157
 6834SOL    HW121401   3.035   5.282   3.019 -0.3782 -0.3791  0.8901
 6834SOL    HW221402   2.905   5.342   3.097 -1.2400 -0.0638 -0.7243
 6835SOL     OW21403   2.166   1.079   4.859 -0.2984 -0.0325  0.4277
 6835SOL    HW121404   2.242   1.100   4.920 -0.4699 -2.2377  1.4943
 6835SOL    HW221405   2.083   1.064   4.913 -0.4989 -1.8304 -0.2921
 6836SOL     OW21406   2.590   4.694   1.344  0.2734 -0.0371 -0.3141
 6836SOL    HW121407   2.688   4.673   1.340  0.1792 -1.4644  2.3441
 6836SOL    HW221408   2.577   4.794   1.346  1.6080  0.1767 -1.2436
 6837SOL     OW21409   0.334   3.327   2.700 -0.5084  0.2007 -0.2724
 6837SOL    HW121410   0.258   3.338   2.764  1.8563  3.2707  2.3366
 6837SOL    HW221411   0.321   3.387   2.622 -0.5206  1.1673  0.4593
 6838SOL     OW21412   3.651   2.334   1.258  0.3875  1.0045 -0.1736
 6838SOL    HW121413   3.634   2.395   1.181 -0.6054  1.2941  0.2612
 6838SOL    HW221414   3.658   2.387   1.342 -1.2275  0.4946  0.3212
 6839SOL     OW21415   4.062   6.263   1.255  0.1087 -0.5993  0.1063
 6839SOL    HW121416   4.093   6.348   1.212  0.8034 -0.9379 -0.0681
 6839SOL    HW221417   4.118   6.187   1.223 -0.6178 -1.1521  0.1361
 6840SOL     OW21418   1.929   0.858   6.581 -0.3573 -0.3054  0.1214
 6840SOL    HW121419   1.868   0.780   6.588  0.2378 -0.8585 -0.6634
 6840SOL    HW221420   1.887   0.938   6.625 -2.1697 -0.3482 -1.3871
 6841SOL     OW21421   0.279   1.179   6.060  0.0625  0.0475 -0.6788
 6841SOL    HW121422   0.378   1.192   6.059  0.2839 -1.3834 -1.9689
 6841SOL    HW221423   0.256   1.100   6.117 -0.2605 -0.0736 -0.9716
 6842SOL     OW21424   2.764   4.742   4.210 -0.0640 -0.1717  0.4619
 6842SOL    HW121425   2.707   4.823   4.222 -1.1388 -1.0312  1.3999
 6842SOL    HW221426   2.839   4.744   4.276 -1.2855 -0.9156  1.9282
 6843SOL     OW21427   3.854   5.969   0.678 -0.2468 -0.1148 -0.6916
 6843SOL    HW121428   3.808   6.049   0.715 -1.3253 -0.2798 -1.5979
 6843SOL    HW221429   3.953   5.981   0.683 -0.2237 -0.7127  3.4261
 6844SOL     OW21430   6.170   0.205   3.561  0.1486 -0.6365 -0.4674
 6844SOL    HW121431   6.217   0.292   3.544  0.5784 -1.0338 -1.4251
 6844SOL    HW221432   6.170   0.151   3.477 -0.9591 -1.1710 -0.1416
 6845SOL     OW21433   5.283   1.994   2.749 -0.1254  0.5868 -0.0176
 6845SOL    HW121434   5.366   1.950   2.783  0.0891  1.1570  0.1992
 6845SOL    HW221435   5.210   1.926   2.742  0.1615  0.2244  0.4564
 6846SOL     OW21436   6.673   2.015   0.991 -0.3625 -0.1595  0.6375
 6846SOL    HW121437   6.658   1.916   0.993 -2.2142  0.0815  0.7812
 6846SOL    HW221438   6.725   2.040   0.910  1.0235 -1.3467  1.1304
 6847SOL     OW21439   5.352   1.396   2.129 -0.2400  0.1982 -0.4006
 6847SOL    HW121440   5.378   1.350   2.044 -0.0471  1.3456 -0.9895
 6847SOL    HW221441   5.413   1.474   2.145 -0.9359  0.6340  0.2277
 6848SOL     OW21442   6.517   5.578   2.274 -0.3574  0.3131 -0.6040
 6848SOL    HW121443   6.531   5.479   2.265  0.7504  0.5942 -2.6970
 6848SOL    HW221444   6.606   5.624   2.266 -0.6749  1.4476  1.7185
 6849SOL     OW21445   3.492   3.967   3.627  0.1616  0.0741 -0.0781
 6849SOL    HW121446   3.436   3.987   3.707  1.6133 -0.1452  1.0389
 6849SOL    HW221447   3.518   3.870   3.628 -0.2603 -0.0630 -1.1300
 6850SOL     OW21448   5.391   0.947   5.289 -0.3140 -0.1233  0.2854
 6850SOL    HW121449   5.305   0.990   5.319 -0.3031  1.0081 -1.1823
 6850SOL    HW221450   5.468   1.005   5.316 -0.3579  1.5124 -2.6502
 6851SOL     OW21451   3.676   0.292   3.546  0.1940  0.5237  0.4262
 6851SOL    HW121452   3.772   0.268   3.555 -0.0627 -1.1543 -0.7388
 6851SOL    HW221453   3.649   0.285   3.450 -1.6243 -1.4260  0.9844
 6852SOL     OW21454   5.124   2.428   5.464  0.6576 -0.4022 -0.1552
 6852SOL    HW121455   5.072   2.431   5.550  0.6037  0.4644 -0.2051
 6852SOL    HW221456   5.073   2.478   5.394  1.8065  0.9419 -0.0619
 6853SOL     OW21457   5.695   4.101   5.235  0.2274 -0.2988 -0.5160
 6853SOL    HW121458   5.631   4.142   5.170  0.7531  0.0104 -0.8464
 6853SOL    HW221459   5.779   4.155   5.238  0.4388 -0.6453 -0.0150
 6854SOL     OW21460   5.415   5.202   2.797  0.6524  0.0254 -0.4652
 6854SOL    HW121461   5.396   5.114   2.841  1.2238 -0.0885 -0.4465
 6854SOL    HW221462   5.509   5.231   2.817  0.6900  0.3128 -1.0268
 6855SOL     OW21463   4.242   6.687   4.130 -0.1539  0.0539  0.0827
 6855SOL    HW121464   4.269   6.679   4.226 -0.0633  0.4565  0.0914
 6855SOL    HW221465   4.144   6.665   4.120 -0.3696  0.8607  0.3967
 6856SOL     OW21466   3.858   3.490   0.165  0.5753  0.3089  0.4508
 6856SOL    HW121467   3.835   3.573   0.216  3.7293  0.4705  1.8500
 6856SOL    HW221468   3.907   3.515   0.081 -1.5316 -0.0957 -0.9712
 6857SOL     OW21469   1.426   5.439   0.261  0.5228 -0.0296 -0.4664
 6857SOL    HW121470   1.394   5.489   0.180 -0.3681  0.7153  0.3224
 6857SOL    HW221471   1.521   5.464   0.279  0.1415  1.3407 -0.1645
 6858SOL     OW21472   2.507   2.465   2.431 -0.0807  0.0776  0.2438
 6858SOL    HW121473   2.543   2.470   2.338 -2.4553  1.1883 -0.7017
 6858SOL    HW221474   2.462   2.552   2.453 -1.8778 -1.0932  1.4064
 6859SOL     OW21475   2.399   2.872   0.734 -0.3654  0.4442 -0.1993
 6859SOL    HW121476   2.407   2.943   0.804 -0.4950  2.3352 -1.9928
 6859SOL    HW221477   2.310   2.828   0.742 -0.9602  1.6251 -0.0060
 6860SOL     OW21478   1.398   0.183   6.181  1.0768  0.8079 -0.0650
 6860SOL    HW121479   1.360   0.114   6.120 -1.2345  1.8382  0.0819
 6860SOL    HW221480   1.421   0.265   6.129 -1.4448  1.9059  0.3966
 6861SOL     OW21481   6.085   4.528   6.706 -0.1492 -0.1294  0.3027
 6861SOL    HW121482   6.110   4.551   6.800 -1.5844 -0.7090  0.8540
 6861SOL    HW221483   6.057   4.612   6.658  0.2026  0.1095  0.5129
 6862SOL     OW21484   6.224   6.721   1.855  0.0730 -0.5753 -0.3358
 6862SOL    HW121485   6.142   6.666   1.872  0.2016 -0.7129 -0.1495
 6862SOL    HW221486   6.224   6.752   1.760 -0.3013 -0.3943 -0.2779
 6863SOL     OW21487   4.563   1.811   4.478 -0.0413 -0.0464 -0.3060
 6863SOL    HW121488   4.499   1.755   4.426 -0.4956 -0.7325  0.9530
 6863SOL    HW221489   4.621   1.752   4.535 -0.3713  0.7360  0.8759
 6864SOL     OW21490   3.172   3.004   6.775  0.4064  0.0267 -0.1252
 6864SOL    HW121491   3.258   3.022   6.821  0.5551 -0.5732 -0.1547
 6864SOL    HW221492   3.104   3.071   6.803  1.1561  1.1505 -0.8846
 6865SOL     OW21493   2.048   1.130   1.958 -0.1102 -0.4142 -0.3369
 6865SOL    HW121494   2.091   1.162   2.042  1.8439 -0.5035 -1.2475
 6865SOL    HW221495   1.978   1.062   1.980 -0.5467  0.5207  1.2661
 6866SOL     OW21496   1.420   3.314   6.177  0.1754  0.8479 -0.3493
 6866SOL    HW121497   1.483   3.386   6.208  2.4674 -1.0375 -0.3872
 6866SOL    HW221498   1.456   3.273   6.093  1.6786 -3.5499  2.1388
 6867SOL     OW21499   2.446   2.207   0.681  0.5581  0.1801  0.0380
 6867SOL    HW121500   2.392   2.289   0.667 -0.6587 -0.8313 -1.5848
 6867SOL    HW221501   2.424   2.167   0.770 -2.5875 -0.9694 -1.1051
 6868SOL     OW21502   3.221   5.761   5.089  0.4546  0.3875 -0.3063
 6868SOL    HW121503   3.239   5.663   5.088 -1.0111  0.0943 -0.7227
 6868SOL    HW221504   3.219   5.794   5.183 -1.0295 -0.4010 -0.0415
 6869SOL     OW21505   1.927   1.707   1.303  0.4990  0.6030  0.6329
 6869SOL    HW121506   1.850   1.656   1.343  0.3450  0.4002  0.0950
 6869SOL    HW221507   1.955   1.780   1.365 -1.1871  1.7175  0.1516
 6870SOL     OW21508   0.284   3.261   1.159  0.5326  0.6323 -0.3267
 6870SOL    HW121509   0.192   3.221   1.165  0.6186  0.5362  0.4744
 6870SOL    HW221510   0.350   3.190   1.134 -0.0218  1.2924 -4.3631
 6871SOL     OW21511   6.513   3.142   3.205 -0.4443  0.4824  0.5245
 6871SOL    HW121512   6.441   3.074   3.210 -0.5585  0.5323 -0.3385
 6871SOL    HW221513   6.494   3.206   3.131  0.0578  0.9984  0.8270
 6872SOL     OW21514   2.569   5.809   1.826  0.3677 -0.5276 -0.0541
 6872SOL    HW121515   2.533   5.844   1.913  0.0649 -0.5585 -0.1652
 6872SOL    HW221516   2.577   5.710   1.831  2.7897 -0.3488  0.8534
 6873SOL     OW21517   0.930   3.682   2.283  0.4555  0.4196  0.6709
 6873SOL    HW121518   0.935   3.591   2.323 -0.0217  0.4798  0.8623
 6873SOL    HW221519   1.018   3.728   2.295  0.5251  0.1895  1.0528
 6874SOL     OW21520   4.639   4.970   2.310  0.2054  0.1521 -0.1354
 6874SOL    HW121521   4.592   5.009   2.231  2.9534  0.3005 -1.8343
 6874SOL    HW221522   4.647   5.039   2.382  0.5321  1.1017 -1.0582
 6875SOL     OW21523   3.462   1.176   6.355 -0.8119  0.6781  0.0417
 6875SOL    HW121524   3.484   1.161   6.259 -0.5436 -0.5771  0.2833
 6875SOL    HW221525   3.373   1.134   6.376 -0.0441 -0.6474  0.7455
 6876SOL     OW21526   0.791   4.917   2.854 -0.3608 -0.2567  0.4381
 6876SOL    HW121527   0.872   4.858   2.857 -0.2937 -0.1381  1.0357
 6876SOL    HW221528   0.807   4.991   2.788 -0.8752 -1.5048 -1.1610
 6877SOL     OW21529   2.162   4.730   2.809  0.0602 -0.5103 -0.2040
 6877SOL    HW121530   2.131   4.796   2.878 -1.0141 -1.3811  0.1832
 6877SOL    HW221531   2.143   4.767   2.718  0.6520  0.2574 -0.0300
 6878SOL     OW21532   1.695   1.587   5.313  0.0797  0.2198 -0.1634
 6878SOL    HW121533   1.744   1.610   5.397 -0.8265  1.2340  0.0980
 6878SOL    HW221534   1.598   1.576   5.332 -0.4896  2.5650 -1.4064
 6879SOL     OW21535   1.367   1.023   0.034 -0.0931  0.3492  0.4246
 6879SOL    HW121536   1.412   1.018   0.123 -1.1365  0.5734  0.9788
 6879SOL    HW221537   1.437   1.027  -0.038  0.7645  0.4774  1.2356
 6880SOL     OW21538   2.090   6.423   0.704  0.2551 -0.1593  0.3831
 6880SOL    HW121539   2.113   6.493   0.637  2.6314  1.0541  2.2913
 6880SOL    HW221540   1.992   6.425   0.721 -0.2354  0.3248 -2.0832
 6881SOL     OW21541   5.765   3.216   0.948 -0.3754 -0.5080  0.0406
 6881SOL    HW121542   5.718   3.146   0.894  0.4638 -0.4275 -0.8355
 6881SOL    HW221543   5.699   3.283   0.981 -0.9756 -0.8176 -0.5096
 6882SOL     OW21544   1.671   0.904   5.645  0.0753  0.0832 -0.3790
 6882SOL    HW121545   1.713   0.981   5.596  3.6895 -1.5325 -0.1001
 6882SOL    HW221546   1.709   0.819   5.611 -2.6022 -1.5732  0.4703
 6883SOL     OW21547   4.739   6.468   1.140 -0.3347  0.0280  0.2517
 6883SOL    HW121548   4.767   6.507   1.052 -1.0726  1.1690  0.4997
 6883SOL    HW221549   4.652   6.418   1.128  0.9729 -2.2921 -0.2236
 6884SOL     OW21550   0.056   6.539   1.637  0.3588  0.0553 -0.8125
 6884SOL    HW121551   0.012   6.467   1.583 -1.7983  0.4082  0.3816
 6884SOL    HW221552  -0.000   6.621   1.636 -0.4610 -0.2964  2.8748
 6885SOL     OW21553   0.294   4.583   4.178 -0.2530  0.0032  0.0466
 6885SOL    HW121554   0.255   4.666   4.218  0.0802  0.5617 -0.7600
 6885SOL    HW221555   0.390   4.575   4.206 -0.2726 -0.0855  0.0878
 6886SOL     OW21556   6.534   2.656   0.349  0.0778 -0.5788 -0.2700
 6886SOL    HW121557   6.608   2.652   0.281  0.7892  1.1510  0.3342
 6886SOL    HW221558   6.553   2.591   0.422  1.4451  0.3280  0.2409
 6887SOL     OW21559   0.429   5.186   4.507  0.8544  0.0433  0.4717
 6887SOL    HW121560   0.433   5.181   4.607  2.4872 -1.1699  0.3785
 6887SOL    HW221561   0.334   5.201   4.479  0.0220 -1.5749  2.1504
 6888SOL     OW21562   6.648   4.444   1.875  0.3295  0.4937 -0.0974
 6888SOL    HW121563   6.590   4.404   1.805  1.4308 -1.6232  0.1167
 6888SOL    HW221564   6.630   4.399   1.963 -0.3118  2.4019  0.7996
 6889SOL     OW21565   0.229   3.955   6.016  0.0508  0.3834  0.1152
 6889SOL    HW121566   0.284   4.014   5.955 -0.6225  0.2758 -0.6049
 6889SOL    HW221567   0.267   3.863   6.016 -2.0854 -0.6638 -3.1760
 6890SOL     OW21568   4.703   6.308   3.407 -0.0633  0.3145 -0.2487
 6890SOL    HW121569   4.735   6.301   3.502 -3.1354  0.1548  0.8904
 6890SOL    HW221570   4.664   6.398   3.391 -0.1630  0.1182 -1.1698
 6891SOL     OW21571   2.012   1.286   0.128 -0.3212  0.7640 -0.1462
 6891SOL    HW121572   1.972   1.240   0.207 -0.9803  1.9681  0.2460
 6891SOL    HW221573   2.091   1.341   0.158  0.5854 -0.2336 -0.6412
 6892SOL     OW21574   1.179   1.665   4.552  0.3637  0.0123 -0.2755
 6892SOL    HW121575   1.194   1.647   4.455  0.5931 -1.6088  0.0288
 6892SOL    HW221576   1.254   1.625   4.605  0.2471  0.8891  0.5791
 6893SOL     OW21577   5.483   3.722   1.561 -0.3063  0.2491  0.2225
 6893SOL    HW121578   5.426   3.788   1.513 -0.2777  0.1665  0.0730
 6893SOL    HW221579   5.496   3.751   1.656 -0.5776  0.2808  0.2524
 6894SOL     OW21580   6.523   5.188   4.716 -0.7139  0.2303  0.0004
 6894SOL    HW121581   6.533   5.093   4.688 -0.3434  0.3333 -0.2185
 6894SOL    HW221582   6.481   5.241   4.642  1.0565  0.6842 -0.7172
 6895SOL     OW21583   1.516   4.106   2.832 -0.1573 -0.1102  0.2817
 6895SOL    HW121584   1.569   4.031   2.870 -0.4821 -1.2531 -1.4046
 6895SOL    HW221585   1.577   4.180   2.805  0.8223 -1.7508 -2.4265
 6896SOL     OW21586   4.889   0.502   6.085  0.0001  0.0749 -0.1505
 6896SOL    HW121587   4.876   0.599   6.106 -1.2398 -0.1482  0.1599
 6896SOL    HW221588   4.861   0.484   5.991  0.6868  0.0934 -0.3677
 6897SOL     OW21589   3.714   2.465   5.403 -0.1669 -0.2854  0.6332
 6897SOL    HW121590   3.676   2.379   5.437  0.1551 -0.2751  1.0311
 6897SOL    HW221591   3.808   2.449   5.372 -0.1285 -0.0891  0.6487
 6898SOL     OW21592   3.478   6.549   0.464  0.0744 -0.2568 -0.6231
 6898SOL    HW121593   3.436   6.491   0.533 -1.6697  1.1942 -0.4093
 6898SOL    HW221594   3.539   6.615   0.508  0.2318 -0.3832 -0.6484
 6899SOL     OW21595   0.355   2.181   1.357  0.3307  0.4563 -0.1185
 6899SOL    HW121596   0.280   2.224   1.307  0.5435 -1.2751 -2.0936
 6899SOL    HW221597   0.435   2.174   1.297  0.6657 -1.5382  0.4810
 6900SOL     OW21598   0.583   4.858   3.656  0.2323  0.5292  0.3503
 6900SOL    HW121599   0.487   4.858   3.681 -0.4728 -4.2838 -1.3058
 6900SOL    HW221600   0.633   4.796   3.716  0.7220 -2.4210 -2.7915
 6901SOL     OW21601   6.235   4.694   5.543  0.4379 -0.5154  0.0766
 6901SOL    HW121602   6.168   4.626   5.574 -1.4371  1.6451  1.0955
 6901SOL    HW221603   6.262   4.674   5.449 -0.3067 -2.4407  0.2252
 6902SOL     OW21604   0.882   0.506   3.819  0.5312 -0.0595 -0.3925
 6902SOL    HW121605   0.904   0.500   3.722 -1.7784 -0.6672 -0.9634
 6902SOL    HW221606   0.868   0.602   3.845  0.1793  0.0410 -0.9326
 6903SOL     OW21607   0.361   6.811   5.560  0.0337  0.4973 -0.2566
 6903SOL    HW121608   0.284   6.839   5.617  0.0543  0.2713 -0.1171
 6903SOL    HW221609   0.327   6.773   5.474 -0.0205  0.0100 -0.0183
 6904SOL     OW21610   1.861   7.022   4.502 -0.0982 -0.2976 -0.1483
 6904SOL    HW121611   1.819   7.023   4.411  1.7743  0.2154 -1.0465
 6904SOL    HW221612   1.920   6.942   4.510  0.0609 -0.1203  0.4761
 6905SOL     OW21613   5.084   5.213   4.436  0.1235 -0.0023 -0.8093
 6905SOL    HW121614   5.181   5.235   4.435 -0.1209  1.2387  0.1940
 6905SOL    HW221615   5.031   5.290   4.401 -0.6663  0.6449  1.5623
 6906SOL     OW21616   1.789   1.768   3.240 -0.1568  0.2001 -0.1177
 6906SOL    HW121617   1.777   1.685   3.294  1.4978  0.2066  0.2998
 6906SOL    HW221618   1.706   1.785   3.187 -1.1129 -0.8369  0.9850
 6907SOL     OW21619   5.562   2.924   6.492 -0.5677  0.3507  0.3263
 6907SOL    HW121620   5.540   2.851   6.427  0.2294  2.4802 -2.5611
 6907SOL    HW221621   5.643   2.898   6.545  0.3163 -0.5367 -1.3602
 6908SOL     OW21622   1.247   5.521   0.627  0.2379 -0.3124 -0.3989
 6908SOL    HW121623   1.256   5.583   0.704 -0.7198 -0.6458 -0.0010
 6908SOL    HW221624   1.224   5.572   0.545  0.6310 -0.0237 -0.3325
 6909SOL     OW21625   6.848   4.826   2.767  0.6371 -0.4882 -0.0294
 6909SOL    HW121626   6.919   4.804   2.834  0.4141 -1.0747  0.0159
 6909SOL    HW221627   6.775   4.758   2.773 -0.4468  0.6959  0.6642
 6910SOL     OW21628   1.130   1.777   2.315 -0.2794  0.5873 -0.1447
 6910SOL    HW121629   1.169   1.699   2.264 -1.0466  0.0086  0.1349
 6910SOL    HW221630   1.114   1.853   2.253  2.6731  1.4312 -0.0534
 6911SOL     OW21631   0.228   6.165   4.751  0.2246  0.0456  0.1711
 6911SOL    HW121632   0.150   6.144   4.811 -0.3110  0.7610 -0.2623
 6911SOL    HW221633   0.262   6.256   4.772  1.8042 -0.7422  1.2530
 6912SOL     OW21634   1.693   2.416   5.712  0.2109  0.4646  0.0232
 6912SOL    HW121635   1.724   2.441   5.804  0.6905 -0.4707  0.1295
 6912SOL    HW221636   1.739   2.332   5.683 -2.7402 -1.5123  0.5039
 6913SOL     OW21637   3.999   5.343   6.340 -0.0657  0.0387 -0.2652
 6913SOL    HW121638   4.015   5.391   6.426 -0.0574  0.4963 -0.5170
 6913SOL    HW221639   3.985   5.245   6.358  0.1107  0.1024  0.2343
 6914SOL     OW21640   1.091   3.122   3.354  0.6982 -0.0217  0.0711
 6914SOL    HW121641   1.000   3.120   3.394 -0.0726 -1.2325 -1.6479
 6914SOL    HW221642   1.121   3.217   3.343  1.6400  0.4897  4.7990
 6915SOL     OW21643   6.983   3.277   3.921  0.3574 -0.0889 -0.4484
 6915SOL    HW121644   6.998   3.337   3.999  1.5392 -1.2366  0.2444
 6915SOL    HW221645   6.971   3.183   3.953  0.2215 -0.4807 -1.6084
 6916SOL     OW21646   5.491   6.379   5.796  0.3404  0.3874 -0.1670
 6916SOL    HW121647   5.457   6.337   5.712 -0.1476 -1.1411  0.7504
 6916SOL    HW221648   5.535   6.466   5.774  0.8668 -0.3102 -2.0847
 6917SOL     OW21649   1.304   3.896   4.309  0.4531  0.6206  0.1461
 6917SOL    HW121650   1.397   3.933   4.316  0.7735 -0.2339  0.5598
 6917SOL    HW221651   1.238   3.970   4.318  1.1032  1.3444 -0.9015
 6918SOL     OW21652   2.799   2.846   6.774  0.7018  0.1175  0.1840
 6918SOL    HW121653   2.705   2.874   6.760  0.2793 -1.4916 -0.3475
 6918SOL    HW221654   2.857   2.881   6.700  0.6243  1.4690  0.7405
 6919SOL     OW21655   0.189   6.560   3.693  0.5344 -0.2996 -0.3156
 6919SOL    HW121656   0.207   6.613   3.776 -0.9358 -2.5717  1.5912
 6919SOL    HW221657   0.271   6.560   3.636  1.2957  2.1104  0.6247
 6920SOL     OW21658   2.221   4.100   5.397 -0.1232 -0.0469  0.0074
 6920SOL    HW121659   2.240   4.191   5.435  0.9150  0.1114 -0.8365
 6920SOL    HW221660   2.306   4.046   5.397 -0.9853 -1.5307  1.7482
 6921SOL     OW21661   2.797   0.687   6.043 -0.6047  0.1900  0.0344
 6921SOL    HW121662   2.698   0.672   6.049 -0.7891  1.0477 -0.6405
 6921SOL    HW221663   2.824   0.692   5.947  0.3742 -1.6697  0.1709
 6922SOL     OW21664   2.282   4.144   6.135  0.5691 -0.2597  0.0351
 6922SOL    HW121665   2.313   4.168   6.227 -0.0698 -1.5569  0.6177
 6922SOL    HW221666   2.187   4.174   6.123  1.1267  1.2790 -0.7747
 6923SOL     OW21667   4.935   5.867   1.499 -0.1448  0.7026  0.1545
 6923SOL    HW121668   4.954   5.772   1.475 -0.3087  0.5230  0.7270
 6923SOL    HW221669   4.925   5.921   1.415 -0.3650  0.1573 -0.1741
 6924SOL     OW21670   2.802   4.515   1.392 -0.1860 -0.3107  0.8925
 6924SOL    HW121671   2.894   4.511   1.351 -0.1731  2.4081  0.4505
 6924SOL    HW221672   2.809   4.551   1.485 -0.7649 -0.5477  1.0306
 6925SOL     OW21673   5.836   6.888   4.702  0.6484  0.0808 -0.0882
 6925SOL    HW121674   5.840   6.818   4.773 -0.1410 -0.6988 -0.7908
 6925SOL    HW221675   5.910   6.954   4.716  1.9344 -1.3562  0.0975
 6926SOL     OW21676   2.225   2.643   0.682 -0.2274 -0.5456 -0.2595
 6926SOL    HW121677   2.168   2.610   0.757  1.5265 -0.3168  1.2747
 6926SOL    HW221678   2.270   2.565   0.638 -1.8124 -0.7461 -1.6166
 6927SOL     OW21679   1.160   1.281   5.166  0.2350  0.1004  0.1148
 6927SOL    HW121680   1.080   1.293   5.225 -0.5137  3.1178 -1.3042
 6927SOL    HW221681   1.243   1.286   5.222 -0.4871 -0.1871  1.2593
 6928SOL     OW21682   3.639   5.481   1.322 -0.1089 -0.1886  0.6148
 6928SOL    HW121683   3.681   5.485   1.232 -1.5818  0.4486 -0.0740
 6928SOL    HW221684   3.607   5.572   1.349  0.0084 -0.4337  1.6365
 6929SOL     OW21685   4.302   5.792   3.269 -0.3994  0.4753 -0.9205
 6929SOL    HW121686   4.296   5.694   3.287 -0.2080  0.4977 -0.7331
 6929SOL    HW221687   4.290   5.809   3.171  0.7697  0.1648 -1.1234
 6930SOL     OW21688   6.207   0.432   2.245 -0.2466  0.0365  0.0763
 6930SOL    HW121689   6.137   0.489   2.287 -0.5404 -1.0822  1.1698
 6930SOL    HW221690   6.297   0.475   2.258 -0.2880 -0.3959  2.1651
 6931SOL     OW21691   3.537   3.055   0.766 -0.6196 -0.2961 -0.1831
 6931SOL    HW121692   3.550   2.997   0.847  0.5053  0.6726  0.3699
 6931SOL    HW221693   3.448   3.100   0.771 -0.5237 -0.1779  0.5783
 6932SOL     OW21694   3.123   5.577   5.414  0.0917  0.4081  0.2324
 6932SOL    HW121695   3.062   5.510   5.457 -1.9379  2.3848  0.5988
 6932SOL    HW221696   3.176   5.624   5.485 -0.8817  1.3969  0.3438
 6933SOL     OW21697   4.058   0.242   6.536 -0.0449 -0.0342  0.2527
 6933SOL    HW121698   3.966   0.268   6.508 -0.6091 -1.6943  0.4610
 6933SOL    HW221699   4.117   0.234   6.455 -0.0293  1.1076  0.1282
 6934SOL     OW21700   4.816   4.583   4.744 -0.3023 -0.1675  0.0061
 6934SOL    HW121701   4.754   4.566   4.820 -4.3990  1.2890 -2.6859
 6934SOL    HW221702   4.893   4.639   4.775 -1.0606 -0.7684  3.2635
 6935SOL     OW21703   4.377   4.590   2.002  0.1056  0.1356 -0.0621
 6935SOL    HW121704   4.425   4.529   2.065  2.4296  2.4250  0.5337
 6935SOL    HW221705   4.396   4.562   1.908  0.9102 -0.2447  0.2043
 6936SOL     OW21706   6.150   0.763   0.532  0.1508 -0.1658 -0.3097
 6936SOL    HW121707   6.074   0.707   0.499  0.0017  0.2288 -0.6404
 6936SOL    HW221708   6.144   0.772   0.632  0.9896 -1.9264 -0.0637
 6937SOL     OW21709   1.345   4.466   0.575 -0.4170  0.3677  0.2986
 6937SOL    HW121710   1.315   4.435   0.665 -0.1055 -0.6667  0.0550
 6937SOL    HW221711   1.424   4.527   0.586 -1.2059  1.3388  0.7954
 6938SOL     OW21712   1.274   5.853   4.550  0.3264  0.0114  0.0061
 6938SOL    HW121713   1.294   5.757   4.568  0.9255  0.3960  1.4938
 6938SOL    HW221714   1.175   5.867   4.546  0.2421 -0.6824 -0.3749
 6939SOL     OW21715   6.499   4.526   3.428 -0.0035  0.2689 -0.1547
 6939SOL    HW121716   6.531   4.551   3.519 -1.9170 -1.0544  0.9453
 6939SOL    HW221717   6.482   4.609   3.375  2.0725  1.0394  0.3068
 6940SOL     OW21718   0.492   6.831   1.565 -0.9366  0.1878  0.1586
 6940SOL    HW121719   0.408   6.780   1.548 -1.0453  0.4488 -0.1094
 6940SOL    HW221720   0.557   6.775   1.616 -1.7635  0.4111  1.4930
 6941SOL     OW21721   3.956   3.663   2.524 -0.4446 -0.1090 -0.3193
 6941SOL    HW121722   4.036   3.651   2.582 -0.4464  1.9525  0.1647
 6941SOL    HW221723   3.905   3.576   2.520  2.6273 -1.9981 -2.0269
 6942SOL     OW21724   6.775   0.323   2.166 -0.8324  0.1182  0.0572
 6942SOL    HW121725   6.797   0.303   2.262 -2.6445  1.7147  0.8874
 6942SOL    HW221726   6.797   0.418   2.146 -2.5065  0.4512 -0.3961
 6943SOL     OW21727   5.474   5.330   6.126 -0.6417 -0.6032  0.5255
 6943SOL    HW121728   5.399   5.351   6.064 -2.7902 -3.1348  2.0427
 6943SOL    HW221729   5.505   5.414   6.172 -0.9712  0.8310 -1.7357
 6944SOL     OW21730   1.795   6.015   6.826 -0.1257 -0.0190  0.5796
 6944SOL    HW121731   1.748   6.007   6.914 -0.6031  0.1565  0.3417
 6944SOL    HW221732   1.894   6.008   6.841 -0.2481 -0.9560  1.0167
 6945SOL     OW21733   4.330   0.925   1.048 -0.7952 -0.5579  0.5222
 6945SOL    HW121734   4.343   0.857   1.120 -1.4644 -0.7418  0.4732
 6945SOL    HW221735   4.300   1.011   1.088  2.0086  0.3857  0.8279
 6946SOL     OW21736   5.555   4.676   2.697  0.0636 -0.5395  0.4400
 6946SOL    HW121737   5.635   4.682   2.638  2.4037 -0.3855  3.3705
 6946SOL    HW221738   5.532   4.767   2.731 -0.1647 -0.8198  1.0487
 6947SOL     OW21739   0.693   3.405   6.684 -0.5187 -0.1128  0.1456
 6947SOL    HW121740   0.786   3.407   6.722 -0.6932 -0.1846  0.5854
 6947SOL    HW221741   0.694   3.440   6.591  0.0636 -0.7347 -0.0863
 6948SOL     OW21742   0.276   5.781   0.164 -0.3852 -0.4959 -0.2184
 6948SOL    HW121743   0.303   5.840   0.240  0.1446 -0.3939 -0.4824
 6948SOL    HW221744   0.226   5.702   0.200 -2.0953  0.6674  0.0486
 6949SOL     OW21745   1.250   6.387   3.355  0.1495 -0.3095 -0.1846
 6949SOL    HW121746   1.344   6.355   3.345  0.0433 -1.8417  2.7164
 6949SOL    HW221747   1.248   6.487   3.350  1.3766 -0.3232 -3.3956
 6950SOL     OW21748   2.632   1.153   5.046 -0.1377 -0.1821 -0.1237
 6950SOL    HW121749   2.559   1.167   4.978  0.3083 -1.1463 -0.8092
 6950SOL    HW221750   2.632   1.230   5.110 -0.4892  0.8154 -1.2816
 6951SOL     OW21751   1.130   3.548   0.614  0.0056 -0.5716 -0.3319
 6951SOL    HW121752   1.071   3.590   0.544  0.1796 -0.1535 -0.2298
 6951SOL    HW221753   1.074   3.517   0.690 -0.0316  0.3367  0.0192
 6952SOL     OW21754   4.810   4.975   3.480  0.5719 -0.1741  0.4329
 6952SOL    HW121755   4.726   4.932   3.446  1.6181 -0.9308 -1.3729
 6952SOL    HW221756   4.843   4.926   3.560  0.5846 -1.4056 -0.3108
 6953SOL     OW21757   6.776   6.866   2.054  0.3049 -0.4820 -0.5237
 6953SOL    HW121758   6.737   6.954   2.029  0.8132 -0.0714  0.0902
 6953SOL    HW221759   6.763   6.800   1.980  2.3970  0.8689 -2.2132
 6954SOL     OW21760   6.702   4.420   6.428  0.1025 -0.0620  0.1148
 6954SOL    HW121761   6.741   4.369   6.505  0.4206 -0.0730 -0.0524
 6954SOL    HW221762   6.606   4.395   6.417  0.8047 -2.4748 -1.4439
 6955SOL     OW21763   3.368   4.963   2.419  0.1239 -0.1212  0.0590
 6955SOL    HW121764   3.277   4.928   2.442 -0.6693  2.0129  0.3444
 6955SOL    HW221765   3.416   4.989   2.503 -0.0895  1.3092 -0.2472
 6956SOL     OW21766   6.274   4.818   4.372  0.2046  0.1778  0.3701
 6956SOL    HW121767   6.369   4.789   4.364  0.5289  0.9390  1.3100
 6956SOL    HW221768   6.230   4.767   4.446  0.4329  1.2110  1.2209
 6957SOL     OW21769   4.647   4.997   3.940  0.5661  0.2651 -0.7201
 6957SOL    HW121770   4.706   5.065   3.897  0.5393  1.0892  0.5163
 6957SOL    HW221771   4.697   4.910   3.947  1.0016  0.4638 -1.2711
 6958SOL     OW21772   3.995   3.673   3.952 -0.5470 -0.2941 -0.3259
 6958SOL    HW121773   3.994   3.710   4.045 -0.7851  0.0506 -0.4589
 6958SOL    HW221774   3.901   3.658   3.922 -0.4740 -0.3339 -0.5356
 6959SOL     OW21775   6.461   3.201   5.024 -0.0028 -0.3963 -0.1724
 6959SOL    HW121776   6.428   3.236   4.936  1.6500  1.5120 -0.0924
 6959SOL    HW221777   6.389   3.210   5.093  0.4387  3.6223  0.0034
 6960SOL     OW21778   4.638   4.459   2.357  0.7782  0.5741  0.6074
 6960SOL    HW121779   4.543   4.486   2.342  0.8862  0.9336  0.5811
 6960SOL    HW221780   4.667   4.396   2.284  0.5864  0.5280  0.5722
 6961SOL     OW21781   4.633   6.793   6.003 -0.2859 -0.1796 -0.3042
 6961SOL    HW121782   4.684   6.842   5.932  2.1476 -0.6392  1.0104
 6961SOL    HW221783   4.618   6.699   5.975 -1.0122  0.1202 -0.9637
 6962SOL     OW21784   4.028   0.187   1.466 -0.0644  0.1522  0.9338
 6962SOL    HW121785   4.110   0.137   1.494 -0.1923 -0.0036  1.0320
 6962SOL    HW221786   3.953   0.165   1.528 -1.2560 -2.6265 -1.2392
 6963SOL     OW21787   6.601   0.803   6.689  0.2759  0.3246 -0.0975
 6963SOL    HW121788   6.514   0.809   6.737  0.2629  0.5300 -0.1457
 6963SOL    HW221789   6.636   0.895   6.672  0.0597  0.2728 -0.8773
 6964SOL     OW21790   2.634   1.469   4.980  0.1457 -0.5843  0.1984
 6964SOL    HW121791   2.627   1.442   4.884 -0.4237 -0.0413  0.0791
 6964SOL    HW221792   2.552   1.520   5.006  0.3681 -0.5880  0.9319
 6965SOL     OW21793   1.055   1.825   1.012  0.2771  0.2021  0.5405
 6965SOL    HW121794   1.076   1.851   0.918 -2.4387  0.4609 -0.0916
 6965SOL    HW221795   1.129   1.854   1.073  1.5624  1.0535 -1.3410
 6966SOL     OW21796   0.260   6.286   1.154 -0.6168  0.3472 -0.1957
 6966SOL    HW121797   0.295   6.314   1.065 -0.5560 -1.3075 -0.7328
 6966SOL    HW221798   0.336   6.258   1.212 -0.8366 -2.6230 -1.1384
 6967SOL     OW21799   5.043   5.560   5.129  0.6116  0.0493  0.1373
 6967SOL    HW121800   5.073   5.655   5.134  0.2365  0.1101  1.7421
 6967SOL    HW221801   5.065   5.523   5.039  1.7804  1.3036 -0.1209
 6968SOL     OW21802   3.803   6.680   2.106  0.5974 -0.2948  0.2478
 6968SOL    HW121803   3.831   6.771   2.077  0.8291  0.0196  1.4099
 6968SOL    HW221804   3.867   6.645   2.174  0.2704 -1.1553  0.1286
 6969SOL     OW21805   0.242   3.631   3.295 -0.2446 -0.7070 -0.4476
 6969SOL    HW121806   0.171   3.697   3.321  0.1518 -0.4868  0.0876
 6969SOL    HW221807   0.329   3.679   3.285 -0.1031 -1.0331 -0.7793
 6970SOL     OW21808   1.822   6.283   5.997 -0.2666  0.3060  0.4106
 6970SOL    HW121809   1.910   6.311   5.959 -0.6875  0.2260 -0.6520
 6970SOL    HW221810   1.748   6.312   5.936 -0.9601  0.1267  1.1498
 6971SOL     OW21811   0.599   3.384   0.317 -0.1378 -0.3570 -0.3215
 6971SOL    HW121812   0.510   3.430   0.310  0.6716  1.2377 -0.5930
 6971SOL    HW221813   0.616   3.332   0.233 -0.8027 -0.6699 -0.2698
 6972SOL     OW21814   5.898   3.023   1.877 -0.4510  0.1009  0.1525
 6972SOL    HW121815   5.927   3.097   1.816 -0.7034 -0.2391 -0.3901
 6972SOL    HW221816   5.961   2.946   1.866 -1.5531 -0.6697 -1.0807
 6973SOL     OW21817   0.277   2.075   2.958  0.0288 -0.1891  0.3927
 6973SOL    HW121818   0.315   1.990   2.994 -0.0030  0.7928  2.8917
 6973SOL    HW221819   0.303   2.151   3.016 -1.8214  1.2183 -0.5041
 6974SOL     OW21820   3.857   2.098   1.501 -0.5850  0.3917 -0.0855
 6974SOL    HW121821   3.781   2.134   1.554  0.6955 -0.2868  2.3918
 6974SOL    HW221822   3.830   2.013   1.455 -1.8266  1.1728 -0.8227
 6975SOL     OW21823   2.775   5.233   6.087  0.0772 -0.2014 -0.4034
 6975SOL    HW121824   2.703   5.167   6.065 -0.1010 -1.2135  2.7348
 6975SOL    HW221825   2.860   5.185   6.107  0.3669  0.6270  0.4368
 6976SOL     OW21826   4.982   5.822   2.778  0.2290 -0.0776  0.8199
 6976SOL    HW121827   5.003   5.725   2.786  0.9610  0.0398  0.4489
 6976SOL    HW221828   4.886   5.833   2.751  0.0473 -0.6791  1.1939
 6977SOL     OW21829   3.957   4.761   1.919  0.9966 -0.4868 -0.1735
 6977SOL    HW121830   3.858   4.745   1.912  0.6839  1.4201 -0.5344
 6977SOL    HW221831   4.004   4.703   1.853  0.0926 -1.0744 -0.3300
 6978SOL     OW21832   6.802   3.543   2.205  0.2421  0.1009  0.0132
 6978SOL    HW121833   6.708   3.534   2.170 -0.3018 -0.2414  1.4938
 6978SOL    HW221834   6.856   3.597   2.140 -1.9384  3.5279  0.7651
 6979SOL     OW21835   1.824   3.427   4.392 -0.1150 -0.2237  0.4602
 6979SOL    HW121836   1.884   3.408   4.315  0.0013  0.1015  0.4683
 6979SOL    HW221837   1.872   3.485   4.458  0.4041 -1.8715  1.6124
 6980SOL     OW21838   2.381   4.029   1.823 -0.6220  0.0001  0.0483
 6980SOL    HW121839   2.427   4.113   1.796  0.1759 -0.3359  0.3301
 6980SOL    HW221840   2.290   4.051   1.859 -0.1226  0.8223  0.8438
 6981SOL     OW21841   4.446   3.197   6.485  1.1735  0.6451 -0.3406
 6981SOL    HW121842   4.411   3.144   6.408  0.2710  3.2426 -1.8371
 6981SOL    HW221843   4.533   3.159   6.515  0.2221 -2.0937 -0.7695
 6982SOL     OW21844   6.836   6.164   1.006  0.1304 -1.1430 -0.4586
 6982SOL    HW121845   6.886   6.183   0.922 -1.3243  1.0580 -0.8983
 6982SOL    HW221846   6.768   6.092   0.989 -1.2632  0.3827 -1.6825
 6983SOL     OW21847   4.621   1.734   5.971  0.2955 -0.0665  0.0401
 6983SOL    HW121848   4.693   1.803   5.979  0.0358  0.3031 -0.7509
 6983SOL    HW221849   4.534   1.779   5.952 -0.1897 -0.4978  1.1629
 6984SOL     OW21850   0.573   4.814   5.004 -0.0299  0.3798 -0.2718
 6984SOL    HW121851   0.609   4.722   5.020  0.2803  0.4280 -0.6762
 6984SOL    HW221852   0.625   4.880   5.058  0.0690  0.3745 -0.3600
 6985SOL     OW21853   4.928   3.292   1.898 -0.3209  0.2938  0.3519
 6985SOL    HW121854   4.871   3.220   1.937  1.0140 -0.8266  0.3223
 6985SOL    HW221855   5.024   3.264   1.901  0.2739  2.1888  0.5632
 6986SOL     OW21856   3.795   0.136   4.674 -0.0504 -0.7049  0.0195
 6986SOL    HW121857   3.709   0.101   4.712  0.3006 -0.3148  1.2216
 6986SOL    HW221858   3.784   0.233   4.652  0.4794 -0.2630  1.5553
 6987SOL     OW21859   0.352   1.864   6.939 -0.2636  0.2558 -0.4385
 6987SOL    HW121860   0.440   1.872   6.984 -0.7753  0.5521  0.5335
 6987SOL    HW221861   0.286   1.924   6.984 -0.6906  0.8789 -1.8475
 6988SOL     OW21862   2.938   1.589   6.947  0.1193 -0.3483 -0.6900
 6988SOL    HW121863   3.033   1.614   6.929 -0.2373  1.2393 -0.5466
 6988SOL    HW221864   2.877   1.648   6.893 -0.8822  1.9617  2.6116
 6989SOL     OW21865   0.630   4.615   3.070  0.4950 -0.3237  0.0268
 6989SOL    HW121866   0.654   4.695   3.125 -0.3020  1.2646 -1.8080
 6989SOL    HW221867   0.699   4.601   3.000 -0.4266  0.1324 -1.0143
 6990SOL     OW21868   3.354   5.877   0.227  0.1771  0.3247  0.3186
 6990SOL    HW121869   3.324   5.825   0.147 -1.3607  1.3117  0.2142
 6990SOL    HW221870   3.275   5.918   0.272  1.0259 -0.0813  2.2806
 6991SOL     OW21871   4.227   5.624   3.935 -0.6225 -0.1572 -0.0229
 6991SOL    HW121872   4.211   5.646   3.839  1.7149 -0.4329 -0.5213
 6991SOL    HW221873   4.281   5.540   3.942 -0.2612  0.1570  1.5185
 6992SOL     OW21874   1.114   6.552   0.154 -0.1056 -0.1749 -0.3211
 6992SOL    HW121875   1.113   6.568   0.253  0.6680 -0.9280 -0.1813
 6992SOL    HW221876   1.052   6.477   0.132 -1.2476  0.8146 -0.5785
 6993SOL     OW21877   3.659   1.476   2.775  0.1337  0.1928 -0.2739
 6993SOL    HW121878   3.587   1.442   2.714  2.0176 -0.0328 -2.5473
 6993SOL    HW221879   3.667   1.575   2.763  0.2082  0.2104 -0.0675
 6994SOL     OW21880   2.298   1.480   3.547  0.3114 -0.1333 -0.8487
 6994SOL    HW121881   2.225   1.532   3.504 -0.6216 -0.3106  0.4655
 6994SOL    HW221882   2.379   1.481   3.488  0.7185  3.6542 -0.4479
 6995SOL     OW21883   1.637   6.856   0.651 -0.1702 -0.1359 -0.3096
 6995SOL    HW121884   1.688   6.790   0.596  0.1713 -0.0273 -0.1269
 6995SOL    HW221885   1.634   6.826   0.746 -1.5777 -0.8076 -0.5380
 6996SOL     OW21886   1.106   2.442   1.906 -0.0201  0.0496  0.5008
 6996SOL    HW121887   1.044   2.372   1.871  0.0232 -0.6295  1.7035
 6996SOL    HW221888   1.150   2.408   1.989  1.3378  0.8400  0.1349
 6997SOL     OW21889   1.058   5.398   5.347 -0.4829  0.1435  0.2317
 6997SOL    HW121890   1.136   5.341   5.320 -0.5776 -0.9174  1.9864
 6997SOL    HW221891   1.087   5.493   5.353  0.1258  0.0654 -1.1466
 6998SOL     OW21892   1.107   2.435   4.567 -0.1000  0.2481 -0.0447
 6998SOL    HW121893   1.162   2.352   4.574  0.4710  0.5118 -1.1733
 6998SOL    HW221894   1.167   2.515   4.562 -0.6477  0.8054  1.6074
 6999SOL     OW21895   6.379   2.625   6.102 -0.0228 -0.0325  0.0169
 6999SOL    HW121896   6.398   2.666   6.191  0.3178 -0.7057  0.2576
 6999SOL    HW221897   6.401   2.528   6.104  2.1249  0.3412 -1.4449
 7000SOL     OW21898   6.560   5.498   1.441 -0.1501 -0.1301 -0.2042
 7000SOL    HW121899   6.470   5.513   1.399  0.3922  1.2620 -0.9441
 7000SOL    HW221900   6.626   5.472   1.370  0.2698 -0.0348  0.1494
 7001SOL     OW21901   6.445   2.967   2.867  0.3117  0.0208 -0.1889
 7001SOL    HW121902   6.514   2.932   2.931 -1.2046 -2.0033  0.4722
 7001SOL    HW221903   6.465   2.934   2.775 -1.1535 -2.9598  0.4425
 7002SOL     OW21904   1.120   4.173   2.736 -0.2053 -0.3067 -0.6250
 7002SOL    HW121905   1.060   4.235   2.686 -0.8463 -0.0338  0.4519
 7002SOL    HW221906   1.146   4.097   2.676 -1.7730 -0.5306 -1.0637
 7003SOL     OW21907   0.387   4.579   0.425  0.0381 -0.2761  0.8011
 7003SOL    HW121908   0.336   4.541   0.347  0.7409  1.0910 -0.3686
 7003SOL    HW221909   0.324   4.624   0.487 -0.6524 -2.1577  1.5542
 7004SOL     OW21910   1.530   2.020   0.374  0.6502  0.0035 -0.2247
 7004SOL    HW121911   1.476   2.066   0.303 -2.1145  0.5820  2.0448
 7004SOL    HW221912   1.517   1.921   0.365 -0.0841  0.0932 -0.2625
 7005SOL     OW21913   2.620   5.330   5.158  0.2562  0.0343 -0.6294
 7005SOL    HW121914   2.683   5.293   5.091  0.7320  0.6854 -0.5478
 7005SOL    HW221915   2.526   5.320   5.125  0.2944 -2.0398 -0.2121
 7006SOL     OW21916   0.804   1.372   3.341 -0.0811 -0.1576 -0.6602
 7006SOL    HW121917   0.857   1.417   3.269 -0.7197 -1.1539 -1.7880
 7006SOL    HW221918   0.850   1.386   3.430  1.2877  0.2069 -1.3931
 7007SOL     OW21919   1.464   6.338   6.066  0.0481 -0.0202 -0.3041
 7007SOL    HW121920   1.537   6.344   5.997 -1.3316 -1.9778 -2.0468
 7007SOL    HW221921   1.399   6.267   6.040 -2.4137  1.4967  1.3039
 7008SOL     OW21922   6.344   4.196   2.937 -0.5964  0.2816  0.2878
 7008SOL    HW121923   6.354   4.219   2.841  3.1408 -0.8291  0.2311
 7008SOL    HW221924   6.353   4.279   2.993 -0.6011  0.6607 -0.2727
 7009SOL     OW21925   6.246   6.166   0.669  0.5060  0.5524 -0.1068
 7009SOL    HW121926   6.295   6.248   0.699  1.7159 -0.7811  1.8049
 7009SOL    HW221927   6.199   6.126   0.747  0.5212 -0.9547 -0.8382
 7010SOL     OW21928   4.653   2.043   3.697 -0.0735  0.1897  0.2091
 7010SOL    HW121929   4.698   2.058   3.786 -1.6659  2.6038  0.7218
 7010SOL    HW221930   4.716   2.067   3.623  0.7576 -0.3323  0.7317
 7011SOL     OW21931   3.208   5.284   6.082  0.0975 -0.0445  0.0358
 7011SOL    HW121932   3.150   5.350   6.035  1.0376  1.0233  0.3143
 7011SOL    HW221933   3.275   5.247   6.018  1.7321  1.8185  0.5774
 7012SOL     OW21934   0.844   2.989   1.412  0.1619  0.3004 -0.1436
 7012SOL    HW121935   0.884   2.906   1.373 -0.1561  0.6142 -1.1721
 7012SOL    HW221936   0.885   3.069   1.370 -0.7339  0.6377 -0.3964
 7013SOL     OW21937   2.889   4.078   0.484  0.0670  0.5046  0.0835
 7013SOL    HW121938   2.940   4.043   0.405 -0.3840 -1.3306  0.5643
 7013SOL    HW221939   2.945   4.146   0.531  1.3587 -0.1729 -0.4123
 7014SOL     OW21940   0.474   4.866   0.688  0.4648  0.3455 -0.4586
 7014SOL    HW121941   0.563   4.904   0.712  0.0935  2.3519 -2.0251
 7014SOL    HW221942   0.405   4.897   0.754  0.3093  1.8442 -1.2829
 7015SOL     OW21943   5.767   0.636   2.022 -0.4464  0.2195  1.0703
 7015SOL    HW121944   5.835   0.626   1.949 -1.8464 -2.3405 -0.0655
 7015SOL    HW221945   5.694   0.696   1.991  0.4825  1.7026  1.6739
 7016SOL     OW21946   2.522   5.146   0.450  0.5761 -0.3089 -0.7600
 7016SOL    HW121947   2.445   5.082   0.446 -0.6192  1.0783 -0.6008
 7016SOL    HW221948   2.522   5.193   0.538  0.9689  0.4810 -1.1672
 7017SOL     OW21949   0.238   4.139   0.002  0.0358  0.7888  0.3260
 7017SOL    HW121950   0.325   4.117  -0.041  1.5304  0.9386  3.0386
 7017SOL    HW221951   0.245   4.228   0.047 -1.2085  0.3916  1.3701
 7018SOL     OW21952   6.387   2.426   3.506  0.4386 -0.0749 -0.5600
 7018SOL    HW121953   6.386   2.395   3.601 -0.1650  1.1016 -0.1510
 7018SOL    HW221954   6.307   2.388   3.458  0.3475 -0.0918 -0.3960
 7019SOL     OW21955   1.998   0.065   1.872  0.1370  0.2569 -0.2484
 7019SOL    HW121956   1.986   0.137   1.804  1.0329  1.4884  0.8313
 7019SOL    HW221957   1.916   0.060   1.930 -0.4659 -0.5273 -1.1360
 7020SOL     OW21958   0.173   1.975   1.123  0.0759 -0.3570  0.0883
 7020SOL    HW121959   0.174   1.914   1.202  0.0140 -0.1285  0.2665
 7020SOL    HW221960   0.094   2.035   1.129 -0.9968 -1.5882 -1.1054
 7021SOL     OW21961   5.995   2.842   3.947 -0.5084  0.2966 -0.4159
 7021SOL    HW121962   5.974   2.934   3.980  1.2687  0.1540  1.2986
 7021SOL    HW221963   6.054   2.848   3.867  1.4106  0.7176  0.9664
 7022SOL     OW21964   0.807   2.923   1.742 -0.1601 -0.1509 -0.8407
 7022SOL    HW121965   0.900   2.959   1.754  0.5229 -1.8590 -0.7213
 7022SOL    HW221966   0.751   2.991   1.695  1.4745  0.4844 -1.9824
 7023SOL     OW21967   5.203   0.421   0.459  0.6747  0.1769 -0.5628
 7023SOL    HW121968   5.105   0.412   0.472  0.9554 -0.6018  1.1947
 7023SOL    HW221969   5.245   0.456   0.543  2.2255 -2.0805 -0.3186
 7024SOL     OW21970   2.815   4.876   4.979  0.4430  0.2731 -0.5321
 7024SOL    HW121971   2.813   4.778   5.000 -1.7071  0.0276 -1.6040
 7024SOL    HW221972   2.758   4.926   5.044  0.6167  0.6519 -0.6665
 7025SOL     OW21973   4.508   0.416   6.412  0.3140  0.4312 -0.0513
 7025SOL    HW121974   4.552   0.474   6.481  2.6127 -1.6380  0.3567
 7025SOL    HW221975   4.568   0.407   6.333  0.2092 -1.6132  0.0391
 7026SOL     OW21976   2.698   1.529   2.382  0.0151  0.4038  0.1958
 7026SOL    HW121977   2.772   1.573   2.331  1.5575 -1.3100  0.8097
 7026SOL    HW221978   2.628   1.596   2.405  1.3682  2.1066 -0.4252
 7027SOL     OW21979   3.470   3.807   1.644 -0.3699 -0.3071 -0.3801
 7027SOL    HW121980   3.408   3.728   1.648 -1.0489  0.2602  0.9473
 7027SOL    HW221981   3.495   3.834   1.736  0.3429  0.6648 -0.8454
 7028SOL     OW21982   3.486   6.580   6.988  0.1315 -0.4601 -0.1581
 7028SOL    HW121983   3.398   6.538   7.009  1.0882 -2.7160 -0.4452
 7028SOL    HW221984   3.517   6.634   7.067 -0.8244 -0.8170  0.4807
 7029SOL     OW21985   3.328   4.098   3.440 -0.3934  0.3624 -0.1994
 7029SOL    HW121986   3.396   4.056   3.500 -1.1298  0.0620  0.4448
 7029SOL    HW221987   3.356   4.088   3.345 -0.2783 -1.1204 -0.0287
 7030SOL     OW21988   6.069   1.208   5.053  0.1183 -0.3827 -0.3255
 7030SOL    HW121989   6.123   1.182   5.134  0.5697  2.1494  0.2760
 7030SOL    HW221990   5.994   1.143   5.041  1.3980 -2.1535  0.7226
 7031SOL     OW21991   5.051   3.984   6.921  0.5804 -0.3867 -0.9140
 7031SOL    HW121992   5.105   3.959   7.002 -1.2075 -0.6371  0.2682
 7031SOL    HW221993   4.962   3.941   6.927 -0.8861  2.3764 -1.2534
 7032SOL     OW21994   3.530   0.134   3.929  0.1283  0.7579  0.5018
 7032SOL    HW121995   3.588   0.053   3.918  0.8041  0.9237  2.5538
 7032SOL    HW221996   3.473   0.145   3.847  1.0792 -0.9254 -0.4398
 7033SOL     OW21997   0.664   1.967   5.937  0.0263  0.3704  0.0131
 7033SOL    HW121998   0.600   1.927   6.003  0.4082  1.0256  0.8008
 7033SOL    HW221999   0.622   1.968   5.846 -0.4466 -0.7007  0.2028
 7034SOL     OW22000   5.419   1.509   3.313  0.1705  0.2691 -0.0960
 7034SOL    HW122001   5.417   1.410   3.302 -2.6513  0.1801  0.5798
 7034SOL    HW222002   5.335   1.549   3.276  0.5125  2.2507  1.1200
 7035SOL     OW22003   3.890   1.354   2.399 -0.4634  0.2696  0.3019
 7035SOL    HW122004   3.816   1.288   2.385 -0.1343  0.2362 -1.4351
 7035SOL    HW222005   3.921   1.349   2.494 -3.4169  1.0604  1.4186
 7036SOL     OW22006   6.684   3.055   1.309  0.2329 -0.0444 -0.0976
 7036SOL    HW122007   6.756   3.063   1.379 -0.1552 -1.7817  0.5614
 7036SOL    HW222008   6.595   3.053   1.354  0.0338 -2.2556 -0.5015
 7037SOL     OW22009   6.294   2.491   2.194  0.3412 -0.2677 -0.0455
 7037SOL    HW122010   6.325   2.396   2.199 -0.2761 -0.5116 -0.7395
 7037SOL    HW222011   6.221   2.506   2.260 -1.4939 -1.0459 -1.7980
 7038SOL     OW22012   1.662   2.160   0.020 -0.2772  0.2076 -0.6186
 7038SOL    HW122013   1.716   2.231  -0.026  0.0614 -1.0242 -2.2054
 7038SOL    HW222014   1.718   2.115   0.089  0.1410  0.1895 -0.9649
 7039SOL     OW22015   6.031   6.391   1.905 -0.3397 -0.1543  0.1708
 7039SOL    HW122016   6.117   6.345   1.884  0.5768  0.4391  2.3804
 7039SOL    HW222017   6.035   6.430   1.997 -2.8209  0.2824  0.1696
 7040SOL     OW22018   6.251   2.676   4.562 -0.3168 -0.0951 -0.5409
 7040SOL    HW122019   6.249   2.732   4.646  2.4897 -0.9745  0.2255
 7040SOL    HW222020   6.204   2.589   4.579 -0.4969  0.0717 -0.1674
 7041SOL     OW22021   6.636   6.292   2.259  0.5686  0.0931  0.4893
 7041SOL    HW122022   6.726   6.248   2.263  0.0853 -0.8693  1.2227
 7041SOL    HW222023   6.572   6.232   2.211 -0.7940 -1.3777  3.8580
 7042SOL     OW22024   3.658   4.532   5.744  0.6429 -0.2696 -0.8192
 7042SOL    HW122025   3.620   4.555   5.833  1.1491  0.4566 -0.7839
 7042SOL    HW222026   3.594   4.472   5.695  0.8476 -1.5576  0.4399
 7043SOL     OW22027   2.303   6.619   1.343 -0.2957  0.4200  0.3456
 7043SOL    HW122028   2.316   6.559   1.264 -1.4106  1.7346 -0.9040
 7043SOL    HW222029   2.351   6.582   1.422 -0.7936 -1.9937 -0.4107
 7044SOL     OW22030   4.811   1.655   5.431 -0.0380  0.1145  0.2163
 7044SOL    HW122031   4.753   1.631   5.352  0.3254 -0.6065  0.1566
 7044SOL    HW222032   4.836   1.571   5.479 -0.3152  0.5593  1.1481
 7045SOL     OW22033   4.149   6.538   1.164 -0.3146 -0.0647  0.0936
 7045SOL    HW122034   4.184   6.541   1.070 -1.8206  0.0591 -0.5078
 7045SOL    HW222035   4.201   6.601   1.221  1.4984 -1.1094 -0.3165
 7046SOL     OW22036   2.831   6.128   2.319  0.6847 -0.3349 -0.0498
 7046SOL    HW122037   2.862   6.042   2.278  1.3759  0.3070 -0.9140
 7046SOL    HW222038   2.750   6.160   2.269  2.0730  0.9271 -1.6070
 7047SOL     OW22039   2.058   5.675   2.140 -0.1506 -0.0399 -0.0536
 7047SOL    HW122040   2.095   5.650   2.051 -0.3308  0.5225 -0.2919
 7047SOL    HW222041   2.043   5.592   2.195 -1.6531 -0.5700 -1.1804
 7048SOL     OW22042   0.458   5.181   3.709 -0.6103  0.0617  0.2324
 7048SOL    HW122043   0.375   5.129   3.730 -0.7758  0.7212  1.2938
 7048SOL    HW222044   0.475   5.248   3.782  0.7318  0.0927 -0.0824
 7049SOL     OW22045   1.246   1.479   4.956  0.1337 -0.0889  0.1403
 7049SOL    HW122046   1.207   1.410   5.017 -0.0463  0.1869  0.3411
 7049SOL    HW222047   1.300   1.544   5.009  1.7757 -1.0672 -0.2568
 7050SOL     OW22048   5.839   5.064   0.310 -0.4180 -0.2373  0.5071
 7050SOL    HW122049   5.769   5.114   0.361 -0.0708 -1.0715  1.8551
 7050SOL    HW222050   5.817   5.066   0.212 -0.7032  2.0306  0.5787
 7051SOL     OW22051   2.725   0.259   1.977  0.0663  0.2610  0.0885
 7051SOL    HW122052   2.805   0.205   1.954  0.3003 -0.0707  1.5671
 7051SOL    HW222053   2.714   0.333   1.911  1.8000  0.5348  0.0770
 7052SOL     OW22054   5.389   0.012   3.301 -0.2228  0.6014  0.7466
 7052SOL    HW122055   5.481  -0.027   3.305  1.0065  3.4055  1.9001
 7052SOL    HW222056   5.343  -0.020   3.217  1.8506 -0.6470  0.0106
 7053SOL     OW22057   6.851   5.780   3.421  0.2464  0.0329 -0.3488
 7053SOL    HW122058   6.922   5.834   3.375  0.6139 -1.1418 -1.2022
 7053SOL    HW222059   6.851   5.687   3.385 -2.1909  0.1620 -0.9008
 7054SOL     OW22060   5.696   0.196   2.665 -0.1217  0.1127  0.2878
 7054SOL    HW122061   5.719   0.172   2.570 -1.5303  1.8830 -0.5583
 7054SOL    HW222062   5.715   0.293   2.681 -0.2897 -0.0647  1.7100
 7055SOL     OW22063   2.873   6.867   0.768 -0.4922  0.0018  0.0160
 7055SOL    HW122064   2.909   6.787   0.719 -1.3253 -0.5206  0.2504
 7055SOL    HW222065   2.833   6.931   0.702  0.0991  0.1996 -0.1624
 7056SOL     OW22066   1.485   5.045   1.266 -0.2431  0.1354 -0.4459
 7056SOL    HW122067   1.482   4.963   1.208  2.5391 -0.1580 -0.2949
 7056SOL    HW222068   1.570   5.047   1.318 -1.5467  1.6727  1.8243
 7057SOL     OW22069   3.321   0.272   4.120  0.1952  0.0407  0.1753
 7057SOL    HW122070   3.244   0.287   4.059  0.9345 -0.0704 -0.8070
 7057SOL    HW222071   3.407   0.281   4.069  0.8011 -1.4157  0.8684
 7058SOL     OW22072   6.557   5.457   5.481  0.0063 -0.2815  0.1548
 7058SOL    HW122073   6.627   5.480   5.548  0.8170 -0.9397 -0.4503
 7058SOL    HW222074   6.493   5.534   5.472  0.4098  0.1629  1.0118
 7059SOL     OW22075   1.356   0.853   5.675  0.3628  0.2823  0.4737
 7059SOL    HW122076   1.335   0.885   5.583  1.4075  0.1432  0.1823
 7059SOL    HW222077   1.394   0.928   5.729  0.3084  0.2105  0.6136
 7060SOL     OW22078   3.843   2.062   1.873  0.0269  0.3585  0.0879
 7060SOL    HW122079   3.784   2.124   1.924 -1.5814 -1.0539  0.0061
 7060SOL    HW222080   3.821   2.068   1.776  0.1586 -0.0392  0.0346
 7061SOL     OW22081   2.017   5.490   0.282 -0.2109  0.5694  0.1076
 7061SOL    HW122082   2.097   5.431   0.283 -1.1553 -0.7745 -0.7185
 7061SOL    HW222083   2.002   5.525   0.189 -0.1277  1.4650  0.4204
 7062SOL     OW22084   4.180   0.355   4.668 -0.5639  0.4413 -0.5981
 7062SOL    HW122085   4.205   0.262   4.644 -1.9957  0.2070 -1.2781
 7062SOL    HW222086   4.130   0.356   4.755 -1.1355  0.4735 -0.9184
 7063SOL     OW22087   1.192   1.242   1.072 -0.1832  0.1500 -0.1329
 7063SOL    HW122088   1.211   1.165   1.133 -0.6029  0.1714  0.0315
 7063SOL    HW222089   1.276   1.294   1.057  0.0758 -0.2615 -0.1371
 7064SOL     OW22090   3.140   3.507   6.639 -0.5021  0.5156 -0.2969
 7064SOL    HW122091   3.151   3.504   6.540 -1.9381 -0.0873 -0.4628
 7064SOL    HW222092   3.176   3.423   6.679 -2.0334 -0.2955 -0.5669
 7065SOL     OW22093   3.702   0.619   1.949 -0.4773 -0.6773 -0.6072
 7065SOL    HW122094   3.763   0.682   1.997 -0.2888 -1.2174 -0.1351
 7065SOL    HW222095   3.747   0.584   1.867  0.2329 -1.8129  0.2415
 7066SOL     OW22096   5.298   1.961   1.702  0.3589  0.3740  0.0775
 7066SOL    HW122097   5.259   2.030   1.641  2.1550  0.3741 -1.1472
 7066SOL    HW222098   5.261   1.973   1.794 -0.6165  1.9047 -0.4829
 7067SOL     OW22099   4.234   5.643   6.215 -0.4246 -0.6018  0.1152
 7067SOL    HW122100   4.179   5.564   6.188 -1.6477  0.4327 -0.5134
 7067SOL    HW222101   4.282   5.679   6.134 -0.6626 -0.1142  0.1860
 7068SOL     OW22102   3.991   4.943   3.198  0.5417 -0.9021  0.8774
 7068SOL    HW122103   3.903   4.898   3.181  0.2847  0.1202 -0.7275
 7068SOL    HW222104   4.061   4.903   3.138  1.1313 -1.5473  1.9754
 7069SOL     OW22105   2.880   1.108   5.990 -0.1660  0.1899  0.4742
 7069SOL    HW122106   2.952   1.144   6.049 -0.5411  2.5047 -0.3388
 7069SOL    HW222107   2.794   1.104   6.041  0.0680 -0.4385  0.8254
 7070SOL     OW22108   1.945   2.210   5.085  0.7720 -0.4024  0.0480
 7070SOL    HW122109   1.959   2.309   5.091  0.6636 -0.3695 -0.2209
 7070SOL    HW222110   1.879   2.182   5.155  1.1701 -0.3594  0.4432
 7071SOL     OW22111   6.111   5.542   5.361 -0.1380  0.3491 -0.1849
 7071SOL    HW122112   6.161   5.532   5.447 -0.4588  2.0525  0.2402
 7071SOL    HW222113   6.087   5.452   5.325  4.1979 -0.6957 -1.0178
 7072SOL     OW22114   0.501   4.017   5.290  0.2707  0.4596 -0.4325
 7072SOL    HW122115   0.492   4.000   5.192  0.1356  1.2575 -0.5659
 7072SOL    HW222116   0.530   3.933   5.336  1.0473  0.2703 -1.2462
 7073SOL     OW22117   3.587   1.633   5.983  0.1819  0.1022 -0.7873
 7073SOL    HW122118   3.527   1.656   5.906 -1.8236 -0.6275  0.4524
 7073SOL    HW222119   3.597   1.713   6.042 -3.9693 -0.8476  1.6948
 7074SOL     OW22120   5.946   2.882   0.999  0.2917 -0.2761  0.0445
 7074SOL    HW122121   5.991   2.941   0.932 -0.2075 -0.0674 -0.1144
 7074SOL    HW222122   5.878   2.935   1.049  2.4536  0.2897  2.5892
 7075SOL     OW22123   1.839   2.963   3.805 -0.0910  0.0779 -0.0154
 7075SOL    HW122124   1.825   2.873   3.846  0.5998  0.9596  2.3074
 7075SOL    HW222125   1.931   2.996   3.829 -0.0638  1.1057 -1.4542
 7076SOL     OW22126   6.758   2.102   0.739 -0.7175 -0.6705  0.1127
 7076SOL    HW122127   6.738   2.135   0.647  0.9876  1.8491  0.5450
 7076SOL    HW222128   6.768   2.180   0.802 -1.0707 -2.2723  2.2839
 7077SOL     OW22129   3.200   5.294   1.979 -0.0845 -0.1301  0.3082
 7077SOL    HW122130   3.264   5.219   1.965 -1.8142 -1.3044 -2.0753
 7077SOL    HW222131   3.246   5.381   1.961  1.2258 -0.8187  0.1919
 7078SOL     OW22132   6.907   0.417   0.154 -0.2157 -0.2421 -0.3863
 7078SOL    HW122133   6.910   0.429   0.054  1.3894  1.6743 -0.1791
 7078SOL    HW222134   6.996   0.441   0.193 -0.9006 -0.6626  1.5564
 7079SOL     OW22135   1.749   5.312   3.651 -0.7131 -0.0961  0.6082
 7079SOL    HW122136   1.822   5.335   3.586 -1.4493 -0.5756 -0.4214
 7079SOL    HW222137   1.677   5.262   3.603 -1.7703  0.4531  1.5833
 7080SOL     OW22138   3.593   0.485   6.325  0.1531  0.1530  0.4466
 7080SOL    HW122139   3.508   0.537   6.330  0.8849  1.2689  3.1778
 7080SOL    HW222140   3.670   0.548   6.313  0.6519 -0.8838 -2.6157
 7081SOL     OW22141   3.895   5.899   5.936  0.2041  0.6015  0.4063
 7081SOL    HW122142   3.953   5.854   5.867  1.9117  1.5546  1.1404
 7081SOL    HW222143   3.806   5.855   5.939  0.0704  0.4799 -2.3788
 7082SOL     OW22144   1.827   4.935   0.819  0.0895 -0.1305  0.1836
 7082SOL    HW122145   1.882   4.896   0.746 -1.9752 -0.9057 -1.0061
 7082SOL    HW222146   1.754   4.992   0.781  0.7313  1.9105  1.7593
 7083SOL     OW22147   4.305   2.178   5.533  0.0823  0.3201  0.3288
 7083SOL    HW122148   4.215   2.157   5.496 -0.0850  0.8988  0.3957
 7083SOL    HW222149   4.353   2.240   5.470  0.4918 -0.0987  0.2215
 7084SOL     OW22150   1.091   5.244   0.759  0.7901 -0.5454 -0.5023
 7084SOL    HW122151   1.015   5.299   0.724  0.2074  1.0544  2.9215
 7084SOL    HW222152   1.069   5.147   0.748 -0.8650 -0.1239 -1.2943
 7085SOL     OW22153   6.607   2.160   2.266 -0.5402  0.6382 -0.1108
 7085SOL    HW122154   6.554   2.213   2.331 -0.0937  1.1791 -0.1785
 7085SOL    HW222155   6.587   2.063   2.277 -1.0799  0.7908  0.2695
 7086SOL     OW22156   2.547   0.559   5.030 -0.0926  0.1955  0.6231
 7086SOL    HW122157   2.616   0.631   5.044  0.9130 -0.3945 -1.0225
 7086SOL    HW222158   2.562   0.486   5.096  0.6950  0.1962  0.4527
 7087SOL     OW22159   6.145   2.554   3.659 -0.1682 -0.3505 -0.3437
 7087SOL    HW122160   6.220   2.523   3.601  0.9828 -0.2532  1.0431
 7087SOL    HW222161   6.160   2.649   3.686 -1.8071  0.3142 -1.5921
 7088SOL     OW22162   0.376   0.797   5.020  0.3502  0.1576  0.5902
 7088SOL    HW122163   0.437   0.769   4.946 -0.7102 -0.7519  0.0225
 7088SOL    HW222164   0.324   0.877   4.992  1.0102  0.7195  0.9398
 7089SOL     OW22165   4.200   6.681   1.643 -0.0578 -1.0248 -0.1095
 7089SOL    HW122166   4.286   6.630   1.650  0.3961 -0.2876 -0.1719
 7089SOL    HW222167   4.140   6.655   1.719  0.8243 -0.4527  0.8132
 7090SOL     OW22168   5.959   2.058   0.747  0.1481 -0.0597 -0.8944
 7090SOL    HW122169   5.994   2.033   0.657  0.9261  0.1422 -0.6630
 7090SOL    HW222170   6.028   2.113   0.795  0.0249 -0.7423  0.0913
 7091SOL     OW22171   0.566   0.173   2.884 -0.1675 -0.0667 -0.1024
 7091SOL    HW122172   0.483   0.229   2.880  1.1449  1.9160 -0.9329
 7091SOL    HW222173   0.639   0.224   2.928  0.6756 -1.7503  0.5531
 7092SOL     OW22174   4.312   0.231   6.653  0.0589  1.0147  0.6182
 7092SOL    HW122175   4.381   0.276   6.596 -0.2930 -0.5028 -1.0849
 7092SOL    HW222176   4.231   0.210   6.597 -0.0351 -1.1441  1.4748
 7093SOL     OW22177   4.776   2.387   0.635 -0.4484 -0.8478 -0.0480
 7093SOL    HW122178   4.870   2.408   0.606 -0.5520 -1.1194 -0.5977
 7093SOL    HW222179   4.770   2.390   0.735  0.0936 -0.6141 -0.0183
 7094SOL     OW22180   2.727   2.341   4.099 -0.1605  0.0781 -0.0216
 7094SOL    HW122181   2.689   2.256   4.137 -1.6279  0.8443  0.3071
 7094SOL    HW222182   2.654   2.391   4.053  0.7157  1.1197 -0.2913
 7095SOL     OW22183   3.078   5.669   3.998  0.6692  0.6628 -0.0595
 7095SOL    HW122184   3.124   5.629   4.077 -0.8254  1.0710  1.0584
 7095SOL    HW222185   3.125   5.641   3.914  0.4735 -2.3753  0.7288
 7096SOL     OW22186   0.279   5.937   0.996  0.3937  0.0634 -0.1514
 7096SOL    HW122187   0.296   5.979   0.907 -0.7100 -0.3485 -0.5767
 7096SOL    HW222188   0.253   6.007   1.062  0.0811  0.2405 -0.4582
 7097SOL     OW22189   4.964   2.782   2.486  0.4770 -0.1406  0.3388
 7097SOL    HW122190   5.045   2.840   2.474  1.0394 -0.9798 -0.0330
 7097SOL    HW222191   4.893   2.833   2.534  1.1725  0.6604  0.5387
 7098SOL     OW22192   2.066   0.023   3.195  0.7814  0.1782  0.7548
 7098SOL    HW122193   2.074  -0.068   3.236 -1.1253 -0.6951 -0.6234
 7098SOL    HW222194   2.123   0.027   3.113  0.4194  0.0012  0.4904
 7099SOL     OW22195   3.026   2.199   5.775  0.0340  0.2380 -0.8073
 7099SOL    HW122196   2.994   2.200   5.680  1.1236 -2.2433 -1.2765
 7099SOL    HW222197   3.104   2.261   5.784 -0.0629  0.4761 -1.5363
 7100SOL     OW22198   0.486   4.731   6.686  0.4895 -0.2823 -0.8334
 7100SOL    HW122199   0.474   4.634   6.667  1.1805 -1.4936  3.7662
 7100SOL    HW222200   0.396   4.775   6.692 -0.1611 -1.7200  1.1402
 7101SOL     OW22201   2.480   0.219   3.994  0.4613 -0.2947 -0.0665
 7101SOL    HW122202   2.525   0.153   4.054  1.0913 -0.1155 -0.3355
 7101SOL    HW222203   2.426   0.282   4.050  1.8191  0.4848  0.4374
 7102SOL     OW22204   6.919   1.835   3.178  0.1209 -0.2337 -0.1661
 7102SOL    HW122205   7.003   1.789   3.149 -0.6528 -0.6141 -1.8879
 7102SOL    HW222206   6.841   1.773   3.166 -0.5925  0.5833  0.1135
 7103SOL     OW22207   6.658   4.906   4.042 -0.3451  1.0847  0.4880
 7103SOL    HW122208   6.623   4.864   4.125  2.2328 -2.0175  0.2043
 7103SOL    HW222209   6.595   4.889   3.966 -1.0414  0.8863  1.1050
 7104SOL     OW22210   3.531   0.681   5.474  0.5987  0.1372  0.8099
 7104SOL    HW122211   3.431   0.690   5.482  0.6534  0.0512  1.6872
 7104SOL    HW222212   3.553   0.630   5.390 -0.0397  1.0413  0.0725
 7105SOL     OW22213   3.593   2.869   1.525 -0.6558  0.2418  0.0270
 7105SOL    HW122214   3.520   2.819   1.573 -0.4415 -1.7288 -1.5640
 7105SOL    HW222215   3.639   2.930   1.589 -1.8470 -0.5788  1.7561
 7106SOL     OW22216   3.432   1.766   2.846  0.3949 -0.4394 -0.2092
 7106SOL    HW122217   3.508   1.734   2.903  0.8145  0.7884 -0.0504
 7106SOL    HW222218   3.401   1.690   2.788  1.2138 -1.1856  0.2838
 7107SOL     OW22219   5.091   6.816   0.499 -0.3975  0.3344 -0.1270
 7107SOL    HW122220   5.011   6.762   0.475  0.0931 -0.0906 -0.8932
 7107SOL    HW222221   5.165   6.795   0.434  0.7552 -0.2606  1.3242
 7108SOL     OW22222   4.248   6.696   1.343 -0.0226  0.2151 -0.0294
 7108SOL    HW122223   4.299   6.764   1.290 -1.6908  1.3891 -0.1856
 7108SOL    HW222224   4.249   6.721   1.439 -0.5615  0.4096 -0.0749
 7109SOL     OW22225   2.406   4.301   6.680  0.4604  0.0444  0.2752
 7109SOL    HW122226   2.387   4.388   6.635 -0.6424  0.3023  1.2026
 7109SOL    HW222227   2.503   4.277   6.667 -0.1194 -0.8019 -3.7250
 7110SOL     OW22228   4.450   4.791   0.053  0.0317  0.3190 -0.0451
 7110SOL    HW122229   4.434   4.865   0.118  1.3591 -0.4336  1.2035
 7110SOL    HW222230   4.414   4.706   0.091  2.0717 -0.3920  0.3936
 7111SOL     OW22231   4.475   1.351   3.999 -0.4577 -0.2257 -0.2060
 7111SOL    HW122232   4.511   1.291   3.928  1.1379  1.2477 -0.6909
 7111SOL    HW222233   4.502   1.315   4.089  0.4843 -0.2464 -0.4874
 7112SOL     OW22234   0.095   5.712   4.997 -0.1779  0.4584 -0.2629
 7112SOL    HW122235   0.003   5.697   5.034  0.0155  0.2182  0.1183
 7112SOL    HW222236   0.141   5.784   5.049  1.0782 -1.6539  1.7131
 7113SOL     OW22237   2.534   6.843   4.722  0.0605 -0.6940  0.1775
 7113SOL    HW122238   2.624   6.856   4.762  0.0545 -1.0527  0.3121
 7113SOL    HW222239   2.516   6.915   4.655 -1.0826  1.6633  2.8284
 7114SOL     OW22240   5.525   1.813   1.410 -0.3335 -0.0875 -0.2412
 7114SOL    HW122241   5.525   1.880   1.484 -2.1468 -0.9065  0.5392
 7114SOL    HW222242   5.578   1.733   1.437 -0.1594  0.0233 -0.2473
 7115SOL     OW22243   5.154   3.121   6.612 -0.0716 -0.4047  0.3176
 7115SOL    HW122244   5.215   3.043   6.601  0.4335 -0.1810  1.4017
 7115SOL    HW222245   5.103   3.135   6.527 -0.8021 -2.4207  0.3697
 7116SOL     OW22246   6.637   4.414   3.230  0.1285 -0.4114  0.0590
 7116SOL    HW122247   6.717   4.443   3.178  0.4949 -0.9788  0.3000
 7116SOL    HW222248   6.617   4.481   3.301 -1.3809  1.2518 -1.8251
 7117SOL     OW22249   4.083   6.620   2.214 -0.2570 -0.4682 -0.3455
 7117SOL    HW122250   4.071   6.599   2.117  0.0415  3.8851 -1.5566
 7117SOL    HW222251   4.178   6.601   2.241 -0.1656 -1.0883 -1.0802
 7118SOL     OW22252   5.276   5.890   6.230  0.2112 -0.2556  1.4589
 7118SOL    HW122253   5.357   5.940   6.261 -1.0449  2.2374  0.9914
 7118SOL    HW222254   5.260   5.908   6.133 -0.3278 -1.5492  1.2921
 7119SOL     OW22255   1.041   6.333   3.164  0.9322 -0.4229 -0.1325
 7119SOL    HW122256   1.087   6.345   3.253 -0.4705 -0.2138  0.5862
 7119SOL    HW222257   1.099   6.372   3.092  1.8738 -0.1496  0.7396
 7120SOL     OW22258   2.997   2.707   1.196  0.2147 -0.4831  0.3465
 7120SOL    HW122259   2.920   2.731   1.255 -0.0806 -0.6453  0.0348
 7120SOL    HW222260   2.977   2.621   1.148 -0.6253  0.8241 -1.8102
 7121SOL     OW22261   2.893   5.734   3.076 -0.3693  0.4068  0.4458
 7121SOL    HW122262   2.966   5.666   3.082 -0.5412  0.2715  1.0375
 7121SOL    HW222263   2.886   5.767   2.981  1.3551  1.4296  0.6348
 7122SOL     OW22264   4.329   3.101   6.262  0.2094  0.0071 -0.0666
 7122SOL    HW122265   4.249   3.044   6.242  0.6082 -0.8275  0.6100
 7122SOL    HW222266   4.349   3.159   6.184 -1.6604  0.9791  0.1199
 7123SOL     OW22267   5.938   3.755   5.041  0.3873 -0.4154  0.3870
 7123SOL    HW122268   5.897   3.779   5.129 -0.2697 -0.3889  0.0814
 7123SOL    HW222269   6.032   3.725   5.055  0.1203 -0.9144  1.1598
 7124SOL     OW22270   2.284   2.262   5.322 -0.0648  0.0531 -0.0288
 7124SOL    HW122271   2.381   2.240   5.314  0.0738  0.8640 -0.7128
 7124SOL    HW222272   2.265   2.348   5.274 -1.3621 -0.8072 -1.1593
 7125SOL     OW22273   2.586   6.017   2.557  0.4190 -0.4239 -0.5216
 7125SOL    HW122274   2.650   5.963   2.502  2.9320  0.4637  1.3830
 7125SOL    HW222275   2.583   6.111   2.522  1.3186 -0.0895  0.2853
 7126SOL     OW22276   4.291   6.739   0.515  0.2838  0.3222  0.0422
 7126SOL    HW122277   4.215   6.674   0.514 -0.8287  1.5567 -1.1733
 7126SOL    HW222278   4.255   6.832   0.527  1.5942  0.9325 -0.5409
 7127SOL     OW22279   1.922   1.050   5.114  0.0080  0.0193  0.5417
 7127SOL    HW122280   1.933   1.007   5.204  0.2348 -0.3161  0.3549
 7127SOL    HW222281   1.922   1.150   5.125  0.6270 -0.0092  0.8531
 7128SOL     OW22282   5.814   5.000   1.657 -0.0297 -0.6941  0.0558
 7128SOL    HW122283   5.802   5.024   1.753  0.7846  0.5480 -0.1273
 7128SOL    HW222284   5.724   4.990   1.614 -0.4518  0.9902  0.4406
 7129SOL     OW22285   0.560   2.369   6.876 -0.1305 -0.1333 -0.1743
 7129SOL    HW122286   0.496   2.359   6.800 -0.9998 -3.2153  0.8133
 7129SOL    HW222287   0.551   2.460   6.917  1.8123  2.5194 -4.8497
 7130SOL     OW22288   3.690   6.984   4.191 -0.2019  0.1336 -0.3707
 7130SOL    HW122289   3.721   7.069   4.150  0.0897  0.4897  0.5562
 7130SOL    HW222290   3.612   7.002   4.251 -0.0554 -0.2345 -0.0664
 7131SOL     OW22291   4.452   0.843   2.509  0.4309  0.3489  0.0412
 7131SOL    HW122292   4.523   0.774   2.522  1.2743  0.7472 -2.0569
 7131SOL    HW222293   4.404   0.858   2.596  0.0528 -2.9980  0.5467
 7132SOL     OW22294   5.486   4.024   3.160 -0.1013  0.8805  0.5947
 7132SOL    HW122295   5.487   3.991   3.066  2.7121 -0.2977  0.9242
 7132SOL    HW222296   5.502   4.123   3.161  0.6330  0.7798 -0.1538
 7133SOL     OW22297   4.342   5.908   3.750  0.2487  0.2454  0.2686
 7133SOL    HW122298   4.409   5.844   3.788 -0.3179 -1.2443 -1.1217
 7133SOL    HW222299   4.386   5.965   3.680  0.5386  0.7791  0.8714
 7134SOL     OW22300   4.344   5.766   4.776 -0.6815  0.0104  0.0800
 7134SOL    HW122301   4.391   5.820   4.847 -0.9693  0.3774 -0.0056
 7134SOL    HW222302   4.348   5.669   4.800  0.4521 -0.0102 -0.1150
 7135SOL     OW22303   2.588   3.551   0.454 -0.1864  0.1287  0.1961
 7135SOL    HW122304   2.623   3.460   0.477  1.2518  0.7556  0.5987
 7135SOL    HW222305   2.663   3.607   0.418 -1.2075  0.9322 -0.7534
 7136SOL     OW22306   1.225   3.980   5.246 -0.7061  0.0377  0.6665
 7136SOL    HW122307   1.312   3.943   5.214 -0.1795 -0.8252  2.8821
 7136SOL    HW222308   1.161   3.905   5.261 -1.7820  0.6422 -0.6849
 7137SOL     OW22309   1.268   0.546   1.737 -0.5607  0.3247  0.0865
 7137SOL    HW122310   1.296   0.618   1.674 -2.0251  1.1944  0.3923
 7137SOL    HW222311   1.261   0.459   1.687 -0.5205  0.7489 -0.6792
 7138SOL     OW22312   6.241   4.633   0.220 -0.7654  0.7368  0.2760
 7138SOL    HW122313   6.260   4.731   0.215 -3.0177  1.2323  0.1918
 7138SOL    HW222314   6.171   4.616   0.290 -0.7042 -0.7619  0.0147
 7139SOL     OW22315   5.632   6.664   1.437 -0.0855 -0.2154  0.1627
 7139SOL    HW122316   5.690   6.746   1.434 -0.9965  0.5221  1.4717
 7139SOL    HW222317   5.686   6.584   1.413  1.1393  0.6217  0.0418
 7140SOL     OW22318   5.754   4.325   7.018 -0.2477  0.6941  0.1740
 7140SOL    HW122319   5.806   4.240   7.027 -3.3231 -1.4252 -0.4515
 7140SOL    HW222320   5.795   4.382   6.946  1.6076 -0.4248  0.2720
 7141SOL     OW22321   1.628   1.677   2.052  0.3643 -0.0896  0.4084
 7141SOL    HW122322   1.651   1.709   1.960  0.9888  1.5374  1.0830
 7141SOL    HW222323   1.585   1.587   2.046 -0.9489  0.5844 -1.5801
 7142SOL     OW22324   4.842   1.250   5.851  0.2385 -0.2267 -0.7800
 7142SOL    HW122325   4.922   1.244   5.910 -0.4253 -0.7200  0.0972
 7142SOL    HW222326   4.776   1.315   5.891 -1.0169 -1.9235  0.0543
 7143SOL     OW22327   1.727   3.355   6.311  0.3978 -0.1252  0.3964
 7143SOL    HW122328   1.716   3.379   6.214 -0.7494  0.5531  0.6731
 7143SOL    HW222329   1.798   3.411   6.352 -0.3691  0.8962  0.3714
 7144SOL     OW22330   5.214   1.527   6.981 -0.3775  0.0398  0.1955
 7144SOL    HW122331   5.192   1.555   6.887 -0.3542 -1.6446 -0.3361
 7144SOL    HW222332   5.168   1.589   7.045 -0.0467  1.4906 -0.9012
 7145SOL     OW22333   6.104   2.701   6.783  0.1201 -0.1219 -0.1722
 7145SOL    HW122334   6.133   2.613   6.746  0.6792 -0.8835  1.9397
 7145SOL    HW222335   6.083   2.764   6.707 -0.2243 -2.0120 -1.7254
 7146SOL     OW22336   0.681   1.612   4.124  0.2254 -0.0456 -0.1363
 7146SOL    HW122337   0.680   1.709   4.101 -1.4778 -0.0024 -0.0349
 7146SOL    HW222338   0.688   1.600   4.223 -0.6565  0.0234 -0.0576
 7147SOL     OW22339   0.227   0.781   6.617 -0.0600 -0.1127  0.0100
 7147SOL    HW122340   0.170   0.707   6.583 -0.4442  0.2732 -0.2046
 7147SOL    HW222341   0.276   0.823   6.540  0.5195 -0.4487  0.1954
 7148SOL     OW22342   6.346   6.291   0.044 -0.0926  0.1100 -0.2280
 7148SOL    HW122343   6.434   6.245   0.051 -0.4113 -1.0898 -2.8878
 7148SOL    HW222344   6.337   6.333  -0.046 -1.5786  1.7072  0.6080
 7149SOL     OW22345   6.964   1.329   0.805 -0.0903 -0.2075 -0.2257
 7149SOL    HW122346   6.911   1.254   0.844  1.0106 -0.8244  0.1189
 7149SOL    HW222347   6.979   1.312   0.708 -0.0024 -0.3406 -0.1891
 7150SOL     OW22348   1.927   2.357   1.044 -0.4839 -0.5323  0.4552
 7150SOL    HW122349   2.012   2.308   1.065 -0.3929 -0.8232 -0.5527
 7150SOL    HW222350   1.914   2.430   1.110  0.9414 -0.0131  0.1898
 7151SOL     OW22351   4.678   1.619   6.510  0.2113  0.1383  0.0459
 7151SOL    HW122352   4.629   1.563   6.577  0.0396  1.5514  1.1530
 7151SOL    HW222353   4.613   1.679   6.463  0.6361  0.8048  0.2928
 7152SOL     OW22354   0.273   6.608   2.783 -0.1001 -0.2565  0.4213
 7152SOL    HW122355   0.301   6.516   2.757 -0.2132 -0.5244  1.2405
 7152SOL    HW222356   0.301   6.673   2.712 -1.2903 -1.0987 -0.8652
 7153SOL     OW22357   5.637   5.722   5.204 -0.0158 -0.7411 -0.2041
 7153SOL    HW122358   5.548   5.687   5.232 -0.4110  1.8737  2.3340
 7153SOL    HW222359   5.706   5.698   5.273  0.3361  0.6395 -0.0389
 7154SOL     OW22360   5.563   3.561   1.859  0.4024 -0.0556 -0.4429
 7154SOL    HW122361   5.537   3.653   1.890 -0.9744 -0.8940  1.0662
 7154SOL    HW222362   5.612   3.514   1.932  1.4969 -0.3854 -1.3674
 7155SOL     OW22363   1.715   6.301   1.447 -0.4399 -0.0385 -0.0123
 7155SOL    HW122364   1.808   6.272   1.471 -0.2554  0.3615 -0.2445
 7155SOL    HW222365   1.649   6.238   1.490 -0.0861  0.1007  0.7609
 7156SOL     OW22366   6.744   2.615   5.793 -0.5829  0.2635 -0.0854
 7156SOL    HW122367   6.735   2.701   5.843  0.6847 -0.0763  0.8062
 7156SOL    HW222368   6.761   2.634   5.696 -1.4611  0.9823 -0.1069
 7157SOL     OW22369   0.527   4.671   5.658 -0.0984  0.7540  0.0425
 7157SOL    HW122370   0.500   4.695   5.752 -1.1969 -0.3082  0.0298
 7157SOL    HW222371   0.448   4.681   5.597  0.3334  0.4549 -0.5755
 7158SOL     OW22372   4.912   5.607   4.563 -0.7783 -0.6148 -0.6499
 7158SOL    HW122373   5.003   5.646   4.552 -0.7931 -0.5084 -0.3810
 7158SOL    HW222374   4.844   5.674   4.533 -0.9567  0.5437  2.0655
 7159SOL     OW22375   0.712   2.185   4.141 -0.5083  0.1950 -0.4189
 7159SOL    HW122376   0.636   2.194   4.076 -2.3179  1.4794  1.7114
 7159SOL    HW222377   0.760   2.273   4.149 -0.4253  0.1052  0.1014
 7160SOL     OW22378   0.761   5.829   4.483  0.1323  0.1533  0.1702
 7160SOL    HW122379   0.730   5.773   4.407  2.1160  0.3944 -0.8626
 7160SOL    HW222380   0.683   5.853   4.541 -1.5096  0.3697 -2.0331
 7161SOL     OW22381   4.818   3.373   0.734  0.2506 -0.1454 -0.1582
 7161SOL    HW122382   4.859   3.379   0.825  0.9592  0.6225 -0.5066
 7161SOL    HW222383   4.843   3.455   0.682 -0.4407 -0.4117 -0.9205
 7162SOL     OW22384   6.649   0.168   6.774  0.2737  0.0496 -0.0019
 7162SOL    HW122385   6.607   0.240   6.718  1.2475 -0.2116 -1.1031
 7162SOL    HW222386   6.748   0.174   6.766  0.4392 -0.0377  1.6829
 7163SOL     OW22387   6.519   6.970   6.595  0.0867  0.5828 -0.3056
 7163SOL    HW122388   6.438   6.998   6.646 -0.9183 -1.2460 -0.7910
 7163SOL    HW222389   6.600   7.011   6.636 -1.0078  1.9841  0.5666
 7164SOL     OW22390   2.364   5.298   1.725 -0.1284  0.2003 -0.2113
 7164SOL    HW122391   2.453   5.252   1.731 -0.1542  0.2810  0.9644
 7164SOL    HW222392   2.344   5.318   1.629  0.7240 -0.5860 -0.5713
 7165SOL     OW22393   3.285   4.075   6.349 -0.3900  0.5148  0.1920
 7165SOL    HW122394   3.335   4.029   6.423 -2.1832  0.2487  1.2963
 7165SOL    HW222395   3.301   4.173   6.354  0.9227  0.3364 -0.1989
 7166SOL     OW22396   0.629   6.010   0.887  0.3199  0.4258 -0.2919
 7166SOL    HW122397   0.547   5.995   0.832 -1.6603 -0.0987  2.5875
 7166SOL    HW222398   0.657   5.923   0.928  0.5488  1.1136  1.0464
 7167SOL     OW22399   6.303   3.750   4.793  0.2760  1.1081 -0.0526
 7167SOL    HW122400   6.261   3.812   4.859  0.7469  0.5388  0.8116
 7167SOL    HW222401   6.402   3.747   4.809 -0.0449 -2.8783  2.7090
 7168SOL     OW22402   4.830   0.845   1.305 -0.3205  0.0807  0.4356
 7168SOL    HW122403   4.771   0.925   1.291  2.4453  1.8935 -2.1167
 7168SOL    HW222404   4.915   0.873   1.349  0.0677 -1.7998  0.9621
 7169SOL     OW22405   2.634   3.066   5.640  0.0811  0.8470 -0.7560
 7169SOL    HW122406   2.719   3.057   5.692 -0.2124 -0.3562 -0.4518
 7169SOL    HW222407   2.581   3.143   5.675 -0.7031 -0.6641  1.6747
 7170SOL     OW22408   3.769   2.687   1.763 -0.0244  0.3199 -0.2637
 7170SOL    HW122409   3.696   2.733   1.712  1.2126  1.9179 -0.6815
 7170SOL    HW222410   3.768   2.589   1.743 -1.5696  0.4282 -0.8295
 7171SOL     OW22411   0.476   5.277   3.441  0.0382 -0.4981 -0.7828
 7171SOL    HW122412   0.426   5.207   3.389  0.0680 -0.1235 -1.3166
 7171SOL    HW222413   0.474   5.253   3.539 -0.5890 -0.8505 -0.8780
 7172SOL     OW22414   0.265   2.051   4.578  0.4075  0.3940  0.1321
 7172SOL    HW122415   0.223   1.993   4.509  0.8497 -0.0103  0.1993
 7172SOL    HW222416   0.347   2.094   4.541  2.4546 -2.2172  1.2589
 7173SOL     OW22417   2.502   5.431   4.833 -0.3454 -0.0805  0.1036
 7173SOL    HW122418   2.432   5.497   4.806 -0.7774 -0.1334  1.0531
 7173SOL    HW222419   2.464   5.367   4.900  0.2893 -0.8164 -0.2238
 7174SOL     OW22420   1.153   3.924   4.644  0.4641 -0.2830  0.2419
 7174SOL    HW122421   1.220   3.854   4.624  2.8169  1.2847  2.0474
 7174SOL    HW222422   1.186   4.013   4.612 -2.2150  0.2055 -1.5747
 7175SOL     OW22423   6.724   2.834   7.014  0.5013  0.4763  0.3336
 7175SOL    HW122424   6.668   2.878   6.944  0.0434  0.8002  0.8969
 7175SOL    HW222425   6.805   2.890   7.032  1.3684 -0.3018 -0.9350
 7176SOL     OW22426   0.274   1.045   6.681  0.5867  0.1740 -0.2448
 7176SOL    HW122427   0.258   0.946   6.672  0.1683  0.3718 -2.0706
 7176SOL    HW222428   0.240   1.076   6.769  0.2478 -1.2233  0.1450
 7177SOL     OW22429   1.926   4.773   4.762  0.5272  0.1256 -0.2617
 7177SOL    HW122430   1.856   4.705   4.783 -0.8507  1.2606 -0.9756
 7177SOL    HW222431   2.007   4.756   4.819  1.1821 -3.4642 -1.9786
 7178SOL     OW22432   0.794   5.939   5.946  0.3305  0.0730 -0.1225
 7178SOL    HW122433   0.874   5.896   5.904 -0.0514  0.9236 -1.8146
 7178SOL    HW222434   0.807   6.038   5.948 -0.6090  0.2133 -0.2994
 7179SOL     OW22435   6.104   6.423   4.139 -0.2030  0.4793 -0.5370
 7179SOL    HW122436   6.050   6.345   4.109 -0.3726  0.6865 -0.7706
 7179SOL    HW222437   6.191   6.391   4.177  0.1239  0.2310 -1.4790
 7180SOL     OW22438   6.258   2.205   2.544 -0.1912 -1.0518  0.2289
 7180SOL    HW122439   6.266   2.168   2.637  2.1940  0.3812  0.6984
 7180SOL    HW222440   6.350   2.222   2.508 -1.0598  2.6073 -0.6274
 7181SOL     OW22441   3.110   1.179   6.142  0.5000  0.0892  0.4202
 7181SOL    HW122442   3.127   1.107   6.210  0.3107  0.3534  0.7483
 7181SOL    HW222443   3.153   1.154   6.056  1.4851  0.1555  0.8814
 7182SOL     OW22444   1.619   7.012   3.746  0.1028 -0.1573 -0.2016
 7182SOL    HW122445   1.711   6.980   3.725 -0.0779 -0.3428 -0.7224
 7182SOL    HW222446   1.555   6.935   3.745  0.1588 -0.2739  1.5686
 7183SOL     OW22447   1.104   0.686   1.218 -0.5567 -0.0687 -0.1273
 7183SOL    HW122448   1.126   0.650   1.309  0.2821  2.3372  0.6914
 7183SOL    HW222449   1.180   0.667   1.156  0.3095  1.0262  0.5479
 7184SOL     OW22450   0.524   3.078   3.576 -0.2056 -0.2240 -0.1988
 7184SOL    HW122451   0.518   2.993   3.523 -1.3203  0.2061 -0.7977
 7184SOL    HW222452   0.599   3.134   3.540  0.8106 -1.1073  0.4675
 7185SOL     OW22453   4.097   1.186   5.071 -0.0055  0.6113  0.0348
 7185SOL    HW122454   4.039   1.105   5.079  1.3987 -0.4791 -0.3961
 7185SOL    HW222455   4.041   1.268   5.082 -1.7178 -0.3654 -0.9661
 7186SOL     OW22456   0.963   3.047   0.919 -0.8049  0.0025 -0.1615
 7186SOL    HW122457   0.931   2.952   0.924  0.1603 -0.5418 -2.6110
 7186SOL    HW222458   1.034   3.054   0.848  0.2211  2.2891  0.9864
 7187SOL     OW22459   3.279   4.128   3.758  0.1868 -0.4660 -0.5835
 7187SOL    HW122460   3.329   4.166   3.680 -2.6109  0.9877 -1.8127
 7187SOL    HW222461   3.210   4.064   3.725  0.1120 -1.2078  0.9176
 7188SOL     OW22462   5.107   6.405   5.850 -0.6694  0.1934  0.0848
 7188SOL    HW122463   5.192   6.457   5.852 -0.3286 -0.3865  0.9060
 7188SOL    HW222464   5.031   6.465   5.875 -1.1068  1.7003 -3.9979
 7189SOL     OW22465   6.767   0.848   5.865 -0.5503  0.5792 -0.0313
 7189SOL    HW122466   6.716   0.864   5.950  0.6938  0.9377  0.6706
 7189SOL    HW222467   6.818   0.762   5.872 -0.2007  0.7629 -0.2895
 7190SOL     OW22468   0.228   4.627   0.892  0.5882  0.2765  0.1493
 7190SOL    HW122469   0.222   4.622   0.992  1.1729 -0.3759  0.1604
 7190SOL    HW222470   0.317   4.593   0.863  1.2862  2.4361 -0.4561
 7191SOL     OW22471   1.563   4.427   3.668  0.1911 -0.3267 -0.6470
 7191SOL    HW122472   1.576   4.362   3.594  1.3456 -0.1646 -0.6111
 7191SOL    HW222473   1.553   4.519   3.631  4.0243  0.2669 -0.6089
 7192SOL     OW22474   3.684   5.272   0.656 -0.1895  0.0067 -0.2478
 7192SOL    HW122475   3.617   5.275   0.583  0.0056  0.6716 -0.4011
 7192SOL    HW222476   3.638   5.251   0.743 -0.7613  1.4654 -0.1685
 7193SOL     OW22477   3.783   1.920   5.452 -0.2880 -0.6599  0.1557
 7193SOL    HW122478   3.719   1.957   5.385 -0.4892 -2.3283 -0.6360
 7193SOL    HW222479   3.874   1.912   5.411 -0.1774 -0.7407  0.4114
 7194SOL     OW22480   4.035   3.716   4.820 -0.3598  0.3901 -0.2190
 7194SOL    HW122481   3.944   3.724   4.860 -0.7270  1.7332 -1.2413
 7194SOL    HW222482   4.028   3.690   4.724  0.3235  0.6559 -0.3497
 7195SOL     OW22483   6.447   3.881   0.500 -0.1000 -0.7759  0.0918
 7195SOL    HW122484   6.375   3.941   0.466  0.2993 -0.9673 -1.1453
 7195SOL    HW222485   6.535   3.929   0.497 -0.1538 -0.5552  1.5555
 7196SOL     OW22486   3.190   2.863   6.344  0.4147  0.1197 -0.1489
 7196SOL    HW122487   3.245   2.945   6.329  0.2389  0.4458  0.9043
 7196SOL    HW222488   3.145   2.837   6.259 -1.3807  2.4831 -0.0224
 7197SOL     OW22489   3.369   3.048   6.936  0.8446 -0.3984 -0.3721
 7197SOL    HW122490   3.466   3.073   6.935  1.1746 -1.5817 -0.1765
 7197SOL    HW222491   3.334   3.057   7.029  0.7771 -0.0105 -0.4345
 7198SOL     OW22492   0.961   6.175   1.874 -0.4864 -0.2060 -0.8016
 7198SOL    HW122493   0.986   6.240   1.803 -0.5663 -0.2448 -0.8664
 7198SOL    HW222494   0.945   6.085   1.832 -0.4044 -0.2608 -0.7171
 7199SOL     OW22495   5.146   0.188   4.582 -0.0116  0.6776  0.1844
 7199SOL    HW122496   5.101   0.181   4.493 -0.9276 -0.1636  0.7009
 7199SOL    HW222497   5.243   0.165   4.572 -0.4433 -1.0438 -0.3112
 7200SOL     OW22498   6.928   4.701   6.695 -0.4718  0.0926 -0.0204
 7200SOL    HW122499   7.006   4.642   6.715 -0.7488 -0.0290  0.7145
 7200SOL    HW222500   6.960   4.796   6.691 -0.5266  0.2465  1.9589
 7201SOL     OW22501   5.687   4.266   2.760 -0.2720  0.1975  0.2382
 7201SOL    HW122502   5.694   4.197   2.688 -1.2929  2.0333 -1.7260
 7201SOL    HW222503   5.666   4.221   2.847 -0.2749 -1.9867 -0.8212
 7202SOL     OW22504   2.391   5.642   6.890  0.0065  0.2913 -0.6583
 7202SOL    HW122505   2.330   5.563   6.899  1.1402 -0.5312  0.1100
 7202SOL    HW222506   2.364   5.713   6.955 -2.3413  1.4902 -2.7905
 7203SOL     OW22507   1.094   0.121   1.261  0.7364  0.2642 -0.1711
 7203SOL    HW122508   1.055   0.213   1.273  1.7154  0.4487  2.3022
 7203SOL    HW222509   1.189   0.130   1.231  1.7147  0.3024  2.5818
 7204SOL     OW22510   5.411   0.800   2.437  0.6270 -0.1874 -0.5663
 7204SOL    HW122511   5.388   0.809   2.534  0.3339  0.1471 -0.6644
 7204SOL    HW222512   5.406   0.704   2.410 -1.4065 -0.0692 -0.7568
 7205SOL     OW22513   4.890   2.401   3.591 -0.4462 -0.4278  0.3430
 7205SOL    HW122514   4.971   2.458   3.581  0.6434 -1.5254  2.2683
 7205SOL    HW222515   4.808   2.454   3.568  0.6475  1.3094  0.2954
 7206SOL     OW22516   1.732   3.455   0.193 -0.0429  0.2464 -0.0696
 7206SOL    HW122517   1.805   3.481   0.257  0.8533 -1.5651 -0.2987
 7206SOL    HW222518   1.693   3.368   0.222  0.5338 -0.7250 -2.0809
 7207SOL     OW22519   1.507   1.450   2.128  0.0237 -0.5643 -0.9365
 7207SOL    HW122520   1.449   1.522   2.165 -0.5658  0.5054 -3.7134
 7207SOL    HW222521   1.542   1.393   2.203 -1.8685  0.7881  1.0850
 7208SOL     OW22522   0.761   0.109   5.347 -0.7597 -0.6148  0.4295
 7208SOL    HW122523   0.691   0.049   5.386 -0.5228 -0.2034  1.5275
 7208SOL    HW222524   0.847   0.058   5.339 -0.2065 -0.1284  2.5632
 7209SOL     OW22525   4.967   7.002   3.610  0.3053 -0.5403  0.1606
 7209SOL    HW122526   5.039   6.978   3.545  0.6212  0.2963  0.1932
 7209SOL    HW222527   4.994   7.082   3.663 -0.8466  0.0962 -0.1632
 7210SOL     OW22528   1.890   0.563   4.921  0.7223  0.5256 -0.3467
 7210SOL    HW122529   1.916   0.623   4.846  0.2605  0.1632 -0.7988
 7210SOL    HW222530   1.791   0.551   4.921  0.7269  0.4553  0.2680
 7211SOL     OW22531   4.649   4.745   4.579 -0.4498  0.1059 -0.0051
 7211SOL    HW122532   4.647   4.698   4.491  0.7849 -2.2225  1.1046
 7211SOL    HW222533   4.694   4.686   4.647 -2.3436  1.3035  2.4623
 7212SOL     OW22534   1.065   6.951   2.819  0.1728 -0.7185 -0.6596
 7212SOL    HW122535   1.147   6.895   2.810  0.3600 -0.4062 -0.8927
 7212SOL    HW222536   1.042   6.993   2.731  1.0358  0.9716 -0.1205
 7213SOL     OW22537   5.694   3.333   5.275 -0.0719  0.1870 -0.5895
 7213SOL    HW122538   5.628   3.408   5.280 -0.2226  0.0418 -0.4137
 7213SOL    HW222539   5.697   3.298   5.181  0.6602  1.0090 -0.8801
 7214SOL     OW22540   6.371   1.304   6.741  0.0124 -0.5953  0.1139
 7214SOL    HW122541   6.440   1.285   6.810 -1.1598 -0.2544  1.4275
 7214SOL    HW222542   6.332   1.395   6.756 -2.5471 -1.7391  1.0798
 7215SOL     OW22543   6.515   1.658   2.414 -0.2621 -0.5204 -0.5216
 7215SOL    HW122544   6.556   1.614   2.335 -0.6141 -0.8119 -0.5457
 7215SOL    HW222545   6.540   1.755   2.416  0.9957 -0.8402 -0.1495
 7216SOL     OW22546   5.789   0.311   4.299 -0.4230 -0.1760 -0.2982
 7216SOL    HW122547   5.724   0.338   4.228  0.5424  1.6530 -0.5598
 7216SOL    HW222548   5.809   0.390   4.358  1.9038 -0.5069 -0.5463
 7217SOL     OW22549   1.859   4.180   2.793  0.3271 -0.1543 -0.2010
 7217SOL    HW122550   1.894   4.267   2.826  0.7238 -0.0275 -0.9381
 7217SOL    HW222551   1.882   4.169   2.696 -1.2558 -0.2737 -0.5966
 7218SOL     OW22552   0.875   3.945   6.645 -0.2971  0.4157 -0.0935
 7218SOL    HW122553   0.927   4.009   6.702  0.2626 -0.2230  0.1244
 7218SOL    HW222554   0.923   3.929   6.559 -0.2858  0.0625 -0.0229
 7219SOL     OW22555   3.961   5.778   6.902 -0.6116 -0.4528  0.1966
 7219SOL    HW122556   3.945   5.691   6.855 -1.9110  0.3282 -0.8707
 7219SOL    HW222557   3.896   5.787   6.978 -0.9275 -0.1157 -0.1141
 7220SOL     OW22558   1.401   5.162   4.842 -0.1517  0.1330  0.5496
 7220SOL    HW122559   1.435   5.162   4.936 -0.2542  0.7598  0.5872
 7220SOL    HW222560   1.467   5.207   4.782  0.4121 -1.1794  0.1264
 7221SOL     OW22561   4.352   5.089   3.482  0.3698  0.7627 -0.0240
 7221SOL    HW122562   4.275   5.036   3.448  0.6254 -0.1887  0.8123
 7221SOL    HW222563   4.407   5.122   3.406  0.4169 -0.5122 -0.5622
 7222SOL     OW22564   0.209   5.440   2.226  0.3308 -0.4417 -0.1794
 7222SOL    HW122565   0.178   5.411   2.317  0.4544 -0.2880 -0.0864
 7222SOL    HW222566   0.152   5.397   2.156  0.4094 -0.7746 -0.0406
 7223SOL     OW22567   5.022   6.719   1.390 -0.0161 -0.8020  0.6078
 7223SOL    HW122568   5.018   6.813   1.358 -1.1027 -0.8378  0.6097
 7223SOL    HW222569   5.073   6.663   1.324  0.8766 -0.1670  0.7477
 7224SOL     OW22570   5.775   1.452   3.068 -0.4712  0.3898  0.0006
 7224SOL    HW122571   5.852   1.504   3.031 -0.6844  1.0098  0.4033
 7224SOL    HW222572   5.708   1.515   3.107 -1.4591 -0.1112 -0.8456
 7225SOL     OW22573   2.049   5.039   1.475 -0.2012 -0.5253  0.1478
 7225SOL    HW122574   1.962   5.023   1.427 -0.6409 -1.6421  1.2435
 7225SOL    HW222575   2.030   5.076   1.566  0.5222 -0.0229  0.0960
 7226SOL     OW22576   0.739   0.310   6.312 -0.1107  0.6996 -0.2332
 7226SOL    HW122577   0.831   0.348   6.307 -0.2086  0.8256 -1.4759
 7226SOL    HW222578   0.742   0.211   6.303  0.0664  0.4493  2.0570
 7227SOL     OW22579   1.417   1.757   0.947 -0.0883  0.1842 -0.0225
 7227SOL    HW122580   1.487   1.736   1.016 -0.0606  1.7535  0.4814
 7227SOL    HW222581   1.371   1.842   0.973 -0.3620  0.5870 -1.7382
 7228SOL     OW22582   6.607   4.728   3.278  0.2331 -0.6139 -0.0293
 7228SOL    HW122583   6.532   4.703   3.217 -0.6277 -0.6870  1.0358
 7228SOL    HW222584   6.599   4.825   3.302  1.3052 -0.2471 -1.0089
 7229SOL     OW22585   6.771   4.602   5.312 -0.4352 -0.0496  0.1898
 7229SOL    HW122586   6.837   4.536   5.346 -0.3389  0.2191  0.5290
 7229SOL    HW222587   6.814   4.658   5.241 -0.3865 -0.0641  0.2085
 7230SOL     OW22588   2.104   3.918   5.613 -0.2227  0.3340 -0.4715
 7230SOL    HW122589   2.108   3.979   5.692  0.2158  0.4732 -0.5966
 7230SOL    HW222590   2.144   3.964   5.534 -2.2233  0.8811 -1.2386
 7231SOL     OW22591   4.854   3.326   5.849 -0.3450 -0.3247 -0.1705
 7231SOL    HW122592   4.777   3.375   5.889 -1.2074 -0.8092 -1.2094
 7231SOL    HW222593   4.874   3.363   5.758  0.5702 -0.2934  0.0317
 7232SOL     OW22594   4.111   6.373   4.252  0.1670  0.1155 -0.6136
 7232SOL    HW122595   4.156   6.435   4.316  0.0521  1.5959 -1.9089
 7232SOL    HW222596   4.052   6.310   4.303  0.6968  0.7059  0.7792
 7233SOL     OW22597   1.756   3.600   5.165 -0.4846 -0.3961  0.3379
 7233SOL    HW122598   1.806   3.515   5.146 -0.4594 -0.1831 -0.6268
 7233SOL    HW222599   1.819   3.670   5.197  0.2348  0.4081 -2.5190
 7234SOL     OW22600   5.391   5.927   4.839 -0.3929  0.6303 -0.4531
 7234SOL    HW122601   5.427   5.937   4.746 -0.0737 -3.1969 -0.9083
 7234SOL    HW222602   5.455   5.873   4.894 -2.1491 -0.2419  0.8668
 7235SOL     OW22603   1.571   6.578   0.932 -0.0583  0.3187  0.3074
 7235SOL    HW122604   1.566   6.480   0.913  0.0220  0.6408 -1.5624
 7235SOL    HW222605   1.542   6.596   1.026 -2.8532 -1.1911 -0.1796
 7236SOL     OW22606   0.483   5.668   5.673 -0.0496  0.0268  0.2361
 7236SOL    HW122607   0.402   5.617   5.704  1.6237 -1.4618  2.4829
 7236SOL    HW222608   0.556   5.604   5.652  0.8326  1.3839 -1.0165
 7237SOL     OW22609   4.896   6.857   5.226  0.1241 -0.0948  0.2200
 7237SOL    HW122610   4.808   6.832   5.266 -0.5285  3.3251  1.2507
 7237SOL    HW222611   4.882   6.888   5.132  0.1623  0.5863  0.4308
 7238SOL     OW22612   5.842   4.062   0.342  0.0853 -0.0743 -0.5077
 7238SOL    HW122613   5.920   4.045   0.403  0.3895 -1.0023 -1.1438
 7238SOL    HW222614   5.817   3.978   0.295 -2.6218 -0.3311  1.1876
 7239SOL     OW22615   6.808   2.747   1.806  0.4659  0.1916  0.2899
 7239SOL    HW122616   6.782   2.738   1.902  0.9538 -0.2794  0.3832
 7239SOL    HW222617   6.739   2.704   1.748 -0.1507  1.0315  0.3830
 7240SOL     OW22618   6.633   0.633   0.390 -0.1007  0.4727  0.4107
 7240SOL    HW122619   6.651   0.548   0.340  0.9525  1.2175 -0.5585
 7240SOL    HW222620   6.547   0.626   0.439 -2.0852  0.2136 -2.7799
 7241SOL     OW22621   2.799   1.677   5.056  0.2119  0.5129 -0.1049
 7241SOL    HW122622   2.751   1.590   5.055  2.9886 -1.1378 -0.6695
 7241SOL    HW222623   2.804   1.711   5.150  0.3070 -0.6945  0.3499
 7242SOL     OW22624   6.508   2.482   5.772  0.0878 -0.4153  0.0542
 7242SOL    HW122625   6.453   2.489   5.855  1.1581  0.1419  0.7362
 7242SOL    HW222626   6.597   2.526   5.786 -0.2123  0.8977 -1.8357
 7243SOL     OW22627   0.444   4.583   0.741 -0.0140 -0.4807  0.6490
 7243SOL    HW122628   0.483   4.673   0.720 -1.4909  0.2002  0.7280
 7243SOL    HW222629   0.481   4.516   0.677  0.1380  0.4374 -0.2611
 7244SOL     OW22630   6.229   5.103   2.303 -0.0607 -0.5348  0.1952
 7244SOL    HW122631   6.273   5.038   2.364 -0.4320 -1.3574 -0.4032
 7244SOL    HW222632   6.193   5.180   2.357  2.2732  0.2864  0.6721
 7245SOL     OW22633   2.795   2.145   6.687  0.6009 -0.6891 -0.3015
 7245SOL    HW122634   2.741   2.229   6.682 -0.1389 -1.1543 -0.2536
 7245SOL    HW222635   2.792   2.099   6.598  2.1295  0.0073 -0.7488
 7246SOL     OW22636   4.810   1.797   5.736  0.0245  0.5966  0.1102
 7246SOL    HW122637   4.780   1.730   5.667  0.3114  0.0732  0.4858
 7246SOL    HW222638   4.897   1.768   5.774  0.2038  1.2467  0.2093
 7247SOL     OW22639   4.109   3.584   5.233 -0.6543 -0.0446  0.7179
 7247SOL    HW122640   4.190   3.535   5.266 -0.7661 -0.2296  0.7202
 7247SOL    HW222641   4.106   3.580   5.133 -0.8218 -0.2966  0.7328
 7248SOL     OW22642   1.971   1.440   6.564  0.6283 -0.4934  0.3174
 7248SOL    HW122643   1.898   1.464   6.628 -0.2987 -1.2533 -0.4220
 7248SOL    HW222644   2.025   1.522   6.543 -0.4730  0.2547  0.3160
 7249SOL     OW22645   3.276   5.989   1.247  0.3505  0.0678 -0.0402
 7249SOL    HW122646   3.344   6.058   1.269 -0.1829  0.4404  0.4725
 7249SOL    HW222647   3.190   6.011   1.293 -0.2473 -0.1600 -1.0004
 7250SOL     OW22648   6.860   4.849   4.885 -0.3347  0.1992 -0.2220
 7250SOL    HW122649   6.953   4.880   4.866 -0.5966  0.5163 -1.0332
 7250SOL    HW222650   6.805   4.927   4.913 -0.1585 -0.1293  1.0857
 7251SOL     OW22651   1.386   5.223   3.957 -0.3256 -0.0069  0.2387
 7251SOL    HW122652   1.289   5.223   3.983 -1.3783  2.6576 -3.0443
 7251SOL    HW222653   1.415   5.130   3.935 -1.9815 -0.9090  1.6287
 7252SOL     OW22654   4.147   3.658   2.746 -1.2144  0.2051 -0.6269
 7252SOL    HW122655   4.141   3.756   2.762 -1.8821  0.0394  0.2089
 7252SOL    HW222656   4.113   3.609   2.826 -0.3240 -0.7186 -0.7923
 7253SOL     OW22657   6.387   5.483   6.835 -0.3436 -0.1607 -0.4361
 7253SOL    HW122658   6.334   5.445   6.759  0.0643  2.7908 -2.3963
 7253SOL    HW222659   6.484   5.466   6.818 -0.3314 -0.8341  0.2763
 7254SOL     OW22660   5.791   3.002   4.367 -0.0413  0.3927  0.0164
 7254SOL    HW122661   5.837   2.954   4.443 -1.5170 -0.4460  0.4167
 7254SOL    HW222662   5.718   2.944   4.330  1.2938  0.3383 -2.7768
 7255SOL     OW22663   6.850   5.653   1.300 -0.4919  0.6283 -0.3045
 7255SOL    HW122664   6.914   5.657   1.377 -1.2693 -1.2597  0.4791
 7255SOL    HW222665   6.769   5.707   1.321 -0.2425  0.9957 -0.2691
 7256SOL     OW22666   1.350   0.804   2.741 -0.4990 -0.1681 -0.1966
 7256SOL    HW122667   1.390   0.814   2.833 -1.5365 -0.6566  0.3245
 7256SOL    HW222668   1.409   0.849   2.674  0.2148  0.3039  0.7244
 7257SOL     OW22669   0.701   0.149   4.763 -0.3523 -0.7819 -0.3487
 7257SOL    HW122670   0.699   0.122   4.859 -1.0274 -0.8649 -0.3796
 7257SOL    HW222671   0.701   0.249   4.756 -0.2827 -0.7762 -0.2619
 7258SOL     OW22672   0.007   1.240   2.811 -0.7507 -0.2418  0.2927
 7258SOL    HW122673  -0.039   1.187   2.883  1.5609 -2.0833  0.5181
 7258SOL    HW222674   0.097   1.201   2.793 -0.3824  1.5056 -2.1257
 7259SOL     OW22675   1.673   4.328   2.184  0.0897 -0.3030  0.3810
 7259SOL    HW122676   1.705   4.398   2.248 -0.7286 -0.7538  1.2918
 7259SOL    HW222677   1.613   4.371   2.116  1.9340  0.4102 -0.8997
 7260SOL     OW22678   6.934   2.746   0.748  0.0465 -0.2976 -0.1443
 7260SOL    HW122679   6.980   2.823   0.703 -2.6495  1.2688 -0.3965
 7260SOL    HW222680   6.836   2.752   0.733 -0.5950 -1.9197  2.7252
 7261SOL     OW22681   4.947   3.238   6.082  0.0959 -0.3839 -0.7431
 7261SOL    HW122682   4.929   3.265   5.988  0.4615  1.6288 -0.2682
 7261SOL    HW222683   4.861   3.231   6.132  0.0723  2.9634 -0.1227
 7262SOL     OW22684   3.958   6.654   4.458 -0.1471  0.3828 -0.1840
 7262SOL    HW122685   3.989   6.739   4.500  1.8160  0.4501 -1.6312
 7262SOL    HW222686   3.904   6.602   4.525 -2.1399  3.0672  0.4659
 7263SOL     OW22687   1.399   4.993   0.418  0.0721  0.1394  0.2361
 7263SOL    HW122688   1.345   5.076   0.422 -0.7663 -0.3633 -0.2794
 7263SOL    HW222689   1.387   4.941   0.503 -0.4712 -0.1035  0.0100
 7264SOL     OW22690   5.217   0.370   1.649 -0.3260  0.1452 -0.1389
 7264SOL    HW122691   5.312   0.347   1.672 -0.7352  0.2569  1.8650
 7264SOL    HW222692   5.155   0.309   1.699 -1.3376  2.0723  1.0452
 7265SOL     OW22693   1.621   5.689   5.477  0.1550  0.1022 -0.0986
 7265SOL    HW122694   1.579   5.637   5.552 -0.7046  0.5346 -0.2731
 7265SOL    HW222695   1.607   5.786   5.492 -0.5130  0.1771 -1.0979
 7266SOL     OW22696   1.725   0.406   3.313 -0.1704  0.2153  0.4939
 7266SOL    HW122697   1.673   0.446   3.238 -0.4326 -0.3998  0.3352
 7266SOL    HW222698   1.735   0.307   3.298  2.1549  0.4924 -0.1256
 7267SOL     OW22699   4.813   3.870   6.886  0.6908  0.0676  0.2142
 7267SOL    HW122700   4.862   3.817   6.816  1.0973  0.8531 -0.1062
 7267SOL    HW222701   4.749   3.810   6.934  0.4653 -0.5130 -0.7734
 7268SOL     OW22702   4.734   6.458   4.616 -0.5934 -0.1331 -0.0790
 7268SOL    HW122703   4.652   6.485   4.666 -0.8534  0.8026 -0.9864
 7268SOL    HW222704   4.722   6.476   4.519  1.8867  3.2618  0.0611
 7269SOL     OW22705   1.472   4.444   3.922  0.2151  0.5413  0.1181
 7269SOL    HW122706   1.520   4.422   3.837  0.6743 -1.9289  0.9448
 7269SOL    HW222707   1.538   4.477   3.989  0.0748  1.1235 -0.0244
 7270SOL     OW22708   5.924   4.236   5.177  0.7841 -0.5989 -0.5410
 7270SOL    HW122709   5.960   4.322   5.212  0.3336 -0.7216  0.2459
 7270SOL    HW222710   5.968   4.214   5.089  3.5436 -1.3570  0.9176
 7271SOL     OW22711   6.845   4.754   0.650  0.1054  0.4240 -0.3827
 7271SOL    HW122712   6.868   4.756   0.747 -1.1283  1.6728 -0.0722
 7271SOL    HW222713   6.897   4.825   0.601  0.3977  0.0957 -0.5481
 7272SOL     OW22714   6.914   3.727   2.634  0.2530 -0.2526 -0.0921
 7272SOL    HW122715   6.944   3.772   2.549  0.0243  0.7781  0.3613
 7272SOL    HW222716   6.832   3.673   2.616  0.6419 -0.6592 -0.6889
 7273SOL     OW22717   0.385   1.333   4.934  0.0452 -0.3333  0.0167
 7273SOL    HW122718   0.420   1.417   4.978 -0.0666  0.1375 -0.7792
 7273SOL    HW222719   0.324   1.358   4.859 -0.2456 -1.1402 -0.0220
 7274SOL     OW22720   6.465   6.588   5.302 -0.5231 -0.5313 -0.5929
 7274SOL    HW122721   6.391   6.608   5.238 -0.3467 -0.5600 -0.8046
 7274SOL    HW222722   6.535   6.533   5.257 -0.2532 -0.2957 -0.4666
 7275SOL     OW22723   0.295   5.235   3.034  0.1818 -0.0210 -0.1580
 7275SOL    HW122724   0.204   5.239   2.992 -0.3837 -3.1965  0.4736
 7275SOL    HW222725   0.365   5.236   2.963 -0.6542 -3.0037 -1.1617
 7276SOL     OW22726   4.791   5.199   4.133  0.5806  0.1929  0.3800
 7276SOL    HW122727   4.694   5.205   4.111  0.2993  1.1129  1.7155
 7276SOL    HW222728   4.843   5.253   4.067  0.1014  0.3719  0.1412
 7277SOL     OW22729   4.761   0.943   6.033  0.4312  0.0852 -0.6369
 7277SOL    HW122730   4.804   0.882   6.100 -0.7057  0.1685  0.2040
 7277SOL    HW222731   4.714   0.888   5.964 -1.9346 -0.0968  0.9903
 7278SOL     OW22732   3.719   4.081   2.729  0.4145 -0.5054  0.3985
 7278SOL    HW122733   3.803   4.045   2.768 -0.4599 -2.2915  0.7493
 7278SOL    HW222734   3.733   4.099   2.631  1.8529  1.5318  0.9151
 7279SOL     OW22735   3.358   2.004   3.643  0.0468  0.8053 -0.6286
 7279SOL    HW122736   3.317   1.942   3.710 -1.0604  0.3177 -1.7250
 7279SOL    HW222737   3.456   1.982   3.634  0.1657  0.7449  0.6557
 7280SOL     OW22738   4.247   6.616   5.456 -0.1431  0.1709 -0.5696
 7280SOL    HW122739   4.279   6.550   5.388  1.7937 -0.7528  1.1036
 7280SOL    HW222740   4.169   6.578   5.506 -0.1726 -0.0774 -0.8060
 7281SOL     OW22741   0.423   6.677   5.209 -0.3739  0.1285  0.4288
 7281SOL    HW122742   0.485   6.635   5.275  0.0479 -0.1434 -0.1359
 7281SOL    HW222743   0.472   6.746   5.155 -0.8722  0.8075  0.8248
 7282SOL     OW22744   0.753   6.067   4.318 -0.1573 -0.3724  0.6028
 7282SOL    HW122745   0.730   5.974   4.345  0.8685 -0.5635  0.8412
 7282SOL    HW222746   0.774   6.121   4.399 -1.5729  0.3180  0.5459
 7283SOL     OW22747   4.107   2.068   1.604 -0.1763 -0.3845  0.1402
 7283SOL    HW122748   4.014   2.101   1.590 -0.0926 -0.3469 -0.3316
 7283SOL    HW222749   4.105   1.976   1.644 -0.5226 -2.4131 -4.0396
 7284SOL     OW22750   1.995   1.063   3.802  0.1993  0.0663 -0.5258
 7284SOL    HW122751   1.909   1.111   3.789 -0.9427 -1.4751  0.9234
 7284SOL    HW222752   2.060   1.122   3.850 -1.9138 -0.3525  3.2405
 7285SOL     OW22753   4.938   4.445   1.973  0.2050 -0.2631  0.3818
 7285SOL    HW122754   4.864   4.415   2.032 -0.1105  0.7296  0.5111
 7285SOL    HW222755   4.911   4.433   1.877 -0.1337  0.1121  0.4283
 7286SOL     OW22756   0.934   3.384   1.461 -0.1571 -0.2151 -0.6616
 7286SOL    HW122757   0.897   3.410   1.372 -1.1882  0.2306 -0.1346
 7286SOL    HW222758   0.938   3.284   1.468 -0.8750 -0.2724 -0.9138
 7287SOL     OW22759   5.278   2.412   0.707  0.0632  0.1003  0.2901
 7287SOL    HW122760   5.354   2.387   0.647 -2.0912 -2.0274 -1.8614
 7287SOL    HW222761   5.282   2.357   0.791 -0.2555 -1.7543 -0.8389
 7288SOL     OW22762   2.040   6.359   5.836  0.2542 -0.5457 -0.2592
 7288SOL    HW122763   2.097   6.324   5.910  0.9754 -0.1315 -0.6077
 7288SOL    HW222764   2.081   6.336   5.748  0.8169  1.2218 -0.5084
 7289SOL     OW22765   3.009   1.262   3.933  0.3573  0.5590 -0.1130
 7289SOL    HW122766   2.934   1.229   3.991 -0.4253 -0.9328 -1.8536
 7289SOL    HW222767   2.993   1.232   3.839  3.4534 -0.3764 -0.4509
 7290SOL     OW22768   4.895   4.779   5.218 -0.4215  0.1819 -0.1669
 7290SOL    HW122769   4.891   4.752   5.122  0.0633 -2.1384  0.4160
 7290SOL    HW222770   4.857   4.871   5.228  0.0324  0.7047 -2.6402
 7291SOL     OW22771   5.276   6.590   2.404  0.1982  0.5054  0.1688
 7291SOL    HW122772   5.318   6.617   2.491 -0.5524 -1.4690  1.1932
 7291SOL    HW222773   5.325   6.512   2.366  0.0752  0.9040 -0.8439
 7292SOL     OW22774   2.793   1.186   5.710  0.3950  0.3221 -0.0078
 7292SOL    HW122775   2.855   1.210   5.785  1.0131 -0.8522 -0.1228
 7292SOL    HW222776   2.790   1.087   5.700  1.4647  0.4731 -2.4951
 7293SOL     OW22777   3.774   1.512   4.190 -0.5066 -0.1472  0.1493
 7293SOL    HW122778   3.736   1.604   4.202 -1.5428 -0.5297 -0.1045
 7293SOL    HW222779   3.704   1.444   4.211 -0.0418 -0.8754 -0.6004
 7294SOL     OW22780   4.616   5.230   4.452 -0.5948 -0.4013 -0.3046
 7294SOL    HW122781   4.601   5.252   4.356  1.2447 -2.2100 -1.0721
 7294SOL    HW222782   4.709   5.254   4.478 -1.1249  0.2684  1.1444
 7295SOL     OW22783   4.369   0.761   2.238 -0.0895  0.1018  0.2873
 7295SOL    HW122784   4.391   0.768   2.336  1.5111 -0.9888  0.0393
 7295SOL    HW222785   4.453   0.765   2.185 -0.9381  0.5204 -1.0520
 7296SOL     OW22786   4.452   5.160   1.359 -0.1933 -0.3849  0.0169
 7296SOL    HW122787   4.426   5.177   1.454  0.2946 -0.6132  0.1938
 7296SOL    HW222788   4.534   5.104   1.357 -2.4101 -3.9619 -0.5036
 7297SOL     OW22789   4.194   5.285   1.954  0.1999 -0.0751 -0.1617
 7297SOL    HW122790   4.180   5.207   2.014  0.0411  0.2664  0.2552
 7297SOL    HW222791   4.178   5.258   1.859 -0.8402 -0.3068  0.0697
 7298SOL     OW22792   4.634   2.759   4.287  0.2211 -0.4164 -0.3691
 7298SOL    HW122793   4.631   2.749   4.188 -0.5840 -1.9036 -0.2186
 7298SOL    HW222794   4.696   2.690   4.325  1.9689  1.2867  0.0691
 7299SOL     OW22795   5.908   2.419   0.901 -0.1467  0.6398 -0.6382
 7299SOL    HW122796   5.924   2.509   0.941  0.0485  1.0607 -1.6405
 7299SOL    HW222797   5.810   2.398   0.905 -0.5429  1.8993 -2.4089
 7300SOL     OW22798   5.599   6.078   1.759  0.2400 -0.3665 -0.3723
 7300SOL    HW122799   5.595   6.024   1.843 -1.1874 -0.1591 -0.2733
 7300SOL    HW222800   5.666   6.151   1.769 -0.0509 -0.2255  0.6581
 7301SOL     OW22801   5.031   2.487   0.243 -0.4565 -0.0801 -0.0987
 7301SOL    HW122802   5.101   2.529   0.185  0.0862 -1.1999 -0.2803
 7301SOL    HW222803   5.050   2.390   0.252  0.2450  0.2494  3.0661
 7302SOL     OW22804   0.802   1.867   6.788 -0.5588 -0.1614 -0.0019
 7302SOL    HW122805   0.836   1.922   6.712 -2.4659 -0.5755 -1.2016
 7302SOL    HW222806   0.715   1.905   6.820 -0.6919 -1.0827  0.7587
 7303SOL     OW22807   5.320   6.430   1.544 -0.6076  0.0981 -0.2599
 7303SOL    HW122808   5.221   6.418   1.531 -0.7877  0.3209  0.8741
 7303SOL    HW222809   5.340   6.525   1.565 -0.5278 -0.4773  2.5923
 7304SOL     OW22810   4.045   3.707   2.270  0.1742  0.2666  0.3957
 7304SOL    HW122811   3.993   3.786   2.237 -0.9219 -0.6719 -0.1519
 7304SOL    HW222812   4.046   3.707   2.370 -1.8584 -0.3136  0.4488
 7305SOL     OW22813   6.865   2.999   0.310 -0.4102 -0.0018  0.0969
 7305SOL    HW122814   6.909   2.910   0.322  1.0094  0.6618 -0.0323
 7305SOL    HW222815   6.882   3.033   0.218 -0.2045  0.7728  0.4056
 7306SOL     OW22816   3.991   4.809   1.587 -0.6389 -0.0401 -0.5172
 7306SOL    HW122817   4.007   4.720   1.629 -2.7092 -2.2794 -3.9558
 7306SOL    HW222818   4.078   4.846   1.554  0.1235 -1.2784  0.0112
 7307SOL     OW22819   3.659   6.901   1.876  0.3401  0.0110 -0.6815
 7307SOL    HW122820   3.568   6.927   1.907  0.2068  0.9787 -1.8052
 7307SOL    HW222821   3.650   6.831   1.804  0.5402 -0.5843 -0.1373
 7308SOL     OW22822   4.782   1.251   4.051  0.0822  0.1327  0.2765
 7308SOL    HW122823   4.842   1.313   4.001 -1.2122  1.7710  0.6437
 7308SOL    HW222824   4.807   1.251   4.148  0.5418 -0.5114  0.1635
 7309SOL     OW22825   4.676   4.834   6.930 -0.1494 -0.1483  0.7313
 7309SOL    HW122826   4.753   4.862   6.987 -1.4577  4.3773  0.6653
 7309SOL    HW222827   4.595   4.821   6.988 -0.6625  1.0327  0.3091
 7310SOL     OW22828   6.998   5.765   2.453  0.4697  0.3463 -0.3553
 7310SOL    HW122829   7.094   5.774   2.426  0.1872  0.3203 -1.4230
 7310SOL    HW222830   6.940   5.762   2.371 -0.2548 -2.1737  0.1531
 7311SOL     OW22831   2.809   2.297   2.547 -0.0129  0.1189 -0.1236
 7311SOL    HW122832   2.807   2.222   2.481 -0.7964 -0.5459  0.6220
 7311SOL    HW222833   2.762   2.377   2.509 -2.3087 -0.9198  0.3602
 7312SOL     OW22834   0.583   3.326   1.002 -0.1133 -0.6185  0.2212
 7312SOL    HW122835   0.676   3.312   0.969  0.2886 -1.6069  1.6920
 7312SOL    HW222836   0.518   3.295   0.932  0.6603 -0.3796 -0.6183
 7313SOL     OW22837   3.392   2.778   6.763 -0.3336  0.4852  0.1839
 7313SOL    HW122838   3.462   2.850   6.758  0.8035 -0.6318 -0.7024
 7313SOL    HW222839   3.305   2.814   6.728  0.6240  0.9930 -1.8085
 7314SOL     OW22840   6.987   0.863   4.284 -0.0558 -0.0752  0.1288
 7314SOL    HW122841   7.032   0.945   4.250  0.4164 -0.5194 -0.3270
 7314SOL    HW222842   6.998   0.788   4.218  0.0956 -0.6921  0.8354
 7315SOL     OW22843   6.195   1.530   5.906  0.3408  0.5601  0.0665
 7315SOL    HW122844   6.262   1.576   5.965  1.0983  1.1294 -1.1961
 7315SOL    HW222845   6.244   1.470   5.842 -0.6284 -2.9049  2.2960
 7316SOL     OW22846   4.390   3.648   1.661 -0.7488 -0.0892 -0.0401
 7316SOL    HW122847   4.397   3.558   1.705 -0.6906  0.1188  0.3837
 7316SOL    HW222848   4.299   3.687   1.679 -0.3795  0.4356  0.7679
 7317SOL     OW22849   2.832   0.339   3.830  0.3921 -0.6340 -0.6689
 7317SOL    HW122850   2.741   0.311   3.799  0.6010 -1.2482 -0.7259
 7317SOL    HW222851   2.863   0.416   3.774  0.3701 -1.1344 -1.3816
 7318SOL     OW22852   2.713   0.020   1.781  0.4355  0.6873  0.5009
 7318SOL    HW122853   2.676   0.108   1.750 -0.4077  0.8716  1.9495
 7318SOL    HW222854   2.798   0.000   1.732 -0.6872  1.0516 -1.7370
 7319SOL     OW22855   6.252   3.656   5.419  0.0165 -0.6842 -0.1729
 7319SOL    HW122856   6.254   3.751   5.389 -1.1821 -0.5669  0.0799
 7319SOL    HW222857   6.158   3.627   5.431  0.3611 -0.7924  3.2364
 7320SOL     OW22858   0.054   2.643   3.831 -0.1147 -0.7285 -0.6520
 7320SOL    HW122859   0.133   2.585   3.852  0.6817  0.6480  0.2733
 7320SOL    HW222860  -0.007   2.646   3.910 -0.4810 -0.7950 -0.9295
 7321SOL     OW22861   6.393   1.785   4.245  0.4464 -0.0315  0.0489
 7321SOL    HW122862   6.366   1.741   4.159  0.7315  0.0826 -0.1030
 7321SOL    HW222863   6.417   1.880   4.227  1.4912 -0.2793  0.0705
 7322SOL     OW22864   2.348   1.784   6.584 -0.4682  0.3198  0.0515
 7322SOL    HW122865   2.355   1.714   6.654 -0.6421  0.2881  0.0380
 7322SOL    HW222866   2.390   1.752   6.499  0.8923  0.8443  0.5025
 7323SOL     OW22867   1.871   4.790   3.441 -0.3454 -0.9171 -0.0175
 7323SOL    HW122868   1.843   4.884   3.422 -1.1509 -0.9389  0.9430
 7323SOL    HW222869   1.920   4.788   3.528 -0.3318 -1.3829 -0.0370
 7324SOL     OW22870   3.293   5.939   3.737  0.3591 -0.9467 -0.1365
 7324SOL    HW122871   3.389   5.914   3.727  1.1143  1.5975  0.0081
 7324SOL    HW222872   3.269   5.939   3.834  0.4017 -0.8875 -0.1265
 7325SOL     OW22873   5.927   0.233   5.526 -0.2564 -0.4259  0.2809
 7325SOL    HW122874   5.897   0.138   5.517  0.1262 -0.7164  1.8300
 7325SOL    HW222875   5.909   0.265   5.619  0.8834  0.5668  0.1872
 7326SOL     OW22876   3.462   1.306   5.368 -0.6208 -0.2566 -0.2996
 7326SOL    HW122877   3.521   1.246   5.421 -1.1651 -1.0110 -0.5302
 7326SOL    HW222878   3.478   1.291   5.271 -0.3460  0.3954 -0.3586
 7327SOL     OW22879   0.373   4.706   5.925  0.0555 -0.1014 -0.1714
 7327SOL    HW122880   0.291   4.733   5.876 -1.0473  0.5808  1.9234
 7327SOL    HW222881   0.396   4.776   5.993  0.2021 -1.9504  1.7852
 7328SOL     OW22882   2.831   6.648   0.327 -0.0280  0.4589 -0.2508
 7328SOL    HW122883   2.810   6.645   0.229 -1.2434  1.3771 -0.0496
 7328SOL    HW222884   2.824   6.556   0.366 -1.4927  0.3685 -0.6665
 7329SOL     OW22885   3.700   4.336   0.890  0.1981  0.3042 -0.3259
 7329SOL    HW122886   3.777   4.333   0.826 -1.1530 -0.4999 -1.9933
 7329SOL    HW222887   3.706   4.259   0.954  0.8970  0.3955 -0.2774
 7330SOL     OW22888   4.740   2.140   1.333  0.0149 -0.1712 -0.5853
 7330SOL    HW122889   4.642   2.160   1.334 -0.1710 -1.0314 -0.8158
 7330SOL    HW222890   4.754   2.042   1.325  0.8872 -0.1998  0.8375
 7331SOL     OW22891   7.002   1.255   1.571 -0.5829  0.0479  0.1493
 7331SOL    HW122892   6.951   1.230   1.653 -0.0506  0.9381  0.7642
 7331SOL    HW222893   7.063   1.332   1.591  0.3706 -0.4369 -0.7930
 7332SOL     OW22894   4.924   4.868   1.884 -0.1344  0.0791  0.0601
 7332SOL    HW122895   4.991   4.893   1.954 -1.9833  1.4871  1.4420
 7332SOL    HW222896   4.950   4.781   1.842  1.3413 -0.5579  2.1321
 7333SOL     OW22897   6.512   3.776   1.919  0.3265  0.1721 -0.8296
 7333SOL    HW122898   6.575   3.841   1.961 -1.2176  0.3560  1.3735
 7333SOL    HW222899   6.498   3.799   1.823  2.8402  0.6654 -1.1427
 7334SOL     OW22900   3.723   5.951   2.666 -0.6669 -0.1799 -0.3517
 7334SOL    HW122901   3.626   5.934   2.650 -0.9340  0.5082  0.4366
 7334SOL    HW222902   3.739   5.962   2.764 -0.3975  3.0754 -0.6608
 7335SOL     OW22903   3.156   1.561   2.099 -0.1726  0.3352 -0.0216
 7335SOL    HW122904   3.247   1.581   2.063  1.0849 -0.9656  2.1421
 7335SOL    HW222905   3.087   1.581   2.030  1.7241  1.5190 -1.6862
 7336SOL     OW22906   1.859   0.457   4.361  0.0684  0.1034  0.6685
 7336SOL    HW122907   1.780   0.427   4.307 -0.0168 -0.5857  1.1547
 7336SOL    HW222908   1.942   0.452   4.305  0.1755 -1.7859  0.9124
 7337SOL     OW22909   4.171   1.634   2.156  0.0485 -0.1573  0.1855
 7337SOL    HW122910   4.229   1.712   2.132 -1.2724  0.7604 -0.1351
 7337SOL    HW222911   4.228   1.559   2.190  1.6681 -0.2498 -2.5071
 7338SOL     OW22912   1.222   4.196   2.242  0.3341  0.1110 -0.3531
 7338SOL    HW122913   1.291   4.252   2.288  0.1220 -0.8293  1.1796
 7338SOL    HW222914   1.223   4.104   2.280 -2.9901  0.5106  1.0807
 7339SOL     OW22915   2.182   4.792   4.886  0.1558 -0.2365 -0.2452
 7339SOL    HW122916   2.222   4.790   4.977  0.7504  1.2076 -0.4420
 7339SOL    HW222917   2.197   4.704   4.841 -0.2006 -0.9854  1.0536
 7340SOL     OW22918   5.756   1.373   6.131  0.2278  0.0861 -0.5884
 7340SOL    HW122919   5.845   1.402   6.097  0.3909  0.5811  0.2429
 7340SOL    HW222920   5.768   1.297   6.196  0.1580  0.9352  0.4392
 7341SOL     OW22921   5.337   2.679   6.369  0.6850  0.3702  0.3290
 7341SOL    HW122922   5.422   2.710   6.327  0.7008  1.3858  1.0704
 7341SOL    HW222923   5.307   2.594   6.325  0.6288  1.4127 -1.8263
 7342SOL     OW22924   6.233   6.510   0.178 -0.7938  0.3209 -0.2188
 7342SOL    HW122925   6.186   6.465   0.254  2.0448 -0.5324  1.1633
 7342SOL    HW222926   6.272   6.440   0.118  1.0654  0.9060  0.2583
 7343SOL     OW22927   0.341   3.334   6.671 -0.7111 -0.1295  0.2646
 7343SOL    HW122928   0.251   3.306   6.705 -0.1275 -0.1214  1.9040
 7343SOL    HW222929   0.408   3.262   6.691 -0.5473 -0.7072 -2.0831
 7344SOL     OW22930   2.243   1.007   5.349  0.3240 -0.6516  0.3450
 7344SOL    HW122931   2.201   1.098   5.348 -1.2516 -1.3271 -1.3987
 7344SOL    HW222932   2.301   0.996   5.268  1.2818 -0.8946  1.0430
 7345SOL     OW22933   3.712   0.828   6.239  0.6883 -0.0748  0.1237
 7345SOL    HW122934   3.719   0.924   6.268 -0.9080 -0.0584  0.5437
 7345SOL    HW222935   3.726   0.768   6.317 -1.2109 -0.0820  0.5168
 7346SOL     OW22936   3.205   5.230   2.932  0.3929  0.3433 -0.0948
 7346SOL    HW122937   3.236   5.249   3.025  1.8727 -0.2244 -0.4443
 7346SOL    HW222938   3.260   5.156   2.893 -1.5824 -0.8808 -0.7029
 7347SOL     OW22939   4.605   4.853   5.859  0.8764 -0.2985  0.2028
 7347SOL    HW122940   4.524   4.875   5.914  0.9626 -2.2279  1.1809
 7347SOL    HW222941   4.578   4.797   5.781  1.2194 -0.7543  0.4057
 7348SOL     OW22942   0.418   5.967   0.704  0.3629  0.1003 -0.2199
 7348SOL    HW122943   0.460   5.993   0.617 -0.9602  0.2211 -0.8455
 7348SOL    HW222944   0.401   5.868   0.705 -0.1704  0.1887 -0.3494
 7349SOL     OW22945   3.437   1.212   0.803  0.4319  0.1632  0.0849
 7349SOL    HW122946   3.436   1.117   0.771 -0.4873 -0.1236  0.9365
 7349SOL    HW222947   3.497   1.219   0.882  1.9951  0.6959 -1.0926
 7350SOL     OW22948   4.071   6.575   5.142  0.2802  0.4665  0.8378
 7350SOL    HW122949   4.088   6.664   5.183 -1.4279  1.0107  0.4124
 7350SOL    HW222950   4.029   6.587   5.052 -0.6030 -0.7678  1.0628
 7351SOL     OW22951   3.945   5.263   4.690 -0.7064  0.0591  0.1708
 7351SOL    HW122952   3.956   5.268   4.590 -2.1282  0.3808  0.0058
 7351SOL    HW222953   3.957   5.354   4.729 -1.2078  0.1310  0.1619
 7352SOL     OW22954   5.959   5.147   4.059 -0.2702  0.3445  0.6874
 7352SOL    HW122955   6.001   5.062   4.028 -1.6204  0.0346 -0.3550
 7352SOL    HW222956   6.030   5.216   4.074  0.8780 -1.0483  1.9141
 7353SOL     OW22957   0.116   2.271   0.491  0.7603 -0.0683  0.1117
 7353SOL    HW122958   0.100   2.370   0.496  1.2356  0.0117  0.0976
 7353SOL    HW222959   0.209   2.251   0.521 -0.0755 -0.7598  2.5087
 7354SOL     OW22960   6.832   3.291   4.266  0.3029 -0.0147  0.5854
 7354SOL    HW122961   6.767   3.215   4.277 -2.0783  1.4001 -2.0776
 7354SOL    HW222962   6.916   3.257   4.225  0.1958 -1.5404  1.5736
 7355SOL     OW22963   4.202   1.623   4.944  0.2531 -0.0575  0.4724
 7355SOL    HW122964   4.208   1.523   4.948  0.5300 -0.3787 -3.6738
 7355SOL    HW222965   4.294   1.661   4.933  0.0076  0.4955  0.3212
 7356SOL     OW22966   4.425   3.838   5.823 -0.1723  0.4924  0.7500
 7356SOL    HW122967   4.471   3.782   5.892 -0.3026  1.0958  1.3300
 7356SOL    HW222968   4.331   3.857   5.852 -0.5635 -0.0876 -0.0686
 7357SOL     OW22969   3.766   6.311   2.740  0.1931  0.1714 -0.4347
 7357SOL    HW122970   3.669   6.333   2.752 -0.3333 -1.7410 -0.8426
 7357SOL    HW222971   3.801   6.270   2.825  0.5710  0.5886 -0.3880
 7358SOL     OW22972   4.490   0.174   4.214  0.0266  0.4240 -0.3046
 7358SOL    HW122973   4.440   0.135   4.291  1.7192  0.1467  0.7080
 7358SOL    HW222974   4.566   0.230   4.248  1.1190 -0.1111 -1.7536
 7359SOL     OW22975   4.468   0.522   3.502 -0.6676  0.1011 -0.6848
 7359SOL    HW122976   4.435   0.486   3.590 -0.1602  0.5006 -0.3264
 7359SOL    HW222977   4.448   0.455   3.430 -0.4991 -0.5297 -0.1615
 7360SOL     OW22978   2.686   4.376   6.282 -0.0595  0.2722  0.5465
 7360SOL    HW122979   2.785   4.391   6.286  0.0323  0.8317 -2.0978
 7360SOL    HW222980   2.668   4.286   6.241 -0.7179 -1.0677  3.4791
 7361SOL     OW22981   4.515   1.609   4.037 -0.4498  0.6417  0.2748
 7361SOL    HW122982   4.496   1.517   4.005  0.7029  0.2128  0.8000
 7361SOL    HW222983   4.594   1.608   4.098 -0.2147  2.0283  0.0216
 7362SOL     OW22984   3.949   0.026   2.259  0.1056  0.1788 -0.2391
 7362SOL    HW122985   3.955  -0.043   2.331 -0.7123  2.6157  2.3392
 7362SOL    HW222986   3.861   0.019   2.212 -1.3476  1.3284  2.1571
 7363SOL     OW22987   5.138   1.151   2.203  0.4808  0.4702  0.3721
 7363SOL    HW122988   5.207   1.109   2.262  1.1866  1.9990  0.6940
 7363SOL    HW222989   5.165   1.141   2.107  0.1626 -0.5905  0.3793
 7364SOL     OW22990   6.119   6.595   6.580  0.0370 -0.1030 -0.7595
 7364SOL    HW122991   6.171   6.535   6.519  0.8195 -0.3203  0.1041
 7364SOL    HW222992   6.048   6.541   6.626  0.5069 -0.2965 -0.2544
 7365SOL     OW22993   3.370   3.884   2.611 -0.4159  0.0506  0.2881
 7365SOL    HW122994   3.445   3.828   2.646  0.1180  0.7276  0.2625
 7365SOL    HW222995   3.373   3.974   2.653 -0.3845  0.5411 -0.7168
 7366SOL     OW22996   0.790   6.206   2.790  0.3242 -0.0226 -0.2644
 7366SOL    HW122997   0.725   6.136   2.761  1.5663 -1.3143 -0.0468
 7366SOL    HW222998   0.781   6.220   2.889 -0.1850  0.4074 -0.3700
 7367SOL     OW22999   5.606   6.476   0.574 -0.2798 -0.1144  0.0727
 7367SOL    HW123000   5.683   6.469   0.510  0.6418 -0.4730  1.1783
 7367SOL    HW223001   5.571   6.384   0.594 -0.2069 -0.0594  0.4745
 7368SOL     OW23002   3.102   3.951   3.434 -0.1633  0.0437  0.1423
 7368SOL    HW123003   3.048   3.963   3.518 -0.3316  2.1788 -0.2288
 7368SOL    HW223004   3.178   4.016   3.434  0.5605 -0.7818 -0.8160
 7369SOL     OW23005   3.749   5.391   5.847 -0.5211 -0.0409  0.8970
 7369SOL    HW123006   3.656   5.387   5.882 -0.1955 -0.9428  1.6804
 7369SOL    HW223007   3.814   5.400   5.923 -0.0370  2.4418  0.2873
 7370SOL     OW23008   0.932   1.049   4.428  0.2324 -0.1489  0.1304
 7370SOL    HW123009   1.005   1.054   4.360  0.3159 -2.1531 -0.0034
 7370SOL    HW223010   0.847   1.019   4.385 -0.2567  0.5964  0.5609
 7371SOL     OW23011   5.145   1.038   3.369 -0.1188 -0.1378 -0.3869
 7371SOL    HW123012   5.132   1.119   3.312 -0.2993  1.0125  1.2489
 7371SOL    HW223013   5.057   0.993   3.384 -0.3546  0.5800  0.4384
 7372SOL     OW23014   2.346   2.507   5.588 -0.1207 -0.9084 -0.3427
 7372SOL    HW123015   2.343   2.508   5.688 -0.0816  0.1366 -0.3406
 7372SOL    HW223016   2.344   2.601   5.553 -0.0320 -1.2533 -1.3224
 7373SOL     OW23017   6.360   3.619   4.189  0.2849  0.4261 -0.0421
 7373SOL    HW123018   6.294   3.688   4.159  1.2597  1.3020 -0.2259
 7373SOL    HW223019   6.341   3.532   4.143 -0.0576  0.9631 -0.9474
 7374SOL     OW23020   6.394   3.876   0.126  0.0394  0.0807 -0.2464
 7374SOL    HW123021   6.426   3.872   0.220 -0.3023 -0.1101 -0.1331
 7374SOL    HW223022   6.468   3.851   0.064 -0.1827 -1.5112  0.0750
 7375SOL     OW23023   2.396   0.404   4.190  0.0924  0.1410  0.0885
 7375SOL    HW123024   2.388   0.466   4.113 -0.9101 -0.0826  0.0029
 7375SOL    HW223025   2.385   0.454   4.276  0.9788  0.3507  0.0900
 7376SOL     OW23026   6.063   6.301   0.401  0.2939 -0.4541  0.4379
 7376SOL    HW123027   6.115   6.273   0.321  1.9480 -0.6025  1.5162
 7376SOL    HW223028   6.025   6.220   0.446  0.8976 -0.5561  0.7860
 7377SOL     OW23029   2.618   0.130   1.188 -0.2802  0.2644  0.3886
 7377SOL    HW123030   2.681   0.192   1.234 -0.6908  0.5528  0.5687
 7377SOL    HW223031   2.598   0.052   1.248  0.0455  0.0791  0.2583
 7378SOL     OW23032   3.124   5.510   6.908  0.3427 -0.3685  0.3330
 7378SOL    HW123033   3.095   5.555   6.823 -0.4890 -1.6667 -0.1012
 7378SOL    HW223034   3.178   5.429   6.886  1.0515 -0.1034  1.0798
 7379SOL     OW23035   4.816   2.588   2.372 -0.3660 -0.2625 -0.4170
 7379SOL    HW123036   4.793   2.523   2.445  1.2867 -0.3674  0.0670
 7379SOL    HW223037   4.873   2.661   2.409  0.9143 -0.5710 -1.6601
 7380SOL     OW23038   5.822   3.814   1.108  0.2418  0.2012  0.0845
 7380SOL    HW123039   5.838   3.738   1.045 -0.2108 -0.2437  0.4968
 7380SOL    HW223040   5.809   3.778   1.201 -1.6285  0.6403  0.0340
 7381SOL     OW23041   4.266   6.483   0.911  0.3283 -0.0632  0.3299
 7381SOL    HW123042   4.341   6.493   0.845 -0.6750 -0.2079 -0.8789
 7381SOL    HW223043   4.205   6.410   0.880 -0.9815  0.8831  0.6193
 7382SOL     OW23044   0.990   3.702   0.451 -0.2597  0.2535 -0.2933
 7382SOL    HW123045   1.043   3.662   0.376  0.5182 -1.5520  1.1389
 7382SOL    HW223046   0.901   3.731   0.417 -0.6631 -2.2234 -1.6250
 7383SOL     OW23047   2.457   6.042   0.125  0.1782  0.0583  0.0551
 7383SOL    HW123048   2.503   6.131   0.124 -0.2125  0.2618 -0.9349
 7383SOL    HW223049   2.433   6.016   0.031 -0.8075 -0.5206  0.4584
 7384SOL     OW23050   0.632   2.931   6.846 -0.6629 -0.3451 -0.5141
 7384SOL    HW123051   0.615   2.881   6.761 -1.7431 -2.0227  0.6459
 7384SOL    HW223052   0.589   2.884   6.923  1.7591  0.1445  1.2683
 7385SOL     OW23053   6.350   4.100   1.447 -0.2283  0.2968 -0.0351
 7385SOL    HW123054   6.341   4.025   1.512  0.7442  0.8804  0.7896
 7385SOL    HW223055   6.277   4.167   1.462 -0.5961 -0.0565 -0.2177
 7386SOL     OW23056   0.849   3.565   1.636 -0.6680 -0.1940  0.0695
 7386SOL    HW123057   0.799   3.525   1.713  1.1585 -0.1903  1.3402
 7386SOL    HW223058   0.870   3.494   1.569 -1.3354 -0.4247  0.1031
 7387SOL     OW23059   7.003   5.701   4.186  0.0731 -0.0277  0.2984
 7387SOL    HW123060   7.054   5.718   4.102  1.5425 -0.2962  1.1066
 7387SOL    HW223061   7.066   5.699   4.264 -1.3977  1.5669  1.6224
 7388SOL     OW23062   2.290   4.849   4.516  0.2813 -0.0193  0.4027
 7388SOL    HW123063   2.362   4.890   4.572 -0.7216 -0.7146  2.2982
 7388SOL    HW223064   2.313   4.754   4.496  1.3691  0.6421 -1.7695
 7389SOL     OW23065   2.138   2.099   0.070 -0.6430  0.3348 -0.9740
 7389SOL    HW123066   2.211   2.158   0.036  1.3485 -0.8475  1.0263
 7389SOL    HW223067   2.160   2.003   0.049  0.9122 -0.5290  3.6486
 7390SOL     OW23068   4.448   2.475   3.675  0.1635 -1.0706 -0.3758
 7390SOL    HW123069   4.390   2.419   3.615 -0.8013 -1.4747  0.8846
 7390SOL    HW223070   4.470   2.423   3.757  0.0120  0.0803  0.4083
 7391SOL     OW23071   3.131   3.795   2.536  0.4375 -0.4290  0.4289
 7391SOL    HW123072   3.229   3.817   2.545  0.3837  0.6142 -1.0589
 7391SOL    HW223073   3.079   3.850   2.602  0.8261 -0.7836  1.0399
 7392SOL     OW23074   4.435   6.338   0.229  0.9560  0.3176  0.1478
 7392SOL    HW123075   4.456   6.300   0.139  1.5118  1.3837 -0.1878
 7392SOL    HW223076   4.337   6.351   0.237  0.7919 -0.8221  0.1293
 7393SOL     OW23077   3.325   6.393   3.236 -0.4783 -0.0437 -0.0416
 7393SOL    HW123078   3.306   6.471   3.295 -1.1350  0.6452 -1.1293
 7393SOL    HW223079   3.243   6.368   3.185 -0.0784 -0.9854 -0.2494
 7394SOL     OW23080   1.114   1.351   0.491  0.9460  0.4474  0.0067
 7394SOL    HW123081   1.171   1.280   0.532  0.9392  0.6725  0.4055
 7394SOL    HW223082   1.051   1.387   0.559  1.4563  1.3620  0.0076
 7395SOL     OW23083   2.929   6.619   2.311  0.1544 -0.2499  0.6319
 7395SOL    HW123084   2.859   6.635   2.242 -1.1434  0.6679  2.0788
 7395SOL    HW223085   2.947   6.521   2.320  1.0948 -0.3357 -1.6602
 7396SOL     OW23086   0.968   4.906   1.234 -0.6772  0.1584  0.7504
 7396SOL    HW123087   0.912   4.887   1.153  1.3454 -1.5859 -0.3296
 7396SOL    HW223088   0.934   4.853   1.312 -1.1721 -0.0539  0.3919
 7397SOL     OW23089   5.382   3.870   5.979 -0.3090  0.1513 -0.1399
 7397SOL    HW123090   5.350   3.797   5.918  0.7279 -1.4867  1.1884
 7397SOL    HW223091   5.460   3.917   5.937 -2.2219  1.9589 -1.9152
 7398SOL     OW23092   3.117   6.225   3.061 -0.2659 -0.2447  0.2065
 7398SOL    HW123093   3.145   6.134   3.091  2.0020 -0.1581 -1.4067
 7398SOL    HW223094   3.060   6.218   2.979 -0.4372 -0.2273  0.3238
 7399SOL     OW23095   5.348   3.892   6.264  0.7051 -0.2115 -0.3476
 7399SOL    HW123096   5.393   3.849   6.185  1.5261 -0.9609  0.4978
 7399SOL    HW223097   5.409   3.961   6.303  0.2070  0.3172 -0.5063
 7400SOL     OW23098   3.495   3.378   5.604  0.0959 -0.2831 -0.8865
 7400SOL    HW123099   3.415   3.425   5.566 -0.2745 -0.6058 -0.5184
 7400SOL    HW223100   3.479   3.279   5.602  0.0243 -0.2973  0.2064
 7401SOL     OW23101   3.745   1.875   4.929  0.4774  0.1626 -0.8996
 7401SOL    HW123102   3.697   1.838   5.009  0.9888  0.4876 -0.4378
 7401SOL    HW223103   3.743   1.975   4.933 -0.2475  0.1910 -1.7527
 7402SOL     OW23104   4.211   4.947   5.682  0.3213  0.0237  0.0890
 7402SOL    HW123105   4.192   4.965   5.778  0.6294 -1.9469  0.5560
 7402SOL    HW223106   4.126   4.948   5.629  0.0967  0.6288  0.4590
 7403SOL     OW23107   3.026   5.126   4.992  0.2489 -0.0185 -0.0383
 7403SOL    HW123108   3.104   5.170   4.948  1.7107  0.3463  2.6865
 7403SOL    HW223109   3.031   5.027   4.980  0.3960  0.0956 -0.9604
 7404SOL     OW23110   2.429   2.510   0.860 -0.2342 -0.1853  0.2575
 7404SOL    HW123111   2.436   2.503   0.761 -1.7292 -0.3421  0.1510
 7404SOL    HW223112   2.482   2.436   0.903 -0.9909 -1.1605 -0.4606
 7405SOL     OW23113   3.842   6.063   6.663  0.5701  0.5640  0.3392
 7405SOL    HW123114   3.847   5.990   6.596  0.9636 -0.5423  1.5272
 7405SOL    HW223115   3.906   6.044   6.738 -0.7157  1.1296  1.6182
 7406SOL     OW23116   0.903   1.565   4.678  0.3160 -0.5550  0.4531
 7406SOL    HW123117   0.896   1.468   4.652 -0.9819 -0.5843  0.8481
 7406SOL    HW223118   0.965   1.612   4.615 -1.6863 -0.9037 -1.9173
 7407SOL     OW23119   0.540   0.700   4.812  0.2410  0.4695  0.6895
 7407SOL    HW123120   0.484   0.618   4.805  1.6241 -0.4138 -0.6019
 7407SOL    HW223121   0.627   0.678   4.857  0.8026  1.1012 -0.0429
 7408SOL     OW23122   4.513   6.715   5.100  0.0110 -0.3832  0.1566
 7408SOL    HW123123   4.551   6.758   5.018 -0.1805 -1.4681 -0.5246
 7408SOL    HW223124   4.522   6.777   5.178 -1.5369  1.5067 -1.0578
 7409SOL     OW23125   4.762   5.328   2.213 -0.6166  0.2710 -0.3348
 7409SOL    HW123126   4.858   5.348   2.234 -0.6927 -0.6579  1.0488
 7409SOL    HW223127   4.756   5.283   2.124  0.3166 -0.2239 -0.1635
 7410SOL     OW23128   4.601   6.157   6.084 -0.0350 -0.1776  0.2876
 7410SOL    HW123129   4.673   6.205   6.034  1.0872  0.2640  2.2421
 7410SOL    HW223130   4.587   6.067   6.043  2.2193 -0.5960  0.3250
 7411SOL     OW23131   2.581   2.802   5.705  0.2867  0.3377  0.4372
 7411SOL    HW123132   2.593   2.899   5.684  1.8571 -0.4840 -3.3320
 7411SOL    HW223133   2.523   2.760   5.635  0.3992 -1.6215  1.4557
 7412SOL     OW23134   3.917   6.431   6.208 -0.3916  0.0756  0.1601
 7412SOL    HW123135   3.883   6.385   6.126 -0.4897 -0.5363  0.5298
 7412SOL    HW223136   3.977   6.368   6.258 -0.3279  0.4433  0.5481
 7413SOL     OW23137   5.593   0.784   1.871  0.4565 -0.1612  0.2302
 7413SOL    HW123138   5.553   0.840   1.944  0.7829 -1.0673  1.1240
 7413SOL    HW223139   5.608   0.841   1.790 -0.2429  0.7837  0.7427
 7414SOL     OW23140   3.902   2.170   5.195  0.8161 -0.1966 -0.2317
 7414SOL    HW123141   3.918   2.175   5.097  0.5033 -0.8937 -0.3202
 7414SOL    HW223142   3.823   2.112   5.214  1.3338 -0.6911  0.4734
 7415SOL     OW23143   3.504   1.399   4.682 -0.3337  0.5707  0.1073
 7415SOL    HW123144   3.591   1.414   4.634 -0.6887 -2.8894 -1.9881
 7415SOL    HW223145   3.430   1.443   4.631 -0.3999 -1.0864 -1.3315
 7416SOL     OW23146   5.618   0.928   1.645  0.1550  0.4362 -0.4997
 7416SOL    HW123147   5.648   1.015   1.606  0.2724  0.7375  0.2578
 7416SOL    HW223148   5.545   0.890   1.588  2.4232 -0.6999 -2.8192
 7417SOL     OW23149   0.817   1.790   3.083 -0.3406  0.0963 -0.0889
 7417SOL    HW123150   0.778   1.779   2.991  0.6064 -0.4914 -0.4259
 7417SOL    HW223151   0.746   1.824   3.145 -1.3225 -0.7066 -0.7471
 7418SOL     OW23152   1.662   4.345   0.153  0.8152 -0.0797 -0.3163
 7418SOL    HW123153   1.727   4.326   0.226 -0.8665 -0.3450  1.1569
 7418SOL    HW223154   1.628   4.259   0.114  1.2734  0.0573 -1.0550
 7419SOL     OW23155   6.484   2.169   5.149  0.0448 -0.8536 -0.2895
 7419SOL    HW123156   6.573   2.198   5.114 -0.7320  2.1701 -0.0621
 7419SOL    HW223157   6.492   2.145   5.245  0.4075  0.7937  0.1174
 7420SOL     OW23158   5.839   5.694   6.629  0.8432  0.1486  0.0676
 7420SOL    HW123159   5.821   5.746   6.712 -2.8510  0.5301 -0.8135
 7420SOL    HW223160   5.842   5.756   6.551  3.0575 -0.3453 -0.3020
 7421SOL     OW23161   1.341   3.223   5.806  0.3412 -0.1545  0.1419
 7421SOL    HW123162   1.423   3.247   5.858 -0.0567  0.6255  0.4211
 7421SOL    HW223163   1.264   3.213   5.868  0.4409 -2.0503  0.0288
 7422SOL     OW23164   1.212   3.373   1.736 -0.1513 -0.4895  0.2146
 7422SOL    HW123165   1.275   3.316   1.684 -0.9490 -0.5702 -0.6949
 7422SOL    HW223166   1.139   3.316   1.775  0.1443 -0.3550  0.9845
 7423SOL     OW23167   3.190   3.510   4.998  0.8487 -0.8642  0.5732
 7423SOL    HW123168   3.215   3.447   5.071  2.7603 -1.1120 -0.2313
 7423SOL    HW223169   3.255   3.586   4.996 -0.6104  0.4215  0.6487
 7424SOL     OW23170   0.684   2.419   5.166  0.2352  0.2125 -0.6032
 7424SOL    HW123171   0.616   2.400   5.236  0.3806  2.8125  0.3518
 7424SOL    HW223172   0.773   2.435   5.209  1.1266 -1.5045 -1.6983
 7425SOL     OW23173   5.172   0.536   1.895 -0.0860 -0.2160 -0.0236
 7425SOL    HW123174   5.218   0.488   1.820 -1.0136 -1.6803  0.3073
 7425SOL    HW223175   5.081   0.497   1.909 -0.4312  0.9086  1.0205
 7426SOL     OW23176   3.785   2.826   5.109 -0.1560  0.4386 -0.3218
 7426SOL    HW123177   3.822   2.893   5.046 -1.8189  2.4218  0.6758
 7426SOL    HW223178   3.729   2.760   5.059  0.8665  0.2427 -1.2323
 7427SOL     OW23179   3.010   5.622   2.240 -0.2567 -0.4804 -0.2352
 7427SOL    HW123180   3.038   5.526   2.248  0.6868 -0.1577  0.5767
 7427SOL    HW223181   2.998   5.646   2.144  0.1214 -1.2394 -0.4774
 7428SOL     OW23182   2.882   0.344   6.062  0.6069 -0.0366  0.7112
 7428SOL    HW123183   2.818   0.297   6.123 -1.2536 -0.3612 -1.3292
 7428SOL    HW223184   2.865   0.442   6.066  1.1677  0.0346  1.4252
 7429SOL     OW23185   1.797   0.148   3.207 -0.5044  0.0181 -0.4894
 7429SOL    HW123186   1.745   0.092   3.271 -1.5070  1.8759  0.4131
 7429SOL    HW223187   1.891   0.116   3.202 -0.9740 -1.5319  0.2047
 7430SOL     OW23188   6.999   4.334   6.952  0.7288 -0.9560 -0.2262
 7430SOL    HW123189   7.098   4.325   6.937  0.6024  0.9641 -2.8851
 7430SOL    HW223190   6.973   4.430   6.947 -1.3976 -1.4995 -0.4419
 7431SOL     OW23191   1.100   3.219   4.914  0.6061 -0.0080  0.1449
 7431SOL    HW123192   1.064   3.205   4.822  0.4507  0.7978  0.0767
 7431SOL    HW223193   1.068   3.146   4.974 -0.2815  0.1274 -0.1600
 7432SOL     OW23194   2.099   1.832   1.113  0.0861 -0.2273 -0.6668
 7432SOL    HW123195   2.183   1.779   1.125  1.0464  1.2660 -0.5136
 7432SOL    HW223196   2.028   1.795   1.173  1.0967 -0.5836  0.3666
 7433SOL     OW23197   4.952   4.788   4.419 -0.5317  0.4576 -0.1880
 7433SOL    HW123198   4.881   4.748   4.362  0.1651  1.2830 -1.7071
 7433SOL    HW223199   4.938   4.887   4.426 -1.0135  0.2911  1.7241
 7434SOL     OW23200   4.428   5.828   2.629  0.1066 -0.4870  0.3449
 7434SOL    HW123201   4.338   5.825   2.672 -1.6560  1.3178 -2.8459
 7434SOL    HW223202   4.453   5.736   2.599 -1.2654 -0.8310  0.1822
 7435SOL     OW23203   4.704   2.253   3.409  0.0716  0.0772  0.1882
 7435SOL    HW123204   4.780   2.207   3.455 -0.7111 -0.7159  0.7169
 7435SOL    HW223205   4.693   2.345   3.446  1.6962  0.7808 -0.9257
 7436SOL     OW23206   4.432   1.363   6.982 -0.2564  0.7566  0.0511
 7436SOL    HW123207   4.463   1.297   6.914 -1.0795 -0.5815  0.9177
 7436SOL    HW223208   4.502   1.433   6.994  0.5152  0.2375 -1.1283
 7437SOL     OW23209   3.422   6.862   6.133  0.2394  0.2448  0.5122
 7437SOL    HW123210   3.502   6.803   6.143 -0.6519 -0.9680  0.6071
 7437SOL    HW223211   3.444   6.953   6.168  2.1672  0.4944 -1.1473
 7438SOL     OW23212   2.583   1.354   5.676 -0.0096  0.2376 -0.1815
 7438SOL    HW123213   2.657   1.295   5.708 -0.3267 -1.1122 -1.7832
 7438SOL    HW223214   2.495   1.308   5.689 -0.1977 -0.0772 -2.2126
 7439SOL     OW23215   0.720   4.513   5.461  0.3281 -0.1472  0.0323
 7439SOL    HW123216   0.668   4.591   5.495  1.4213  0.7421 -0.2599
 7439SOL    HW223217   0.658   4.437   5.440 -0.5310 -0.1952  2.5010
 7440SOL     OW23218   6.174   1.262   4.795 -0.3737 -0.2585  0.1214
 7440SOL    HW123219   6.094   1.284   4.739 -0.4681  0.6383  0.5811
 7440SOL    HW223220   6.144   1.246   4.889 -0.0141  0.0857  0.2952
 7441SOL     OW23221   5.589   6.870   1.876  0.1697  0.0545  0.4462
 7441SOL    HW123222   5.673   6.818   1.895 -0.5183 -0.6998  1.5584
 7441SOL    HW223223   5.551   6.904   1.962 -0.0692  1.3671 -0.1551
 7442SOL     OW23224   0.241   0.517   5.942  0.9000 -0.3222  0.6496
 7442SOL    HW123225   0.145   0.526   5.919  0.7429 -2.8151  0.0474
 7442SOL    HW223226   0.278   0.607   5.967 -1.3084  0.8419 -0.0080
 7443SOL     OW23227   1.483   1.363   1.074 -0.1459  0.0832  0.1784
 7443SOL    HW123228   1.511   1.344   0.980  2.7271  1.9905  0.5097
 7443SOL    HW223229   1.495   1.281   1.130  0.5137 -0.4032 -0.6499
 7444SOL     OW23230   0.555   6.152   0.157 -0.2487 -0.0296 -0.5371
 7444SOL    HW123231   0.540   6.171   0.060  0.2400 -1.7619 -0.9941
 7444SOL    HW223232   0.651   6.171   0.179 -0.4179  0.5937 -0.3235
 7445SOL     OW23233   4.526   5.900   3.380 -0.3558  0.2271 -0.0308
 7445SOL    HW123234   4.449   5.870   3.324 -0.6376  0.0637  0.4326
 7445SOL    HW223235   4.501   5.982   3.431 -0.6512 -0.5008  1.0337
 7446SOL     OW23236   5.552   6.518   6.017 -0.4283 -0.2832  0.2666
 7446SOL    HW123237   5.639   6.480   6.050  0.8233  1.3143 -0.9864
 7446SOL    HW223238   5.524   6.469   5.934 -0.3816 -0.3713  0.3025
 7447SOL     OW23239   5.882   6.272   6.316 -0.2410 -0.3471  0.3059
 7447SOL    HW123240   5.847   6.309   6.402 -0.9824 -0.3257  0.0006
 7447SOL    HW223241   5.867   6.339   6.243  0.4654 -0.3275  0.1696
 7448SOL     OW23242   3.682   6.291   6.767 -0.1771  0.4573  0.3027
 7448SOL    HW123243   3.756   6.248   6.715 -0.2274  0.1006  0.5176
 7448SOL    HW223244   3.677   6.388   6.746  0.2089  0.4367  0.1204
 7449SOL     OW23245   5.160   3.424   6.687 -0.4754 -0.9243  0.8366
 7449SOL    HW123246   5.201   3.341   6.724  0.1495 -0.8816  0.2659
 7449SOL    HW223247   5.071   3.440   6.730 -2.6963 -4.2210 -1.9604
 7450SOL     OW23248   5.700   3.839   5.697 -0.4903  0.7030 -0.0300
 7450SOL    HW123249   5.696   3.841   5.797 -0.1946  1.0051 -0.0207
 7450SOL    HW223250   5.607   3.843   5.661 -0.7191 -1.3148  0.2395
 7451SOL     OW23251   4.087   5.911   4.463 -0.6541  0.2163 -0.1764
 7451SOL    HW123252   4.136   5.987   4.505 -1.1896 -0.5314  1.9521
 7451SOL    HW223253   4.150   5.835   4.449 -0.0122  1.1432 -2.7411
 7452SOL     OW23254   0.372   5.816   1.422  0.5527  0.0706 -0.1672
 7452SOL    HW123255   0.427   5.861   1.352 -0.0280  0.7542 -0.1989
 7452SOL    HW223256   0.276   5.845   1.412  0.4727  0.2119  0.9348
 7453SOL     OW23257   5.733   3.797   6.502 -0.1229 -0.0175  0.2717
 7453SOL    HW123258   5.659   3.793   6.569 -0.7425 -1.5017 -0.4483
 7453SOL    HW223259   5.810   3.847   6.540 -1.4308  1.4721  1.0851
 7454SOL     OW23260   4.466   1.755   6.424  0.1173  0.1485 -0.0194
 7454SOL    HW123261   4.516   1.842   6.429  0.2057  0.0501  1.1925
 7454SOL    HW223262   4.447   1.733   6.329  2.5092  0.1206 -0.5419
 7455SOL     OW23263   1.040   0.474   2.631  0.0133 -0.0522 -0.4222
 7455SOL    HW123264   1.050   0.449   2.534 -1.4858  0.2717 -0.6892
 7455SOL    HW223265   0.974   0.413   2.675  1.3737 -0.7907  0.6621
 7456SOL     OW23266   2.779   1.871   5.660  0.4041  0.0920 -0.5489
 7456SOL    HW123267   2.740   1.787   5.697 -1.5139  1.6974  1.3422
 7456SOL    HW223268   2.873   1.882   5.693  0.1363 -0.5674  0.4694
 7457SOL     OW23269   0.547   3.062   1.809  0.1414  0.2592 -0.1057
 7457SOL    HW123270   0.527   3.008   1.727 -1.0511  0.1546  0.2321
 7457SOL    HW223271   0.462   3.078   1.860  0.7138  1.1655  0.5946
 7458SOL     OW23272   6.924   6.458   4.630  0.0821 -0.2982  0.0425
 7458SOL    HW123273   7.014   6.487   4.663 -0.8054  1.7787  0.7797
 7458SOL    HW223274   6.878   6.534   4.585 -1.0524 -1.5199 -0.9686
 7459SOL     OW23275   4.448   6.887   1.754 -0.7595  0.0158  0.3115
 7459SOL    HW123276   4.419   6.797   1.720 -1.6780  0.4426 -0.0706
 7459SOL    HW223277   4.389   6.915   1.830  0.8774 -0.6431  1.8990
 7460SOL     OW23278   0.492   0.713   1.532  0.0450  0.1449 -0.1349
 7460SOL    HW123279   0.537   0.644   1.476  0.0711  0.5368 -0.6057
 7460SOL    HW223280   0.525   0.804   1.506  0.3590  0.3076  0.7997
 7461SOL     OW23281   0.821   3.904   5.113  0.2420  0.3869 -0.0802
 7461SOL    HW123282   0.868   3.907   5.025 -2.1655  1.1253 -1.4465
 7461SOL    HW223283   0.829   3.993   5.159 -0.5598  0.8210 -0.7537
 7462SOL     OW23284   3.245   5.396   6.329 -0.6328  0.0837 -1.2911
 7462SOL    HW123285   3.343   5.418   6.330 -0.4144 -0.8592 -0.8873
 7462SOL    HW223286   3.223   5.346   6.245 -0.5102 -0.7982 -0.8035
 7463SOL     OW23287   4.921   3.434   1.190  0.0933  0.1205 -0.7097
 7463SOL    HW123288   4.882   3.352   1.232  0.6249  0.7173  1.0614
 7463SOL    HW223289   4.850   3.504   1.180  0.4035  0.8924  1.6992
 7464SOL     OW23290   6.054   6.028   3.418 -0.0069 -0.2486 -0.5453
 7464SOL    HW123291   6.129   6.059   3.359  0.6283  1.3867  1.0459
 7464SOL    HW223292   6.058   5.928   3.427  1.8230 -0.2189 -0.6855
 7465SOL     OW23293   1.839   3.267   0.640 -0.5058 -0.3616  0.3620
 7465SOL    HW123294   1.796   3.196   0.584 -1.7812 -0.6648  1.6645
 7465SOL    HW223295   1.914   3.309   0.588 -1.5182 -0.7253 -1.4941
 7466SOL     OW23296   3.598   0.345   5.535  0.3126  0.1443 -0.2867
 7466SOL    HW123297   3.640   0.414   5.593 -1.5306 -0.0049  1.3345
 7466SOL    HW223298   3.615   0.367   5.439  2.9034  0.7531  0.2486
 7467SOL     OW23299   1.673   3.488   3.574  0.1243  0.2958  0.1242
 7467SOL    HW123300   1.752   3.472   3.634  0.6590 -1.1444 -0.9083
 7467SOL    HW223301   1.647   3.402   3.530 -0.5730  1.2229 -1.3297
 7468SOL     OW23302   6.372   5.324   5.655 -0.4641  0.0198  0.5320
 7468SOL    HW123303   6.434   5.377   5.598 -1.7570 -0.8902 -1.8611
 7468SOL    HW223304   6.389   5.226   5.640 -0.8591 -0.2490  1.7324
 7469SOL     OW23305   6.645   2.544   6.597 -0.0333 -0.0438 -0.0282
 7469SOL    HW123306   6.720   2.486   6.564 -0.0328 -0.0936  0.0587
 7469SOL    HW223307   6.619   2.515   6.689 -2.7949 -2.6213 -1.4543
 7470SOL     OW23308   6.663   3.737   3.747 -0.3650 -0.2693  0.2692
 7470SOL    HW123309   6.671   3.682   3.830  1.2122 -0.5130 -0.0249
 7470SOL    HW223310   6.749   3.785   3.730 -0.9735  0.5013 -0.7321
 7471SOL     OW23311   4.192   0.078   6.956  0.2409  0.2845 -0.2086
 7471SOL    HW123312   4.215   0.130   7.038  0.2724  2.2923 -1.4175
 7471SOL    HW223313   4.275   0.039   6.917  0.4204  0.5013 -0.0459
 7472SOL     OW23314   6.641   6.785   5.328 -0.3637  0.3767 -0.2505
 7472SOL    HW123315   6.568   6.716   5.323 -0.2378  0.1548  0.7916
 7472SOL    HW223316   6.634   6.846   5.249 -1.5446  0.2221 -0.2833
 7473SOL     OW23317   5.253   5.903   4.335  0.9020  0.8040  0.3774
 7473SOL    HW123318   5.171   5.920   4.281  0.8407  2.0213  0.8274
 7473SOL    HW223319   5.325   5.866   4.276 -0.5652 -2.3378  0.3373
 7474SOL     OW23320   5.961   1.546   1.337 -0.7914  0.6781  0.0447
 7474SOL    HW123321   6.009   1.472   1.385  0.3453  0.9479 -0.6256
 7474SOL    HW223322   5.947   1.623   1.400 -0.5259  0.5141  0.3083
 7475SOL     OW23323   3.201   2.454   0.815 -0.1449  0.2718  0.5217
 7475SOL    HW123324   3.244   2.415   0.734 -1.0357 -1.6918  0.9412
 7475SOL    HW223325   3.216   2.553   0.816  3.0233 -0.0872 -0.1293
 7476SOL     OW23326   2.977   1.670   2.535 -0.4776 -0.2497 -0.3491
 7476SOL    HW123327   2.968   1.667   2.435 -1.2074  0.7348 -0.3282
 7476SOL    HW223328   2.944   1.583   2.573 -1.3904 -0.1557 -0.8929
 7477SOL     OW23329   3.626   3.947   4.721  0.3289  0.2565  0.0319
 7477SOL    HW123330   3.671   4.031   4.690 -0.1128  0.7862  0.7995
 7477SOL    HW223331   3.534   3.943   4.682  0.4651 -0.0378 -0.2634
 7478SOL     OW23332   2.098   3.121   0.403 -0.2983  0.6722 -0.0641
 7478SOL    HW123333   2.095   3.024   0.429  0.6807  0.4265 -0.7961
 7478SOL    HW223334   2.080   3.130   0.305 -1.3753  1.3392  0.1851
 7479SOL     OW23335   5.504   2.953   0.557  0.7157  0.3120 -0.0167
 7479SOL    HW123336   5.459   2.893   0.492 -0.2258 -0.4661  1.3316
 7479SOL    HW223337   5.499   3.048   0.523 -0.5411  0.0434 -0.6445
 7480SOL     OW23338   3.155   5.544   4.245 -0.2646 -0.2192  0.1204
 7480SOL    HW123339   3.229   5.478   4.234  1.4778  1.2781  2.1270
 7480SOL    HW223340   3.091   5.511   4.315 -1.0912 -1.0999 -0.9975
 7481SOL     OW23341   2.220   5.446   6.362 -0.0287  0.2678  0.4525
 7481SOL    HW123342   2.309   5.413   6.329 -0.3279 -0.3538  0.2452
 7481SOL    HW223343   2.151   5.375   6.347 -0.7689  1.1277 -0.3273
 7482SOL     OW23344   2.095   1.898   6.121  0.1678 -0.0823 -0.4022
 7482SOL    HW123345   2.154   1.818   6.108  0.4520 -0.0434  0.5618
 7482SOL    HW223346   2.100   1.957   6.041 -1.9705 -2.2294 -2.2760
 7483SOL     OW23347   3.869   1.251   4.826  0.3426 -0.2657  0.0409
 7483SOL    HW123348   3.880   1.291   4.917 -2.9927 -0.9180  0.8559
 7483SOL    HW223349   3.919   1.307   4.760  1.9765  0.8550  2.0768
 7484SOL     OW23350   3.084   0.800   5.437 -0.0218 -0.1171 -0.2407
 7484SOL    HW123351   3.144   0.723   5.456 -0.0882 -0.3609 -0.9910
 7484SOL    HW223352   2.992   0.767   5.417 -0.7823  0.3179  2.1946
 7485SOL     OW23353   2.931   0.232   6.328  0.5120 -0.4248 -0.2235
 7485SOL    HW123354   2.876   0.186   6.397  3.1556  0.8586  2.9743
 7485SOL    HW223355   2.922   0.331   6.339  0.0716 -0.1436 -2.5935
 7486SOL     OW23356   3.764   6.592   5.798 -0.0384  0.0992 -0.1065
 7486SOL    HW123357   3.839   6.530   5.779  0.9715  0.1340  3.1700
 7486SOL    HW223358   3.794   6.664   5.861 -2.9178 -0.3117  1.9724
 7487SOL     OW23359   5.042   0.785   5.103  0.2804  0.2470  0.9569
 7487SOL    HW123360   5.025   0.730   5.022 -1.7811  0.4246  1.2092
 7487SOL    HW223361   5.099   0.864   5.079  0.5935 -0.2760 -0.0664
 7488SOL     OW23362   1.705   4.929   2.505  0.5678  0.6718 -0.2748
 7488SOL    HW123363   1.688   4.860   2.575 -0.2043  0.0898 -1.0090
 7488SOL    HW223364   1.617   4.959   2.467  0.8928  1.9943 -0.0442
 7489SOL     OW23365   5.665   5.280   5.036 -0.3446 -0.0622 -0.5260
 7489SOL    HW123366   5.691   5.361   5.089 -1.5065  0.7416 -1.1538
 7489SOL    HW223367   5.614   5.308   4.955  0.4833 -1.3424 -1.5262
 7490SOL     OW23368   3.738   3.202   2.329 -0.5691  0.1868  0.7732
 7490SOL    HW123369   3.826   3.247   2.347 -0.4956 -0.0506  1.0311
 7490SOL    HW223370   3.748   3.103   2.344 -0.6430  0.0368 -0.1087
 7491SOL     OW23371   5.412   4.442   5.488  0.0277  0.0943  0.0923
 7491SOL    HW123372   5.327   4.453   5.539 -1.5463  1.1539 -2.5672
 7491SOL    HW223373   5.461   4.529   5.485  0.1972 -0.0057 -0.0847
 7492SOL     OW23374   1.366   0.548   4.324 -0.1239  0.3806 -0.3665
 7492SOL    HW123375   1.415   0.536   4.238 -1.4649 -0.2461 -1.0675
 7492SOL    HW223376   1.308   0.630   4.319  0.0292  0.5164  0.0543
 7493SOL     OW23377   5.450   4.540   4.478  0.0840  0.3749 -0.0475
 7493SOL    HW123378   5.365   4.579   4.444 -0.7880  0.5394  2.1636
 7493SOL    HW223379   5.437   4.443   4.498  0.0636  0.6285  1.2703
 7494SOL     OW23380   4.723   1.554   4.233  0.7600  0.3785  0.1588
 7494SOL    HW123381   4.733   1.568   4.331 -0.7265 -0.0172  0.3831
 7494SOL    HW223382   4.807   1.583   4.187  1.2704  1.0807  1.4789
 7495SOL     OW23383   0.248   4.284   3.877  0.0132 -0.3567  0.0409
 7495SOL    HW123384   0.223   4.312   3.969 -0.7867 -0.4396 -0.1481
 7495SOL    HW223385   0.263   4.365   3.820  0.3032 -0.3083  0.1815
 7496SOL     OW23386   4.747   4.679   3.473  0.4899 -0.1342  0.1194
 7496SOL    HW123387   4.785   4.737   3.546 -0.1605  0.4457  0.0140
 7496SOL    HW223388   4.659   4.718   3.443  0.7007 -0.4302 -0.8928
 7497SOL     OW23389   5.082   0.663   2.391  0.3829  0.4545 -0.0944
 7497SOL    HW123390   5.173   0.629   2.369  0.6501 -0.1197  1.7591
 7497SOL    HW223391   5.077   0.687   2.488 -2.0963 -1.7400  0.4509
 7498SOL     OW23392   6.652   5.895   2.806 -0.2441  0.2653 -0.0700
 7498SOL    HW123393   6.613   5.817   2.756  0.0785 -0.4286  0.7391
 7498SOL    HW223394   6.651   5.976   2.747 -1.2490 -0.1702 -0.6823
 7499SOL     OW23395   3.669   6.943   3.871  0.0602  0.3815 -0.4095
 7499SOL    HW123396   3.641   6.900   3.785 -1.6366  0.1125  0.2345
 7499SOL    HW223397   3.758   6.907   3.899  0.1815 -0.2603 -1.5491
 7500SOL     OW23398   4.063   1.134   0.101  0.5109 -0.4874  0.1156
 7500SOL    HW123399   3.996   1.188   0.050  0.1448  0.5106  1.5961
 7500SOL    HW223400   4.152   1.141   0.056 -0.2753 -1.7007 -1.7909
 7501SOL     OW23401   4.458   1.579   4.657 -0.2597 -0.1604 -0.1014
 7501SOL    HW123402   4.459   1.621   4.748  0.3042  0.6811 -0.4740
 7501SOL    HW223403   4.373   1.603   4.610 -0.1079  0.2685 -0.1673
 7502SOL     OW23404   4.149   0.598   5.489  0.3990  0.6814 -0.0170
 7502SOL    HW123405   4.098   0.655   5.425  1.5807  0.4190 -1.2504
 7502SOL    HW223406   4.242   0.585   5.454  0.6408 -0.6423  1.0614
 7503SOL     OW23407   0.146   4.826   0.673  0.9777 -1.0841 -0.1059
 7503SOL    HW123408   0.159   4.925   0.672  4.5327 -1.4216 -0.6552
 7503SOL    HW223409   0.188   4.787   0.755 -0.5352 -2.1680  0.1973
 7504SOL     OW23410   6.765   6.688   6.501  0.0855  0.1576 -0.4054
 7504SOL    HW123411   6.672   6.718   6.484 -0.5842 -1.7305 -0.2986
 7504SOL    HW223412   6.806   6.655   6.415  0.3476  0.1921 -0.2949
 7505SOL     OW23413   0.851   0.831   5.980  0.1799  0.0198 -0.0710
 7505SOL    HW123414   0.916   0.766   6.021 -0.7015 -0.2039  1.0025
 7505SOL    HW223415   0.855   0.823   5.880 -0.5680 -2.3844  0.0213
 7506SOL     OW23416   3.092   1.909   3.339  0.1673  0.0993  0.4405
 7506SOL    HW123417   3.101   2.006   3.360  0.2054 -0.1626  1.7342
 7506SOL    HW223418   3.162   1.882   3.273 -0.0992  1.0296 -0.2307
 7507SOL     OW23419   5.656   3.265   6.273 -0.0697  0.3755 -0.4018
 7507SOL    HW123420   5.639   3.237   6.178  1.0852  1.8918 -1.0936
 7507SOL    HW223421   5.752   3.253   6.295 -0.2967  0.1940  0.5482
 7508SOL     OW23422   3.981   5.882   1.678 -0.3865  0.0297 -0.5112
 7508SOL    HW123423   3.933   5.798   1.651  0.2017 -0.0117 -1.4790
 7508SOL    HW223424   4.079   5.869   1.667 -0.3280  1.0894 -1.3872
 7509SOL     OW23425   4.928   3.891   1.513 -0.5190 -0.4167 -0.0956
 7509SOL    HW123426   5.021   3.927   1.512 -1.3669  1.9525 -0.0633
 7509SOL    HW223427   4.864   3.964   1.539 -2.2156 -2.4399  1.7747
 7510SOL     OW23428   1.601   6.379   0.341 -0.2544  0.0199  0.0839
 7510SOL    HW123429   1.532   6.332   0.285  0.1525  1.0554 -1.3669
 7510SOL    HW223430   1.638   6.456   0.288 -0.2540  1.4059  2.0094
 7511SOL     OW23431   5.530   6.233   3.087 -0.1196 -0.0537  0.2543
 7511SOL    HW123432   5.443   6.210   3.043 -0.1987 -1.4522  1.0901
 7511SOL    HW223433   5.602   6.172   3.054  0.3287  0.4400  0.3076
 7512SOL     OW23434   3.059   5.908   2.287  0.6843  0.2392  0.2680
 7512SOL    HW123435   3.055   5.949   2.378 -0.3479 -0.6499  0.6488
 7512SOL    HW223436   3.066   5.809   2.296  0.2255  0.1189 -0.6223
 7513SOL     OW23437   1.815   1.090   3.228  0.2527  0.3021 -0.2369
 7513SOL    HW123438   1.797   1.187   3.213 -1.8721 -0.0583 -0.3836
 7513SOL    HW223439   1.833   1.074   3.325 -0.2531  0.7398 -0.0673
 7514SOL     OW23440   1.236   0.871   5.388 -0.1963  0.0178  0.3101
 7514SOL    HW123441   1.263   0.967   5.393 -1.6686  0.4548  0.1188
 7514SOL    HW223442   1.137   0.863   5.389 -0.1007 -1.5237  0.5101
 7515SOL     OW23443   1.613   6.247   5.562  0.1519 -0.0634  0.4580
 7515SOL    HW123444   1.534   6.212   5.511 -1.7643  2.6666  1.3107
 7515SOL    HW223445   1.686   6.271   5.498  1.6142 -5.0883 -0.2102
 7516SOL     OW23446   3.592   6.280   4.524 -0.2960 -0.3428  0.0967
 7516SOL    HW123447   3.507   6.333   4.515 -0.2643 -0.2610  0.2879
 7516SOL    HW223448   3.611   6.264   4.620  0.0097 -0.1956  0.0595
 7517SOL     OW23449   6.149   2.330   1.328  0.0084 -0.3518  1.6559
 7517SOL    HW123450   6.105   2.347   1.416 -0.5832 -1.8013  1.6688
 7517SOL    HW223451   6.080   2.301   1.261 -0.0292  3.2174 -0.0929
 7518SOL     OW23452   3.378   0.373   4.864 -0.0709  0.0941 -0.1964
 7518SOL    HW123453   3.439   0.410   4.794  0.6955  0.5928  0.7264
 7518SOL    HW223454   3.308   0.440   4.887  1.2104  0.9677  1.3451
 7519SOL     OW23455   5.607   5.988   5.226  0.1383  0.1121 -0.9345
 7519SOL    HW123456   5.670   6.029   5.292 -0.8303  0.5944 -0.2905
 7519SOL    HW223457   5.625   5.890   5.220 -0.4757 -0.1540  0.8963
 7520SOL     OW23458   2.216   6.546   2.137 -0.7050  0.2347 -0.4785
 7520SOL    HW123459   2.136   6.552   2.077 -1.0669  0.5288  0.0248
 7520SOL    HW223460   2.192   6.498   2.221 -0.9477  2.1111  0.5961
 7521SOL     OW23461   3.437   1.681   5.732  0.2834  0.0614 -0.4008
 7521SOL    HW123462   3.512   1.701   5.667  0.4059 -0.2822 -0.3663
 7521SOL    HW223463   3.353   1.725   5.700  0.3933  0.0710 -0.6819
 7522SOL     OW23464   0.781   0.261   3.030 -0.5637 -0.7200  0.0649
 7522SOL    HW123465   0.784   0.166   3.061 -0.7063 -0.6456  0.3079
 7522SOL    HW223466   0.858   0.311   3.068  0.4419 -1.1316 -1.3772
 7523SOL     OW23467   5.225   6.986   1.147  0.2131 -0.7392  0.2177
 7523SOL    HW123468   5.245   6.914   1.080 -0.5917  0.1828 -1.0418
 7523SOL    HW223469   5.246   7.075   1.108 -3.3813  0.0921 -0.1428
 7524SOL     OW23470   6.929   5.741   5.741 -0.6487 -0.5763  0.8372
 7524SOL    HW123471   6.982   5.754   5.825 -1.4496 -0.1729  1.2940
 7524SOL    HW223472   6.911   5.830   5.699  1.7744 -0.8990 -1.0847
 7525SOL     OW23473   1.093   4.982   0.703  0.0299  0.2580 -0.1044
 7525SOL    HW123474   1.041   4.909   0.659  1.4998 -0.6054 -0.5034
 7525SOL    HW223475   1.190   4.957   0.704  0.5425  2.1231 -0.0583
 7526SOL     OW23476   1.377   6.235   0.753  0.2625  0.3649  0.5448
 7526SOL    HW123477   1.324   6.151   0.745 -0.2785  0.7679 -0.2190
 7526SOL    HW223478   1.399   6.270   0.662  2.0038  0.1253  0.8303
 7527SOL     OW23479   0.012   5.399   2.046 -0.2521 -0.0108  0.0209
 7527SOL    HW123480  -0.042   5.409   2.130  0.2345 -1.9086  0.6052
 7527SOL    HW223481  -0.043   5.352   1.977  0.0411 -0.3530  0.0151
 7528SOL     OW23482   5.575   1.882   3.473  0.0032 -0.3073  0.2426
 7528SOL    HW123483   5.618   1.853   3.558 -0.2063  0.5475  0.6533
 7528SOL    HW223484   5.497   1.822   3.452  0.9108 -1.3885 -0.1079
 7529SOL     OW23485   5.355   2.638   4.569  0.2629 -0.3278  0.3426
 7529SOL    HW123486   5.366   2.714   4.504  0.4069 -0.6549 -0.0151
 7529SOL    HW223487   5.266   2.645   4.614 -0.3591 -0.8163 -0.8043
 7530SOL     OW23488   1.531   2.236   2.699 -0.4700 -0.3394  0.0771
 7530SOL    HW123489   1.453   2.178   2.726 -1.1165 -0.0589 -1.1249
 7530SOL    HW223490   1.615   2.197   2.737 -0.5298 -3.4633 -2.4931
 7531SOL     OW23491   2.901   1.605   4.548  0.0877 -0.5492  0.1070
 7531SOL    HW123492   2.873   1.516   4.513  0.5345 -1.5167  2.0218
 7531SOL    HW223493   2.875   1.612   4.645 -1.5149  2.1326 -0.4315
 7532SOL     OW23494   5.018   6.099   5.275  0.1452  0.3613  0.5236
 7532SOL    HW123495   4.953   6.030   5.306  1.4043 -0.8227  0.6082
 7532SOL    HW223496   5.017   6.105   5.175 -2.1627  2.4567  0.5760
 7533SOL     OW23497   5.849   4.649   0.226 -0.5237 -0.6059  0.0243
 7533SOL    HW123498   5.884   4.655   0.132 -2.2169  3.0528 -0.5595
 7533SOL    HW223499   5.918   4.682   0.290 -0.3831 -0.2949 -0.2861
 7534SOL     OW23500   2.959   1.601   3.825 -0.3602  0.4842 -0.0974
 7534SOL    HW123501   2.988   1.583   3.731  0.1681  0.2201  0.1136
 7534SOL    HW223502   3.036   1.588   3.887 -1.0258 -0.6911  0.5272
 7535SOL     OW23503   6.126   0.312   4.961  0.4680  0.4822  0.0107
 7535SOL    HW123504   6.113   0.298   4.863  0.6259  0.1070  0.0417
 7535SOL    HW223505   6.045   0.355   5.000  0.1858  0.1337 -0.1875
 7536SOL     OW23506   6.332   6.317   4.245  0.7939 -0.0367 -0.3514
 7536SOL    HW123507   6.315   6.241   4.307 -0.7187  0.3489 -0.2507
 7536SOL    HW223508   6.422   6.357   4.266  0.9731 -0.8655  0.5636
 7537SOL     OW23509   3.082   0.185   1.017  0.1670  0.2555 -0.0348
 7537SOL    HW123510   3.002   0.193   0.957  0.3729  2.6295 -0.1218
 7537SOL    HW223511   3.105   0.089   1.029 -0.8903 -0.3860 -2.4130
 7538SOL     OW23512   2.396   4.265   5.237  0.1037  0.5816 -0.1571
 7538SOL    HW123513   2.381   4.326   5.159 -0.8092  0.4774 -0.0782
 7538SOL    HW223514   2.397   4.170   5.204 -0.3640  0.5329 -0.0360
 7539SOL     OW23515   4.417   0.432   5.770 -0.1850  0.0532  0.1949
 7539SOL    HW123516   4.442   0.456   5.864 -1.4874  0.3432  0.4948
 7539SOL    HW223517   4.490   0.459   5.708  0.4955  0.2874  1.0709
 7540SOL     OW23518   4.531   4.539   4.042 -0.3461  0.0151  0.3231
 7540SOL    HW123519   4.475   4.586   4.111 -2.1787 -0.6020 -0.6914
 7540SOL    HW223520   4.494   4.556   3.951  0.5766 -1.1913 -0.3101
 7541SOL     OW23521   1.354   4.513   5.715  0.5200  0.3079  0.1234
 7541SOL    HW123522   1.258   4.522   5.741  0.7921  2.6241  0.5496
 7541SOL    HW223523   1.384   4.596   5.668  2.2969 -0.4093 -0.1004
 7542SOL     OW23524   5.158   0.721   5.358  0.7982  0.4815 -0.2696
 7542SOL    HW123525   5.206   0.633   5.365 -1.6418 -0.8110  2.0096
 7542SOL    HW223526   5.088   0.716   5.287 -0.6444 -0.2010  1.1286
 7543SOL     OW23527   2.622   6.535   0.085  0.0650  0.0087  0.5343
 7543SOL    HW123528   2.596   6.483   0.004  3.1045 -2.9452  1.2249
 7543SOL    HW223529   2.693   6.601   0.061  0.2990 -0.2076  0.6297
 7544SOL     OW23530   0.549   1.924   5.208  0.0904 -0.2363  0.1944
 7544SOL    HW123531   0.632   1.903   5.155 -1.7497 -1.4118 -2.4279
 7544SOL    HW223532   0.528   2.022   5.199 -1.0002 -0.6234 -2.7577
 7545SOL     OW23533   0.840   5.812   3.678 -0.2890  0.3575  0.5325
 7545SOL    HW123534   0.770   5.741   3.684 -0.4162  0.6052  3.0676
 7545SOL    HW223535   0.868   5.823   3.583 -0.1278 -3.2028  0.0226
 7546SOL     OW23536   2.431   2.088   1.981  0.1710 -0.0034 -0.5414
 7546SOL    HW123537   2.407   2.030   2.059 -1.3741  0.0800 -0.9180
 7546SOL    HW223538   2.530   2.099   1.977  0.3161 -0.3899  1.1299
 7547SOL     OW23539   4.673   6.303   1.353  0.0574 -0.6222 -0.0096
 7547SOL    HW123540   4.577   6.318   1.378  0.2953  1.0254  0.0683
 7547SOL    HW223541   4.712   6.390   1.321  1.6788 -1.1488  0.4751
 7548SOL     OW23542   2.701   3.127   6.382 -0.2158 -0.5292 -0.6625
 7548SOL    HW123543   2.749   3.164   6.461 -0.3975  0.0386 -0.8108
 7548SOL    HW223544   2.760   3.132   6.301 -1.1612  2.0253 -1.2839
 7549SOL     OW23545   4.626   0.646   3.863 -0.3104  0.0651  0.6620
 7549SOL    HW123546   4.653   0.552   3.842  0.0390 -0.1344  1.9172
 7549SOL    HW223547   4.531   0.647   3.893 -0.7086  0.3047 -0.5494
 7550SOL     OW23548   0.096   0.059   3.924  0.3767  0.2229  0.0639
 7550SOL    HW123549   0.139   0.012   4.001  2.7694  2.0397 -0.0353
 7550SOL    HW223550   0.166   0.083   3.857 -1.2144  1.1708 -1.3240
 7551SOL     OW23551   5.868   3.540   1.081  0.0259  0.1321  0.0171
 7551SOL    HW123552   5.780   3.499   1.107  1.1053 -2.0432  0.4670
 7551SOL    HW223553   5.936   3.520   1.151  1.0598  1.2120 -0.6410
 7552SOL     OW23554   2.952   6.069   2.842 -0.0340  0.1763  0.0116
 7552SOL    HW123555   2.937   5.971   2.845 -2.6744  0.5455  1.6451
 7552SOL    HW223556   2.893   6.110   2.772 -0.5951  0.8211  0.8465
 7553SOL     OW23557   0.897   6.657   4.483  0.5097 -0.6538 -0.5093
 7553SOL    HW123558   0.803   6.625   4.493  0.8418 -1.6821 -0.5174
 7553SOL    HW223559   0.951   6.629   4.562  0.8592 -0.2474 -0.5962
 7554SOL     OW23560   5.185   2.767   2.847 -0.4444  0.2224  0.4931
 7554SOL    HW123561   5.217   2.846   2.794 -1.5503  0.7590  0.5931
 7554SOL    HW223562   5.142   2.799   2.931  0.0182 -0.5532  1.0351
 7555SOL     OW23563   4.878   6.266   4.294  0.5166 -0.5717 -0.2502
 7555SOL    HW123564   4.932   6.294   4.373 -0.5446 -0.8855  0.6052
 7555SOL    HW223565   4.817   6.341   4.267  0.7551 -0.5259 -0.6711
 7556SOL     OW23566   1.397   6.455   6.710 -0.2985 -0.1564  0.1548
 7556SOL    HW123567   1.495   6.451   6.690 -0.4802  1.5865 -1.3408
 7556SOL    HW223568   1.366   6.364   6.739  1.2837 -1.3948 -1.7178
 7557SOL     OW23569   5.750   5.318   6.411 -0.4990  0.5272 -0.0658
 7557SOL    HW123570   5.802   5.374   6.476 -1.6737  1.0087  0.4859
 7557SOL    HW223571   5.701   5.377   6.347 -1.7961  0.1620  0.5573
 7558SOL     OW23572   1.945   2.028   3.787 -0.0777  0.1773  0.0359
 7558SOL    HW123573   2.035   1.999   3.819 -0.6134  0.8904  2.4283
 7558SOL    HW223574   1.941   2.022   3.687  2.5916  0.1465 -0.1368
 7559SOL     OW23575   6.941   0.178   0.284  0.5154  0.1407  0.5714
 7559SOL    HW123576   6.931   0.259   0.226  1.4915  0.4520  0.8150
 7559SOL    HW223577   7.033   0.178   0.325 -0.4156  0.3794  2.7887
 7560SOL     OW23578   1.761   0.636   5.587  0.6806 -0.1934  0.5428
 7560SOL    HW123579   1.756   0.547   5.541  3.8914 -0.5359  0.6853
 7560SOL    HW223580   1.739   0.624   5.684 -2.6237 -0.0663 -0.0716
 7561SOL     OW23581   6.726   0.475   6.101 -0.3765 -0.0166  0.7328
 7561SOL    HW123582   6.633   0.490   6.134 -0.7503 -1.3014  0.3076
 7561SOL    HW223583   6.737   0.517   6.011 -0.6826 -0.2335  0.5936
 7562SOL     OW23584   3.122   6.670   3.180  0.0966  0.0325  0.2395
 7562SOL    HW123585   3.108   6.622   3.266  0.2855  2.0947  1.4684
 7562SOL    HW223586   3.194   6.738   3.190  0.1995  0.2555 -1.5938
 7563SOL     OW23587   4.392   0.337   3.332 -0.3271 -0.2203 -0.1136
 7563SOL    HW123588   4.430   0.271   3.268  2.5412  2.5391 -1.5567
 7563SOL    HW223589   4.322   0.391   3.285 -2.0036 -1.5526  0.7781
 7564SOL     OW23590   5.475   3.060   6.727  0.0429  0.4994 -0.1565
 7564SOL    HW123591   5.500   3.003   6.649 -0.4268 -0.1775  0.1749
 7564SOL    HW223592   5.447   3.001   6.803  1.0896  1.1193  0.7338
 7565SOL     OW23593   0.565   3.509   6.925  0.1124  0.2209  0.0029
 7565SOL    HW123594   0.583   3.509   6.826  0.2437  1.8901  0.0019
 7565SOL    HW223595   0.643   3.466   6.972  0.2158 -0.2573 -0.5885
 7566SOL     OW23596   5.583   2.712   6.993  0.2909 -0.0329 -0.7738
 7566SOL    HW123597   5.668   2.697   6.943  0.4777 -2.0974  0.0635
 7566SOL    HW223598   5.591   2.676   7.086 -1.1904  0.5829 -0.3658
 7567SOL     OW23599   6.825   5.939   1.964  0.1407 -0.1070 -0.1935
 7567SOL    HW123600   6.882   5.893   2.031 -0.0342  0.8007  0.6073
 7567SOL    HW223601   6.864   5.928   1.872  0.2524 -1.5561  0.0146
 7568SOL     OW23602   6.034   3.918   0.549  0.1506 -0.2315 -0.5660
 7568SOL    HW123603   6.016   3.969   0.633  2.5474 -0.4373  0.1482
 7568SOL    HW223604   6.044   3.821   0.570  0.4194 -0.3318 -1.1398
 7569SOL     OW23605   4.695   4.583   6.564  0.0243  0.1007 -0.5625
 7569SOL    HW123606   4.758   4.569   6.641  0.6073  0.6136 -0.9390
 7569SOL    HW223607   4.720   4.667   6.515  0.9050 -1.2354 -2.5206
 7570SOL     OW23608   1.904   2.481   2.618  0.4284 -0.7027  0.4742
 7570SOL    HW123609   1.891   2.408   2.552 -3.0568 -0.3931  0.6162
 7570SOL    HW223610   1.924   2.442   2.708  2.1341 -1.2519 -0.1140
 7571SOL     OW23611   3.251   2.104   4.528 -0.4231  0.2134 -0.1682
 7571SOL    HW123612   3.241   2.165   4.607  0.3166  2.3635 -1.6279
 7571SOL    HW223613   3.318   2.033   4.549 -2.3685 -1.0932  2.0951
 7572SOL     OW23614   4.410   0.609   3.998 -0.1687 -0.3546  0.3236
 7572SOL    HW123615   4.366   0.535   4.048 -3.8306  0.8877 -0.6999
 7572SOL    HW223616   4.421   0.688   4.059 -0.1464 -0.3927  0.3690
 7573SOL     OW23617   5.342   0.093   5.686 -0.7727 -0.5208 -0.3896
 7573SOL    HW123618   5.265   0.085   5.623 -1.1584  0.0218  0.0066
 7573SOL    HW223619   5.329   0.172   5.746  0.4426  0.0148 -0.7995
 7574SOL     OW23620   0.393   2.655   3.615 -0.0348 -0.2053 -0.1456
 7574SOL    HW123621   0.449   2.692   3.540  0.8359 -0.9758  0.1010
 7574SOL    HW223622   0.296   2.665   3.592  0.2037  0.3585 -0.9849
 7575SOL     OW23623   4.929   4.718   0.871 -0.1998 -0.0772 -0.0200
 7575SOL    HW123624   4.830   4.737   0.871 -0.3422 -0.6887  1.3044
 7575SOL    HW223625   4.945   4.626   0.907  0.9668  0.9775  2.4536
 7576SOL     OW23626   5.602   1.562   0.216 -0.3360 -0.4072  0.2331
 7576SOL    HW123627   5.533   1.532   0.149 -0.0944 -0.2879 -0.0743
 7576SOL    HW223628   5.678   1.606   0.167 -2.0349  3.5523  0.7556
 7577SOL     OW23629   0.523   0.449   6.759  0.1039  0.4955  0.0620
 7577SOL    HW123630   0.611   0.425   6.717  0.2139 -0.4840  0.8217
 7577SOL    HW223631   0.539   0.493   6.848 -0.1607 -1.7785  1.3001
 7578SOL     OW23632   6.662   5.049   2.686  0.4487 -0.1966  0.1837
 7578SOL    HW123633   6.741   4.991   2.708  0.9870  0.8683  1.1804
 7578SOL    HW223634   6.598   5.048   2.763  1.3099  1.8740  0.9926
 7579SOL     OW23635   1.575   1.825   0.718  0.4887  0.8673 -0.1132
 7579SOL    HW123636   1.577   1.750   0.652 -0.4289  1.3563 -0.7076
 7579SOL    HW223637   1.524   1.797   0.799  0.1773  0.8325 -0.3197
 7580SOL     OW23638   1.887   3.846   2.658  0.0183 -0.3364  0.2138
 7580SOL    HW123639   1.864   3.860   2.755 -1.3688  2.5939 -0.4204
 7580SOL    HW223640   1.802   3.833   2.606  0.6539 -0.5186 -0.7962
 7581SOL     OW23641   2.693   0.736   1.250  0.4012 -0.5555 -0.1608
 7581SOL    HW123642   2.703   0.834   1.237  2.1203 -0.5100  1.2751
 7581SOL    HW223643   2.777   0.690   1.223 -0.1069 -1.5694 -0.0589
 7582SOL     OW23644   0.065   6.899   5.526  0.6174 -0.1375  0.3135
 7582SOL    HW123645  -0.015   6.957   5.513  1.3639  1.4004  2.1042
 7582SOL    HW223646   0.102   6.872   5.437 -0.7869  0.6654 -0.5494
 7583SOL     OW23647   4.519   2.485   1.853 -0.1311  0.0360  0.5039
 7583SOL    HW123648   4.551   2.446   1.767 -2.1107  0.2182 -0.3491
 7583SOL    HW223649   4.528   2.584   1.851 -0.2628  0.0473  0.4725
 7584SOL     OW23650   4.813   0.707   5.256  0.3528  0.1740 -0.1682
 7584SOL    HW123651   4.773   0.744   5.340 -1.3811  0.5107 -1.0909
 7584SOL    HW223652   4.897   0.757   5.234 -0.6486  1.9671 -0.1049
 7585SOL     OW23653   2.143   6.983   5.438 -0.5112 -0.2759  0.0399
 7585SOL    HW123654   2.056   7.032   5.435 -0.4445 -0.1803 -0.5995
 7585SOL    HW223655   2.142   6.916   5.513 -0.8033  0.3279  0.5850
 7586SOL     OW23656   0.799   0.830   3.571 -0.5649 -0.0176 -0.4134
 7586SOL    HW123657   0.891   0.841   3.535 -0.2826  2.1692  0.7924
 7586SOL    HW223658   0.733   0.855   3.501 -0.2794 -1.5090 -1.2531
 7587SOL     OW23659   6.690   0.739   2.349 -0.7142 -0.4940  0.0867
 7587SOL    HW123660   6.607   0.770   2.302  1.1445  0.3120 -2.9887
 7587SOL    HW223661   6.733   0.816   2.396 -0.8755 -0.5330  0.2968
 7588SOL     OW23662   1.018   4.264   6.481  0.4143  0.2637  0.5492
 7588SOL    HW123663   1.041   4.358   6.506 -1.7134  1.2148 -0.7992
 7588SOL    HW223664   0.989   4.261   6.385  0.1622 -1.7264  0.6520
 7589SOL     OW23665   5.918   0.509   1.601  0.1335 -0.0940  0.4984
 7589SOL    HW123666   5.823   0.477   1.593  0.5829 -1.1718 -0.8389
 7589SOL    HW223667   5.974   0.466   1.530  1.2024  2.2339 -0.1472
 7590SOL     OW23668   6.939   0.463   6.502 -0.6358 -0.0587 -0.2197
 7590SOL    HW123669   6.889   0.501   6.580 -0.7218  2.0317 -1.2255
 7590SOL    HW223670   7.025   0.423   6.534 -1.8583 -1.7006  1.2423
 7591SOL     OW23671   3.643   3.840   6.307 -0.1397  0.1159 -0.3890
 7591SOL    HW123672   3.566   3.789   6.344 -1.1183  1.7766 -0.0331
 7591SOL    HW223673   3.609   3.917   6.252  1.2314  1.1611  0.1646
 7592SOL     OW23674   5.686   0.099   2.918 -0.6241 -0.1789  0.0619
 7592SOL    HW123675   5.766   0.040   2.926 -0.5524  0.0553  1.3034
 7592SOL    HW223676   5.677   0.131   2.824 -0.0648 -1.3191 -0.3883
 7593SOL     OW23677   6.873   2.764   6.399  0.0057  0.3582 -0.0258
 7593SOL    HW123678   6.784   2.736   6.437  1.4523 -0.1030  3.4606
 7593SOL    HW223679   6.874   2.863   6.384 -1.3348  0.2523 -0.9990
 7594SOL     OW23680   6.473   6.486   6.055 -0.0331 -0.0750  0.3400
 7594SOL    HW123681   6.514   6.415   5.998 -0.0511  0.2572 -0.0899
 7594SOL    HW223682   6.384   6.511   6.018  0.5682  1.1676 -0.3316
 7595SOL     OW23683   5.949   3.341   5.370  0.1744  0.6433  0.4216
 7595SOL    HW123684   6.015   3.366   5.299  0.2894 -1.7446 -0.3979
 7595SOL    HW223685   5.857   3.342   5.331  0.4662 -3.6502 -0.8491
 7596SOL     OW23686   4.914   0.348   6.470  0.0627 -0.4336  0.2404
 7596SOL    HW123687   4.923   0.447   6.478 -0.7771 -0.1088 -1.9854
 7596SOL    HW223688   5.003   0.305   6.480  0.3337  0.4504  1.9513
 7597SOL     OW23689   0.750   2.676   6.598 -0.4761 -0.2039 -0.4637
 7597SOL    HW123690   0.735   2.637   6.689 -0.9965  1.4870  0.2190
 7597SOL    HW223691   0.841   2.653   6.566  0.0939  0.0214  0.9420
 7598SOL     OW23692   4.388   0.810   1.802  0.4730 -0.1941  0.4668
 7598SOL    HW123693   4.390   0.743   1.876  1.3448 -0.0920  0.5429
 7598SOL    HW223694   4.481   0.836   1.778  0.2011 -0.3294 -0.7763
 7599SOL     OW23695   3.914   2.751   6.752  0.4985  0.3850 -0.0171
 7599SOL    HW123696   3.841   2.687   6.774 -1.1136  2.1456  0.0407
 7599SOL    HW223697   3.969   2.715   6.677 -1.0352 -0.5609 -0.7369
 7600SOL     OW23698   0.802   0.719   4.477  0.1881  0.1953  0.4184
 7600SOL    HW123699   0.787   0.779   4.399  3.8142 -0.7757 -1.2238
 7600SOL    HW223700   0.806   0.774   4.561  0.7955  1.9318 -0.6820
 7601SOL     OW23701   2.678   5.955   0.839 -0.2393  0.0140  0.0710
 7601SOL    HW123702   2.737   5.905   0.903 -0.6354 -0.5197  0.0339
 7601SOL    HW223703   2.632   5.889   0.779  0.4030  0.5333 -1.0165
 7602SOL     OW23704   0.651   1.458   2.901 -0.4377  0.5610 -0.4153
 7602SOL    HW123705   0.593   1.484   2.979 -1.9334 -0.9656 -0.9641
 7602SOL    HW223706   0.683   1.540   2.855  2.1561  1.6629  2.8932
 7603SOL     OW23707   4.787   1.591   6.241  0.2918  0.2868  0.6080
 7603SOL    HW123708   4.851   1.659   6.205 -0.1815  1.0916  1.2643
 7603SOL    HW223709   4.792   1.590   6.341 -0.7660  0.4012  0.6694
 7604SOL     OW23710   2.676   1.660   1.908 -0.2874  0.1637  0.5147
 7604SOL    HW123711   2.612   1.732   1.882  0.4661  1.0913  1.1356
 7604SOL    HW223712   2.637   1.605   1.981 -0.5700  0.4330  0.5693
 7605SOL     OW23713   4.090   6.676   6.405 -0.4652  0.2779 -0.4480
 7605SOL    HW123714   4.111   6.717   6.494  1.7621 -0.8243 -0.3902
 7605SOL    HW223715   4.107   6.742   6.333  1.7972 -0.0313 -0.2733
 7606SOL     OW23716   0.851   2.839   3.577  0.0078  0.1560  0.4558
 7606SOL    HW123717   0.943   2.847   3.614 -0.1114  0.0365  0.7838
 7606SOL    HW223718   0.795   2.784   3.639  0.1857 -1.2652 -0.6011
 7607SOL     OW23719   2.899   0.682   3.947 -0.6605  0.1777  0.5389
 7607SOL    HW123720   2.850   0.762   3.911 -1.2023 -0.8128 -1.0302
 7607SOL    HW223721   2.835   0.625   3.999 -0.5545  0.1754  0.6670
 7608SOL     OW23722   0.587   1.573   5.469  0.1070  0.1890 -0.0743
 7608SOL    HW123723   0.556   1.666   5.454 -0.4931  0.0404  0.2061
 7608SOL    HW223724   0.514   1.519   5.511  0.4066 -0.4354 -0.3270
 7609SOL     OW23725   2.648   0.424   4.285 -0.1986 -0.3400 -0.4335
 7609SOL    HW123726   2.676   0.348   4.343  1.4331  0.8995  0.5086
 7609SOL    HW223727   2.558   0.406   4.247  0.3515 -2.9520 -0.6667
 7610SOL     OW23728   5.507   5.629   6.806 -0.1942 -0.2113 -0.0228
 7610SOL    HW123729   5.510   5.611   6.708 -0.0696 -0.6162  0.0539
 7610SOL    HW223730   5.594   5.602   6.848 -0.2647 -0.0884  0.2068
 7611SOL     OW23731   3.625   4.227   6.538  0.2699  0.0074 -0.4843
 7611SOL    HW123732   3.597   4.141   6.495  1.6345  0.2884 -2.0176
 7611SOL    HW223733   3.723   4.223   6.559 -0.0942  0.3927  1.4338
 7612SOL     OW23734   5.585   2.995   0.820  0.6222  0.4980  0.5207
 7612SOL    HW123735   5.612   2.904   0.852  0.3037 -0.2008 -1.0859
 7612SOL    HW223736   5.570   2.992   0.721 -1.7270  1.7057  0.7630
 7613SOL     OW23737   0.125   1.090   0.224 -0.2656 -0.5802 -0.2296
 7613SOL    HW123738   0.036   1.125   0.254  1.1322  1.7994  1.5298
 7613SOL    HW223739   0.159   1.024   0.291  0.3272  0.3905  0.4589
 7614SOL     OW23740   0.222   6.503   5.728 -0.1362  0.2358  0.0133
 7614SOL    HW123741   0.221   6.496   5.628  0.2498 -0.6608  0.0647
 7614SOL    HW223742   0.203   6.598   5.755 -0.5628  0.4186 -0.8968
 7615SOL     OW23743   5.882   2.509   5.591  0.0448  0.0047 -0.3238
 7615SOL    HW123744   5.899   2.431   5.530  0.1871 -0.8527  0.7624
 7615SOL    HW223745   5.794   2.550   5.568  0.1551 -0.2196 -1.1858
 7616SOL     OW23746   1.082   6.677   2.262  0.1051 -0.0061  0.4372
 7616SOL    HW123747   1.060   6.591   2.308  1.1841  0.3702  1.7510
 7616SOL    HW223748   1.010   6.744   2.280 -0.0440 -0.2118  0.6160
 7617SOL     OW23749   4.076   6.233   3.175  0.4463 -0.4473  0.5537
 7617SOL    HW123750   4.016   6.311   3.194 -0.1509 -0.7656  0.0298
 7617SOL    HW223751   4.171   6.262   3.178  0.2152  0.5059 -0.4679
 7618SOL     OW23752   2.707   2.546   6.004 -0.0748 -0.0898  0.4134
 7618SOL    HW123753   2.610   2.544   6.028 -0.3564  1.8275 -0.3526
 7618SOL    HW223754   2.727   2.472   5.941 -1.3207  0.1322 -0.2885
 7619SOL     OW23755   0.218   2.629   4.169 -0.0566  0.2527 -0.2466
 7619SOL    HW123756   0.252   2.585   4.253 -0.6653  1.2952  0.5632
 7619SOL    HW223757   0.295   2.647   4.107  1.1209  3.3016  1.8738
 7620SOL     OW23758   2.746   3.677   6.518  0.0629 -0.2195  0.2484
 7620SOL    HW123759   2.712   3.616   6.447  1.7343  1.3300 -2.0150
 7620SOL    HW223760   2.793   3.623   6.588 -0.1796 -1.6854 -0.6728
 7621SOL     OW23761   5.661   3.742   0.527 -0.3970  0.0653 -0.4582
 7621SOL    HW123762   5.709   3.772   0.445 -0.7102  0.8865 -0.3551
 7621SOL    HW223763   5.597   3.814   0.556  1.3529  0.8055  1.8242
 7622SOL     OW23764   2.445   5.086   6.447  0.0048  0.1634 -0.1279
 7622SOL    HW123765   2.414   5.162   6.389  2.3029  0.4999 -1.0013
 7622SOL    HW223766   2.403   5.001   6.415  1.0373  0.3741 -2.2204
 7623SOL     OW23767   5.167   3.962   2.975 -0.8603 -0.2113  0.4032
 7623SOL    HW123768   5.259   3.970   2.936 -1.3949 -0.6850 -1.0416
 7623SOL    HW223769   5.173   3.938   3.072  0.5308 -1.1045  0.1178
 7624SOL     OW23770   5.470   3.523   0.873 -0.5934 -0.0570 -0.4254
 7624SOL    HW123771   5.542   3.517   0.804 -0.4441 -0.9651 -0.1976
 7624SOL    HW223772   5.380   3.515   0.829 -0.4858 -1.0496 -0.4786
 7625SOL     OW23773   5.710   0.962   1.229  0.2437 -0.1724  0.0510
 7625SOL    HW123774   5.717   1.047   1.281  1.5813 -0.1036 -0.1931
 7625SOL    HW223775   5.687   0.983   1.134  0.1645 -0.1104  0.0839
 7626SOL     OW23776   5.929   0.535   0.192  0.8207  0.4923  0.4305
 7626SOL    HW123777   5.956   0.628   0.168  1.1855  0.1615 -0.4905
 7626SOL    HW223778   6.007   0.473   0.180  0.3598 -0.0607  0.2365
 7627SOL     OW23779   5.745   1.377   5.301 -0.2591  0.2343 -0.0139
 7627SOL    HW123780   5.751   1.468   5.261  0.7307 -0.1258 -0.7241
 7627SOL    HW223781   5.786   1.377   5.392  0.1887  0.3880 -0.2156
 7628SOL     OW23782   5.651   3.513   0.265 -0.9433  0.0730 -0.1189
 7628SOL    HW123783   5.688   3.525   0.357  0.0666 -1.1817 -0.3409
 7628SOL    HW223784   5.578   3.580   0.250 -0.3986  1.0082  1.1951
 7629SOL     OW23785   5.363   3.492   3.787 -0.0310 -0.0102 -0.2697
 7629SOL    HW123786   5.329   3.584   3.810  0.8358 -0.1956  2.0766
 7629SOL    HW223787   5.291   3.425   3.803 -0.2620  0.1233 -0.7268
 7630SOL     OW23788   0.337   6.050   2.810 -0.1355  0.2749 -0.0578
 7630SOL    HW123789   0.411   6.037   2.877 -0.5427  1.4133  0.6347
 7630SOL    HW223790   0.255   6.004   2.843 -0.4587  1.1964  0.4605
 7631SOL     OW23791   1.783   1.889   0.394 -0.1186  0.2809 -0.0780
 7631SOL    HW123792   1.790   1.792   0.417 -0.0361  0.6809  1.7293
 7631SOL    HW223793   1.688   1.911   0.370 -0.3058 -0.0786  0.3355
 7632SOL     OW23794   4.171   6.052   1.116 -0.2804  0.0463 -0.3452
 7632SOL    HW123795   4.221   6.075   1.033 -0.2256 -0.7032 -0.5253
 7632SOL    HW223796   4.227   5.994   1.174 -0.5314  0.1003 -0.0439
 7633SOL     OW23797   5.162   1.606   2.571 -0.0740  0.2791 -0.2374
 7633SOL    HW123798   5.197   1.556   2.492  0.3462  0.9909 -0.5122
 7633SOL    HW223799   5.151   1.703   2.547 -1.5073  0.2106  0.0762
 7634SOL     OW23800   1.076   1.565   0.093 -0.0184  0.1047 -0.1212
 7634SOL    HW123801   1.136   1.494   0.058 -0.2283  0.6837 -1.7139
 7634SOL    HW223802   1.065   1.637   0.025 -2.9078 -0.1859 -0.1198
 7635SOL     OW23803   1.934   2.912   6.541 -0.5757 -0.5941  0.0211
 7635SOL    HW123804   1.846   2.959   6.541  0.4507  1.8554  3.9379
 7635SOL    HW223805   2.006   2.975   6.512  0.3517 -1.0299  1.2518
 7636SOL     OW23806   4.521   1.407   3.261  0.0415 -0.3785  0.2799
 7636SOL    HW123807   4.608   1.392   3.214  0.6492 -4.3741  2.2646
 7636SOL    HW223808   4.445   1.389   3.198  0.6794  0.4466 -0.7470
 7637SOL     OW23809   6.909   4.911   4.092  0.3823 -0.0164  0.4928
 7637SOL    HW123810   6.819   4.870   4.083  0.3567  0.0559  0.4168
 7637SOL    HW223811   6.906   4.984   4.160  0.9501 -1.6374  2.3386
 7638SOL     OW23812   5.059   0.424   0.800  0.3223  0.4734  0.5155
 7638SOL    HW123813   5.030   0.516   0.829 -0.1135  1.3639 -2.4090
 7638SOL    HW223814   5.154   0.428   0.769  0.2401 -0.0053  0.2009
 7639SOL     OW23815   0.874   0.573   6.340  0.1105  0.1042  0.1821
 7639SOL    HW123816   0.902   0.601   6.248  1.0337  1.5413  0.8635
 7639SOL    HW223817   0.832   0.651   6.387  2.7838  0.4684  2.1673
 7640SOL     OW23818   4.459   0.956   0.657 -0.0697 -0.0506  0.1569
 7640SOL    HW123819   4.366   0.966   0.621 -0.1335 -2.3180 -0.4515
 7640SOL    HW223820   4.520   0.928   0.583  0.5080 -1.3259  1.0931
 7641SOL     OW23821   1.251   3.803   5.912  0.2337  0.2624 -0.3158
 7641SOL    HW123822   1.284   3.711   5.888 -2.0320 -0.5557 -0.5801
 7641SOL    HW223823   1.212   3.847   5.831  0.5471  1.1312 -0.0050
 7642SOL     OW23824   5.523   1.325   4.684 -0.0277  0.4815  0.2249
 7642SOL    HW123825   5.464   1.404   4.670  0.7153  1.3067  1.5855
 7642SOL    HW223826   5.483   1.265   4.753 -0.1105  0.1699 -0.0933
 7643SOL     OW23827   6.946   2.368   5.293 -0.0898  0.3615 -0.4352
 7643SOL    HW123828   6.976   2.353   5.199 -0.2424  1.0285 -0.5899
 7643SOL    HW223829   6.902   2.285   5.327  1.1475 -0.3516 -0.4948
 7644SOL     OW23830   5.685   2.944   0.288  0.1784  0.2882 -0.1131
 7644SOL    HW123831   5.734   3.010   0.345  0.3665  0.1836 -0.1536
 7644SOL    HW223832   5.613   2.991   0.236 -1.1489  0.1366  1.4948
 7645SOL     OW23833   4.072   4.047   6.376 -0.4766 -0.1994  0.3124
 7645SOL    HW123834   3.985   4.079   6.338 -0.5319 -0.0547  0.5534
 7645SOL    HW223835   4.127   4.004   6.304 -0.5341  0.1583  0.0511
 7646SOL     OW23836   5.733   2.263   3.249  0.0510 -0.2543  0.1966
 7646SOL    HW123837   5.746   2.302   3.340 -0.9737  0.4100  0.0782
 7646SOL    HW223838   5.810   2.289   3.191  0.5566 -0.4185  0.7738
 7647SOL     OW23839   0.905   0.347   4.028  0.1161  0.2523 -0.2917
 7647SOL    HW123840   0.903   0.249   4.007  1.2278  0.0080  0.6347
 7647SOL    HW223841   0.915   0.399   3.944  2.3746 -0.5892 -0.6021
 7648SOL     OW23842   2.422   2.749   1.001  0.2703 -0.0883 -0.3421
 7648SOL    HW123843   2.408   2.674   0.936  1.3345  0.6122 -1.4253
 7648SOL    HW223844   2.482   2.818   0.960 -1.2961  1.7598  0.3196
 7649SOL     OW23845   4.547   0.786   7.006 -0.2084  0.7362 -0.2244
 7649SOL    HW123846   4.523   0.713   6.942  1.5575  0.7412 -0.9500
 7649SOL    HW223847   4.463   0.827   7.043 -1.2440 -1.2329 -0.2530
 7650SOL     OW23848   6.297   2.773   0.325  1.0560  0.3617 -0.0442
 7650SOL    HW123849   6.374   2.726   0.367  0.3514  0.1792  1.0926
 7650SOL    HW223850   6.278   2.858   0.375 -2.3177 -1.7653  2.7561
 7651SOL     OW23851   4.182   4.530   0.419  0.5311 -0.0690 -0.0707
 7651SOL    HW123852   4.267   4.578   0.396  1.9748 -1.9147  1.0952
 7651SOL    HW223853   4.172   4.451   0.358  1.2445 -1.5435  1.6537
 7652SOL     OW23854   5.738   1.915   4.507  0.0231  0.0082 -0.0423
 7652SOL    HW123855   5.660   1.894   4.565 -0.2586  0.2361 -0.3369
 7652SOL    HW223856   5.821   1.922   4.564 -0.3111  0.6123  0.3852
 7653SOL     OW23857   1.859   5.547   0.522  0.4579 -0.2122 -0.1168
 7653SOL    HW123858   1.923   5.516   0.451  1.3548  0.9460  0.1641
 7653SOL    HW223859   1.871   5.490   0.603 -0.6552 -1.6247 -0.8817
 7654SOL     OW23860   5.509   3.548   5.864  0.1908 -0.0583 -0.0338
 7654SOL    HW123861   5.516   3.473   5.797 -1.5350  1.6230 -2.2784
 7654SOL    HW223862   5.415   3.581   5.867  0.9619  2.3071  0.5516
 7655SOL     OW23863   4.485   0.588   6.831  0.2416  0.3017  0.5356
 7655SOL    HW123864   4.433   0.631   6.758  2.5232  2.6014  0.1429
 7655SOL    HW223865   4.449   0.496   6.847 -0.4577 -0.2825 -3.3651
 7656SOL     OW23866   6.456   4.378   6.016  0.1195 -0.3251  0.3050
 7656SOL    HW123867   6.433   4.317   6.092  3.7031  1.7865  3.4373
 7656SOL    HW223868   6.387   4.449   6.008  0.0531 -0.1577  2.1432
 7657SOL     OW23869   2.333   3.788   5.585 -0.6213 -0.1916 -0.4599
 7657SOL    HW123870   2.384   3.721   5.637 -2.3872  0.0578  1.7774
 7657SOL    HW223871   2.237   3.762   5.582 -1.0446  1.3047 -1.0852
 7658SOL     OW23872   4.327   6.950   0.889  0.0464  0.5375 -0.1201
 7658SOL    HW123873   4.323   6.977   0.985  2.1380 -0.4671  0.2901
 7658SOL    HW223874   4.245   6.897   0.866 -0.9899  1.6887  0.7795
 7659SOL     OW23875   6.525   5.624   4.098 -0.2320 -0.6217  0.0927
 7659SOL    HW123876   6.478   5.702   4.139  0.7247 -1.3521  2.7505
 7659SOL    HW223877   6.596   5.656   4.036 -1.3955  0.5342 -0.6971
 7660SOL     OW23878   1.573   6.854   3.107 -0.4493 -0.7971 -0.0703
 7660SOL    HW123879   1.533   6.762   3.116 -0.4935 -0.7376  0.4067
 7660SOL    HW223880   1.644   6.852   3.038  0.7385 -1.6161  1.1244
 7661SOL     OW23881   3.318   1.871   6.219 -0.0338 -0.1512 -0.3902
 7661SOL    HW123882   3.344   1.775   6.229  1.7119  0.2691 -0.4908
 7661SOL    HW223883   3.316   1.914   6.309 -1.7113 -0.4763 -0.2546
 7662SOL     OW23884   6.363   0.236   2.515 -0.3740  0.0347  0.3813
 7662SOL    HW123885   6.329   0.328   2.535  1.7152  0.9351  0.0460
 7662SOL    HW223886   6.413   0.238   2.428  0.8629 -1.0882  1.0407
 7663SOL     OW23887   1.094   4.517   2.839  0.4231  0.3344  0.5413
 7663SOL    HW123888   1.065   4.490   2.747  0.8147  0.9864  0.2194
 7663SOL    HW223889   1.184   4.476   2.858  0.7582  0.9306  0.2729
 7664SOL     OW23890   5.114   2.409   3.819 -0.4939 -0.0825  0.5023
 7664SOL    HW123891   5.121   2.504   3.850 -1.5302  0.9079 -2.0063
 7664SOL    HW223892   5.019   2.379   3.826 -0.6876  0.0388 -1.1638
 7665SOL     OW23893   0.887   1.066   4.895  0.5338 -0.2002 -0.2017
 7665SOL    HW123894   0.968   1.045   4.950  1.5908  0.5440 -1.4342
 7665SOL    HW223895   0.819   1.112   4.953  2.1269  1.6935  0.2550
 7666SOL     OW23896   0.329   4.581   3.585  0.2396  0.3841  0.6987
 7666SOL    HW123897   0.333   4.571   3.685  0.1270  1.7366  0.8565
 7666SOL    HW223898   0.340   4.491   3.542  0.2129 -0.2274  1.9265
 7667SOL     OW23899   3.855   4.994   1.795 -0.2703 -0.5352  0.1688
 7667SOL    HW123900   3.825   4.966   1.704  0.5138  1.6509 -0.8428
 7667SOL    HW223901   3.893   4.915   1.844  0.4395 -1.5287 -1.8788
 7668SOL     OW23902   2.708   4.681   2.312 -0.2006  0.0274 -0.4682
 7668SOL    HW123903   2.767   4.649   2.238  1.0279 -0.6862  0.7774
 7668SOL    HW223904   2.617   4.640   2.302 -0.0999  0.0494 -1.6360
 7669SOL     OW23905   2.695   2.310   0.516 -0.1734 -0.4468 -0.6871
 7669SOL    HW123906   2.633   2.379   0.553  2.7065  2.2686 -0.5625
 7669SOL    HW223907   2.696   2.230   0.576 -0.9264  0.8850  1.1742
 7670SOL     OW23908   3.378   0.377   0.297 -0.1675 -0.6591  0.3323
 7670SOL    HW123909   3.414   0.359   0.206 -0.4515 -0.9475  0.2736
 7670SOL    HW223910   3.363   0.475   0.309  0.3084 -0.5717  0.2381
 7671SOL     OW23911   2.439   0.308   2.493 -0.0871 -0.4111  0.2086
 7671SOL    HW123912   2.364   0.336   2.433 -0.3102  0.5419  0.9092
 7671SOL    HW223913   2.403   0.259   2.572 -0.1053  0.9645  1.0883
 7672SOL     OW23914   6.364   2.838   1.753  0.4069  0.0067 -0.1563
 7672SOL    HW123915   6.433   2.812   1.820 -0.1929  0.5270  0.6825
 7672SOL    HW223916   6.380   2.789   1.668  0.9395 -0.9861  0.4994
 7673SOL     OW23917   1.494   0.291   4.312  0.0769 -0.5732  0.0023
 7673SOL    HW123918   1.463   0.386   4.309  2.0786  0.1199  0.2342
 7673SOL    HW223919   1.469   0.251   4.400 -1.7175 -0.6378 -0.4956
 7674SOL     OW23920   5.534   6.308   3.716  0.5241  0.6282 -0.1124
 7674SOL    HW123921   5.601   6.378   3.739 -0.6173  0.9948  2.4348
 7674SOL    HW223922   5.556   6.223   3.765 -0.2093  0.3723 -0.2144
 7675SOL     OW23923   3.319   0.468   2.344 -0.1895  0.0711  0.4556
 7675SOL    HW123924   3.260   0.395   2.378 -0.6484  0.5139  0.6191
 7675SOL    HW223925   3.414   0.435   2.342 -0.5097 -0.8718 -0.4477
 7676SOL     OW23926   2.904   3.632   4.304 -0.5740 -0.0118  0.3918
 7676SOL    HW123927   2.949   3.570   4.240  1.1676 -0.0868  1.6182
 7676SOL    HW223928   2.805   3.616   4.303 -0.4991 -0.5628 -1.6370
 7677SOL     OW23929   0.735   6.309   1.973  0.0613  0.5277 -0.0232
 7677SOL    HW123930   0.698   6.259   2.052 -0.6838  1.6308  0.3440
 7677SOL    HW223931   0.801   6.251   1.926  0.1414 -0.3439  1.1085
 7678SOL     OW23932   5.516   6.802   4.251  0.2282 -0.7611  0.6543
 7678SOL    HW123933   5.609   6.766   4.255  0.3794 -0.7587 -1.4576
 7678SOL    HW223934   5.452   6.729   4.274  0.7245 -0.6774  2.4501
 7679SOL     OW23935   2.749   0.344   2.820  0.2453  0.3344 -0.3809
 7679SOL    HW123936   2.776   0.274   2.754 -0.9544 -0.0728 -0.4459
 7679SOL    HW223937   2.821   0.353   2.890 -0.6876 -2.8568  1.1695
 7680SOL     OW23938   1.131   6.978   4.840  0.2745  0.4255  0.2317
 7680SOL    HW123939   1.124   7.076   4.856  1.4711  0.3639  1.2775
 7680SOL    HW223940   1.213   6.957   4.788 -1.1881  0.1538 -2.1362
 7681SOL     OW23941   1.703   2.827   0.887 -0.3011 -0.4681 -0.2805
 7681SOL    HW123942   1.780   2.775   0.922  1.6603  1.1973 -1.9053
 7681SOL    HW223943   1.724   2.925   0.890 -1.0015 -0.0984 -3.6636
 7682SOL     OW23944   2.673   6.634   0.762  0.2581  0.3984 -0.2728
 7682SOL    HW123945   2.693   6.732   0.756 -2.7740  1.0260 -3.2786
 7682SOL    HW223946   2.730   6.585   0.697  1.1720  0.2173  0.6306
 7683SOL     OW23947   1.255   5.675   2.364  0.9247  0.5932  0.0600
 7683SOL    HW123948   1.350   5.694   2.339  0.9661  0.9547  0.4871
 7683SOL    HW223949   1.244   5.681   2.463  0.2615  1.4649 -0.0562
 7684SOL     OW23950   3.039   3.589   0.573 -0.0770 -0.4697 -0.4555
 7684SOL    HW123951   3.029   3.548   0.663  2.6953 -0.5643 -0.1118
 7684SOL    HW223952   2.976   3.667   0.565 -1.4528 -1.3838  0.9399
 7685SOL     OW23953   3.084   5.253   6.478  0.1092 -0.1187  0.3549
 7685SOL    HW123954   2.993   5.286   6.454  0.6733  0.7770 -0.6426
 7685SOL    HW223955   3.152   5.299   6.421  1.1754 -0.9053  0.9594
 7686SOL     OW23956   6.348   0.566   5.533  0.0538 -0.7669 -0.3091
 7686SOL    HW123957   6.278   0.555   5.604  0.4740  1.5496  0.5577
 7686SOL    HW223958   6.433   0.598   5.575  0.0935  1.4245 -1.8962
 7687SOL     OW23959   5.186   4.094   6.174 -0.2387 -0.2232 -0.0886
 7687SOL    HW123960   5.256   4.025   6.192 -0.1670 -0.4491 -1.1526
 7687SOL    HW223961   5.227   4.185   6.171 -0.2488 -0.1877  0.8159
 7688SOL     OW23962   1.461   2.775   0.684 -0.1636 -0.0553  0.0143
 7688SOL    HW123963   1.516   2.821   0.754  0.2704 -0.9794  0.3049
 7688SOL    HW223964   1.517   2.705   0.639 -1.2828 -1.4795  0.7701
 7689SOL     OW23965   0.318   5.909   3.686  0.5359 -0.1675  0.3151
 7689SOL    HW123966   0.256   5.977   3.726  1.0118 -0.0950  0.9606
 7689SOL    HW223967   0.280   5.875   3.600  0.1442  0.6970  0.1350
 7690SOL     OW23968   6.238   4.931   2.551  0.3648  0.0934 -0.1710
 7690SOL    HW123969   6.337   4.917   2.546  0.3357 -1.8228  2.4482
 7690SOL    HW223970   6.191   4.847   2.523 -0.4973  0.6728 -0.4913
 7691SOL     OW23971   4.233   2.706   5.984  0.1562 -0.3835 -0.1626
 7691SOL    HW123972   4.213   2.778   6.051  0.0697  0.4796 -1.0789
 7691SOL    HW223973   4.283   2.632   6.028  3.6373  1.9121  0.1094
 7692SOL     OW23974   6.949   4.872   1.719  0.5805 -0.2099  0.2003
 7692SOL    HW123975   6.951   4.779   1.683  0.6961 -0.9131  1.9469
 7692SOL    HW223976   6.953   4.937   1.642  1.2396 -1.6165 -1.0195
 7693SOL     OW23977   1.785   1.431   7.020 -0.3524 -0.2200 -0.4438
 7693SOL    HW123978   1.704   1.397   6.972 -0.2305 -0.0934 -0.7452
 7693SOL    HW223979   1.834   1.354   7.062  0.6464 -0.6145 -2.2306
 7694SOL     OW23980   5.098   2.877   0.010 -0.0611  0.7349  0.1704
 7694SOL    HW123981   5.023   2.818   0.039 -0.9119  1.8542  0.3141
 7694SOL    HW223982   5.134   2.927   0.088 -0.0891  1.2245 -0.1248
 7695SOL     OW23983   6.244   6.733   2.981 -0.6892 -0.1385 -0.2998
 7695SOL    HW123984   6.275   6.826   2.957 -2.7556  0.7669  0.3447
 7695SOL    HW223985   6.323   6.680   3.012  0.8503  0.8349 -2.2607
 7696SOL     OW23986   3.347   0.100   6.870 -0.4582  0.1736  0.2009
 7696SOL    HW123987   3.350   0.030   6.941  1.2571  0.3881  0.3756
 7696SOL    HW223988   3.276   0.167   6.893 -0.7122 -0.3833  1.0972
 7697SOL     OW23989   0.303   0.110   3.742 -0.6139 -0.3345  0.2623
 7697SOL    HW123990   0.356   0.024   3.739  2.5452  1.4871 -0.9554
 7697SOL    HW223991   0.325   0.165   3.662 -2.7746  1.5484  0.8776
 7698SOL     OW23992   0.119   3.616   2.183 -0.0701  0.3064 -0.2187
 7698SOL    HW123993   0.157   3.593   2.273 -0.8598 -0.5963 -0.1056
 7698SOL    HW223994   0.077   3.535   2.142  0.6172  0.6148 -1.5824
 7699SOL     OW23995   2.659   5.911   6.860  0.3808  0.4615  0.1157
 7699SOL    HW123996   2.633   5.900   6.764 -1.9496  1.2683  0.6059
 7699SOL    HW223997   2.755   5.939   6.865  0.8876 -0.7004 -1.8983
 7700SOL     OW23998   5.370   3.563   1.362  0.0598 -0.0295 -0.8330
 7700SOL    HW123999   5.432   3.593   1.435 -0.7314 -0.1006 -0.1206
 7700SOL    HW224000   5.387   3.617   1.280  1.7961 -0.7470 -1.0108
 7701SOL     OW24001   2.439   3.091   1.204 -0.0899 -0.2083  0.3881
 7701SOL    HW124002   2.403   3.055   1.118 -0.2764 -0.4767  0.5768
 7701SOL    HW224003   2.537   3.072   1.210  0.1560  0.7679 -0.2523
 7702SOL     OW24004   1.046   5.835   3.455  0.5442  0.2126  0.8550
 7702SOL    HW124005   1.133   5.790   3.436  1.1904  1.1174  1.6321
 7702SOL    HW224006   1.060   5.932   3.472 -1.0646  1.3198 -2.9838
 7703SOL     OW24007   6.935   6.912   6.321  0.5314 -0.2277 -0.0872
 7703SOL    HW124008   6.889   6.977   6.381 -0.6562 -1.4552  0.3723
 7703SOL    HW224009   7.020   6.881   6.364  1.1340  1.0239 -0.3346
 7704SOL     OW24010   0.503   2.310   4.817  0.0285 -0.1371  0.2527
 7704SOL    HW124011   0.507   2.233   4.881 -1.5519  0.6947  1.4164
 7704SOL    HW224012   0.464   2.389   4.863  0.4577  1.0104 -1.2849
 7705SOL     OW24013   1.250   4.266   6.869 -0.4042 -0.1700  0.2960
 7705SOL    HW124014   1.307   4.327   6.814 -1.0463 -0.0349 -0.2202
 7705SOL    HW224015   1.274   4.278   6.966 -0.6649  1.0719  0.2311
 7706SOL     OW24016   3.280   3.607   1.797  0.0661  0.1464 -0.5995
 7706SOL    HW124017   3.290   3.580   1.893  1.0512  1.8963 -0.1625
 7706SOL    HW224018   3.270   3.526   1.740 -4.2464 -0.9496  1.2890
 7707SOL     OW24019   1.433   6.730   6.125 -0.0591  0.3217 -0.2570
 7707SOL    HW124020   1.392   6.746   6.215 -0.5392  0.5267 -0.5093
 7707SOL    HW224021   1.528   6.701   6.136 -0.9733 -2.7346  0.4730
 7708SOL     OW24022   2.301   1.853   2.767  0.2299  0.3009  0.0415
 7708SOL    HW124023   2.353   1.778   2.809  1.4126  1.4668  0.7439
 7708SOL    HW224024   2.227   1.816   2.712  0.3555 -1.3672  0.9358
 7709SOL     OW24025   6.993   4.298   2.023  0.0046 -0.0182  0.1775
 7709SOL    HW124026   7.067   4.358   2.053  0.8374 -0.8467 -0.1630
 7709SOL    HW224027   6.977   4.310   1.925 -0.0865 -0.0659  0.1864
 7710SOL     OW24028   6.120   4.527   1.993 -0.2164 -0.1015 -0.0642
 7710SOL    HW124029   6.130   4.431   1.967 -2.5037 -0.1987 -0.8299
 7710SOL    HW224030   6.066   4.575   1.924  0.2134  1.5650  0.6948
 7711SOL     OW24031   1.384   5.203   2.968 -0.0799  0.1895 -0.2694
 7711SOL    HW124032   1.370   5.170   2.875  1.1434  1.4830 -0.9469
 7711SOL    HW224033   1.456   5.272   2.968 -0.5892  0.7597  1.5280
 7712SOL     OW24034   0.911   4.362   5.787  0.1208 -0.2974  0.0784
 7712SOL    HW124035   0.854   4.280   5.778  0.9036 -0.6031 -3.7580
 7712SOL    HW224036   1.003   4.335   5.814  0.5225 -0.8652 -1.6830
 7713SOL     OW24037   6.958   4.697   0.881  0.0479 -0.2134 -0.0688
 7713SOL    HW124038   6.968   4.604   0.917  0.8157 -0.1092  0.0068
 7713SOL    HW224039   7.048   4.742   0.879 -0.3101  0.5123 -0.1509
 7714SOL     OW24040   6.731   6.893   4.712 -0.8343  0.0230 -0.8514
 7714SOL    HW124041   6.704   6.919   4.619 -0.6896  1.5950 -0.4892
 7714SOL    HW224042   6.717   6.970   4.774  1.8967  0.0662 -0.1346
 7715SOL     OW24043   3.419   4.008   0.246  0.0011 -0.3618  0.1047
 7715SOL    HW124044   3.513   3.995   0.212 -0.0214 -2.0241  0.5667
 7715SOL    HW224045   3.364   3.928   0.222 -0.7586 -0.3122  1.5643
 7716SOL     OW24046   1.643   2.598   0.145 -0.1445 -0.5101  0.0712
 7716SOL    HW124047   1.580   2.546   0.203 -0.8068  0.9519  0.6861
 7716SOL    HW224048   1.609   2.598   0.051 -1.7185  1.2053  0.5933
 7717SOL     OW24049   0.797   1.357   5.134  0.4714 -0.6586  0.3252
 7717SOL    HW124050   0.864   1.427   5.109 -0.0368 -0.4329 -0.4637
 7717SOL    HW224051   0.834   1.300   5.207  1.4731 -0.4631 -0.0058
 7718SOL     OW24052   6.289   3.954   5.386  0.3909  0.2190 -0.4267
 7718SOL    HW124053   6.244   4.027   5.438 -1.3396 -0.5531 -0.7764
 7718SOL    HW224054   6.319   3.989   5.298  0.7746  0.8209 -0.0669
 7719SOL     OW24055   1.463   6.454   4.019  0.3817  0.0770 -0.4592
 7719SOL    HW124056   1.461   6.416   3.926 -0.1194 -0.9290 -0.0468
 7719SOL    HW224057   1.543   6.420   4.068  0.7892  0.8139 -0.5890
 7720SOL     OW24058   4.941   6.815   4.322 -0.0595  0.6064 -0.6527
 7720SOL    HW124059   5.032   6.827   4.362 -0.8707 -0.5495  1.7197
 7720SOL    HW224060   4.879   6.886   4.357 -1.9089 -2.8481  4.0746
 7721SOL     OW24061   5.558   5.359   2.402 -0.4532  0.5955 -0.7285
 7721SOL    HW124062   5.470   5.343   2.447 -1.1288  1.4547 -1.7024
 7721SOL    HW224063   5.606   5.433   2.450 -0.2255  0.0904 -0.1633
 7722SOL     OW24064   1.874   0.082   5.522  0.1655  0.0889  0.0503
 7722SOL    HW124065   1.782   0.073   5.560  0.7156 -1.7420  1.0376
 7722SOL    HW224066   1.868   0.113   5.428 -1.4409  0.3765  0.2192
 7723SOL     OW24067   3.510   3.744   0.056  0.1719  0.2303 -0.2800
 7723SOL    HW124068   3.507   3.704  -0.036 -0.5175 -0.1614 -0.0882
 7723SOL    HW224069   3.422   3.730   0.102 -0.3301  2.4685 -0.4260
 7724SOL     OW24070   1.871   4.157   0.310 -0.3184  0.5338 -0.1937
 7724SOL    HW124071   1.897   4.210   0.391  0.0013 -0.5332  0.4161
 7724SOL    HW224072   1.913   4.066   0.314 -1.7135 -0.1641 -0.6967
 7725SOL     OW24073   5.454   3.524   5.507 -0.4331 -0.2910  0.0052
 7725SOL    HW124074   5.409   3.521   5.418  0.0990  0.6970 -0.3104
 7725SOL    HW224075   5.436   3.612   5.551 -1.1563 -0.9855  1.1294
 7726SOL     OW24076   2.408   2.709   6.976  0.8508 -0.0189 -0.1371
 7726SOL    HW124077   2.401   2.768   6.896  1.1210  2.6833  1.6936
 7726SOL    HW224078   2.317   2.691   7.013  0.8740  1.1800  0.5571
 7727SOL     OW24079   0.404   1.006   2.449  0.1501 -0.2977  0.0593
 7727SOL    HW124080   0.411   1.103   2.475 -3.0027  0.2319 -0.6219
 7727SOL    HW224081   0.488   0.958   2.474  1.2893  2.3217  1.6281
 7728SOL     OW24082   2.452   3.263   5.955 -0.5482  0.1237 -0.0324
 7728SOL    HW124083   2.465   3.260   5.855  0.5007  0.1235  0.0943
 7728SOL    HW224084   2.537   3.289   5.999 -1.3110  1.2654  0.8177
 7729SOL     OW24085   1.312   5.327   1.722  0.1089  0.6756  0.0368
 7729SOL    HW124086   1.216   5.352   1.735  0.2136  0.5801  0.9926
 7729SOL    HW224087   1.371   5.397   1.761  0.4403  0.7384 -0.5580
 7730SOL     OW24088   5.801   2.654   0.155 -0.4199 -0.1819 -0.1002
 7730SOL    HW124089   5.762   2.677   0.244  0.7634 -0.6876  0.5654
 7730SOL    HW224090   5.855   2.570   0.162  0.0223 -0.0099 -1.2043
 7731SOL     OW24091   0.495   1.573   0.569  0.3639  0.2336  0.2500
 7731SOL    HW124092   0.431   1.623   0.511 -1.3701 -1.2947  0.7556
 7731SOL    HW224093   0.448   1.495   0.611  1.8524  0.5981  2.7843
 7732SOL     OW24094   5.252   6.613   6.165 -0.1446  0.6938  0.3545
 7732SOL    HW124095   5.325   6.646   6.224 -0.4466  1.5490  0.2672
 7732SOL    HW224096   5.166   6.656   6.191 -0.2003  1.5012 -1.0143
 7733SOL     OW24097   5.730   5.576   6.942  0.0921  0.3011 -0.0059
 7733SOL    HW124098   5.819   5.622   6.943 -0.1882  0.8730 -0.6617
 7733SOL    HW224099   5.726   5.509   7.016  0.8333  0.7156  0.4138
 7734SOL     OW24100   3.559   4.095   2.135 -0.1002  0.0038 -0.1779
 7734SOL    HW124101   3.605   4.090   2.224  0.8003 -0.8903 -0.6640
 7734SOL    HW224102   3.464   4.067   2.145 -0.4907  1.5423  0.7917
 7735SOL     OW24103   0.289   6.622   6.706 -0.1330 -0.0549  0.5394
 7735SOL    HW124104   0.312   6.720   6.713 -0.3504  0.0984 -0.6830
 7735SOL    HW224105   0.349   6.570   6.766  2.1389  0.5328 -1.0825
 7736SOL     OW24106   2.264   2.664   0.296 -0.2685  0.3743 -0.5426
 7736SOL    HW124107   2.241   2.690   0.203 -1.0935  0.7482 -0.2466
 7736SOL    HW224108   2.206   2.588   0.324 -0.3886  0.6066 -0.1546
 7737SOL     OW24109   5.144   3.099   4.596 -0.1080 -0.5213 -0.1399
 7737SOL    HW124110   5.137   3.121   4.499  0.5431  2.8310  0.4399
 7737SOL    HW224111   5.241   3.092   4.622 -0.1344  1.3725  0.6808
 7738SOL     OW24112   2.427   1.123   5.526 -0.1531  0.3238  0.3817
 7738SOL    HW124113   2.358   1.056   5.498  0.7596 -0.4296 -0.1191
 7738SOL    HW224114   2.492   1.138   5.452  0.6745  0.4316  1.1124
 7739SOL     OW24115   5.707   3.014   5.907 -0.1366 -0.1663 -0.4216
 7739SOL    HW124116   5.777   3.009   5.835  1.2698 -1.2410  0.9592
 7739SOL    HW224117   5.678   3.109   5.917 -0.2539  0.0458 -2.2733
 7740SOL     OW24118   0.798   2.926   3.124  0.1801 -0.2719 -0.1703
 7740SOL    HW124119   0.732   3.000   3.136 -1.5130 -1.8326  0.6244
 7740SOL    HW224120   0.795   2.865   3.203  0.3495 -2.0630 -1.4664
 7741SOL     OW24121   5.633   5.076   4.399  0.0468  0.3835 -0.4226
 7741SOL    HW124122   5.585   4.991   4.420  0.2916  0.3020 -0.1815
 7741SOL    HW224123   5.655   5.079   4.301  0.5261 -0.0849 -0.3330
 7742SOL     OW24124   5.038   2.212   4.983 -0.3246 -0.0971  0.3741
 7742SOL    HW124125   5.033   2.294   5.041  1.4675 -0.1478  0.6374
 7742SOL    HW224126   4.976   2.223   4.906 -1.8266  0.5177  1.6035
 7743SOL     OW24127   3.458   2.850   0.614 -0.6213 -0.4859 -0.6513
 7743SOL    HW124128   3.487   2.848   0.519  1.3360 -2.7162 -0.0852
 7743SOL    HW224129   3.497   2.931   0.659  1.1643 -1.1101 -0.9950
 7744SOL     OW24130   0.459   6.224   3.097  0.1372 -0.3889  0.0953
 7744SOL    HW124131   0.497   6.261   3.181  0.7150  1.1384 -0.7926
 7744SOL    HW224132   0.363   6.200   3.110  0.4590 -1.0114  1.4159
 7745SOL     OW24133   2.618   1.012   0.368  0.2397 -0.0616  0.1149
 7745SOL    HW124134   2.610   1.107   0.338 -1.7734 -0.7402 -1.7883
 7745SOL    HW224135   2.642   0.955   0.290  2.9538 -1.0017  1.5221
 7746SOL     OW24136   0.835   6.435   6.726 -0.4566  0.1804 -0.4316
 7746SOL    HW124137   0.893   6.357   6.751 -0.9016  0.1260  0.4907
 7746SOL    HW224138   0.831   6.499   6.803 -1.6530  0.1575 -0.4622
 7747SOL     OW24139   1.877   6.702   2.203  0.3865  0.1668 -0.2922
 7747SOL    HW124140   1.936   6.670   2.129  2.9763 -1.5370  2.2392
 7747SOL    HW224141   1.832   6.623   2.246  0.5878  0.8126  1.1686
 7748SOL     OW24142   6.426   6.678   5.739  0.3587  0.1602 -0.2752
 7748SOL    HW124143   6.445   6.606   5.672  0.1601  0.7520 -0.9841
 7748SOL    HW224144   6.436   6.767   5.695 -0.4547  0.5506  0.3157
 7749SOL     OW24145   2.920   3.281   2.893  0.5917 -0.0792  0.2337
 7749SOL    HW124146   2.883   3.257   2.803 -0.9431  0.4942  0.6620
 7749SOL    HW224147   2.957   3.200   2.938  0.6242 -0.5222 -0.5811
 7750SOL     OW24148   0.956   5.933   6.535 -0.2878 -0.3230  0.0563
 7750SOL    HW124149   0.919   5.919   6.443 -1.6641  1.1489  0.3472
 7750SOL    HW224150   1.047   5.975   6.528 -0.1218 -0.7784 -0.6243
 7751SOL     OW24151   5.739   2.501   2.744 -0.1661 -0.1409 -0.3638
 7751SOL    HW124152   5.687   2.583   2.720 -2.5646 -0.9343  1.8129
 7751SOL    HW224153   5.690   2.420   2.712  1.0238 -0.8441 -0.4555
 7752SOL     OW24154   5.724   5.412   0.162  0.0865  0.7470  0.5471
 7752SOL    HW124155   5.678   5.330   0.197 -1.1364  1.1492 -0.0594
 7752SOL    HW224156   5.679   5.493   0.199 -0.3766  1.1629 -0.8508
 7753SOL     OW24157   1.612   1.750   5.019 -0.0502  0.5341 -0.3105
 7753SOL    HW124158   1.706   1.772   5.045 -0.1253  0.4081  0.0724
 7753SOL    HW224159   1.601   1.763   4.920  0.5292  0.0125 -0.4561
 7754SOL     OW24160   6.842   2.268   0.474 -0.7324  0.3359  0.3231
 7754SOL    HW124161   6.802   2.216   0.399 -1.2376 -1.0991  1.5290
 7754SOL    HW224162   6.942   2.258   0.472 -0.8039 -0.5430  0.4027
 7755SOL     OW24163   2.158   5.572   0.815  0.6798 -0.0584 -0.1569
 7755SOL    HW124164   2.138   5.659   0.859  1.7584  0.4800 -0.6958
 7755SOL    HW224165   2.107   5.499   0.861 -0.9990  0.9713 -0.3251
 7756SOL     OW24166   4.209   0.890   2.781  0.0663  0.0139 -0.0583
 7756SOL    HW124167   4.249   0.801   2.802  1.2413  0.1564 -1.5752
 7756SOL    HW224168   4.263   0.962   2.825 -0.2757  0.0458  0.3160
 7757SOL     OW24169   1.608   1.699   6.604  0.0964  0.1467  0.4263
 7757SOL    HW124170   1.525   1.661   6.563  0.0408 -1.3200  1.7945
 7757SOL    HW224171   1.641   1.775   6.548 -2.6214  1.3375  0.2756
 7758SOL     OW24172   1.476   2.401   0.274 -0.6820 -0.3035  1.0860
 7758SOL    HW124173   1.517   2.356   0.353  1.1582 -0.7576 -0.0727
 7758SOL    HW224174   1.440   2.332   0.211  3.0540 -0.4165 -1.1878
 7759SOL     OW24175   1.641   6.227   4.206 -0.4482  0.2175 -0.2011
 7759SOL    HW124176   1.704   6.190   4.274 -1.2723  0.9207  0.9763
 7759SOL    HW224177   1.687   6.300   4.156 -0.0259  0.0946 -0.0050
 7760SOL     OW24178   5.287   1.477   3.568 -0.8707  0.0866 -0.1877
 7760SOL    HW124179   5.314   1.541   3.496 -0.7050  0.8926  0.5723
 7760SOL    HW224180   5.189   1.485   3.585 -0.6466  1.1354  0.8111
 7761SOL     OW24181   6.652   0.562   5.699 -0.2887 -0.0793 -0.2207
 7761SOL    HW124182   6.613   0.605   5.780 -0.9116 -1.0461  0.0072
 7761SOL    HW224183   6.688   0.472   5.723 -1.0352 -0.6390 -1.1437
 7762SOL     OW24184   2.020   1.949   2.501 -0.2475 -0.3090 -0.3371
 7762SOL    HW124185   1.922   1.960   2.485 -0.0507  1.7161 -0.4741
 7762SOL    HW224186   2.059   2.037   2.529  1.6366 -0.9382 -0.8298
 7763SOL     OW24187   0.469   1.022   6.269 -0.0778 -0.2239 -0.0282
 7763SOL    HW124188   0.531   0.954   6.229  2.7592  0.4483  2.8021
 7763SOL    HW224189   0.389   0.976   6.306  0.1648 -1.5659 -1.0930
 7764SOL     OW24190   4.184   3.365   1.582 -0.0798 -0.1230  0.3178
 7764SOL    HW124191   4.282   3.353   1.597 -0.1425  0.6297  1.4645
 7764SOL    HW224192   4.166   3.460   1.555 -0.4597 -0.3491 -0.2443
 7765SOL     OW24193   1.542   1.274   2.788  0.4723  0.2481  0.2225
 7765SOL    HW124194   1.584   1.346   2.843 -0.3117  0.6109  0.3620
 7765SOL    HW224195   1.457   1.309   2.747  0.7758 -0.1822 -0.7865
 7766SOL     OW24196   6.266   4.096   5.882  0.5351  0.2892 -0.0032
 7766SOL    HW124197   6.364   4.105   5.899  0.9245 -1.7846 -0.7946
 7766SOL    HW224198   6.231   4.017   5.932 -0.5369  0.4653 -0.4487
 7767SOL     OW24199   5.529   4.103   4.852  0.0503 -0.0118  0.5085
 7767SOL    HW124200   5.463   4.162   4.803  1.8630  1.3043 -0.4965
 7767SOL    HW224201   5.500   4.008   4.844 -1.7392  0.5068  0.1521
 7768SOL     OW24202   4.778   4.610   6.812 -0.4595  0.0952 -0.3129
 7768SOL    HW124203   4.746   4.701   6.839  0.5050  0.2831  0.2742
 7768SOL    HW224204   4.752   4.544   6.883 -1.3231 -0.1257 -0.8293
 7769SOL     OW24205   5.621   2.848   4.714  0.0942  0.2736 -0.3285
 7769SOL    HW124206   5.711   2.884   4.690  0.5990 -1.9346 -2.1004
 7769SOL    HW224207   5.551   2.893   4.659  0.4231  0.2479 -0.7726
 7770SOL     OW24208   1.940   5.609   1.014  0.2968  0.2383  0.4448
 7770SOL    HW124209   1.860   5.585   1.070  0.4640  0.2789  0.7040
 7770SOL    HW224210   1.929   5.701   0.977 -0.0178  0.0425  0.0436
 7771SOL     OW24211   1.760   0.344   5.511 -0.0374 -0.2548 -0.3431
 7771SOL    HW124212   1.742   0.295   5.426 -0.3019 -0.5269 -0.1322
 7771SOL    HW224213   1.854   0.324   5.541  0.4289  0.6861 -1.1225
 7772SOL     OW24214   5.348   0.028   5.232  0.4975 -0.5547 -0.1230
 7772SOL    HW124215   5.427   0.009   5.174  0.3852 -2.1082  0.2100
 7772SOL    HW224216   5.293  -0.055   5.242 -2.2014  0.8725 -1.8305
 7773SOL     OW24217   5.170   3.696   5.536  0.1982  0.0990  0.5331
 7773SOL    HW124218   5.155   3.623   5.470 -1.0550  0.4960  0.3566
 7773SOL    HW224219   5.092   3.759   5.535  0.3840  0.3909  2.0307
 7774SOL     OW24220   4.304   0.304   0.911  0.2859  0.5097  0.4745
 7774SOL    HW124221   4.238   0.379   0.920 -0.5772 -0.2217  0.4489
 7774SOL    HW224222   4.387   0.338   0.866  0.9858  2.0543  2.7667
 7775SOL     OW24223   0.237   6.290   2.128  0.2104  0.4098  0.4060
 7775SOL    HW124224   0.258   6.380   2.167 -1.4466  0.5759  0.9872
 7775SOL    HW224225   0.215   6.226   2.201 -0.1983 -0.0292 -0.0879
 7776SOL     OW24226   3.268   3.322   0.620 -0.4758  0.2795 -0.0248
 7776SOL    HW124227   3.183   3.331   0.569 -1.0884 -0.7574  0.7659
 7776SOL    HW224228   3.265   3.238   0.675  1.3316 -0.1374 -0.4940
 7777SOL     OW24229   6.854   2.492   1.471 -0.0056 -0.1535  0.2285
 7777SOL    HW124230   6.826   2.569   1.527 -0.8557 -1.0393  1.0496
 7777SOL    HW224231   6.869   2.523   1.377 -1.3400  0.8096  0.3125
 7778SOL     OW24232   4.446   2.477   4.289  0.4146 -0.0541  0.1747
 7778SOL    HW124233   4.531   2.442   4.330  2.5705  1.6658 -2.4272
 7778SOL    HW224234   4.444   2.576   4.296 -0.8096  0.0191 -0.8612
 7779SOL     OW24235   5.305   2.282   0.921  0.0232  0.2665 -0.2920
 7779SOL    HW124236   5.305   2.271   1.021  0.4403  0.6567 -0.2454
 7779SOL    HW224237   5.356   2.208   0.879  2.5750  1.7399 -0.0031
 7780SOL     OW24238   0.446   2.193   4.365 -0.3709  0.0206 -0.0300
 7780SOL    HW124239   0.502   2.118   4.330  0.4447 -0.2308  1.7232
 7780SOL    HW224240   0.394   2.233   4.290  1.0651 -0.6686 -1.4526
 7781SOL     OW24241   3.915   3.447   6.250 -0.1960 -0.1475  0.7706
 7781SOL    HW124242   3.952   3.489   6.167 -0.4778 -0.8340  0.2809
 7781SOL    HW224243   3.907   3.516   6.322  0.5872  0.3340  0.4085
 7782SOL     OW24244   5.861   3.492   0.810  0.5703 -0.5201 -0.0013
 7782SOL    HW124245   5.851   3.492   0.910 -1.1145 -0.5446 -0.1366
 7782SOL    HW224246   5.940   3.547   0.785  0.4447  0.3240  1.3189
 7783SOL     OW24247   4.166   5.951   5.900 -0.3019  0.3246 -0.1343
 7783SOL    HW124248   4.191   6.030   5.845 -1.8386 -1.2734 -3.3877
 7783SOL    HW224249   4.084   5.972   5.953  0.6305  1.5695  0.8910
 7784SOL     OW24250   6.898   1.855   1.232 -0.2220 -0.1937 -0.5881
 7784SOL    HW124251   6.972   1.831   1.294 -0.5703  1.1243  0.3847
 7784SOL    HW224252   6.936   1.900   1.151  0.1134 -0.4718 -0.5884
 7785SOL     OW24253   0.148   5.960   6.365  0.3802  0.2109 -0.7244
 7785SOL    HW124254   0.234   5.910   6.374 -0.3509 -0.8776  0.6616
 7785SOL    HW224255   0.165   6.046   6.318  2.4677  0.6307  0.6481
 7786SOL     OW24256   3.114   4.069   4.507 -0.0092  0.3821 -0.1053
 7786SOL    HW124257   3.051   3.993   4.495 -1.1773  1.0548  1.3384
 7786SOL    HW224258   3.142   4.074   4.603  0.8938  1.1378 -0.3892
 7787SOL     OW24259   2.297   2.722   4.939  0.1764  0.1362  0.7628
 7787SOL    HW124260   2.326   2.814   4.966  0.6997  0.6683 -1.4362
 7787SOL    HW224261   2.234   2.729   4.861  0.0070 -1.3628  0.7432
 7788SOL     OW24262   5.955   2.618   1.632 -0.5503  0.3439  0.1324
 7788SOL    HW124263   5.860   2.601   1.659  0.2272 -0.2594  2.8122
 7788SOL    HW224264   5.962   2.708   1.591 -2.4570 -0.1045 -1.3377
 7789SOL     OW24265   6.590   1.415   1.471  0.4084 -0.3789  0.0985
 7789SOL    HW124266   6.492   1.430   1.473  0.6791  1.6177  1.3369
 7789SOL    HW224267   6.621   1.405   1.376 -0.8711 -0.2111 -0.3472
 7790SOL     OW24268   5.849   3.568   3.044 -0.0992  0.1818 -0.0791
 7790SOL    HW124269   5.845   3.476   3.003 -1.1958  0.4079 -0.5344
 7790SOL    HW224270   5.855   3.560   3.143  1.6614 -0.3776 -0.2007
 7791SOL     OW24271   0.992   4.646   6.763  0.2010 -0.2695 -0.1403
 7791SOL    HW124272   0.907   4.699   6.761 -0.0555 -0.6823 -2.3545
 7791SOL    HW224273   1.062   4.697   6.814 -0.6320  1.2374 -0.4456
 7792SOL     OW24274   0.806   6.660   6.264  0.2282  0.0375  0.4757
 7792SOL    HW124275   0.763   6.571   6.246  1.0720 -0.7822  2.2986
 7792SOL    HW224276   0.750   6.711   6.329 -0.2156  0.8399 -0.5110
 7793SOL     OW24277   3.591   1.359   0.120 -0.7192  1.2183  0.6817
 7793SOL    HW124278   3.673   1.365   0.178 -1.0989  1.9635  1.1577
 7793SOL    HW224279   3.518   1.414   0.161 -2.0249 -0.8076  1.1836
 7794SOL     OW24280   4.829   3.116   3.170  0.2828 -0.1016  0.5282
 7794SOL    HW124281   4.837   3.017   3.166 -0.6336 -0.1378 -1.1668
 7794SOL    HW224282   4.786   3.142   3.257  1.7277 -1.0595  1.5782
 7795SOL     OW24283   4.953   5.260   1.127 -0.0043 -0.2537 -0.0421
 7795SOL    HW124284   4.979   5.236   1.220  0.9687 -0.3884 -0.3457
 7795SOL    HW224285   5.028   5.307   1.082  0.8164 -2.9979 -1.8170
 7796SOL     OW24286   3.428   4.149   2.736  0.4263  0.2230  0.1129
 7796SOL    HW124287   3.520   4.187   2.733  1.0557 -1.1900  0.4863
 7796SOL    HW224288   3.406   4.123   2.830 -0.5896  1.0492  0.1289
 7797SOL     OW24289   0.998   0.420   3.108 -0.2273  0.5584 -0.1055
 7797SOL    HW124290   1.098   0.415   3.113 -0.2308  1.0370  0.6309
 7797SOL    HW224291   0.965   0.482   3.179 -0.9391  1.5357 -1.2497
 7798SOL     OW24292   5.598   5.008   5.891  0.2878  0.1806 -0.1298
 7798SOL    HW124293   5.616   4.974   5.983  1.3016  0.1116 -0.3526
 7798SOL    HW224294   5.618   5.106   5.887 -1.6816  0.6463  0.2441
 7799SOL     OW24295   4.203   3.386   1.972  0.4198 -0.4666  0.2255
 7799SOL    HW124296   4.136   3.336   1.916  1.1014 -0.7086 -0.3770
 7799SOL    HW224297   4.292   3.342   1.965  1.0830  0.9232 -0.4566
 7800SOL     OW24298   0.446   0.663   1.798 -0.2413 -0.2813 -0.3570
 7800SOL    HW124299   0.429   0.569   1.828 -1.5167  0.0350 -0.0230
 7800SOL    HW224300   0.468   0.664   1.701  1.6448 -1.0929  0.0272
 7801SOL     OW24301   5.349   4.428   6.766  0.0165 -0.1321 -0.2705
 7801SOL    HW124302   5.297   4.357   6.813 -0.9320 -1.6298 -3.3623
 7801SOL    HW224303   5.431   4.389   6.726  0.2389  0.8341 -0.8036
 7802SOL     OW24304   6.728   1.795   6.535 -0.8571  1.1786  0.2428
 7802SOL    HW124305   6.703   1.746   6.452  0.6990  0.3090  0.2518
 7802SOL    HW224306   6.697   1.890   6.528 -2.5055  0.6207 -0.4567
 7803SOL     OW24307   2.152   2.191   1.027  0.0271  0.2571 -0.2254
 7803SOL    HW124308   2.251   2.180   1.032  0.0175  0.3847  0.2671
 7803SOL    HW224309   2.112   2.112   0.981  0.1028 -1.0520  1.8399
 7804SOL     OW24310   4.129   1.748   5.789 -0.6667  0.2417 -0.2604
 7804SOL    HW124311   4.084   1.826   5.746  0.6611  0.5955 -1.0745
 7804SOL    HW224312   4.128   1.760   5.888 -2.5538  0.0983 -0.2291
 7805SOL     OW24313   5.200   1.518   1.604 -0.0871  0.0593 -0.2531
 7805SOL    HW124314   5.189   1.420   1.617  2.1517 -0.0726  1.2944
 7805SOL    HW224315   5.118   1.565   1.635 -1.5928 -1.3214 -1.9339
 7806SOL     OW24316   6.780   3.241   6.799  0.3975  0.2504 -0.0143
 7806SOL    HW124317   6.762   3.166   6.863  0.2673  1.2267  1.1254
 7806SOL    HW224318   6.837   3.310   6.844 -2.2731  2.4905  0.2101
 7807SOL     OW24319   1.563   4.342   5.674  0.5001  0.1293 -0.5131
 7807SOL    HW124320   1.491   4.411   5.682  0.0339 -0.3896 -0.1772
 7807SOL    HW224321   1.532   4.269   5.612  0.8060 -0.0133 -0.4997
 7808SOL     OW24322   5.760   2.990   2.648 -0.4392  0.0374  0.3691
 7808SOL    HW124323   5.835   3.045   2.612  0.1413 -1.6782 -1.1811
 7808SOL    HW224324   5.686   3.050   2.678  0.8371  1.6960  0.2861
 7809SOL     OW24325   2.606   5.894   6.586 -0.3881 -0.0713 -0.2077
 7809SOL    HW124326   2.568   5.955   6.517  0.8839  0.6803 -0.2684
 7809SOL    HW224327   2.699   5.869   6.561 -0.2683 -0.6017  0.7239
 7810SOL     OW24328   3.907   1.794   0.875  0.7177 -0.5080 -0.1990
 7810SOL    HW124329   3.990   1.742   0.852  0.7793 -0.2589 -0.5552
 7810SOL    HW224330   3.932   1.874   0.929  0.8995  0.3699 -1.5234
 7811SOL     OW24331   0.964   4.653   3.716 -0.3679 -0.2978  0.1061
 7811SOL    HW124332   0.949   4.739   3.668 -0.4499 -0.8146 -0.8341
 7811SOL    HW224333   1.053   4.655   3.761 -0.6694  0.5318  0.6764
 7812SOL     OW24334   6.382   1.915   3.265 -0.6418  0.1410 -0.4991
 7812SOL    HW124335   6.327   1.934   3.183 -1.6253 -0.5835 -0.0369
 7812SOL    HW224336   6.324   1.870   3.333  0.4647 -0.3551  0.1372
 7813SOL     OW24337   6.155   0.100   0.402 -0.2422  0.8273  0.7849
 7813SOL    HW124338   6.072   0.149   0.374 -1.8311 -1.6542  0.8471
 7813SOL    HW224339   6.171   0.023   0.341  1.6526  0.8275  1.2097
 7814SOL     OW24340   1.456   3.079   5.220 -0.6484 -0.6053  0.0986
 7814SOL    HW124341   1.507   3.151   5.172 -0.5602 -0.7858 -0.0815
 7814SOL    HW224342   1.520   3.017   5.266 -0.6868 -1.0093 -0.3819
 7815SOL     OW24343   5.436   3.889   0.605  0.5224 -0.2102  0.1736
 7815SOL    HW124344   5.484   3.927   0.683  0.4833 -0.7763  0.4750
 7815SOL    HW224345   5.345   3.857   0.633  0.8649 -1.2809  0.1117
 7816SOL     OW24346   1.155   5.047   3.770  0.4523 -0.7347 -0.2884
 7816SOL    HW124347   1.131   5.104   3.847 -0.5207 -2.8292  1.0413
 7816SOL    HW224348   1.095   5.068   3.692 -0.0123 -0.1184  0.2284
 7817SOL     OW24349   4.762   2.836   4.979  0.4564  0.5805 -0.3299
 7817SOL    HW124350   4.842   2.777   4.987 -1.5236 -2.2448 -0.0568
 7817SOL    HW224351   4.713   2.816   4.895 -0.3618  1.7693 -0.1717
 7818SOL     OW24352   4.877   2.765   3.564  0.5421  0.2322 -0.2274
 7818SOL    HW124353   4.867   2.831   3.638 -1.0782 -0.5880  0.3228
 7818SOL    HW224354   4.965   2.717   3.573 -0.0598 -0.5685  1.7770
 7819SOL     OW24355   1.077   1.837   1.894  0.3949 -0.2476  0.0710
 7819SOL    HW124356   1.122   1.891   1.822  1.5402 -0.8406  0.3319
 7819SOL    HW224357   1.110   1.867   1.983  2.3072 -2.4191  0.1757
 7820SOL     OW24358   3.223   0.147   5.004  0.6213 -0.0611 -0.1529
 7820SOL    HW124359   3.176   0.234   4.989  1.3787  0.3346 -0.3323
 7820SOL    HW224360   3.322   0.164   5.006  0.7797 -0.9418 -0.3347
 7821SOL     OW24361   4.172   5.002   1.478 -0.1325 -0.9394 -0.6008
 7821SOL    HW124362   4.234   4.946   1.423  0.4664  0.8725 -1.8673
 7821SOL    HW224363   4.094   5.030   1.423 -1.0595 -1.4934  0.3820
 7822SOL     OW24364   5.606   6.381   4.028  0.0344 -0.2285 -0.5912
 7822SOL    HW124365   5.535   6.311   4.033 -0.7782  0.6559  1.7038
 7822SOL    HW224366   5.564   6.471   4.025  1.0743  0.2371 -2.3729
 7823SOL     OW24367   3.838   4.153   6.224 -0.6089  0.9083 -0.4852
 7823SOL    HW124368   3.746   4.118   6.202 -0.7810 -0.4003  1.9786
 7823SOL    HW224369   3.831   4.247   6.257 -1.2656  0.3678  0.9689
 7824SOL     OW24370   2.318   3.328   6.236 -0.1003  0.4284 -0.0059
 7824SOL    HW124371   2.415   3.319   6.259  0.1782 -4.3529 -1.8678
 7824SOL    HW224372   2.263   3.324   6.319  1.2540 -1.4026  0.8758
 7825SOL     OW24373   1.352   6.683   0.554 -0.8758 -0.5925 -0.1931
 7825SOL    HW124374   1.404   6.598   0.556  0.7832  0.3908  0.0756
 7825SOL    HW224375   1.397   6.752   0.611 -1.3672  0.9014 -1.5140
 7826SOL     OW24376   2.202   4.569   4.704 -0.2979  0.0860  0.3321
 7826SOL    HW124377   2.247   4.605   4.623  1.8729 -0.9329  1.0078
 7826SOL    HW224378   2.138   4.498   4.678  0.2271 -0.0924 -0.5113
 7827SOL     OW24379   6.949   4.646   2.199  0.0292  0.0389 -0.2661
 7827SOL    HW124380   6.860   4.660   2.241 -0.5859 -1.2011 -1.0984
 7827SOL    HW224381   6.979   4.731   2.154 -1.8363 -0.1668 -2.0153
 7828SOL     OW24382   1.309   6.613   4.638 -0.0603  0.6597  0.1808
 7828SOL    HW124383   1.382   6.672   4.674 -0.5867  1.7947 -0.5353
 7828SOL    HW224384   1.340   6.568   4.555 -0.4528  1.9030 -0.6773
 7829SOL     OW24385   3.328   4.521   1.294  0.3332 -0.3694  0.3578
 7829SOL    HW124386   3.269   4.533   1.374  2.1976  1.1619  1.6189
 7829SOL    HW224387   3.282   4.555   1.212 -1.0497 -0.5628  1.0310
 7830SOL     OW24388   1.612   0.484   3.737  0.1179 -0.0887 -0.0697
 7830SOL    HW124389   1.711   0.492   3.746  0.2796 -1.7675 -0.0351
 7830SOL    HW224390   1.582   0.395   3.771 -0.8957 -1.2191 -3.4282
 7831SOL     OW24391   2.451   0.844   0.499  0.1592  0.7679 -0.0706
 7831SOL    HW124392   2.425   0.886   0.585  1.1516  1.9932 -0.3343
 7831SOL    HW224393   2.504   0.910   0.445  2.6541 -1.1232 -0.0903
 7832SOL     OW24394   6.325   0.345   5.147  0.0109  0.7879  0.0098
 7832SOL    HW124395   6.270   0.336   5.064  1.5718  0.6124 -1.0423
 7832SOL    HW224396   6.281   0.411   5.209 -0.4853  2.0080 -1.5654
 7833SOL     OW24397   0.901   1.262   2.329 -0.2647  1.0174  0.5996
 7833SOL    HW124398   0.810   1.285   2.296 -0.4929 -1.3641 -0.6470
 7833SOL    HW224399   0.941   1.342   2.375 -2.5322  2.4286  0.2788
 7834SOL     OW24400   2.036   3.590   3.061 -0.2628  0.2839 -0.8115
 7834SOL    HW124401   2.063   3.625   2.972  0.0836  0.9996 -0.4313
 7834SOL    HW224402   2.052   3.491   3.065  1.2297  0.5071 -0.9845
 7835SOL     OW24403   4.175   3.612   5.722 -0.2107 -0.7859 -0.0086
 7835SOL    HW124404   4.227   3.534   5.687  0.6564 -0.6439  0.8910
 7835SOL    HW224405   4.084   3.613   5.681  0.4234 -1.1667 -1.4739
 7836SOL     OW24406   2.359   3.016   6.034  0.2608 -0.3040  0.5567
 7836SOL    HW124407   2.401   3.105   6.016 -0.8149  0.3154  1.0272
 7836SOL    HW224408   2.285   3.026   6.101 -0.4806 -1.4018 -0.0566
 7837SOL     OW24409   0.430   6.394   0.959  0.4073  0.2396  0.0282
 7837SOL    HW124410   0.412   6.469   0.895 -0.1865  0.0518 -0.0258
 7837SOL    HW224411   0.511   6.343   0.928 -0.5326 -0.5409 -1.2167
 7838SOL     OW24412   2.829   4.032   0.873  0.3926  0.0717 -0.3300
 7838SOL    HW124413   2.860   4.089   0.949  0.1389 -0.4591  0.1786
 7838SOL    HW224414   2.888   3.952   0.864  1.3993  0.9191 -1.7168
 7839SOL     OW24415   5.973   3.529   4.334  0.3354  0.6825  0.3925
 7839SOL    HW124416   5.884   3.530   4.288  0.0688  1.1281  0.9084
 7839SOL    HW224417   6.017   3.618   4.325  0.7058  0.4831  0.1949
 7840SOL     OW24418   2.537   2.504   3.393 -0.4970  0.2214  0.1094
 7840SOL    HW124419   2.492   2.486   3.306  0.0370  0.5666 -0.2449
 7840SOL    HW224420   2.622   2.452   3.398 -0.2550  0.6170  0.1890
 7841SOL     OW24421   4.942   2.599   6.363  0.0603 -0.5033 -0.5747
 7841SOL    HW124422   4.928   2.665   6.290 -0.3568  1.1004  0.8751
 7841SOL    HW224423   4.940   2.646   6.451 -0.7018 -2.5310  0.5663
 7842SOL     OW24424   6.781   1.671   0.244 -0.1084 -0.2837 -0.0050
 7842SOL    HW124425   6.743   1.658   0.336 -0.4528  0.5150 -0.0265
 7842SOL    HW224426   6.874   1.709   0.253 -0.2173 -0.0186  0.0143
 7843SOL     OW24427   6.760   6.424   2.491  0.0960 -0.3248  0.1034
 7843SOL    HW124428   6.691   6.407   2.421 -0.6918 -1.3808  1.0913
 7843SOL    HW224429   6.848   6.444   2.447 -0.6133  0.0950 -1.1701
 7844SOL     OW24430   3.973   0.292   2.187  0.5186 -0.3816 -0.0036
 7844SOL    HW124431   3.895   0.336   2.144  0.5264 -0.7149 -0.3690
 7844SOL    HW224432   3.952   0.196   2.205  0.9432 -0.5532 -0.3847
 7845SOL     OW24433   5.999   3.243   1.745 -0.0363  0.0416  0.5600
 7845SOL    HW124434   6.075   3.243   1.680  0.1839 -1.9638  0.7610
 7845SOL    HW224435   5.984   3.336   1.779  1.2938  0.7389 -0.6558
 7846SOL     OW24436   0.404   0.764   6.390  0.2863  0.5458 -0.3798
 7846SOL    HW124437   0.472   0.712   6.442  0.8068  0.3726 -1.2173
 7846SOL    HW224438   0.398   0.727   6.298 -0.3436  1.1053 -0.5697
 7847SOL     OW24439   6.801   2.139   5.307  0.5959 -0.2869  0.0376
 7847SOL    HW124440   6.739   2.163   5.382 -0.0803 -0.9556 -0.2909
 7847SOL    HW224441   6.756   2.158   5.219  1.4529  0.6697 -0.2073
 7848SOL     OW24442   4.959   5.338   5.609 -0.2083  0.5692  0.1902
 7848SOL    HW124443   4.970   5.413   5.544  2.5356 -0.0046 -0.1047
 7848SOL    HW224444   5.014   5.260   5.579 -1.5369 -0.9228  1.4731
 7849SOL     OW24445   5.581   3.797   0.897  0.2486  0.0839 -0.2868
 7849SOL    HW124446   5.662   3.795   0.956 -0.0345  1.2003  0.1582
 7849SOL    HW224447   5.523   3.719   0.918 -1.6939  2.2923  3.6121
 7850SOL     OW24448   6.272   3.407   2.148  0.3006 -0.3583  0.0179
 7850SOL    HW124449   6.355   3.428   2.097  0.6608 -5.1199 -1.8139
 7850SOL    HW224450   6.296   3.387   2.243  0.9361  0.2051 -0.0152
 7851SOL     OW24451   0.284   4.919   1.596 -0.0202 -0.2195  0.1958
 7851SOL    HW124452   0.229   4.839   1.621  0.5758 -0.9504 -0.7591
 7851SOL    HW224453   0.381   4.897   1.608  0.2311 -0.1984 -1.5553
 7852SOL     OW24454   0.009   2.262   6.157 -0.6790  0.0136 -0.0801
 7852SOL    HW124455   0.077   2.225   6.093  0.6759  1.6179  0.3827
 7852SOL    HW224456  -0.021   2.189   6.218  1.8568 -0.4260  0.7671
 7853SOL     OW24457   4.486   2.158   1.205  0.1092  0.1568 -0.4033
 7853SOL    HW124458   4.434   2.073   1.194  0.8805 -0.3154 -0.4975
 7853SOL    HW224459   4.461   2.222   1.132 -0.5439  0.0486 -0.2774
 7854SOL     OW24460   4.856   6.269   0.565  0.1691 -0.2922  0.4581
 7854SOL    HW124461   4.899   6.264   0.475  1.8020 -0.4574  1.1993
 7854SOL    HW224462   4.817   6.360   0.578 -0.8550 -0.5336 -0.7141
 7855SOL     OW24463   5.334   6.003   3.514 -0.3012  0.2197  0.5056
 7855SOL    HW124464   5.357   6.100   3.516 -0.2857  0.2282  0.0576
 7855SOL    HW224465   5.418   5.949   3.509 -0.2817  0.1568  1.4157
 7856SOL     OW24466   1.755   5.935   5.830 -0.0726 -0.6390 -0.1682
 7856SOL    HW124467   1.698   5.941   5.748 -1.2942  0.1902  0.7049
 7856SOL    HW224468   1.696   5.928   5.911  1.0224  1.5541  0.8916
 7857SOL     OW24469   0.354   6.302   6.691  0.1202 -0.6068  0.0342
 7857SOL    HW124470   0.382   6.214   6.652 -0.3826 -0.4092 -0.7879
 7857SOL    HW224471   0.255   6.313   6.681  0.0982 -0.2028  0.6634
 7858SOL     OW24472   0.826   5.577   0.440 -0.2747  0.2879  0.1489
 7858SOL    HW124473   0.826   5.532   0.529 -0.3513  0.5289  0.2732
 7858SOL    HW224474   0.920   5.592   0.409 -0.2379  0.7139  0.4539
 7859SOL     OW24475   5.532   1.134   0.621  0.0733  0.0719 -0.0188
 7859SOL    HW124476   5.537   1.036   0.638 -2.0912  0.1946  1.7582
 7859SOL    HW224477   5.560   1.184   0.703 -1.4365  0.8716  0.0502
 7860SOL     OW24478   2.109   2.096   3.121 -0.7889 -0.0988  0.1084
 7860SOL    HW124479   2.030   2.085   3.181  0.1710 -0.5603  1.3460
 7860SOL    HW224480   2.189   2.123   3.176 -0.0669  0.3044 -1.0934
 7861SOL     OW24481   1.718   3.916   6.466 -0.3938  0.0810 -0.4200
 7861SOL    HW124482   1.742   3.879   6.376 -2.0976 -2.1113 -0.0716
 7861SOL    HW224483   1.800   3.922   6.523  0.6532  1.1901 -1.9740
 7862SOL     OW24484   2.639   0.936   6.036 -0.1935  0.2871 -0.5784
 7862SOL    HW124485   2.546   0.937   5.998 -0.3583 -1.3334 -0.2628
 7862SOL    HW224486   2.704   0.914   5.964 -0.0909  0.9378 -0.6935
 7863SOL     OW24487   1.575   4.023   3.607 -0.4949  0.3074 -0.5569
 7863SOL    HW124488   1.664   3.999   3.647 -0.4135  1.2772 -0.1319
 7863SOL    HW224489   1.510   4.040   3.681 -1.1139 -0.6308 -0.8644
 7864SOL     OW24490   2.374   5.637   5.951  0.1204  0.4643 -0.2619
 7864SOL    HW124491   2.329   5.643   6.040 -1.5643  1.2685 -1.1120
 7864SOL    HW224492   2.452   5.700   5.949  0.1578  0.4587  0.6202
 7865SOL     OW24493   6.267   5.103   4.358 -0.0249 -0.6920 -0.3553
 7865SOL    HW124494   6.194   5.121   4.292  0.5419 -1.1935 -1.1418
 7865SOL    HW224495   6.328   5.032   4.321  1.0601 -0.0358  0.1225
 7866SOL     OW24496   2.486   2.497   5.050  0.5355  0.0266  0.1395
 7866SOL    HW124497   2.538   2.530   5.129  0.8161 -1.4483  0.5875
 7866SOL    HW224498   2.427   2.571   5.017  2.4473  1.5626 -0.0239
 7867SOL     OW24499   2.977   5.067   3.333  0.0028  0.3583 -0.5400
 7867SOL    HW124500   3.012   4.999   3.269 -2.3948 -0.1088 -1.4326
 7867SOL    HW224501   3.008   5.158   3.305 -0.2285  0.0603 -1.8100
 7868SOL     OW24502   2.985   6.201   0.438  0.0227  0.5077  0.5977
 7868SOL    HW124503   3.080   6.217   0.467  1.0383 -1.3744 -1.4104
 7868SOL    HW224504   2.941   6.139   0.503  1.1574 -0.9321  0.0558
 7869SOL     OW24505   1.028   5.114   5.497  0.1774 -0.5692 -0.3713
 7869SOL    HW124506   1.087   5.066   5.561 -0.9882  1.3748  2.3305
 7869SOL    HW224507   1.080   5.188   5.452  0.5129 -0.7292 -0.2509
 7870SOL     OW24508   0.282   1.351   3.045 -0.2110 -0.0131 -0.4105
 7870SOL    HW124509   0.279   1.252   3.061 -0.3784 -0.0050 -0.3839
 7870SOL    HW224510   0.199   1.393   3.083  0.8309  0.4338  1.4777
 7871SOL     OW24511   6.522   0.123   6.139  0.4699 -0.3064  0.3128
 7871SOL    HW124512   6.480   0.169   6.061  1.3162 -0.6306 -0.3446
 7871SOL    HW224513   6.619   0.108   6.121  0.8957  0.4526  1.8181
 7872SOL     OW24514   0.161   6.933   6.149 -0.2397  0.6093 -0.0694
 7872SOL    HW124515   0.260   6.950   6.157 -0.1481  1.5563 -2.3823
 7872SOL    HW224516   0.136   6.856   6.207  2.4095 -1.4125 -1.3818
 7873SOL     OW24517   5.537   1.097   6.127  0.9441  0.3186  0.2958
 7873SOL    HW124518   5.612   1.127   6.186  2.2038  0.7398 -1.4394
 7873SOL    HW224519   5.459   1.159   6.138  0.6377 -0.3808  2.4504
 7874SOL     OW24520   6.254   4.619   1.048 -0.0170 -0.0711 -0.5689
 7874SOL    HW124521   6.185   4.549   1.029  0.7047 -1.1908  0.6952
 7874SOL    HW224522   6.230   4.667   1.133  0.5712 -0.2566 -0.2896
 7875SOL     OW24523   0.892   4.288   0.123  0.4496 -0.6115  0.2938
 7875SOL    HW124524   0.953   4.366   0.135 -0.8764  0.8436 -1.7647
 7875SOL    HW224525   0.864   4.253   0.213  1.2939  1.1069  1.2779
 7876SOL     OW24526   6.740   0.374   4.490 -0.2200 -0.5401 -0.4872
 7876SOL    HW124527   6.698   0.464   4.476 -0.7226 -0.8237 -0.8206
 7876SOL    HW224528   6.670   0.309   4.520  0.3566 -0.5511  0.8791
 7877SOL     OW24529   0.125   4.323   1.527 -0.2704  0.1061 -0.2535
 7877SOL    HW124530   0.170   4.257   1.587 -0.2534  1.0321  0.7824
 7877SOL    HW224531   0.194   4.378   1.481 -0.3022 -0.0303 -0.4654
 7878SOL     OW24532   3.372   1.306   3.302  0.3585  0.6872  0.1220
 7878SOL    HW124533   3.344   1.394   3.340 -1.3741  0.8042 -1.2930
 7878SOL    HW224534   3.302   1.272   3.240  2.2993 -0.2653 -1.7046
 7879SOL     OW24535   2.347   6.485   1.608 -0.2107  0.1042 -0.3529
 7879SOL    HW124536   2.331   6.450   1.701  1.5175 -0.0490 -0.0839
 7879SOL    HW224537   2.385   6.577   1.613  1.4795 -0.5410 -0.8300
 7880SOL     OW24538   2.766   6.898   2.029 -0.4739 -0.3229  0.4705
 7880SOL    HW124539   2.711   6.941   2.101  1.1937  0.7058  1.2098
 7880SOL    HW224540   2.738   6.933   1.940  0.1298  1.5862  0.9704
 7881SOL     OW24541   4.843   2.319   3.846 -0.1987 -0.0523  0.3815
 7881SOL    HW124542   4.864   2.379   3.769  0.5431 -1.1713 -0.3135
 7881SOL    HW224543   4.743   2.312   3.857 -0.3350 -0.5850 -1.0539
 7882SOL     OW24544   6.731   3.689   1.429  0.4052  0.2225 -0.7088
 7882SOL    HW124545   6.813   3.745   1.442  1.2023 -0.5153 -2.3648
 7882SOL    HW224546   6.757   3.600   1.393 -0.8040 -1.4014  2.1161
 7883SOL     OW24547   0.891   6.289   3.706  0.1371  0.3159 -0.2122
 7883SOL    HW124548   0.927   6.346   3.780  0.1604  2.7863 -2.0223
 7883SOL    HW224549   0.963   6.272   3.639 -0.6431  0.6846 -1.1682
 7884SOL     OW24550   1.064   3.976   4.037 -0.3249  0.3878  0.5033
 7884SOL    HW124551   1.028   4.050   3.981 -1.3598 -1.0253 -0.7795
 7884SOL    HW224552   0.991   3.911   4.058  1.0955 -1.7739 -0.8685
 7885SOL     OW24553   6.739   4.349   4.445  0.1249  0.1003 -0.0485
 7885SOL    HW124554   6.687   4.330   4.529  1.0277  2.7544  1.2060
 7885SOL    HW224555   6.837   4.345   4.465  0.3982  3.4366 -0.1635
 7886SOL     OW24556   5.533   4.972   6.382  0.6148  0.2605  0.3610
 7886SOL    HW124557   5.545   5.042   6.452 -0.4675  0.1276  0.6920
 7886SOL    HW224558   5.505   4.886   6.426 -2.5958  0.8011 -0.3766
 7887SOL     OW24559   4.623   0.768   6.342 -0.6042 -0.6978  0.5410
 7887SOL    HW124560   4.635   0.848   6.401  1.1354  0.5601 -1.3327
 7887SOL    HW224561   4.527   0.761   6.315 -0.7844  0.8792  0.6474
 7888SOL     OW24562   4.048   6.117   2.375 -0.0018 -0.5035  0.1944
 7888SOL    HW124563   3.965   6.148   2.422  0.8459  1.9631  0.2447
 7888SOL    HW224564   4.035   6.025   2.340 -2.3655 -0.5831  1.1317
 7889SOL     OW24565   5.947   5.032   3.049 -0.0104 -0.0965  0.3249
 7889SOL    HW124566   6.016   4.971   3.009 -0.2420  0.1685 -0.4889
 7889SOL    HW224567   5.986   5.123   3.063 -0.2448  0.1106 -0.3282
 7890SOL     OW24568   2.018   3.375   4.151  0.2700  0.2734  0.2466
 7890SOL    HW124569   2.071   3.414   4.076  0.0994 -1.3390 -0.7877
 7890SOL    HW224570   1.937   3.328   4.113  0.9224 -1.7990  1.2625
 7891SOL     OW24571   5.757   4.012   2.569 -0.1353  0.3349 -0.6379
 7891SOL    HW124572   5.835   3.985   2.625 -0.2624 -0.8791 -1.0115
 7891SOL    HW224573   5.782   4.010   2.472 -0.3731  0.8460 -0.7157
 7892SOL     OW24574   3.940   1.833   2.438  0.1163  0.5477  0.2008
 7892SOL    HW124575   3.856   1.779   2.442  1.8929 -2.5138 -0.5672
 7892SOL    HW224576   3.965   1.863   2.531 -0.6068 -0.5561  0.7695
 7893SOL     OW24577   5.618   6.697   0.943 -0.7910 -0.0492  0.2979
 7893SOL    HW124578   5.665   6.781   0.970  2.4674 -1.4514 -0.4904
 7893SOL    HW224579   5.527   6.694   0.985 -0.3782  3.0572  1.6583
 7894SOL     OW24580   3.368   6.532   0.950 -0.4341  0.5175 -0.1797
 7894SOL    HW124581   3.322   6.449   0.979  0.2324  0.0524 -0.4327
 7894SOL    HW224582   3.405   6.580   1.030 -0.7106  0.5072 -0.0463
 7895SOL     OW24583   0.848   2.432   4.420 -0.1322  0.1180 -0.0904
 7895SOL    HW124584   0.774   2.423   4.487  0.8235 -1.4578  0.8241
 7895SOL    HW224585   0.936   2.431   4.468  0.5349  0.2810 -1.2887
 7896SOL     OW24586   4.381   2.253   6.443 -0.0843  0.0858 -0.0206
 7896SOL    HW124587   4.448   2.246   6.516 -0.7165  0.0457  0.5637
 7896SOL    HW224588   4.290   2.236   6.479 -0.3386 -0.6062 -0.9531
 7897SOL     OW24589   3.569   3.542   1.302  0.7954  0.1679 -0.1007
 7897SOL    HW124590   3.580   3.610   1.375  1.1480  0.0620 -0.0524
 7897SOL    HW224591   3.638   3.470   1.313 -1.1784 -1.6266  1.4242
 7898SOL     OW24592   6.813   6.007   3.601  0.1781 -0.0160 -0.1643
 7898SOL    HW124593   6.823   5.926   3.543 -0.0860  0.2930 -0.6464
 7898SOL    HW224594   6.807   6.088   3.544 -2.2977  0.1080  0.1617
 7899SOL     OW24595   5.264   0.246   1.105  0.6481 -0.3752 -0.5823
 7899SOL    HW124596   5.315   0.220   1.187 -0.2300 -0.3484 -0.0139
 7899SOL    HW224597   5.301   0.330   1.067 -1.4752  1.9824  2.1739
 7900SOL     OW24598   0.270   6.527   0.505  0.0415  0.1300 -0.5201
 7900SOL    HW124599   0.281   6.523   0.604 -2.7654 -1.5695 -0.1616
 7900SOL    HW224600   0.236   6.617   0.478  0.9438  0.6418  0.0231
 7901SOL     OW24601   3.899   5.933   2.171 -0.7050  0.3256  0.5000
 7901SOL    HW124602   3.953   5.985   2.105 -2.5968  0.8877 -0.6612
 7901SOL    HW224603   3.828   5.991   2.210 -0.9514 -0.5844  1.4762
 7902SOL     OW24604   6.011   2.862   0.300 -0.6291 -0.5376 -0.5894
 7902SOL    HW124605   5.936   2.876   0.236  1.5647  0.4479 -3.1455
 7902SOL    HW224606   6.097   2.851   0.249  1.4252  1.3042  2.1823
 7903SOL     OW24607   1.288   0.497   3.103  0.2208 -0.1036 -0.6453
 7903SOL    HW124608   1.262   0.512   3.007 -0.2373 -1.4441 -0.7507
 7903SOL    HW224609   1.387   0.493   3.110  0.4368  2.7920 -0.5911
 7904SOL     OW24610   5.583   2.321   3.723  0.4319 -0.2553  0.2859
 7904SOL    HW124611   5.642   2.280   3.653  1.0962  0.1020  0.6308
 7904SOL    HW224612   5.598   2.274   3.810 -0.3919 -0.6982  0.2070
 7905SOL     OW24613   2.371   2.790   1.422 -0.6332 -0.6304 -0.1813
 7905SOL    HW124614   2.451   2.804   1.480 -0.0005 -2.2370 -0.6224
 7905SOL    HW224615   2.296   2.848   1.455  0.3225  0.0033  0.9749
 7906SOL     OW24616   1.504   5.504   0.550 -0.2942 -0.2454 -0.5821
 7906SOL    HW124617   1.408   5.525   0.569 -0.4741 -1.0908 -0.4838
 7906SOL    HW224618   1.551   5.585   0.516 -0.9701  0.2528 -0.3361
 7907SOL     OW24619   1.214   2.955   5.280  0.2477 -0.1007 -0.7425
 7907SOL    HW124620   1.295   3.002   5.247 -0.4043  1.1267 -0.6820
 7907SOL    HW224621   1.152   3.022   5.322 -0.0548 -1.2411  0.7028
 7908SOL     OW24622   0.036   0.666   4.131  0.0596  0.0331  0.4092
 7908SOL    HW124623   0.120   0.710   4.101  1.0121 -1.9808 -0.0715
 7908SOL    HW224624   0.003   0.604   4.060 -0.8815 -0.4753  1.2560
 7909SOL     OW24625   4.423   4.523   6.655 -0.3780 -0.5360 -0.6240
 7909SOL    HW124626   4.482   4.444   6.672 -0.5370 -0.1901  1.9087
 7909SOL    HW224627   4.472   4.591   6.601  1.6714 -0.2068  1.5026
 7910SOL     OW24628   6.417   3.136   6.382 -0.3547 -0.0633  0.7121
 7910SOL    HW124629   6.423   3.077   6.462  0.9949 -1.8464 -0.6130
 7910SOL    HW224630   6.483   3.210   6.389  0.2210 -0.5914  0.9871
 7911SOL     OW24631   5.906   6.033   5.634  0.3592 -0.3514  0.4805
 7911SOL    HW124632   5.967   5.991   5.567 -0.4993 -2.1262  0.7553
 7911SOL    HW224633   5.813   5.998   5.621 -0.0033 -0.0534  2.0421
 7912SOL     OW24634   5.185   5.794   3.463  0.0101  0.7657 -0.3336
 7912SOL    HW124635   5.260   5.861   3.466  0.7263  0.2223 -3.0598
 7912SOL    HW224636   5.103   5.838   3.425 -0.1450  0.6038 -0.1870
 7913SOL     OW24637   2.163   0.345   0.616 -0.0506  0.2821  0.0959
 7913SOL    HW124638   2.096   0.419   0.623  0.4379  0.5971  2.1061
 7913SOL    HW224639   2.249   0.382   0.581 -0.9484 -0.1892 -2.8220
 7914SOL     OW24640   5.653   4.439   0.201  0.0843 -0.3681 -0.3356
 7914SOL    HW124641   5.680   4.411   0.108 -0.2445 -2.2871  0.1045
 7914SOL    HW224642   5.699   4.525   0.224  3.2259 -1.7808 -0.8614
 7915SOL     OW24643   2.181   0.161   3.957  0.1630 -0.2784  0.1950
 7915SOL    HW124644   2.211   0.249   3.920  0.7900 -1.0010 -1.0743
 7915SOL    HW224645   2.082   0.159   3.962 -0.1302 -0.8296 -3.4074
 7916SOL     OW24646   3.731   2.958   3.408 -0.2819 -0.6448  0.2429
 7916SOL    HW124647   3.646   3.010   3.411 -0.4441 -0.9630  2.1117
 7916SOL    HW224648   3.762   2.939   3.501  1.2765 -1.4618 -0.4059
 7917SOL     OW24649   3.767   3.562   4.429 -0.2375  0.3207  0.1624
 7917SOL    HW124650   3.741   3.471   4.398 -0.3902  0.6773 -0.7935
 7917SOL    HW224651   3.685   3.616   4.450 -0.1504  0.2558  0.6783
 7918SOL     OW24652   6.164   1.775   0.499 -0.2307  0.0657 -0.4613
 7918SOL    HW124653   6.087   1.746   0.442 -0.5970  0.6169 -0.2497
 7918SOL    HW224654   6.248   1.734   0.464 -0.8586 -2.1797  0.4666
 7919SOL     OW24655   5.584   3.615   2.913  0.4058 -0.2141 -0.0420
 7919SOL    HW124656   5.611   3.665   2.830 -1.2628  0.8328  0.0030
 7919SOL    HW224657   5.666   3.594   2.966  1.2784  1.5517 -0.6018
 7920SOL     OW24658   0.058   5.441   6.991  0.1648 -0.3995  0.1710
 7920SOL    HW124659   0.130   5.391   7.038  0.5210 -2.2898 -2.1871
 7920SOL    HW224660  -0.030   5.397   7.008  0.1758 -0.5780 -0.2178
 7921SOL     OW24661   4.109   5.339   0.653 -0.3524 -0.6530 -0.2380
 7921SOL    HW124662   4.051   5.305   0.580 -1.9596 -0.1358  0.7449
 7921SOL    HW224663   4.077   5.302   0.741 -0.1647  0.8291  0.4921
 7922SOL     OW24664   1.522   3.435   3.956 -0.2667  0.2528  0.7403
 7922SOL    HW124665   1.591   3.459   3.887  1.4928 -3.3830  1.0014
 7922SOL    HW224666   1.445   3.390   3.912  0.2303 -0.8495  0.9696
 7923SOL     OW24667   1.946   4.601   2.120 -0.1048  0.1913 -0.8772
 7923SOL    HW124668   1.935   4.700   2.113  0.9326  0.4386  0.5764
 7923SOL    HW224669   1.894   4.556   2.047 -1.4127  1.7423 -0.9537
 7924SOL     OW24670   0.100   2.684   6.465 -0.7076 -1.0062 -0.0997
 7924SOL    HW124671   0.147   2.639   6.389 -0.7713 -2.3380  0.6016
 7924SOL    HW224672   0.006   2.706   6.438 -0.8101 -1.7036 -0.3411
 7925SOL     OW24673   1.573   6.855   2.522 -0.7111 -0.2610  0.3847
 7925SOL    HW124674   1.668   6.842   2.552 -0.9646 -0.6438  1.0158
 7925SOL    HW224675   1.547   6.950   2.537 -0.1026  0.1177 -0.7480
 7926SOL     OW24676   4.990   6.996   1.564  0.2272 -0.0319  0.7787
 7926SOL    HW124677   4.989   7.007   1.465  0.2744 -1.1283  0.6469
 7926SOL    HW224678   5.037   7.074   1.606  2.6178 -0.8370 -0.2384
 7927SOL     OW24679   2.290   4.959   5.845 -0.3991 -0.0609 -0.4585
 7927SOL    HW124680   2.288   4.973   5.746 -1.3314  1.6242 -0.2477
 7927SOL    HW224681   2.199   4.933   5.877 -0.6966  1.6842  0.2056
 7928SOL     OW24682   0.910   2.236   1.861 -0.3902 -0.6018 -0.3267
 7928SOL    HW124683   0.840   2.286   1.810 -0.2234 -0.6729 -0.6276
 7928SOL    HW224684   0.883   2.140   1.870 -2.0405  0.0239  2.5877
 7929SOL     OW24685   4.592   3.725   6.288  0.2987 -0.3475 -0.6958
 7929SOL    HW124686   4.550   3.804   6.333 -0.2858  0.0354 -1.8934
 7929SOL    HW224687   4.544   3.706   6.202  2.0448 -0.4244 -1.6886
 7930SOL     OW24688   4.158   0.982   1.736  0.3048 -0.0927  0.3581
 7930SOL    HW124689   4.254   0.959   1.745  0.7209  1.4446  0.0875
 7930SOL    HW224690   4.138   1.007   1.641  0.0741  1.3263  0.7436
 7931SOL     OW24691   2.313   2.089   5.947  0.5715 -0.3216 -0.0472
 7931SOL    HW124692   2.237   2.139   5.905  1.7409  2.3763  0.8317
 7931SOL    HW224693   2.335   2.009   5.891 -0.7767  0.6641 -2.1223
 7932SOL     OW24694   5.172   2.666   6.783  0.6195 -0.2423  0.1806
 7932SOL    HW124695   5.147   2.719   6.864  0.5579 -0.5558  0.3706
 7932SOL    HW224696   5.093   2.611   6.753  0.5795  0.0269 -0.2148
 7933SOL     OW24697   2.416   1.833   5.500 -0.0196 -0.4973  0.0998
 7933SOL    HW124698   2.437   1.749   5.549 -0.0014  0.3572  1.6271
 7933SOL    HW224699   2.484   1.849   5.429  0.3470 -1.4312  0.2332
 7934SOL     OW24700   4.684   2.225   0.083  0.2031  0.4346 -0.4841
 7934SOL    HW124701   4.709   2.314   0.121 -0.5455  0.1045  0.8389
 7934SOL    HW224702   4.763   2.184   0.039  0.7218  1.4700 -0.5513
 7935SOL     OW24703   4.863   4.887   2.555  0.4672 -0.6128 -0.4795
 7935SOL    HW124704   4.950   4.906   2.508  0.2054  1.2301 -0.2790
 7935SOL    HW224705   4.815   4.973   2.572 -2.7590 -1.7071 -3.0602
 7936SOL     OW24706   3.450   5.690   2.928 -1.1200  0.2372  0.1420
 7936SOL    HW124707   3.492   5.624   2.865 -1.1443 -0.9700  1.3335
 7936SOL    HW224708   3.512   5.707   3.005 -1.5666  0.7877  0.3906
 7937SOL     OW24709   5.243   6.647   5.893  0.0561 -0.4494  0.2979
 7937SOL    HW124710   5.146   6.670   5.885  0.6100  1.6089 -1.4338
 7937SOL    HW224711   5.266   6.633   5.989 -1.7949 -0.2923  0.8054
 7938SOL     OW24712   1.650   5.265   4.760 -0.0739  0.4366  0.1800
 7938SOL    HW124713   1.721   5.241   4.694  0.2089 -1.1099  0.9855
 7938SOL    HW224714   1.618   5.358   4.743  1.9986  1.1204 -0.3522
 7939SOL     OW24715   0.204   4.342   4.144  0.0815  0.3297 -0.0030
 7939SOL    HW124716   0.213   4.435   4.179 -2.3435  1.1506 -1.3323
 7939SOL    HW224717   0.182   4.280   4.220 -0.5644  1.2606  0.5841
 7940SOL     OW24718   2.337   5.459   2.372 -0.1742  0.1552  0.1363
 7940SOL    HW124719   2.318   5.363   2.349  0.1831 -0.0664  0.7486
 7940SOL    HW224720   2.388   5.501   2.296 -0.6254 -0.0421 -0.2807
 7941SOL     OW24721   2.488   1.180   1.354 -0.6407  0.3270  0.0956
 7941SOL    HW124722   2.522   1.266   1.392  0.6141 -0.2066  0.2504
 7941SOL    HW224723   2.400   1.157   1.395  0.0409  0.4468  1.6891
 7942SOL     OW24724   6.884   6.416   0.749  0.4442  0.0432 -0.6097
 7942SOL    HW124725   6.821   6.390   0.676  0.0114  1.7869 -0.8838
 7942SOL    HW224726   6.836   6.470   0.817  1.2140 -0.2260  0.1623
 7943SOL     OW24727   6.655   2.143   6.473  0.4466  0.0199  0.1641
 7943SOL    HW124728   6.626   2.188   6.557 -1.3782 -0.8750  0.0553
 7943SOL    HW224729   6.582   2.085   6.439  2.0066 -1.5086 -0.7588
 7944SOL     OW24730   6.755   3.488   0.118  0.2664 -0.5877  0.2880
 7944SOL    HW124731   6.656   3.479   0.128  0.2769  0.1743  1.2237
 7944SOL    HW224732   6.792   3.540   0.195  0.8840  2.4393 -1.8663
 7945SOL     OW24733   5.907   5.426   6.607  0.2722  0.2318  0.5310
 7945SOL    HW124734   5.870   5.519   6.614  1.4252  0.9326 -1.7361
 7945SOL    HW224735   5.869   5.370   6.680 -1.9776  1.9577  0.8033
 7946SOL     OW24736   4.232   2.058   4.953  0.4364 -0.7461  0.0646
 7946SOL    HW124737   4.179   2.020   4.878  1.6014  0.7541 -1.6305
 7946SOL    HW224738   4.283   2.138   4.920  1.8945 -0.7160  2.1779
 7947SOL     OW24739   4.796   4.443   0.675  0.2163  0.0737  0.3046
 7947SOL    HW124740   4.804   4.529   0.624  2.9055 -0.1937  0.1231
 7947SOL    HW224741   4.768   4.462   0.769  2.2936  1.3646  0.7106
 7948SOL     OW24742   2.368   4.424   4.869 -0.1816 -0.5343  0.3493
 7948SOL    HW124743   2.452   4.479   4.870  0.6385 -1.7532  0.6201
 7948SOL    HW224744   2.294   4.478   4.829  0.1866  1.3233  2.0365
 7949SOL     OW24745   1.014   2.572   5.776 -0.7927 -0.2411 -0.1127
 7949SOL    HW124746   1.073   2.587   5.697  0.6657 -0.9204  0.8113
 7949SOL    HW224747   0.968   2.657   5.801  0.2331  0.4360 -0.5047
 7950SOL     OW24748   3.041   5.250   2.688 -0.2197 -0.0252 -0.1317
 7950SOL    HW124749   3.057   5.260   2.786 -1.4183  2.2174 -0.1097
 7950SOL    HW224750   3.032   5.153   2.665  0.6389 -0.6119  1.8536
 7951SOL     OW24751   2.933   3.774   0.888  0.0369  0.3718 -0.0071
 7951SOL    HW124752   3.019   3.794   0.936  0.2016  0.3049 -0.2710
 7951SOL    HW224753   2.878   3.712   0.944  0.3979 -0.0122 -0.0734
 7952SOL     OW24754   0.178   1.800   2.641 -0.2102 -0.0089  0.7536
 7952SOL    HW124755   0.190   1.770   2.735  0.4920 -0.0937  0.6392
 7952SOL    HW224756   0.211   1.894   2.631 -1.9351  0.6748  0.9945
 7953SOL     OW24757   3.481   3.102   2.239 -0.0669  0.1840  0.4171
 7953SOL    HW124758   3.569   3.127   2.279 -0.1432  0.0521  0.6745
 7953SOL    HW224759   3.408   3.151   2.286 -0.0891  0.6911 -0.1474
 7954SOL     OW24760   5.223   6.722   3.295 -0.4346 -0.4259  0.2878
 7954SOL    HW124761   5.197   6.627   3.273  0.7922 -0.2588 -2.3274
 7954SOL    HW224762   5.318   6.724   3.326 -0.1861  0.0054 -0.4763
 7955SOL     OW24763   1.533   5.624   0.823 -0.0379 -0.1112 -0.2522
 7955SOL    HW124764   1.452   5.677   0.798  0.0177 -0.6783 -1.7564
 7955SOL    HW224765   1.544   5.547   0.759  2.3745  0.6730 -0.9075
 7956SOL     OW24766   6.526   5.481   3.014 -0.1041 -0.1972  0.5625
 7956SOL    HW124767   6.593   5.555   3.011 -0.1383 -0.1624  0.6490
 7956SOL    HW224768   6.503   5.453   2.920  0.9129 -1.0144  0.5360
 7957SOL     OW24769   0.365   2.024   1.570  0.0231 -0.1675 -0.3533
 7957SOL    HW124770   0.288   1.966   1.598 -0.1198 -1.3642 -2.9346
 7957SOL    HW224771   0.346   2.063   1.479  1.7703  0.8799 -0.3146
 7958SOL     OW24772   1.545   5.215   3.531 -0.3256 -0.2378  0.6827
 7958SOL    HW124773   1.464   5.256   3.572 -0.6691  0.4004 -0.5723
 7958SOL    HW224774   1.520   5.173   3.444  1.0358  1.9779 -0.8961
 7959SOL     OW24775   4.441   5.409   2.046  0.1189  0.4272 -0.5499
 7959SOL    HW124776   4.436   5.312   2.066 -2.2117  0.8059  1.0994
 7959SOL    HW224777   4.497   5.424   1.964  2.1391 -2.0851  0.2478
 7960SOL     OW24778   2.977   5.108   1.030  0.4310 -0.2968 -0.8075
 7960SOL    HW124779   3.043   5.109   1.106 -0.1453 -0.8866 -0.2905
 7960SOL    HW224780   3.021   5.071   0.948  0.5503 -1.3686 -0.2725
 7961SOL     OW24781   1.226   6.274   0.294 -0.4186  0.2407  0.3277
 7961SOL    HW124782   1.127   6.265   0.285 -0.4934  0.8109  0.5012
 7961SOL    HW224783   1.247   6.352   0.353  0.1385  2.0661 -2.1118
 7962SOL     OW24784   2.287   0.682   3.720  0.6037 -0.6461 -0.0696
 7962SOL    HW124785   2.267   0.774   3.686  0.5413 -0.2625  0.9736
 7962SOL    HW224786   2.384   0.662   3.707  0.8071 -0.0712  0.5208
 7963SOL     OW24787   1.150   6.507   0.433 -0.0695 -0.0482  0.9824
 7963SOL    HW124788   1.201   6.587   0.463  0.5242 -0.6612  1.6202
 7963SOL    HW224789   1.062   6.504   0.481 -1.9361  2.3976 -1.9153
 7964SOL     OW24790   5.483   3.654   2.189  0.4415  0.3073 -0.9757
 7964SOL    HW124791   5.551   3.607   2.133  1.0713  0.7660 -0.6185
 7964SOL    HW224792   5.409   3.689   2.131  0.3068 -0.5255 -1.3229
 7965SOL     OW24793   2.112   1.786   1.952  0.0632  0.4050  0.1494
 7965SOL    HW124794   2.135   1.688   1.957  1.6162  0.8007  3.6453
 7965SOL    HW224795   2.015   1.796   1.930  0.1043 -1.8310 -1.4488
 7966SOL     OW24796   0.740   2.575   3.993  0.1517 -0.7163  0.0311
 7966SOL    HW124797   0.774   2.507   4.057  0.9468  0.3910  0.8245
 7966SOL    HW224798   0.797   2.657   3.998 -0.9765  0.1430 -0.6450
 7967SOL     OW24799   2.397   1.315   3.739  0.0117 -0.1660  0.0913
 7967SOL    HW124800   2.375   1.396   3.684  1.2687  0.7498  0.8830
 7967SOL    HW224801   2.496   1.306   3.747 -0.1208 -0.4056  1.9817
 7968SOL     OW24802   2.334   6.386   6.472  0.3050  0.5797 -0.0444
 7968SOL    HW124803   2.325   6.471   6.421  1.3689  0.7892  0.1019
 7968SOL    HW224804   2.243   6.352   6.496 -0.2139  3.5682  3.0403
 7969SOL     OW24805   4.039   1.472   3.752  0.7531  0.1417 -0.1968
 7969SOL    HW124806   4.136   1.446   3.749  0.7208 -0.2612  1.3288
 7969SOL    HW224807   4.008   1.475   3.847 -1.3053 -1.9339 -0.7059
 7970SOL     OW24808   1.718   3.274   2.220  0.3978 -0.3220 -0.5838
 7970SOL    HW124809   1.639   3.246   2.273 -0.1535 -0.1528 -1.2958
 7970SOL    HW224810   1.739   3.204   2.152  1.0788 -0.5250 -0.1731
 7971SOL     OW24811   4.083   1.933   4.733  0.4357  0.1884  0.2958
 7971SOL    HW124812   4.103   1.856   4.673  4.4490  0.2153  1.3694
 7971SOL    HW224813   4.058   2.012   4.677  1.2135 -0.5623 -1.1720
 7972SOL     OW24814   6.313   6.929   6.915  0.2653 -0.7115 -0.2049
 7972SOL    HW124815   6.269   6.878   6.989 -0.6814 -1.0508 -0.9787
 7972SOL    HW224816   6.412   6.918   6.922  0.5087  1.8876  2.9146
 7973SOL     OW24817   4.543   2.159   2.458  0.4537 -0.2083  0.2060
 7973SOL    HW124818   4.448   2.189   2.457  0.3792 -0.4301  0.5278
 7973SOL    HW224819   4.599   2.224   2.508  0.3375 -0.4648  0.6758
 7974SOL     OW24820   4.584   6.017   4.586 -0.1453 -0.7451 -0.1910
 7974SOL    HW124821   4.658   6.085   4.586 -1.0667  0.3145  1.4828
 7974SOL    HW224822   4.544   6.011   4.495  1.9377 -1.3069 -1.1219
 7975SOL     OW24823   1.243   0.774   1.567 -0.2933  0.3028 -0.0737
 7975SOL    HW124824   1.325   0.797   1.515 -0.6653 -1.5864 -1.6282
 7975SOL    HW224825   1.201   0.858   1.601  2.3810  1.3144  1.0224
 7976SOL     OW24826   0.928   5.527   6.980 -0.6718  0.5252 -0.1684
 7976SOL    HW124827   0.913   5.460   7.053 -2.1523 -0.0119 -0.9315
 7976SOL    HW224828   0.983   5.485   6.908  0.7626  1.0454  0.5770
 7977SOL     OW24829   5.535   6.567   2.154 -0.1102 -0.6914  0.0505
 7977SOL    HW124830   5.541   6.556   2.054  2.4828 -1.0283  0.1612
 7977SOL    HW224831   5.569   6.658   2.178 -1.7000 -0.2195  0.5885
 7978SOL     OW24832   3.809   1.662   5.267  0.1410 -0.1978 -0.2554
 7978SOL    HW124833   3.720   1.690   5.230 -0.2462 -1.8834 -0.6802
 7978SOL    HW224834   3.794   1.601   5.345  0.9253  3.2521  2.8783
 7979SOL     OW24835   4.569   0.149   3.929  0.5250 -0.0216  0.8335
 7979SOL    HW124836   4.537   0.143   4.023  0.7089  1.3094  0.9945
 7979SOL    HW224837   4.513   0.090   3.871 -0.1748 -0.1541  1.6278
 7980SOL     OW24838   2.840   6.968   3.521  0.0616  0.0244  0.7838
 7980SOL    HW124839   2.839   7.029   3.442  0.4759 -0.4834  0.3771
 7980SOL    HW224840   2.750   6.927   3.532 -0.5532  1.5309  1.7304
 7981SOL     OW24841   6.231   6.863   4.682 -0.3787  0.2995  0.0150
 7981SOL    HW124842   6.207   6.773   4.717  3.8466 -0.8251  0.6052
 7981SOL    HW224843   6.175   6.933   4.727 -2.9382 -1.8465  0.4054
 7982SOL     OW24844   0.983   2.467   1.641  0.0784 -0.7535 -1.1660
 7982SOL    HW124845   1.046   2.458   1.718 -0.2454  1.2169 -0.6368
 7982SOL    HW224846   0.899   2.416   1.660 -0.4057  0.5153  0.2579
 7983SOL     OW24847   5.599   2.180   1.859  0.1279  0.7335  0.0460
 7983SOL    HW124848   5.502   2.189   1.880 -0.4571 -1.3799 -1.3611
 7983SOL    HW224849   5.649   2.153   1.942 -0.9278 -0.5671  0.3006
 7984SOL     OW24850   5.933   1.685   0.356  0.0394  0.4006 -0.7042
 7984SOL    HW124851   5.873   1.624   0.407  1.1130 -0.8359 -0.8579
 7984SOL    HW224852   5.881   1.765   0.324 -1.0246  0.3547  0.8375
 7985SOL     OW24853   0.293   2.181   0.971  0.5195 -0.1257  0.1579
 7985SOL    HW124854   0.283   2.106   1.037 -0.0868 -1.2942 -1.2175
 7985SOL    HW224855   0.385   2.178   0.931  0.2947 -0.5226 -0.3382
 7986SOL     OW24856   5.672   2.303   6.583 -0.2457 -0.2887  0.3315
 7986SOL    HW124857   5.634   2.262   6.500  0.8218  0.1277 -0.3853
 7986SOL    HW224858   5.609   2.287   6.659 -1.5219 -0.1847 -0.6582
 7987SOL     OW24859   0.615   3.576   6.166  0.0387  0.2223 -0.3200
 7987SOL    HW124860   0.646   3.624   6.084 -0.8315  1.2861 -0.0587
 7987SOL    HW224861   0.566   3.493   6.139  0.9960 -0.1914 -0.8139
 7988SOL     OW24862   1.721   2.993   5.226  0.3915  0.2663  0.1706
 7988SOL    HW124863   1.720   3.015   5.128 -0.6985 -0.5501 -0.0113
 7988SOL    HW224864   1.799   3.040   5.269  1.5732 -0.2656 -1.2902
 7989SOL     OW24865   1.213   2.943   0.763  0.2249 -0.3554  0.5568
 7989SOL    HW124866   1.161   3.007   0.707 -1.1953  0.9440  3.1710
 7989SOL    HW224867   1.277   2.893   0.706 -2.1804 -0.2869 -2.4625
 7990SOL     OW24868   1.839   3.516   5.516 -0.5871  0.0590  0.0043
 7990SOL    HW124869   1.756   3.558   5.478  0.1452  1.3498 -0.2196
 7990SOL    HW224870   1.825   3.417   5.524 -2.0354  0.2095 -0.3079
 7991SOL     OW24871   0.790   4.994   5.544  0.4937  0.5043 -0.4391
 7991SOL    HW124872   0.825   4.910   5.501  0.7743  0.0525  0.6265
 7991SOL    HW224873   0.847   5.071   5.517  0.3802  0.3136 -1.2441
 7992SOL     OW24874   3.676   1.906   0.241 -0.0936 -0.6289 -0.0237
 7992SOL    HW124875   3.729   1.991   0.248  0.3827 -1.0314  1.6188
 7992SOL    HW224876   3.724   1.842   0.183 -2.0378  1.3007 -4.1956
 7993SOL     OW24877   3.973   6.347   5.208  0.4840  0.0756 -0.1699
 7993SOL    HW124878   4.032   6.418   5.171  1.7286 -1.2359 -0.7658
 7993SOL    HW224879   3.951   6.369   5.304 -2.0930  3.0732 -1.2409
 7994SOL     OW24880   6.903   5.347   5.407  0.2794  0.0355 -0.2987
 7994SOL    HW124881   6.832   5.295   5.455  0.5930  1.9783  2.5134
 7994SOL    HW224882   6.864   5.388   5.324 -1.6690  0.3227  0.7048
 7995SOL     OW24883   4.023   5.684   1.034 -0.0317 -0.4076  0.4489
 7995SOL    HW124884   3.980   5.644   0.954  0.3707  2.1492 -1.1704
 7995SOL    HW224885   4.065   5.612   1.090 -2.9130 -2.5797  0.0309
 7996SOL     OW24886   5.239   2.056   5.730 -0.3724 -0.4475  0.9399
 7996SOL    HW124887   5.248   2.092   5.637  2.3581  0.6164  1.5142
 7996SOL    HW224888   5.197   2.125   5.789 -2.6191 -1.3235  0.4643
 7997SOL     OW24889   0.637   4.030   6.520 -0.7275 -0.0802 -0.3386
 7997SOL    HW124890   0.726   4.025   6.565  0.6626  0.3956 -2.8904
 7997SOL    HW224891   0.600   3.938   6.509  0.6469 -0.5246 -1.4770
 7998SOL     OW24892   0.165   0.151   6.671  0.3799 -0.4585 -0.5854
 7998SOL    HW124893   0.206   0.078   6.617  0.7269 -0.3185 -0.5171
 7998SOL    HW224894   0.234   0.188   6.734  0.3924  0.3441 -1.0520
 7999SOL     OW24895   3.779   1.586   6.926  0.0496  0.1540  0.4304
 7999SOL    HW124896   3.813   1.626   6.841  1.3345 -1.6910  0.0113
 7999SOL    HW224897   3.706   1.643   6.964  1.2857  2.4503 -0.4744
 8000SOL     OW24898   0.167   1.181   5.446  0.3586  0.0812  0.6184
 8000SOL    HW124899   0.218   1.258   5.408  0.8382  0.2078  1.4895
 8000SOL    HW224900   0.091   1.215   5.502  0.4078 -0.0817  0.7867
 8001SOL     OW24901   2.639   4.626   2.702  0.0481 -0.5898  0.1206
 8001SOL    HW124902   2.693   4.552   2.663  0.4479 -0.4162  0.3353
 8001SOL    HW224903   2.700   4.699   2.733 -0.1972 -0.9656  1.5923
 8002SOL     OW24904   3.491   2.115   6.065  0.3623  0.5541 -0.2720
 8002SOL    HW124905   3.394   2.138   6.062  0.2837  0.1678 -1.6268
 8002SOL    HW224906   3.534   2.161   6.142 -0.8106  1.0731  0.0968
 8003SOL     OW24907   3.752   6.653   4.281  0.3478  0.1625  0.1987
 8003SOL    HW124908   3.814   6.672   4.357 -1.8311  1.7710  1.7141
 8003SOL    HW224909   3.710   6.739   4.251 -1.2231 -0.8584 -0.6534
 8004SOL     OW24910   0.483   6.409   3.313  0.2636  0.3903 -0.5124
 8004SOL    HW124911   0.520   6.501   3.326 -1.7064  1.4476 -1.8433
 8004SOL    HW224912   0.556   6.342   3.323  1.9764  2.1567 -0.5536
 8005SOL     OW24913   3.676   1.191   2.508  0.1179 -0.1561  0.3667
 8005SOL    HW124914   3.685   1.097   2.476  1.0875  0.2272 -0.5464
 8005SOL    HW224915   3.584   1.205   2.544 -0.7835 -0.8438 -1.5296
 8006SOL     OW24916   4.875   4.721   2.879 -0.1710 -0.2097  0.5787
 8006SOL    HW124917   4.794   4.779   2.877  0.8692  1.2776 -0.5966
 8006SOL    HW224918   4.876   4.660   2.800  0.3620  0.5152  0.0190
 8007SOL     OW24919   5.795   0.190   2.041 -0.6012  0.4037  0.6033
 8007SOL    HW124920   5.705   0.155   2.018 -1.8647  3.1527  0.9688
 8007SOL    HW224921   5.835   0.236   1.961  1.7167 -2.8914 -0.3620
 8008SOL     OW24922   6.994   3.648   6.728 -0.2405 -0.1615 -0.7408
 8008SOL    HW124923   6.985   3.571   6.664  0.0480  1.2528 -2.5724
 8008SOL    HW224924   7.069   3.707   6.699  0.4796  0.0932  1.4613
 8009SOL     OW24925   1.268   5.073   1.874 -0.2557  0.1095 -0.0943
 8009SOL    HW124926   1.317   5.085   1.960  0.8684 -0.8106 -0.5726
 8009SOL    HW224927   1.266   5.159   1.824  3.6156 -0.3724 -1.4229
 8010SOL     OW24928   1.884   3.343   5.106  0.2761  0.0349 -0.3491
 8010SOL    HW124929   1.931   3.297   5.031  0.2404  0.7953 -0.8497
 8010SOL    HW224930   1.917   3.307   5.193 -0.8706 -2.0787 -0.6973
 8011SOL     OW24931   1.687   2.696   1.730  0.2709  0.1408 -0.0307
 8011SOL    HW124932   1.668   2.689   1.828  0.7427  2.5647  0.2913
 8011SOL    HW224933   1.757   2.630   1.706 -0.2373 -0.8750  1.1382
 8012SOL     OW24934   1.093   5.210   3.995  0.3655  0.1071  0.0256
 8012SOL    HW124935   1.060   5.164   4.077  2.9709 -0.0548  1.0690
 8012SOL    HW224936   1.038   5.292   3.978 -2.3663 -1.6262 -0.0942
 8013SOL     OW24937   0.069   4.852   3.454  0.2049  0.3185 -0.3032
 8013SOL    HW124938   0.132   4.774   3.449  0.5522  0.5497  0.3345
 8013SOL    HW224939   0.050   4.886   3.362  0.3483 -0.2778 -0.5601
 8014SOL     OW24940   2.811   2.334   0.840  0.6132 -0.2197 -0.3399
 8014SOL    HW124941   2.788   2.244   0.802 -1.0229  0.5771 -1.3502
 8014SOL    HW224942   2.872   2.382   0.777  2.5905 -1.0804  0.8245
 8015SOL     OW24943   0.975   0.385   0.275  0.2941  0.5095 -0.0355
 8015SOL    HW124944   1.068   0.383   0.313  0.4551 -0.2904 -0.4381
 8015SOL    HW224945   0.965   0.311   0.208 -0.4691  0.9238 -0.3966
 8016SOL     OW24946   4.054   5.964   3.290 -0.0050 -0.4580 -0.2016
 8016SOL    HW124947   4.149   5.931   3.296  0.5731  1.0336 -0.7260
 8016SOL    HW224948   4.053   6.056   3.251 -1.6528 -0.3015  0.1384
 8017SOL     OW24949   5.941   3.089   4.896 -0.3845 -0.3450  0.3395
 8017SOL    HW124950   5.936   3.127   4.804  0.0641 -0.8519  0.0994
 8017SOL    HW224951   6.031   3.048   4.911 -0.9142 -1.5183  0.4981
 8018SOL     OW24952   5.176   2.982   2.113 -0.2151 -0.1113  0.1885
 8018SOL    HW124953   5.229   2.941   2.187  0.7855 -1.5127 -1.2411
 8018SOL    HW224954   5.096   3.030   2.151  1.7655  1.6925  2.3723
 8019SOL     OW24955   4.264   5.816   1.657 -0.0507  0.3552 -0.2716
 8019SOL    HW124956   4.296   5.757   1.731 -1.6095 -0.3078 -0.0860
 8019SOL    HW224957   4.300   5.783   1.570  2.4786  1.6242  0.1902
 8020SOL     OW24958   5.226   0.538   5.092 -0.3104 -0.2268 -0.1125
 8020SOL    HW124959   5.248   0.502   5.183 -0.8534 -0.7812 -0.1995
 8020SOL    HW224960   5.142   0.495   5.058  0.1920 -0.4429 -1.1147
 8021SOL     OW24961   6.431   2.151   1.030  0.1178  0.0845  0.6467
 8021SOL    HW124962   6.517   2.102   1.017 -0.2078 -0.3640  0.1508
 8021SOL    HW224963   6.445   2.226   1.094  1.0449  0.4498  0.0293
 8022SOL     OW24964   6.354   5.519   2.026 -0.4277  0.1961  0.3113
 8022SOL    HW124965   6.328   5.422   2.023  1.2283 -0.2604 -1.0571
 8022SOL    HW224966   6.387   5.542   2.118 -0.9529 -0.5079  0.6823
 8023SOL     OW24967   5.364   0.235   2.655 -0.3773 -0.1309 -0.0614
 8023SOL    HW124968   5.303   0.198   2.585  0.9110  0.1964 -1.3970
 8023SOL    HW224969   5.457   0.242   2.618  0.3401  0.0474  1.6920
 8024SOL     OW24970   3.005   5.252   5.260  0.0511 -0.1152 -0.7644
 8024SOL    HW124971   2.971   5.173   5.311  0.8321  0.5741  0.8899
 8024SOL    HW224972   3.050   5.221   5.177  0.9408 -1.4755  0.1927
 8025SOL     OW24973   2.048   0.226   6.628 -0.2894 -0.1171  0.1145
 8025SOL    HW124974   2.094   0.155   6.681 -0.8797  0.3514  1.2739
 8025SOL    HW224975   1.954   0.198   6.609 -0.1638 -0.1623 -0.4576
 8026SOL     OW24976   2.788   2.851   0.044  0.2886 -0.1290 -0.4331
 8026SOL    HW124977   2.790   2.887  -0.049  0.8864 -0.9002 -0.7346
 8026SOL    HW224978   2.717   2.781   0.050 -0.9768  1.1693  0.1903
 8027SOL     OW24979   5.958   3.535   4.608  0.7063 -0.1749  0.3112
 8027SOL    HW124980   5.980   3.518   4.512  0.0084 -1.8107  0.3983
 8027SOL    HW224981   5.889   3.607   4.614  0.5043 -0.2943 -0.4473
 8028SOL     OW24982   6.836   3.394   1.656 -0.3212 -0.1113  0.0797
 8028SOL    HW124983   6.821   3.295   1.659 -1.2816 -0.0366 -1.3131
 8028SOL    HW224984   6.752   3.441   1.683 -1.9817  0.2945 -4.8560
 8029SOL     OW24985   4.007   5.057   6.270  0.3781  0.4270 -0.1165
 8029SOL    HW124986   3.965   5.072   6.181 -0.5750 -0.7059  0.1116
 8029SOL    HW224987   4.105   5.041   6.259  0.1678 -0.3150 -1.0313
 8030SOL     OW24988   6.624   3.521   1.772  0.1668 -0.3488 -0.1969
 8030SOL    HW124989   6.652   3.611   1.807  1.4855 -0.6047 -0.5296
 8030SOL    HW224990   6.572   3.534   1.688  1.0993  0.0956 -0.7252
 8031SOL     OW24991   3.624   6.671   1.360 -0.0780  0.3079 -0.1659
 8031SOL    HW124992   3.583   6.737   1.423  0.5228  0.5727 -0.0419
 8031SOL    HW224993   3.659   6.593   1.412 -0.7273 -0.0796 -0.3060
 8032SOL     OW24994   4.843   3.693   5.706  0.0189 -0.4185 -0.2033
 8032SOL    HW124995   4.831   3.693   5.805  3.3730  0.0258  0.3242
 8032SOL    HW224996   4.923   3.747   5.682 -0.0747 -1.3736 -3.0783
 8033SOL     OW24997   5.304   1.106   1.681  0.5951  0.6693  0.4115
 8033SOL    HW124998   5.332   1.162   1.603  3.1349  0.7118  1.2599
 8033SOL    HW224999   5.283   1.014   1.650  0.6443  0.9317 -0.4276
 8034SOL     OW25000   5.050   1.660   0.120  0.0213 -0.2927 -0.5894
 8034SOL    HW125001   4.988   1.725   0.165 -0.3958 -0.0640 -1.4659
 8034SOL    HW225002   5.015   1.567   0.131  0.9132 -0.4628  1.1530
 8035SOL     OW25003   5.237   4.656   6.067  0.4975  0.0109 -0.4634
 8035SOL    HW125004   5.208   4.683   6.158 -0.1633  0.9435 -0.9449
 8035SOL    HW225005   5.259   4.737   6.013  1.7333 -0.5702 -0.8651
 8036SOL     OW25006   0.582   3.392   4.158 -0.1598 -0.3857 -0.1496
 8036SOL    HW125007   0.510   3.331   4.126  0.4038 -0.1699 -1.9023
 8036SOL    HW225008   0.671   3.357   4.129  0.4828 -0.5853  1.8713
 8037SOL     OW25009   0.045   3.141   1.140 -0.1928 -0.3010  0.2866
 8037SOL    HW125010  -0.032   3.204   1.135  0.2972  0.2336 -0.9322
 8037SOL    HW225011   0.041   3.077   1.063  1.8920  1.3286 -1.3062
 8038SOL     OW25012   5.638   0.750   3.042  0.7345 -0.6112 -0.1597
 8038SOL    HW125013   5.587   0.824   3.087  1.2170 -1.0817  1.2196
 8038SOL    HW225014   5.720   0.789   2.999  0.5018 -0.2139 -0.2548
 8039SOL     OW25015   0.271   6.763   4.607 -0.0578 -0.6494 -0.1715
 8039SOL    HW125016   0.329   6.839   4.638 -0.9028  0.9875 -2.3939
 8039SOL    HW225017   0.326   6.696   4.559  0.5400 -1.0112  0.9760
 8040SOL     OW25018   6.506   6.343   6.292 -0.0598 -0.0289 -0.2029
 8040SOL    HW125019   6.465   6.379   6.208  2.4842  0.8468 -1.1754
 8040SOL    HW225020   6.603   6.367   6.295  0.6435 -2.6367  1.5616
 8041SOL     OW25021   2.814   2.568   6.803 -0.0330 -0.3559 -0.1000
 8041SOL    HW125022   2.802   2.668   6.805 -2.2667 -0.5871  2.6034
 8041SOL    HW225023   2.902   2.547   6.760  0.9451  2.7965  0.0860
 8042SOL     OW25024   1.579   6.318   0.907 -0.4627  0.1057  0.2895
 8042SOL    HW125025   1.662   6.273   0.875  0.4219  2.6213 -1.2046
 8042SOL    HW225026   1.503   6.295   0.846  0.5593  2.5168 -2.0692
 8043SOL     OW25027   2.592   6.606   5.752 -0.0826  0.5712  0.0572
 8043SOL    HW125028   2.555   6.694   5.720  1.2826  1.1951  0.1274
 8043SOL    HW225029   2.691   6.614   5.765  0.0968 -1.0351 -0.0973
 8044SOL     OW25030   1.520   2.035   1.394 -0.1541  0.6171  0.2934
 8044SOL    HW125031   1.612   2.064   1.421  0.4337 -0.4825 -0.4593
 8044SOL    HW225032   1.498   2.074   1.304  0.0998 -0.1435 -0.1069
 8045SOL     OW25033   5.352   3.813   3.439 -0.5362  0.1330  0.6061
 8045SOL    HW125034   5.368   3.721   3.476  1.2150 -0.6441 -1.7719
 8045SOL    HW225035   5.414   3.878   3.483  0.3867 -0.4635  0.2357
 8046SOL     OW25036   6.116   6.294   3.115 -0.3651  0.1236 -0.3829
 8046SOL    HW125037   6.021   6.277   3.089 -0.1542  0.0217 -1.0939
 8046SOL    HW225038   6.120   6.371   3.179 -1.0542 -0.7058  0.6996
 8047SOL     OW25039   4.027   1.601   4.259 -0.3000  0.7391  0.1179
 8047SOL    HW125040   3.937   1.561   4.274  0.5541 -0.9995  1.0347
 8047SOL    HW225041   4.091   1.529   4.229  0.9855  1.7238  0.3776
 8048SOL     OW25042   5.861   1.716   6.523  0.2523  0.2309 -0.2937
 8048SOL    HW125043   5.773   1.741   6.484 -0.6099 -0.4549  1.1184
 8048SOL    HW225044   5.846   1.662   6.606  2.0095 -0.3628 -0.3225
 8049SOL     OW25045   2.223   5.930   1.326  0.6426 -0.2041  0.7774
 8049SOL    HW125046   2.134   5.919   1.282  0.6403 -0.5579  0.8637
 8049SOL    HW225047   2.255   6.024   1.316  0.7837 -0.3486 -0.2479
 8050SOL     OW25048   0.831   3.757   0.016  0.6595 -0.3585 -0.2508
 8050SOL    HW125049   0.766   3.780  -0.056  0.4183 -1.7816 -0.5364
 8050SOL    HW225050   0.878   3.839   0.047 -0.1534  0.4658 -1.1290
 8051SOL     OW25051   2.898   3.163   5.258  0.6726 -0.5289  0.0715
 8051SOL    HW125052   2.833   3.087   5.268  2.2707 -1.7669  1.7297
 8051SOL    HW225053   2.916   3.180   5.161 -0.9233 -1.1866 -0.3634
 8052SOL     OW25054   4.559   1.069   3.132 -0.0467 -0.3675 -0.4043
 8052SOL    HW125055   4.603   1.128   3.200 -1.7165 -0.9032  1.2303
 8052SOL    HW225056   4.552   1.118   3.046  1.3789  0.6547  0.0205
 8053SOL     OW25057   5.044   3.786   1.905  0.0435 -0.3760 -0.3029
 8053SOL    HW125058   4.960   3.817   1.861  0.8559  0.4535 -1.3048
 8053SOL    HW225059   5.123   3.828   1.861  1.0430 -1.6875  0.1529
 8054SOL     OW25060   3.962   1.066   3.417 -0.4463  0.0111 -0.3026
 8054SOL    HW125061   3.997   0.990   3.471 -1.6083 -0.3228  0.0209
 8054SOL    HW225062   4.038   1.122   3.384  0.3846 -0.8781  0.0560
 8055SOL     OW25063   2.799   0.391   5.057 -0.3348 -0.4970  0.9197
 8055SOL    HW125064   2.811   0.490   5.049 -2.2703 -0.3190 -0.5048
 8055SOL    HW225065   2.779   0.353   4.966  1.9447 -2.4675  1.1518
 8056SOL     OW25066   4.729   2.504   5.111 -0.5397 -0.1561  0.0313
 8056SOL    HW125067   4.645   2.554   5.088 -1.0131 -1.2987 -0.8312
 8056SOL    HW225068   4.776   2.480   5.026 -0.5316 -1.4971  0.4043
 8057SOL     OW25069   3.680   1.053   3.633 -0.1344  0.0381 -0.0846
 8057SOL    HW125070   3.641   1.014   3.549 -1.4321 -2.7417  1.6528
 8057SOL    HW225071   3.607   1.091   3.690  0.2892 -0.8230  1.0714
 8058SOL     OW25072   0.996   6.459   2.429  0.1857  0.2113 -0.3947
 8058SOL    HW125073   1.003   6.365   2.396 -1.2287  0.7555 -2.4807
 8058SOL    HW225074   0.946   6.461   2.516 -0.0238 -0.9516 -0.4786
 8059SOL     OW25075   1.834   2.014   2.942 -0.7335  0.2485  0.1968
 8059SOL    HW125076   1.932   2.028   2.953 -0.9871  2.4488  0.2162
 8059SOL    HW225077   1.802   2.065   2.862 -1.9202 -0.1782  0.3722
 8060SOL     OW25078   0.675   2.124   5.489 -0.6662  0.1812  0.0554
 8060SOL    HW125079   0.679   2.148   5.586  0.3353 -0.0334  0.0773
 8060SOL    HW225080   0.599   2.172   5.446  0.8868  2.9703  0.2018
 8061SOL     OW25081   6.470   2.749   3.107  0.1155  0.4283  0.3578
 8061SOL    HW125082   6.406   2.822   3.134  0.6565  1.0952 -0.1134
 8061SOL    HW225083   6.539   2.737   3.178 -1.2322 -1.1806  1.4685
 8062SOL     OW25084   2.210   1.698   1.637 -0.0709 -0.1209  0.2819
 8062SOL    HW125085   2.245   1.621   1.690 -0.6575 -1.4055 -1.1491
 8062SOL    HW225086   2.115   1.715   1.661 -0.1573 -0.3180  0.0837
 8063SOL     OW25087   1.884   2.065   6.242 -0.2627  0.1848  0.3869
 8063SOL    HW125088   1.962   2.009   6.217 -0.5417  0.2062 -0.5481
 8063SOL    HW225089   1.901   2.107   6.332  0.4256 -0.4807  0.5744
 8064SOL     OW25090   5.518   2.468   4.898 -0.2905  0.0743 -0.2812
 8064SOL    HW125091   5.548   2.484   4.804 -2.1200  0.4368 -0.8407
 8064SOL    HW225092   5.598   2.453   4.957  0.8507 -0.9848 -2.0224
 8065SOL     OW25093   3.399   6.871   4.752 -0.4389 -0.4054  0.3208
 8065SOL    HW125094   3.311   6.831   4.775 -1.2973  1.4389  0.4214
 8065SOL    HW225095   3.473   6.812   4.786 -1.6077 -1.7993  0.5293
 8066SOL     OW25096   0.776   1.308   2.006  0.1080 -0.7085 -0.1450
 8066SOL    HW125097   0.698   1.329   1.946  0.9169  0.7262 -0.7467
 8066SOL    HW225098   0.765   1.357   2.093 -0.5315 -1.9454  0.5025
 8067SOL     OW25099   4.966   0.985   3.900 -0.3021  0.3240 -0.4192
 8067SOL    HW125100   4.903   0.964   3.974  1.8870 -3.1261  0.7110
 8067SOL    HW225101   4.941   0.933   3.819 -0.7277  1.5156 -1.0924
 8068SOL     OW25102   5.355   4.572   3.339  0.1541 -0.0564  0.5306
 8068SOL    HW125103   5.401   4.535   3.420 -0.5172 -1.6392  0.2219
 8068SOL    HW225104   5.410   4.552   3.258 -0.0434 -0.0705  0.4001
 8069SOL     OW25105   4.961   4.475   4.019  0.2861  0.0730  0.6813
 8069SOL    HW125106   4.956   4.452   4.116  0.0599 -0.0658  0.6369
 8069SOL    HW225107   4.898   4.416   3.967  2.3562 -1.7930  0.1061
 8070SOL     OW25108   4.897   1.137   3.541 -0.1969  0.2056 -0.1012
 8070SOL    HW125109   4.832   1.083   3.595 -1.2052  2.3282  0.9305
 8070SOL    HW225110   4.985   1.140   3.587 -1.4207  3.1987  2.4757
 8071SOL     OW25111   6.962   5.497   4.487  0.2340 -0.2699 -0.5284
 8071SOL    HW125112   6.912   5.496   4.401  0.9333 -0.8850 -0.9427
 8071SOL    HW225113   6.915   5.440   4.554 -1.5382  1.9693  0.2556
 8072SOL     OW25114   3.623   5.885   0.981 -0.5981  0.1998  0.2419
 8072SOL    HW125115   3.607   5.937   0.897  2.0325 -0.4721 -0.7806
 8072SOL    HW225116   3.551   5.818   0.993 -0.4840 -0.4356 -2.1207
 8073SOL     OW25117   4.716   0.166   4.744  0.8229 -0.1891 -0.4523
 8073SOL    HW125118   4.737   0.081   4.697  0.4984  0.5636 -2.0176
 8073SOL    HW225119   4.801   0.214   4.766  0.9823 -0.5996 -0.1736
 8074SOL     OW25120   1.743   5.405   1.414  0.3637 -0.4532  0.8127
 8074SOL    HW125121   1.733   5.438   1.508 -0.8042  0.2798  0.4562
 8074SOL    HW225122   1.697   5.469   1.352 -2.2692 -2.8117  0.1016
 8075SOL     OW25123   7.019   6.467   3.461 -0.2079 -0.4990 -0.1752
 8075SOL    HW125124   7.063   6.377   3.465 -0.4064 -0.6134 -0.4981
 8075SOL    HW225125   7.058   6.527   3.531  1.0586 -0.3302 -0.9882
 8076SOL     OW25126   4.486   1.475   5.834 -0.3550  0.2811 -1.1393
 8076SOL    HW125127   4.569   1.465   5.889 -0.4802  2.0585 -0.5313
 8076SOL    HW225128   4.479   1.570   5.802 -2.4628  0.3713 -0.5952
 8077SOL     OW25129   1.656   0.041   6.133 -0.0479 -0.5941 -0.2087
 8077SOL    HW125130   1.688  -0.016   6.208 -0.8916 -1.8428 -0.7698
 8077SOL    HW225131   1.573   0.090   6.161  0.5931  0.2696  0.2222
 8078SOL     OW25132   6.908   4.385   1.799  0.5174  0.2418  0.2385
 8078SOL    HW125133   6.887   4.373   1.702 -1.2527  3.0706  0.1448
 8078SOL    HW225134   6.831   4.429   1.845  1.1597 -1.3484  3.0621
 8079SOL     OW25135   1.504   4.615   6.166  0.9293 -0.0127  0.3178
 8079SOL    HW125136   1.584   4.672   6.147  0.9807 -0.7909 -2.1247
 8079SOL    HW225137   1.508   4.533   6.110  0.1910 -1.8541  2.7851
 8080SOL     OW25138   3.901   5.887   6.216 -0.2786 -0.1244 -0.2927
 8080SOL    HW125139   3.815   5.842   6.242 -0.1474 -0.9365 -1.2230
 8080SOL    HW225140   3.914   5.881   6.117  0.1193  1.3354 -0.3564
 8081SOL     OW25141   4.100   1.838   4.419  1.2030  0.4842 -0.6270
 8081SOL    HW125142   4.089   1.776   4.341 -3.4141 -0.2578  0.3015
 8081SOL    HW225143   4.039   1.917   4.408  0.9767  0.7359  1.8178
 8082SOL     OW25144   0.265   3.690   6.127  0.3141  0.4302  0.2237
 8082SOL    HW125145   0.204   3.712   6.204 -0.4931  1.6028 -0.7030
 8082SOL    HW225146   0.242   3.599   6.093 -2.4507  1.5948 -1.3993
 8083SOL     OW25147   6.226   0.999   5.975 -0.2471 -0.4156 -0.5001
 8083SOL    HW125148   6.298   1.033   6.035  0.7912 -2.6260 -0.3895
 8083SOL    HW225149   6.152   1.065   5.971  0.3642  0.5249  1.9316
 8084SOL     OW25150   6.838   0.318   6.289  0.1313  0.0713  0.0987
 8084SOL    HW125151   6.886   0.368   6.361 -2.0115  1.4344  0.6824
 8084SOL    HW225152   6.830   0.376   6.208  1.8182 -1.1627 -1.0150
 8085SOL     OW25153   4.677   2.414   0.935  0.3150 -0.6284 -0.2897
 8085SOL    HW125154   4.666   2.502   0.888  1.7079 -0.4404 -0.2940
 8085SOL    HW225155   4.588   2.369   0.942 -0.3689  0.6314 -0.5709
 8086SOL     OW25156   5.177   5.374   1.021  0.1294  0.0960 -0.5902
 8086SOL    HW125157   5.260   5.386   1.076 -0.2557  0.9024 -0.1704
 8086SOL    HW225158   5.203   5.346   0.928  0.9740  1.7012 -0.8806
 8087SOL     OW25159   1.839   3.637   1.804  0.7377  0.2032  0.5620
 8087SOL    HW125160   1.792   3.552   1.779 -0.2235  0.3313  1.8343
 8087SOL    HW225161   1.772   3.705   1.834  1.5290  1.2928 -0.0557
 8088SOL     OW25162   4.596   0.314   2.464  0.4285 -0.1176  0.0375
 8088SOL    HW125163   4.648   0.365   2.396  1.5093 -2.3537 -0.9195
 8088SOL    HW225164   4.648   0.308   2.549 -1.2133  3.2679  1.4438
 8089SOL     OW25165   4.919   1.582   0.889 -0.1481 -0.1321  0.1078
 8089SOL    HW125166   4.850   1.549   0.824 -1.0620  0.0463  0.9670
 8089SOL    HW225167   5.011   1.566   0.851 -0.6536 -0.1330 -1.1678
 8090SOL     OW25168   5.779   0.076   4.453 -0.1835  0.1520  0.0889
 8090SOL    HW125169   5.793   0.155   4.394 -1.4818  0.7739  0.5652
 8090SOL    HW225170   5.750   0.107   4.544 -1.4997 -0.8701  0.0491
 8091SOL     OW25171   1.431   4.794   4.872  0.4563  0.7011 -0.2961
 8091SOL    HW125172   1.365   4.810   4.798 -0.8340  0.2793  0.7351
 8091SOL    HW225173   1.474   4.705   4.858  0.0876  0.5426 -0.4386
 8092SOL     OW25174   4.950   1.768   4.352  0.9461 -0.4813  0.0508
 8092SOL    HW125175   4.969   1.700   4.280  2.6900  0.5468 -0.5300
 8092SOL    HW225176   5.025   1.767   4.418  0.2930 -0.0744  0.8116
 8093SOL     OW25177   5.825   3.964   6.792 -0.2261 -0.2211  0.0152
 8093SOL    HW125178   5.806   3.871   6.824 -0.6506  0.0792  0.6561
 8093SOL    HW225179   5.847   4.022   6.871 -1.1583  0.5034 -0.2434
 8094SOL     OW25180   0.573   1.828   4.808  0.2754  0.4682  0.1449
 8094SOL    HW125181   0.486   1.779   4.813  0.3402  0.3845  0.4292
 8094SOL    HW225182   0.609   1.823   4.714 -0.4620  1.2546 -0.1922
 8095SOL     OW25183   5.583   4.226   5.480  0.3233 -0.6923 -0.4523
 8095SOL    HW125184   5.491   4.264   5.470 -0.1296 -1.4743  0.6004
 8095SOL    HW225185   5.601   4.163   5.405 -1.3467 -3.1442  1.0679
 8096SOL     OW25186   4.657   6.645   1.669  0.0019 -0.5236  0.0309
 8096SOL    HW125187   4.702   6.641   1.758  1.5890  1.7591 -0.5801
 8096SOL    HW225188   4.713   6.598   1.601 -0.2860 -0.6555 -0.1179
 8097SOL     OW25189   3.932   1.412   5.102 -0.1409  0.3408 -0.4178
 8097SOL    HW125190   3.886   1.452   5.181 -2.3987 -1.0975 -0.8870
 8097SOL    HW225191   3.937   1.480   5.029  2.2285  1.7727  0.9670
 8098SOL     OW25192   2.623   1.559   4.342 -0.2596  0.6880  0.3388
 8098SOL    HW125193   2.621   1.561   4.442 -0.0827  1.3047  0.3395
 8098SOL    HW225194   2.616   1.653   4.308  4.3874  1.1172 -0.0862
 8099SOL     OW25195   2.737   6.078   4.534  0.3876 -0.5606  0.0594
 8099SOL    HW125196   2.684   6.018   4.593  0.5205  0.5415  1.3353
 8099SOL    HW225197   2.769   6.026   4.455  0.2481 -2.0807  0.9585
 8100SOL     OW25198   5.770   5.830   1.625 -0.0451  0.3855 -0.4997
 8100SOL    HW125199   5.707   5.907   1.610  0.2446  0.5158 -1.0550
 8100SOL    HW225200   5.863   5.860   1.606  0.2555  0.3366  0.8153
 8101SOL     OW25201   2.073   3.301   2.670  0.4053 -0.1706  0.5660
 8101SOL    HW125202   1.973   3.303   2.682  0.0901 -1.6348 -1.2148
 8101SOL    HW225203   2.099   3.369   2.601  0.7026  0.4736  1.3054
 8102SOL     OW25204   5.416   5.347   4.894  0.6999 -1.1705  0.4117
 8102SOL    HW125205   5.406   5.431   4.841  1.4801 -0.5832  1.1643
 8102SOL    HW225206   5.375   5.271   4.844 -0.3584 -0.2850 -0.1153
 8103SOL     OW25207   2.769   2.385   4.404  0.2736  0.1721  0.2942
 8103SOL    HW125208   2.845   2.320   4.409  0.2217  0.1073  0.2391
 8103SOL    HW225209   2.751   2.408   4.308  1.4507  1.6319  0.3930
 8104SOL     OW25210   2.660   1.334   0.174  0.4062  0.1709  0.0257
 8104SOL    HW125211   2.598   1.409   0.195 -1.0220 -0.9366 -0.0749
 8104SOL    HW225212   2.612   1.264   0.121  2.0283 -0.2768 -0.9392
 8105SOL     OW25213   0.606   2.128   3.140  0.2155  0.4809  0.4670
 8105SOL    HW125214   0.524   2.184   3.133  0.4692  0.7751 -0.2265
 8105SOL    HW225215   0.684   2.187   3.163  0.4087  0.3439  0.1555
 8106SOL     OW25216   2.409   3.253   1.565  0.5113  0.1022 -0.1451
 8106SOL    HW125217   2.390   3.344   1.603  1.2426 -0.3186  1.3095
 8106SOL    HW225218   2.367   3.183   1.624  0.7423 -0.5383 -0.7313
 8107SOL     OW25219   0.406   5.637   6.458  0.3841 -0.3513  0.0110
 8107SOL    HW125220   0.435   5.577   6.533 -0.7959 -1.9913 -0.7577
 8107SOL    HW225221   0.315   5.609   6.427 -1.6144  3.7138  1.4994
 8108SOL     OW25222   1.724   1.232   0.493 -0.4203  0.4416 -0.4960
 8108SOL    HW125223   1.712   1.161   0.563 -0.0189  0.8038 -0.0526
 8108SOL    HW225224   1.646   1.294   0.495 -1.0496 -0.3023 -1.2678
 8109SOL     OW25225   0.661   4.994   4.336  0.0059 -0.0327 -0.9746
 8109SOL    HW125226   0.611   5.072   4.374 -0.0042  0.0769 -1.2096
 8109SOL    HW225227   0.699   5.019   4.247  1.7065  0.3683 -0.1891
 8110SOL     OW25228   0.178   3.101   2.671 -0.4418  0.2466  1.0262
 8110SOL    HW125229   0.230   3.186   2.665 -1.7771  1.0231 -0.4285
 8110SOL    HW225230   0.176   3.057   2.581  0.3922 -1.4607  1.8073
 8111SOL     OW25231   2.403   6.587   4.049 -0.9719  0.4507  0.0440
 8111SOL    HW125232   2.475   6.525   4.078 -0.2024  1.6872  0.8800
 8111SOL    HW225233   2.322   6.573   4.106 -1.2463 -0.6054 -0.5788
 8112SOL     OW25234   2.783   1.402   5.473 -0.4167  0.2147 -0.2054
 8112SOL    HW125235   2.718   1.360   5.536  1.1524 -0.4122  1.0597
 8112SOL    HW225236   2.871   1.413   5.518  0.1504  1.8203 -1.6059
 8113SOL     OW25237   4.212   1.027   6.794 -0.1426 -0.3443  0.2825
 8113SOL    HW125238   4.166   1.117   6.798 -1.8635 -1.1040 -0.9483
 8113SOL    HW225239   4.198   0.987   6.704  4.0172 -0.1958 -0.6116
 8114SOL     OW25240   3.193   1.292   0.724  0.2569 -0.4307 -0.2559
 8114SOL    HW125241   3.277   1.262   0.770  0.7385 -1.3661 -1.6869
 8114SOL    HW225242   3.173   1.231   0.649 -1.8624 -0.3389  0.1891
 8115SOL     OW25243   4.245   1.167   1.149 -0.1862  0.4380  0.7204
 8115SOL    HW125244   4.288   1.222   1.078 -1.6135  0.9524  0.2187
 8115SOL    HW225245   4.147   1.156   1.128 -0.0001 -2.1012  0.9219
 8116SOL     OW25246   4.600   0.649   0.240  0.4416 -0.0209  0.3213
 8116SOL    HW125247   4.609   0.674   0.143 -0.6120 -0.1257  0.1812
 8116SOL    HW225248   4.612   0.551   0.250  0.5876 -0.0050  0.2976
 8117SOL     OW25249   4.617   3.538   5.620  0.0322  0.3516 -0.1086
 8117SOL    HW125250   4.672   3.614   5.655  2.4662 -1.2385 -0.2298
 8117SOL    HW225251   4.602   3.471   5.693  3.1170 -1.8444 -1.2375
 8118SOL     OW25252   1.516   2.239   5.335 -0.3682 -0.2486  0.4731
 8118SOL    HW125253   1.529   2.188   5.250 -1.5439 -1.0467  0.7503
 8118SOL    HW225254   1.590   2.217   5.399 -0.9573 -1.7772  0.6568
 8119SOL     OW25255   0.866   6.750   2.571  0.1316  0.2064  0.0249
 8119SOL    HW125256   0.956   6.764   2.612  1.0220  0.1014 -1.7698
 8119SOL    HW225257   0.837   6.655   2.585  0.6266  0.0480  0.0013
 8120SOL     OW25258   5.291   4.941   1.056 -0.1107  0.5127  0.0662
 8120SOL    HW125259   5.272   4.919   1.152  0.3978  0.3205  0.1257
 8120SOL    HW225260   5.206   4.940   1.004 -0.1350 -1.6411  0.0527
 8121SOL     OW25261   6.538   0.960   2.939  0.5012  0.7295  0.0702
 8121SOL    HW125262   6.463   0.893   2.935  0.3905  0.7474  1.4237
 8121SOL    HW225263   6.547   0.993   3.032  1.3731  1.6939 -0.3490
 8122SOL     OW25264   6.874   4.391   2.304 -0.1036  0.1018  0.7245
 8122SOL    HW125265   6.962   4.350   2.278 -1.5653 -2.2250 -0.9063
 8122SOL    HW225266   6.860   4.475   2.251  0.0459 -0.8949 -0.9764
 8123SOL     OW25267   2.343   5.504   0.630  0.0834 -0.2368  0.1172
 8123SOL    HW125268   2.353   5.406   0.644  1.1164 -0.3146 -0.9889
 8123SOL    HW225269   2.271   5.539   0.690 -1.7275 -2.0077 -0.8970
 8124SOL     OW25270   6.235   5.867   1.446  0.2631 -1.0869 -0.2135
 8124SOL    HW125271   6.136   5.868   1.460  0.6047 -0.0958  3.3187
 8124SOL    HW225272   6.265   5.773   1.427 -1.1659 -1.8459  1.0010
 8125SOL     OW25273   4.610   5.033   3.152 -0.1409 -1.0175  0.2945
 8125SOL    HW125274   4.518   5.071   3.150 -0.3729 -1.5371 -2.2434
 8125SOL    HW225275   4.671   5.096   3.202 -2.0176 -1.2421  3.0899
 8126SOL     OW25276   6.716   4.092   1.646 -0.2612  0.0189  0.5398
 8126SOL    HW125277   6.662   4.137   1.718 -2.5096 -1.8430  0.1206
 8126SOL    HW225278   6.711   4.146   1.562 -2.5677 -0.6956  0.1628
 8127SOL     OW25279   4.929   4.139   0.155  0.3869 -0.2282 -0.5023
 8127SOL    HW125280   4.981   4.197   0.093 -0.4882  1.3729  0.2030
 8127SOL    HW225281   4.985   4.116   0.234  1.0672 -1.1954 -1.2449
 8128SOL     OW25282   4.408   3.166   6.015  0.0690 -0.0077 -0.0299
 8128SOL    HW125283   4.395   3.177   5.917  2.1864 -1.1734 -0.5116
 8128SOL    HW225284   4.469   3.089   6.032 -1.4124 -0.7518  2.3056
 8129SOL     OW25285   5.120   4.751   0.364 -0.3931  0.5508 -0.5193
 8129SOL    HW125286   5.208   4.797   0.361  1.7845 -2.8415  2.5385
 8129SOL    HW225287   5.099   4.725   0.459 -4.3908  0.5667 -1.2226
 8130SOL     OW25288   1.829   0.693   6.013 -0.6811  0.2784 -0.0886
 8130SOL    HW125289   1.760   0.746   5.964 -2.4875 -1.9109 -0.1424
 8130SOL    HW225290   1.835   0.601   5.972  0.2864 -0.4680  1.6187
 8131SOL     OW25291   1.195   1.974   1.694 -0.3850  0.0050 -0.5155
 8131SOL    HW125292   1.245   2.055   1.662  0.4368 -0.2553  0.0641
 8131SOL    HW225293   1.209   1.899   1.629  2.6826 -1.0400  1.1381
 8132SOL     OW25294   5.256   4.645   2.965  0.6480 -0.6594  0.2266
 8132SOL    HW125295   5.254   4.584   2.886  2.2499 -0.2728 -0.1606
 8132SOL    HW225296   5.209   4.730   2.943  0.4054 -0.8624 -0.0390
 8133SOL     OW25297   0.849   4.488   1.385  0.1014  0.0931  0.0102
 8133SOL    HW125298   0.828   4.429   1.463 -0.8581  0.2952 -0.0839
 8133SOL    HW225299   0.858   4.432   1.303 -1.7227  0.1164 -0.2558
 8134SOL     OW25300   2.870   3.747   1.329  0.0535  0.0359  0.2916
 8134SOL    HW125301   2.910   3.816   1.388  0.9436 -0.3800  0.1951
 8134SOL    HW225302   2.924   3.663   1.334 -1.5568 -0.9965  1.1562
 8135SOL     OW25303   6.083   6.710   2.773  0.4297 -0.0607  0.4261
 8135SOL    HW125304   6.114   6.778   2.707 -0.7065  1.2393  1.1936
 8135SOL    HW225305   6.150   6.702   2.846  0.5488  0.2653  0.3529
 8136SOL     OW25306   2.251   4.860   1.975  0.3651 -0.3061 -0.4831
 8136SOL    HW125307   2.249   4.764   1.946  1.4791  0.1107 -2.0086
 8136SOL    HW225308   2.263   4.863   2.075  0.2753 -1.7431 -0.3966
 8137SOL     OW25309   3.922   4.619   0.170  0.5791  0.1152  0.0469
 8137SOL    HW125310   3.978   4.690   0.127  0.1306  1.5603  1.6869
 8137SOL    HW225311   3.922   4.634   0.269 -1.4391 -0.7772  0.2207
 8138SOL     OW25312   2.687   5.140   3.197  0.4455 -0.0890 -0.4528
 8138SOL    HW125313   2.704   5.133   3.098  2.0368  1.0691 -0.2871
 8138SOL    HW225314   2.730   5.063   3.243  0.5965 -0.0651 -0.5532
 8139SOL     OW25315   0.815   1.898   6.473  0.1064 -0.1371  0.1353
 8139SOL    HW125316   0.855   1.970   6.530 -1.7173  2.6283 -1.8258
 8139SOL    HW225317   0.718   1.919   6.456 -0.3629 -2.8054 -1.0033
 8140SOL     OW25318   5.847   0.208   3.901  0.5766 -0.1237  0.1161
 8140SOL    HW125319   5.931   0.170   3.862  0.5401  0.3434 -0.4300
 8140SOL    HW225320   5.865   0.301   3.935  1.0953 -1.1461  2.9551
 8141SOL     OW25321   6.001   2.021   5.948 -0.2841  0.1214 -0.2474
 8141SOL    HW125322   5.922   2.066   5.907 -0.5515 -1.2936 -1.3808
 8141SOL    HW225323   5.972   1.934   5.989 -0.0517  1.5060  3.1460
 8142SOL     OW25324   4.404   4.540   0.122 -0.3380  0.2815  1.0398
 8142SOL    HW125325   4.377   4.467   0.059  0.6284 -1.4981  2.5933
 8142SOL    HW225326   4.384   4.512   0.216  0.5697  1.7937  1.7159
 8143SOL     OW25327   6.176   6.874   0.324 -0.1010  0.3998  0.0071
 8143SOL    HW125328   6.091   6.830   0.353 -0.1561 -0.1508 -0.9654
 8143SOL    HW225329   6.245   6.862   0.395 -0.5767  0.0994  0.4266
 8144SOL     OW25330   2.070   6.715   1.254 -0.1609 -0.2418  0.0745
 8144SOL    HW125331   2.151   6.676   1.299 -0.8179 -1.0686  0.5785
 8144SOL    HW225332   2.074   6.696   1.156 -0.0245 -0.7944  0.1832
 8145SOL     OW25333   4.465   4.526   5.435 -0.5381 -0.0227 -0.1487
 8145SOL    HW125334   4.458   4.558   5.341 -1.7974  0.3341  0.0442
 8145SOL    HW225335   4.416   4.589   5.495  1.6948  0.7115  1.0020
 8146SOL     OW25336   6.975   0.474   5.247 -0.7028 -0.4680  0.4561
 8146SOL    HW125337   7.025   0.412   5.307 -0.7807 -2.5392 -1.4774
 8146SOL    HW225338   7.038   0.516   5.182 -0.9552 -0.1299  0.4256
 8147SOL     OW25339   0.239   5.935   5.133  0.4321  0.1784 -0.0184
 8147SOL    HW125340   0.216   6.033   5.130  0.9749  0.3243  0.3349
 8147SOL    HW225341   0.228   5.902   5.226 -0.6621 -0.3347 -0.3168
 8148SOL     OW25342   5.305   5.165   5.759 -0.5273  0.8970 -0.3729
 8148SOL    HW125343   5.332   5.241   5.818  2.0668  0.3609 -0.7477
 8148SOL    HW225344   5.359   5.167   5.675  1.1750 -2.4888  0.4681
 8149SOL     OW25345   0.778   5.651   5.465  0.8483  0.1843 -0.2830
 8149SOL    HW125346   0.839   5.603   5.528 -1.9570 -2.5819  0.5366
 8149SOL    HW225347   0.775   5.603   5.378  0.8488  1.1060 -0.8084
 8150SOL     OW25348   1.439   6.532   1.163  0.3944  0.2541 -0.1255
 8150SOL    HW125349   1.370   6.460   1.167  1.3607 -0.7376 -0.6055
 8150SOL    HW225350   1.424   6.596   1.238  0.7144 -1.6070  1.6333
 8151SOL     OW25351   0.520   3.102   0.744 -0.5935  0.0463  0.1798
 8151SOL    HW125352   0.553   3.086   0.650  0.2625  4.4214 -0.5131
 8151SOL    HW225353   0.581   3.056   0.809  0.7115 -0.5010 -1.3598
 8152SOL     OW25354   5.421   0.434   4.897  0.3529  0.0517  0.0534
 8152SOL    HW125355   5.353   0.450   4.969  1.6420  2.2732  0.8725
 8152SOL    HW225356   5.375   0.407   4.813 -1.6147  1.8408  0.4666
 8153SOL     OW25357   0.420   1.077   0.753  0.1663  0.8204 -0.1859
 8153SOL    HW125358   0.514   1.062   0.720  0.6259  0.9321  0.9989
 8153SOL    HW225359   0.419   1.071   0.853 -1.2322  0.1218 -0.2257
 8154SOL     OW25360   6.894   0.230   3.444  0.3212 -0.2579  0.4944
 8154SOL    HW125361   6.821   0.182   3.493 -0.0740  1.6272  1.8709
 8154SOL    HW225362   6.962   0.263   3.510  0.4292  1.2838 -0.3476
 8155SOL     OW25363   2.515   4.698   5.512  0.3379 -0.1192 -0.2633
 8155SOL    HW125364   2.450   4.631   5.476  1.0992 -0.8112 -0.3677
 8155SOL    HW225365   2.570   4.736   5.438 -1.9893  2.8055 -0.6811
 8156SOL     OW25366   2.237   2.105   0.335  0.0100 -0.3267  0.0785
 8156SOL    HW125367   2.206   2.152   0.252  0.4579  2.5380  1.3943
 8156SOL    HW225368   2.159   2.093   0.396  0.4830  3.0593  1.6189
 8157SOL     OW25369   0.103   4.924   4.915 -0.2903  0.2157  0.0945
 8157SOL    HW125370   0.170   4.856   4.943 -0.6640 -0.2544 -0.1566
 8157SOL    HW225371   0.150   5.011   4.896  0.2552 -0.1368 -0.1768
 8158SOL     OW25372   1.789   5.060   6.180 -0.1844  0.1363  0.2482
 8158SOL    HW125373   1.767   5.157   6.171  0.2420  0.0222 -3.1815
 8158SOL    HW225374   1.887   5.046   6.166 -0.4297 -0.9035 -0.5218
 8159SOL     OW25375   1.436   6.257   5.220  0.3549 -0.3711 -0.4295
 8159SOL    HW125376   1.374   6.215   5.154  0.9389 -1.1214 -0.5182
 8159SOL    HW225377   1.502   6.315   5.171 -0.5382  0.8142 -0.2956
 8160SOL     OW25378   4.991   4.188   3.981 -0.2316 -0.1697  0.2383
 8160SOL    HW125379   4.935   4.195   3.898  2.7365  0.3629 -1.8770
 8160SOL    HW225380   5.028   4.278   4.004  0.1337 -0.5780  1.2958
 8161SOL     OW25381   0.115   2.198   1.879 -0.1692 -0.0273  0.0994
 8161SOL    HW125382   0.132   2.109   1.922  0.8478 -0.6244 -1.4797
 8161SOL    HW225383   0.202   2.241   1.857 -0.6758  0.6452 -0.6149
 8162SOL     OW25384   6.518   4.465   5.069  0.2493 -0.1061  0.0676
 8162SOL    HW125385   6.509   4.457   5.168  0.7867  2.8199  0.4584
 8162SOL    HW225386   6.612   4.488   5.045  0.0279 -0.3116 -1.1034
 8163SOL     OW25387   2.620   6.205   6.194  0.0831  0.2941 -0.0357
 8163SOL    HW125388   2.715   6.199   6.226  0.5860  0.4960 -1.4394
 8163SOL    HW225389   2.602   6.131   6.129 -0.8520  0.0255  0.5085
 8164SOL     OW25390   5.820   0.783   2.231 -0.1797  0.1914  0.0293
 8164SOL    HW125391   5.807   0.744   2.322  1.0766 -0.8059 -0.1763
 8164SOL    HW225392   5.802   0.713   2.162  1.0042  0.2675 -0.3930
 8165SOL     OW25393   1.387   2.933   6.049 -0.5228 -0.1659  0.2324
 8165SOL    HW125394   1.371   2.834   6.043  0.1626 -0.2729  0.0516
 8165SOL    HW225395   1.483   2.952   6.029 -0.5925  0.5156  0.5328
 8166SOL     OW25396   3.481   1.057   2.836 -0.1590  0.1666  0.2452
 8166SOL    HW125397   3.560   1.103   2.878  0.0315  0.8455 -0.8331
 8166SOL    HW225398   3.507   1.022   2.746 -1.4517  1.6304 -0.7398
 8167SOL     OW25399   1.244   1.958   2.490 -0.2881 -0.4557 -0.1570
 8167SOL    HW125400   1.179   2.031   2.514 -2.1740 -2.4804  1.3537
 8167SOL    HW225401   1.199   1.893   2.429  0.6117 -1.4891  0.2666
 8168SOL     OW25402   1.394   4.400   2.820  0.5012 -0.1883  0.2498
 8168SOL    HW125403   1.459   4.437   2.886  1.2227 -0.4377 -0.3080
 8168SOL    HW225404   1.382   4.465   2.745  0.2266 -0.2160  0.2663
 8169SOL     OW25405   6.746   4.205   5.483 -0.1792  0.1584 -0.4357
 8169SOL    HW125406   6.684   4.127   5.468 -0.6419  0.7623 -1.8657
 8169SOL    HW225407   6.748   4.228   5.580 -0.3709 -1.3591 -0.0486
 8170SOL     OW25408   0.007   4.966   2.573  0.3681  0.1337 -0.9497
 8170SOL    HW125409  -0.039   4.887   2.613  0.0475  1.0204  0.4919
 8170SOL    HW225410   0.075   5.002   2.637  0.2391  1.2543 -1.4051
 8171SOL     OW25411   6.954   1.804   2.790 -0.1373 -0.7605  0.2586
 8171SOL    HW125412   6.899   1.758   2.860  0.6011 -0.2252  1.2238
 8171SOL    HW225413   7.049   1.775   2.798  0.1247  0.0242  0.1106
 8172SOL     OW25414   0.344   5.012   0.902 -0.3583 -1.0855  0.3216
 8172SOL    HW125415   0.415   5.079   0.924  0.9674 -2.3765  0.1119
 8172SOL    HW225416   0.256   5.059   0.895  0.3526  0.4671  1.1784
 8173SOL     OW25417   6.688   6.804   1.211 -0.5402 -0.4330 -0.1733
 8173SOL    HW125418   6.706   6.902   1.199  0.3902 -0.4963  0.6164
 8173SOL    HW225419   6.689   6.760   1.121 -1.6037  0.3699 -0.6038
 8174SOL     OW25420   2.071   6.215   5.016 -1.2434  0.0498  0.0390
 8174SOL    HW125421   2.074   6.177   5.109 -0.4539 -0.5988 -0.2340
 8174SOL    HW225422   2.079   6.314   5.021 -0.0452 -0.0523  0.6279
 8175SOL     OW25423   2.452   2.217   6.502  0.4787  0.5575  0.4183
 8175SOL    HW125424   2.453   2.191   6.406 -0.4085  1.3859  0.1698
 8175SOL    HW225425   2.540   2.258   6.527  1.6230 -1.8094  0.6192
 8176SOL     OW25426   2.610   5.482   1.642 -0.3486 -0.1456  0.5931
 8176SOL    HW125427   2.667   5.404   1.616  0.0583  0.0933  0.7503
 8176SOL    HW225428   2.577   5.528   1.559 -1.4255 -1.0769  0.4990
 8177SOL     OW25429   2.904   0.021   1.321  0.1508 -0.5920 -0.0046
 8177SOL    HW125430   2.881  -0.042   1.247  0.1252  0.4909 -0.9438
 8177SOL    HW225431   2.871   0.112   1.298  0.5079 -0.1519  1.1708
 8178SOL     OW25432   1.466   0.319   1.762 -0.4036  0.1071 -0.1648
 8178SOL    HW125433   1.406   0.342   1.839 -0.4713 -0.4179 -0.0571
 8178SOL    HW225434   1.419   0.338   1.676 -0.5129  0.2364 -0.0764
 8179SOL     OW25435   5.042   0.630   4.356 -0.2821 -0.3814 -0.0537
 8179SOL    HW125436   4.977   0.582   4.414 -1.0788  0.1062 -0.5201
 8179SOL    HW225437   5.020   0.612   4.260  0.2545 -0.1944 -0.2143
 8180SOL     OW25438   2.522   6.108   1.439  0.0044  0.3136 -0.5667
 8180SOL    HW125439   2.556   6.203   1.436  0.2472  0.2180 -1.0993
 8180SOL    HW225440   2.509   6.080   1.533  0.5702  0.6569 -0.3788
 8181SOL     OW25441   6.434   1.709   0.323  0.0536 -0.0873 -0.1776
 8181SOL    HW125442   6.475   1.797   0.301  1.1671 -0.8552 -1.3662
 8181SOL    HW225443   6.492   1.661   0.389 -1.3721  0.6930  1.6925
 8182SOL     OW25444   3.335   4.131   2.426  0.4998  0.2491  0.2913
 8182SOL    HW125445   3.286   4.218   2.425 -2.6506 -1.3706  1.2886
 8182SOL    HW225446   3.348   4.101   2.520 -0.9821 -1.5717 -0.0067
 8183SOL     OW25447   2.202   6.979   4.888  0.2463  0.1449  0.5748
 8183SOL    HW125448   2.164   6.996   4.797 -0.7902  1.3597  1.1964
 8183SOL    HW225449   2.152   6.905   4.932  0.6879 -0.3820  0.1929
 8184SOL     OW25450   0.302   5.493   4.119 -0.5396  0.2823 -0.0145
 8184SOL    HW125451   0.375   5.532   4.175  0.1075 -0.2686 -0.4580
 8184SOL    HW225452   0.249   5.567   4.077  0.7546  0.7140 -0.9576
 8185SOL     OW25453   0.010   6.804   3.561 -0.3032 -0.1704 -0.5793
 8185SOL    HW125454   0.079   6.836   3.497  1.6700 -0.4399  1.2976
 8185SOL    HW225455  -0.016   6.879   3.622  1.3278 -1.0095  1.2390
 8186SOL     OW25456   1.659   0.041   0.982 -0.1896  0.6643 -0.1356
 8186SOL    HW125457   1.752   0.040   0.945 -1.2983 -1.1223 -3.1690
 8186SOL    HW225458   1.647  -0.038   1.041  0.5097  1.5769  1.2998
 8187SOL     OW25459   0.499   6.660   3.849  0.5651  0.0681  0.4080
 8187SOL    HW125460   0.591   6.692   3.828  0.9596 -0.8669  0.6386
 8187SOL    HW225461   0.504   6.589   3.920 -0.3587  0.1956  0.6181
 8188SOL     OW25462   1.344   3.736   2.449 -0.1893  0.1401  0.1451
 8188SOL    HW125463   1.277   3.681   2.400 -0.7375  1.5823 -0.7648
 8188SOL    HW225464   1.396   3.677   2.511 -3.9241 -0.7094  2.8464
 8189SOL     OW25465   0.895   4.873   3.588 -0.4557 -0.1453 -0.1680
 8189SOL    HW125466   0.955   4.953   3.582 -0.3932 -0.2172 -0.5579
 8189SOL    HW225467   0.800   4.901   3.573 -0.5340 -0.0108  0.5904
 8190SOL     OW25468   5.300   3.265   2.630 -0.0539 -0.1612  0.3172
 8190SOL    HW125469   5.285   3.285   2.533  1.5929  0.0360  0.0606
 8190SOL    HW225470   5.272   3.343   2.685  0.5753  0.4162 -0.1596
 8191SOL     OW25471   4.441   4.529   2.648 -0.7858 -0.3193  0.6704
 8191SOL    HW125472   4.381   4.542   2.569 -0.8695  2.4539  1.0879
 8191SOL    HW225473   4.531   4.568   2.628 -0.3449 -0.9002  1.4578
 8192SOL     OW25474   5.589   4.274   1.447 -0.5513  0.2646 -0.0909
 8192SOL    HW125475   5.583   4.176   1.430 -0.1798  0.5331 -1.9965
 8192SOL    HW225476   5.496   4.312   1.453 -0.6963 -0.0244 -0.4680
 8193SOL     OW25477   6.410   4.594   2.903  0.0098  0.7898  0.4550
 8193SOL    HW125478   6.504   4.589   2.869 -1.0709 -0.9063 -2.6175
 8193SOL    HW225479   6.393   4.518   2.966  0.1433 -0.0729 -0.5375
 8194SOL     OW25480   3.787   6.180   2.004 -0.1650 -0.2448 -0.4184
 8194SOL    HW125481   3.785   6.117   1.926 -1.5080 -0.4908 -0.2094
 8194SOL    HW225482   3.743   6.137   2.082 -1.4508  1.0933 -0.3754
 8195SOL     OW25483   6.440   0.547   2.451  0.1949 -0.2178  0.0641
 8195SOL    HW125484   6.534   0.553   2.486  1.0633 -0.7238 -2.0492
 8195SOL    HW225485   6.427   0.615   2.379 -1.5487  0.7985  1.2510
 8196SOL     OW25486   5.203   6.861   4.434  0.0747 -0.4813 -0.0224
 8196SOL    HW125487   5.161   6.873   4.524  2.5639  1.1464  1.0073
 8196SOL    HW225488   5.247   6.946   4.406  0.2836 -1.2779 -2.3408
 8197SOL     OW25489   3.081   5.362   2.234 -0.0128 -0.0329 -0.0130
 8197SOL    HW125490   3.129   5.311   2.163  0.6638 -0.8111  0.9744
 8197SOL    HW225491   3.104   5.325   2.324 -1.0998  0.7204  0.6103
 8198SOL     OW25492   1.313   4.362   0.107  0.2171  0.0424 -0.3632
 8198SOL    HW125493   1.322   4.351   0.206 -0.7391 -0.2776 -0.2963
 8198SOL    HW225494   1.320   4.459   0.084 -0.5687  0.2334  0.1505
 8199SOL     OW25495   5.969   2.858   0.579 -0.1316  0.5483  0.2189
 8199SOL    HW125496   5.881   2.824   0.612  0.4497  0.1920  1.4684
 8199SOL    HW225497   5.978   2.839   0.481 -1.8314  1.4605 -0.1393
 8200SOL     OW25498   5.006   5.805   6.604 -0.2202 -0.5966 -0.5187
 8200SOL    HW125499   4.966   5.895   6.617 -0.3901 -0.6573 -0.6079
 8200SOL    HW225500   5.103   5.814   6.583 -0.5921 -0.3101 -2.3232
 8201SOL     OW25501   3.811   6.174   6.068 -0.0026 -0.1937  0.5981
 8201SOL    HW125502   3.786   6.144   6.160 -1.0480 -2.3186 -0.3183
 8201SOL    HW225503   3.781   6.106   6.001  0.5452  1.3930 -1.3600
 8202SOL     OW25504   5.295   4.958   1.956 -0.0524 -0.3697  0.1740
 8202SOL    HW125505   5.237   4.892   2.003  0.6852  0.6179  2.6158
 8202SOL    HW225506   5.379   4.973   2.008  0.6234  1.1461 -1.2492
 8203SOL     OW25507   6.201   3.274   0.566  0.0077 -0.2140 -0.5345
 8203SOL    HW125508   6.170   3.322   0.484  0.3578 -1.6749 -1.5686
 8203SOL    HW225509   6.297   3.251   0.557 -0.2810 -1.5965 -0.3467
 8204SOL     OW25510   6.324   1.775   1.802  0.2503  0.3365  0.4803
 8204SOL    HW125511   6.359   1.844   1.739 -0.1396  0.0797 -0.0178
 8204SOL    HW225512   6.280   1.702   1.751 -1.0901  0.6792  1.0931
 8205SOL     OW25513   0.278   3.535   0.503  0.4112  0.7239  0.2178
 8205SOL    HW125514   0.358   3.506   0.554 -0.2842 -0.9119  0.4380
 8205SOL    HW225515   0.299   3.534   0.405  0.9836  1.4038  0.3270
 8206SOL     OW25516   4.676   1.079   1.280  0.6185  0.0323  0.3457
 8206SOL    HW125517   4.676   1.143   1.204  0.9391 -1.1849 -0.7077
 8206SOL    HW225518   4.621   1.117   1.355  0.0045  1.0927 -0.6069
 8207SOL     OW25519   3.614   3.742   3.016  0.7373 -0.0856  0.2215
 8207SOL    HW125520   3.535   3.727   2.956  0.0726  2.2175  0.4294
 8207SOL    HW225521   3.584   3.746   3.111  1.3323 -0.6762  0.4407
 8208SOL     OW25522   3.955   0.243   6.172  0.0306  0.3636 -0.1470
 8208SOL    HW125523   4.051   0.223   6.193  0.3082  0.4344 -1.2811
 8208SOL    HW225524   3.905   0.258   6.257  0.9363 -0.0592  0.4838
 8209SOL     OW25525   4.580   4.344   5.143 -0.2493 -0.0694 -0.0009
 8209SOL    HW125526   4.482   4.364   5.143 -0.3379 -0.4980  0.1796
 8209SOL    HW225527   4.630   4.426   5.169 -0.6545 -0.2675  1.5089
 8210SOL     OW25528   0.543   2.979   4.815  0.5091  0.3076  0.2164
 8210SOL    HW125529   0.535   3.051   4.746 -2.8156 -0.6763 -0.6007
 8210SOL    HW225530   0.623   2.922   4.795  0.8073  1.2820 -1.5990
 8211SOL     OW25531   3.543   3.217   2.706  0.0668  0.1946 -0.0649
 8211SOL    HW125532   3.565   3.276   2.628 -0.4923 -0.1254 -0.4809
 8211SOL    HW225533   3.525   3.272   2.787  1.6339  0.4952  0.1052
 8212SOL     OW25534   2.064   3.775   3.733  0.2060 -0.4528  0.5569
 8212SOL    HW125535   2.126   3.828   3.790 -0.6981 -1.1298  2.2447
 8212SOL    HW225536   2.114   3.735   3.657  1.0446  2.2247 -0.4120
 8213SOL     OW25537   6.661   2.774   0.768 -0.0485 -0.1987 -0.3345
 8213SOL    HW125538   6.655   2.870   0.794  1.5084  1.1008 -4.1206
 8213SOL    HW225539   6.584   2.751   0.708  1.5619 -0.0530 -2.5981
 8214SOL     OW25540   5.354   2.934   4.186  0.6664 -0.1179  0.1592
 8214SOL    HW125541   5.271   2.973   4.144  0.5722  0.7654  1.1317
 8214SOL    HW225542   5.383   2.854   4.133 -1.3235 -0.9930  0.2975
 8215SOL     OW25543   2.846   6.608   1.874  0.5322  0.0093 -0.3722
 8215SOL    HW125544   2.862   6.707   1.879 -1.9279  0.3883  1.8847
 8215SOL    HW225545   2.774   6.589   1.807 -0.3421 -0.0046  0.5465
 8216SOL     OW25546   5.937   2.726   4.829 -0.2413 -0.1317  0.4381
 8216SOL    HW125547   5.845   2.693   4.806 -0.7654  2.2334 -1.2354
 8216SOL    HW225548   5.934   2.773   4.917 -0.6128 -0.1234  0.4230
 8217SOL     OW25549   3.870   5.383   0.278 -0.3661 -0.0318  0.6745
 8217SOL    HW125550   3.849   5.412   0.372 -0.3652  0.5360  0.5022
 8217SOL    HW225551   3.969   5.383   0.264 -0.3710 -0.0171  0.6396
 8218SOL     OW25552   3.463   0.791   6.871 -0.2978 -0.0621  0.4631
 8218SOL    HW125553   3.457   0.868   6.808  1.2943 -0.3420 -0.0853
 8218SOL    HW225554   3.431   0.819   6.961 -0.9815  0.8425 -0.0468
 8219SOL     OW25555   6.275   4.043   0.332  0.4093  1.0275 -0.1058
 8219SOL    HW125556   6.287   4.046   0.233  1.0680  1.1331 -0.0267
 8219SOL    HW225557   6.263   4.136   0.367  0.0283  0.9786 -0.1012
 8220SOL     OW25558   3.979   2.354   0.398  0.0495 -0.5008  0.4206
 8220SOL    HW125559   4.049   2.402   0.345 -0.4609 -0.6143 -0.3930
 8220SOL    HW225560   3.987   2.378   0.494 -0.3335  1.4480  0.0255
 8221SOL     OW25561   4.985   5.269   2.683  0.2878  0.8151 -0.0071
 8221SOL    HW125562   5.017   5.202   2.617 -0.8782  0.5057 -0.2795
 8221SOL    HW225563   5.052   5.278   2.757  1.0130  0.2478 -0.5818
 8222SOL     OW25564   6.090   0.547   3.254  0.5184 -0.9985 -0.5555
 8222SOL    HW125565   6.052   0.469   3.304 -0.1495 -0.6600 -0.5203
 8222SOL    HW225566   6.062   0.632   3.299  2.3738 -0.7430  0.2196
 8223SOL     OW25567   2.741   4.317   0.410 -0.1189  0.0186  0.1708
 8223SOL    HW125568   2.765   4.223   0.388  3.5480  0.8822 -0.2938
 8223SOL    HW225569   2.790   4.346   0.492  0.0677  1.9413 -0.5572
 8224SOL     OW25570   1.520   3.019   2.722 -0.3186 -0.6808 -0.2916
 8224SOL    HW125571   1.546   3.063   2.808  2.0265  0.8570 -1.6716
 8224SOL    HW225572   1.560   2.927   2.720  0.5302 -0.3275 -0.1547
 8225SOL     OW25573   4.403   6.954   6.854 -0.2680 -0.5927 -0.2937
 8225SOL    HW125574   4.402   7.029   6.787  0.2963 -0.2984  0.0191
 8225SOL    HW225575   4.399   6.867   6.805 -1.0381 -0.3678 -0.6588
 8226SOL     OW25576   4.415   5.682   6.869  0.0399 -0.1510 -0.1163
 8226SOL    HW125577   4.429   5.772   6.828 -1.2023  0.9184  1.6452
 8226SOL    HW225578   4.434   5.686   6.967 -2.1610 -1.1795  0.4408
 8227SOL     OW25579   6.353   5.877   2.603  0.8098 -0.7036 -0.1803
 8227SOL    HW125580   6.358   5.821   2.521  3.0179 -1.3838  0.3494
 8227SOL    HW225581   6.371   5.973   2.579  1.0053 -0.8329 -0.5489
 8228SOL     OW25582   6.647   2.934   5.574  0.2380  0.1930 -0.2325
 8228SOL    HW125583   6.555   2.926   5.536  0.9990 -0.0195 -2.1114
 8228SOL    HW225584   6.702   2.855   5.547  0.5293 -0.5784  2.3062
 8229SOL     OW25585   5.608   5.992   6.698 -0.3361 -0.1248 -0.1449
 8229SOL    HW125586   5.639   5.912   6.750 -0.5631 -1.0354 -1.3431
 8229SOL    HW225587   5.580   5.962   6.607 -0.7866  1.2915 -0.4859
 8230SOL     OW25588   3.125   6.558   3.429  0.1500  0.0428  0.1117
 8230SOL    HW125589   3.179   6.584   3.509  1.2534 -2.6511  0.3730
 8230SOL    HW225590   3.035   6.527   3.458  0.1293  0.1678  0.1817
 8231SOL     OW25591   3.876   6.609   1.154 -0.0786  0.3243 -0.2706
 8231SOL    HW125592   3.970   6.591   1.185 -0.2186  0.0915  0.0219
 8231SOL    HW225593   3.821   6.639   1.232  0.0291  1.5886 -0.6521
 8232SOL     OW25594   3.147   1.416   0.952 -0.5372  0.0507 -0.3141
 8232SOL    HW125595   3.054   1.394   0.979 -0.5944  0.5400 -0.1099
 8232SOL    HW225596   3.158   1.402   0.853 -1.3009  1.6083 -0.6456
 8233SOL     OW25597   1.157   4.452   6.108 -0.2748 -1.3240 -0.4571
 8233SOL    HW125598   1.119   4.374   6.158  0.7303 -1.7946 -0.4101
 8233SOL    HW225599   1.241   4.482   6.153 -0.8848  0.0839 -0.2121
 8234SOL     OW25600   2.102   3.361   0.496 -0.3428 -0.2288  0.3556
 8234SOL    HW125601   2.104   3.268   0.458  0.1685  0.1068 -0.4663
 8234SOL    HW225602   2.188   3.407   0.473 -0.1392  0.0888  1.6848
 8235SOL     OW25603   5.789   3.081   6.731  0.1328  0.1246  0.4404
 8235SOL    HW125604   5.805   3.163   6.786 -1.5747 -0.0218  1.2408
 8235SOL    HW225605   5.692   3.055   6.739  0.7565 -2.3386  0.7481
 8236SOL     OW25606   0.122   1.469   2.156 -0.5837  0.2151 -0.2694
 8236SOL    HW125607   0.067   1.546   2.123 -2.1073 -0.4976  0.5273
 8236SOL    HW225608   0.108   1.457   2.254  1.3246  0.2446  0.0338
 8237SOL     OW25609   3.438   6.275   5.083 -0.3231  0.3242 -0.2353
 8237SOL    HW125610   3.504   6.233   5.146 -1.3824 -0.7718  0.1664
 8237SOL    HW225611   3.469   6.368   5.061  1.7010 -0.3859 -0.6151
 8238SOL     OW25612   0.445   2.364   6.628  0.3410 -0.6688 -0.1403
 8238SOL    HW125613   0.371   2.399   6.570 -0.2673 -0.3899  0.7730
 8238SOL    HW225614   0.527   2.351   6.573 -0.6535 -1.9246 -1.3922
 8239SOL     OW25615   0.039   1.877   6.713  0.0949 -0.1440 -0.3007
 8239SOL    HW125616  -0.026   1.947   6.686  0.1558 -0.0739 -0.2648
 8239SOL    HW225617   0.034   1.863   6.812  1.8580  1.6160  0.0987
 8240SOL     OW25618   3.974   3.663   1.541 -0.1005 -0.5061 -0.2342
 8240SOL    HW125619   3.940   3.595   1.606 -1.6913 -0.2176 -0.7148
 8240SOL    HW225620   4.033   3.728   1.590 -1.7928  0.0954  1.1118
 8241SOL     OW25621   4.012   5.251   0.891 -0.1036  0.2262 -0.2356
 8241SOL    HW125622   4.023   5.159   0.851  0.8736  0.6584 -0.9997
 8241SOL    HW225623   3.956   5.245   0.973  0.9326 -1.2325  0.4010
 8242SOL     OW25624   0.773   4.261   4.111 -0.2322  0.1754 -0.5227
 8242SOL    HW125625   0.685   4.291   4.075 -0.3162  0.7636  0.1536
 8242SOL    HW225626   0.847   4.293   4.051 -0.3897  0.9153 -0.3343
 8243SOL     OW25627   1.088   2.655   5.279  0.4712  0.2276 -0.0608
 8243SOL    HW125628   1.124   2.599   5.352  0.8882 -1.1117 -1.2488
 8243SOL    HW225629   1.120   2.749   5.290  0.1753  0.1565  1.6755
 8244SOL     OW25630   4.108   6.641   6.110  0.2714 -0.0094 -0.3492
 8244SOL    HW125631   4.067   6.604   6.193  1.1981  0.6425  0.4253
 8244SOL    HW225632   4.153   6.728   6.131  0.8508 -0.0206 -1.4592
 8245SOL     OW25633   4.414   4.323   0.946 -0.1091  0.1115 -0.3168
 8245SOL    HW125634   4.321   4.359   0.940 -0.2391 -0.3636 -1.4652
 8245SOL    HW225635   4.429   4.284   1.036 -0.9442  0.4012 -0.0423
 8246SOL     OW25636   5.896   4.550   4.757 -0.5896 -0.5639 -0.2624
 8246SOL    HW125637   5.879   4.626   4.694 -1.6677  0.5668  1.2692
 8246SOL    HW225638   5.809   4.503   4.777 -0.4586 -0.3236  1.0038
 8247SOL     OW25639   0.154   6.206   0.093  0.0834 -0.1715 -1.2576
 8247SOL    HW125640   0.066   6.232   0.133  0.9604  2.8698 -1.0489
 8247SOL    HW225641   0.215   6.176   0.166 -0.6250 -1.9647 -1.3618
 8248SOL     OW25642   1.078   4.834   5.220 -0.1731 -0.3036 -0.2352
 8248SOL    HW125643   1.117   4.753   5.175 -2.2550 -0.9941 -0.9164
 8248SOL    HW225644   1.049   4.900   5.150 -0.7045 -0.0482  0.2213
 8249SOL     OW25645   0.356   4.608   3.902  0.4235 -0.5897 -0.6541
 8249SOL    HW125646   0.317   4.593   3.993  2.6641  0.4066  0.5546
 8249SOL    HW225647   0.346   4.705   3.877  1.4770 -0.4601 -0.6163
 8250SOL     OW25648   3.277   3.259   2.378  0.3119 -0.2967 -0.6411
 8250SOL    HW125649   3.321   3.300   2.457  0.6562 -2.0495  0.1282
 8250SOL    HW225650   3.268   3.327   2.305 -1.0318  1.6962  1.2579
 8251SOL     OW25651   5.502   0.282   3.256  0.0849 -0.2281 -0.0707
 8251SOL    HW125652   5.444   0.208   3.290  1.4551 -0.6246  1.5807
 8251SOL    HW225653   5.594   0.246   3.239  0.6911  1.0261  0.4514
 8252SOL     OW25654   1.641   3.014   5.587  0.3171  0.2478 -0.2007
 8252SOL    HW125655   1.551   3.059   5.580  0.0709 -0.4736 -3.9393
 8252SOL    HW225656   1.635   2.922   5.549  2.1692 -0.7348  1.7329
 8253SOL     OW25657   1.437   2.687   5.789  0.1531 -0.0573  0.1622
 8253SOL    HW125658   1.410   2.720   5.698  3.0327 -0.6963 -1.0320
 8253SOL    HW225659   1.375   2.614   5.817 -0.6046 -0.0802 -1.4459
 8254SOL     OW25660   6.445   6.572   3.049  0.2949  0.0583 -0.0125
 8254SOL    HW125661   6.414   6.492   2.997  1.0401 -0.0518 -0.2962
 8254SOL    HW225662   6.534   6.601   3.015  1.1317 -0.4460  1.6639
 8255SOL     OW25663   3.398   4.934   4.432 -0.2246 -0.4985  0.0796
 8255SOL    HW125664   3.371   4.840   4.408  0.9089 -0.3181 -2.2435
 8255SOL    HW225665   3.317   4.986   4.460 -1.3040 -1.5297 -0.9900
 8256SOL     OW25666   4.646   2.521   1.328 -0.2248 -0.5843 -0.3375
 8256SOL    HW125667   4.709   2.463   1.277  0.7785  0.4776 -0.3256
 8256SOL    HW225668   4.694   2.602   1.361 -1.6537  0.3655 -0.5282
 8257SOL     OW25669   0.284   4.005   3.121 -0.4929 -0.4976  0.3878
 8257SOL    HW125670   0.364   3.956   3.085  0.4708  2.0298 -1.1972
 8257SOL    HW225671   0.205   3.986   3.063  0.3826  1.3245 -1.5579
 8258SOL     OW25672   5.891   1.239   0.192  0.3035 -0.1537  0.4930
 8258SOL    HW125673   5.862   1.246   0.288  1.3345  2.6039  0.7128
 8258SOL    HW225674   5.814   1.262   0.132  0.2179  0.3527  0.7849
 8259SOL     OW25675   4.862   1.283   0.602  0.1911 -0.0254  0.0503
 8259SOL    HW125676   4.918   1.250   0.678 -1.7972 -2.7962  0.4327
 8259SOL    HW225677   4.824   1.373   0.626  1.8722  0.4615  1.0756
 8260SOL     OW25678   3.584   5.345   0.373  0.0659 -0.2289  0.1617
 8260SOL    HW125679   3.511   5.410   0.397 -0.1140 -0.4027  0.0900
 8260SOL    HW225680   3.653   5.390   0.317 -0.1230 -0.1312  0.0067
 8261SOL     OW25681   3.950   0.872   2.902 -0.0242 -0.3026 -0.1183
 8261SOL    HW125682   3.910   0.951   2.949  0.0475  0.0056 -0.5715
 8261SOL    HW225683   4.040   0.896   2.866 -0.5078 -0.2033 -1.3129
 8262SOL     OW25684   5.886   1.760   2.138 -0.2350  0.3318  0.2076
 8262SOL    HW125685   5.884   1.811   2.051  1.1859 -0.0589 -0.0780
 8262SOL    HW225686   5.959   1.692   2.135 -0.3330  0.1379  1.6347
 8263SOL     OW25687   6.230   2.484   0.232 -0.2388 -0.5684 -0.6551
 8263SOL    HW125688   6.193   2.499   0.324 -0.4864  0.3190 -0.8867
 8263SOL    HW225689   6.264   2.571   0.196 -0.9950 -0.7213 -1.7672
 8264SOL     OW25690   2.408   4.354   0.627 -0.6565 -0.3628 -0.3338
 8264SOL    HW125691   2.479   4.293   0.664  0.2322 -0.4441 -2.0889
 8264SOL    HW225692   2.451   4.427   0.573 -1.8218  0.7157  0.1348
 8265SOL     OW25693   2.958   1.420   2.923  0.3571  0.2143  0.3575
 8265SOL    HW125694   2.893   1.402   2.997  2.2763  0.4780  2.1949
 8265SOL    HW225695   2.937   1.360   2.846 -0.0770 -2.1012  2.1418
 8266SOL     OW25696   2.766   1.220   3.381 -0.0595 -0.1305 -0.4043
 8266SOL    HW125697   2.841   1.175   3.429  0.6343  1.2474 -0.1640
 8266SOL    HW225698   2.739   1.303   3.430  0.5322  1.2138 -2.2392
 8267SOL     OW25699   5.423   1.678   1.734  0.2332 -0.1125  0.3658
 8267SOL    HW125700   5.420   1.771   1.696 -0.6568  0.2801  1.3275
 8267SOL    HW225701   5.352   1.623   1.690  0.9045 -0.4056 -0.3588
 8268SOL     OW25702   2.365   4.151   6.383 -0.0052  0.0103 -0.1003
 8268SOL    HW125703   2.318   4.121   6.467 -0.6953 -1.1937 -0.8806
 8268SOL    HW225704   2.461   4.170   6.404 -0.6086  1.6966  1.3595
 8269SOL     OW25705   5.965   3.254   0.694 -0.0448  0.3706  0.5293
 8269SOL    HW125706   5.922   3.337   0.730 -0.7157  0.4678 -0.4640
 8269SOL    HW225707   6.055   3.276   0.657  1.4122 -0.0054  3.5365
 8270SOL     OW25708   0.619   6.168   6.445 -0.1166  0.1687 -0.1686
 8270SOL    HW125709   0.573   6.173   6.356  1.6579 -0.0826 -1.1474
 8270SOL    HW225710   0.551   6.157   6.517 -1.6434  0.9546 -1.4249
 8271SOL     OW25711   1.054   4.133   2.021 -0.1333  0.0054  0.2365
 8271SOL    HW125712   0.973   4.093   2.065 -0.1154  0.3729  0.6101
 8271SOL    HW225713   1.121   4.157   2.091 -0.1743  0.7572  0.0238
 8272SOL     OW25714   4.845   0.497   4.531  0.0844  0.2862 -1.4404
 8272SOL    HW125715   4.863   0.422   4.595 -1.1327 -0.3822 -1.8589
 8272SOL    HW225716   4.748   0.518   4.529  0.3455  1.5880 -1.6830
 8273SOL     OW25717   3.311   0.490   0.709 -0.1452 -0.6656  0.2867
 8273SOL    HW125718   3.298   0.398   0.745 -1.5778 -1.2819 -1.6459
 8273SOL    HW225719   3.294   0.490   0.610 -0.7928  1.7831  0.3414
 8274SOL     OW25720   4.725   4.667   4.278 -0.0644 -0.6572 -0.2244
 8274SOL    HW125721   4.706   4.616   4.194  0.3741  0.5284 -1.0738
 8274SOL    HW225722   4.665   4.747   4.282 -1.0183 -1.4244  1.2814
 8275SOL     OW25723   0.492   1.920   0.202 -0.5185 -0.2762 -0.1789
 8275SOL    HW125724   0.588   1.944   0.194 -0.6007 -0.2739 -1.3336
 8275SOL    HW225725   0.436   1.992   0.160 -0.9411 -0.8924 -0.6921
 8276SOL     OW25726   0.483   1.588   3.369  0.1557  0.4368  0.3396
 8276SOL    HW125727   0.561   1.617   3.424  2.0276 -0.1676 -1.8153
 8276SOL    HW225728   0.465   1.491   3.385  1.6530 -0.1210 -1.0659
 8277SOL     OW25729   0.738   1.256   0.992  0.0662  0.2491 -0.2266
 8277SOL    HW125730   0.657   1.304   1.026  1.5801  1.4365  1.9852
 8277SOL    HW225731   0.815   1.320   0.989  1.4235 -1.3251 -0.1688
 8278SOL     OW25732   1.732   3.106   6.443 -0.1243 -0.2539  1.0147
 8278SOL    HW125733   1.641   3.082   6.476 -0.7826  1.5864  0.6416
 8278SOL    HW225734   1.725   3.178   6.374  1.5926 -0.4127  0.6155
 8279SOL     OW25735   6.904   6.681   4.451 -0.2487 -0.3948  0.8376
 8279SOL    HW125736   6.941   6.743   4.520  0.5443 -0.1720  0.2320
 8279SOL    HW225737   6.979   6.629   4.409 -0.8421 -1.3503  0.9358
 8280SOL     OW25738   0.811   2.447   6.283 -0.0061 -0.8412  0.2482
 8280SOL    HW125739   0.790   2.407   6.372 -1.8812 -2.1121 -0.7042
 8280SOL    HW225740   0.752   2.526   6.267  2.7616  1.6869  1.5454
 8281SOL     OW25741   3.319   4.876   2.127  0.4056  0.1304 -0.0379
 8281SOL    HW125742   3.328   4.907   2.221  0.5028  3.9546 -1.1308
 8281SOL    HW225743   3.226   4.843   2.110 -0.5829  2.4103  0.6865
 8282SOL     OW25744   6.414   2.347   6.107 -0.1257 -0.1873 -0.4634
 8282SOL    HW125745   6.342   2.279   6.093  0.8773 -1.3042 -0.3397
 8282SOL    HW225746   6.502   2.309   6.077  0.2600  1.5751 -1.7670
 8283SOL     OW25747   2.052   2.621   4.593 -0.1067 -0.0350  0.5363
 8283SOL    HW125748   2.032   2.719   4.604  1.3926  0.2828  0.7246
 8283SOL    HW225749   2.113   2.609   4.514 -1.3950 -0.9939 -0.3474
 8284SOL     OW25750   5.915   6.088   1.251  0.6982  0.5190  0.2217
 8284SOL    HW125751   5.924   6.145   1.169 -1.4192 -2.8838 -2.6874
 8284SOL    HW225752   5.823   6.098   1.288 -0.1192 -1.6392 -1.0390
 8285SOL     OW25753   3.871   3.936   3.820  0.2831 -0.1848  0.7011
 8285SOL    HW125754   3.868   4.002   3.895  0.9193 -0.6450  1.1393
 8285SOL    HW225755   3.807   3.861   3.839 -1.1113  0.7294 -0.2236
 8286SOL     OW25756   0.893   1.708   5.881  0.4379 -0.2210 -0.0188
 8286SOL    HW125757   0.858   1.684   5.972 -0.2233 -1.3026 -0.5373
 8286SOL    HW225758   0.838   1.662   5.811  3.2809 -2.6203 -0.8624
 8287SOL     OW25759   1.418   6.147   3.864  0.2929  0.0155 -0.5351
 8287SOL    HW125760   1.427   6.151   3.963 -0.8705  0.1156 -0.4253
 8287SOL    HW225761   1.454   6.231   3.824  0.3975  0.1443 -0.1767
 8288SOL     OW25762   3.301   1.915   3.935 -0.0361  0.2543 -0.3104
 8288SOL    HW125763   3.277   2.003   3.976  0.8914  0.0173  0.7838
 8288SOL    HW225764   3.218   1.860   3.925 -0.6033  1.1600 -0.8406
 8289SOL     OW25765   0.952   6.780   4.831 -0.4172 -0.1618 -0.1239
 8289SOL    HW125766   0.996   6.693   4.808 -0.3068  0.0604 -0.7642
 8289SOL    HW225767   1.022   6.850   4.840 -0.4301 -0.2966  1.1758
 8290SOL     OW25768   1.159   0.519   2.226  0.4153  0.2806  0.5999
 8290SOL    HW125769   1.187   0.565   2.142  0.0458 -2.5658 -1.2229
 8290SOL    HW225770   1.238   0.473   2.266 -0.0869 -1.5431 -0.3940
 8291SOL     OW25771   5.008   0.878   0.191 -0.2539  0.6545  0.0831
 8291SOL    HW125772   5.092   0.846   0.148 -0.5844 -0.9795  0.5583
 8291SOL    HW225773   4.932   0.868   0.127 -0.2871  0.9341  0.0787
 8292SOL     OW25774   1.197   1.765   0.267 -0.3682  0.3436  0.2209
 8292SOL    HW125775   1.163   1.695   0.203  0.6873 -1.2679  1.3457
 8292SOL    HW225776   1.195   1.729   0.360  0.2796  1.8090  0.8288
 8293SOL     OW25777   6.500   6.139   3.457  0.1929 -0.8226 -0.0062
 8293SOL    HW125778   6.573   6.189   3.503  0.2970 -0.9684 -0.0097
 8293SOL    HW225779   6.533   6.047   3.434  0.1813 -0.7085 -0.4785
 8294SOL     OW25780   1.407   2.635   1.103 -0.3115 -0.3843 -0.1847
 8294SOL    HW125781   1.382   2.732   1.100 -0.1078 -0.3637 -1.4874
 8294SOL    HW225782   1.402   2.596   1.012 -1.7144 -1.9654  0.5211
 8295SOL     OW25783   4.964   1.653   6.589  0.4337 -0.3898  0.1811
 8295SOL    HW125784   4.922   1.738   6.622  0.8508 -0.7742  1.8133
 8295SOL    HW225785   4.895   1.598   6.542  0.1617  0.8442 -0.9038
 8296SOL     OW25786   2.032   6.084   4.798  0.2500  0.6216 -0.2119
 8296SOL    HW125787   2.051   6.135   4.882  1.6523  0.7452 -0.5967
 8296SOL    HW225788   2.091   6.003   4.794 -1.1324 -0.4291 -0.1790
 8297SOL     OW25789   1.209   3.557   3.980 -0.5062 -0.3125 -0.0178
 8297SOL    HW125790   1.239   3.599   3.895 -0.4088  1.0070  0.6340
 8297SOL    HW225791   1.230   3.459   3.979  1.5743  0.0870 -0.5885
 8298SOL     OW25792   4.363   2.163   2.809  0.8024  0.2754  0.0808
 8298SOL    HW125793   4.276   2.177   2.762  0.7379  1.2572  0.4710
 8298SOL    HW225794   4.353   2.188   2.905  1.5377  0.4722  0.1088
 8299SOL     OW25795   6.548   1.417   1.188  0.1973 -0.6308  0.3847
 8299SOL    HW125796   6.510   1.503   1.155  0.2795 -0.1597  1.4688
 8299SOL    HW225797   6.648   1.425   1.194  0.3410 -1.2946 -0.8603
 8300SOL     OW25798   0.505   4.816   2.906 -0.1932 -0.1330 -0.3298
 8300SOL    HW125799   0.503   4.752   2.983 -1.2761  0.8114  0.4630
 8300SOL    HW225800   0.600   4.832   2.878  0.1815 -0.8588  0.4870
 8301SOL     OW25801   3.360   2.527   6.120 -0.3007 -0.0270 -0.1330
 8301SOL    HW125802   3.454   2.528   6.085  0.1331  2.1029  0.9128
 8301SOL    HW225803   3.359   2.562   6.213 -2.0926 -0.4452  0.0293
 8302SOL     OW25804   6.562   6.148   0.043 -0.3281  0.1344 -0.4956
 8302SOL    HW125805   6.509   6.099  -0.026  0.0864 -0.7660 -0.1988
 8302SOL    HW225806   6.619   6.082   0.093 -1.7157  0.5252  1.7248
 8303SOL     OW25807   4.658   6.480   1.915  0.2427  0.3895  0.8601
 8303SOL    HW125808   4.694   6.451   2.003  1.0722 -1.4491 -0.0295
 8303SOL    HW225809   4.695   6.421   1.843 -0.4323  1.8205 -0.7222
 8304SOL     OW25810   6.723   4.631   1.472  0.1000 -0.8327 -0.4174
 8304SOL    HW125811   6.697   4.534   1.467  2.1083 -1.4213 -0.3720
 8304SOL    HW225812   6.744   4.655   1.567 -3.1984  0.5127  0.0948
 8305SOL     OW25813   2.471   5.602   2.742 -0.7652 -0.2438  0.2498
 8305SOL    HW125814   2.380   5.642   2.735 -0.3033  1.3274  2.3305
 8305SOL    HW225815   2.472   5.533   2.815 -0.0340  0.6373  1.0991
 8306SOL     OW25816   6.969   3.157   3.043 -0.4055  0.3276  0.2449
 8306SOL    HW125817   6.882   3.107   3.053  0.5193 -1.2698  0.6140
 8306SOL    HW225818   6.984   3.213   3.125 -1.4672  1.2761 -0.1794
 8307SOL     OW25819   4.745   5.275   1.930 -0.1368  0.4808  0.2246
 8307SOL    HW125820   4.841   5.303   1.936  0.3797 -0.9093 -1.0762
 8307SOL    HW225821   4.694   5.343   1.877  0.4284  0.5210 -0.2744
 8308SOL     OW25822   1.426   1.601   2.376  0.1005 -0.2427 -0.1419
 8308SOL    HW125823   1.464   1.528   2.433  0.2863 -0.6157 -0.7454
 8308SOL    HW225824   1.327   1.605   2.389 -0.0126 -1.1176 -0.6932
 8309SOL     OW25825   6.169   0.035   2.689 -0.2305 -0.3441  0.8074
 8309SOL    HW125826   6.158   0.132   2.714  1.9552  0.9363 -2.5654
 8309SOL    HW225827   6.220  -0.012   2.761  1.2208  1.7744  1.2552
 8310SOL     OW25828   1.009   5.780   6.915  0.4719  0.1089  0.2697
 8310SOL    HW125829   1.002   5.702   6.978 -0.8761 -0.9900 -1.1836
 8310SOL    HW225830   1.010   5.747   6.821  0.6402  1.8294 -0.3607
 8311SOL     OW25831   6.937   2.212   5.586 -0.7139  0.0461  0.2837
 8311SOL    HW125832   6.976   2.151   5.517 -1.4619  0.8555 -0.8940
 8311SOL    HW225833   6.950   2.307   5.558 -3.0389  0.3716  0.0626
 8312SOL     OW25834   4.205   6.145   1.711  0.6969  0.2957 -0.7693
 8312SOL    HW125835   4.185   6.173   1.805  0.8299  2.8944 -1.4231
 8312SOL    HW225836   4.228   6.048   1.709 -0.7356 -0.1739  1.6438
 8313SOL     OW25837   3.269   1.992   2.518  0.3919  0.1446 -0.1033
 8313SOL    HW125838   3.256   2.048   2.436  0.2067  2.0076  1.1268
 8313SOL    HW225839   3.247   2.046   2.599  1.3214 -1.3817  1.2416
 8314SOL     OW25840   5.887   6.307   5.687  0.1454  0.0428 -0.3348
 8314SOL    HW125841   5.918   6.347   5.601 -1.8158 -1.2657 -1.7579
 8314SOL    HW225842   5.891   6.207   5.681  1.8905 -0.1032  1.9176
 8315SOL     OW25843   4.790   4.130   6.732  1.1812 -0.5128 -0.0583
 8315SOL    HW125844   4.825   4.081   6.812  1.0261 -0.7621 -0.1446
 8315SOL    HW225845   4.797   4.071   6.651  0.2183 -0.6928 -0.0134
 8316SOL     OW25846   2.919   5.833   4.755 -0.1689 -0.2605  0.0943
 8316SOL    HW125847   2.988   5.871   4.816  1.2556 -1.0207 -0.9772
 8316SOL    HW225848   2.859   5.772   4.807 -0.4559  0.8656  1.1591
 8317SOL     OW25849   2.407   5.676   3.630 -0.5007 -0.6273 -0.4415
 8317SOL    HW125850   2.474   5.604   3.613 -1.1194 -1.4094  0.3671
 8317SOL    HW225851   2.436   5.731   3.708 -0.9557 -1.1792  0.1253
 8318SOL     OW25852   2.823   0.298   5.744 -0.0407 -0.2336 -0.4730
 8318SOL    HW125853   2.891   0.228   5.763  0.5552  0.9042  1.8679
 8318SOL    HW225854   2.852   0.386   5.782 -2.3953  0.5006 -0.1670
 8319SOL     OW25855   1.058   0.669   4.837  0.1275  0.7501  0.1651
 8319SOL    HW125856   1.112   0.586   4.820  2.2155  2.3290 -1.6243
 8319SOL    HW225857   0.992   0.680   4.763  0.2305  0.9534  0.1037
 8320SOL     OW25858   3.873   5.891   1.106  0.1150 -0.2320  0.2542
 8320SOL    HW125859   3.932   5.818   1.072  0.1017  0.7833 -2.1508
 8320SOL    HW225860   3.783   5.884   1.063 -0.2173  0.6066  0.7782
 8321SOL     OW25861   0.288   2.544   1.953  0.0964  0.1361  0.1442
 8321SOL    HW125862   0.360   2.612   1.965  1.3270 -1.1771  0.5025
 8321SOL    HW225863   0.319   2.473   1.890 -0.3936 -1.1062  1.2679
 8322SOL     OW25864   4.060   6.808   6.926  0.8073  0.1486  0.1581
 8322SOL    HW125865   4.146   6.824   6.975  0.2251 -1.4258  1.7856
 8322SOL    HW225866   4.029   6.715   6.943  0.6316 -0.5822 -3.4405
 8323SOL     OW25867   2.095   1.513   2.080  0.6133  0.4291 -0.1502
 8323SOL    HW125868   2.185   1.556   2.087  1.1565 -0.6891 -0.1051
 8323SOL    HW225869   2.077   1.457   2.161  0.4709 -0.4468 -0.7681
 8324SOL     OW25870   5.707   6.777   2.271  0.5413  0.0444 -0.6214
 8324SOL    HW125871   5.679   6.841   2.200 -1.1342 -0.6091 -0.5843
 8324SOL    HW225872   5.713   6.825   2.359  0.7296  0.4462 -0.8519
 8325SOL     OW25873   3.185   3.797   4.108  0.1885  0.2135 -0.0112
 8325SOL    HW125874   3.213   3.892   4.091 -0.5324  0.5462  0.6023
 8325SOL    HW225875   3.200   3.775   4.204  0.6555 -0.4077 -0.2187
 8326SOL     OW25876   3.464   3.448   5.165 -0.3637 -0.0030 -0.1031
 8326SOL    HW125877   3.537   3.454   5.234  1.1134  0.5468 -1.6595
 8326SOL    HW225878   3.495   3.490   5.080 -2.3617 -0.1669 -0.9578
 8327SOL     OW25879   5.616   2.760   5.646  0.6574 -0.3427  0.3344
 8327SOL    HW125880   5.649   2.693   5.712  0.2653 -1.8941 -0.9842
 8327SOL    HW225881   5.546   2.817   5.689  1.8684  0.0712  1.8366
 8328SOL     OW25882   1.288   2.851   2.272  0.9521 -0.1400  0.1908
 8328SOL    HW125883   1.334   2.850   2.361 -0.3987 -0.3788  0.9208
 8328SOL    HW225884   1.343   2.802   2.205  1.7974 -0.3221  0.9978
 8329SOL     OW25885   6.819   6.137   5.935 -0.1352 -0.0824 -0.4951
 8329SOL    HW125886   6.851   6.044   5.919 -1.5445 -0.7998  0.5885
 8329SOL    HW225887   6.872   6.201   5.880  1.0938 -1.4836 -0.9996
 8330SOL     OW25888   4.170   6.730   0.791  0.1665 -0.2058  0.0559
 8330SOL    HW125889   4.223   6.652   0.824 -0.2937  0.2954  2.0869
 8330SOL    HW225890   4.074   6.705   0.782  0.2353 -0.2464 -0.6546
 8331SOL     OW25891   1.893   5.979   0.204 -0.3886  0.6294 -0.0636
 8331SOL    HW125892   1.993   5.974   0.206 -0.3713  0.5262 -1.0706
 8331SOL    HW225893   1.864   6.064   0.162 -0.7371  0.7451  0.3965
 8332SOL     OW25894   3.301   4.843   1.827 -0.2926  0.0238 -0.3944
 8332SOL    HW125895   3.367   4.771   1.806  0.8069  1.2423 -1.2926
 8332SOL    HW225896   3.317   4.877   1.920 -0.4384 -0.4931 -0.1787
 8333SOL     OW25897   2.414   5.002   4.893  0.0590  0.2316  0.2475
 8333SOL    HW125898   2.338   5.016   4.830 -0.5743 -0.9381  0.7126
 8333SOL    HW225899   2.499   5.036   4.852  0.0063 -2.1346 -2.0813
 8334SOL     OW25900   0.914   6.696   2.859  0.8479 -0.1668 -0.2524
 8334SOL    HW125901   0.972   6.775   2.873 -1.1797  1.3036  0.2733
 8334SOL    HW225902   0.831   6.723   2.811 -0.9706 -1.4645  1.9474
 8335SOL     OW25903   0.685   5.348   4.546 -0.1593  0.0147 -0.1342
 8335SOL    HW125904   0.591   5.378   4.565 -0.5834 -0.1292 -1.8639
 8335SOL    HW225905   0.724   5.403   4.473  2.5525  2.6575  2.9780
 8336SOL     OW25906   1.026   2.269   3.481 -0.1503  0.7639 -0.1967
 8336SOL    HW125907   1.095   2.328   3.438 -0.0169  0.5840 -0.2318
 8336SOL    HW225908   1.071   2.191   3.524 -0.3142  0.7658 -0.0217
 8337SOL     OW25909   6.537   7.002   1.942  0.1128  0.4100  0.3774
 8337SOL    HW125910   6.551   7.084   1.997 -2.6341  1.0466  0.3024
 8337SOL    HW225911   6.484   6.935   1.994  1.3945 -0.9249  0.0523
 8338SOL     OW25912   3.690   5.721   5.891  0.6345  0.1480 -0.6040
 8338SOL    HW125913   3.711   5.716   5.793  0.4389 -1.8177 -0.5868
 8338SOL    HW225914   3.733   5.645   5.938 -0.9596 -0.1169  0.5106
 8339SOL     OW25915   0.502   1.603   4.642  0.2462 -0.1818  0.1130
 8339SOL    HW125916   0.544   1.518   4.674  2.2031  0.9638  0.7803
 8339SOL    HW225917   0.420   1.622   4.696  0.8005 -0.7504  1.1901
 8340SOL     OW25918   4.473   4.522   1.556 -0.2030 -0.3216 -0.5589
 8340SOL    HW125919   4.488   4.585   1.632  0.6137  1.2415 -1.9444
 8340SOL    HW225920   4.545   4.453   1.555  1.4996  1.3592 -1.5046
 8341SOL     OW25921   2.853   1.037   6.991 -0.0140  0.0583 -0.0431
 8341SOL    HW125922   2.887   1.127   7.019  1.1863 -0.7866  1.3499
 8341SOL    HW225923   2.802   0.997   7.067  0.2624 -0.8260 -0.3160
 8342SOL     OW25924   4.612   0.693   1.171  0.3666 -0.2841 -0.0363
 8342SOL    HW125925   4.682   0.759   1.197 -0.3077  0.8315 -0.9322
 8342SOL    HW225926   4.643   0.639   1.093  1.1820 -1.5267  1.1055
 8343SOL     OW25927   6.587   3.367   4.732  0.2536 -0.7998 -0.4193
 8343SOL    HW125928   6.615   3.414   4.816 -0.3814  0.1717 -0.7294
 8343SOL    HW225929   6.489   3.348   4.735  0.3312 -1.2640 -0.7085
 8344SOL     OW25930   2.843   0.901   6.445  0.8123 -0.2045 -0.4134
 8344SOL    HW125931   2.886   0.850   6.520 -0.7526 -0.3344  0.4529
 8344SOL    HW225932   2.847   0.999   6.465  1.4871 -0.1580 -0.7729
 8345SOL     OW25933   0.019   1.770   4.125 -0.1385  0.6033 -0.0507
 8345SOL    HW125934   0.063   1.714   4.055  0.7346  0.5481  0.5258
 8345SOL    HW225935  -0.079   1.777   4.105 -0.0105  0.0789 -0.9277
 8346SOL     OW25936   2.498   4.258   1.740 -0.1810 -0.5224 -0.0572
 8346SOL    HW125937   2.592   4.222   1.738 -0.8419 -2.3656 -0.4293
 8346SOL    HW225938   2.499   4.353   1.771  1.8291 -0.4007 -0.3564
 8347SOL     OW25939   3.165   6.323   5.032 -0.3057  0.1184 -0.2274
 8347SOL    HW125940   3.153   6.351   4.937  1.9936  0.6265 -0.4291
 8347SOL    HW225941   3.263   6.315   5.052 -0.7604 -1.9529  1.5433
 8348SOL     OW25942   2.116   6.966   6.731  0.6715  0.2224  0.5587
 8348SOL    HW125943   2.064   6.926   6.807 -0.1237  1.9553  0.9692
 8348SOL    HW225944   2.210   6.981   6.759  0.9798 -1.2576  0.4124
 8349SOL     OW25945   5.854   5.868   0.854 -1.2528  0.0589 -0.4174
 8349SOL    HW125946   5.799   5.831   0.929 -1.9358  0.7936 -0.5512
 8349SOL    HW225947   5.941   5.901   0.890 -0.7157 -1.4351 -0.2536
 8350SOL     OW25948   6.111   3.055   3.455 -0.1250  0.4200 -0.0497
 8350SOL    HW125949   6.084   3.122   3.387 -0.4746  0.5835  0.2442
 8350SOL    HW225950   6.042   3.050   3.527  1.5365  2.3486  1.8262
 8351SOL     OW25951   2.515   6.049   3.035 -0.0361 -0.3328  0.0664
 8351SOL    HW125952   2.482   5.967   3.082 -1.2362 -0.7770 -1.4503
 8351SOL    HW225953   2.496   6.041   2.937  3.5867 -0.0473 -0.7848
 8352SOL     OW25954   6.692   6.672   0.975 -0.1238 -0.1474 -0.3226
 8352SOL    HW125955   6.658   6.617   0.899 -1.4216  0.6348 -0.3443
 8352SOL    HW225956   6.791   6.686   0.965 -0.1106 -0.8479 -1.3362
 8353SOL     OW25957   1.521   3.853   3.401  0.1403 -0.6248 -0.2549
 8353SOL    HW125958   1.509   3.901   3.488 -0.0458 -0.6114 -0.2858
 8353SOL    HW225959   1.607   3.803   3.402 -0.7278 -2.2079  0.6993
 8354SOL     OW25960   3.544   6.635   2.025 -0.3742 -0.7871 -0.1577
 8354SOL    HW125961   3.633   6.674   2.051 -0.8459  1.2966 -1.4444
 8354SOL    HW225962   3.495   6.607   2.107 -0.6258  2.8502  1.0912
 8355SOL     OW25963   3.028   2.051   1.837  0.2271  0.1213  0.1246
 8355SOL    HW125964   3.124   2.067   1.860  0.7778  0.2318 -2.0641
 8355SOL    HW225965   3.019   1.967   1.784 -0.8589  0.2068  0.1416
 8356SOL     OW25966   2.514   4.112   6.893 -0.5437  0.0491 -0.2343
 8356SOL    HW125967   2.479   4.159   6.974 -2.5345 -1.8488  0.1129
 8356SOL    HW225968   2.438   4.087   6.833  0.6604 -0.6019 -1.5468
 8357SOL     OW25969   2.423   5.831   3.852 -0.2041  0.5595 -0.2372
 8357SOL    HW125970   2.518   5.855   3.871  0.9108 -2.4034 -1.5210
 8357SOL    HW225971   2.366   5.855   3.930  1.5238  2.6053  0.4713
 8358SOL     OW25972   2.714   1.433   3.527 -0.4591  0.3861  0.1703
 8358SOL    HW125973   2.650   1.474   3.463  1.0800  0.6589 -1.2793
 8358SOL    HW225974   2.764   1.505   3.575  1.2262  0.2900 -1.3255
 8359SOL     OW25975   3.822   6.098   5.168  0.3546 -0.3715  0.0269
 8359SOL    HW125976   3.878   6.180   5.160  0.6591 -0.7072 -1.9440
 8359SOL    HW225977   3.880   6.021   5.194 -0.0883  0.1316  2.8474
 8360SOL     OW25978   2.754   6.532   3.924 -0.3978  0.1637 -0.0716
 8360SOL    HW125979   2.688   6.605   3.905 -0.5423  0.1321  0.2969
 8360SOL    HW225980   2.720   6.475   3.999  1.1415  1.5939  1.8191
 8361SOL     OW25981   0.269   2.686   2.735 -0.2789 -0.9273  0.0389
 8361SOL    HW125982   0.231   2.704   2.644  1.0303 -2.0784 -0.7732
 8361SOL    HW225983   0.215   2.735   2.803 -0.1559  1.5421 -1.5021
 8362SOL     OW25984   2.604   2.112   1.684  0.1809 -0.2038 -0.2530
 8362SOL    HW125985   2.658   2.186   1.724 -0.0406 -1.7378  3.2134
 8362SOL    HW225986   2.521   2.097   1.738 -1.3300 -1.0818 -2.6277
 8363SOL     OW25987   0.156   3.978   2.544  0.3245  0.1452  0.2415
 8363SOL    HW125988   0.178   4.062   2.495 -1.4021  0.7343  0.4002
 8363SOL    HW225989   0.228   3.959   2.611  2.4316 -0.3656 -2.0241
 8364SOL     OW25990   0.588   3.489   3.778  0.5497 -0.3598 -0.2154
 8364SOL    HW125991   0.568   3.421   3.848  1.3522 -0.4827 -0.1004
 8364SOL    HW225992   0.558   3.579   3.810  0.1582 -0.5415 -0.0617
 8365SOL     OW25993   2.210   3.844   5.211 -0.2403 -0.0733  0.1355
 8365SOL    HW125994   2.284   3.911   5.215 -0.4123  0.1776 -0.8041
 8365SOL    HW225995   2.156   3.858   5.129  0.7438 -2.4376 -1.0287
 8366SOL     OW25996   1.736   6.790   3.332 -0.1640 -0.3185  0.5987
 8366SOL    HW125997   1.660   6.822   3.275 -1.8146 -1.3541  2.1133
 8366SOL    HW225998   1.815   6.769   3.274  0.0387  3.4634 -0.7729
 8367SOL     OW25999   6.632   5.406   3.458 -0.1478 -0.4564 -0.6098
 8367SOL    HW126000   6.606   5.348   3.535 -0.3875  0.7238  0.2254
 8367SOL    HW226001   6.618   5.502   3.482  1.3923  0.0295 -1.5197
 8368SOL     OW26002   3.742   5.621   6.545 -0.0984 -0.2222  0.3030
 8368SOL    HW126003   3.750   5.720   6.534  1.1006  0.0393  2.7911
 8368SOL    HW226004   3.834   5.580   6.546 -0.4501 -1.0416  1.4211
 8369SOL     OW26005   1.854   1.901   1.880  0.4748  0.2503  0.3275
 8369SOL    HW126006   1.779   1.948   1.928  0.3356  0.7608 -0.3687
 8369SOL    HW226007   1.934   1.961   1.878 -0.4538  1.5759 -2.7262
 8370SOL     OW26008   1.843   3.015   1.062  0.0715  0.0694 -0.3182
 8370SOL    HW126009   1.865   2.918   1.061  1.6517  0.3369  1.8876
 8370SOL    HW226010   1.889   3.061   0.986 -0.2336 -0.8048 -1.0404
 8371SOL     OW26011   1.756   2.393   0.552  0.1200  0.0449  0.2473
 8371SOL    HW126012   1.804   2.363   0.634  1.4305 -1.0349 -0.8770
 8371SOL    HW226013   1.696   2.320   0.520 -0.2816  0.4110  0.1492
 8372SOL     OW26014   6.224   6.658   5.910 -0.3073 -0.3047 -0.3676
 8372SOL    HW126015   6.310   6.657   5.859 -0.2863  0.4167 -0.3465
 8372SOL    HW226016   6.186   6.565   5.913  0.9439 -0.8056  0.4297
 8373SOL     OW26017   1.839   1.607   5.780  0.3206 -0.3116  0.2916
 8373SOL    HW126018   1.874   1.626   5.872  0.4282 -1.9171  0.6125
 8373SOL    HW226019   1.899   1.541   5.735  0.5155  0.7639 -1.1293
 8374SOL     OW26020   6.823   1.846   5.947 -0.3182  0.0060 -0.6818
 8374SOL    HW126021   6.779   1.791   5.875 -0.0020 -0.2083 -0.7128
 8374SOL    HW226022   6.862   1.928   5.906 -2.4659  1.2518 -0.3535
 8375SOL     OW26023   5.845   0.636   6.825 -0.1418  0.0925  0.1103
 8375SOL    HW126024   5.789   0.578   6.884 -1.6839  1.0408 -0.3887
 8375SOL    HW226025   5.919   0.676   6.879 -0.0863 -0.9413  0.8412
 8376SOL     OW26026   4.971   0.866   2.985 -0.4376  0.1344  0.0824
 8376SOL    HW126027   4.876   0.843   3.008 -0.6916  1.2618  0.2137
 8376SOL    HW226028   5.014   0.788   2.938 -1.3218 -0.5012  0.3029
 8377SOL     OW26029   4.661   5.780   0.553  0.3955  0.7139 -0.2095
 8377SOL    HW126030   4.740   5.729   0.588 -0.2951  0.4379  1.0006
 8377SOL    HW226031   4.660   5.871   0.595 -0.5775  0.2934  0.7221
 8378SOL     OW26032   5.086   2.468   3.101 -0.3907 -0.2368  0.1119
 8378SOL    HW126033   5.165   2.467   3.162 -0.2739  0.8163  0.0085
 8378SOL    HW226034   5.018   2.402   3.133  0.3820 -0.9098  0.3957
 8379SOL     OW26035   5.696   3.901   1.739 -0.1490  0.2109 -0.3666
 8379SOL    HW126036   5.666   3.932   1.829 -1.3663 -0.3410 -0.5674
 8379SOL    HW226037   5.795   3.882   1.742 -0.1373  0.3652  0.8018
 8380SOL     OW26038   5.783   0.544   3.831  0.6253  0.4675 -1.0733
 8380SOL    HW126039   5.795   0.501   3.920  0.4646  1.7945 -0.3830
 8380SOL    HW226040   5.692   0.522   3.795 -0.7205  2.6364  0.6988
 8381SOL     OW26041   1.895   3.558   4.654 -0.4220 -0.3524 -0.2214
 8381SOL    HW126042   1.882   3.586   4.749 -0.9971 -0.9512 -0.1167
 8381SOL    HW226043   1.982   3.594   4.620 -1.1168  1.5181 -0.1005
 8382SOL     OW26044   2.885   4.095   1.408  0.2561 -0.4335  0.0200
 8382SOL    HW126045   2.786   4.111   1.405  0.3705  0.4183  0.5404
 8382SOL    HW226046   2.932   4.170   1.361  0.7278 -0.0250  1.1166
 8383SOL     OW26047   3.666   2.016   5.221  0.3766  0.3817  0.5078
 8383SOL    HW126048   3.627   2.108   5.221 -0.4763  0.3236 -4.6047
 8383SOL    HW226049   3.592   1.949   5.222  0.7937 -0.0923  0.2080
 8384SOL     OW26050   6.805   6.655   1.863  0.1730  0.3865  0.5426
 8384SOL    HW126051   6.775   6.589   1.932  0.7908 -0.5525 -0.0467
 8384SOL    HW226052   6.747   6.647   1.782  1.5360 -1.0101 -0.3655
 8385SOL     OW26053   4.049   2.013   0.986 -0.0161  0.0059  0.2337
 8385SOL    HW126054   4.107   1.942   1.026 -1.4150 -1.0536  0.4326
 8385SOL    HW226055   4.019   2.076   1.057 -0.5502 -0.4898  0.4584
 8386SOL     OW26056   5.930   3.992   1.452  0.3202  0.3172  0.0297
 8386SOL    HW126057   5.838   4.032   1.455 -0.1163 -0.5944 -0.6399
 8386SOL    HW226058   5.998   4.063   1.469 -0.5044  1.0161  0.4871
 8387SOL     OW26059   6.270   1.013   3.196  0.3628  0.2744  0.0797
 8387SOL    HW126060   6.369   1.011   3.179  0.0788 -1.1169 -1.8294
 8387SOL    HW226061   6.247   0.940   3.260  0.1740 -2.4625 -2.8418
 8388SOL     OW26062   1.399   0.643   3.822  0.0837 -0.3965  0.1510
 8388SOL    HW126063   1.425   0.739   3.826 -0.9819  0.0905 -2.6628
 8388SOL    HW226064   1.475   0.589   3.786  0.2390 -0.4147  0.5022
 8389SOL     OW26065   0.242   3.638   5.610  0.1546  0.2840 -0.0105
 8389SOL    HW126066   0.224   3.702   5.684  1.0449 -0.0367  0.5021
 8389SOL    HW226067   0.310   3.677   5.548 -2.0020  1.4029 -1.8126
 8390SOL     OW26068   5.728   1.979   6.189 -0.9616 -0.1719  0.0935
 8390SOL    HW126069   5.716   1.893   6.240 -1.7355  1.0631  2.1129
 8390SOL    HW226070   5.815   1.975   6.140 -0.6977 -1.8862  0.6050
 8391SOL     OW26071   5.900   0.040   6.662 -0.2250  0.2617 -0.1856
 8391SOL    HW126072   5.981   0.029   6.604 -0.2755 -1.0524 -0.0446
 8391SOL    HW226073   5.870  -0.050   6.695 -1.6838  0.7383 -0.1432
 8392SOL     OW26074   3.602   3.420   4.825  0.0116 -0.3716  0.3470
 8392SOL    HW126075   3.690   3.411   4.872 -0.2882 -0.9967  0.8089
 8392SOL    HW226076   3.597   3.510   4.780  0.3807  0.1737  1.3651
 8393SOL     OW26077   6.455   0.145   5.015  0.2941 -0.2122  0.4232
 8393SOL    HW126078   6.482   0.064   5.068 -1.1678 -0.7979  0.3205
 8393SOL    HW226079   6.410   0.211   5.075 -3.0959 -1.6728 -0.2348
 8394SOL     OW26080   4.961   3.738   3.775 -0.0220  0.6998  0.5714
 8394SOL    HW126081   4.921   3.828   3.794 -2.6486  0.0457 -1.2464
 8394SOL    HW226082   4.922   3.671   3.838  0.6267  0.5355  0.8037
 8395SOL     OW26083   3.809   2.497   5.997 -0.6243  0.2143  0.0634
 8395SOL    HW126084   3.810   2.561   6.074 -1.4720 -1.3769  1.4704
 8395SOL    HW226085   3.886   2.515   5.937  1.3241  0.1981  2.4162
 8396SOL     OW26086   4.381   5.188   4.036  0.0967 -0.6077 -0.1852
 8396SOL    HW126087   4.407   5.092   4.044 -1.4723 -1.0095  0.4888
 8396SOL    HW226088   4.418   5.226   3.951  2.0397 -1.3470  0.2958
 8397SOL     OW26089   5.265   5.515   3.147 -0.9504 -0.0790 -0.4720
 8397SOL    HW126090   5.359   5.549   3.155 -1.0008  0.2014 -1.0261
 8397SOL    HW226091   5.224   5.550   3.063 -0.9597 -1.6363 -1.1425
 8398SOL     OW26092   6.116   1.633   0.024 -0.2442  0.3362  0.4215
 8398SOL    HW126093   6.205   1.610   0.065 -0.3387 -0.2118  0.3322
 8398SOL    HW226094   6.120   1.724  -0.017  0.7354 -0.2605 -0.8795
 8399SOL     OW26095   0.047   4.866   1.247 -0.5956 -0.4360 -0.5304
 8399SOL    HW126096   0.085   4.794   1.189 -0.4280  0.1334 -1.1338
 8399SOL    HW226097  -0.052   4.850   1.258 -1.0413  0.5286 -2.6293
 8400SOL     OW26098   1.098   0.462   5.249  0.1032  0.2525 -0.4271
 8400SOL    HW126099   1.106   0.545   5.194 -3.0061  0.2591 -1.0890
 8400SOL    HW226100   1.020   0.408   5.217  1.4299 -2.4875  0.6099
 8401SOL     OW26101   3.597   1.855   6.131  0.0345  0.4154 -0.3899
 8401SOL    HW126102   3.545   1.937   6.107 -1.3082  0.1106  1.2474
 8401SOL    HW226103   3.623   1.860   6.228 -1.1812 -1.6243  0.1036
 8402SOL     OW26104   3.197   1.005   6.367 -0.2483  0.2490 -0.0487
 8402SOL    HW126105   3.178   1.044   6.457 -2.2576  0.5409 -0.5619
 8402SOL    HW226106   3.233   0.912   6.378  0.1197  0.5069  1.0514
 8403SOL     OW26107   4.709   5.867   6.720  0.2175 -0.3473 -0.2586
 8403SOL    HW126108   4.725   5.837   6.814 -3.5050 -3.0903 -0.2692
 8403SOL    HW226109   4.677   5.962   6.721  2.5597  0.5044  0.8905
 8404SOL     OW26110   1.161   2.192   0.950  0.1731  0.0984  0.3316
 8404SOL    HW126111   1.203   2.274   0.988 -0.8103  0.7962 -0.0569
 8404SOL    HW226112   1.098   2.153   1.017  0.1693  0.0201  0.2828
 8405SOL     OW26113   4.156   6.886   6.239  0.1017  0.7214 -0.2624
 8405SOL    HW126114   4.238   6.937   6.266 -0.1517  2.0196 -1.7803
 8405SOL    HW226115   4.095   6.947   6.188 -1.7077 -0.2807  0.6200
 8406SOL     OW26116   1.017   0.735   5.634 -0.2485 -0.4604 -0.6185
 8406SOL    HW126117   1.041   0.788   5.553  0.4235 -1.0181 -0.7997
 8406SOL    HW226118   0.918   0.722   5.637 -0.3213 -0.0664 -1.1211
 8407SOL     OW26119   3.445   2.043   5.565  0.0083 -0.1824 -0.4238
 8407SOL    HW126120   3.445   1.954   5.519  0.3539  0.1269 -1.0381
 8407SOL    HW226121   3.453   2.029   5.664 -1.8063 -0.9053 -0.3442
 8408SOL     OW26122   2.883   3.478   6.680  0.4084 -0.3581  0.0083
 8408SOL    HW126123   2.863   3.389   6.639  0.7420  0.1730 -1.3542
 8408SOL    HW226124   2.979   3.502   6.663  0.8039 -0.4785  1.8423
 8409SOL     OW26125   5.464   0.629   1.385 -0.3958 -0.3420  1.1554
 8409SOL    HW126126   5.375   0.608   1.424 -0.6558 -1.1981  0.1495
 8409SOL    HW226127   5.460   0.620   1.286  0.2122  1.8833  0.8666
 8410SOL     OW26128   0.691   3.183   2.261  0.5644 -0.1006  0.1372
 8410SOL    HW126129   0.593   3.174   2.275  0.7766 -0.9589  1.3154
 8410SOL    HW226130   0.717   3.141   2.174  0.0678 -1.2204  0.5043
 8411SOL     OW26131   0.607   5.410   1.592  0.6257  0.2795 -0.3895
 8411SOL    HW126132   0.573   5.447   1.506 -1.4829 -1.3468 -0.3233
 8411SOL    HW226133   0.566   5.320   1.609  0.8062  0.6277  2.3982
 8412SOL     OW26134   3.668   3.328   6.314 -0.5560 -0.3373 -0.0752
 8412SOL    HW126135   3.641   3.381   6.395 -0.8441  0.3211 -0.5890
 8412SOL    HW226136   3.745   3.373   6.269  0.3345 -1.3047  0.4400
 8413SOL     OW26137   2.705   5.786   4.944  0.3354  0.4035 -0.6775
 8413SOL    HW126138   2.713   5.695   4.904 -2.8762 -1.0345  1.5747
 8413SOL    HW226139   2.636   5.838   4.894  0.6105  0.8297 -0.6231
 8414SOL     OW26140   1.107   6.699   0.662  0.1777  0.0001 -0.2446
 8414SOL    HW126141   1.114   6.765   0.736 -0.1205  1.8751 -1.8185
 8414SOL    HW226142   1.198   6.677   0.628  0.3468 -1.1840  0.8912
 8415SOL     OW26143   5.485   6.579   6.946  0.7056 -0.3120  0.1058
 8415SOL    HW126144   5.447   6.651   6.887  1.8945 -0.6100 -1.0905
 8415SOL    HW226145   5.583   6.594   6.956  0.6417 -0.7041  1.4435
 8416SOL     OW26146   1.901   1.497   5.147  0.3204  0.4947 -0.1303
 8416SOL    HW126147   1.817   1.533   5.188  0.5505  1.8446 -0.8165
 8416SOL    HW226148   1.878   1.422   5.085 -0.2989  0.3871  0.2185
 8417SOL     OW26149   6.689   3.574   6.242 -0.2764  0.2060 -0.1715
 8417SOL    HW126150   6.678   3.605   6.147  0.2587  0.7241 -0.0743
 8417SOL    HW226151   6.628   3.626   6.301 -0.2354  0.2428 -0.1621
 8418SOL     OW26152   6.065   6.720   1.448  0.4726  0.7424  0.5575
 8418SOL    HW126153   6.134   6.651   1.428 -1.0477  0.0365 -3.0772
 8418SOL    HW226154   6.099   6.810   1.421 -0.3184  0.2208 -2.6315
 8419SOL     OW26155   2.415   1.396   4.179  0.1046 -0.2091 -0.7615
 8419SOL    HW126156   2.474   1.451   4.239 -0.1673  1.2385 -1.7845
 8419SOL    HW226157   2.355   1.339   4.235 -0.5934  1.5874  0.3792
 8420SOL     OW26158   5.490   0.768   3.512 -0.2428  0.3403 -0.4484
 8420SOL    HW126159   5.511   0.670   3.520 -0.7404  0.0213 -2.4097
 8420SOL    HW226160   5.395   0.784   3.538 -0.0109  0.3950  0.3763
 8421SOL     OW26161   6.612   1.237   5.730  0.4054 -0.8720  0.2724
 8421SOL    HW126162   6.628   1.293   5.649 -0.0152 -0.2512  0.6099
 8421SOL    HW226163   6.600   1.141   5.702 -0.2064 -0.6023 -0.4532
 8422SOL     OW26164   4.863   1.052   5.483 -1.1381 -0.8026 -0.3920
 8422SOL    HW126165   4.805   1.049   5.565 -1.5949  0.5708 -0.6323
 8422SOL    HW226166   4.810   1.027   5.403 -0.9070 -1.3269 -0.3876
 8423SOL     OW26167   5.445   6.306   1.032  0.3500 -0.3032 -0.4055
 8423SOL    HW126168   5.421   6.221   0.986 -0.5811 -0.7055  0.7790
 8423SOL    HW226169   5.385   6.320   1.111  0.5839  1.3828 -0.4852
 8424SOL     OW26170   1.487   0.422   5.611  0.4939  0.3794 -0.2668
 8424SOL    HW126171   1.455   0.464   5.526  1.0605 -2.0891 -1.7898
 8424SOL    HW226172   1.579   0.384   5.597  0.4071 -0.4935  1.3218
 8425SOL     OW26173   3.737   3.301   3.939  0.4355 -0.2070 -0.8728
 8425SOL    HW126174   3.759   3.307   3.842  3.3503 -0.5623 -0.3067
 8425SOL    HW226175   3.676   3.222   3.954  0.4583 -0.5223 -2.3095
 8426SOL     OW26176   5.930   3.549   1.861 -0.2428  0.4007 -0.0098
 8426SOL    HW126177   5.863   3.511   1.925 -0.1030 -0.6867 -0.4816
 8426SOL    HW226178   6.018   3.560   1.907 -0.2184 -0.1069  0.0721
 8427SOL     OW26179   3.799   2.752   1.382 -0.6452  0.7058  0.0123
 8427SOL    HW126180   3.726   2.808   1.422  0.2437  0.5018  2.0533
 8427SOL    HW226181   3.888   2.785   1.414 -0.0394 -1.2000  0.4396
 8428SOL     OW26182   5.605   1.792   3.767  0.2594  0.0808 -0.7612
 8428SOL    HW126183   5.662   1.720   3.806  0.3390  0.0170 -0.9935
 8428SOL    HW226184   5.510   1.778   3.795  0.6534  1.4560  1.4824
 8429SOL     OW26185   3.815   0.162   3.815  0.1870 -0.2499  0.1992
 8429SOL    HW126186   3.736   0.103   3.800  0.2752 -0.6219  1.1301
 8429SOL    HW226187   3.899   0.111   3.798  0.2659 -0.4285  1.1169
 8430SOL     OW26188   5.497   6.607   6.289  0.0115 -0.1005  1.2164
 8430SOL    HW126189   5.587   6.596   6.330  0.0798 -0.6032  0.9495
 8430SOL    HW226190   5.490   6.546   6.209 -0.0184  1.0249  0.3342
 8431SOL     OW26191   1.593   1.993   6.220 -0.3220 -0.3022  0.4391
 8431SOL    HW126192   1.497   1.981   6.246 -0.1401 -0.2249  1.1664
 8431SOL    HW226193   1.602   2.074   6.162 -0.8971 -1.0975 -0.8007
 8432SOL     OW26194   0.857   6.090   0.167 -0.3566  0.0510 -0.0840
 8432SOL    HW126195   0.872   5.995   0.196  0.7316 -0.0455 -0.9050
 8432SOL    HW226196   0.860   6.150   0.247 -0.3758 -0.5340  0.3602
 8433SOL     OW26197   6.034   1.958   6.597 -0.0278 -0.0756 -0.1432
 8433SOL    HW126198   5.964   1.912   6.541  0.1181  1.3442 -1.5678
 8433SOL    HW226199   5.991   2.030   6.650  0.1520 -0.1062  0.0427
 8434SOL     OW26200   1.392   6.802   2.858  0.8422  0.1981 -0.1190
 8434SOL    HW126201   1.424   6.891   2.826 -0.6946  1.1832  0.9575
 8434SOL    HW226202   1.431   6.784   2.949 -0.2833  0.6343  0.4623
 8435SOL     OW26203   0.006   1.329   0.553 -0.1392 -0.2930  0.1930
 8435SOL    HW126204  -0.015   1.272   0.474  1.5595 -0.0654 -0.4726
 8435SOL    HW226205   0.084   1.388   0.531 -0.1650  0.3700  1.7736
 8436SOL     OW26206   0.889   5.681   3.309 -0.3128 -0.3194  0.5474
 8436SOL    HW126207   0.949   5.731   3.371 -1.1657  1.3046  0.1313
 8436SOL    HW226208   0.941   5.609   3.263  0.8585 -0.1139  1.4942
 8437SOL     OW26209   1.921   6.576   7.002 -0.0044 -0.4786 -0.4421
 8437SOL    HW126210   1.925   6.639   6.924 -1.6374  0.5536  0.2503
 8437SOL    HW226211   1.917   6.482   6.969 -1.9859 -0.0098 -1.6895
 8438SOL     OW26212   3.070   3.367   1.661  0.1032  0.0066  0.1836
 8438SOL    HW126213   3.035   3.281   1.696  0.2888 -0.3526 -0.4977
 8438SOL    HW226214   3.007   3.402   1.591  1.0669 -0.6296 -1.0292
 8439SOL     OW26215   4.888   4.389   2.466  0.4388 -0.2631 -0.0735
 8439SOL    HW126216   4.869   4.291   2.458  1.0622 -0.2191 -3.0103
 8439SOL    HW226217   4.817   4.441   2.420  1.9681  0.4328 -1.7720
 8440SOL     OW26218   2.990   2.231   2.317  0.7067 -0.4002 -0.5651
 8440SOL    HW126219   2.934   2.255   2.237 -1.5482  0.7317  1.2125
 8440SOL    HW226220   3.038   2.312   2.350 -1.1591  0.0661  1.1990
 8441SOL     OW26221   0.477   3.408   0.656  0.0658  0.2179 -0.2798
 8441SOL    HW126222   0.438   3.317   0.670  0.0810  0.1850 -0.4512
 8441SOL    HW226223   0.565   3.400   0.609  0.4539  0.2667  0.4212
 8442SOL     OW26224   2.664   2.388   6.331  0.2479  0.0544 -0.0651
 8442SOL    HW126225   2.725   2.467   6.322 -0.5070  0.4683 -1.9825
 8442SOL    HW226226   2.627   2.364   6.241 -0.0125 -2.1335  0.5625
 8443SOL     OW26227   1.851   2.726   3.237 -0.2772  0.3348 -0.8242
 8443SOL    HW126228   1.822   2.822   3.238 -0.0632  0.4038  0.7354
 8443SOL    HW226229   1.908   2.707   3.317 -0.8283 -1.2549 -0.7700
 8444SOL     OW26230   0.289   4.740   4.969  0.4718  0.1194 -0.3916
 8444SOL    HW126231   0.275   4.657   4.916  1.8113 -0.4166  0.0613
 8444SOL    HW226232   0.383   4.772   4.959 -0.0834  1.7640 -0.7835
 8445SOL     OW26233   4.255   0.001   5.945  0.1126  0.0230  0.3437
 8445SOL    HW126234   4.267   0.084   5.890 -0.3493 -0.0799  0.0818
 8445SOL    HW226235   4.164   0.003   5.987  0.2265 -0.1953  0.6016
 8446SOL     OW26236   0.629   0.402   3.787  0.6226  0.8908  0.0503
 8446SOL    HW126237   0.726   0.414   3.806  0.3302 -0.1257  2.5342
 8446SOL    HW226238   0.618   0.358   3.698  2.5486 -0.4362  0.4010
 8447SOL     OW26239   1.328   1.153   1.717 -0.7536 -0.1256 -0.1250
 8447SOL    HW126240   1.345   1.240   1.764  1.8889 -0.1142 -0.8910
 8447SOL    HW226241   1.316   1.080   1.784 -0.8779  0.4885  0.5323
 8448SOL     OW26242   2.982   0.894   1.957 -0.1461  0.4894 -0.2374
 8448SOL    HW126243   3.041   0.926   1.883 -0.4681 -2.7434 -2.0875
 8448SOL    HW226244   3.028   0.821   2.007 -1.6147 -0.4212 -0.1489
 8449SOL     OW26245   0.615   2.357   4.538  0.6777  0.0112  0.8025
 8449SOL    HW126246   0.581   2.280   4.485 -0.7210  0.5211  0.9198
 8449SOL    HW226247   0.558   2.370   4.619 -1.4299  3.3240 -0.9982
 8450SOL     OW26248   0.870   1.305   0.406  0.2702  0.1469  0.3520
 8450SOL    HW126249   0.856   1.339   0.313 -0.3017 -1.6417 -0.2595
 8450SOL    HW226250   0.968   1.306   0.427  0.3887  0.7345 -0.1939
 8451SOL     OW26251   5.190   3.799   0.686 -0.3012 -0.3829  0.4268
 8451SOL    HW126252   5.184   3.704   0.656  0.2911  0.5751 -3.1899
 8451SOL    HW226253   5.110   3.849   0.653  0.7923  0.9368 -0.3368
 8452SOL     OW26254   4.708   1.061   5.707 -0.8085  0.1318  0.0496
 8452SOL    HW126255   4.667   0.992   5.766 -0.1555 -0.6997 -0.4405
 8452SOL    HW226256   4.760   1.126   5.763  0.9980 -1.4698  0.3113
 8453SOL     OW26257   2.897   5.880   1.739  0.4539  0.2733 -0.0880
 8453SOL    HW126258   2.896   5.979   1.727 -3.5694  0.2346 -1.5591
 8453SOL    HW226259   2.835   5.855   1.813 -1.1837 -1.2116 -1.8548
 8454SOL     OW26260   6.217   0.207   6.984 -0.3212 -0.2594  0.2948
 8454SOL    HW126261   6.262   0.123   6.954 -0.4067 -0.6308  1.2015
 8454SOL    HW226262   6.205   0.268   6.905  0.5836 -0.6958 -0.1924
 8455SOL     OW26263   6.365   1.304   2.412  0.2840  0.1880  0.0698
 8455SOL    HW126264   6.441   1.244   2.437  0.0791 -0.8870 -1.6794
 8455SOL    HW226265   6.385   1.349   2.325 -1.4450 -0.9480 -0.9952
 8456SOL     OW26266   6.591   1.690   0.031 -0.0567  0.0403  0.4299
 8456SOL    HW126267   6.660   1.701   0.103 -0.0649 -0.1529  0.4664
 8456SOL    HW226268   6.543   1.777   0.018  0.6462  0.3634 -0.0531
 8457SOL     OW26269   0.404   5.731   4.320  0.1529  0.6432  0.5245
 8457SOL    HW126270   0.440   5.815   4.279 -2.6026  0.7807 -1.9408
 8457SOL    HW226271   0.311   5.747   4.353 -0.0817 -1.2278  0.8859
 8458SOL     OW26272   1.772   6.633   0.556 -0.1430 -0.0954 -1.0136
 8458SOL    HW126273   1.849   6.622   0.493  0.6125 -1.0028  0.0432
 8458SOL    HW226274   1.761   6.551   0.611 -1.0779  0.5069 -0.2625
 8459SOL     OW26275   2.370   0.198   5.216 -0.7061  0.4262 -0.0722
 8459SOL    HW126276   2.367   0.200   5.316 -0.9683 -3.2470  0.1452
 8459SOL    HW226277   2.453   0.245   5.184  0.4650 -0.0499  2.0396
 8460SOL     OW26278   3.110   3.851   3.008 -0.3687 -0.0237 -0.2488
 8460SOL    HW126279   3.128   3.756   2.984 -0.5397  0.0284 -0.5801
 8460SOL    HW226280   3.061   3.855   3.095 -2.8982 -0.3820 -1.5699
 8461SOL     OW26281   5.837   2.452   4.471  0.5206  0.1688  0.0368
 8461SOL    HW126282   5.851   2.481   4.377  0.9640  1.9251  0.5997
 8461SOL    HW226283   5.877   2.361   4.485  0.6829  0.0009 -1.3789
 8462SOL     OW26284   2.158   2.523   2.345  0.4686 -0.9166  0.1374
 8462SOL    HW126285   2.193   2.540   2.253  1.7469  1.1867  0.9497
 8462SOL    HW226286   2.192   2.434   2.378  1.6826 -0.7606 -0.6480
 8463SOL     OW26287   6.858   5.289   2.527 -0.3181  0.1000  0.1741
 8463SOL    HW126288   6.929   5.225   2.556  0.6389  0.8128 -0.4960
 8463SOL    HW226289   6.780   5.285   2.589  0.6325 -0.1622  1.3718
 8464SOL     OW26290   6.107   2.018   4.934 -0.1894  0.2407  0.2504
 8464SOL    HW126291   6.207   2.022   4.928 -0.0275 -1.5760  1.0723
 8464SOL    HW226292   6.067   2.091   4.878  1.5721  0.5902 -0.6171
 8465SOL     OW26293   2.371   2.974   6.365  0.4642  0.0264 -0.0097
 8465SOL    HW126294   2.455   3.029   6.365  0.3808  0.1966  1.9244
 8465SOL    HW226295   2.396   2.877   6.368  0.5768 -0.0340 -1.6041
 8466SOL     OW26296   5.267   0.430   4.689  0.1163 -0.5279  0.7393
 8466SOL    HW126297   5.213   0.359   4.643  1.2218  0.2432 -1.9119
 8466SOL    HW226298   5.231   0.520   4.664  1.1277 -0.0613  0.9323
 8467SOL     OW26299   3.008   5.154   1.551  0.2062 -0.7319 -0.5034
 8467SOL    HW126300   3.093   5.135   1.601 -0.4696 -1.2910  0.4673
 8467SOL    HW226301   2.956   5.070   1.541 -1.1358 -0.0792  0.6318
 8468SOL     OW26302   4.009   1.255   6.279  0.6627 -0.0497  0.3417
 8468SOL    HW126303   4.058   1.340   6.263  2.2166 -1.2613 -1.8792
 8468SOL    HW226304   3.947   1.237   6.202  0.8176 -1.2160  0.4703
 8469SOL     OW26305   5.247   2.848   6.554  0.3186 -0.5683  0.1831
 8469SOL    HW126306   5.281   2.797   6.475  1.3348 -0.4416  0.5191
 8469SOL    HW226307   5.235   2.786   6.631 -0.7898 -0.7134 -0.0981
 8470SOL     OW26308   1.076   3.714   6.777 -0.2629  0.2259 -0.2332
 8470SOL    HW126309   1.102   3.755   6.865 -2.1508 -0.7686  0.8761
 8470SOL    HW226310   1.139   3.743   6.706  2.1599  0.0207  1.7097
 8471SOL     OW26311   3.154   0.591   6.569 -0.0329  0.0722 -0.3975
 8471SOL    HW126312   3.205   0.579   6.654 -0.3835 -0.7757 -0.3026
 8471SOL    HW226313   3.109   0.681   6.570  0.2844  0.2283  0.1353
 8472SOL     OW26314   6.579   5.261   2.303 -0.6754  0.5323 -0.0754
 8472SOL    HW126315   6.502   5.217   2.257  0.2900 -1.0325 -0.2672
 8472SOL    HW226316   6.571   5.247   2.402 -1.4234  1.7306  0.0628
 8473SOL     OW26317   6.325   5.410   5.929  1.0432 -0.0706 -0.4165
 8473SOL    HW126318   6.334   5.381   6.025  0.0181 -1.1955 -0.6332
 8473SOL    HW226319   6.367   5.341   5.870  0.5596 -0.0138 -0.8364
 8474SOL     OW26320   6.194   5.961   5.827 -0.2083  0.1973  0.1737
 8474SOL    HW126321   6.204   5.924   5.920 -0.9266 -0.8058 -0.1333
 8474SOL    HW226322   6.147   5.894   5.770 -0.5789  1.1761 -0.6872
 8475SOL     OW26323   5.290   2.408   2.550  0.5479 -0.0857 -0.0369
 8475SOL    HW126324   5.267   2.317   2.517  1.6504  0.5857 -3.0573
 8475SOL    HW226325   5.234   2.430   2.630 -1.3670 -2.5228 -0.5763
 8476SOL     OW26326   4.805   0.673   1.571  0.1818 -0.3192  0.5650
 8476SOL    HW126327   4.815   0.772   1.558  0.2630 -0.2374  1.2224
 8476SOL    HW226328   4.826   0.649   1.666 -0.6196 -0.8649  0.6197
 8477SOL     OW26329   2.890   2.440   5.333 -0.2939  0.0758  0.1478
 8477SOL    HW126330   2.872   2.370   5.264 -1.3005 -0.0199  0.4901
 8477SOL    HW226331   2.815   2.506   5.334 -0.0926  0.3005  0.8707
 8478SOL     OW26332   0.311   3.257   5.794 -0.1577  0.5440  0.0466
 8478SOL    HW126333   0.227   3.203   5.783  0.6496 -1.7793  3.5047
 8478SOL    HW226334   0.307   3.306   5.881  2.2684 -0.0927  0.5887
 8479SOL     OW26335   5.839   4.694   6.332 -0.2089 -0.1303  0.0272
 8479SOL    HW126336   5.934   4.725   6.336 -0.0454 -0.7420  1.8937
 8479SOL    HW226337   5.835   4.604   6.290  0.2395 -0.6704  1.0873
 8480SOL     OW26338   3.285   0.962   2.469 -0.7649 -0.0921  0.3488
 8480SOL    HW126339   3.256   1.050   2.430  1.4855  0.8594  0.6811
 8480SOL    HW226340   3.327   0.978   2.559 -0.3638 -1.5265  0.4362
 8481SOL     OW26341   6.072   6.461   5.314  0.4039 -0.2141 -0.2419
 8481SOL    HW126342   6.099   6.365   5.327 -1.2306 -0.5873  0.6429
 8481SOL    HW226343   6.070   6.482   5.216  4.1021 -0.0358 -0.4147
 8482SOL     OW26344   0.929   0.608   0.843 -0.0557 -0.3249  0.6028
 8482SOL    HW126345   0.992   0.683   0.864  0.3754 -0.8211  1.1230
 8482SOL    HW226346   0.934   0.540   0.916 -0.9996 -0.5046  0.5101
 8483SOL     OW26347   3.783   6.471   3.651 -0.0620 -0.3219  0.8996
 8483SOL    HW126348   3.822   6.507   3.736 -0.4853 -0.9239  1.3567
 8483SOL    HW226349   3.793   6.372   3.650 -0.5433 -0.3660  0.4916
 8484SOL     OW26350   0.543   4.815   0.033  0.2781  0.6241  0.0469
 8484SOL    HW126351   0.568   4.739  -0.028  1.0507 -0.6723  1.8895
 8484SOL    HW226352   0.445   4.833   0.025  0.4774  0.9698 -2.0618
 8485SOL     OW26353   3.133   4.932   6.698 -0.0230 -0.5539  0.4498
 8485SOL    HW126354   3.165   4.869   6.628  0.2529 -0.2757  0.3226
 8485SOL    HW226355   3.202   5.002   6.714 -1.0816  0.8291 -0.7622
 8486SOL     OW26356   0.241   7.004   3.220 -0.5987 -0.3106 -0.1564
 8486SOL    HW126357   0.308   6.994   3.147  1.4374  0.2536  1.5323
 8486SOL    HW226358   0.252   7.093   3.264 -1.4964 -0.7766  1.1002
 8487SOL     OW26359   5.981   1.418   0.562 -0.1058  0.0688  0.6428
 8487SOL    HW126360   5.904   1.478   0.542 -1.5485 -2.3090 -1.4417
 8487SOL    HW226361   6.051   1.428   0.491 -0.2089 -0.4564  0.4629
 8488SOL     OW26362   0.524   4.046   6.929 -0.2648 -0.0009 -0.4682
 8488SOL    HW126363   0.577   3.962   6.919  0.1645  0.2579 -0.3619
 8488SOL    HW226364   0.546   4.108   6.853  0.8174  0.7777  0.4540
 8489SOL     OW26365   3.609   6.762   3.360  0.0860  0.2733 -0.1990
 8489SOL    HW126366   3.561   6.767   3.272  0.5480 -1.6129 -0.6087
 8489SOL    HW226367   3.590   6.674   3.403  1.5844  0.3027  0.5669
 8490SOL     OW26368   3.733   4.873   2.635  0.2649  0.9694  0.1600
 8490SOL    HW126369   3.759   4.809   2.562  1.9156 -0.0237  1.5488
 8490SOL    HW226370   3.656   4.929   2.604  0.9439  0.6393 -2.3592
 8491SOL     OW26371   0.211   6.223   3.449  0.4751  0.9863  0.2079
 8491SOL    HW126372   0.309   6.223   3.467  0.6044  1.9728 -0.4001
 8491SOL    HW226373   0.164   6.163   3.514  1.7276 -1.3962 -0.9523
 8492SOL     OW26374   0.365   4.263   4.609 -0.5420 -0.0518  0.1534
 8492SOL    HW126375   0.419   4.323   4.668 -0.0753 -0.3278  0.0153
 8492SOL    HW226376   0.281   4.236   4.656 -0.6253  0.4892  0.3189
 8493SOL     OW26377   4.801   2.956   6.965 -0.0513  0.6832  0.5875
 8493SOL    HW126378   4.812   2.857   6.962 -2.0832  0.4463 -0.4487
 8493SOL    HW226379   4.873   2.999   6.910  1.3111 -0.1358  1.6757
 8494SOL     OW26380   2.561   5.947   4.770 -0.4232 -0.8634  0.3351
 8494SOL    HW126381   2.512   5.886   4.709 -0.2359 -2.1334  1.4091
 8494SOL    HW226382   2.499   6.019   4.802 -1.0637 -1.3439  0.1918
 8495SOL     OW26383   6.781   3.611   5.949 -0.2059 -0.1475  0.9202
 8495SOL    HW126384   6.813   3.669   5.874  0.6153  0.5378  1.7654
 8495SOL    HW226385   6.686   3.586   5.935 -0.1595  0.2645 -0.1656
 8496SOL     OW26386   0.055   1.776   5.144 -0.2239 -0.5676  0.2633
 8496SOL    HW126387   0.116   1.849   5.113  0.1938 -0.6876  0.7803
 8496SOL    HW226388  -0.031   1.816   5.176 -0.3087 -0.3723 -0.1982
 8497SOL     OW26389   5.429   4.819   4.916 -0.3490 -0.0618  0.3591
 8497SOL    HW126390   5.497   4.892   4.910  0.1677 -0.3886  1.8508
 8497SOL    HW226391   5.475   4.730   4.912 -0.9546 -0.3313 -1.2462
 8498SOL     OW26392   1.112   1.278   2.928  0.1276 -0.6136 -0.2109
 8498SOL    HW126393   1.018   1.283   2.961  0.7261 -0.6000  1.5896
 8498SOL    HW226394   1.124   1.193   2.875 -0.6362 -1.1138  0.4019
 8499SOL     OW26395   6.498   3.177   6.112  0.7969  0.3003  0.4332
 8499SOL    HW126396   6.507   3.100   6.050  0.3302 -0.7080  1.5770
 8499SOL    HW226397   6.484   3.144   6.205  0.3898  1.7680  0.9303
 8500SOL     OW26398   1.625   6.388   5.069 -0.2728 -0.3066 -1.0044
 8500SOL    HW126399   1.674   6.319   5.014 -1.8755 -1.2418 -1.3388
 8500SOL    HW226400   1.623   6.475   5.020  1.3458 -0.1386 -0.8101
 8501SOL     OW26401   2.971   3.781   3.916 -0.0318 -0.3812 -0.0540
 8501SOL    HW126402   3.040   3.763   3.987 -0.1965  1.2940  0.5943
 8501SOL    HW226403   2.883   3.744   3.945  0.2674 -1.2253 -0.1977
 8502SOL     OW26404   6.807   5.137   2.003  0.6642  0.1962 -0.3845
 8502SOL    HW126405   6.871   5.173   1.936  0.6590  1.2080  0.1283
 8502SOL    HW226406   6.734   5.204   2.020  0.8697  0.1330  0.8918
 8503SOL     OW26407   5.572   6.264   2.777 -0.1137  0.3633  0.6279
 8503SOL    HW126408   5.475   6.260   2.803  0.0075  0.6305  1.1354
 8503SOL    HW226409   5.584   6.222   2.687 -0.3417 -1.8302  1.5656
 8504SOL     OW26410   0.440   6.280   2.365  0.1022 -0.4504  0.2649
 8504SOL    HW126411   0.517   6.329   2.406 -1.7259  0.1882  3.2450
 8504SOL    HW226412   0.409   6.328   2.283  0.9335  1.0441  0.7961
 8505SOL     OW26413   3.580   2.141   3.331 -0.0672 -0.4498 -0.0005
 8505SOL    HW126414   3.630   2.127   3.416  1.2042  2.7092 -0.0809
 8505SOL    HW226415   3.482   2.150   3.350  0.2586  0.7788  1.2706
 8506SOL     OW26416   2.742   4.679   5.715 -0.2606  0.0653  0.4445
 8506SOL    HW126417   2.655   4.696   5.668 -0.2548  1.5381  0.9315
 8506SOL    HW226418   2.734   4.708   5.811  0.7931  0.2743  0.4730
 8507SOL     OW26419   1.344   6.694   3.491  0.2946 -0.0416 -0.4300
 8507SOL    HW126420   1.303   6.719   3.403 -1.4265 -0.5910  0.1725
 8507SOL    HW226421   1.275   6.651   3.549  1.5639 -0.3020  0.9573
 8508SOL     OW26422   0.794   2.291   6.758  0.6673  0.2969 -0.5956
 8508SOL    HW126423   0.861   2.365   6.761 -0.2840  1.2143 -1.3848
 8508SOL    HW226424   0.707   2.323   6.796  1.0428 -1.3385  1.8955
 8509SOL     OW26425   6.685   2.458   3.865 -0.1532 -0.5346  0.1347
 8509SOL    HW126426   6.729   2.524   3.925  0.6035 -0.6536 -0.2785
 8509SOL    HW226427   6.754   2.410   3.811 -0.6437 -2.0596  0.8054
 8510SOL     OW26428   5.371   6.422   3.536 -0.6610 -0.7426 -0.4355
 8510SOL    HW126429   5.428   6.381   3.606 -0.8527 -0.4653 -0.1166
 8510SOL    HW226430   5.357   6.356   3.462  0.2650 -0.7280 -0.6370
 8511SOL     OW26431   6.631   5.680   0.497 -0.1996  0.2155  0.3154
 8511SOL    HW126432   6.683   5.765   0.496 -0.7282  0.5457  0.5042
 8511SOL    HW226433   6.591   5.664   0.406 -2.1343  1.4559  0.8872
 8512SOL     OW26434   4.212   2.183   0.269  0.1936  0.9019  0.0665
 8512SOL    HW126435   4.197   2.280   0.288  0.3041  1.4127 -2.2085
 8512SOL    HW226436   4.276   2.173   0.193 -0.1867 -0.9507 -0.0559
 8513SOL     OW26437   0.010   2.774   0.122 -0.3307  0.2758  0.3227
 8513SOL    HW126438  -0.039   2.707   0.178 -2.0424  1.5385  0.3905
 8513SOL    HW226439   0.068   2.830   0.181  1.2811 -1.2188  0.2413
 8514SOL     OW26440   2.194   3.372   5.162 -0.1446 -0.1622  0.1695
 8514SOL    HW126441   2.260   3.299   5.179  0.4358  0.7759  2.2936
 8514SOL    HW226442   2.112   3.334   5.119  1.4742 -1.4577 -2.0093
 8515SOL     OW26443   2.981   2.190   4.435  0.1983  0.1973 -0.1327
 8515SOL    HW126444   3.071   2.178   4.478 -0.2266 -1.0148  0.4500
 8515SOL    HW226445   2.910   2.156   4.497 -0.5691  0.0489 -1.0818
 8516SOL     OW26446   5.710   4.961   5.542  0.2608 -0.3447  0.0438
 8516SOL    HW126447   5.736   4.883   5.485 -0.2139 -0.8130  0.4476
 8516SOL    HW226448   5.782   4.980   5.609  0.5522 -0.1785 -0.3141
 8517SOL     OW26449   2.876   2.288   5.104  0.2769 -0.2428 -0.1947
 8517SOL    HW126450   2.824   2.341   5.038 -0.3511  1.4390  1.5516
 8517SOL    HW226451   2.973   2.288   5.079 -0.1379 -0.9335 -1.8955
 8518SOL     OW26452   5.724   4.791   6.559 -0.0283  0.0047  0.0517
 8518SOL    HW126453   5.776   4.877   6.556 -1.0867  0.6387 -2.9545
 8518SOL    HW226454   5.741   4.739   6.476 -2.7254 -0.6355 -0.1899
 8519SOL     OW26455   1.094   3.128   0.617 -0.0263  0.4339 -0.2949
 8519SOL    HW126456   1.146   3.207   0.585 -0.4712  1.0156  0.3963
 8519SOL    HW226457   1.004   3.128   0.572 -0.7625  1.4093  1.0941
 8520SOL     OW26458   3.582   2.996   5.978 -0.5970 -0.1356  0.1227
 8520SOL    HW126459   3.532   2.924   5.930 -0.9515  1.0001 -1.2646
 8520SOL    HW226460   3.518   3.064   6.013 -0.1890  0.1024  0.4185
 8521SOL     OW26461   2.023   1.248   4.142  0.0204 -1.0475  0.5694
 8521SOL    HW126462   2.054   1.311   4.213  0.4226 -1.7803  1.0611
 8521SOL    HW226463   2.092   1.244   4.070 -0.0857 -0.7954  0.4533
 8522SOL     OW26464   1.597   1.353   6.545  0.0349 -0.5908  0.2926
 8522SOL    HW126465   1.524   1.393   6.489 -1.3496  0.2335  2.5199
 8522SOL    HW226466   1.642   1.426   6.598  1.1833 -1.3362  0.3656
 8523SOL     OW26467   4.571   2.265   3.845  0.4464 -0.6169 -0.3307
 8523SOL    HW126468   4.528   2.185   3.803  2.3178 -1.5384 -0.5787
 8523SOL    HW226469   4.505   2.310   3.906 -1.2036 -1.2778 -1.5661
 8524SOL     OW26470   1.030   5.274   3.117 -0.0533 -0.6569 -0.3917
 8524SOL    HW126471   0.956   5.241   3.176  1.1394 -2.1256  0.3572
 8524SOL    HW226472   1.012   5.369   3.090 -0.9250 -0.0941  1.9202
 8525SOL     OW26473   6.752   2.226   1.220  0.3065  0.2951  0.1709
 8525SOL    HW126474   6.703   2.304   1.184 -0.4963  0.3034  1.2309
 8525SOL    HW226475   6.717   2.142   1.178 -0.8915  0.2690  1.1554
 8526SOL     OW26476   1.629   4.146   4.488 -0.1893 -0.0120  0.1352
 8526SOL    HW126477   1.589   4.238   4.483 -1.4161 -0.5743 -0.6779
 8526SOL    HW226478   1.587   4.095   4.563  0.6186  0.1377  0.6992
 8527SOL     OW26479   0.343   1.745   0.407 -0.1546  0.1995  0.2462
 8527SOL    HW126480   0.407   1.782   0.340  1.1779  0.0590  1.3764
 8527SOL    HW226481   0.264   1.806   0.414  1.3166  2.1602  1.0371
 8528SOL     OW26482   3.869   6.786   6.007 -0.2473  0.3708 -0.0322
 8528SOL    HW126483   3.949   6.762   6.060  0.0397  0.2195 -0.5305
 8528SOL    HW226484   3.786   6.762   6.058  0.0240  0.1368  0.2981
 8529SOL     OW26485   1.965   6.121   1.106 -0.2019 -0.4482  0.4489
 8529SOL    HW126486   2.048   6.177   1.099  0.1042 -0.5147  2.6674
 8529SOL    HW226487   1.983   6.044   1.168 -2.3095  0.3820  2.2391
 8530SOL     OW26488   3.760   3.410   2.036  0.0984  0.2308  0.3545
 8530SOL    HW126489   3.730   3.317   2.016 -1.3675  0.2716  2.1688
 8530SOL    HW226490   3.833   3.407   2.104 -2.2774  0.4288  3.1004
 8531SOL     OW26491   6.048   6.974   2.471  0.6827  0.5330 -0.3835
 8531SOL    HW126492   6.093   7.017   2.548  2.4517  0.5543 -1.3864
 8531SOL    HW226493   6.039   6.875   2.488 -0.8620  0.8273  0.7175
 8532SOL     OW26494   3.638   6.318   1.331 -0.0786 -0.3969  0.6734
 8532SOL    HW126495   3.707   6.248   1.346  1.1308  0.6461  0.1101
 8532SOL    HW226496   3.563   6.306   1.397  0.1835 -2.0856  0.6914
 8533SOL     OW26497   0.972   5.973   4.896  0.3123  0.2386  0.6922
 8533SOL    HW126498   0.903   5.972   4.824 -0.6637  0.1803  1.6063
 8533SOL    HW226499   0.985   6.067   4.928  0.9147  0.2968  0.2925
 8534SOL     OW26500   1.754   4.517   1.210 -0.2653 -0.0292  0.4012
 8534SOL    HW126501   1.719   4.607   1.237 -0.4307  0.0463 -0.0536
 8534SOL    HW226502   1.835   4.495   1.264 -0.0614  0.5140  0.3263
 8535SOL     OW26503   5.149   6.126   1.876 -0.6310  0.7539 -0.0570
 8535SOL    HW126504   5.188   6.215   1.853 -2.9942  1.5627 -1.3230
 8535SOL    HW226505   5.097   6.134   1.961  0.4884  0.1297  0.7058
 8536SOL     OW26506   2.675   1.267   3.774  0.1111  0.5210  0.0422
 8536SOL    HW126507   2.744   1.263   3.701  0.4677 -0.5137  0.4120
 8536SOL    HW226508   2.707   1.214   3.852 -0.9211  0.3975  0.3913
 8537SOL     OW26509   5.779   0.013   4.197 -0.1971  0.4007  0.5763
 8537SOL    HW126510   5.717   0.075   4.148 -0.9402 -0.8293 -0.0914
 8537SOL    HW226511   5.728  -0.037   4.267  0.0928 -0.3972  0.2346
 8538SOL     OW26512   6.366   2.498   6.425 -0.2920 -0.5515 -0.0163
 8538SOL    HW126513   6.466   2.495   6.433 -0.2773 -1.5305 -0.4731
 8538SOL    HW226514   6.334   2.420   6.372 -1.0541  1.2672 -2.4607
 8539SOL     OW26515   6.374   3.143   1.806  0.2050  0.0467  0.2964
 8539SOL    HW126516   6.385   3.044   1.796 -1.5323 -0.1525  0.0809
 8539SOL    HW226517   6.304   3.176   1.743 -1.7788  0.8095  2.6866
 8540SOL     OW26518   5.636   5.560   6.301 -0.1857 -0.4256  0.2035
 8540SOL    HW126519   5.541   5.578   6.276 -0.1601  0.0079  0.4067
 8540SOL    HW226520   5.696   5.614   6.243 -0.1512  1.1410  1.6294
 8541SOL     OW26521   1.594   2.910   4.093 -0.1646 -0.0222  0.0175
 8541SOL    HW126522   1.609   2.811   4.100 -1.8613 -0.3595 -0.4713
 8541SOL    HW226523   1.675   2.959   4.124  0.5176 -1.5602  0.7571
 8542SOL     OW26524   2.897   3.783   5.940 -0.4659  0.1155  0.2168
 8542SOL    HW126525   2.836   3.862   5.936  0.4068  0.9042  1.6319
 8542SOL    HW226526   2.957   3.783   5.859  0.1759  1.4744  0.6632
 8543SOL     OW26527   3.967   1.325   6.542 -0.1374  0.2937  0.2507
 8543SOL    HW126528   3.891   1.382   6.510  0.3972  0.9715  0.1597
 8543SOL    HW226529   4.011   1.280   6.464 -0.0456  0.4096  0.2357
 8544SOL     OW26530   5.376   4.241   4.480  0.0032  0.1176 -0.0569
 8544SOL    HW126531   5.330   4.281   4.401  0.2992 -0.2253 -0.4090
 8544SOL    HW226532   5.367   4.141   4.476  1.6307 -0.0274 -0.6746
 8545SOL     OW26533   4.874   5.756   3.039 -0.0167 -0.1266  0.6646
 8545SOL    HW126534   4.964   5.747   2.996  0.4462 -0.7255  1.7025
 8545SOL    HW226535   4.817   5.678   3.013  0.7417 -1.2431  2.1706
 8546SOL     OW26536   3.554   2.260   6.821 -0.1150  0.2155 -0.3176
 8546SOL    HW126537   3.587   2.226   6.732  0.5655  1.1993 -0.4535
 8546SOL    HW226538   3.624   2.243   6.890 -0.8364 -0.9794  0.1459
 8547SOL     OW26539   1.956   4.965   2.380  0.1512  0.1432 -0.1622
 8547SOL    HW126540   1.866   4.951   2.421  0.3301 -0.8214 -0.0825
 8547SOL    HW226541   2.006   5.033   2.432  0.4934 -1.2883  1.4600
 8548SOL     OW26542   5.606   2.397   4.273  0.6183  0.4936 -0.0692
 8548SOL    HW126543   5.512   2.413   4.244  1.1221  2.2072 -0.9131
 8548SOL    HW226544   5.607   2.335   4.351 -1.0733 -0.9594 -1.1208
 8549SOL     OW26545   3.490   3.168   4.923  0.0903  0.0810  0.3640
 8549SOL    HW126546   3.480   3.154   5.022 -0.9429 -1.5417  0.0522
 8549SOL    HW226547   3.526   3.260   4.907  1.1034  0.0859  2.2825
 8550SOL     OW26548   3.034   2.473   6.681 -0.0390  0.1705 -0.6070
 8550SOL    HW126549   3.073   2.450   6.592  0.9985 -0.2192 -0.0610
 8550SOL    HW226550   3.054   2.400   6.746 -0.9967  0.3398 -0.0997
 8551SOL     OW26551   4.170   3.850   5.905 -0.1183  0.0518  0.1667
 8551SOL    HW126552   4.158   3.766   5.852 -0.5021  0.3114 -0.1678
 8551SOL    HW226553   4.081   3.897   5.914  0.5298  1.9425 -2.2072
 8552SOL     OW26554   4.758   0.801   4.039  0.0156 -0.0479  0.1153
 8552SOL    HW126555   4.715   0.744   3.969 -0.5210  0.9565 -0.3949
 8552SOL    HW226556   4.837   0.753   4.077 -1.1176 -1.6358  0.5822
 8553SOL     OW26557   1.031   5.042   5.052 -0.0215  0.4894  0.2329
 8553SOL    HW126558   0.975   5.053   4.970  1.5138  0.6030 -0.8297
 8553SOL    HW226559   1.096   5.117   5.059 -0.2735  0.6071  1.7012
 8554SOL     OW26560   6.443   3.753   6.092 -0.1245 -0.1904  0.0943
 8554SOL    HW126561   6.412   3.666   6.055 -2.4178  0.3522  0.5699
 8554SOL    HW226562   6.447   3.747   6.192 -0.2721  0.2327  0.1276
 8555SOL     OW26563   1.265   5.079   3.454 -0.5818 -0.0446  0.5842
 8555SOL    HW126564   1.283   4.981   3.446 -1.1191 -0.2046  1.2094
 8555SOL    HW226565   1.301   5.127   3.374 -1.6808 -0.9537 -0.5018
 8556SOL     OW26566   6.490   6.723   6.513 -0.5481 -0.3100 -0.3911
 8556SOL    HW126567   6.513   6.815   6.547  0.1514 -0.1488 -1.2601
 8556SOL    HW226568   6.448   6.670   6.586 -1.6699  0.9561 -0.0738
 8557SOL     OW26569   0.300   0.073   1.378  0.3651  0.2763  0.0110
 8557SOL    HW126570   0.248   0.045   1.458 -0.6474 -1.2303 -1.1181
 8557SOL    HW226571   0.308  -0.004   1.315  0.1406  1.7127 -1.8585
 8558SOL     OW26572   0.918   3.421   2.370 -0.1258  0.5121  0.0818
 8558SOL    HW126573   0.902   3.385   2.278 -0.5852 -0.9136  0.6762
 8558SOL    HW226574   0.845   3.389   2.430  1.2222 -0.2617  1.3692
 8559SOL     OW26575   1.172   1.075   4.251 -0.0777  0.1469  0.4371
 8559SOL    HW126576   1.252   1.099   4.306 -0.1314 -0.0068  0.5859
 8559SOL    HW226577   1.178   0.978   4.225  0.5285  0.5005 -0.8115
 8560SOL     OW26578   5.716   4.689   6.806  0.3975  0.0189 -0.0441
 8560SOL    HW126579   5.748   4.596   6.789 -2.2158 -1.0696  0.4792
 8560SOL    HW226580   5.704   4.737   6.719  1.0672 -0.3866 -0.3647
 8561SOL     OW26581   6.615   6.890   5.805 -0.0231  0.1228 -0.9106
 8561SOL    HW126582   6.645   6.836   5.727  0.4185 -0.5841 -0.2632
 8561SOL    HW226583   6.594   6.830   5.882 -3.2643  0.5182 -1.3215
 8562SOL     OW26584   3.694   2.122   4.541 -0.3093  0.1106  0.0801
 8562SOL    HW126585   3.645   2.171   4.469 -0.4229  2.1844  1.4933
 8562SOL    HW226586   3.695   2.025   4.520 -2.8621  0.2918 -1.2439
 8563SOL     OW26587   3.447   3.216   6.633  0.2472  0.4203 -0.1935
 8563SOL    HW126588   3.458   3.299   6.579  1.0435  1.5592  1.6174
 8563SOL    HW226589   3.512   3.217   6.709 -0.4435 -1.3754  0.4738
 8564SOL     OW26590   2.011   5.421   4.499 -0.4171 -0.2953  0.2295
 8564SOL    HW126591   2.056   5.417   4.588 -2.0709 -0.6421  1.0895
 8564SOL    HW226592   1.968   5.333   4.480 -3.1336  0.8103  0.7977
 8565SOL     OW26593   2.757   1.189   0.983 -0.2895  0.2759 -0.4764
 8565SOL    HW126594   2.792   1.282   0.989 -0.1804  0.3336 -1.7168
 8565SOL    HW226595   2.832   1.124   0.989 -0.5164  0.1260  2.3174
 8566SOL     OW26596   0.953   4.510   4.724  0.1149  0.4446  0.2424
 8566SOL    HW126597   1.015   4.481   4.652  1.1055  4.3348 -0.7047
 8566SOL    HW226598   0.859   4.491   4.696  0.5813 -3.8100  0.8787
 8567SOL     OW26599   5.324   0.104   6.755 -0.0559 -0.3083  0.5482
 8567SOL    HW126600   5.308   0.044   6.834  2.6064  1.7362  2.8440
 8567SOL    HW226601   5.377   0.055   6.687  0.4074 -1.1817  1.5009
 8568SOL     OW26602   5.956   6.694   1.139  0.0562  0.0567  0.1942
 8568SOL    HW126603   6.045   6.738   1.154 -0.3318  0.7727  0.4593
 8568SOL    HW226604   5.941   6.682   1.041 -0.1392  1.2057  0.0640
 8569SOL     OW26605   3.839   0.337   5.369  0.6660  0.1373 -0.7364
 8569SOL    HW126606   3.905   0.411   5.351  0.7741  0.3947  0.6515
 8569SOL    HW226607   3.850   0.305   5.463 -1.8266  0.8327 -0.1516
 8570SOL     OW26608   6.981   2.021   0.637 -0.8286  0.5840 -0.4182
 8570SOL    HW126609   6.896   2.059   0.673 -0.3420 -0.8365  2.5195
 8570SOL    HW226610   7.044   2.003   0.712  1.2020 -0.5310 -2.2750
 8571SOL     OW26611   1.129   5.007   0.085 -0.7358 -0.0001 -0.5341
 8571SOL    HW126612   1.093   4.944   0.153  2.1532 -1.8531 -0.5572
 8571SOL    HW226613   1.202   5.062   0.127 -1.6171  1.6996 -1.1466
 8572SOL     OW26614   2.414   5.148   6.001 -0.0762  0.0560 -0.0281
 8572SOL    HW126615   2.364   5.076   5.952  0.9196 -0.4161 -0.3892
 8572SOL    HW226616   2.492   5.108   6.049  0.2486  0.8385  0.1196
 8573SOL     OW26617   2.292   5.726   4.315 -0.0578  0.5100  0.1104
 8573SOL    HW126618   2.391   5.740   4.306 -0.3401  2.6961 -0.2762
 8573SOL    HW226619   2.245   5.777   4.242 -1.5538  1.3019  1.5614
 8574SOL     OW26620   1.038   4.238   4.792 -0.5274  0.3202 -0.5154
 8574SOL    HW126621   1.024   4.335   4.809  0.8193  0.6655 -1.2557
 8574SOL    HW226622   1.059   4.192   4.878  0.9768  1.0924 -0.4346
 8575SOL     OW26623   3.261   2.995   5.208 -0.3240  0.6170  0.2573
 8575SOL    HW126624   3.181   3.049   5.182 -0.6953  0.4286  0.9764
 8575SOL    HW226625   3.317   3.047   5.272 -1.2966 -0.2531  1.8870
 8576SOL     OW26626   1.348   0.634   1.087  0.6017 -0.4053  0.1692
 8576SOL    HW126627   1.389   0.589   1.167  1.0526  0.2838  0.3301
 8576SOL    HW226628   1.360   0.574   1.007 -1.0364 -1.7125  0.8450
 8577SOL     OW26629   6.032   5.230   4.760  0.0165  0.2289 -0.1023
 8577SOL    HW126630   6.059   5.169   4.686  0.3378 -0.8398  0.8604
 8577SOL    HW226631   5.947   5.276   4.737 -1.3362 -2.1298 -0.0446
 8578SOL     OW26632   5.130   1.158   3.763  0.1273  0.2120  0.6653
 8578SOL    HW126633   5.206   1.109   3.721  2.3128  1.0818  3.3337
 8578SOL    HW226634   5.085   1.099   3.830 -0.4879  0.2658  0.3141
 8579SOL     OW26635   0.155   3.460   4.366 -0.6014  0.5961  0.3201
 8579SOL    HW126636   0.112   3.385   4.316  0.4213 -0.4086  0.8979
 8579SOL    HW226637   0.166   3.433   4.462 -0.0812  1.4354  0.5032
 8580SOL     OW26638   2.519   0.396   6.656 -0.5761 -0.0559  0.2061
 8580SOL    HW126639   2.452   0.467   6.634 -1.1012 -0.7092 -0.3655
 8580SOL    HW226640   2.610   0.426   6.627 -0.6319  0.7912  0.8870
 8581SOL     OW26641   3.746   1.977   6.830  0.3104 -0.2558 -0.4185
 8581SOL    HW126642   3.840   1.944   6.828 -0.0342 -1.2607 -0.6680
 8581SOL    HW226643   3.732   2.033   6.912  1.2785  0.4159 -0.7005
 8582SOL     OW26644   2.433   5.673   0.870 -0.3160  0.1256 -0.5940
 8582SOL    HW126645   2.438   5.618   0.787  0.0287 -1.3147  0.3478
 8582SOL    HW226646   2.341   5.711   0.878 -1.2366 -2.0054 -0.2740
 8583SOL     OW26647   5.508   5.899   3.190 -0.6679 -0.0595  0.0284
 8583SOL    HW126648   5.516   5.936   3.097 -0.0005  1.1654  0.5483
 8583SOL    HW226649   5.445   5.821   3.189  0.7426 -1.2729 -1.7684
 8584SOL     OW26650   0.005   5.712   0.006 -0.4375 -0.0886  0.0660
 8584SOL    HW126651   0.041   5.788  -0.048  0.4567 -0.3221  0.3285
 8584SOL    HW226652   0.069   5.636   0.003  0.5300  0.5217  2.9443
 8585SOL     OW26653   3.155   1.628   0.514 -0.1981  0.3685 -0.3223
 8585SOL    HW126654   3.111   1.678   0.440 -1.3271  2.0208  1.3889
 8585SOL    HW226655   3.098   1.633   0.597  1.1887 -1.0827  0.7829
 8586SOL     OW26656   3.708   5.214   3.052  0.0414  0.4537  0.0600
 8586SOL    HW126657   3.770   5.153   3.002  0.4752 -0.9604  2.2250
 8586SOL    HW226658   3.745   5.231   3.143 -2.0811  0.7129  0.9121
 8587SOL     OW26659   1.236   1.001   2.317 -0.3866  0.3911  0.1892
 8587SOL    HW126660   1.251   1.065   2.241  1.8700  0.0619  0.2911
 8587SOL    HW226661   1.138   0.993   2.335 -1.1223 -0.4332 -3.4584
 8588SOL     OW26662   5.413   4.462   5.934  0.0899  0.0432  0.1807
 8588SOL    HW126663   5.376   4.555   5.944 -1.5383 -0.6869  1.5866
 8588SOL    HW226664   5.363   4.414   5.863 -1.7557 -0.9208  2.0292
 8589SOL     OW26665   3.493   1.174   6.063 -0.4531 -0.1425 -0.3043
 8589SOL    HW126666   3.496   1.077   6.042  0.6026 -0.3759  0.7862
 8589SOL    HW226667   3.540   1.226   5.991  0.8787 -0.6710  0.1447
 8590SOL     OW26668   6.560   4.817   6.436  0.2825 -0.0789 -0.2072
 8590SOL    HW126669   6.609   4.898   6.469  0.9301 -0.0552 -1.1858
 8590SOL    HW226670   6.497   4.843   6.363  1.3173 -0.5936 -1.3244
 8591SOL     OW26671   1.570   3.019   1.128  0.2651 -0.1485  0.0588
 8591SOL    HW126672   1.664   2.990   1.111  0.0064 -0.6616 -0.5251
 8591SOL    HW226673   1.527   3.045   1.041  0.2314  1.2179  0.4621
 8592SOL     OW26674   5.796   6.464   6.147  0.2435  0.2518 -0.0171
 8592SOL    HW126675   5.807   6.519   6.229 -1.0789  0.3315  0.1282
 8592SOL    HW226676   5.827   6.516   6.067  0.3502  0.6563  0.2876
 8593SOL     OW26677   0.799   5.266   2.216  0.5411  0.3432 -0.2435
 8593SOL    HW126678   0.871   5.270   2.147  1.1072  0.2583  0.3294
 8593SOL    HW226679   0.710   5.262   2.171  0.8283  1.5077 -0.9672
 8594SOL     OW26680   3.737   3.134   2.932  0.1473 -0.2190  0.1707
 8594SOL    HW126681   3.703   3.151   2.839 -1.3520  0.2632  0.7767
 8594SOL    HW226682   3.729   3.036   2.953  0.7932 -0.3798 -0.3132
 8595SOL     OW26683   0.724   4.672   3.801 -0.2949  0.3670  0.4384
 8595SOL    HW126684   0.820   4.662   3.774 -0.4851  3.8143 -2.1659
 8595SOL    HW226685   0.719   4.689   3.900  2.1588  2.9436  0.2462
 8596SOL     OW26686   6.787   4.372   2.792  0.2241 -0.2693 -0.7280
 8596SOL    HW126687   6.775   4.274   2.812 -1.8595  0.1860  0.5198
 8596SOL    HW226688   6.835   4.416   2.867 -1.1980  0.1144 -0.0069
 8597SOL     OW26689   2.551   2.932   6.697  0.2389  0.0772  0.2851
 8597SOL    HW126690   2.579   3.016   6.743 -0.4876 -0.6820  2.1982
 8597SOL    HW226691   2.451   2.923   6.702  0.1115  0.0021 -1.5731
 8598SOL     OW26692   3.549   1.892   1.495  0.2575 -0.5136 -0.4198
 8598SOL    HW126693   3.481   1.964   1.509  0.1015 -0.0484 -2.9771
 8598SOL    HW226694   3.576   1.854   1.583 -1.0773  1.3428  0.8803
 8599SOL     OW26695   5.376   1.958   0.855 -0.3579 -0.3266  0.6280
 8599SOL    HW126696   5.297   1.955   0.915 -1.1460 -0.1635 -0.3768
 8599SOL    HW226697   5.431   1.875   0.869  0.2280  0.3318  2.5250
 8600SOL     OW26698   0.945   2.287   6.116  0.9426  0.2014 -0.1067
 8600SOL    HW126699   0.893   2.206   6.143  3.2572 -1.2024  0.3936
 8600SOL    HW226700   0.914   2.366   6.169 -0.9242 -0.4590 -0.1366
 8601SOL     OW26701   0.398   0.542   3.818 -0.2575 -0.1619 -0.8067
 8601SOL    HW126702   0.486   0.495   3.808  0.7477  1.5383 -0.3888
 8601SOL    HW226703   0.366   0.533   3.913  0.5342  0.9162 -0.4071
 8602SOL     OW26704   0.782   6.241   3.061  0.0077 -0.0459 -0.3200
 8602SOL    HW126705   0.875   6.263   3.089 -0.1377  1.3827 -0.8514
 8602SOL    HW226706   0.729   6.213   3.140  0.7227 -0.2555  0.0922
 8603SOL     OW26707   3.882   5.686   1.492 -0.0508  0.0818 -0.1873
 8603SOL    HW126708   3.898   5.588   1.498  0.5385  0.2773  2.6682
 8603SOL    HW226709   3.951   5.727   1.431  1.0795 -1.0110  0.3000
 8604SOL     OW26710   6.724   5.152   3.990  0.0488  0.1640  0.4247
 8604SOL    HW126711   6.645   5.191   3.942 -0.9345 -1.7499  0.4119
 8604SOL    HW226712   6.702   5.061   4.023  1.9278 -0.0012  1.3780
 8605SOL     OW26713   2.475   5.481   3.282 -0.0459 -0.3296  0.5944
 8605SOL    HW126714   2.399   5.521   3.231  0.6038  0.9012  0.5369
 8605SOL    HW226715   2.556   5.539   3.272  1.1851 -2.0729 -0.0826
 8606SOL     OW26716   3.258   5.059   5.527 -0.3339  0.1705 -0.0338
 8606SOL    HW126717   3.158   5.054   5.529 -0.3454 -0.5430 -1.3321
 8606SOL    HW226718   3.288   5.098   5.440  0.5282  0.6081  0.4409
 8607SOL     OW26719   1.951   2.095   0.465  0.1560 -0.6409  1.0953
 8607SOL    HW126720   1.934   2.109   0.562 -1.6142  1.2053  0.5771
 8607SOL    HW226721   1.878   2.041   0.425 -1.8682  2.6837 -0.0700
 8608SOL     OW26722   5.417   6.083   2.245  0.3958  0.1896  0.2339
 8608SOL    HW126723   5.423   6.095   2.146  2.7603  0.5174  0.3715
 8608SOL    HW226724   5.475   6.007   2.273  1.9555  1.8259  1.6378
 8609SOL     OW26725   5.365   5.088   4.787  0.1946  0.2818  0.2872
 8609SOL    HW126726   5.291   5.046   4.839  0.1448 -1.3068 -0.9808
 8609SOL    HW226727   5.372   5.043   4.697  0.4925  2.6649 -0.9558
 8610SOL     OW26728   0.137   6.652   4.316 -0.3000 -0.5794 -0.0824
 8610SOL    HW126729   0.177   6.744   4.314 -1.1242 -0.2177 -1.4524
 8610SOL    HW226730   0.156   6.606   4.229  0.2595 -1.7873  0.6647
 8611SOL     OW26731   0.075   1.901   1.510 -0.2035  0.3375  0.0022
 8611SOL    HW126732   0.006   1.851   1.562 -0.0995  0.8450  0.6299
 8611SOL    HW226733   0.066   1.999   1.528  0.1700  0.4705 -0.5297
 8612SOL     OW26734   4.717   4.294   3.998  0.1063 -0.2156  0.1245
 8612SOL    HW126735   4.738   4.282   4.095 -0.7976 -1.6169  0.1887
 8612SOL    HW226736   4.651   4.368   3.987  0.9803  0.6337  0.4581
 8613SOL     OW26737   0.563   0.517   0.351 -0.0078  0.2238  0.0552
 8613SOL    HW126738   0.526   0.451   0.286 -0.9859  0.4442  0.3660
 8613SOL    HW226739   0.602   0.469   0.429  0.0364 -0.0075 -0.1090
 8614SOL     OW26740   1.884   2.215   4.197  0.2985 -0.0286  0.1786
 8614SOL    HW126741   1.835   2.186   4.114 -0.3024 -0.7810  0.7821
 8614SOL    HW226742   1.921   2.134   4.243 -0.5929  0.2361  1.3943
 8615SOL     OW26743   3.921   6.484   5.439 -0.3503 -0.1745 -0.4451
 8615SOL    HW126744   3.942   6.580   5.457 -0.7390 -0.0361 -0.7306
 8615SOL    HW226745   3.825   6.474   5.416 -0.2036 -0.5656 -0.9004
 8616SOL     OW26746   1.271   5.192   0.211  0.4023  0.2246  0.2748
 8616SOL    HW126747   1.207   5.177   0.287  0.5316  0.2734  0.3939
 8616SOL    HW226748   1.326   5.273   0.230  1.2269 -0.4114  0.6707
 8617SOL     OW26749   0.427   3.695   0.040 -0.2851  0.1584  0.6184
 8617SOL    HW126750   0.483   3.647  -0.027 -1.6827 -0.5413 -0.0993
 8617SOL    HW226751   0.331   3.688   0.014 -0.6711  1.9688  1.4016
 8618SOL     OW26752   2.441   0.564   5.431  0.5466 -0.2745  0.5761
 8618SOL    HW126753   2.502   0.515   5.370  0.4138  1.6451 -1.2083
 8618SOL    HW226754   2.349   0.566   5.392  0.3675  0.6603  1.0129
 8619SOL     OW26755   5.399   0.616   6.492 -0.2113 -0.0029  0.5865
 8619SOL    HW126756   5.367   0.617   6.397 -0.0355  2.0663  0.4954
 8619SOL    HW226757   5.324   0.588   6.552 -0.9012  0.5363 -0.0009
 8620SOL     OW26758   2.987   6.589   4.153 -0.0425  0.1657  0.3026
 8620SOL    HW126759   3.054   6.627   4.090  0.3742 -2.6213 -1.0599
 8620SOL    HW226760   2.895   6.618   4.125  0.3098  1.0559  0.0143
 8621SOL     OW26761   6.697   3.835   3.158  0.1508  0.0083 -0.1966
 8621SOL    HW126762   6.733   3.888   3.234  3.2346 -1.1188 -0.6996
 8621SOL    HW226763   6.750   3.856   3.075 -1.4996 -0.5982 -1.4708
 8622SOL     OW26764   5.255   5.495   4.231 -0.0244 -0.5910 -0.5052
 8622SOL    HW126765   5.205   5.582   4.232 -0.9785 -1.0899  2.0103
 8622SOL    HW226766   5.229   5.443   4.150 -1.1854  0.4913 -0.8627
 8623SOL     OW26767   4.740   1.907   4.280 -0.5218 -0.4290  0.0978
 8623SOL    HW126768   4.667   1.886   4.345  0.1023  0.1288  1.0046
 8623SOL    HW226769   4.821   1.851   4.301 -0.3932 -0.4163 -0.3520
 8624SOL     OW26770   0.318   2.491   4.418  0.8097  0.0584 -0.1056
 8624SOL    HW126771   0.272   2.569   4.459 -0.8773 -0.8045 -0.2936
 8624SOL    HW226772   0.416   2.510   4.412  0.5502  1.8067  0.6067
 8625SOL     OW26773   4.496   6.743   6.507 -0.3345  0.3516 -0.1780
 8625SOL    HW126774   4.424   6.733   6.576  1.3837  0.2674  1.7341
 8625SOL    HW226775   4.573   6.793   6.547  1.7366 -1.8022 -1.1942
 8626SOL     OW26776   3.109   4.017   2.004  0.1478 -0.0993  0.6438
 8626SOL    HW126777   3.035   4.067   2.049 -0.6370 -1.4980  0.9584
 8626SOL    HW226778   3.192   4.024   2.060  0.0980  0.9549  0.6027
 8627SOL     OW26779   3.992   0.245   6.797  0.0177  0.0356  0.1036
 8627SOL    HW126780   4.033   0.237   6.706  0.6602 -0.3525  0.4261
 8627SOL    HW226781   4.038   0.183   6.861 -0.4995  0.2248  0.6722
 8628SOL     OW26782   4.702   5.723   1.244  0.1114  0.0766 -0.3974
 8628SOL    HW126783   4.688   5.688   1.337  0.4663  1.9278  0.3979
 8628SOL    HW226784   4.687   5.822   1.243 -1.1540 -0.0873 -2.6124
 8629SOL     OW26785   6.499   4.899   2.522 -0.2117  0.4612 -0.0026
 8629SOL    HW126786   6.553   4.952   2.586 -1.1714  2.5529 -0.8450
 8629SOL    HW226787   6.557   4.865   2.448  0.7376 -1.2452  1.4557
 8630SOL     OW26788   6.974   4.143   3.409  0.0983  0.1399  0.0387
 8630SOL    HW126789   6.907   4.212   3.437 -0.3678 -0.3848  0.2521
 8630SOL    HW226790   7.066   4.172   3.436  0.0240  1.1196 -0.7316
 8631SOL     OW26791   3.711   6.031   4.405  0.0065 -0.1531  0.1500
 8631SOL    HW126792   3.685   5.953   4.461 -0.8238 -0.0579 -0.0820
 8631SOL    HW226793   3.670   6.114   4.442  0.2374  0.0567 -0.0546
 8632SOL     OW26794   1.690   1.431   1.708 -0.2792  0.9270  0.0971
 8632SOL    HW126795   1.680   1.332   1.709  0.6829  0.7581 -2.0349
 8632SOL    HW226796   1.717   1.463   1.799 -1.0526 -0.6930  0.9231
 8633SOL     OW26797   5.281   3.313   2.347 -0.6916 -0.0800 -0.2537
 8633SOL    HW126798   5.189   3.275   2.339 -1.5215  2.0211 -1.4439
 8633SOL    HW226799   5.322   3.320   2.256 -0.2854  1.1450  0.0030
 8634SOL     OW26800   4.732   5.426   2.689 -0.5050  0.1152  0.1559
 8634SOL    HW126801   4.826   5.393   2.692 -0.8497 -1.3053 -2.1855
 8634SOL    HW226802   4.702   5.434   2.594 -1.6324  4.0054  0.6572
 8635SOL     OW26803   5.084   3.284   0.423  0.4170  0.2235 -0.4850
 8635SOL    HW126804   5.140   3.299   0.342 -0.3441  0.5329 -0.9625
 8635SOL    HW226805   5.004   3.229   0.399  0.6943 -0.5393  0.2683
 8636SOL     OW26806   4.954   1.905   6.784 -0.5975  0.2328 -0.2641
 8636SOL    HW126807   4.997   1.912   6.874 -0.8415  0.4983 -0.1638
 8636SOL    HW226808   5.002   1.963   6.718  0.3732 -0.9465 -0.6259
 8637SOL     OW26809   0.572   1.977   2.484  0.1375 -0.3486 -0.4508
 8637SOL    HW126810   0.650   2.001   2.426  2.0227  0.9641  2.4015
 8637SOL    HW226811   0.517   2.059   2.502 -2.4975 -1.3870 -3.0244
 8638SOL     OW26812   6.226   3.506   1.693 -0.0587 -0.1088  0.2714
 8638SOL    HW126813   6.145   3.524   1.637 -0.9656 -1.5913  1.0566
 8638SOL    HW226814   6.205   3.525   1.789  1.2570  1.7019  0.2535
 8639SOL     OW26815   6.396   2.114   3.753  0.3272 -0.0538  0.9841
 8639SOL    HW126816   6.357   2.123   3.661 -0.7031 -1.1322  1.2893
 8639SOL    HW226817   6.405   2.205   3.794 -0.2003  0.3555  0.2180
 8640SOL     OW26818   4.733   5.554   2.908  0.2416  0.8318 -0.2062
 8640SOL    HW126819   4.652   5.610   2.925 -1.6842 -1.7415 -0.2934
 8640SOL    HW226820   4.735   5.526   2.812  0.8885  0.3323 -0.0570
 8641SOL     OW26821   6.587   5.965   3.077  0.3843 -0.1702  0.3118
 8641SOL    HW126822   6.488   5.953   3.084  0.3711 -1.4398 -1.5386
 8641SOL    HW226823   6.617   5.943   2.984  2.2784  1.2468  0.5311
 8642SOL     OW26824   3.771   0.912   1.455  0.2599  0.1699  0.0618
 8642SOL    HW126825   3.823   0.983   1.408 -1.1667  0.3269 -1.3743
 8642SOL    HW226826   3.747   0.943   1.547  0.2011  1.2964 -0.3245
 8643SOL     OW26827   5.005   0.007   1.302 -0.6689 -0.4835 -0.6322
 8643SOL    HW126828   4.936   0.065   1.259  1.2396  4.6576  2.3472
 8643SOL    HW226829   5.084  -0.001   1.241 -0.2951  1.7198 -0.5270
 8644SOL     OW26830   6.412   3.687   6.845  0.3786  0.1248  0.0219
 8644SOL    HW126831   6.432   3.593   6.871  2.4721  0.6340  0.4512
 8644SOL    HW226832   6.313   3.704   6.851  0.1096 -1.6477  1.1918
 8645SOL     OW26833   6.456   2.710   1.485  0.3314  0.1020 -0.0376
 8645SOL    HW126834   6.514   2.769   1.429  1.7271 -0.0986  1.1394
 8645SOL    HW226835   6.398   2.654   1.426  1.0665  0.5740 -1.2405
 8646SOL     OW26836   3.756   6.136   0.309 -0.6499  0.1593  0.4001
 8646SOL    HW126837   3.763   6.128   0.210 -1.9021  0.0076  0.3060
 8646SOL    HW226838   3.710   6.055   0.346  3.2452 -1.7342  1.5891
 8647SOL     OW26839   5.146   5.556   1.815 -0.2828 -0.2857  0.0353
 8647SOL    HW126840   5.129   5.486   1.884  1.2069  0.8976  1.7166
 8647SOL    HW226841   5.121   5.646   1.852  0.6655  0.3897 -0.9055
 8648SOL     OW26842   5.483   1.260   4.060  0.6277 -0.2187  0.4806
 8648SOL    HW126843   5.563   1.284   4.005 -0.3976  1.1534 -0.4428
 8648SOL    HW226844   5.507   1.184   4.121  1.8103 -1.7320 -1.7635
 8649SOL     OW26845   5.835   3.970   3.641  0.1139  0.1216 -0.3103
 8649SOL    HW126846   5.743   3.953   3.604  0.6395 -0.2590 -1.5168
 8649SOL    HW226847   5.886   4.027   3.577  0.6147  0.6151  0.5183
 8650SOL     OW26848   6.705   6.694   2.277  0.2809 -0.0162 -0.3854
 8650SOL    HW126849   6.746   6.767   2.222 -1.0073  2.0079  1.1842
 8650SOL    HW226850   6.777   6.651   2.332  1.3435 -1.1498 -2.5545
 8651SOL     OW26851   6.092   2.828   1.783  0.4391 -0.0397  0.4067
 8651SOL    HW126852   6.190   2.832   1.803  0.7756 -0.2416 -1.1476
 8651SOL    HW226853   6.078   2.820   1.685 -1.1190 -1.1987  0.6916
 8652SOL     OW26854   1.849   2.036   3.233  0.1792  0.3546 -0.2679
 8652SOL    HW126855   1.804   2.050   3.144 -0.4882  1.2767  0.1980
 8652SOL    HW226856   1.836   1.942   3.263 -1.2013  0.5309 -0.2820
 8653SOL     OW26857   4.137   3.889   5.598  0.2299  0.2388 -0.6662
 8653SOL    HW126858   4.182   3.933   5.520  0.0733  2.2191  0.2912
 8653SOL    HW226859   4.194   3.814   5.632  1.0124  0.3232 -1.7556
 8654SOL     OW26860   2.447   3.799   0.585 -0.1384 -0.2746 -0.4675
 8654SOL    HW126861   2.451   3.725   0.518 -0.9666  0.4911 -1.3795
 8654SOL    HW226862   2.540   3.822   0.615  0.2246 -0.7321 -1.2219
 8655SOL     OW26863   5.203   4.456   2.775 -0.1495  0.7091 -0.4230
 8655SOL    HW126864   5.294   4.434   2.738  0.4918  2.3996  0.0842
 8655SOL    HW226865   5.176   4.385   2.841  1.5887  1.0772  0.7437
 8656SOL     OW26866   5.800   2.088   2.355  0.0361 -0.1949  0.0126
 8656SOL    HW126867   5.892   2.051   2.365 -0.0579 -0.5459 -0.3642
 8656SOL    HW226868   5.760   2.106   2.445 -0.9125 -3.5344  0.3991
 8657SOL     OW26869   3.179   4.830   0.869  0.1109  0.4889 -0.0320
 8657SOL    HW126870   3.122   4.854   0.791  0.9995  0.7561 -0.6065
 8657SOL    HW226871   3.121   4.796   0.943 -0.9115  1.9300 -0.1408
 8658SOL     OW26872   2.208   5.065   4.689 -0.2101 -0.4500  0.1872
 8658SOL    HW126873   2.196   4.979   4.639 -0.8420 -0.6201  0.6083
 8658SOL    HW226874   2.268   5.126   4.638 -1.9087 -0.0899 -1.4679
 8659SOL     OW26875   1.344   5.977   2.449 -0.3026  0.3894 -0.5861
 8659SOL    HW126876   1.333   6.061   2.502 -0.0679 -1.3336  2.4362
 8659SOL    HW226877   1.266   5.917   2.464  0.7300 -1.0035 -0.4856
 8660SOL     OW26878   5.439   5.841   6.981 -0.3333  0.2570  0.4983
 8660SOL    HW126879   5.433   5.860   6.883 -1.2504 -0.4704  0.3883
 8660SOL    HW226880   5.482   5.752   6.995 -0.6748  0.1250  0.7237
 8661SOL     OW26881   4.205   1.655   3.429 -0.2258 -0.2334  0.1670
 8661SOL    HW126882   4.275   1.656   3.500  0.5045 -1.4883 -0.4855
 8661SOL    HW226883   4.128   1.599   3.459 -0.5903  0.4691  0.5564
 8662SOL     OW26884   0.052   0.487   1.644 -0.0797 -0.1214 -0.2085
 8662SOL    HW126885   0.031   0.449   1.554  1.5023 -1.3628 -0.0976
 8662SOL    HW226886   0.048   0.587   1.640 -0.5104 -0.1692 -1.5175
 8663SOL     OW26887   3.003   6.746   6.280  0.0811  0.4583  0.2711
 8663SOL    HW126888   2.960   6.785   6.199 -0.6377 -0.1020  0.3834
 8663SOL    HW226889   2.939   6.687   6.328  1.7940 -2.7560 -1.1141
 8664SOL     OW26890   5.501   2.585   1.544  0.0336  0.1723  0.3325
 8664SOL    HW126891   5.419   2.643   1.538 -0.9845 -1.3208 -1.1145
 8664SOL    HW226892   5.576   2.628   1.493 -0.5805  0.4346 -0.3661
 8665SOL     OW26893   5.812   5.656   1.285  0.0370 -0.1286 -0.4611
 8665SOL    HW126894   5.892   5.611   1.325 -0.6491  1.0531  2.5239
 8665SOL    HW226895   5.735   5.651   1.349 -0.7422  3.1465 -0.9371
 8666SOL     OW26896   0.333   6.054   5.874 -0.7751 -0.0478 -0.2464
 8666SOL    HW126897   0.328   6.137   5.819  0.0585  0.2065  0.0414
 8666SOL    HW226898   0.419   6.007   5.854 -0.8045 -0.3331  0.2985
 8667SOL     OW26899   5.398   2.158   3.029  0.6429 -0.2776  0.0247
 8667SOL    HW126900   5.441   2.175   3.118  1.6240  0.3616 -0.5505
 8667SOL    HW226901   5.457   2.193   2.957 -1.2040  1.3328 -0.7843
 8668SOL     OW26902   2.928   1.015   4.156 -0.1481  0.6176  0.2563
 8668SOL    HW126903   2.841   1.034   4.112 -0.3532 -0.7585  0.0409
 8668SOL    HW226904   2.919   0.937   4.218  0.9999  0.2497 -0.0011
 8669SOL     OW26905   3.606   6.592   6.730  0.0406  0.1738 -0.0828
 8669SOL    HW126906   3.579   6.562   6.822  0.9877  0.3045  0.2478
 8669SOL    HW226907   3.587   6.689   6.721 -1.0015 -0.0466 -0.3926
 8670SOL     OW26908   4.414   5.476   4.850  0.3001  0.2445 -0.1203
 8670SOL    HW126909   4.505   5.505   4.879  1.0178  0.2187 -2.2331
 8670SOL    HW226910   4.407   5.376   4.856  0.0184  0.3118  1.0183
 8671SOL     OW26911   5.141   0.393   2.555 -0.2300  0.0568 -0.1004
 8671SOL    HW126912   5.118   0.356   2.465  0.9029 -0.3919 -0.2162
 8671SOL    HW226913   5.240   0.389   2.569 -0.3835  0.1419  1.1590
 8672SOL     OW26914   4.165   4.239   5.724  0.2033  0.0030 -0.2614
 8672SOL    HW126915   4.230   4.271   5.656  0.7530  2.0378  1.1009
 8672SOL    HW226916   4.156   4.140   5.719  0.2553  0.0681 -3.1875
 8673SOL     OW26917   4.731   0.786   0.886  0.2603  0.6282  0.5024
 8673SOL    HW126918   4.643   0.740   0.873 -0.3350  1.8168  0.1396
 8673SOL    HW226919   4.715   0.884   0.897  1.4010  0.6663  2.2518
 8674SOL     OW26920   0.033   5.694   1.903  0.2999  0.2724  0.3071
 8674SOL    HW126921   0.104   5.635   1.941  0.7517  0.1392 -0.6991
 8674SOL    HW226922   0.070   5.743   1.825 -0.8485 -0.1630 -0.5376
 8675SOL     OW26923   3.882   0.488   2.885 -0.3122  0.1534 -0.5092
 8675SOL    HW126924   3.826   0.570   2.887 -1.3174 -0.4178 -2.2328
 8675SOL    HW226925   3.897   0.460   2.790  0.6034 -1.2482  0.0032
 8676SOL     OW26926   5.290   2.446   3.359  0.3188 -0.3095  0.2843
 8676SOL    HW126927   5.361   2.514   3.340  0.4918 -0.2012  1.2494
 8676SOL    HW226928   5.325   2.354   3.338 -0.2403 -0.0782 -1.9513
 8677SOL     OW26929   1.007   3.228   5.720 -0.6432 -0.1451 -0.2175
 8677SOL    HW126930   0.985   3.131   5.732 -0.0562 -0.2781 -0.2244
 8677SOL    HW226931   1.044   3.264   5.806 -0.4978 -0.0233 -0.3320
 8678SOL     OW26932   1.533   5.756   4.889  0.0475  0.1638  0.6903
 8678SOL    HW126933   1.592   5.810   4.949  0.4672  0.3909  0.0852
 8678SOL    HW226934   1.442   5.796   4.887  0.4244  1.0279  0.0409
 8679SOL     OW26935   6.711   1.511   6.128 -0.1170 -0.1057  0.2233
 8679SOL    HW126936   6.796   1.562   6.115 -0.1186 -0.4682 -1.4714
 8679SOL    HW226937   6.713   1.463   6.216  0.7435  1.1575  0.9082
 8680SOL     OW26938   0.812   2.091   1.536  0.6144 -0.3740 -0.0018
 8680SOL    HW126939   0.902   2.130   1.553  1.1614 -1.5094 -0.2177
 8680SOL    HW226940   0.821   2.009   1.478 -0.3445 -1.5597  1.4535
 8681SOL     OW26941   3.868   2.854   0.621 -0.4865  0.0751  0.6961
 8681SOL    HW126942   3.859   2.815   0.712 -0.6102  0.5013  0.8716
 8681SOL    HW226943   3.873   2.954   0.628  0.3830  0.0646  0.2960
 8682SOL     OW26944   0.508   5.153   1.628 -0.3473  0.1179  0.3607
 8682SOL    HW126945   0.525   5.082   1.560 -1.0963 -0.2878  0.5816
 8682SOL    HW226946   0.521   5.115   1.720  3.1638  1.2903  0.4867
 8683SOL     OW26947   4.888   0.679   0.386  0.1370 -0.2735  0.2238
 8683SOL    HW126948   4.865   0.718   0.296 -1.5316  0.2910  0.8550
 8683SOL    HW226949   4.926   0.751   0.444 -0.1540 -0.2945  0.4392
 8684SOL     OW26950   6.384   1.805   2.910 -0.4930  0.5557 -0.1844
 8684SOL    HW126951   6.344   1.896   2.901  2.8065  2.0951 -0.7309
 8684SOL    HW226952   6.412   1.771   2.820  1.0083  0.3411  0.3461
 8685SOL     OW26953   4.612   2.171   5.167  0.5790  0.1897  0.1128
 8685SOL    HW126954   4.652   2.081   5.183  1.0814  0.3765 -0.0716
 8685SOL    HW226955   4.629   2.230   5.246  0.0234  0.0482  0.3444
 8686SOL     OW26956   0.246   0.610   5.370  0.7453 -0.4284  0.1692
 8686SOL    HW126957   0.307   0.677   5.329 -0.3337 -0.1844 -1.0765
 8686SOL    HW226958   0.243   0.528   5.313  0.6898 -0.8437  0.7574
 8687SOL     OW26959   2.951   2.231   5.505 -0.2363  0.3968  0.4389
 8687SOL    HW126960   2.933   2.327   5.483 -0.4886 -0.1980 -2.2333
 8687SOL    HW226961   3.047   2.209   5.484  0.0847  0.2513  1.9240
 8688SOL     OW26962   5.999   5.093   6.959  0.2591 -0.5467 -0.1510
 8688SOL    HW126963   6.089   5.051   6.967 -0.0001 -1.1109 -0.1432
 8688SOL    HW226964   5.983   5.155   7.036  0.4756 -0.7500  0.0552
 8689SOL     OW26965   4.053   3.096   2.079  0.2174  0.7339  0.3807
 8689SOL    HW126966   3.960   3.085   2.114 -0.1292  1.2799 -0.3382
 8689SOL    HW226967   4.118   3.054   2.142 -0.5907 -0.4556  0.4373
 8690SOL     OW26968   2.189   0.311   1.483 -0.2069 -0.3671  0.1669
 8690SOL    HW126969   2.182   0.410   1.488  1.1892 -0.0555 -2.3361
 8690SOL    HW226970   2.123   0.269   1.546 -0.4296  2.0986  1.7002
 8691SOL     OW26971   4.478   1.207   6.427 -0.1550  0.2754  0.6227
 8691SOL    HW126972   4.565   1.255   6.417 -0.2613  1.4694  4.2248
 8691SOL    HW226973   4.494   1.116   6.466 -0.3521 -0.8909 -1.8320
 8692SOL     OW26974   2.896   1.321   1.401  0.2448  0.0580 -0.0831
 8692SOL    HW126975   2.832   1.366   1.339  0.0494 -0.5441 -0.3250
 8692SOL    HW226976   2.882   1.222   1.398  1.1661 -0.0790 -0.1002
 8693SOL     OW26977   5.482   0.988   6.838 -0.3149 -0.3218  0.1095
 8693SOL    HW126978   5.541   1.054   6.791  0.2197  0.0643  1.2853
 8693SOL    HW226979   5.485   1.005   6.937 -1.7036 -0.8621  0.2712
 8694SOL     OW26980   3.305   0.574   6.797 -0.0618 -0.3327 -0.5705
 8694SOL    HW126981   3.339   0.490   6.840 -0.1675 -0.8006 -1.3763
 8694SOL    HW226982   3.359   0.652   6.829 -0.1995 -0.6464  0.4759
 8695SOL     OW26983   3.027   3.620   4.721  0.6599 -0.1215  0.3561
 8695SOL    HW126984   3.118   3.584   4.699  1.1566  0.4411  1.4646
 8695SOL    HW226985   2.983   3.559   4.787  1.0594  0.6896  1.3851
 8696SOL     OW26986   1.882   5.850   0.946 -0.8169  0.2073 -0.2074
 8696SOL    HW126987   1.830   5.822   0.866 -2.1449 -0.0863  0.7158
 8696SOL    HW226988   1.829   5.917   0.999  0.4852  1.2265 -0.1199
 8697SOL     OW26989   5.598   4.910   5.253 -0.0911 -0.1469  0.1585
 8697SOL    HW126990   5.663   4.986   5.252  0.9717 -0.9601 -2.6470
 8697SOL    HW226991   5.507   4.945   5.272  0.5962  1.6086  0.4267
 8698SOL     OW26992   0.314   5.382   4.761 -0.0524 -0.4974 -0.2170
 8698SOL    HW126993   0.364   5.420   4.683  0.3494  1.0935  0.7649
 8698SOL    HW226994   0.237   5.442   4.784 -0.4789 -1.2186  0.2985
 8699SOL     OW26995   2.859   1.435   2.591 -0.4568  0.3640 -0.1274
 8699SOL    HW126996   2.861   1.344   2.631  0.3857  0.8132  0.9267
 8699SOL    HW226997   2.768   1.455   2.556 -0.7004 -0.7944 -0.1714
 8700SOL     OW26998   1.372   5.865   4.308  0.3242 -0.4401  0.2701
 8700SOL    HW126999   1.350   5.853   4.404 -0.6091  0.6219  0.2067
 8700SOL    HW227000   1.312   5.808   4.252  0.0272 -0.1279  0.2662
 8701SOL     OW27001   1.248   0.802   3.617  1.1165  0.0617  0.6859
 8701SOL    HW127002   1.321   0.809   3.549  0.3978 -1.2165 -0.2682
 8701SOL    HW227003   1.203   0.890   3.628 -0.0690 -0.1024 -2.0353
 8702SOL     OW27004   3.575   1.391   5.830  0.2925 -0.1937  0.2282
 8702SOL    HW127005   3.495   1.410   5.773 -0.5885 -2.5217  0.5306
 8702SOL    HW227006   3.600   1.473   5.882 -0.9569  1.0095 -0.9920
 8703SOL     OW27007   0.829   5.462   0.982 -0.9728 -0.4271  0.3085
 8703SOL    HW127008   0.764   5.396   1.020 -0.2280 -1.0124  0.6027
 8703SOL    HW227009   0.918   5.450   1.027 -0.1213 -0.9686 -1.4340
 8704SOL     OW27010   6.737   6.319   1.193 -0.0711  0.2920 -0.7123
 8704SOL    HW127011   6.767   6.265   1.114 -0.4027  1.4910 -1.6913
 8704SOL    HW227012   6.790   6.404   1.198  0.1785  0.0757  0.5725
 8705SOL     OW27013   4.411   6.138   4.895  0.1733 -0.1383 -0.0998
 8705SOL    HW127014   4.506   6.148   4.923 -0.2981  0.7741  1.2769
 8705SOL    HW227015   4.382   6.219   4.844  0.1156 -0.3973 -0.4851
 8706SOL     OW27016   6.252   0.753   0.036  0.1227 -0.1808 -0.2342
 8706SOL    HW127017   6.313   0.699  -0.022  0.2047  0.4620 -0.7605
 8706SOL    HW227018   6.176   0.696   0.067 -1.6223  0.1362 -3.4237
 8707SOL     OW27019   4.697   1.892   0.094  0.1992 -0.0675  0.5286
 8707SOL    HW127020   4.690   1.886  -0.006 -0.6337  0.7770  0.5266
 8707SOL    HW227021   4.672   1.804   0.134 -2.9025  0.5347  0.1252
 8708SOL     OW27022   4.329   0.360   1.523  0.4701 -0.7283 -0.3288
 8708SOL    HW127023   4.408   0.316   1.566  1.2304  0.0713 -0.8799
 8708SOL    HW227024   4.341   0.459   1.523 -1.7399 -0.3588  1.8900
 8709SOL     OW27025   3.805   4.616   6.784 -0.0493 -0.2572 -0.3552
 8709SOL    HW127026   3.877   4.547   6.788 -0.2084 -0.3611  1.4242
 8709SOL    HW227027   3.740   4.601   6.858  0.2488  2.1701  0.4906
 8710SOL     OW27028   5.088   4.657   5.563 -0.2924  0.5353 -0.4718
 8710SOL    HW127029   5.102   4.646   5.464  2.8303 -0.6454 -0.0199
 8710SOL    HW227030   5.013   4.598   5.593  1.3219 -2.3624 -1.6408
 8711SOL     OW27031   2.483   6.486   3.405  0.3646 -0.6412 -0.5787
 8711SOL    HW127032   2.389   6.452   3.402  1.1813 -3.0798 -0.9450
 8711SOL    HW227033   2.519   6.476   3.498  0.9503 -1.8907 -0.9153
 8712SOL     OW27034   4.596   5.978   5.731 -0.3417 -0.2012  0.0736
 8712SOL    HW127035   4.616   5.881   5.716  0.5024 -0.2375  1.2444
 8712SOL    HW227036   4.501   5.997   5.706 -0.1660 -1.0497 -1.3356
 8713SOL     OW27037   1.313   5.167   1.451  0.0748  0.1091  0.1418
 8713SOL    HW127038   1.368   5.093   1.411  1.7204  1.0705  0.5156
 8713SOL    HW227039   1.348   5.189   1.542 -1.9058 -0.2122  1.0255
 8714SOL     OW27040   2.578   1.832   4.310 -0.0162  0.4982 -0.3832
 8714SOL    HW127041   2.665   1.860   4.351  1.3678 -0.7693 -2.2575
 8714SOL    HW227042   2.548   1.901   4.244  0.4301  0.2288 -0.8810
 8715SOL     OW27043   4.492   6.684   2.999 -0.0491 -0.3598 -0.1941
 8715SOL    HW127044   4.526   6.777   2.986 -1.4390 -0.0813 -2.2015
 8715SOL    HW227045   4.450   6.677   3.090 -1.7255  1.6192 -0.7241
 8716SOL     OW27046   1.651   0.282   1.126  0.3165 -0.6061 -0.2208
 8716SOL    HW127047   1.671   0.193   1.087  0.9280 -0.4183 -0.3452
 8716SOL    HW227048   1.728   0.312   1.182 -0.1596 -0.4506  0.3595
 8717SOL     OW27049   4.889   5.642   2.221 -0.5806 -0.4743 -0.0008
 8717SOL    HW127050   4.917   5.730   2.259  0.0972 -1.1768  1.1652
 8717SOL    HW227051   4.789   5.637   2.220 -0.6111 -0.0957  0.8508
 8718SOL     OW27052   0.176   1.965   5.918 -0.0380  0.2711  0.3719
 8718SOL    HW127053   0.207   2.032   5.986  0.1332  0.5272  0.0498
 8718SOL    HW227054   0.214   1.876   5.939 -0.3759  0.2444  0.8847
 8719SOL     OW27055   0.886   1.438   6.788 -0.0743  0.2300  0.3402
 8719SOL    HW127056   0.918   1.462   6.697 -1.2937  0.6924  0.0103
 8719SOL    HW227057   0.814   1.502   6.817 -0.5806 -0.6454  1.1009
 8720SOL     OW27058   6.524   3.748   6.366  0.0172  0.0427 -0.5779
 8720SOL    HW127059   6.516   3.844   6.393  0.5493 -0.2419  0.6699
 8720SOL    HW227060   6.450   3.695   6.408 -0.1763 -0.1233 -1.1224
 8721SOL     OW27061   6.330   1.985   3.996  0.4511 -0.4161 -0.2236
 8721SOL    HW127062   6.235   1.961   4.016  0.5124 -1.5013 -1.1335
 8721SOL    HW227063   6.338   2.016   3.901  0.9831 -0.1822 -0.1106
 8722SOL     OW27064   2.661   2.873   0.958 -0.5838  0.2634  0.2499
 8722SOL    HW127065   2.684   2.950   0.899  2.6383  2.1841  3.5914
 8722SOL    HW227066   2.646   2.906   1.051 -1.0603 -3.0047  1.4547
 8723SOL     OW27067   1.055   0.204   0.749 -0.0131  0.2177  0.6625
 8723SOL    HW127068   1.066   0.106   0.767  0.5729 -0.2034 -1.6498
 8723SOL    HW227069   0.962   0.222   0.718  0.8066 -0.3311 -2.4610
 8724SOL     OW27070   4.921   6.312   6.300  0.3490 -0.1431  0.1666
 8724SOL    HW127071   4.872   6.397   6.317  1.8542  0.5788  1.1236
 8724SOL    HW227072   5.020   6.330   6.299  0.6535 -1.3106 -2.9118
 8725SOL     OW27073   2.939   0.607   4.722 -0.0270  0.0396  0.5069
 8725SOL    HW127074   2.850   0.560   4.721  0.2597 -0.5421  1.1296
 8725SOL    HW227075   2.939   0.680   4.655 -0.5692 -0.7094 -0.3340
 8726SOL     OW27076   0.533   0.983   1.488 -0.4378  0.1883 -0.2986
 8726SOL    HW127077   0.578   1.059   1.536  0.0357 -0.9724  1.1951
 8726SOL    HW227078   0.437   1.006   1.472 -1.5118 -0.3845  3.9669
 8727SOL     OW27079   5.903   5.579   2.768  0.5159  0.0687 -0.1168
 8727SOL    HW127080   5.832   5.536   2.824 -0.1375  0.3169 -0.7328
 8727SOL    HW227081   5.953   5.645   2.822 -0.7525  1.0246 -0.0526
 8728SOL     OW27082   3.273   4.726   5.326 -0.0745  0.0199 -0.1150
 8728SOL    HW127083   3.180   4.762   5.319  0.2633  0.9500  0.0288
 8728SOL    HW227084   3.318   4.767   5.405  0.1460 -1.1547  0.3827
 8729SOL     OW27085   4.467   0.100   3.205  0.0208  0.0994 -0.4548
 8729SOL    HW127086   4.551   0.140   3.240 -0.1316 -0.1656  0.2289
 8729SOL    HW227087   4.473   0.092   3.105  0.2199  1.4127 -0.5668
 8730SOL     OW27088   5.136   6.534   1.219 -0.3327 -0.4492 -0.0426
 8730SOL    HW127089   5.208   6.466   1.227 -0.7556 -0.9501 -0.4671
 8730SOL    HW227090   5.096   6.530   1.128 -0.9612 -0.2378  0.2183
 8731SOL     OW27091   2.073   2.240   2.641 -0.2623 -0.5745  0.4285
 8731SOL    HW127092   2.126   2.266   2.560 -0.9749  0.2153  0.1913
 8731SOL    HW227093   2.130   2.249   2.723  0.3147 -0.8905  0.0663
 8732SOL     OW27094   4.264   4.431   1.687 -0.6467  0.0256  0.4458
 8732SOL    HW127095   4.318   4.373   1.748  1.5259  1.9180  0.4611
 8732SOL    HW227096   4.316   4.451   1.605 -1.6481  1.2992  0.0823
 8733SOL     OW27097   6.687   6.895   0.404 -0.9925 -0.0214 -0.0304
 8733SOL    HW127098   6.707   6.969   0.468  1.1416 -0.6673  0.1301
 8733SOL    HW227099   6.690   6.930   0.311  2.4306 -0.2540 -0.1209
 8734SOL     OW27100   0.500   0.071   1.622 -0.9933 -0.5330 -0.1473
 8734SOL    HW127101   0.509  -0.024   1.595 -3.8588 -0.7085 -0.7279
 8734SOL    HW227102   0.415   0.109   1.586  0.5669  2.6123 -0.9048
 8735SOL     OW27103   0.487   3.916   0.160 -0.6143 -0.3934  0.0323
 8735SOL    HW127104   0.501   3.825   0.121  0.4933  0.4494 -1.6431
 8735SOL    HW227105   0.492   3.985   0.088 -0.1258  1.1235  1.4464
 8736SOL     OW27106   0.711   4.473   4.613 -0.1715  0.1013  0.1131
 8736SOL    HW127107   0.673   4.405   4.551 -0.3600  1.0924 -0.9149
 8736SOL    HW227108   0.654   4.481   4.695 -0.3470 -0.7022  0.0705
 8737SOL     OW27109   5.714   5.318   1.751  0.7691  0.4042  0.8961
 8737SOL    HW127110   5.677   5.316   1.844  0.4677 -1.6392  0.7680
 8737SOL    HW227111   5.776   5.396   1.742 -3.5914  4.3158  1.0172
 8738SOL     OW27112   0.140   2.935   4.838  1.0095 -0.1781 -0.0267
 8738SOL    HW127113   0.058   2.883   4.814  1.4756 -1.3019  0.7434
 8738SOL    HW227114   0.160   3.001   4.766 -0.8964  0.5303  0.0236
 8739SOL     OW27115   2.333   1.100   6.617  0.7079  0.4985 -0.3196
 8739SOL    HW127116   2.240   1.138   6.619  0.9104  0.9616  0.5423
 8739SOL    HW227117   2.400   1.173   6.630  1.2440  0.2772 -1.6464
 8740SOL     OW27118   2.697   6.494   2.471  0.5579 -0.0448  0.5353
 8740SOL    HW127119   2.768   6.529   2.532  1.6004  1.0499 -1.2259
 8740SOL    HW227120   2.630   6.566   2.452  0.1160 -0.4447  0.5499
 8741SOL     OW27121   2.035   3.723   2.125 -0.3392  0.1164 -0.1707
 8741SOL    HW127122   1.956   3.673   2.161  0.1757 -0.4775  0.1603
 8741SOL    HW227123   2.113   3.661   2.118 -0.0424  0.5687 -1.0045
 8742SOL     OW27124   4.855   4.496   2.710  0.0826  0.1532  0.6042
 8742SOL    HW127125   4.841   4.427   2.781 -1.1362  0.4424  0.6551
 8742SOL    HW227126   4.898   4.453   2.630 -0.1105 -0.5371  0.8669
 8743SOL     OW27127   3.604   6.057   2.951 -0.5917  0.1347 -0.1027
 8743SOL    HW127128   3.594   6.152   2.980 -0.8138  0.6183 -1.6359
 8743SOL    HW227129   3.514   6.016   2.940 -0.5861  0.4116 -1.3924
 8744SOL     OW27130   2.179   4.221   5.653 -0.1031  0.0270  0.3531
 8744SOL    HW127131   2.163   4.264   5.742  0.1835 -0.2598  0.5456
 8744SOL    HW227132   2.234   4.138   5.665 -2.4859 -1.6750  0.2813
 8745SOL     OW27133   5.858   1.421   5.527 -0.5237  0.4742 -0.0114
 8745SOL    HW127134   5.842   1.520   5.528 -2.3971  0.2173  1.3815
 8745SOL    HW227135   5.878   1.389   5.619 -0.1770 -0.4908 -0.4108
 8746SOL     OW27136   5.826   3.547   4.879 -0.1939  0.2719 -0.1074
 8746SOL    HW127137   5.918   3.510   4.867 -0.3176  0.4726 -2.1799
 8746SOL    HW227138   5.828   3.621   4.946  1.0583 -0.0668  0.2526
 8747SOL     OW27139   1.123   2.510   5.491  0.5723  0.6701  0.2801
 8747SOL    HW127140   1.049   2.447   5.513 -2.0236  3.2564 -0.3472
 8747SOL    HW227141   1.211   2.465   5.504 -1.0633 -2.5050  1.2997
 8748SOL     OW27142   3.969   2.343   6.276  0.4758 -0.4515  0.2316
 8748SOL    HW127143   4.056   2.387   6.297 -0.8662  1.9272  1.2838
 8748SOL    HW227144   3.936   2.374   6.187 -0.3868  0.6185  0.8928
 8749SOL     OW27145   4.465   2.094   4.533  0.5637 -0.0886 -0.2727
 8749SOL    HW127146   4.523   2.125   4.609  2.1097  0.2999 -1.5586
 8749SOL    HW227147   4.469   1.995   4.526 -0.7742 -0.2719  1.0331
 8750SOL     OW27148   2.508   1.855   4.774 -0.9374  0.3402 -0.1284
 8750SOL    HW127149   2.584   1.852   4.838 -0.0431 -1.7071 -1.1827
 8750SOL    HW227150   2.430   1.902   4.816  0.6053  1.7800  1.2680
 8751SOL     OW27151   1.756   4.035   2.076  0.4965 -0.1252 -0.0772
 8751SOL    HW127152   1.771   4.134   2.084 -0.4372  0.0484 -0.3557
 8751SOL    HW227153   1.843   3.990   2.054  0.9999  0.5869  0.4056
 8752SOL     OW27154   2.473   1.592   0.292  0.4341 -0.1864 -0.0472
 8752SOL    HW127155   2.448   1.572   0.386  1.9720 -0.8738  0.2356
 8752SOL    HW227156   2.488   1.690   0.282 -1.4092  0.1493 -0.0352
 8753SOL     OW27157   5.842   3.116   3.142  0.0311 -0.3840  0.2346
 8753SOL    HW127158   5.913   3.056   3.105 -0.3207  0.4599 -2.0311
 8753SOL    HW227159   5.752   3.073   3.132 -0.3206  0.6936 -2.1775
 8754SOL     OW27160   1.752   6.220   4.899  0.4325 -0.3629 -0.0544
 8754SOL    HW127161   1.841   6.193   4.862  1.0549 -0.5840  1.5269
 8754SOL    HW227162   1.688   6.144   4.893  0.6117 -0.4902 -0.3682
 8755SOL     OW27163   2.173   2.828   1.180 -0.0219 -0.4238  0.3919
 8755SOL    HW127164   2.260   2.780   1.169 -1.0568 -2.4012  0.5327
 8755SOL    HW227165   2.190   2.920   1.216  1.9833 -0.8150  0.5302
 8756SOL     OW27166   2.160   5.076   3.692 -0.2130  0.2880 -0.1591
 8756SOL    HW127167   2.208   4.992   3.719 -0.0099  0.4792  0.0834
 8756SOL    HW227168   2.128   5.068   3.598 -1.0107 -0.4311  0.1595
 8757SOL     OW27169   2.025   5.927   3.954 -0.0269 -0.4191 -0.2080
 8757SOL    HW127170   1.930   5.906   3.977 -0.0695  1.3411  1.4858
 8757SOL    HW227171   2.039   5.915   3.856 -2.5948  1.3631 -0.8911
 8758SOL     OW27172   4.775   0.115   1.844 -0.7539 -0.1671  0.1016
 8758SOL    HW127173   4.774   0.102   1.745 -2.2738 -0.7997  0.1761
 8758SOL    HW227174   4.753   0.029   1.890  0.1177  0.0720  1.0188
 8759SOL     OW27175   5.905   0.498   4.488  0.1181 -0.0288  0.2759
 8759SOL    HW127176   5.831   0.493   4.556  0.8029 -2.1780  0.9467
 8759SOL    HW227177   5.947   0.589   4.491 -2.2647  1.1587  0.0761
 8760SOL     OW27178   1.807   2.146   2.695 -0.4195 -0.3633 -0.0790
 8760SOL    HW127179   1.896   2.192   2.699 -0.9457  0.9037 -1.8036
 8760SOL    HW227180   1.795   2.105   2.605 -0.5233 -2.8235  0.9928
 8761SOL     OW27181   5.158   4.921   1.294  0.0765 -0.2833 -0.1937
 8761SOL    HW127182   5.060   4.903   1.289 -0.3040  1.7942 -1.2750
 8761SOL    HW227183   5.174   5.017   1.315  1.9083 -0.7556  0.7972
 8762SOL     OW27184   2.437   5.036   1.068 -0.0721  0.1889 -0.6049
 8762SOL    HW127185   2.381   5.021   1.149  0.8557  3.1098  0.7288
 8762SOL    HW227186   2.533   5.040   1.094  0.0835  3.8786 -1.2039
 8763SOL     OW27187   2.025   5.807   6.141 -0.0657 -0.3339  0.2925
 8763SOL    HW127188   2.012   5.772   6.234 -0.9437 -0.8634 -0.0157
 8763SOL    HW227189   1.996   5.903   6.137 -2.6045 -1.0222  0.0092
 8764SOL     OW27190   2.130   3.661   6.901  0.0783  0.1000 -0.1826
 8764SOL    HW127191   2.183   3.577   6.894  0.7045  0.3291  1.3131
 8764SOL    HW227192   2.038   3.640   6.935 -0.7221 -0.2501 -2.3956
 8765SOL     OW27193   4.709   0.848   3.055  0.3376  0.3111 -0.0907
 8765SOL    HW127194   4.670   0.761   3.025  0.9995 -0.9539  2.4190
 8765SOL    HW227195   4.635   0.912   3.075 -0.3429 -0.7598  0.9818
 8766SOL     OW27196   1.237   4.998   4.485 -0.0945 -0.0460  0.0249
 8766SOL    HW127197   1.281   4.909   4.479  0.6384  0.2918  0.2861
 8766SOL    HW227198   1.189   5.006   4.573 -1.8686 -0.9304 -0.7969
 8767SOL     OW27199   2.858   1.760   5.317 -0.0045 -0.7395  0.0548
 8767SOL    HW127200   2.869   1.857   5.296  2.3021 -1.2038 -1.1635
 8767SOL    HW227201   2.765   1.744   5.351 -0.4843  1.8439  0.1688
 8768SOL     OW27202   0.682   4.515   1.818 -0.0607 -0.0111  0.1825
 8768SOL    HW127203   0.591   4.478   1.797 -0.4226 -0.0067  1.6651
 8768SOL    HW227204   0.748   4.440   1.823  0.3852  0.0964 -2.3752
 8769SOL     OW27205   1.344   6.923   0.060 -0.7892 -0.7769 -0.4831
 8769SOL    HW127206   1.367   6.834   0.098  0.7467 -0.6973 -1.1227
 8769SOL    HW227207   1.373   6.927  -0.036 -0.3613  0.5583 -0.3294
 8770SOL     OW27208   6.213   1.247   4.302  0.0064  0.1554 -0.2138
 8770SOL    HW127209   6.205   1.217   4.206  1.8622  2.8801 -1.3143
 8770SOL    HW227210   6.144   1.198   4.356 -1.0604 -1.5780 -2.8626
 8771SOL     OW27211   3.245   3.434   4.416 -0.1231 -0.2547 -0.1653
 8771SOL    HW127212   3.154   3.400   4.394 -0.0932 -0.1108 -0.5159
 8771SOL    HW227213   3.282   3.383   4.494 -0.8500  0.2630  0.5276
 8772SOL     OW27214   1.285   7.015   5.172 -1.1903  0.1653  0.0931
 8772SOL    HW127215   1.351   6.941   5.164 -0.8112  0.4952  0.1616
 8772SOL    HW227216   1.271   7.036   5.269 -0.8804  0.5627  0.0480
 8773SOL     OW27217   3.228   1.571   3.255  0.0160  0.0491 -0.0165
 8773SOL    HW127218   3.237   1.552   3.157  0.6278 -1.3958  0.2881
 8773SOL    HW227219   3.131   1.577   3.278 -0.1310  1.4848 -0.8737
 8774SOL     OW27220   1.943   2.580   0.551 -0.0133 -0.2395  0.7105
 8774SOL    HW127221   1.900   2.493   0.576  0.6279 -0.3485  1.4865
 8774SOL    HW227222   2.028   2.590   0.602  2.0094 -1.0163 -2.2018
 8775SOL     OW27223   5.967   6.696   2.185 -0.0131 -0.0840  0.4270
 8775SOL    HW127224   6.029   6.743   2.247 -0.3166  0.9685 -0.0447
 8775SOL    HW227225   5.875   6.733   2.195 -0.4553 -1.2263  0.7004
 8776SOL     OW27226   2.855   3.664   7.012  0.2079 -0.1653  0.0372
 8776SOL    HW127227   2.929   3.624   6.959 -0.7070 -2.1539  0.2010
 8776SOL    HW227228   2.780   3.689   6.952  0.1445 -0.1445  0.1243
 8777SOL     OW27229   6.098   5.108   1.696 -0.1113 -0.1851  0.0633
 8777SOL    HW127230   6.013   5.067   1.729 -0.8161  1.1299 -0.0479
 8777SOL    HW227231   6.127   5.180   1.759 -0.3604  0.9554 -1.0809
 8778SOL     OW27232   2.554   1.705   2.812  0.0521 -0.5505  0.6742
 8778SOL    HW127233   2.635   1.733   2.864  0.6675  0.0333 -0.5490
 8778SOL    HW227234   2.539   1.769   2.737 -0.6282 -1.5300 -0.0548
 8779SOL     OW27235   1.092   3.429   2.055  0.2182  0.5009  0.0903
 8779SOL    HW127236   1.045   3.366   1.993 -0.9773  0.8666  0.5999
 8779SOL    HW227237   1.190   3.433   2.032 -0.2851  1.0928 -2.1760
 8780SOL     OW27238   1.063   6.643   3.419  0.6326 -0.1235 -0.6629
 8780SOL    HW127239   1.102   6.694   3.343 -1.6194  1.4323 -0.8967
 8780SOL    HW227240   1.012   6.564   3.383 -0.2542  0.4911 -0.7937
 8781SOL     OW27241   1.832   2.654   3.880 -0.0606  0.3072 -0.4988
 8781SOL    HW127242   1.819   2.658   3.979 -2.7807  0.6248 -0.7782
 8781SOL    HW227243   1.840   2.558   3.851  0.9536  0.2224  0.0214
 8782SOL     OW27244   3.514   0.519   4.644  0.0591 -0.0849  0.0997
 8782SOL    HW127245   3.478   0.536   4.552  0.6169 -1.1325 -0.3270
 8782SOL    HW227246   3.567   0.599   4.674 -0.5061  0.4519 -0.2916
 8783SOL     OW27247   5.803   1.592   5.809  0.4496  0.5004 -0.0640
 8783SOL    HW127248   5.769   1.667   5.865 -0.9555 -0.8739  0.9993
 8783SOL    HW227249   5.756   1.593   5.720 -1.2270 -0.3657  0.7612
 8784SOL     OW27250   5.544   2.420   6.299 -0.4412 -0.5428  0.4946
 8784SOL    HW127251   5.581   2.512   6.315 -0.6422 -0.1911 -0.9237
 8784SOL    HW227252   5.460   2.427   6.246 -0.5733 -1.5493  0.5500
 8785SOL     OW27253   5.702   4.925   6.182  0.0270  0.8762 -0.4252
 8785SOL    HW127254   5.793   4.930   6.222  0.1776  0.2844 -0.6812
 8785SOL    HW227255   5.633   4.940   6.253  0.1699 -3.2235  0.8219
 8786SOL     OW27256   0.938   5.295   4.630  0.7647  0.6204 -0.2109
 8786SOL    HW127257   0.945   5.309   4.729  0.9589 -1.5593  0.1315
 8786SOL    HW227258   0.849   5.328   4.598 -0.3854 -0.9631  1.1829
 8787SOL     OW27259   2.059   1.177   6.573 -0.0799 -0.2724 -0.3227
 8787SOL    HW127260   1.973   1.128   6.591 -0.3665  0.5536  0.6486
 8787SOL    HW227261   2.040   1.275   6.562  0.7654 -0.0491  0.1125
 8788SOL     OW27262   2.911   2.000   0.392 -0.3265 -0.2783 -0.4065
 8788SOL    HW127263   2.874   1.958   0.309  1.8369 -0.0134 -1.5891
 8788SOL    HW227264   2.894   1.940   0.470 -2.5917 -0.4447 -0.9662
 8789SOL     OW27265   5.546   1.996   1.161  0.5748 -0.5987 -0.0137
 8789SOL    HW127266   5.546   1.941   1.245 -3.7436 -2.0684 -0.7465
 8789SOL    HW227267   5.488   2.076   1.174  1.8292  0.5238 -0.9521
 8790SOL     OW27268   4.210   2.457   0.264  0.5294  0.1808  0.1681
 8790SOL    HW127269   4.179   2.514   0.188  1.3081  1.1428  0.5473
 8790SOL    HW227270   4.282   2.506   0.315 -0.2644 -0.2543  1.7680
 8791SOL     OW27271   6.623   5.550   5.958 -0.1586 -0.0941  0.1346
 8791SOL    HW127272   6.523   5.551   5.955 -0.1729  0.3333 -2.9075
 8791SOL    HW227273   6.657   5.638   5.990 -0.8409  0.9867 -1.9256
 8792SOL     OW27274   4.113   5.011   2.828 -0.0949  0.0842  0.0672
 8792SOL    HW127275   4.132   4.978   2.735  3.6846 -0.5611  0.9048
 8792SOL    HW227276   4.144   5.105   2.837 -1.3538  0.4845  0.4760
 8793SOL     OW27277   0.088   6.506   1.173 -0.4310  0.0693 -0.4070
 8793SOL    HW127278   0.028   6.513   1.252 -0.5335 -0.6558 -0.4142
 8793SOL    HW227279   0.145   6.425   1.181  3.6282  2.8102  1.6752
 8794SOL     OW27280   2.920   6.058   3.376 -0.1537 -0.2744  0.6137
 8794SOL    HW127281   2.896   6.117   3.299  0.5112  0.0881  0.6680
 8794SOL    HW227282   2.987   6.106   3.434 -0.1566 -0.7997  1.0561
 8795SOL     OW27283   4.069   0.504   4.949  0.4697 -0.1243  0.4194
 8795SOL    HW127284   4.037   0.596   4.925  0.8612  0.0841  0.6772
 8795SOL    HW227285   4.144   0.512   5.015  1.5483 -0.5821 -0.7271
 8796SOL     OW27286   3.229   2.310   5.985 -0.5704  0.3031  0.3442
 8796SOL    HW127287   3.219   2.392   6.043  1.1161 -0.1411  1.3444
 8796SOL    HW227288   3.325   2.301   5.957 -0.0434 -2.7715  2.5755
 8797SOL     OW27289   0.996   4.784   0.207  0.2541  0.5113 -0.3012
 8797SOL    HW127290   0.991   4.712   0.139  0.1654  0.4477 -0.2267
 8797SOL    HW227291   1.047   4.751   0.287 -0.2727  0.3450 -0.0309
 8798SOL     OW27292   4.612   3.523   6.480  0.1499  0.4893  0.0674
 8798SOL    HW127293   4.596   3.592   6.409 -0.1435 -0.3112 -0.6667
 8798SOL    HW227294   4.524   3.496   6.519  0.2387  0.3364  0.1583
 8799SOL     OW27295   4.362   1.795   0.145  0.0630 -0.0315 -0.0746
 8799SOL    HW127296   4.272   1.839   0.147 -1.0817 -2.2858  1.1288
 8799SOL    HW227297   4.426   1.849   0.199 -1.4358 -0.0894  1.8623
 8800SOL     OW27298   4.619   2.367   0.411 -0.5602  0.2625 -0.4220
 8800SOL    HW127299   4.681   2.375   0.488  0.8377 -1.2159 -1.3239
 8800SOL    HW227300   4.571   2.279   0.415  0.8678 -0.6733 -2.0893
 8801SOL     OW27301   2.360   0.126   5.468  0.5496 -0.2849  0.2457
 8801SOL    HW127302   2.278   0.081   5.432 -1.1731  1.1535  2.1752
 8801SOL    HW227303   2.361   0.119   5.568  1.7505  1.4334  0.3915
 8802SOL     OW27304   2.203   5.553   1.388 -0.3007  0.0644  0.0149
 8802SOL    HW127305   2.246   5.476   1.436  0.4038  0.1336 -0.4925
 8802SOL    HW227306   2.208   5.538   1.289  0.3727  1.0380 -0.1068
 8803SOL     OW27307   3.345   5.544   1.919  0.2733  0.6231  0.3740
 8803SOL    HW127308   3.290   5.547   1.836  0.0796 -2.0098  0.3320
 8803SOL    HW227309   3.425   5.604   1.909 -0.3100  1.1743 -1.2370
 8804SOL     OW27310   4.663   1.287   1.512 -0.0055 -0.0857  0.3058
 8804SOL    HW127311   4.718   1.309   1.592 -2.1089 -2.0454  2.4512
 8804SOL    HW227312   4.566   1.290   1.537 -0.6803 -2.4464 -1.6621
 8805SOL     OW27313   4.934   0.788   2.196 -0.2884 -0.3039 -0.2774
 8805SOL    HW127314   5.010   0.767   2.257 -0.1791 -1.1653 -0.6925
 8805SOL    HW227315   4.852   0.806   2.250  0.2948  1.0913  0.1917
 8806SOL     OW27316   2.204   3.880   6.729 -0.0296 -0.6268 -0.1775
 8806SOL    HW127317   2.131   3.817   6.756  1.0434 -0.3052  4.4198
 8806SOL    HW227318   2.191   3.967   6.777  1.3329  0.8475 -2.3407
 8807SOL     OW27319   2.808   5.101   6.979 -0.3005 -0.0854  0.6753
 8807SOL    HW127320   2.823   5.197   6.953 -0.2070  0.3218  2.1108
 8807SOL    HW227321   2.889   5.047   6.957 -0.2030  0.2527  0.2081
 8808SOL     OW27322   4.639   3.206   1.723 -0.2094  0.5589  0.2508
 8808SOL    HW127323   4.637   3.130   1.788 -1.1055  1.1792  0.9771
 8808SOL    HW227324   4.723   3.258   1.734  0.3096 -0.1842 -0.1015
 8809SOL     OW27325   6.339   6.027   0.439  0.4914  0.5570  0.3044
 8809SOL    HW127326   6.275   5.962   0.398  2.1666 -0.1137 -1.3586
 8809SOL    HW227327   6.299   6.063   0.523 -1.0031 -1.7376  0.6857
 8810SOL     OW27328   3.522   1.822   5.452  0.2128  0.1546  0.3773
 8810SOL    HW127329   3.499   1.727   5.432  0.0005  0.2110  0.3584
 8810SOL    HW227330   3.618   1.828   5.480  0.1455 -0.1043  0.6632
 8811SOL     OW27331   5.877   6.919   3.322  0.5057 -0.1238  0.7540
 8811SOL    HW127332   5.911   7.010   3.346  0.5103 -0.3711  1.7291
 8811SOL    HW227333   5.915   6.851   3.385 -1.1984 -0.5036  1.4361
 8812SOL     OW27334   1.657   1.330   0.830 -0.2593 -0.1860  0.0231
 8812SOL    HW127335   1.717   1.261   0.790 -0.8675 -1.1652  0.7275
 8812SOL    HW227336   1.705   1.417   0.837  0.8903 -0.8072  0.0804
 8813SOL     OW27337   1.538   6.465   1.606 -0.2597  0.0656 -0.8091
 8813SOL    HW127338   1.593   6.406   1.547  1.8412  0.9713  0.1323
 8813SOL    HW227339   1.578   6.556   1.609 -0.5121  0.1745  1.6668
 8814SOL     OW27340   6.549   5.834   5.247 -0.3589 -0.5410 -0.0653
 8814SOL    HW127341   6.593   5.744   5.256  0.2345 -0.1254  1.7574
 8814SOL    HW227342   6.615   5.906   5.269 -0.7520  0.3868 -1.7656
 8815SOL     OW27343   6.124   4.272   1.900  0.3544  0.2525 -0.2933
 8815SOL    HW127344   6.116   4.180   1.938  2.4190  0.1003 -0.0840
 8815SOL    HW227345   6.185   4.270   1.820  2.1967  1.6994  0.9839
 8816SOL     OW27346   1.697   3.931   2.957 -0.2490 -0.2597 -0.5456
 8816SOL    HW127347   1.781   3.980   2.979 -0.4198 -0.4261  0.5687
 8816SOL    HW227348   1.719   3.836   2.935  0.0178  0.1354 -2.0537
 8817SOL     OW27349   1.227   4.588   3.828 -0.0637  0.8360  0.2875
 8817SOL    HW127350   1.302   4.522   3.823  0.0324  0.8876  1.0352
 8817SOL    HW227351   1.250   4.668   3.772 -0.2187  0.2164 -0.6975
 8818SOL     OW27352   1.570   3.547   4.509 -0.4615 -0.1697 -0.4076
 8818SOL    HW127353   1.586   3.636   4.467 -0.7395  0.1627  0.1865
 8818SOL    HW227354   1.657   3.498   4.518 -0.3466 -0.0678 -0.9743
 8819SOL     OW27355   6.721   2.151   4.368 -0.3999  0.1935  0.0859
 8819SOL    HW127356   6.814   2.133   4.336 -0.0226  0.1706  1.1494
 8819SOL    HW227357   6.658   2.087   4.325 -0.0026  0.5403 -1.0320
 8820SOL     OW27358   2.228   4.215   3.033  0.0151 -0.1441  0.6698
 8820SOL    HW127359   2.263   4.309   3.031  0.9252 -0.4853 -0.2410
 8820SOL    HW227360   2.233   4.176   2.941  0.6998 -1.4739  1.2465
 8821SOL     OW27361   2.422   4.788   0.703 -0.1725  0.1488 -0.0620
 8821SOL    HW127362   2.482   4.708   0.717 -2.8385 -1.9997 -0.1091
 8821SOL    HW227363   2.385   4.817   0.791 -0.1814  0.5551 -0.1977
 8822SOL     OW27364   0.640   1.142   5.050  0.3435 -0.1493  0.0211
 8822SOL    HW127365   0.567   1.130   5.118 -0.1763 -0.5809 -0.5942
 8822SOL    HW227366   0.699   1.218   5.077 -1.3687  1.4003 -0.3458
 8823SOL     OW27367   1.758   6.503   1.869 -0.0467 -0.2466  0.1106
 8823SOL    HW127368   1.782   6.407   1.886 -1.1495 -0.4241  0.7528
 8823SOL    HW227369   1.659   6.514   1.877  0.1288  1.0572  0.6579
 8824SOL     OW27370   4.804   4.192   1.253 -0.3496 -0.6645 -0.3085
 8824SOL    HW127371   4.789   4.288   1.277  2.8943 -0.2676  0.6499
 8824SOL    HW227372   4.734   4.136   1.296 -0.7880  1.0610  1.3911
 8825SOL     OW27373   2.876   3.937   5.070  0.4001  0.4838  0.3227
 8825SOL    HW127374   2.803   3.912   5.007 -0.8938 -0.8404  2.1985
 8825SOL    HW227375   2.858   4.028   5.107  1.0656  1.1865 -1.0268
 8826SOL     OW27376   0.631   0.917   3.373  0.0955 -0.1247 -0.1659
 8826SOL    HW127377   0.640   1.011   3.340  0.0577  0.1530  0.6110
 8826SOL    HW227378   0.542   0.881   3.344 -0.2694  0.3884  0.2928
 8827SOL     OW27379   5.809   1.963   5.176 -0.4173  0.3782  1.2649
 8827SOL    HW127380   5.729   2.018   5.151 -1.0984 -0.6439  1.1096
 8827SOL    HW227381   5.892   2.006   5.142 -0.9732  1.0601  0.7433
 8828SOL     OW27382   0.026   5.982   3.305  0.3824  0.1642 -0.2409
 8828SOL    HW127383  -0.059   6.033   3.289 -0.1730 -0.1643  1.4518
 8828SOL    HW227384   0.103   6.032   3.266 -0.3896  1.2934 -0.3622
 8829SOL     OW27385   6.834   1.105   1.240  0.7819 -0.3995  0.4684
 8829SOL    HW127386   6.745   1.074   1.274  0.6833  1.8694  2.5747
 8829SOL    HW227387   6.820   1.154   1.153 -0.2955  1.0379  1.3899
 8830SOL     OW27388   6.405   1.099   1.611  0.4903  0.0191 -0.5308
 8830SOL    HW127389   6.467   1.137   1.679  0.5102  1.8803 -1.5337
 8830SOL    HW227390   6.424   1.001   1.600  2.7841  0.3768 -0.2844
 8831SOL     OW27391   5.276   5.503   0.522 -0.4895  0.2867 -0.3906
 8831SOL    HW127392   5.249   5.584   0.574 -1.0452 -0.3919  0.4084
 8831SOL    HW227393   5.230   5.503   0.433  0.9278  1.7657 -1.1808
 8832SOL     OW27394   6.728   2.849   5.964 -0.0083  0.0644 -0.2694
 8832SOL    HW127395   6.645   2.904   5.951  0.7092  2.1852  2.8683
 8832SOL    HW227396   6.807   2.910   5.970  1.5912 -1.7879 -1.5337
 8833SOL     OW27397   5.427   0.378   0.288  0.3410  0.2953 -0.2661
 8833SOL    HW127398   5.388   0.444   0.223 -0.6629 -1.3602 -1.4363
 8833SOL    HW227399   5.359   0.357   0.358  1.5765  2.4209  1.7128
 8834SOL     OW27400   6.418   3.895   4.449  0.0609 -0.0507  0.1490
 8834SOL    HW127401   6.476   3.975   4.460  0.0624 -0.2416  1.7873
 8834SOL    HW227402   6.465   3.827   4.393  0.2766  0.8626 -0.8035
 8835SOL     OW27403   0.317   3.161   1.558 -0.3233  0.4192 -0.4279
 8835SOL    HW127404   0.326   3.241   1.619  0.6323  0.8004 -1.0491
 8835SOL    HW227405   0.329   3.077   1.611 -1.1526  0.6775  0.1999
 8836SOL     OW27406   3.820   4.449   6.392  0.1379 -0.2126  0.1383
 8836SOL    HW127407   3.769   4.469   6.308 -1.5190  1.6060  1.4727
 8836SOL    HW227408   3.779   4.499   6.468  1.8954 -1.3982  1.9685
 8837SOL     OW27409   0.614   3.384   1.570  0.1112 -0.8524 -0.0937
 8837SOL    HW127410   0.656   3.340   1.491  1.0964  1.5414 -1.0155
 8837SOL    HW227411   0.515   3.379   1.562  0.2006 -1.2734 -1.1138
 8838SOL     OW27412   6.944   6.382   4.172 -0.3673  0.1769 -0.0882
 8838SOL    HW127413   6.924   6.414   4.080 -2.0538  0.5425  0.3701
 8838SOL    HW227414   6.865   6.332   4.208  0.2277  0.1085  1.1860
 8839SOL     OW27415   6.697   5.202   6.434 -0.4911 -0.2151 -0.4417
 8839SOL    HW127416   6.692   5.143   6.515 -1.3124  2.1431  1.3596
 8839SOL    HW227417   6.784   5.252   6.436 -0.8648  0.4415 -0.5813
 8840SOL     OW27418   5.087   6.200   0.686 -0.2884 -0.2059 -0.0135
 8840SOL    HW127419   5.007   6.245   0.645  0.4551  2.1948  0.9791
 8840SOL    HW227420   5.058   6.147   0.765 -0.8415  1.5228  1.0032
 8841SOL     OW27421   4.112   0.158   0.739 -0.2666  0.2500  0.5020
 8841SOL    HW127422   4.041   0.161   0.809  0.1908 -0.7967  1.0337
 8841SOL    HW227423   4.201   0.179   0.780 -0.3630  2.5927 -0.3551
 8842SOL     OW27424   1.189   2.863   3.436 -0.0651  0.0453  0.1001
 8842SOL    HW127425   1.142   2.945   3.403  0.7374  1.9426  3.3016
 8842SOL    HW227426   1.287   2.873   3.421 -0.1174 -1.8011 -2.1985
 8843SOL     OW27427   0.025   4.851   2.085 -0.3183  0.5709  0.2158
 8843SOL    HW127428   0.016   4.950   2.069 -4.0362  0.5833  1.3261
 8843SOL    HW227429   0.120   4.830   2.110  0.5400  3.8980  0.2943
 8844SOL     OW27430   6.895   2.095   6.714 -0.0079  0.6628 -0.3844
 8844SOL    HW127431   6.816   2.153   6.728  0.7036  1.5102  0.2106
 8844SOL    HW227432   6.979   2.148   6.726  0.6588 -0.3131 -0.5477
 8845SOL     OW27433   4.532   1.095   0.882 -0.0249  0.1442 -0.1429
 8845SOL    HW127434   4.538   1.060   0.789  0.8979 -0.3136  0.0793
 8845SOL    HW227435   4.444   1.068   0.922  0.3436 -1.2885 -0.2483
 8846SOL     OW27436   2.557   5.724   4.255 -0.2584 -0.0447 -0.0426
 8846SOL    HW127437   2.602   5.642   4.291 -0.8540 -0.0456  0.7299
 8846SOL    HW227438   2.612   5.763   4.182  0.2828 -0.8514 -0.0779
 8847SOL     OW27439   2.291   1.532   3.974  0.1830  0.1301 -0.3260
 8847SOL    HW127440   2.320   1.469   4.046 -0.7402  1.0195  0.8753
 8847SOL    HW227441   2.370   1.558   3.918  1.1830  0.3589  1.1367
 8848SOL     OW27442   5.914   3.008   3.622 -0.1019  0.1204  0.1395
 8848SOL    HW127443   5.885   3.038   3.713 -0.2150 -0.2012  0.2108
 8848SOL    HW227444   5.896   2.910   3.612 -1.3672  0.4233 -0.7237
 8849SOL     OW27445   2.835   0.204   0.885 -0.8840  0.3889  0.3230
 8849SOL    HW127446   2.740   0.177   0.901 -0.9953  1.1435  0.9841
 8849SOL    HW227447   2.861   0.180   0.791 -2.0045  0.9664 -0.1496
 8850SOL     OW27448   2.905   0.886   0.838  0.0164  0.0084  0.6297
 8850SOL    HW127449   2.824   0.906   0.782  0.3607  0.7841  0.3861
 8850SOL    HW227450   2.964   0.822   0.790  0.0538  0.2624  0.3350
 8851SOL     OW27451   2.606   5.026   2.152  0.1102  0.9127  0.0152
 8851SOL    HW127452   2.638   4.954   2.090  0.8673  0.8437  0.4715
 8851SOL    HW227453   2.552   4.986   2.225  1.6845  0.5949  1.0585
 8852SOL     OW27454   0.697   2.637   4.906  0.1368  0.3627 -0.4654
 8852SOL    HW127455   0.610   2.588   4.897 -0.5650  0.9958  2.1270
 8852SOL    HW227456   0.772   2.572   4.912 -0.7109 -0.5120  2.1859
 8853SOL     OW27457   4.677   1.602   2.184  0.2600 -0.2130 -0.1710
 8853SOL    HW127458   4.754   1.638   2.237 -0.8603  1.7638  0.2150
 8853SOL    HW227459   4.610   1.561   2.247  0.4576 -0.9138 -0.4046
 8854SOL     OW27460   4.802   2.993   4.318  0.1972 -0.0169  0.0182
 8854SOL    HW127461   4.807   3.045   4.403  0.8634  0.9488 -0.5912
 8854SOL    HW227462   4.733   2.922   4.326  0.8111 -0.4714  1.6509
 8855SOL     OW27463   5.363   5.600   1.625 -0.0443 -0.1823  0.4866
 8855SOL    HW127464   5.266   5.600   1.647 -0.5452  2.9618 -1.1070
 8855SOL    HW227465   5.417   5.597   1.709 -1.4114 -3.2049  1.3463
 8856SOL     OW27466   1.217   0.427   4.540  0.2093  0.1495 -0.2911
 8856SOL    HW127467   1.260   0.427   4.449 -1.2664  0.5332 -1.0256
 8856SOL    HW227468   1.122   0.459   4.532 -0.0380 -0.0748  1.3578
 8857SOL     OW27469   0.105   2.572   0.792 -0.0338 -0.1113 -0.1171
 8857SOL    HW127470   0.018   2.621   0.801  0.2134  0.8297 -2.3266
 8857SOL    HW227471   0.088   2.474   0.807 -1.5765 -0.0006 -0.8557
 8858SOL     OW27472   1.767   4.846   3.812  0.1775 -0.0482 -0.1949
 8858SOL    HW127473   1.809   4.756   3.807 -0.1889 -0.1778 -1.1014
 8858SOL    HW227474   1.836   4.914   3.839  0.1877 -0.7621  1.7689
 8859SOL     OW27475   5.778   4.601   2.971  0.3659  0.3147 -0.9625
 8859SOL    HW127476   5.770   4.657   2.888  2.0490  0.4880 -1.0456
 8859SOL    HW227477   5.849   4.532   2.959  0.0913 -0.1747  0.0589
 8860SOL     OW27478   5.599   2.989   3.001  0.1510  0.3611 -0.0949
 8860SOL    HW127479   5.582   2.893   2.981  1.4674 -0.0171  0.4684
 8860SOL    HW227480   5.513   3.036   3.019 -0.7229 -0.1715 -2.6243
 8861SOL     OW27481   3.257   2.727   0.761 -0.0781 -0.7753  0.0901
 8861SOL    HW127482   3.331   2.776   0.715 -0.7249 -0.7107 -0.9064
 8861SOL    HW227483   3.224   2.781   0.838 -1.5309  0.9361 -1.6335
 8862SOL     OW27484   4.350   5.502   4.323 -0.1235 -0.1305  0.3108
 8862SOL    HW127485   4.388   5.492   4.415 -2.3603 -1.7646  1.1484
 8862SOL    HW227486   4.259   5.542   4.329  0.4378  1.5167 -1.4041
 8863SOL     OW27487   0.915   2.745   0.998  0.3428  0.0995 -0.1692
 8863SOL    HW127488   0.896   2.768   1.093  0.5942 -1.7042  0.3548
 8863SOL    HW227489   0.861   2.665   0.971  3.4724 -2.2500 -0.0757
 8864SOL     OW27490   6.301   3.472   3.309 -0.1384 -0.5259 -0.2314
 8864SOL    HW127491   6.379   3.432   3.355 -0.0691  1.8724  1.9588
 8864SOL    HW227492   6.330   3.513   3.222  0.8872 -0.4036  0.1577
 8865SOL     OW27493   2.147   2.876   1.629  0.1710  0.6106  0.0276
 8865SOL    HW127494   2.137   2.849   1.533  0.6437 -0.6938  0.3231
 8865SOL    HW227495   2.057   2.898   1.667 -0.3199 -0.9957 -0.1334
 8866SOL     OW27496   6.894   0.790   2.810 -0.3743 -0.2235 -0.5685
 8866SOL    HW127497   6.822   0.722   2.828 -0.2650  0.6708  4.6365
 8866SOL    HW227498   6.856   0.864   2.754 -1.9284 -2.0715 -2.1331
 8867SOL     OW27499   4.513   0.543   5.996 -0.6280  0.1335 -0.1421
 8867SOL    HW127500   4.426   0.566   6.042 -1.0978 -1.2952 -0.2553
 8867SOL    HW227501   4.566   0.482   6.055 -0.6026 -0.5911 -0.8990
 8868SOL     OW27502   7.015   2.775   4.124 -0.4900  0.7474 -0.3004
 8868SOL    HW127503   7.093   2.716   4.143 -2.4759 -2.2329 -0.7651
 8868SOL    HW227504   6.988   2.823   4.208  1.1261  0.9656  0.1196
 8869SOL     OW27505   4.160   6.450   2.846  0.3890  0.0656  0.4642
 8869SOL    HW127506   4.085   6.461   2.781  0.1927 -0.7597  0.5428
 8869SOL    HW227507   4.214   6.370   2.822  0.6167  0.0427  1.0240
 8870SOL     OW27508   0.473   1.624   2.579 -0.4500 -1.0048 -0.7203
 8870SOL    HW127509   0.437   1.562   2.648 -0.3593 -0.3587 -0.0860
 8870SOL    HW227510   0.458   1.718   2.607 -3.3138 -0.6411 -3.0670
 8871SOL     OW27511   5.968   5.538   5.921  0.2436 -0.2735 -0.2156
 8871SOL    HW127512   5.909   5.485   5.982  0.7735  0.1436  0.6817
 8871SOL    HW227513   6.036   5.478   5.879 -0.0276 -0.5363 -0.2783
 8872SOL     OW27514   1.310   4.835   3.702 -0.0101 -0.0402 -0.5478
 8872SOL    HW127515   1.256   4.916   3.724  1.2891  0.2819  1.7202
 8872SOL    HW227516   1.404   4.861   3.681  0.5893 -0.9473  0.8259
 8873SOL     OW27517   0.680   0.490   4.177  0.2499 -0.7074  0.3795
 8873SOL    HW127518   0.753   0.424   4.162 -0.4835 -1.7398  1.1508
 8873SOL    HW227519   0.607   0.474   4.111  2.3243  2.9689 -3.2115
 8874SOL     OW27520   1.770   6.737   1.427  0.2586 -0.4120  0.0380
 8874SOL    HW127521   1.800   6.645   1.402 -0.2025 -0.4256 -0.4953
 8874SOL    HW227522   1.812   6.804   1.366  1.3891 -0.1610  1.0621
 8875SOL     OW27523   6.415   2.843   4.406 -0.0420  0.2019 -0.1364
 8875SOL    HW127524   6.336   2.795   4.444 -0.9053  0.4583 -1.5765
 8875SOL    HW227525   6.443   2.916   4.468 -0.6075 -0.2106  0.6158
 8876SOL     OW27526   4.932   5.942   0.428  0.2213  0.4479  0.6337
 8876SOL    HW127527   4.948   6.003   0.506 -1.4720  3.5358 -1.2126
 8876SOL    HW227528   4.946   5.993   0.343 -1.4780 -1.7248 -1.0671
 8877SOL     OW27529   1.519   5.475   1.904 -0.0498 -0.3916 -0.4696
 8877SOL    HW127530   1.470   5.459   1.990 -1.3751  1.0361 -0.9169
 8877SOL    HW227531   1.617   5.459   1.918 -0.2377 -0.2280  1.2950
 8878SOL     OW27532   3.243   4.957   2.798  0.2654 -0.6649 -0.0936
 8878SOL    HW127533   3.303   4.897   2.851  0.8649 -1.1902 -1.3131
 8878SOL    HW227534   3.251   4.934   2.701 -1.2013 -0.0918 -0.3751
 8879SOL     OW27535   0.839   5.146   3.276  0.2762 -0.2814 -0.5536
 8879SOL    HW127536   0.781   5.125   3.197 -0.6395 -0.0119  0.0325
 8879SOL    HW227537   0.808   5.094   3.355 -0.4612  1.3367  0.2852
 8880SOL     OW27538   3.045   0.359   2.014 -0.1927 -0.3250 -0.6145
 8880SOL    HW127539   3.024   0.312   2.100  1.6951  1.0666  0.7032
 8880SOL    HW227540   3.139   0.336   1.986  0.3906  1.7383 -0.5073
 8881SOL     OW27541   4.244   6.751   3.367 -0.3457 -0.5191  0.2293
 8881SOL    HW127542   4.181   6.729   3.292 -1.8272  0.2129  1.2164
 8881SOL    HW227543   4.201   6.729   3.454  0.1938  1.3394  1.0008
 8882SOL     OW27544   4.385   5.313   6.320  0.1011  0.1081 -0.3317
 8882SOL    HW127545   4.383   5.310   6.420 -0.0312  1.5257 -0.2689
 8882SOL    HW227546   4.310   5.257   6.284 -0.5112  0.4229  0.4002
 8883SOL     OW27547   6.345   5.858   3.226  0.4600  0.2578 -0.0769
 8883SOL    HW127548   6.314   5.953   3.229  1.2778  0.6465 -2.0081
 8883SOL    HW227549   6.274   5.798   3.262 -0.7344  1.4722 -0.3286
 8884SOL     OW27550   5.625   2.767   6.021 -0.0425 -0.4454 -0.4061
 8884SOL    HW127551   5.655   2.860   6.001 -1.0829 -0.2427 -1.1231
 8884SOL    HW227552   5.644   2.708   5.942  0.9267 -0.9375  0.1724
 8885SOL     OW27553   5.736   6.248   0.831 -0.0649 -0.1200  0.2146
 8885SOL    HW127554   5.821   6.300   0.821 -0.2888  0.1815 -0.1479
 8885SOL    HW227555   5.682   6.287   0.905 -0.6683  0.7853 -0.6710
 8886SOL     OW27556   4.241   6.449   0.012 -0.2433  0.5362 -0.1453
 8886SOL    HW127557   4.238   6.391  -0.069 -0.6331  1.5104 -0.8541
 8886SOL    HW227558   4.149   6.458   0.050  0.0905 -0.7707  1.0619
 8887SOL     OW27559   3.707   1.673   2.408 -0.7040 -0.4267 -0.1237
 8887SOL    HW127560   3.745   1.606   2.345 -0.4042 -0.4929  0.1271
 8887SOL    HW227561   3.612   1.693   2.382 -0.9312 -1.2578  0.0568
 8888SOL     OW27562   3.258   1.914   1.474  0.0481 -0.1664 -0.5026
 8888SOL    HW127563   3.307   1.868   1.400  0.7102 -1.1363  0.4972
 8888SOL    HW227564   3.160   1.898   1.466  0.0329  0.4018 -1.5964
 8889SOL     OW27565   1.921   5.050   5.700 -0.0175  1.1134  0.4391
 8889SOL    HW127566   1.967   5.138   5.685  0.7416  0.6088 -0.3349
 8889SOL    HW227567   1.940   4.989   5.622 -0.3248  0.1805  1.0725
 8890SOL     OW27568   0.977   6.943   6.019 -0.0578 -0.2372 -0.1024
 8890SOL    HW127569   0.933   7.011   5.961 -0.1579  0.9152  1.2708
 8890SOL    HW227570   1.042   6.989   6.081  1.0817 -1.5854 -0.2500
 8891SOL     OW27571   6.537   4.416   5.345 -0.3434 -0.2923  0.6105
 8891SOL    HW127572   6.536   4.334   5.402  1.2755 -1.4829 -0.9322
 8891SOL    HW227573   6.609   4.477   5.375 -2.0715  1.0336  2.2718
 8892SOL     OW27574   1.804   5.747   0.305  0.8004  0.4514 -0.0995
 8892SOL    HW127575   1.833   5.824   0.249 -1.0746 -1.1323 -3.5317
 8892SOL    HW227576   1.880   5.683   0.315  1.1034  0.6500 -1.0663
 8893SOL     OW27577   0.824   5.327   6.222 -0.3600 -0.0394 -0.5710
 8893SOL    HW127578   0.759   5.267   6.268  0.1981 -0.0032  0.2933
 8893SOL    HW227579   0.840   5.408   6.279  0.5121 -0.1009 -0.7160
 8894SOL     OW27580   5.370   1.756   1.996 -0.3724  0.2868  0.0367
 8894SOL    HW127581   5.453   1.721   2.040 -0.7581 -0.8719 -0.1379
 8894SOL    HW227582   5.375   1.738   1.898 -1.0042 -0.1531  0.0818
 8895SOL     OW27583   0.940   4.356   4.332 -0.0311 -0.2296  0.0108
 8895SOL    HW127584   0.862   4.330   4.275 -0.1000 -0.6832  0.3067
 8895SOL    HW227585   0.943   4.297   4.413  0.9682 -0.6284 -0.2956
 8896SOL     OW27586   0.520   2.266   3.966 -0.2139  0.0143 -0.1219
 8896SOL    HW127587   0.519   2.305   3.875 -0.4632 -1.3782 -0.7456
 8896SOL    HW227588   0.434   2.288   4.013 -0.3970  0.1167 -0.4997
 8897SOL     OW27589   1.240   4.505   5.431  0.1928  0.6963  0.6057
 8897SOL    HW127590   1.159   4.491   5.488  1.7280 -0.9178  2.5393
 8897SOL    HW227591   1.301   4.571   5.476  1.5792 -0.8393  1.0466
 8898SOL     OW27592   6.518   5.226   1.153  0.7289 -0.2743  0.6766
 8898SOL    HW127593   6.547   5.142   1.200  0.1065 -0.4450  0.7621
 8898SOL    HW227594   6.599   5.276   1.122  1.1510 -0.3226  1.6465
 8899SOL     OW27595   1.576   0.072   1.996  0.6099 -0.0433 -0.1165
 8899SOL    HW127596   1.553   0.006   2.068 -0.8382  1.1182  0.5268
 8899SOL    HW227597   1.578   0.025   1.908 -2.4633 -0.6248  0.0299
 8900SOL     OW27598   3.659   0.552   5.055 -0.4201 -0.1352  0.0393
 8900SOL    HW127599   3.624   0.642   5.031 -0.9568 -0.5106 -0.6369
 8900SOL    HW227600   3.692   0.506   4.972  1.7251  0.2077  0.6389
 8901SOL     OW27601   3.030   6.101   6.517 -0.4311 -0.3847 -0.0795
 8901SOL    HW127602   2.963   6.077   6.447 -0.7578  2.0204 -0.7020
 8901SOL    HW227603   3.108   6.147   6.475 -0.0231 -0.0555  0.9876
 8902SOL     OW27604   1.705   6.040   1.828 -0.2070 -0.0179  0.3384
 8902SOL    HW127605   1.662   5.987   1.901  1.0421 -0.1281  1.0238
 8902SOL    HW227606   1.750   6.120   1.868  1.1100 -0.4693 -0.2128
 8903SOL     OW27607   0.841   3.461   4.950 -0.2747  0.3038 -0.3421
 8903SOL    HW127608   0.804   3.406   4.875  1.4163  0.7434 -1.5546
 8903SOL    HW227609   0.787   3.544   4.961 -0.9919 -0.1240 -0.5488
 8904SOL     OW27610   6.357   0.674   3.067  0.5009 -0.1621  0.2943
 8904SOL    HW127611   6.264   0.710   3.066 -0.0331 -1.4892  0.0268
 8904SOL    HW227612   6.373   0.625   3.153  0.7706 -0.3826  0.1212
 8905SOL     OW27613   2.784   5.492   1.871 -0.0327  0.1729  0.1740
 8905SOL    HW127614   2.731   5.477   1.788  1.6395  1.6234 -1.2562
 8905SOL    HW227615   2.723   5.509   1.948 -1.6247 -0.5298 -0.8984
 8906SOL     OW27616   0.471   2.243   0.290  0.6016 -0.5854 -0.0341
 8906SOL    HW127617   0.445   2.208   0.380  0.5673 -0.1006  0.1425
 8906SOL    HW227618   0.557   2.293   0.296 -1.3092  2.9220  0.5400
 8907SOL     OW27619   4.251   3.421   6.067 -0.5486 -0.1114  0.4528
 8907SOL    HW127620   4.273   3.329   6.035  0.4695  0.0922  0.5288
 8907SOL    HW227621   4.159   3.446   6.037  0.4539  0.2382 -2.6994
 8908SOL     OW27622   3.638   5.594   5.032 -0.3601 -0.1653 -0.2399
 8908SOL    HW127623   3.602   5.647   5.110 -0.6682  1.6913 -1.5589
 8908SOL    HW227624   3.734   5.571   5.049 -0.3674  0.3761  0.6259
 8909SOL     OW27625   3.272   0.413   3.629 -0.2385 -0.1536 -0.2211
 8909SOL    HW127626   3.267   0.443   3.533 -0.0006 -0.3898 -0.3070
 8909SOL    HW227627   3.321   0.327   3.635 -0.5258 -0.3001  0.0834
 8910SOL     OW27628   5.168   1.059   4.804  0.1768  0.4720  0.2627
 8910SOL    HW127629   5.147   1.119   4.726  1.0058  1.4469  0.7771
 8910SOL    HW227630   5.266   1.062   4.824  0.1621 -0.7092  0.5947
 8911SOL     OW27631   5.211   2.444   4.377  0.1188  0.4065  0.0216
 8911SOL    HW127632   5.148   2.426   4.453  0.0451  0.2128 -0.0853
 8911SOL    HW227633   5.292   2.491   4.412 -1.2001  3.0147 -0.2170
 8912SOL     OW27634   2.623   3.560   5.480 -0.0845  0.2539  0.0601
 8912SOL    HW127635   2.707   3.544   5.428 -0.2346  2.0062 -0.8298
 8912SOL    HW227636   2.549   3.504   5.442  0.5623 -0.9783  0.5752
 8913SOL     OW27637   0.153   6.183   5.127 -0.0640  0.1794 -0.5667
 8913SOL    HW127638   0.085   6.208   5.197  0.7860 -1.7569  1.0308
 8913SOL    HW227639   0.221   6.256   5.119  0.0039  0.3012  0.8977
 8914SOL     OW27640   5.410   3.693   4.607  0.0207 -0.4356  0.4182
 8914SOL    HW127641   5.391   3.648   4.519  1.5333 -0.2179 -0.0454
 8914SOL    HW227642   5.382   3.632   4.682 -0.6409 -0.9167 -0.2012
 8915SOL     OW27643   2.489   2.007   3.767 -0.0952 -0.0869  0.0786
 8915SOL    HW127644   2.498   1.908   3.757 -0.7303 -0.0776 -0.6416
 8915SOL    HW227645   2.578   2.045   3.792  0.1606 -0.8316  0.3547
 8916SOL     OW27646   1.247   0.154   2.382  0.0174  0.3050  0.3788
 8916SOL    HW127647   1.230   0.083   2.314  1.5917  0.1832  0.0650
 8916SOL    HW227648   1.163   0.205   2.399 -0.5373  0.0021 -1.2685
 8917SOL     OW27649   3.824   3.420   5.851 -0.3380 -0.6982 -0.6366
 8917SOL    HW127650   3.796   3.335   5.806 -0.1951 -1.1725  0.1482
 8917SOL    HW227651   3.744   3.479   5.862 -0.9294 -1.6983  0.8440
 8918SOL     OW27652   0.521   2.845   3.410 -0.4607  0.0264  0.5675
 8918SOL    HW127653   0.597   2.800   3.363  1.9901  5.4878 -1.5805
 8918SOL    HW227654   0.438   2.836   3.356 -0.0302 -1.4844  0.1024
 8919SOL     OW27655   6.726   1.800   2.933  0.3308  0.1039  0.2526
 8919SOL    HW127656   6.679   1.751   3.007 -0.4523  0.1221 -0.2160
 8919SOL    HW227657   6.731   1.897   2.957  0.9195 -0.0318  0.6972
 8920SOL     OW27658   1.250   1.946   0.531 -0.2644 -0.3535  1.1903
 8920SOL    HW127659   1.333   1.903   0.496 -0.7064 -0.2237 -0.0418
 8920SOL    HW227660   1.202   1.991   0.457 -1.8077 -1.0145  1.7476
 8921SOL     OW27661   3.043   6.328   0.889 -0.1970 -0.6208 -0.2168
 8921SOL    HW127662   3.022   6.424   0.908  1.1612 -0.6947  1.9493
 8921SOL    HW227663   2.977   6.293   0.822 -1.7781  1.3289  0.2098
 8922SOL     OW27664   2.453   5.418   2.949 -0.0245 -0.2894  0.0083
 8922SOL    HW127665   2.393   5.402   3.026  0.0883  1.1826  0.4331
 8922SOL    HW227666   2.535   5.360   2.957  0.1528  0.0994  1.1871
 8923SOL     OW27667   2.385   2.258   4.983  0.2132 -0.5743 -0.2990
 8923SOL    HW127668   2.406   2.259   4.886  0.6889 -0.8173 -0.2045
 8923SOL    HW227669   2.410   2.346   5.024 -0.5977 -0.2395 -0.5178
 8924SOL     OW27670   6.875   5.484   2.854  0.2350 -0.5107 -0.1248
 8924SOL    HW127671   6.794   5.522   2.899 -0.1632 -1.3356 -0.1307
 8924SOL    HW227672   6.925   5.558   2.809  0.4545  0.2854  1.3610
 8925SOL     OW27673   1.746   5.880   6.599  0.2928 -0.0213  0.7161
 8925SOL    HW127674   1.781   5.790   6.573  0.5092  0.6561 -1.6328
 8925SOL    HW227675   1.776   5.903   6.691  1.1427 -1.8780  0.9410
 8926SOL     OW27676   5.765   1.724   0.836 -0.5096 -0.3007 -0.7461
 8926SOL    HW127677   5.752   1.823   0.832  0.8322 -0.0552  0.2965
 8926SOL    HW227678   5.700   1.680   0.774 -1.0902  1.2210 -1.2830
 8927SOL     OW27679   1.443   1.545   5.455 -0.5088  0.6236  0.9704
 8927SOL    HW127680   1.364   1.597   5.422  1.2144  2.7567 -0.0821
 8927SOL    HW227681   1.417   1.492   5.536 -3.0192  1.1469  0.5855
 8928SOL     OW27682   6.754   0.109   3.690  0.2404 -0.6088 -0.0663
 8928SOL    HW127683   6.667   0.063   3.712  0.3608 -0.1835  1.4530
 8928SOL    HW227684   6.759   0.195   3.741 -0.3475  1.6133 -3.3983
 8929SOL     OW27685   6.039   1.582   4.502 -0.1288  0.1617 -0.3954
 8929SOL    HW127686   6.139   1.592   4.494 -0.0776  1.8401  1.4221
 8929SOL    HW227687   5.996   1.607   4.416  0.9353  2.0137 -0.4470
 8930SOL     OW27688   1.363   6.710   2.384  0.0454  0.5569 -0.9650
 8930SOL    HW127689   1.440   6.744   2.438 -0.1105 -1.0347  0.3125
 8930SOL    HW227690   1.395   6.685   2.293  0.8717  0.6339 -0.7041
 8931SOL     OW27691   6.112   4.553   7.002 -0.0927 -0.4801  0.3170
 8931SOL    HW127692   6.031   4.612   7.004 -1.0518 -1.7252 -0.5761
 8931SOL    HW227693   6.163   4.565   7.087 -1.0078  0.5988  0.7446
 8932SOL     OW27694   0.406   4.082   3.798 -0.2065 -0.1217  0.0806
 8932SOL    HW127695   0.341   4.159   3.803 -2.3051 -1.7049 -1.1048
 8932SOL    HW227696   0.477   4.103   3.730 -1.0669  0.5683 -0.6407
 8933SOL     OW27697   5.077   0.864   5.588  0.1271 -0.2381 -0.0933
 8933SOL    HW127698   5.112   0.805   5.516  0.3625 -0.6686  0.3672
 8933SOL    HW227699   5.006   0.924   5.551 -0.6856 -1.3580 -0.4030
 8934SOL     OW27700   1.317   5.391   2.558 -0.2192  0.4744  0.2357
 8934SOL    HW127701   1.252   5.366   2.487  0.9335  1.4947 -1.2491
 8934SOL    HW227702   1.408   5.399   2.519  0.7762 -0.5864  2.1951
 8935SOL     OW27703   0.764   5.686   0.810  0.1480 -0.5565 -0.1134
 8935SOL    HW127704   0.667   5.665   0.823  0.3633 -1.5298 -0.0154
 8935SOL    HW227705   0.817   5.645   0.884  0.7642 -1.1093 -0.8497
 8936SOL     OW27706   4.728   2.805   6.470  0.0477  0.5352 -0.2365
 8936SOL    HW127707   4.689   2.851   6.550  1.6959 -1.4073  1.8422
 8936SOL    HW227708   4.789   2.867   6.422 -0.6520  1.6270  0.2550
 8937SOL     OW27709   1.570   1.500   6.240 -0.6134 -0.1647  0.3945
 8937SOL    HW127710   1.546   1.584   6.191  0.1514 -0.0311  0.2306
 8937SOL    HW227711   1.668   1.483   6.230 -0.6786 -0.8218  0.8275
 8938SOL     OW27712   3.073   5.186   1.280 -0.1647 -0.3305 -0.2586
 8938SOL    HW127713   3.058   5.189   1.379  0.3544  0.6058 -0.1895
 8938SOL    HW227714   3.151   5.126   1.260  1.9575  2.0394  0.2647
 8939SOL     OW27715   0.522   2.571   5.455 -0.4095  0.7838  0.5017
 8939SOL    HW127716   0.598   2.521   5.497 -0.4803  1.0540  0.9595
 8939SOL    HW227717   0.546   2.596   5.361 -0.3730 -0.1088  0.2580
 8940SOL     OW27718   6.465   0.218   1.170 -0.3430  0.2668  0.1587
 8940SOL    HW127719   6.542   0.278   1.148  0.7996 -1.2255 -0.1037
 8940SOL    HW227720   6.497   0.123   1.173 -2.0070 -0.3018  0.9601
 8941SOL     OW27721   4.951   1.557   1.726  0.5491 -0.3341 -0.0450
 8941SOL    HW127722   4.982   1.577   1.819  0.1494 -1.5855  0.3751
 8941SOL    HW227723   4.903   1.470   1.725  0.5058 -0.3139 -1.4304
 8942SOL     OW27724   6.962   3.351   5.887 -0.0760 -0.3567  0.5489
 8942SOL    HW127725   6.998   3.376   5.797  2.9423  0.6768  1.8999
 8942SOL    HW227726   6.900   3.422   5.919  1.0128  0.6962  0.4026
 8943SOL     OW27727   3.222   4.743   6.512  0.4222 -0.1345  0.2047
 8943SOL    HW127728   3.315   4.774   6.535 -0.1146  1.1157  0.7772
 8943SOL    HW227729   3.227   4.678   6.437  1.8145 -0.5054  0.5853
 8944SOL     OW27730   5.867   6.054   0.245  0.0943  0.1049  0.4200
 8944SOL    HW127731   5.833   6.107   0.323  0.4588 -1.3801  1.6358
 8944SOL    HW227732   5.881   6.115   0.167  0.7766  1.8452  1.8379
 8945SOL     OW27733   0.617   2.371   2.042 -0.3747 -0.5236 -0.1057
 8945SOL    HW127734   0.609   2.397   2.138 -1.2163 -0.0380 -0.2985
 8945SOL    HW227735   0.572   2.282   2.028 -1.5032  0.0552 -0.3016
 8946SOL     OW27736   3.507   1.761   4.695  0.4935 -0.5440 -0.8755
 8946SOL    HW127737   3.501   1.745   4.794 -0.5494 -0.4741 -0.9175
 8946SOL    HW227738   3.596   1.801   4.673  0.2544  0.6695  0.2224
 8947SOL     OW27739   2.943   4.379   6.332  0.1174  0.3615  0.1051
 8947SOL    HW127740   2.980   4.433   6.409  2.0932 -1.2168  0.3515
 8947SOL    HW227741   2.978   4.286   6.338 -0.8887 -0.1882 -1.9240
 8948SOL     OW27742   6.416   5.158   3.399  0.3183 -0.3981  0.2639
 8948SOL    HW127743   6.411   5.249   3.358 -0.9991 -1.0091 -0.9922
 8948SOL    HW227744   6.437   5.167   3.497  0.7959  1.2028  0.0466
 8949SOL     OW27745   3.832   5.954   0.062  0.2692  0.6918 -0.5883
 8949SOL    HW127746   3.859   6.008  -0.017  0.2990  0.3719 -0.7963
 8949SOL    HW227747   3.735   5.930   0.055  1.1653 -3.2236 -2.8955
 8950SOL     OW27748   4.764   4.655   5.987 -0.3163 -0.0492 -0.1697
 8950SOL    HW127749   4.727   4.645   6.079 -0.6279 -0.3023 -0.3216
 8950SOL    HW227750   4.722   4.735   5.943  0.8552  0.9133  0.4005
 8951SOL     OW27751   3.694   0.284   6.042  0.4071  0.2261  0.7028
 8951SOL    HW127752   3.791   0.299   6.059  0.7091  1.6645 -1.8316
 8951SOL    HW227753   3.665   0.335   5.961 -1.9023 -2.1373 -0.1295
 8952SOL     OW27754   4.534   5.764   3.928  0.1733  0.2913 -0.5091
 8952SOL    HW127755   4.514   5.677   3.883 -0.8474 -0.8787  2.0165
 8952SOL    HW227756   4.628   5.791   3.908  0.2506 -0.9589 -2.0014
 8953SOL     OW27757   2.532   4.346   5.465  0.0739  0.0630  0.3388
 8953SOL    HW127758   2.495   4.306   5.380  2.6518 -1.1711 -0.3010
 8953SOL    HW227759   2.607   4.408   5.442  0.5381  0.0247  1.7022
 8954SOL     OW27760   1.354   5.933   5.244 -0.4293 -0.0540 -0.3062
 8954SOL    HW127761   1.439   5.880   5.237 -0.1686  0.4564 -1.3220
 8954SOL    HW227762   1.337   5.956   5.339  0.9536  0.4251 -0.1419
 8955SOL     OW27763   0.221   3.326   3.847  0.7716 -0.0990  0.0303
 8955SOL    HW127764   0.228   3.419   3.811  0.6895  0.8532  2.3212
 8955SOL    HW227765   0.129   3.311   3.884  1.1097 -0.7145  0.6483
 8956SOL     OW27766   0.013   0.490   3.921 -0.1176 -0.1115 -0.0133
 8956SOL    HW127767   0.097   0.443   3.946 -0.2830 -0.0437  0.7049
 8956SOL    HW227768  -0.063   0.424   3.920 -0.4090  0.1869  1.3237
 8957SOL     OW27769   3.070   6.548   1.400 -0.0455 -0.1902 -0.1194
 8957SOL    HW127770   3.109   6.592   1.319  2.3358  0.9836  1.5528
 8957SOL    HW227771   2.991   6.601   1.431  0.9312  1.1790  0.1015
 8958SOL     OW27772   2.215   1.249   5.663 -0.3188 -0.4717 -0.3808
 8958SOL    HW127773   2.150   1.188   5.709 -1.1916 -0.5666 -1.6906
 8958SOL    HW227774   2.304   1.205   5.656 -0.6719 -1.1864 -0.4128
 8959SOL     OW27775   2.544   6.613   6.116  0.2703 -0.4895  0.3347
 8959SOL    HW127776   2.471   6.549   6.093 -1.1206  0.8048  0.9936
 8959SOL    HW227777   2.507   6.706   6.118  1.3661 -0.0374  3.0761
 8960SOL     OW27778   4.929   0.036   6.015  0.3046  0.4761 -0.0311
 8960SOL    HW127779   5.005   0.033   6.079  0.5356  1.8207 -0.2083
 8960SOL    HW227780   4.848   0.072   6.061 -0.2369 -0.8888  0.1399
 8961SOL     OW27781   4.595   2.047   5.485  0.0200  0.3708 -0.2499
 8961SOL    HW127782   4.625   1.982   5.416 -0.9740  0.8194 -1.1282
 8961SOL    HW227783   4.626   2.016   5.575 -1.1877 -1.8429 -0.5055
 8962SOL     OW27784   4.916   2.205   5.726 -0.6305  0.0750  0.2768
 8962SOL    HW127785   4.939   2.175   5.634  0.1493 -0.6298  0.6900
 8962SOL    HW227786   4.848   2.143   5.766 -0.3858 -0.0751  0.4612
 8963SOL     OW27787   1.768   1.293   4.978 -0.4009 -0.0106  0.0925
 8963SOL    HW127788   1.778   1.349   4.896 -0.1421 -0.7716 -0.4080
 8963SOL    HW227789   1.672   1.270   4.992 -0.5345  0.7431  0.4312
 8964SOL     OW27790   1.109   3.173   5.979  0.0820 -0.7706 -0.1624
 8964SOL    HW127791   1.011   3.159   5.991 -0.1394  0.3264 -0.5652
 8964SOL    HW227792   1.157   3.148   6.063 -0.8428  1.3799  1.0763
 8965SOL     OW27793   3.287   4.958   4.045 -0.3293 -0.2237 -0.0155
 8965SOL    HW127794   3.190   4.940   4.054 -0.4879 -0.3568 -1.6869
 8965SOL    HW227795   3.305   5.003   3.957  1.3064 -1.7044 -0.4974
 8966SOL     OW27796   3.242   2.147   3.102  0.1485 -0.2926 -0.3165
 8966SOL    HW127797   3.322   2.131   3.044 -0.1392  0.8774 -1.0815
 8966SOL    HW227798   3.269   2.147   3.198  1.0633  0.0829 -0.5655
 8967SOL     OW27799   5.510   6.195   0.539 -0.3496  0.2357 -0.0313
 8967SOL    HW127800   5.607   6.183   0.516 -0.6420 -1.0355 -0.6942
 8967SOL    HW227801   5.454   6.150   0.471 -1.4642  1.6214 -0.0746
 8968SOL     OW27802   0.058   5.694   2.731  0.3035 -0.4547 -0.6418
 8968SOL    HW127803   0.154   5.666   2.727  0.7874  1.2198 -1.5214
 8968SOL    HW227804   0.025   5.715   2.639  0.0182  1.8157 -0.0861
 8969SOL     OW27805   4.811   0.395   4.049  0.2013 -0.2676 -0.2517
 8969SOL    HW127806   4.769   0.350   3.970 -0.0164 -0.5952  0.0492
 8969SOL    HW227807   4.846   0.326   4.112 -1.0035 -0.0552  0.6836
 8970SOL     OW27808   2.732   3.676   1.721 -0.0587  0.1785  0.0001
 8970SOL    HW127809   2.792   3.738   1.670  1.9435 -0.7085  1.1621
 8970SOL    HW227810   2.693   3.609   1.658 -2.2041  2.4685 -1.2689
 8971SOL     OW27811   2.797   5.541   0.859 -0.0503 -0.1628  0.5814
 8971SOL    HW127812   2.876   5.482   0.841  0.0260 -0.2970  1.3144
 8971SOL    HW227813   2.733   5.493   0.920 -0.2701  0.2880  0.7096
 8972SOL     OW27814   5.741   6.055   3.106 -0.3180  0.4021  0.1141
 8972SOL    HW127815   5.811   5.986   3.120 -0.2418  0.1410 -1.4599
 8972SOL    HW227816   5.663   6.036   3.166  0.1046 -0.4823  0.3922
 8973SOL     OW27817   1.941   5.085   7.011  0.1420 -0.0772  0.1738
 8973SOL    HW127818   1.883   5.166   7.017 -0.1722 -0.3647  1.1445
 8973SOL    HW227819   2.036   5.113   6.992  0.2514  0.6058  1.6167
 8974SOL     OW27820   6.522   4.191   5.684  1.1494 -0.1190  0.5940
 8974SOL    HW127821   6.447   4.257   5.672  0.3732 -0.7989  1.5413
 8974SOL    HW227822   6.520   4.125   5.609 -0.6054 -1.4305  1.7131
 8975SOL     OW27823   4.903   6.547   6.967  0.2571  0.1901 -0.0017
 8975SOL    HW127824   4.929   6.559   6.871  0.5878 -1.2636 -0.1180
 8975SOL    HW227825   4.949   6.616   7.022  0.8773  0.4150 -0.7690
 8976SOL     OW27826   0.849   6.489   3.361 -0.4861  0.0132  0.2546
 8976SOL    HW127827   0.850   6.534   3.271 -3.7533  0.4763  0.3218
 8976SOL    HW227828   0.853   6.559   3.433 -0.1717 -0.2038  0.4494
 8977SOL     OW27829   5.132   2.200   0.555  0.0645 -0.1419 -0.3227
 8977SOL    HW127830   5.101   2.280   0.606  1.5336 -0.0021  0.4145
 8977SOL    HW227831   5.229   2.184   0.575 -0.3311 -2.4643  0.0418
 8978SOL     OW27832   6.185   3.591   1.980 -0.0742 -0.5854 -0.1601
 8978SOL    HW127833   6.195   3.522   2.051 -1.6745 -1.5529 -0.8262
 8978SOL    HW227834   6.254   3.663   1.994  2.1798 -2.6632  0.0851
 8979SOL     OW27835   0.963   4.519   5.068 -0.2071  0.1956 -0.3793
 8979SOL    HW127836   1.061   4.519   5.088 -0.4363  1.9874  0.9808
 8979SOL    HW227837   0.948   4.553   4.975  0.4323  0.3164 -0.4432
 8980SOL     OW27838   3.431   3.665   4.939 -0.3236  0.2294  0.3712
 8980SOL    HW127839   3.443   3.757   4.975  3.0745  0.6694 -1.4327
 8980SOL    HW227840   3.406   3.670   4.842 -1.0815 -0.8005  0.4945
 8981SOL     OW27841   2.999   1.873   6.084 -0.3397 -0.0481  0.6810
 8981SOL    HW127842   2.970   1.965   6.109 -1.2210  0.0930 -0.7764
 8981SOL    HW227843   2.971   1.809   6.155 -4.2882  0.0870 -0.5465
 8982SOL     OW27844   3.468   2.924   4.427  0.4656 -0.3247 -0.1014
 8982SOL    HW127845   3.372   2.948   4.419  0.2141 -0.6842  1.5005
 8982SOL    HW227846   3.512   2.984   4.494  1.2689 -0.3994 -0.5484
 8983SOL     OW27847   4.940   3.609   0.363 -0.9984 -0.1226 -0.1673
 8983SOL    HW127848   4.929   3.510   0.356 -0.7168 -0.1422 -0.3397
 8983SOL    HW227849   4.979   3.644   0.278 -0.9200  0.1123 -0.0345
 8984SOL     OW27850   2.373   2.127   2.770 -0.0288 -0.4029  0.2747
 8984SOL    HW127851   2.424   2.153   2.688 -0.3743 -1.5039 -0.3149
 8984SOL    HW227852   2.326   2.041   2.753 -0.7438 -0.2425  1.3767
 8985SOL     OW27853   1.743   5.498   6.777 -0.0581 -0.3006 -0.0068
 8985SOL    HW127854   1.643   5.492   6.778 -0.1130  0.4121 -0.1727
 8985SOL    HW227855   1.780   5.430   6.714 -0.4570 -0.3737 -0.1705
 8986SOL     OW27856   2.410   6.776   2.997  0.2756  0.1048 -0.2007
 8986SOL    HW127857   2.317   6.810   2.990 -0.0160 -0.6056  0.2302
 8986SOL    HW227858   2.473   6.847   2.963 -0.3088  1.0953  0.7212
 8987SOL     OW27859   4.905   6.306   3.203  0.5436 -0.6384  0.1422
 8987SOL    HW127860   4.812   6.296   3.236 -0.1213 -0.5593 -1.5966
 8987SOL    HW227861   4.915   6.394   3.158  1.6506 -0.3823  0.8595
 8988SOL     OW27862   1.137   4.159   5.487  0.4879 -0.5448  0.5306
 8988SOL    HW127863   1.085   4.242   5.505  0.1085 -0.5499 -0.5161
 8988SOL    HW227864   1.083   4.097   5.430  2.0284 -0.0813 -1.5378
 8989SOL     OW27865   3.158   3.450   5.996  0.0679 -0.0064  0.3558
 8989SOL    HW127866   3.252   3.444   5.962 -0.4645  0.0972 -1.2217
 8989SOL    HW227867   3.115   3.534   5.962 -1.4381 -1.3496 -1.2483
 8990SOL     OW27868   6.049   3.344   4.987  0.0260 -0.4810 -0.2804
 8990SOL    HW127869   6.004   3.263   4.950 -0.5462 -0.0704 -0.4955
 8990SOL    HW227870   6.076   3.404   4.912 -0.1737 -0.1508 -0.0934
 8991SOL     OW27871   0.284   2.328   4.108 -0.0957  0.3713 -0.0169
 8991SOL    HW127872   0.227   2.398   4.151 -0.2965  0.7380 -0.8436
 8991SOL    HW227873   0.228   2.248   4.085  0.3326 -0.5093  1.8429
 8992SOL     OW27874   6.773   0.172   1.470 -0.8391 -0.1269  0.2580
 8992SOL    HW127875   6.681   0.203   1.496 -1.0062 -0.6954  0.3564
 8992SOL    HW227876   6.792   0.085   1.515 -0.0248  0.2695  0.6880
 8993SOL     OW27877   4.204   2.744   6.883 -0.5248  0.2405  0.1842
 8993SOL    HW127878   4.221   2.669   6.948 -0.5587  2.8665  3.5144
 8993SOL    HW227879   4.107   2.746   6.859 -1.0687  0.7180  2.2286
 8994SOL     OW27880   0.456   5.545   2.426 -0.2023 -0.4425 -0.0315
 8994SOL    HW127881   0.518   5.503   2.361  0.0899  1.8598 -1.3477
 8994SOL    HW227882   0.363   5.547   2.388 -0.2248  0.0003  0.0335
 8995SOL     OW27883   2.235   6.567   2.687  0.3079 -0.0966 -0.4353
 8995SOL    HW127884   2.171   6.508   2.735 -0.3609  1.7474  1.0714
 8995SOL    HW227885   2.286   6.514   2.619 -2.2379 -1.7755 -1.1432
 8996SOL     OW27886   5.165   5.473   6.230 -0.2180 -0.0194  0.3640
 8996SOL    HW127887   5.155   5.373   6.226 -0.3836  0.0125 -0.0517
 8996SOL    HW227888   5.082   5.512   6.270 -1.4693  0.1691 -2.2041
 8997SOL     OW27889   4.170   1.465   6.255 -0.4036 -0.1200 -0.2712
 8997SOL    HW127890   4.150   1.532   6.184  0.3697 -1.7819 -2.1762
 8997SOL    HW227891   4.263   1.429   6.241 -0.5307 -1.0567  1.1076
 8998SOL     OW27892   1.380   3.139   5.558  1.0543  0.0952  0.3806
 8998SOL    HW127893   1.362   3.176   5.649  0.1617  0.0051  0.2460
 8998SOL    HW227894   1.407   3.213   5.497 -0.0372  0.4441  0.2924
 8999SOL     OW27895   6.220   5.426   6.601 -0.0523  0.3085 -0.4188
 8999SOL    HW127896   6.281   5.395   6.527  0.0439  0.1763 -0.2859
 8999SOL    HW227897   6.135   5.460   6.562 -0.3479 -0.5517 -0.5486
 9000SOL     OW27898   1.870   3.573   7.010  0.0874 -0.3595 -0.2081
 9000SOL    HW127899   1.833   3.569   6.918  1.4595 -2.7600 -0.7690
 9000SOL    HW227900   1.804   3.535   7.075  0.4601 -2.1899 -0.8214
 9001SOL     OW27901   6.953   5.196   1.028  0.0752 -0.3902  0.0445
 9001SOL    HW127902   6.900   5.180   0.945  0.1264 -0.6611  0.0613
 9001SOL    HW227903   7.049   5.208   1.004  0.2909 -1.7416  0.1653
 9002SOL     OW27904   6.803   5.948   6.562  0.0437  0.5036 -0.2016
 9002SOL    HW127905   6.808   5.942   6.462  0.7401  1.3960 -0.2360
 9002SOL    HW227906   6.722   6.000   6.588 -0.8987 -0.9106 -0.2386
 9003SOL     OW27907   4.792   6.678   2.827  0.1301 -0.2370  0.5258
 9003SOL    HW127908   4.783   6.582   2.801 -0.8907  0.4006 -1.7361
 9003SOL    HW227909   4.724   6.733   2.778 -0.3095  1.4844  2.8632
 9004SOL     OW27910   6.173   4.112   3.537  0.2292  0.1318  0.6892
 9004SOL    HW127911   6.230   4.131   3.458  0.8206 -3.0304  0.2056
 9004SOL    HW227912   6.227   4.121   3.621  1.1912 -1.7112  0.3128
 9005SOL     OW27913   3.138   1.405   4.984  0.2116 -0.6648  0.0206
 9005SOL    HW127914   3.047   1.367   4.968 -0.0227  0.0923 -0.4949
 9005SOL    HW227915   3.185   1.351   5.054 -0.1935 -1.7497 -0.5257
 9006SOL     OW27916   4.182   6.178   5.136 -0.5647 -0.7027 -0.2113
 9006SOL    HW127917   4.105   6.241   5.142  0.4904  0.7200 -1.0296
 9006SOL    HW227918   4.235   6.198   5.053  0.8476 -1.4548  0.4728
 9007SOL     OW27919   0.164   0.209   1.659  0.1111  0.1255 -0.2042
 9007SOL    HW127920   0.157   0.110   1.673 -0.2908  0.0284 -1.0240
 9007SOL    HW227921   0.092   0.239   1.596  0.0646  0.9874  0.2384
 9008SOL     OW27922   0.424   4.241   1.981 -0.2143  0.4918 -0.8202
 9008SOL    HW127923   0.443   4.324   1.928 -1.1242  0.0949 -1.8170
 9008SOL    HW227924   0.449   4.161   1.928 -1.6887  0.0649 -0.9268
 9009SOL     OW27925   4.028   5.550   1.944  0.5378 -0.0320  0.3953
 9009SOL    HW127926   4.105   5.516   1.999  1.2668  0.4366 -0.3130
 9009SOL    HW227927   3.955   5.482   1.945  0.8602 -0.3854  1.2794
 9010SOL     OW27928   1.662   4.595   4.597  0.0130  0.1682 -0.2911
 9010SOL    HW127929   1.575   4.547   4.583 -0.9264  0.3039  3.8330
 9010SOL    HW227930   1.647   4.693   4.590  0.7462  0.1675 -3.1524
 9011SOL     OW27931   2.724   0.751   0.540 -0.5858 -0.3878  0.0381
 9011SOL    HW127932   2.748   0.848   0.550 -0.5175 -0.2182 -1.5578
 9011SOL    HW227933   2.625   0.742   0.529 -0.2983  0.0371 -4.4823
 9012SOL     OW27934   2.406   5.721   6.622 -1.0453  0.4231  0.0415
 9012SOL    HW127935   2.493   5.766   6.599  0.1273 -1.7126  0.0464
 9012SOL    HW227936   2.408   5.693   6.718 -0.5390 -2.0802 -0.6478
 9013SOL     OW27937   1.623   0.854   5.923  0.2497 -0.0502 -0.5485
 9013SOL    HW127938   1.565   0.896   5.992  0.3480  0.4071 -0.7415
 9013SOL    HW227939   1.621   0.909   5.839  0.5516 -0.3096 -0.7309
 9014SOL     OW27940   5.883   1.068   3.113 -0.0197 -0.0529  0.2410
 9014SOL    HW127941   5.970   1.116   3.110 -0.5750  0.9735 -0.0048
 9014SOL    HW227942   5.809   1.135   3.125 -0.8473 -0.8107 -0.5086
 9015SOL     OW27943   3.314   5.179   5.819  0.1090  0.2347  0.2049
 9015SOL    HW127944   3.232   5.204   5.767  0.5055  2.1246  0.4192
 9015SOL    HW227945   3.365   5.108   5.769 -0.7383  0.3006 -0.7921
 9016SOL     OW27946   4.746   3.891   5.433 -0.0026 -0.2527  0.5978
 9016SOL    HW127947   4.743   3.952   5.354  2.4514  3.5549  3.0957
 9016SOL    HW227948   4.654   3.879   5.470 -0.6081  1.9948 -0.0555
 9017SOL     OW27949   3.654   6.455   5.372 -0.1196  0.0757  0.2515
 9017SOL    HW127950   3.576   6.415   5.420 -2.3234  2.5706 -1.0064
 9017SOL    HW227951   3.655   6.424   5.277 -0.4261  1.0828 -0.0941
 9018SOL     OW27952   2.796   0.070   0.228 -0.1449 -0.0745 -0.5740
 9018SOL    HW127953   2.831   0.146   0.282 -0.2649 -0.5332  0.1589
 9018SOL    HW227954   2.857  -0.008   0.237 -0.3719 -0.2780 -0.7915
 9019SOL     OW27955   0.984   4.426   5.532 -0.4441  0.2846 -0.7652
 9019SOL    HW127956   0.940   4.407   5.619  0.2991 -1.2167 -0.6838
 9019SOL    HW227957   0.917   4.464   5.468 -0.7091  2.6097  0.8115
 9020SOL     OW27958   6.353   4.878   3.434 -0.5658 -0.1105  0.4298
 9020SOL    HW127959   6.365   4.975   3.411  1.6582 -0.3281  0.4392
 9020SOL    HW227960   6.267   4.845   3.396 -0.3296  1.3210 -1.5248
 9021SOL     OW27961   1.586   1.741   4.760 -0.4489 -0.3406  0.6543
 9021SOL    HW127962   1.670   1.748   4.707 -0.7076 -0.5952  0.1995
 9021SOL    HW227963   1.526   1.673   4.717 -1.6825  1.1634 -0.1244
 9022SOL     OW27964   3.662   3.458   6.768 -0.1534 -0.1005 -0.1102
 9022SOL    HW127965   3.710   3.544   6.754  0.5231 -0.9417 -4.3834
 9022SOL    HW227966   3.727   3.387   6.796 -0.0240  0.0091 -0.1341
 9023SOL     OW27967   0.947   5.788   0.204  0.3994 -0.4739 -0.2569
 9023SOL    HW127968   1.003   5.706   0.199 -0.9449 -1.3939 -0.6026
 9023SOL    HW227969   0.898   5.801   0.118  1.3082  1.2454 -0.5613
 9024SOL     OW27970   3.643   5.020   6.924 -1.1874 -0.8426  0.6447
 9024SOL    HW127971   3.597   5.108   6.932 -0.8451 -0.5235 -0.6197
 9024SOL    HW227972   3.575   4.947   6.921 -1.5357 -0.5185  0.5557
 9025SOL     OW27973   0.828   6.958   1.086 -0.4431  0.1258 -0.2395
 9025SOL    HW127974   0.903   6.960   1.151 -0.6227 -0.2651 -0.0141
 9025SOL    HW227975   0.818   6.865   1.049 -1.6310 -0.1500  0.7114
 9026SOL     OW27976   6.207   2.126   6.103  0.5154 -0.1381 -0.0623
 9026SOL    HW127977   6.276   2.055   6.114 -0.1859 -0.6222  1.5186
 9026SOL    HW227978   6.129   2.089   6.052  0.7884 -0.0336 -0.5617
 9027SOL     OW27979   6.893   4.469   3.023  1.1817 -0.3029 -0.0800
 9027SOL    HW127980   6.925   4.409   3.096  2.0878 -0.2690 -0.4403
 9027SOL    HW227981   6.930   4.561   3.036 -0.5168  0.3127  0.6932
 9028SOL     OW27982   2.476   6.117   6.426 -0.0891 -0.9951 -0.0665
 9028SOL    HW127983   2.441   6.187   6.488  0.1362 -1.0235  0.0958
 9028SOL    HW227984   2.541   6.158   6.362  1.0028 -1.2544  0.8195
 9029SOL     OW27985   1.360   6.436   4.821 -0.6767  0.2813 -0.3606
 9029SOL    HW127986   1.330   6.490   4.900 -3.8500  0.8818 -1.8352
 9029SOL    HW227987   1.338   6.485   4.737 -0.8293 -1.9564 -1.7056
 9030SOL     OW27988   2.467   2.411   1.994  0.0249  0.4317 -0.0940
 9030SOL    HW127989   2.421   2.325   1.973 -0.7798  0.7502  0.3184
 9030SOL    HW227990   2.405   2.470   2.046  1.2845  0.4077  1.5140
 9031SOL     OW27991   3.560   0.789   3.557 -0.3946  0.7381  0.7549
 9031SOL    HW127992   3.467   0.826   3.563  0.0054  1.7595  0.8809
 9031SOL    HW227993   3.563   0.718   3.487 -1.7876 -0.9466  2.2966
 9032SOL     OW27994   3.673   3.664   0.263 -0.2622 -0.1891 -0.3235
 9032SOL    HW127995   3.663   3.727   0.339 -0.8452 -0.6282 -0.0275
 9032SOL    HW227996   3.623   3.698   0.183 -1.4168 -0.7402  0.1361
 9033SOL     OW27997   7.017   6.505   2.767  0.3714  0.2048  0.1933
 9033SOL    HW127998   6.995   6.602   2.754  0.3275 -0.0115 -1.4864
 9033SOL    HW227999   7.114   6.490   2.748  0.5220  0.0063  1.0610
 9034SOL     OW28000   2.012   4.972   4.959 -0.4287 -0.3804 -0.3967
 9034SOL    HW128001   2.085   4.925   4.910 -0.1592  0.7415 -1.1009
 9034SOL    HW228002   2.001   4.930   5.050  0.2294 -1.3635 -0.7496
 9035SOL     OW28003   0.687   5.615   6.426  0.1523 -0.9522  0.0288
 9035SOL    HW128004   0.729   5.645   6.341 -0.4620  2.1329  0.6919
 9035SOL    HW228005   0.588   5.626   6.420  0.0482 -1.3110  0.9213
 9036SOL     OW28006   6.717   5.529   4.884 -0.5113  0.3410 -0.6051
 9036SOL    HW128007   6.686   5.599   4.820 -0.4052 -1.5598 -2.8625
 9036SOL    HW228008   6.641   5.467   4.905 -0.0972 -0.0602 -0.2802
 9037SOL     OW28009   6.910   0.659   4.733 -0.0555  0.7436  0.5139
 9037SOL    HW128010   7.002   0.692   4.754 -0.2297  1.9684 -0.5183
 9037SOL    HW228011   6.886   0.685   4.640 -1.1025 -0.3840  0.4443
 9038SOL     OW28012   2.137   4.215   5.109  0.5478 -0.2945  0.6561
 9038SOL    HW128013   2.129   4.219   5.209  0.8792 -1.0480  0.7182
 9038SOL    HW228014   2.191   4.136   5.083 -1.5077 -1.5043 -0.2263
 9039SOL     OW28015   5.385   5.901   5.756 -0.0397 -0.2384  0.4127
 9039SOL    HW128016   5.465   5.936   5.707  0.8378 -1.0080  1.2660
 9039SOL    HW228017   5.378   5.802   5.742 -0.9044 -0.1730  0.2842
 9040SOL     OW28018   3.103   1.506   1.427 -0.6680  0.4428 -0.1104
 9040SOL    HW128019   3.111   1.514   1.526 -0.2683  0.8412 -0.1718
 9040SOL    HW228020   3.055   1.421   1.404 -1.0613  0.5089  0.4324
 9041SOL     OW28021   5.914   3.628   2.765  0.2356 -0.2582  0.2757
 9041SOL    HW128022   5.852   3.691   2.719  1.5750  1.7568  1.0728
 9041SOL    HW228023   5.886   3.618   2.861 -0.4977 -1.6691 -0.0492
 9042SOL     OW28024   5.985   5.347   3.815 -0.0498 -0.2233  1.4762
 9042SOL    HW128025   5.911   5.411   3.793  0.0228 -0.8840 -0.9609
 9042SOL    HW228026   5.945   5.259   3.842 -0.2180 -0.6765 -0.1412
 9043SOL     OW28027   3.449   2.730   1.694 -0.2174  0.1861 -0.1856
 9043SOL    HW128028   3.438   2.634   1.668  0.4794  0.0912 -0.1583
 9043SOL    HW228029   3.391   2.750   1.773  0.1531 -0.3978  0.2398
 9044SOL     OW28030   2.952   2.464   0.607  0.4001 -0.2635  0.7587
 9044SOL    HW128031   3.051   2.472   0.600  0.5619 -2.1761  0.1891
 9044SOL    HW228032   2.909   2.516   0.533  1.0349 -0.2472  0.3914
 9045SOL     OW28033   4.156   0.289   3.730 -0.1189 -0.2036  0.1407
 9045SOL    HW128034   4.088   0.362   3.742  0.7952  0.7836 -0.5279
 9045SOL    HW228035   4.162   0.265   3.633  2.5662  1.8607 -0.3240
 9046SOL     OW28036   2.513   3.248   0.738 -0.2327  0.4005  0.1622
 9046SOL    HW128037   2.437   3.227   0.678 -0.0949  0.8937 -0.1840
 9046SOL    HW228038   2.588   3.184   0.720  0.1828  1.1597 -0.8899
 9047SOL     OW28039   6.658   1.364   5.467 -0.5384 -0.5582  0.1404
 9047SOL    HW128040   6.600   1.434   5.425  3.1244  1.6456 -1.8753
 9047SOL    HW228041   6.661   1.283   5.408 -0.6615 -0.1743 -0.4096
 9048SOL     OW28042   6.387   4.170   6.213 -0.0029  0.1684 -0.1206
 9048SOL    HW128043   6.404   4.122   6.127  2.4922  0.7778 -0.0708
 9048SOL    HW228044   6.333   4.113   6.274 -0.0232 -1.1394 -1.3109
 9049SOL     OW28045   0.853   0.122   5.889 -0.2743  0.0859 -0.2693
 9049SOL    HW128046   0.885   0.215   5.911  0.7591 -0.0104 -1.2822
 9049SOL    HW228047   0.753   0.122   5.885 -0.3181  0.9935  0.4335
 9050SOL     OW28048   1.042   4.114   6.802  0.7303 -0.0044  0.1064
 9050SOL    HW128049   1.059   4.038   6.865 -1.1450  0.6147  1.4445
 9050SOL    HW228050   1.114   4.183   6.813  0.7192 -0.1456  1.2379
 9051SOL     OW28051   1.899   0.592   1.781 -0.1102 -0.2565 -0.1314
 9051SOL    HW128052   1.840   0.538   1.841  0.1760  0.5488  0.9138
 9051SOL    HW228053   1.879   0.570   1.685 -2.3770  0.2508  0.1603
 9052SOL     OW28054   0.598   3.635   1.401  0.3965 -0.0091  0.6713
 9052SOL    HW128055   0.625   3.576   1.477 -0.5042  1.1225  1.9334
 9052SOL    HW228056   0.550   3.581   1.332  0.2506 -0.8769  1.4403
 9053SOL     OW28057   2.143   2.419   0.269  0.4342  0.2891 -0.5001
 9053SOL    HW128058   2.055   2.382   0.239 -0.4774  2.0752 -0.1283
 9053SOL    HW228059   2.211   2.402   0.198 -0.1605 -1.1828 -0.7656
 9054SOL     OW28060   2.194   3.179   3.335  0.1199 -0.0203  0.5823
 9054SOL    HW128061   2.169   3.133   3.420 -0.7108 -0.0173  0.3430
 9054SOL    HW228062   2.213   3.276   3.353  0.3350 -0.1064  0.8236
 9055SOL     OW28063   1.849   1.727   4.636  0.0197 -0.8629  0.1797
 9055SOL    HW128064   1.871   1.822   4.615 -0.5830 -0.8440 -0.4066
 9055SOL    HW228065   1.933   1.673   4.643  0.2863 -0.8842 -2.3985
 9056SOL     OW28066   4.011   0.034   5.385  0.4547 -0.1286  0.1656
 9056SOL    HW128067   3.967  -0.001   5.468 -1.1963 -0.3078 -0.7334
 9056SOL    HW228068   4.069  -0.037   5.346  2.5733  0.4926  1.9995
 9057SOL     OW28069   4.379   1.144   5.070 -0.1741 -0.0048  0.1922
 9057SOL    HW128070   4.376   1.054   5.112  1.1129 -0.0150  0.3288
 9057SOL    HW228071   4.289   1.187   5.074 -0.9254 -1.4657 -0.3020
 9058SOL     OW28072   0.938   0.885   6.790  0.4640 -0.4359 -0.1276
 9058SOL    HW128073   0.976   0.978   6.791 -0.6574  0.0842 -1.3543
 9058SOL    HW228074   0.904   0.861   6.881  0.1333  0.6476  0.0512
 9059SOL     OW28075   1.148   3.410   4.575  0.3061 -0.3746 -0.1698
 9059SOL    HW128076   1.149   3.500   4.618  0.5676 -0.5627  0.2312
 9059SOL    HW228077   1.059   3.392   4.534  0.3869  0.2413 -0.6301
 9060SOL     OW28078   6.207   3.138   6.777  0.2688 -0.5171  0.2073
 9060SOL    HW128079   6.118   3.101   6.805 -0.8074  0.8503 -1.1855
 9060SOL    HW228080   6.269   3.063   6.755 -2.4146 -1.7848 -4.4280
 9061SOL     OW28081   3.920   6.914   4.045  0.3930 -0.2040 -0.2378
 9061SOL    HW128082   4.000   6.962   4.081 -0.7571  2.8836 -1.4444
 9061SOL    HW228083   3.841   6.933   4.103 -0.6674  1.7642 -2.1850
 9062SOL     OW28084   3.126   0.608   0.986 -0.0009 -0.0493 -0.6173
 9062SOL    HW128085   3.215   0.573   1.018 -0.1664 -0.5236 -0.6629
 9062SOL    HW228086   3.140   0.666   0.906  0.1980 -0.8101 -1.1472
 9063SOL     OW28087   1.850   0.331   2.611  0.2573  0.4972 -0.3913
 9063SOL    HW128088   1.839   0.426   2.639  1.0747 -0.0709  2.0520
 9063SOL    HW228089   1.869   0.274   2.691 -1.2003 -1.9076 -1.6395
 9064SOL     OW28090   4.822   3.746   1.294 -0.1180  0.4567  1.3932
 9064SOL    HW128091   4.838   3.825   1.354  0.1967 -0.5427  2.6852
 9064SOL    HW228092   4.909   3.704   1.270 -0.3483 -0.4773  2.1218
 9065SOL     OW28093   2.764   2.628   1.382 -0.3040  0.8934  0.6200
 9065SOL    HW128094   2.755   2.637   1.482  1.2531  0.6471  0.8032
 9065SOL    HW228095   2.747   2.533   1.356  1.6881  0.4052  0.9748
 9066SOL     OW28096   4.530   6.164   1.758  0.1443 -0.2152 -0.6727
 9066SOL    HW128097   4.486   6.097   1.698  0.6475 -1.8887  0.7492
 9066SOL    HW228098   4.615   6.196   1.716 -0.5159  0.2030 -1.7356
 9067SOL     OW28099   2.293   1.010   1.688  0.2614 -0.3343  0.4747
 9067SOL    HW128100   2.238   1.006   1.771 -0.5548  0.5164  0.0019
 9067SOL    HW228101   2.318   0.918   1.660 -0.5594 -0.7174  0.9503
 9068SOL     OW28102   2.313   0.302   5.706  0.1007  0.3677  0.0954
 9068SOL    HW128103   2.303   0.347   5.618  1.0699 -1.0938 -0.8192
 9068SOL    HW228104   2.410   0.289   5.727 -0.0095 -3.3590 -0.9017
 9069SOL     OW28105   0.625   2.713   0.890 -0.0467  0.5614 -0.8887
 9069SOL    HW128106   0.618   2.642   0.960  1.9101 -2.3366 -3.3919
 9069SOL    HW228107   0.533   2.736   0.857 -0.7189 -0.9973 -0.1930
 9070SOL     OW28108   6.107   5.063   3.685  0.4601 -0.3195 -0.2750
 9070SOL    HW128109   6.171   5.138   3.700  0.5410 -0.7547  1.8873
 9070SOL    HW228110   6.097   5.010   3.770 -1.8539 -0.9746 -0.8840
 9071SOL     OW28111   6.593   5.281   5.263 -0.4351  0.5951 -0.1016
 9071SOL    HW128112   6.584   5.345   5.339 -1.6956  0.6797 -0.3026
 9071SOL    HW228113   6.508   5.280   5.210  0.6108  0.9654 -1.8513
 9072SOL     OW28114   5.151   3.406   0.834  0.4870  0.3254 -0.5685
 9072SOL    HW128115   5.174   3.421   0.930  1.4115 -0.4473 -0.6561
 9072SOL    HW228116   5.205   3.329   0.798  0.7110  1.0859 -1.9193
 9073SOL     OW28117   2.864   1.739   6.315 -0.3934  0.3149 -0.3468
 9073SOL    HW128118   2.895   1.745   6.410 -0.0806  2.0917 -0.5189
 9073SOL    HW228119   2.838   1.645   6.294  3.2469 -1.0034  0.3041
 9074SOL     OW28120   1.385   6.755   0.815 -0.1448  0.4327  0.2658
 9074SOL    HW128121   1.442   6.680   0.848 -0.8589  0.1805  0.9610
 9074SOL    HW228122   1.301   6.759   0.869 -0.1829  1.6434  0.1432
 9075SOL     OW28123   0.395   6.881   1.234  0.0345 -0.9004  0.0012
 9075SOL    HW128124   0.438   6.908   1.148 -1.5625 -1.2183 -0.9317
 9075SOL    HW228125   0.466   6.861   1.301  1.3360  2.5046 -0.1731
 9076SOL     OW28126   1.064   4.673   5.701 -0.0060  0.4740  0.4366
 9076SOL    HW128127   1.019   4.617   5.632 -0.4907  1.9900 -0.5444
 9076SOL    HW228128   0.998   4.699   5.772 -0.0854  0.7306  0.2723
 9077SOL     OW28129   6.297   5.080   0.362  0.0197 -0.0643 -0.3843
 9077SOL    HW128130   6.360   5.127   0.424  0.3026 -0.8046 -0.0975
 9077SOL    HW228131   6.214   5.135   0.351  0.3739  0.5324 -0.1193
 9078SOL     OW28132   3.736   0.590   6.069  0.3947  0.2225 -0.8499
 9078SOL    HW128133   3.750   0.683   6.102  0.3204  0.5085 -1.6156
 9078SOL    HW228134   3.815   0.561   6.016  1.1129 -0.7395  0.6800
 9079SOL     OW28135   3.056   6.749   5.033 -0.0759  0.1522 -0.3157
 9079SOL    HW128136   3.005   6.822   5.078 -1.7067 -0.8217 -0.4909
 9079SOL    HW228137   3.105   6.695   5.102  0.6961  1.0555 -0.1389
 9080SOL     OW28138   3.985   1.454   0.493  0.0623  0.1850  0.0240
 9080SOL    HW128139   3.970   1.390   0.568  0.6639  1.0307  0.8748
 9080SOL    HW228140   3.987   1.547   0.527  0.8225  0.5564 -0.9723
 9081SOL     OW28141   6.028   0.775   4.531  0.1741 -0.0734 -0.2617
 9081SOL    HW128142   5.932   0.793   4.510  0.6161  0.7613 -1.7557
 9081SOL    HW228143   6.084   0.852   4.498  1.3200 -0.3893  0.8844
 9082SOL     OW28144   1.718   6.526   2.606  0.1593  0.1478  0.1630
 9082SOL    HW128145   1.700   6.522   2.508  2.1686  1.3935 -0.3165
 9082SOL    HW228146   1.636   6.557   2.654 -0.6969  0.0108 -1.1652
 9083SOL     OW28147   2.334   5.060   3.172  0.6616  0.1393 -0.0022
 9083SOL    HW128148   2.370   5.084   3.262  0.2234 -0.3675  0.3158
 9083SOL    HW228149   2.367   4.970   3.146 -0.3907 -0.3626  0.3250
 9084SOL     OW28150   2.929   3.809   2.360  0.0278 -0.4130 -0.2262
 9084SOL    HW128151   2.877   3.891   2.336  1.3507  0.2571 -0.8714
 9084SOL    HW228152   3.000   3.832   2.426  1.6533 -0.6007 -1.8349
 9085SOL     OW28153   1.554   0.316   6.901 -0.2147  0.0740  0.6670
 9085SOL    HW128154   1.631   0.257   6.876  0.5441  1.4775 -0.4573
 9085SOL    HW228155   1.476   0.296   6.841 -0.8259 -1.4423  1.8950
 9086SOL     OW28156   1.317   3.818   6.182  0.2007 -0.3606 -0.0838
 9086SOL    HW128157   1.255   3.888   6.218  1.6980  0.7491  0.4382
 9086SOL    HW228158   1.287   3.791   6.091 -0.1905  1.2893 -0.4792
 9087SOL     OW28159   5.787   3.303   6.934  0.1833 -0.1793  0.0856
 9087SOL    HW128160   5.776   3.376   6.867  1.0312  0.8662  1.0562
 9087SOL    HW228161   5.716   3.311   7.004 -0.0991 -0.6691 -0.1392
 9088SOL     OW28162   4.418   6.094   3.559 -0.6377 -0.2037  0.2958
 9088SOL    HW128163   4.503   6.147   3.562 -1.3195  0.8902  1.0249
 9088SOL    HW228164   4.341   6.154   3.577 -1.3911 -1.5837  1.9648
 9089SOL     OW28165   5.453   1.567   4.400 -0.1717  0.3319 -0.2714
 9089SOL    HW128166   5.418   1.566   4.494 -0.8149 -0.4031 -0.5085
 9089SOL    HW228167   5.381   1.601   4.339 -0.4224 -0.9488 -0.7294
 9090SOL     OW28168   7.014   2.480   4.627  0.1760  0.1929 -0.6434
 9090SOL    HW128169   7.077   2.427   4.571 -0.4247 -3.5842  1.8990
 9090SOL    HW228170   6.923   2.437   4.625 -1.1176  2.7293 -0.4831
 9091SOL     OW28171   2.652   5.025   5.181  0.0928 -0.2028 -0.2937
 9091SOL    HW128172   2.553   5.031   5.192  0.1089 -0.8246  0.2400
 9091SOL    HW228173   2.697   5.071   5.257  0.2144 -0.3177 -0.2971
 9092SOL     OW28174   6.651   3.813   7.015 -0.8606  0.1405  0.0327
 9092SOL    HW128175   6.598   3.738   6.978 -1.3161 -0.5130  1.9178
 9092SOL    HW228176   6.725   3.836   6.951 -1.1095 -1.4423 -0.8775
 9093SOL     OW28177   1.177   5.048   4.766  0.0928  0.5244 -0.2981
 9093SOL    HW128178   1.265   5.095   4.771 -0.5640  1.7607  0.0447
 9093SOL    HW228179   1.132   5.051   4.855 -0.3529  0.0115 -0.4969
 9094SOL     OW28180   1.919   3.978   1.163 -0.3172  1.2601 -0.5095
 9094SOL    HW128181   1.972   3.931   1.233  0.5879  0.9958 -1.3545
 9094SOL    HW228182   1.895   4.070   1.195 -1.4702  0.5257  0.8537
 9095SOL     OW28183   6.582   1.203   0.447 -0.2915 -0.2409  0.2605
 9095SOL    HW128184   6.508   1.245   0.394  1.6416  0.0665 -2.4019
 9095SOL    HW228185   6.616   1.123   0.398  2.3495  0.7120  0.3866
 9096SOL     OW28186   0.382   3.605   1.871  0.3911  0.3346  0.2681
 9096SOL    HW128187   0.448   3.596   1.947  0.7611  0.5234 -0.0253
 9096SOL    HW228188   0.308   3.666   1.899  1.0667  1.2417  0.1277
 9097SOL     OW28189   0.104   3.187   7.001 -0.2266 -0.4300  0.4074
 9097SOL    HW128190   0.097   3.221   6.907  1.4199  0.7198  0.6419
 9097SOL    HW228191   0.199   3.161   7.019 -0.5099 -0.5763  1.7686
 9098SOL     OW28192   1.629   5.904   4.327 -0.1856 -0.2128  0.3627
 9098SOL    HW128193   1.532   5.896   4.307 -0.1664  2.2331 -1.1410
 9098SOL    HW228194   1.682   5.865   4.251  0.0126 -0.8053  0.7990
 9099SOL     OW28195   2.444   5.320   6.317 -0.0927  0.0718  0.5045
 9099SOL    HW128196   2.492   5.376   6.385  0.8755  0.1364 -0.2225
 9099SOL    HW228197   2.476   5.344   6.226 -2.0744  0.6563 -0.0737
 9100SOL     OW28198   1.365   4.875   0.651 -0.7714 -0.2497  0.5561
 9100SOL    HW128199   1.378   4.930   0.733  0.1653 -0.2770  0.4356
 9100SOL    HW228200   1.422   4.793   0.656 -0.6676 -0.2266 -0.1465
 9101SOL     OW28201   5.233   0.962   1.235  0.5338  0.2761  0.2154
 9101SOL    HW128202   5.316   0.918   1.200 -0.2527  0.6691 -2.4292
 9101SOL    HW228203   5.176   0.989   1.157 -0.5563  2.9484  1.8159
 9102SOL     OW28204   3.625   0.860   4.239 -0.1864 -0.2817  0.1173
 9102SOL    HW128205   3.528   0.841   4.254 -0.3620 -0.2034 -0.8738
 9102SOL    HW228206   3.638   0.903   4.150  0.5074  1.8966  1.1935
 9103SOL     OW28207   4.639   0.483   0.966 -0.3929 -0.1111 -0.0998
 9103SOL    HW128208   4.577   0.447   0.895 -0.5249 -0.2528  0.0864
 9103SOL    HW228209   4.707   0.413   0.988 -1.7327 -0.9710  1.5598
 9104SOL     OW28210   4.914   3.046   5.780 -0.1211 -0.0641 -0.5581
 9104SOL    HW128211   5.001   3.062   5.733 -0.7094  0.6354 -1.4499
 9104SOL    HW228212   4.880   3.133   5.816  0.9840 -0.7697  2.4316
 9105SOL     OW28213   2.661   0.510   6.410 -0.1032 -0.2748  0.1486
 9105SOL    HW128214   2.629   0.590   6.360 -0.3470  1.8192  3.3276
 9105SOL    HW228215   2.761   0.506   6.407 -0.1330 -2.1095 -3.0070
 9106SOL     OW28216   0.279   2.942   5.075  0.4209  0.1136  0.1848
 9106SOL    HW128217   0.245   2.945   4.982 -1.0026  0.9226  0.7065
 9106SOL    HW228218   0.375   2.972   5.077 -0.2090  2.3265 -0.7362
 9107SOL     OW28219   4.390   0.327   6.908 -0.4048  0.5299 -0.0748
 9107SOL    HW128220   4.363   0.286   6.821  0.6734  1.3537 -0.8333
 9107SOL    HW228221   4.342   0.283   6.983 -2.0492  0.4051 -1.1608
 9108SOL     OW28222   5.605   0.440   4.155 -0.3079 -0.2688  0.2402
 9108SOL    HW128223   5.557   0.443   4.243 -2.4761  0.0931 -0.8825
 9108SOL    HW228224   5.547   0.481   4.085 -0.2186 -3.6314 -2.0535
 9109SOL     OW28225   5.833   1.909   1.901 -0.2567 -0.0993  0.6564
 9109SOL    HW128226   5.767   1.837   1.882  0.1343  0.1753 -2.0307
 9109SOL    HW228227   5.831   1.977   1.829  0.9924  1.4235  1.9676
 9110SOL     OW28228   1.326   4.534   2.135  0.1933  0.1003 -0.3295
 9110SOL    HW128229   1.311   4.632   2.151 -0.7771  0.1797 -1.6415
 9110SOL    HW228230   1.354   4.519   2.040 -1.3752 -1.0457 -0.6486
 9111SOL     OW28231   5.606   2.685   5.158 -0.5887 -0.1712 -0.2994
 9111SOL    HW128232   5.646   2.719   5.243 -2.3042  0.9986  0.0853
 9111SOL    HW228233   5.602   2.759   5.091 -2.0419 -0.2527 -0.3318
 9112SOL     OW28234   0.598   6.297   0.418 -0.3949  0.1984  0.0962
 9112SOL    HW128235   0.522   6.231   0.415 -0.1055 -0.1492  0.2690
 9112SOL    HW228236   0.586   6.365   0.346 -0.0422 -0.7780 -0.9066
 9113SOL     OW28237   5.224   1.644   5.166  0.1523 -0.5745 -0.5202
 9113SOL    HW128238   5.132   1.651   5.129  0.8982  1.0206 -2.2490
 9113SOL    HW228239   5.248   1.729   5.213  1.4701 -0.0473 -2.0372
 9114SOL     OW28240   0.160   2.557   7.014  1.0265  0.1446  0.1888
 9114SOL    HW128241   0.091   2.576   7.085  0.7060 -0.7589  0.1331
 9114SOL    HW228242   0.122   2.577   6.924  1.0023  0.1167  0.1927
 9115SOL     OW28243   6.541   2.616   4.629  0.7551  0.0854  0.5965
 9115SOL    HW128244   6.445   2.635   4.608  1.0251  1.7728  0.6925
 9115SOL    HW228245   6.563   2.522   4.604 -0.4439  0.2192 -1.1747
 9116SOL     OW28246   0.386   6.020   2.473  0.2115 -0.4526  0.1881
 9116SOL    HW128247   0.297   6.030   2.518 -0.9080 -0.5524 -1.8805
 9116SOL    HW228248   0.410   6.107   2.428  0.2908 -0.9600 -0.7639
 9117SOL     OW28249   2.523   0.083   0.135  0.2175 -0.2425 -0.2164
 9117SOL    HW128250   2.616   0.101   0.167  0.2878  1.0220 -1.0830
 9117SOL    HW228251   2.525   0.015   0.062  0.1207 -2.6147  1.8220
 9118SOL     OW28252   0.509   5.633   0.877  0.4224 -0.2110 -0.3640
 9118SOL    HW128253   0.462   5.664   0.960  0.5790 -2.9296  0.8452
 9118SOL    HW228254   0.458   5.662   0.797 -0.7193  0.9574  0.7424
 9119SOL     OW28255   4.318   1.367   6.669  0.1624 -0.2901 -0.2133
 9119SOL    HW128256   4.330   1.356   6.570 -2.6255  1.4002 -0.8364
 9119SOL    HW228257   4.242   1.310   6.700 -3.3843  3.7760 -0.4571
 9120SOL     OW28258   6.276   5.949   3.711 -0.4864  0.6931  0.5644
 9120SOL    HW128259   6.256   6.047   3.701 -2.6871  0.3320  0.8132
 9120SOL    HW228260   6.195   5.903   3.748 -0.5395 -1.6914 -2.2088
 9121SOL     OW28261   4.306   2.073   6.058 -0.7730  0.3590  0.4152
 9121SOL    HW128262   4.291   1.997   5.995  0.1735 -0.0054  0.6066
 9121SOL    HW228263   4.311   2.158   6.006  1.5310 -0.0945 -0.2655
 9122SOL     OW28264   5.952   2.215   2.758 -0.3524 -0.8125 -0.8838
 9122SOL    HW128265   5.943   2.122   2.723  0.8484 -0.7982 -1.2871
 9122SOL    HW228266   5.963   2.279   2.682 -1.5048 -0.2726 -0.6312
 9123SOL     OW28267   2.238   6.326   1.867 -0.1249 -0.7551 -0.4523
 9123SOL    HW128268   2.196   6.296   1.953 -0.6016  1.4357  0.1262
 9123SOL    HW228269   2.167   6.354   1.803  0.1839 -3.0133 -1.9018
 9124SOL     OW28270   3.328   6.440   6.374 -1.0264  0.1079 -0.3470
 9124SOL    HW128271   3.305   6.522   6.322 -2.1899 -0.8889 -1.4430
 9124SOL    HW228272   3.264   6.367   6.353 -0.0993 -1.0687  0.7162
 9125SOL     OW28273   5.261   5.515   2.471  0.4775  0.0685  0.3832
 9125SOL    HW128274   5.244   5.418   2.486  1.0586 -0.2762 -0.9711
 9125SOL    HW228275   5.179   5.568   2.492  0.8171 -0.4285  3.3283
 9126SOL     OW28276   2.326   5.768   0.525 -0.5611 -0.3838 -0.0281
 9126SOL    HW128277   2.379   5.699   0.575 -2.6132 -1.7054  0.4209
 9126SOL    HW228278   2.376   5.794   0.442  1.1762 -0.9023  0.7938
 9127SOL     OW28279   5.835   3.840   5.283  0.2387  0.6883  0.0447
 9127SOL    HW128280   5.779   3.922   5.282  1.1945  1.3596 -1.0695
 9127SOL    HW228281   5.788   3.767   5.333 -1.8371  1.0584 -1.2751
 9128SOL     OW28282   5.077   1.095   6.473  0.4751  0.0113 -0.1896
 9128SOL    HW128283   5.007   1.116   6.541  1.9645  0.0529  1.4268
 9128SOL    HW228284   5.126   1.012   6.501  1.8718  0.6758 -0.5609
 9129SOL     OW28285   0.744   1.978   1.858  0.0543  0.2705  0.3728
 9129SOL    HW128286   0.766   1.890   1.815  1.0205  0.1868  1.0083
 9129SOL    HW228287   0.699   2.037   1.792 -1.3625 -0.9890  0.1446
 9130SOL     OW28288   4.759   3.611   6.679  0.1247  0.2430 -0.1127
 9130SOL    HW128289   4.712   3.562   6.605  0.8064 -2.0564  0.8918
 9130SOL    HW228290   4.834   3.664   6.640  1.0478 -1.6359 -1.0728
 9131SOL     OW28291   6.319   5.309   1.308  0.3465 -0.1536 -0.2818
 9131SOL    HW128292   6.309   5.239   1.379 -1.1707 -0.1684 -0.4604
 9131SOL    HW228293   6.387   5.281   1.241  0.8352 -0.7555  0.4555
 9132SOL     OW28294   1.206   4.235   1.384 -0.1493  0.2980  0.1560
 9132SOL    HW128295   1.204   4.330   1.415  1.7480  0.2211  0.6126
 9132SOL    HW228296   1.194   4.174   1.463  2.6194  0.1397  0.5527
 9133SOL     OW28297   5.574   0.519   1.807  0.1968  0.2007 -0.1816
 9133SOL    HW128298   5.576   0.618   1.820  0.4410  0.4678 -1.9147
 9133SOL    HW228299   5.597   0.498   1.712  0.5453 -1.5524  0.2549
 9134SOL     OW28300   5.443   2.870   4.424  0.3757 -0.2523 -0.1511
 9134SOL    HW128301   5.384   2.894   4.346  0.9267  0.8514 -0.2543
 9134SOL    HW228302   5.469   2.954   4.473  0.8272 -0.8452  0.6417
 9135SOL     OW28303   5.276   3.835   0.932 -0.0560 -0.0965 -0.1623
 9135SOL    HW128304   5.221   3.828   0.849 -2.0203  1.2510  0.9493
 9135SOL    HW228305   5.346   3.905   0.920 -0.1205 -0.1382 -0.7870
 9136SOL     OW28306   6.907   5.259   0.182  0.9111 -0.2892  0.3147
 9136SOL    HW128307   6.991   5.274   0.234  1.0154  0.4177 -0.0403
 9136SOL    HW228308   6.852   5.343   0.183  0.2752 -0.6980  0.4211
 9137SOL     OW28309   6.920   6.075   6.899  0.6674  0.1154 -0.3120
 9137SOL    HW128310   6.954   6.121   6.817 -0.1981 -1.0296 -1.3430
 9137SOL    HW228311   6.997   6.035   6.949  1.0721 -0.4043 -1.3355
 9138SOL     OW28312   1.384   3.731   4.658 -0.6280 -0.0677  0.1912
 9138SOL    HW128313   1.327   3.654   4.687 -0.3356 -0.2516  0.2854
 9138SOL    HW228314   1.472   3.696   4.626 -0.4798  0.2321  0.2703
 9139SOL     OW28315   1.032   6.349   1.689 -0.2554  0.0109  0.0065
 9139SOL    HW128316   0.988   6.439   1.683 -2.9199 -1.2477 -0.7361
 9139SOL    HW228317   1.118   6.351   1.638 -0.3064  2.0618 -0.1085
 9140SOL     OW28318   1.026   6.073   1.410  0.0694  0.1423 -0.1540
 9140SOL    HW128319   1.087   6.123   1.470  2.7597  0.1760 -2.6964
 9140SOL    HW228320   1.066   5.983   1.389 -0.5500  0.2830 -2.1350
 9141SOL     OW28321   6.744   5.698   2.323  0.3627 -0.2544  0.2625
 9141SOL    HW128322   6.723   5.796   2.326  1.3644 -0.0327  0.4226
 9141SOL    HW228323   6.786   5.676   2.236  0.9270 -0.3721  0.5614
 9142SOL     OW28324   1.842   6.794   2.631 -0.1128  0.4232  0.2039
 9142SOL    HW128325   1.806   6.832   2.716 -1.6076  0.9462 -0.6156
 9142SOL    HW228326   1.827   6.695   2.630 -2.2070  0.6910 -0.3590
 9143SOL     OW28327   6.262   3.824   2.190 -0.4922 -0.1761 -0.0648
 9143SOL    HW128328   6.355   3.836   2.223  0.4173 -1.7747 -1.8484
 9143SOL    HW228329   6.215   3.755   2.245 -0.9414  1.2059  1.3442
 9144SOL     OW28330   3.895   5.511   5.056 -0.4395  0.0343 -0.4256
 9144SOL    HW128331   3.929   5.565   5.133 -3.0729 -0.6999  1.3983
 9144SOL    HW228332   3.872   5.419   5.088 -1.5501 -0.3071 -2.1027
 9145SOL     OW28333   2.861   6.285   5.924 -0.0904 -0.1076  0.2827
 9145SOL    HW128334   2.858   6.385   5.917 -0.8711  0.0247  2.0137
 9145SOL    HW228335   2.805   6.245   5.851 -0.5518  0.7462  0.1488
 9146SOL     OW28336   6.005   0.598   3.670  0.0211 -0.1178 -0.3002
 9146SOL    HW128337   6.095   0.590   3.712  0.2448  1.7438 -0.3464
 9146SOL    HW228338   5.935   0.578   3.738  0.4392 -0.1700  0.1234
 9147SOL     OW28339   3.190   1.682   5.123  0.5567 -0.3960  0.0433
 9147SOL    HW128340   3.156   1.602   5.075 -0.7690  0.1319  0.0805
 9147SOL    HW228341   3.247   1.737   5.061  2.0984 -1.7024  0.2184
 9148SOL     OW28342   3.189   4.193   1.764  0.6107 -0.4356  0.9120
 9148SOL    HW128343   3.157   4.119   1.823  1.0392 -0.3736  1.2265
 9148SOL    HW228344   3.287   4.182   1.748  0.3561 -0.8952 -0.4326
 9149SOL     OW28345   0.553   6.734   3.288  0.7607  0.1928 -0.8654
 9149SOL    HW128346   0.523   6.741   3.192 -0.5550  0.0612 -0.4844
 9149SOL    HW228347   0.524   6.816   3.338  1.2182  0.1433 -0.5059
 9150SOL     OW28348   4.239   2.835   0.489 -0.4207 -0.8130  0.0330
 9150SOL    HW128349   4.240   2.819   0.588  2.2347 -1.7271 -0.0518
 9150SOL    HW228350   4.206   2.927   0.470  0.6915  0.0244  1.9259
 9151SOL     OW28351   0.931   3.362   5.181 -0.3700 -0.4729 -0.3352
 9151SOL    HW128352   1.023   3.323   5.173 -0.4156 -0.4512 -0.9588
 9151SOL    HW228353   0.905   3.405   5.095  0.8285  3.5910  1.0910
 9152SOL     OW28354   2.815   4.776   3.932 -0.0148  0.0123  0.3177
 9152SOL    HW128355   2.749   4.850   3.942  0.1603  0.3403 -0.8485
 9152SOL    HW228356   2.836   4.738   4.022 -0.6212  0.9260  0.8589
 9153SOL     OW28357   1.416   1.470   1.375  0.5070 -0.0534  0.7346
 9153SOL    HW128358   1.370   1.395   1.422 -0.4758 -1.4737 -2.2846
 9153SOL    HW228359   1.353   1.513   1.310  1.9107  1.5495  0.3496
 9154SOL     OW28360   4.447   3.360   1.618  0.0451 -0.1033  0.8293
 9154SOL    HW128361   4.494   3.430   1.565  0.5210  0.1000  1.5114
 9154SOL    HW228362   4.514   3.301   1.663 -0.3348 -1.5731 -0.4442
 9155SOL     OW28363   5.417   0.883   2.109 -0.5840  0.2450 -0.4709
 9155SOL    HW128364   5.353   0.847   2.042 -1.6197 -0.4385  0.8251
 9155SOL    HW228365   5.395   0.846   2.199  0.8295  1.0383  0.2446
 9156SOL     OW28366   6.751   3.796   5.722 -0.1430 -0.3157 -0.7826
 9156SOL    HW128367   6.664   3.786   5.770 -0.5450  2.2778 -0.8215
 9156SOL    HW228368   6.737   3.781   5.624 -0.4681 -0.2596 -0.7461
 9157SOL     OW28369   1.098   2.881   3.705  0.4048  0.2183 -0.0183
 9157SOL    HW128370   1.149   2.866   3.620  0.6339  0.4071  0.0844
 9157SOL    HW228371   1.153   2.935   3.768  0.1861  0.1846  0.2046
 9158SOL     OW28372   0.581   4.044   4.595 -0.1636 -0.0856  0.4909
 9158SOL    HW128373   0.489   4.059   4.630 -0.7893 -1.5347 -0.4023
 9158SOL    HW228374   0.648   4.082   4.658 -1.3509  0.4311  1.4774
 9159SOL     OW28375   0.495   1.104   5.288 -0.2342 -0.6560 -0.2586
 9159SOL    HW128376   0.442   1.185   5.312  1.0267 -0.2027  1.1444
 9159SOL    HW228377   0.436   1.023   5.293 -1.7356  0.1985 -2.5436
 9160SOL     OW28378   0.283   4.290   0.880 -0.1675 -0.1237  0.1813
 9160SOL    HW128379   0.329   4.282   0.969  1.4982  1.4850 -0.4764
 9160SOL    HW228380   0.260   4.385   0.862 -2.9722 -0.7478  0.0104
 9161SOL     OW28381   6.038   3.222   1.083 -0.7261  0.1689  0.2287
 9161SOL    HW128382   5.957   3.251   1.033 -0.3085  0.4676 -0.2834
 9161SOL    HW228383   6.093   3.162   1.026 -0.7969 -0.3893  0.7301
 9162SOL     OW28384   5.839   1.176   2.082  0.0983 -0.3704 -0.3518
 9162SOL    HW128385   5.906   1.117   2.125 -0.1966 -1.1578 -0.9403
 9162SOL    HW228386   5.749   1.132   2.085 -0.1385  0.0730 -0.7576
 9163SOL     OW28387   1.130   3.747   3.104 -0.0427 -0.2713  0.0416
 9163SOL    HW128388   1.166   3.838   3.123  2.0861 -1.2255  0.9530
 9163SOL    HW228389   1.083   3.712   3.185  0.5303 -0.5716  0.2534
 9164SOL     OW28390   3.214   6.026   6.912  0.1662  0.6175  0.5705
 9164SOL    HW128391   3.278   6.099   6.933  0.7026  0.8327 -1.5554
 9164SOL    HW228392   3.223   5.953   6.979  1.0086  1.6268  1.6038
 9165SOL     OW28393   6.860   0.116   6.481 -0.4487 -0.0565  0.3323
 9165SOL    HW128394   6.843   0.169   6.398 -1.9340 -0.4443  0.3540
 9165SOL    HW228395   6.846   0.175   6.561  1.5716  0.4812  0.3429
 9166SOL     OW28396   4.093   6.297   0.826  0.1722 -0.4289  0.4462
 9166SOL    HW128397   4.105   6.218   0.767 -1.4178  0.3094 -0.9552
 9166SOL    HW228398   4.036   6.273   0.904 -3.8063  0.0950 -2.0283
 9167SOL     OW28399   2.015   1.993   4.426 -0.1504 -0.0943  0.3491
 9167SOL    HW128400   2.020   2.092   4.434 -2.7471  0.0364  1.3398
 9167SOL    HW228401   1.962   1.968   4.345  1.1050 -0.7433 -0.3153
 9168SOL     OW28402   6.236   6.188   4.006 -0.0977 -0.9144  0.0685
 9168SOL    HW128403   6.295   6.239   4.068  0.2588  0.3897 -1.2866
 9168SOL    HW228404   6.276   6.098   3.988 -0.4992 -1.5437  2.1295
 9169SOL     OW28405   6.422   5.222   6.410 -0.2550  0.6798  0.2810
 9169SOL    HW128406   6.520   5.236   6.405 -0.3454  1.1184 -0.4137
 9169SOL    HW228407   6.401   5.154   6.480  0.4259  1.6901  1.5168
 9170SOL     OW28408   0.781   1.663   6.157 -0.3146 -0.0270 -0.1793
 9170SOL    HW128409   0.717   1.585   6.152  0.1230 -0.3968 -0.0939
 9170SOL    HW228410   0.831   1.659   6.244 -0.8574  0.8055  0.1768
 9171SOL     OW28411   5.844   4.211   5.914  0.2476 -0.6105 -0.7463
 9171SOL    HW128412   5.802   4.193   5.825 -3.1652  1.1536  0.3251
 9171SOL    HW228413   5.810   4.145   5.981 -0.1147  0.3026 -0.0118
 9172SOL     OW28414   5.799   0.381   5.349  0.2478 -0.2009  0.0853
 9172SOL    HW128415   5.744   0.453   5.392  1.8341  1.9331 -1.2550
 9172SOL    HW228416   5.822   0.312   5.417 -1.4756  0.4394  1.3960
 9173SOL     OW28417   5.827   4.866   4.882 -0.2962 -0.1879  0.5306
 9173SOL    HW128418   5.763   4.942   4.865  0.1732  0.1881  0.4225
 9173SOL    HW228419   5.798   4.817   4.965 -1.1725 -0.5120  0.0491
 9174SOL     OW28420   4.811   2.378   6.352 -0.0126  0.2309 -0.3434
 9174SOL    HW128421   4.873   2.456   6.361  0.1634  0.0360  0.1849
 9174SOL    HW228422   4.767   2.361   6.441  2.4806 -2.3941  0.5407
 9175SOL     OW28423   2.084   6.630   0.190 -0.0402  0.3653  0.5292
 9175SOL    HW128424   2.030   6.618   0.106 -2.1470  1.4700  1.6430
 9175SOL    HW228425   2.176   6.661   0.166 -0.3213 -0.1597 -1.4028
 9176SOL     OW28426   2.464   6.732   1.638 -0.0050  0.2850  0.0600
 9176SOL    HW128427   2.484   6.787   1.557  0.9645  1.2547  0.9321
 9176SOL    HW228428   2.459   6.791   1.719 -2.1934 -0.4835  0.5724
 9177SOL     OW28429   0.260   6.350   2.713  0.1089 -0.3668 -0.0076
 9177SOL    HW128430   0.226   6.335   2.621 -2.4284 -1.3426  1.0009
 9177SOL    HW228431   0.290   6.263   2.752 -4.9594 -1.4797  2.2219
 9178SOL     OW28432   6.917   3.040   0.038  0.3143  0.0603 -0.0505
 9178SOL    HW128433   6.975   3.113   0.002  0.9190  0.2509  1.2566
 9178SOL    HW228434   6.974   2.964   0.069  0.0444  0.8312  2.5785
 9179SOL     OW28435   3.963   6.858   1.928 -0.2778 -0.0704  0.1567
 9179SOL    HW128436   4.028   6.908   1.870  1.2431 -0.2956  1.5959
 9179SOL    HW228437   3.873   6.901   1.922  0.2366  0.9117 -1.0575
 9180SOL     OW28438   6.761   1.788   4.048 -0.1177 -0.4384  0.2519
 9180SOL    HW128439   6.723   1.748   4.132 -2.3085 -0.6783 -0.7861
 9180SOL    HW228440   6.689   1.837   3.999  1.7185  1.9459 -0.2227
 9181SOL     OW28441   3.867   1.178   3.767 -0.0518  0.6080 -0.5145
 9181SOL    HW128442   3.803   1.117   3.719 -0.3702 -1.4643  2.3009
 9181SOL    HW228443   3.820   1.262   3.793 -0.8160  0.3259 -0.9330
 9182SOL     OW28444   6.907   0.532   1.234 -0.0840 -0.0879 -0.0858
 9182SOL    HW128445   6.990   0.559   1.185  0.8923 -2.4041  0.1880
 9182SOL    HW228446   6.897   0.589   1.316  1.2607  0.1863 -0.0966
 9183SOL     OW28447   2.228   3.040   1.378 -0.4952  0.2064  0.4151
 9183SOL    HW128448   2.188   3.101   1.446  0.9905  1.0798  0.5518
 9183SOL    HW228449   2.316   3.076   1.348 -0.6080 -0.7207 -1.1868
 9184SOL     OW28450   2.451   6.899   1.855 -0.6897 -0.4430 -0.2908
 9184SOL    HW128451   2.374   6.955   1.826 -1.8759 -1.0215  1.5825
 9184SOL    HW228452   2.535   6.952   1.848 -1.5731  1.0356 -0.0139
 9185SOL     OW28453   1.726   1.380   4.719 -0.1800  0.1439  0.2223
 9185SOL    HW128454   1.795   1.363   4.649 -0.6701  1.3652 -0.6034
 9185SOL    HW228455   1.637   1.346   4.687 -0.7865  2.3762 -0.6321
 9186SOL     OW28456   6.448   5.884   6.244 -0.1095  0.1199  0.4072
 9186SOL    HW128457   6.473   5.978   6.268 -2.6484  0.7908  0.6130
 9186SOL    HW228458   6.458   5.826   6.325 -0.6076  0.6618  0.8660
 9187SOL     OW28459   5.203   3.258   1.531 -0.2130 -0.2101  0.1798
 9187SOL    HW128460   5.178   3.192   1.602  0.4227 -0.5053  0.1311
 9187SOL    HW228461   5.189   3.351   1.566  0.4535 -0.3457  0.8271
 9188SOL     OW28462   0.523   5.978   3.008  0.1132  0.3562 -0.0226
 9188SOL    HW128463   0.510   6.070   3.044 -0.9407  0.4182 -0.5319
 9188SOL    HW228464   0.553   5.917   3.081 -2.8444  0.2750  1.2543
 9189SOL     OW28465   3.308   4.901   3.438 -0.1842 -0.0334 -0.3591
 9189SOL    HW128466   3.311   4.984   3.382 -0.5087  0.0647 -0.2311
 9189SOL    HW228467   3.323   4.821   3.380  1.1346  0.1738 -0.3345
 9190SOL     OW28468   2.586   6.889   6.992 -0.0158 -0.6177  0.3104
 9190SOL    HW128469   2.617   6.929   6.907 -0.6963 -1.1165 -0.1844
 9190SOL    HW228470   2.628   6.799   7.004 -1.1453 -1.2450 -0.3057
 9191SOL     OW28471   5.247   6.490   2.087 -0.3270  0.0649 -0.3254
 9191SOL    HW128472   5.336   6.456   2.115 -0.0162  0.6510 -0.5724
 9191SOL    HW228473   5.259   6.563   2.019 -0.9730  0.4584 -0.0288
 9192SOL     OW28474   3.944   4.946   4.453  0.2680 -0.0053 -0.4413
 9192SOL    HW128475   3.869   5.006   4.424  2.5902  2.9371 -0.7941
 9192SOL    HW228476   3.950   4.947   4.553  0.4387  0.5633 -0.4535
 9193SOL     OW28477   3.877   3.069   3.202  0.2333 -0.1804 -0.3835
 9193SOL    HW128478   3.844   3.158   3.236 -1.4988 -0.0841 -2.1339
 9193SOL    HW228479   3.845   2.997   3.263 -0.4145  0.2154 -0.2371
 9194SOL     OW28480   4.133   0.570   2.794  0.2350 -0.3688 -0.3251
 9194SOL    HW128481   4.086   0.518   2.866 -0.0718  2.5219  1.7368
 9194SOL    HW228482   4.073   0.642   2.761  1.1876 -0.2962 -1.9946
 9195SOL     OW28483   6.735   5.271   3.002  0.1122 -0.1757  0.2755
 9195SOL    HW128484   6.667   5.311   3.065 -1.9001 -0.8272 -1.3720
 9195SOL    HW228485   6.729   5.317   2.914  1.3974 -0.7060 -0.1055
 9196SOL     OW28486   5.018   5.057   3.311  0.1574 -0.7348 -0.0069
 9196SOL    HW128487   4.942   5.010   3.357 -0.7998  1.0748  0.3421
 9196SOL    HW228488   5.061   5.121   3.375 -1.3943  2.0544 -1.6045
 9197SOL     OW28489   4.126   1.813   6.050  0.3928  0.1265 -0.4459
 9197SOL    HW128490   4.028   1.826   6.033  0.4923 -0.5955 -1.6689
 9197SOL    HW228491   4.150   1.853   6.138 -0.9175  0.6975 -0.3297
 9198SOL     OW28492   6.150   5.029   4.603 -0.2126  0.5473  0.0777
 9198SOL    HW128493   6.068   5.029   4.547 -0.5906 -0.9976  0.5710
 9198SOL    HW228494   6.231   5.035   4.544 -0.6464  0.8518 -0.4887
 9199SOL     OW28495   6.757   2.169   5.040 -0.4498 -0.3288 -0.6111
 9199SOL    HW128496   6.756   2.086   4.984 -1.4979 -1.0086  0.3615
 9199SOL    HW228497   6.848   2.210   5.037  0.4528 -2.1854 -0.1622
 9200SOL     OW28498   3.320   4.839   1.357 -0.7511 -0.0787  0.2615
 9200SOL    HW128499   3.260   4.760   1.366 -1.0864  0.4585  4.1272
 9200SOL    HW228500   3.415   4.810   1.360 -0.8145 -0.4774 -0.8802
 9201SOL     OW28501   6.543   3.545   2.554 -0.4726  0.3032  0.9593
 9201SOL    HW128502   6.538   3.467   2.616  0.3747  1.7845  3.0033
 9201SOL    HW228503   6.634   3.547   2.510 -1.1621 -0.8923 -0.6169
 9202SOL     OW28504   1.121   5.657   5.312  0.0700 -0.8741  0.4021
 9202SOL    HW128505   1.217   5.664   5.286  0.7159 -1.4776  2.4393
 9202SOL    HW228506   1.075   5.743   5.292  1.0762 -0.5127 -0.4429
 9203SOL     OW28507   5.716   1.172   6.336  0.0318 -0.4270  1.2290
 9203SOL    HW128508   5.774   1.094   6.359 -0.8198 -1.3819  0.2396
 9203SOL    HW228509   5.719   1.239   6.410  2.7893 -0.1958  1.0149
 9204SOL     OW28510   4.477   3.546   0.168  0.2319 -0.3359  0.6868
 9204SOL    HW128511   4.513   3.471   0.223  0.6527 -1.5588 -1.1703
 9204SOL    HW228512   4.393   3.517   0.122 -0.1201  0.6551  0.6808
 9205SOL     OW28513   5.714   2.746   1.457 -0.3769  0.2135 -0.2595
 9205SOL    HW128514   5.809   2.774   1.472 -0.3300 -0.1406  0.1462
 9205SOL    HW228515   5.653   2.820   1.483 -0.1977  0.5956 -0.9220
 9206SOL     OW28516   1.140   0.231   4.930 -0.1108 -0.4686 -0.2499
 9206SOL    HW128517   1.082   0.257   5.007 -2.2430 -1.8833 -1.2881
 9206SOL    HW228518   1.199   0.308   4.906  0.2058  0.2231  2.3572
 9207SOL     OW28519   6.445   6.995   0.593  0.2106  0.0928  0.1809
 9207SOL    HW128520   6.428   6.908   0.547 -2.3483  1.5505 -1.9073
 9207SOL    HW228521   6.540   6.998   0.625  0.1057 -3.8446  1.3614
 9208SOL     OW28522   6.539   3.352   1.394 -0.1983 -0.4663 -0.3199
 9208SOL    HW128523   6.505   3.335   1.301 -0.6532  0.0245 -0.2515
 9208SOL    HW228524   6.549   3.265   1.442 -0.9256 -0.6615 -0.5055
 9209SOL     OW28525   4.411   6.877   2.518  0.0583  0.0576  0.1951
 9209SOL    HW128526   4.467   6.838   2.444  0.9603  1.6233  0.0081
 9209SOL    HW228527   4.328   6.823   2.528  0.0589 -0.3833 -1.7574
 9210SOL     OW28528   1.524   3.280   2.608 -0.2267 -0.1739 -0.1739
 9210SOL    HW128529   1.478   3.212   2.665  1.0803 -0.4071  0.6480
 9210SOL    HW228530   1.623   3.268   2.616  0.0005  0.1285 -2.1156
 9211SOL     OW28531   2.120   0.532   0.336 -0.6311 -0.2626 -0.2580
 9211SOL    HW128532   2.132   0.611   0.275  0.5564  0.8012  1.2927
 9211SOL    HW228533   2.180   0.541   0.415 -1.8530 -1.7997  0.9067
 9212SOL     OW28534   4.703   3.252   6.200  0.8285 -0.1826 -0.8350
 9212SOL    HW128535   4.649   3.168   6.193  0.2365  0.2330 -1.4411
 9212SOL    HW228536   4.710   3.280   6.296 -0.5076  0.0412 -0.7782
 9213SOL     OW28537   0.529   6.601   1.820  0.2709 -0.4453  0.0794
 9213SOL    HW128538   0.437   6.572   1.847 -0.8798  0.8674 -2.1617
 9213SOL    HW228539   0.564   6.667   1.887 -0.4888 -0.7987  0.8475
 9214SOL     OW28540   3.554   1.770   6.940  0.2112  0.1742  0.3307
 9214SOL    HW128541   3.454   1.770   6.940  0.1506 -0.9803  2.2261
 9214SOL    HW228542   3.588   1.838   6.875 -1.7613 -0.8767 -1.9527
 9215SOL     OW28543   0.090   3.675   4.825 -0.1148  0.0317 -0.6159
 9215SOL    HW128544   0.003   3.675   4.875 -0.3804 -0.0502 -1.0684
 9215SOL    HW228545   0.162   3.635   4.881 -0.1378  1.0632  0.1688
 9216SOL     OW28546   0.659   1.077   3.039  0.5693 -0.1648  0.3287
 9216SOL    HW128547   0.747   1.115   3.010  0.6302  0.3725  1.1845
 9216SOL    HW228548   0.632   1.118   3.126 -0.0339 -1.0843  0.5908
 9217SOL     OW28549   4.668   6.871   6.691 -0.3921 -0.3969 -0.4475
 9217SOL    HW128550   4.687   6.962   6.727 -2.9505  0.0513 -0.0089
 9217SOL    HW228551   4.654   6.807   6.766 -1.8240 -0.3583 -0.6390
 9218SOL     OW28552   6.704   5.074   4.913  0.3208 -0.6745 -0.4394
 9218SOL    HW128553   6.753   5.157   4.941  0.0068 -0.7017  0.2197
 9218SOL    HW228554   6.649   5.094   4.832  0.2822 -0.2482 -0.3114
 9219SOL     OW28555   3.035   2.696   5.428  0.6041 -0.3037  0.1051
 9219SOL    HW128556   3.024   2.775   5.367 -1.1529  0.7542  1.6962
 9219SOL    HW228557   2.967   2.626   5.405  1.7637 -1.1383 -0.9066
 9220SOL     OW28558   1.520   0.835   2.521  0.6633 -0.2774  0.0177
 9220SOL    HW128559   1.545   0.740   2.541  0.1058 -0.3971  0.1533
 9220SOL    HW228560   1.537   0.854   2.425 -0.0105 -0.7636 -0.2046
 9221SOL     OW28561   3.418   0.184   2.232 -0.5332  0.0398 -0.4131
 9221SOL    HW128562   3.415   0.093   2.272 -2.2182  0.0835 -0.3565
 9221SOL    HW228563   3.501   0.232   2.262  0.2471 -1.3656 -0.2571
 9222SOL     OW28564   2.785   5.837   2.460 -0.1420  0.3115 -0.0507
 9222SOL    HW128565   2.771   5.785   2.543  0.2537 -0.7377 -0.6196
 9222SOL    HW228566   2.876   5.879   2.461  0.4422 -0.9131 -0.5775
 9223SOL     OW28567   4.529   3.335   5.786 -0.4430 -0.5555  0.3484
 9223SOL    HW128568   4.562   3.350   5.879  1.5524  0.0732 -0.4107
 9223SOL    HW228569   4.561   3.246   5.754 -0.9447 -0.6768  0.1856
 9224SOL     OW28570   2.456   5.400   3.937 -0.0430  0.0692 -0.2641
 9224SOL    HW128571   2.554   5.413   3.947 -0.2369  0.7612  0.8389
 9224SOL    HW228572   2.438   5.344   3.856  1.3053 -0.8213  0.0244
 9225SOL     OW28573   0.260   6.264   5.455  0.3358 -0.0199 -0.2663
 9225SOL    HW128574   0.182   6.243   5.396 -0.3165  0.7146  0.3230
 9225SOL    HW228575   0.338   6.293   5.399 -0.5827  1.6536 -0.7313
 9226SOL     OW28576   6.570   6.454   4.324  0.1970 -0.6806 -0.1431
 9226SOL    HW128577   6.591   6.492   4.414 -1.3067  1.5500 -0.6768
 9226SOL    HW228578   6.605   6.514   4.253 -1.4634 -0.6916 -1.0227
 9227SOL     OW28579   5.283   3.253   5.837  0.2880 -0.0210 -0.1163
 9227SOL    HW128580   5.352   3.292   5.777  0.7192  0.1375  0.4666
 9227SOL    HW228581   5.327   3.219   5.920 -0.5243  1.9571  1.2240
 9228SOL     OW28582   3.934   3.338   4.328 -0.0467 -0.0746  0.7010
 9228SOL    HW128583   3.884   3.334   4.415 -0.4706  2.8976  0.7175
 9228SOL    HW228584   4.019   3.389   4.341  1.6528 -2.5621  0.0243
 9229SOL     OW28585   0.317   0.803   3.025  0.1451 -0.6100 -0.3286
 9229SOL    HW128586   0.239   0.807   2.963 -1.4812  1.3827  1.6295
 9229SOL    HW228587   0.402   0.802   2.973 -1.1451 -0.5440 -2.5426
 9230SOL     OW28588   3.699   5.316   5.245 -0.1713 -0.2174 -0.6054
 9230SOL    HW128589   3.692   5.229   5.294 -0.5230  0.0384 -0.1988
 9230SOL    HW228590   3.671   5.302   5.150  0.0412 -0.6082 -0.6135
 9231SOL     OW28591   4.908   5.181   3.635 -0.0120 -0.0515 -0.1158
 9231SOL    HW128592   4.846   5.155   3.561  0.4685 -2.4774  0.2524
 9231SOL    HW228593   5.002   5.161   3.607  0.3986  1.2231  0.2947
 9232SOL     OW28594   0.732   3.793   1.595 -0.0107  0.6074 -0.8635
 9232SOL    HW128595   0.782   3.709   1.618  0.8304  1.7480  1.9779
 9232SOL    HW228596   0.768   3.831   1.510  1.9363 -0.2094 -0.4678
 9233SOL     OW28597   2.906   1.240   0.636  0.5823  0.3459 -0.0982
 9233SOL    HW128598   2.895   1.247   0.537  0.5573 -0.0637 -0.1262
 9233SOL    HW228599   2.994   1.280   0.663  0.8703 -0.1040 -0.3584
 9234SOL     OW28600   2.661   2.610   0.015  0.6369  0.2573  0.1424
 9234SOL    HW128601   2.583   2.649  -0.033  0.8711  0.8151  0.2048
 9234SOL    HW228602   2.718   2.559  -0.050 -0.1809 -0.8187  0.2415
 9235SOL     OW28603   1.857   2.309   2.424  0.2147  0.1422 -0.2771
 9235SOL    HW128604   1.926   2.270   2.363  0.2681 -1.3844  0.7145
 9235SOL    HW228605   1.767   2.274   2.398  0.0928  0.3954 -0.1932
 9236SOL     OW28606   4.471   4.424   0.440 -0.3220  0.5575  0.0305
 9236SOL    HW128607   4.472   4.522   0.459 -0.4499  0.3572  1.1692
 9236SOL    HW228608   4.565   4.390   0.438 -0.2136  0.8831 -1.4794
 9237SOL     OW28609   0.488   6.411   3.997  0.4013  0.2151  0.3707
 9237SOL    HW128610   0.525   6.428   4.088 -0.5135 -0.1550  0.8270
 9237SOL    HW228611   0.394   6.377   4.005  0.6150 -0.7005 -0.6622
 9238SOL     OW28612   2.196   2.541   3.778  0.1371  0.6084 -0.4902
 9238SOL    HW128613   2.173   2.630   3.816  0.5234 -0.5470  2.7830
 9238SOL    HW228614   2.129   2.473   3.809  1.6508 -0.8012 -0.1718
 9239SOL     OW28615   2.388   6.361   6.891 -0.3114 -0.3932 -0.0140
 9239SOL    HW128616   2.462   6.295   6.903 -0.8042 -1.0611 -0.6163
 9239SOL    HW228617   2.321   6.349   6.964 -0.5252 -0.7270 -0.2648
 9240SOL     OW28618   3.898   2.202   5.534  0.3894 -0.3255 -0.1436
 9240SOL    HW128619   3.799   2.193   5.523  0.2568 -0.3788  0.9315
 9240SOL    HW228620   3.935   2.261   5.463 -0.6818  1.0789  0.4204
 9241SOL     OW28621   5.304   5.376   1.279  0.0809 -0.4100 -0.1517
 9241SOL    HW128622   5.263   5.286   1.294 -0.5572  0.0176  0.8287
 9241SOL    HW228623   5.404   5.369   1.284  0.0485 -1.1121 -0.4175
 9242SOL     OW28624   3.065   3.889   0.002 -0.3216  0.1194  0.3595
 9242SOL    HW128625   3.018   3.802  -0.007 -1.7206  0.9134 -0.3533
 9242SOL    HW228626   3.101   3.917  -0.087 -0.2681  0.4817  0.4929
 9243SOL     OW28627   3.555   5.690   0.703  0.4445  0.0411  0.5051
 9243SOL    HW128628   3.509   5.779   0.700  1.8465  0.7971  0.7341
 9243SOL    HW228629   3.550   5.654   0.796 -0.8394 -0.5365  0.2383
 9244SOL     OW28630   5.776   4.429   0.546  0.6634  0.2189  0.1089
 9244SOL    HW128631   5.803   4.363   0.477 -0.8920  0.2615 -0.5736
 9244SOL    HW228632   5.710   4.386   0.609  0.0488  0.9521 -0.0258
 9245SOL     OW28633   6.944   5.093   3.611  0.2168  0.0992 -0.6815
 9245SOL    HW128634   7.028   5.061   3.567  0.3256 -1.7029  0.7089
 9245SOL    HW228635   6.965   5.122   3.705 -0.5442  0.6566 -0.6765
 9246SOL     OW28636   4.482   0.497   0.492  0.5568  0.3200  0.0648
 9246SOL    HW128637   4.418   0.538   0.427  2.2821  0.8228 -1.4351
 9246SOL    HW228638   4.554   0.563   0.513  0.6412 -0.2338  1.6586
 9247SOL     OW28639   2.865   6.601   3.455  0.0809 -0.1974  0.0949
 9247SOL    HW128640   2.885   6.642   3.366 -0.6281  0.0111  0.0239
 9247SOL    HW228641   2.773   6.626   3.483 -0.0751 -1.1004  0.4219
 9248SOL     OW28642   4.068   1.254   5.768 -0.1618  0.1618  0.6691
 9248SOL    HW128643   4.050   1.339   5.719  0.5099 -0.2134 -0.2630
 9248SOL    HW228644   4.136   1.270   5.839 -0.2097  0.4496  0.6528
 9249SOL     OW28645   3.311   2.439   1.378  0.6156  0.0316 -0.1717
 9249SOL    HW128646   3.389   2.400   1.427  0.5324 -1.3570 -1.0978
 9249SOL    HW228647   3.304   2.537   1.399  3.1892  0.4226 -0.8282
 9250SOL     OW28648   0.702   3.667   2.462  0.4007  0.3290  0.3126
 9250SOL    HW128649   0.770   3.688   2.391  0.1984 -0.4106 -0.1161
 9250SOL    HW228650   0.639   3.597   2.427 -1.1088  1.5900  0.3798
 9251SOL     OW28651   2.187   0.924   0.427  0.2842 -0.7099  0.0101
 9251SOL    HW128652   2.197   1.017   0.391 -0.6935  0.1474  1.8189
 9251SOL    HW228653   2.277   0.881   0.431  0.8347  0.3525 -0.3520
 9252SOL     OW28654   4.485   2.665   6.262  0.4635  0.0333  0.1716
 9252SOL    HW128655   4.463   2.570   6.240  0.8585 -0.0645  0.1835
 9252SOL    HW228656   4.581   2.671   6.288  0.7665  0.6277 -0.9909
 9253SOL     OW28657   3.675   6.237   4.794 -0.3994 -0.0492  0.5679
 9253SOL    HW128658   3.662   6.167   4.863  0.9492 -1.5759 -0.6467
 9253SOL    HW228659   3.770   6.235   4.761 -0.1238  2.7928  0.9219
 9254SOL     OW28660   4.926   6.221   1.121  0.5660  0.2278  0.0453
 9254SOL    HW128661   5.003   6.224   1.186  1.0593 -1.6565 -0.3825
 9254SOL    HW228662   4.866   6.300   1.136  0.4958 -0.2974  2.9925
 9255SOL     OW28663   0.935   4.757   3.218  0.2349  0.7573 -0.1785
 9255SOL    HW128664   0.970   4.818   3.147 -0.4684 -0.2153 -1.3947
 9255SOL    HW228665   1.008   4.736   3.283  0.8395  1.8170 -0.4965
 9256SOL     OW28666   2.581   0.161   0.915  0.1562  0.9005  0.4040
 9256SOL    HW128667   2.547   0.247   0.874 -0.9665  0.9987  1.4992
 9256SOL    HW228668   2.584   0.170   1.014  2.0263  0.3590  0.4308
 9257SOL     OW28669   0.940   6.622   5.632  0.5694 -0.5300 -0.2628
 9257SOL    HW128670   0.983   6.677   5.703  0.0818  0.2428 -0.5501
 9257SOL    HW228671   1.003   6.550   5.602  1.3263  0.0562 -0.0863
 9258SOL     OW28672   4.713   4.320   3.056 -0.0109  0.0282  0.4726
 9258SOL    HW128673   4.792   4.374   3.085  0.3267  0.8655 -1.7986
 9258SOL    HW228674   4.727   4.287   2.963 -0.7256 -3.0651  1.3319
 9259SOL     OW28675   0.902   2.439   5.321  0.0215  0.1403  0.3633
 9259SOL    HW128676   0.947   2.528   5.319 -1.5314  0.9474  0.2643
 9259SOL    HW228677   0.932   2.386   5.242  0.3637  0.8797 -0.0146
 9260SOL     OW28678   0.702   5.331   4.088 -0.4893  0.3263 -0.1950
 9260SOL    HW128679   0.607   5.338   4.059 -0.0077  0.3344 -1.9318
 9260SOL    HW228680   0.735   5.238   4.071 -0.0285  0.4878 -0.1979
 9261SOL     OW28681   0.271   2.774   0.495  0.1524  0.2068  1.0553
 9261SOL    HW128682   0.366   2.783   0.467  0.2520 -1.0148  0.9378
 9261SOL    HW228683   0.244   2.854   0.549  0.9316  1.0386  0.2475
 9262SOL     OW28684   0.813   6.670   5.071  0.0593 -0.1399 -0.1414
 9262SOL    HW128685   0.741   6.728   5.033 -0.9679 -1.2305  0.0756
 9262SOL    HW228686   0.886   6.727   5.108  1.0298  1.0077 -3.4689
 9263SOL     OW28687   2.085   4.953   3.035  0.4468 -0.0744 -0.4701
 9263SOL    HW128688   2.148   5.029   3.028  1.5845 -0.8692  0.7127
 9263SOL    HW228689   2.095   4.908   3.124 -0.8705 -1.0252 -0.7545
 9264SOL     OW28690   6.574   4.368   0.321 -0.7407 -0.2063 -0.1053
 9264SOL    HW128691   6.579   4.305   0.243 -0.1224  1.0257 -1.0818
 9264SOL    HW228692   6.585   4.462   0.289 -0.7512  0.3441  1.4471
 9265SOL     OW28693   5.596   0.153   0.120 -0.2304  0.2960  0.0797
 9265SOL    HW128694   5.505   0.187   0.097  0.5351  0.8574 -2.4213
 9265SOL    HW228695   5.660   0.230   0.123  0.3598 -0.2124  0.8132
 9266SOL     OW28696   0.271   5.282   0.613  0.3308  0.3238 -0.2298
 9266SOL    HW128697   0.296   5.357   0.551 -0.9992  0.7398 -0.3045
 9266SOL    HW228698   0.331   5.284   0.692  0.8737  0.9424 -0.6417
 9267SOL     OW28699   6.411   1.543   5.027 -0.1962  0.6868  0.6743
 9267SOL    HW128700   6.412   1.532   5.127 -0.0918 -1.6666  0.4725
 9267SOL    HW228701   6.503   1.568   4.996 -0.2529  1.5354  1.1476
 9268SOL     OW28702   5.821   6.040   6.195 -0.3407  0.1736 -0.2431
 9268SOL    HW128703   5.840   6.129   6.236  0.9758 -0.1944  0.0018
 9268SOL    HW228704   5.863   6.035   6.104 -1.6851  0.3243 -0.8877
 9269SOL     OW28705   3.975   5.689   2.310  0.0011  0.5260  0.0640
 9269SOL    HW128706   3.938   5.772   2.269  0.1894 -0.2423 -1.7275
 9269SOL    HW228707   4.070   5.678   2.283  1.4216  1.9230  3.7711
 9270SOL     OW28708   1.702   1.161   6.187 -0.2658  0.0417  0.1389
 9270SOL    HW128709   1.634   1.110   6.240  1.4233 -1.8718  0.5491
 9270SOL    HW228710   1.794   1.130   6.210  0.7443  1.8468 -1.1596
 9271SOL     OW28711   0.200   0.463   6.599  0.4308  0.6293  0.0627
 9271SOL    HW128712   0.297   0.463   6.575  0.3497  0.8127 -0.2770
 9271SOL    HW228713   0.189   0.431   6.693  0.5372 -2.8616 -0.9792
 9272SOL     OW28714   6.220   6.551   6.303 -0.3616 -0.0805  0.1683
 9272SOL    HW128715   6.299   6.608   6.329 -0.1531  0.2531 -1.1290
 9272SOL    HW228716   6.228   6.526   6.207 -1.6720 -0.3373  0.1155
 9273SOL     OW28717   5.805   3.609   2.269 -0.0108 -0.5920 -0.4271
 9273SOL    HW128718   5.783   3.691   2.322  0.4156  0.0260 -1.1860
 9273SOL    HW228719   5.844   3.539   2.330  3.5587  1.2506 -0.3674
 9274SOL     OW28720   6.953   2.691   2.500 -0.1103 -0.4966  0.1382
 9274SOL    HW128721   7.046   2.728   2.496 -0.5149  0.5597 -0.0041
 9274SOL    HW228722   6.904   2.717   2.417 -0.9503  0.1508  0.8137
 9275SOL     OW28723   3.631   0.562   6.934 -0.0833 -0.3712  0.0695
 9275SOL    HW128724   3.601   0.589   6.842  0.2849 -1.6100 -0.4298
 9275SOL    HW228725   3.672   0.641   6.980 -0.4031  0.2985 -0.7696
 9276SOL     OW28726   0.978   4.091   1.018  0.1677  0.0500 -0.1269
 9276SOL    HW128727   0.922   4.050   1.090  0.4695 -0.5739 -0.2464
 9276SOL    HW228728   1.023   4.019   0.965  0.7623  0.5363 -0.2903
 9277SOL     OW28729   6.044   6.722   3.492 -0.3680 -0.7945  0.2020
 9277SOL    HW128730   6.075   6.656   3.423  1.5812  2.1338 -2.0124
 9277SOL    HW228731   6.106   6.721   3.570  2.4296  1.2694 -1.7996
 9278SOL     OW28732   0.367   0.177   4.511  0.6826 -0.4309 -0.2444
 9278SOL    HW128733   0.349   0.176   4.609  2.6479 -1.2961  0.1517
 9278SOL    HW228734   0.286   0.210   4.462 -0.8960 -1.4915  1.5375
 9279SOL     OW28735   3.976   5.925   0.279 -0.5098  0.2217 -0.2226
 9279SOL    HW128736   3.927   5.954   0.197 -2.0907 -1.6584 -0.0195
 9279SOL    HW228737   3.916   5.866   0.334  1.7260 -1.5548  0.4424
 9280SOL     OW28738   2.157   3.702   1.847 -0.6923  0.7203  0.1474
 9280SOL    HW128739   2.197   3.644   1.917  0.5064  0.8611 -0.4067
 9280SOL    HW228740   2.058   3.706   1.860 -0.4052  1.6021  2.4689
 9281SOL     OW28741   3.090   5.483   5.913 -0.0989 -0.2009  0.2507
 9281SOL    HW128742   3.131   5.574   5.918 -0.7386  0.0660  1.0972
 9281SOL    HW228743   2.991   5.491   5.931  0.1032 -1.2415  1.9978
 9282SOL     OW28744   0.442   0.788   5.276 -0.2835 -0.0807  0.5615
 9282SOL    HW128745   0.387   0.783   5.193 -0.6148 -1.2209  0.8337
 9282SOL    HW228746   0.538   0.797   5.252 -0.4435  0.3360  0.0654
 9283SOL     OW28747   4.639   5.154   0.109 -0.6728  0.1184 -0.4703
 9283SOL    HW128748   4.658   5.167   0.011 -1.2817  0.4157 -0.5539
 9283SOL    HW228749   4.648   5.242   0.156 -1.1893  0.1358 -0.4022
 9284SOL     OW28750   3.919   6.229   0.996  0.1172  0.0708  0.3507
 9284SOL    HW128751   3.821   6.211   0.989  0.0198  0.4137  0.7939
 9284SOL    HW228752   3.943   6.247   1.091  0.3553  1.4304  0.0453
 9285SOL     OW28753   6.317   5.239   2.035 -0.1898 -0.3440 -0.6153
 9285SOL    HW128754   6.284   5.255   2.128  0.4176 -1.0060 -0.2784
 9285SOL    HW228755   6.243   5.256   1.970 -0.8265 -0.5845  0.0372
 9286SOL     OW28756   2.496   6.233   0.677 -0.5261 -0.0906 -0.1445
 9286SOL    HW128757   2.432   6.184   0.736  0.7940 -0.2313  1.2553
 9286SOL    HW228758   2.541   6.169   0.615  0.3603 -0.5111  0.8961
 9287SOL     OW28759   5.226   5.124   6.515 -0.0420  0.2054  0.1535
 9287SOL    HW128760   5.302   5.065   6.490  0.0433 -1.2439  3.3512
 9287SOL    HW228761   5.142   5.093   6.470  0.2559 -1.6105  0.8045
 9288SOL     OW28762   4.939   0.299   4.735  0.4135  0.1351  0.4089
 9288SOL    HW128763   5.006   0.234   4.699  1.0643  1.9370 -1.9117
 9288SOL    HW228764   4.981   0.354   4.807  0.4351 -0.7530  1.0883
 9289SOL     OW28765   5.151   0.481   3.467  0.5374 -0.1593  0.0209
 9289SOL    HW128766   5.121   0.566   3.423 -0.8410 -0.6253  0.0015
 9289SOL    HW228767   5.113   0.476   3.559  0.3114 -0.8914 -0.0996
 9290SOL     OW28768   4.906   6.629   4.108 -0.1285 -0.0918  0.6898
 9290SOL    HW128769   4.914   6.710   4.167 -0.2873 -0.4266  1.1710
 9290SOL    HW228770   4.971   6.638   4.032 -0.4647  0.7011  0.4877
 9291SOL     OW28771   1.094   3.901   3.694  0.9528  0.1284 -0.3770
 9291SOL    HW128772   1.177   3.860   3.730  0.9835 -0.7309 -1.3677
 9291SOL    HW228773   1.109   3.931   3.600  0.4727  1.0041 -0.1817
 9292SOL     OW28774   3.136   2.884   0.959 -0.0174  0.0863  0.2359
 9292SOL    HW128775   3.206   2.887   1.030 -2.0685  1.4038  2.3302
 9292SOL    HW228776   3.053   2.840   0.994 -0.4061 -1.2437 -2.0894
 9293SOL     OW28777   4.533   0.022   0.044  0.0529 -0.3575 -0.6497
 9293SOL    HW128778   4.547   0.120   0.027  1.1827 -0.5290 -0.7853
 9293SOL    HW228779   4.506  -0.023  -0.041  0.2189 -0.2754 -0.7470
 9294SOL     OW28780   5.078   5.273   0.360 -0.2761 -0.0925  0.6973
 9294SOL    HW128781   5.155   5.282   0.297 -0.4048  0.5453  0.6240
 9294SOL    HW228782   5.036   5.183   0.349 -0.5956  0.1833 -0.4689
 9295SOL     OW28783   6.214   2.090   1.436 -0.0096  0.2122 -0.6694
 9295SOL    HW128784   6.186   2.184   1.420 -0.2081  0.4818  1.0252
 9295SOL    HW228785   6.167   2.029   1.372 -0.0204  1.2226 -1.6527
 9296SOL     OW28786   1.294   2.246   5.832 -0.2697  0.6923 -0.8417
 9296SOL    HW128787   1.335   2.155   5.831 -1.5137  0.1032 -1.4468
 9296SOL    HW228788   1.254   2.265   5.742  1.3193  2.4938 -1.2214
 9297SOL     OW28789   6.938   3.941   2.448  0.2396  0.0149  0.2204
 9297SOL    HW128790   7.029   3.937   2.489  0.2118  2.2194  0.6124
 9297SOL    HW228791   6.947   3.962   2.351  0.1887  2.4435  0.6653
 9298SOL     OW28792   6.551   3.386   5.951 -0.2132 -0.2707  0.3761
 9298SOL    HW128793   6.589   3.356   5.864 -0.0002  0.0402  0.3649
 9298SOL    HW228794   6.538   3.306   6.011  0.9276 -0.3139  0.5739
 9299SOL     OW28795   3.243   1.099   4.436  0.2092 -0.4515 -0.5466
 9299SOL    HW128796   3.302   1.100   4.517  0.7113 -0.4547 -0.9112
 9299SOL    HW228797   3.290   1.144   4.360 -0.3501 -0.2498 -0.7766
 9300SOL     OW28798   2.129   2.410   4.161  0.2129 -0.6906 -0.0131
 9300SOL    HW128799   2.032   2.388   4.171  0.4932 -2.6784 -1.0526
 9300SOL    HW228800   2.166   2.358   4.084  1.6541  1.6188 -0.9677
 9301SOL     OW28801   6.303   5.715   4.358  0.0628 -0.0514  0.8470
 9301SOL    HW128802   6.252   5.653   4.298  1.5686  0.6631 -1.3131
 9301SOL    HW228803   6.333   5.666   4.440 -0.1071 -1.7534 -0.0709
 9302SOL     OW28804   2.306   5.339   2.650  0.4131 -0.2419  0.4920
 9302SOL    HW128805   2.392   5.367   2.691  0.3004 -0.4874  0.9006
 9302SOL    HW228806   2.296   5.383   2.560 -0.9232  3.0637  2.0980
 9303SOL     OW28807   2.283   3.829   6.315  0.1211 -0.0374 -0.2979
 9303SOL    HW128808   2.295   3.911   6.372  2.3442 -0.1801 -0.4627
 9303SOL    HW228809   2.336   3.754   6.355  2.5092  0.0811 -2.9086
 9304SOL     OW28810   6.793   5.939   6.277 -0.4212 -0.5608 -0.0331
 9304SOL    HW128811   6.737   6.015   6.309 -0.2971 -0.2836 -0.4767
 9304SOL    HW228812   6.748   5.895   6.199 -1.3982 -2.0779  1.3218
 9305SOL     OW28813   1.254   3.964   1.917  0.2544  0.0818  0.2993
 9305SOL    HW128814   1.221   3.897   1.851 -0.0987  0.6933 -0.1556
 9305SOL    HW228815   1.182   4.029   1.938  1.0304  1.2120 -0.4193
 9306SOL     OW28816   6.930   6.055   2.945  0.3460  0.1044  0.0685
 9306SOL    HW128817   7.016   6.007   2.959  0.7016  0.6210 -0.3078
 9306SOL    HW228818   6.884   6.017   2.864  1.7486  1.9100 -1.6753
 9307SOL     OW28819   0.778   3.448   1.235  0.3397  0.2559  0.1157
 9307SOL    HW128820   0.766   3.380   1.163  1.4356  0.2401 -0.0679
 9307SOL    HW228821   0.719   3.526   1.218 -0.5095 -0.3934  0.0174
 9308SOL     OW28822   3.586   3.000   2.533  0.0465 -0.6049 -0.0956
 9308SOL    HW128823   3.500   2.956   2.512 -0.2743 -0.4855  0.9009
 9308SOL    HW228824   3.571   3.071   2.603  0.6722  0.5425 -1.0867
 9309SOL     OW28825   3.618   5.922   0.395 -0.3551  0.2523  0.6341
 9309SOL    HW128826   3.672   5.878   0.467 -0.4072 -0.5798  0.1789
 9309SOL    HW228827   3.628   5.871   0.310 -2.2658 -0.2546  0.6573
 9310SOL     OW28828   1.368   0.590   5.786 -0.2144  0.8717 -0.2096
 9310SOL    HW128829   1.406   0.525   5.721  0.7207 -0.1699  1.3012
 9310SOL    HW228830   1.369   0.682   5.747 -0.6524  0.1574 -2.0189
 9311SOL     OW28831   5.396   3.335   1.764  0.2648 -0.4126 -1.0655
 9311SOL    HW128832   5.350   3.356   1.679  0.5144 -0.7664 -1.2917
 9311SOL    HW228833   5.423   3.420   1.810 -1.3918 -0.1604 -0.4781
 9312SOL     OW28834   5.967   3.253   4.675  0.6754 -0.4499 -0.3660
 9312SOL    HW128835   6.020   3.215   4.600 -0.5144 -1.1808 -0.8657
 9312SOL    HW228836   5.945   3.349   4.655 -0.7379 -0.9927 -1.6152
 9313SOL     OW28837   0.044   1.837   3.763  0.0473  0.0666  0.8251
 9313SOL    HW128838   0.050   1.769   3.691  1.8667  0.0897  0.9086
 9313SOL    HW228839   0.069   1.795   3.851  0.5235  0.6714  0.9866
 9314SOL     OW28840   6.483   3.423   0.151  0.5815  0.2499 -0.7597
 9314SOL    HW128841   6.431   3.461   0.227 -0.5640 -0.9736 -0.8993
 9314SOL    HW228842   6.489   3.323   0.161  2.6571  0.3027 -0.9135
 9315SOL     OW28843   4.131   5.123   4.849 -0.2526 -0.2119 -0.4411
 9315SOL    HW128844   4.058   5.173   4.802 -0.7846 -2.2233 -1.8627
 9315SOL    HW228845   4.120   5.025   4.834  1.6270 -0.7094  0.9893
 9316SOL     OW28846   6.306   6.361   6.476  0.1736  1.1929  0.1393
 9316SOL    HW128847   6.394   6.330   6.439  0.1593 -0.0748  1.1247
 9316SOL    HW228848   6.248   6.392   6.401  0.9770  0.8179 -0.6600
 9317SOL     OW28849   1.251   6.778   3.239 -0.7451  0.2654 -0.0621
 9317SOL    HW128850   1.209   6.859   3.199 -0.7970  1.0548  1.5477
 9317SOL    HW228851   1.314   6.737   3.172 -0.9351  1.4449 -0.9931
 9318SOL     OW28852   2.293   0.419   2.734  0.4286  0.0118  0.2586
 9318SOL    HW128853   2.237   0.410   2.652 -0.4521  3.3570  0.3699
 9318SOL    HW228854   2.234   0.430   2.814  1.2679  0.1175  0.8786
 9319SOL     OW28855   4.122   2.941   6.512 -0.3019 -0.0530  0.1453
 9319SOL    HW128856   4.148   3.032   6.544 -2.0306  0.8996 -1.0163
 9319SOL    HW228857   4.204   2.884   6.503  0.6628  0.8724  2.3067
 9320SOL     OW28858   0.681   6.461   0.690  0.1710  0.0491  0.6579
 9320SOL    HW128859   0.685   6.410   0.777 -1.6597 -0.4351  0.5047
 9320SOL    HW228860   0.658   6.398   0.616 -1.0408  0.8877  0.2889
 9321SOL     OW28861   0.657   1.613   3.589 -0.5522 -0.1226 -0.0425
 9321SOL    HW128862   0.754   1.588   3.583 -0.6274 -0.6102  0.7525
 9321SOL    HW228863   0.615   1.567   3.667 -2.0173 -1.8552 -1.7454
 9322SOL     OW28864   6.039   3.483   1.499  0.3558 -0.1844  0.5488
 9322SOL    HW128865   6.041   3.579   1.471 -0.4385 -0.3057  0.0620
 9322SOL    HW228866   5.963   3.437   1.454  0.6359 -1.0061  0.9097
 9323SOL     OW28867   0.429   3.744   5.422  0.1917  0.4007 -0.2317
 9323SOL    HW128868   0.528   3.744   5.411  0.1804  1.4414 -0.3638
 9323SOL    HW228869   0.386   3.715   5.336  0.4022 -1.8665  0.3496
 9324SOL     OW28870   0.598   3.892   1.270  0.0763  0.3408  0.5808
 9324SOL    HW128871   0.561   3.951   1.341 -0.2250 -0.2612  0.9288
 9324SOL    HW228872   0.592   3.796   1.299 -2.3576 -0.1582 -1.2338
 9325SOL     OW28873   6.187   1.069   4.594 -0.0843  0.0071 -0.8543
 9325SOL    HW128874   6.229   1.138   4.653  1.5900 -0.8703 -0.9671
 9325SOL    HW228875   6.248   0.990   4.586 -0.2016  0.1043 -3.8389
 9326SOL     OW28876   4.922   4.505   0.346  0.4357  0.5944 -0.1513
 9326SOL    HW128877   5.003   4.463   0.386  1.7637  1.4662 -1.8149
 9326SOL    HW228878   4.937   4.520   0.249 -1.7805  0.7066 -0.5226
 9327SOL     OW28879   1.873   0.921   3.026  0.5878 -0.4699  0.3110
 9327SOL    HW128880   1.970   0.903   3.040  0.8152  1.0281  0.9286
 9327SOL    HW228881   1.842   0.987   3.095 -0.5975 -0.0947 -0.5562
 9328SOL     OW28882   7.015   5.994   5.414 -0.3459 -0.1869  0.4734
 9328SOL    HW128883   6.948   5.971   5.485 -0.1596 -1.0927  0.3703
 9328SOL    HW228884   7.102   5.948   5.434  0.5848  1.7457  1.1409
 9329SOL     OW28885   2.682   6.551   1.627  0.5228 -0.1375  0.0231
 9329SOL    HW128886   2.749   6.610   1.582  0.8458 -0.0134  0.6638
 9329SOL    HW228887   2.599   6.603   1.646  0.2590 -0.2750 -0.7128
 9330SOL     OW28888   6.693   5.930   0.945 -0.0303 -0.5179  0.9491
 9330SOL    HW128889   6.676   5.957   0.851 -2.4185 -2.1925  0.8016
 9330SOL    HW228890   6.769   5.864   0.948 -1.9653 -2.9727 -0.3442
 9331SOL     OW28891   1.783   5.973   4.774 -0.2042 -0.4976 -0.0346
 9331SOL    HW128892   1.871   6.008   4.741 -0.1019 -0.7983 -0.0883
 9331SOL    HW228893   1.716   5.978   4.700  0.0629 -1.3029 -0.3491
 9332SOL     OW28894   0.057   0.040   0.882  0.1794  0.3979 -0.3545
 9332SOL    HW128895   0.043  -0.040   0.822  1.4760 -1.2097  1.3787
 9332SOL    HW228896   0.147   0.033   0.926  1.4126  4.0806 -1.9197
 9333SOL     OW28897   0.877   4.072   3.199  0.3942  0.0277  0.2849
 9333SOL    HW128898   0.789   4.080   3.151 -0.3589 -0.0439  1.5953
 9333SOL    HW228899   0.895   4.156   3.249  1.3268  0.2257 -0.3705
 9334SOL     OW28900   0.169   4.279   0.536  0.4100 -0.0433 -0.1728
 9334SOL    HW128901   0.135   4.275   0.442 -1.1090 -0.9546  0.3905
 9334SOL    HW228902   0.133   4.360   0.581  0.4112 -0.0854 -0.0959
 9335SOL     OW28903   5.830   4.045   2.027  0.2225  0.1834  0.3088
 9335SOL    HW128904   5.926   4.020   2.018  0.5327  1.0205  1.1329
 9335SOL    HW228905   5.818   4.143   2.008 -0.2249  0.3967  1.5567
 9336SOL     OW28906   5.183   6.943   3.478 -0.6406  0.4981  0.8477
 9336SOL    HW128907   5.158   6.872   3.413  0.7400 -0.7753  1.6372
 9336SOL    HW228908   5.256   7.000   3.439  0.7367 -0.7489  1.5230
 9337SOL     OW28909   2.579   1.708   6.171 -0.1952  0.2291 -0.8389
 9337SOL    HW128910   2.596   1.619   6.130  0.6064 -0.4001  0.7610
 9337SOL    HW228911   2.667   1.754   6.188 -0.5147  0.6025 -0.1393
 9338SOL     OW28912   3.820   5.711   2.031 -0.3011  0.0881  0.0212
 9338SOL    HW128913   3.843   5.771   2.108 -0.3948  0.2299 -0.0596
 9338SOL    HW228914   3.904   5.676   1.990 -0.2204  0.5916 -0.2624
 9339SOL     OW28915   2.305   1.468   4.737 -0.1062 -0.8273 -0.2070
 9339SOL    HW128916   2.364   1.546   4.716 -1.6748 -0.0577 -2.1834
 9339SOL    HW228917   2.294   1.460   4.836  0.5745  1.1135  0.0699
 9340SOL     OW28918   3.100   3.932   1.294 -0.5596  0.4284 -0.3031
 9340SOL    HW128919   3.092   3.906   1.198 -0.5394  1.2406 -0.5256
 9340SOL    HW228920   3.018   3.981   1.322 -2.5305 -3.2930  1.2422
 9341SOL     OW28921   4.045   4.989   2.560 -0.4389  0.1070  0.5359
 9341SOL    HW128922   4.046   5.088   2.549 -1.7777  0.2420  1.4287
 9341SOL    HW228923   3.959   4.952   2.524  0.0106 -0.7267  0.2855
 9342SOL     OW28924   2.583   1.353   6.404  0.3443  0.1393 -0.5407
 9342SOL    HW128925   2.675   1.387   6.385  0.2774 -0.3244 -1.7416
 9342SOL    HW228926   2.567   1.269   6.354  0.6832 -2.0504  2.7107
 9343SOL     OW28927   5.387   3.287   1.300  0.3639  0.0118  0.5633
 9343SOL    HW128928   5.389   3.386   1.287  1.1468 -0.1095 -0.3755
 9343SOL    HW228929   5.326   3.264   1.375 -1.1135  1.0872 -0.2676
 9344SOL     OW28930   6.127   0.068   3.910 -0.0345  0.2460 -0.3665
 9344SOL    HW128931   6.125  -0.002   3.838  1.0862 -0.4735  0.2591
 9344SOL    HW228932   6.095   0.028   3.996  0.8151  0.4226  0.0441
 9345SOL     OW28933   0.144   5.971   7.003 -0.6439 -0.1624 -0.2954
 9345SOL    HW128934   0.160   6.063   7.039  0.1406 -0.4038  0.0089
 9345SOL    HW228935   0.210   5.908   7.044  0.5800 -0.3736 -2.4607
 9346SOL     OW28936   5.993   0.780   6.999 -0.0372 -0.0209 -0.0527
 9346SOL    HW128937   6.082   0.824   7.001  0.2777 -0.6644  1.4453
 9346SOL    HW228938   5.921   0.849   6.998  0.4700  0.5344  0.6443
 9347SOL     OW28939   5.095   6.202   1.343  0.9961 -0.0656  0.0144
 9347SOL    HW128940   5.178   6.165   1.385  1.3471  1.0042  0.2941
 9347SOL    HW228941   5.058   6.275   1.400  0.3078  0.0158 -0.5200
 9348SOL     OW28942   2.249   4.934   1.308 -0.0820  0.0481  0.1368
 9348SOL    HW128943   2.209   4.844   1.287 -0.9970  0.1483  1.3519
 9348SOL    HW228944   2.188   4.983   1.370 -0.8145  2.4927 -2.3195
 9349SOL     OW28945   6.298   5.762   1.884  0.3244 -0.2050 -0.2622
 9349SOL    HW128946   6.381   5.815   1.901  0.4130  0.0829 -1.5022
 9349SOL    HW228947   6.297   5.682   1.943  1.5436 -0.2737 -0.3104
 9350SOL     OW28948   6.588   6.096   6.373 -0.0998  0.0405  0.2370
 9350SOL    HW128949   6.564   6.179   6.323 -1.1744 -0.9782 -0.9941
 9350SOL    HW228950   6.563   6.107   6.469  1.5072  1.8235  0.5256
 9351SOL     OW28951   2.899   5.321   6.862 -0.1156 -0.6308  0.4734
 9351SOL    HW128952   2.973   5.261   6.831 -0.5877 -0.2109 -1.5932
 9351SOL    HW228953   2.935   5.412   6.879 -0.2220 -0.2285 -1.2508
 9352SOL     OW28954   1.477   1.736   0.373 -0.2083 -0.2359  0.6551
 9352SOL    HW128955   1.425   1.676   0.313  0.7283 -0.7351  0.3264
 9352SOL    HW228956   1.541   1.681   0.428  0.4922  0.4224  0.5198
 9353SOL     OW28957   3.287   2.046   1.952 -0.6788 -0.1025  0.4823
 9353SOL    HW128958   3.333   1.963   1.984 -1.6211 -0.5551  0.6907
 9353SOL    HW228959   3.355   2.111   1.919  0.0876 -0.8720  0.5192
 9354SOL     OW28960   4.547   1.757   2.987  0.1257 -0.5875 -0.0897
 9354SOL    HW128961   4.502   1.809   2.915  0.3277  0.7649  0.7253
 9354SOL    HW228962   4.479   1.726   3.054  0.2423  0.7637  0.7109
 9355SOL     OW28963   6.341   1.263   1.142 -0.1999 -0.3737  0.0737
 9355SOL    HW128964   6.279   1.340   1.129  0.5947  0.3095  0.2343
 9355SOL    HW228965   6.427   1.296   1.182  0.2184 -1.3173 -0.0237
 9356SOL     OW28966   3.750   1.986   2.822  1.0580  0.8133  0.2120
 9356SOL    HW128967   3.715   2.009   2.731 -1.6718 -0.5673  0.8122
 9356SOL    HW228968   3.762   1.887   2.828  1.6725  0.9385  1.2485
 9357SOL     OW28969   2.136   4.349   5.900  0.2348 -0.3483 -0.3252
 9357SOL    HW128970   2.090   4.264   5.924 -0.2433  0.4311  1.7356
 9357SOL    HW228971   2.078   4.427   5.925  1.2946  0.6190 -0.7624
 9358SOL     OW28972   4.582   6.216   2.939  0.2626 -0.0101  0.2152
 9358SOL    HW128973   4.652   6.161   2.985 -1.3168 -1.1431  1.4073
 9358SOL    HW228974   4.588   6.311   2.970  0.8496 -0.2397  0.8117
 9359SOL     OW28975   5.137   5.793   4.568 -0.1183  0.0022  0.0120
 9359SOL    HW128976   5.106   5.870   4.624  2.2974  0.2366  1.1745
 9359SOL    HW228977   5.164   5.826   4.477 -1.3777  0.0996 -0.3362
 9360SOL     OW28978   0.962   6.177   5.883  0.2998  0.2374 -0.3540
 9360SOL    HW128979   0.906   6.230   5.819  0.0557  0.7052  0.2430
 9360SOL    HW228980   0.974   6.228   5.968  0.5878 -0.3986 -0.0026
 9361SOL     OW28981   6.997   2.175   4.300 -0.0154 -0.1782 -0.2734
 9361SOL    HW128982   7.044   2.208   4.381  4.3919 -0.5930 -2.3210
 9361SOL    HW228983   6.995   2.247   4.231 -1.3921 -0.5773 -0.6787
 9362SOL     OW28984   1.602   2.463   1.207  0.3332 -0.2286 -0.5379
 9362SOL    HW128985   1.628   2.405   1.129  0.7676 -0.3630 -0.2980
 9362SOL    HW228986   1.550   2.542   1.174 -1.5730 -1.4943 -0.7390
 9363SOL     OW28987   5.254   6.907   3.056 -0.3511 -0.0401 -0.0995
 9363SOL    HW128988   5.336   6.863   3.018  0.9251  1.1886  1.1214
 9363SOL    HW228989   5.212   6.846   3.124 -0.2427 -0.5112 -0.4459
 9364SOL     OW28990   5.552   2.436   0.660  0.0371  0.3005  0.8803
 9364SOL    HW128991   5.647   2.412   0.643 -0.6439 -0.4342 -2.9198
 9364SOL    HW228992   5.528   2.518   0.607 -1.5322  0.2557  1.4462
 9365SOL     OW28993   1.254   0.451   4.819  0.4919  0.4534  0.1055
 9365SOL    HW128994   1.246   0.446   4.720 -0.9570 -0.5876  0.2366
 9365SOL    HW228995   1.349   0.469   4.844  1.3968 -1.6721 -1.4405
 9366SOL     OW28996   1.965   2.116   2.203  0.4752 -0.2306 -0.3549
 9366SOL    HW128997   2.032   2.189   2.190 -0.2427  0.3454 -0.9395
 9366SOL    HW228998   2.011   2.027   2.200  1.2427  0.1664 -0.4950
 9367SOL     OW28999   6.147   6.234   3.612 -0.3355 -0.3118  0.6264
 9367SOL    HW129000   6.086   6.262   3.686 -0.4615 -0.6573  0.6561
 9367SOL    HW229001   6.094   6.184   3.543 -0.2405  0.1061  0.2499
 9368SOL     OW29002   5.715   2.606   1.796 -0.1205  0.7912  1.1389
 9368SOL    HW129003   5.702   2.693   1.842 -1.7072  0.5469  1.2171
 9368SOL    HW229004   5.651   2.599   1.719  0.0010 -0.2813  1.1110
 9369SOL     OW29005   6.073   2.346   5.181  0.6812 -0.4216  0.1913
 9369SOL    HW129006   6.044   2.372   5.089 -1.0018 -0.2960  0.7260
 9369SOL    HW229007   6.082   2.246   5.186  1.2243 -0.3994 -0.2170
 9370SOL     OW29008   3.198   6.203   1.663  0.7765 -0.1106 -0.1577
 9370SOL    HW129009   3.101   6.199   1.686 -0.0484  0.3246 -3.1383
 9370SOL    HW229010   3.221   6.295   1.632  2.3151 -0.0597  1.0364
 9371SOL     OW29011   1.765   6.148   6.348 -0.6573  0.6429  0.5296
 9371SOL    HW129012   1.808   6.102   6.270 -1.1281  0.8151  0.1669
 9371SOL    HW229013   1.826   6.141   6.427 -1.2970 -1.7663  0.8737
 9372SOL     OW29014   4.943   5.520   0.277 -0.3099 -0.6160  0.4738
 9372SOL    HW129015   4.998   5.452   0.326 -0.3163 -0.1178  1.2015
 9372SOL    HW229016   4.872   5.474   0.225 -1.6385 -1.1112  2.6036
 9373SOL     OW29017   5.320   2.087   4.340  0.0519 -0.0966  0.5329
 9373SOL    HW129018   5.366   2.040   4.265 -1.0525  1.7665 -1.4388
 9373SOL    HW229019   5.380   2.157   4.378 -0.0084  0.1707  0.1418
 9374SOL     OW29020   4.486   5.283   5.421 -0.3059  0.0660  1.0854
 9374SOL    HW129021   4.482   5.183   5.417  0.2122  0.0413 -3.4385
 9374SOL    HW229022   4.396   5.321   5.399  0.6976  0.3426 -3.4477
 9375SOL     OW29023   4.852   6.184   4.686  0.3125  0.4982 -0.0157
 9375SOL    HW129024   4.920   6.202   4.614  1.5238  1.2484  1.2709
 9375SOL    HW229025   4.794   6.266   4.698 -0.2921  0.1560 -0.5363
 9376SOL     OW29026   3.510   4.344   5.603  0.4469 -0.4401 -0.4218
 9376SOL    HW129027   3.411   4.346   5.587  0.5699 -0.4661 -1.1914
 9376SOL    HW229028   3.539   4.250   5.620  0.2662 -0.3711  0.2958
 9377SOL     OW29029   6.388   3.633   3.607  0.2365  0.0631 -0.1999
 9377SOL    HW129030   6.347   3.719   3.576  1.1319  0.6541  0.2140
 9377SOL    HW229031   6.474   3.652   3.653  0.1629 -1.0182  0.4166
 9378SOL     OW29032   2.777   4.880   2.792  0.2316  0.1713 -0.3738
 9378SOL    HW129033   2.774   4.967   2.744 -1.5680 -0.4067 -1.4177
 9378SOL    HW229034   2.691   4.867   2.843 -0.2747 -1.6717 -1.5787
 9379SOL     OW29035   3.607   5.084   4.595 -0.0375  0.6184  0.3289
 9379SOL    HW129036   3.522   5.037   4.571 -0.0160  0.7017  0.0932
 9379SOL    HW229037   3.585   5.174   4.632  0.0060  1.2250 -1.0785
 9380SOL     OW29038   6.941   5.737   5.196  0.1440 -0.2418 -0.2245
 9380SOL    HW129039   6.870   5.793   5.238  0.3954  1.1943 -1.6323
 9380SOL    HW229040   7.016   5.724   5.261  0.6166  2.0747 -0.2114
 9381SOL     OW29041   6.392   0.249   0.629  0.2353  0.6974  0.0750
 9381SOL    HW129042   6.435   0.305   0.699  0.2908 -0.0146  0.6253
 9381SOL    HW229043   6.430   0.156   0.632 -0.6734  0.3086 -0.0425
 9382SOL     OW29044   6.128   1.622   2.609  0.0837  0.5761  0.3988
 9382SOL    HW129045   6.036   1.658   2.627 -0.1883  0.2986 -0.3964
 9382SOL    HW229046   6.125   1.522   2.610 -0.0804  0.5200 -1.7040
 9383SOL     OW29047   6.364   6.837   2.051 -0.0940  0.0282 -0.2545
 9383SOL    HW129048   6.311   6.815   1.969 -2.2932  1.2591  0.7336
 9383SOL    HW229049   6.308   6.892   2.113  1.0217 -1.8573  2.6700
 9384SOL     OW29050   4.028   6.398   0.171  0.5305  0.1610  0.6260
 9384SOL    HW129051   3.959   6.463   0.140  0.6642 -0.1284 -0.3242
 9384SOL    HW229052   4.019   6.383   0.269  0.4447  1.5477  0.8464
 9385SOL     OW29053   4.871   1.247   4.331 -0.5288  0.2131  0.0290
 9385SOL    HW129054   4.863   1.162   4.384 -0.5589  0.3168  0.1929
 9385SOL    HW229055   4.964   1.254   4.294 -0.3552  0.3874  0.4931
 9386SOL     OW29056   2.901   6.229   4.339 -0.0558 -0.0563  1.1397
 9386SOL    HW129057   2.825   6.210   4.402 -0.9733  1.2372  0.4574
 9386SOL    HW229058   2.903   6.326   4.317  0.8149 -0.3361 -0.1299
 9387SOL     OW29059   3.974   6.692   0.221 -1.0733  0.2024  0.3148
 9387SOL    HW129060   4.014   6.651   0.303  0.6891  1.9519  0.4019
 9387SOL    HW229061   4.000   6.789   0.216  0.0362 -0.1556 -2.9938
 9388SOL     OW29062   0.891   6.949   1.549 -0.6804  0.1612 -0.0295
 9388SOL    HW129063   0.800   6.972   1.514  0.0301  1.0141 -1.4070
 9388SOL    HW229064   0.948   6.917   1.473  0.3205  0.1335  0.7195
 9389SOL     OW29065   4.261   6.471   6.428 -0.0137 -0.2199 -0.3925
 9389SOL    HW129066   4.189   6.538   6.444 -0.5600 -1.2349  1.7804
 9389SOL    HW229067   4.222   6.387   6.392  0.4041 -0.0439 -1.2792
 9390SOL     OW29068   4.393   5.826   2.203 -0.3955 -0.3821  0.0786
 9390SOL    HW129069   4.369   5.847   2.298 -1.7771  2.3337 -0.7805
 9390SOL    HW229070   4.476   5.876   2.178 -1.0324  0.3391 -0.6332
 9391SOL     OW29071   5.162   0.084   5.045  0.2134  0.1044 -0.4609
 9391SOL    HW129072   5.219   0.069   5.125 -0.8237 -2.4878 -0.1213
 9391SOL    HW229073   5.220   0.087   4.963  1.0634  0.4074  0.1400
 9392SOL     OW29074   2.267   0.703   4.134  0.2505 -0.0771 -0.0884
 9392SOL    HW129075   2.196   0.743   4.076  0.8477 -0.8378 -1.3872
 9392SOL    HW229076   2.281   0.761   4.215 -1.0227  0.6849 -0.3923
 9393SOL     OW29077   4.038   0.235   5.694 -0.2167 -0.0557 -0.3757
 9393SOL    HW129078   3.985   0.159   5.657  0.3590 -0.7641  0.2387
 9393SOL    HW229079   4.135   0.213   5.692  0.1332  1.3759 -1.8177
 9394SOL     OW29080   6.885   1.453   3.712 -0.5362 -0.4799 -0.3393
 9394SOL    HW129081   6.908   1.356   3.714 -0.2920 -0.4570  2.3105
 9394SOL    HW229082   6.838   1.478   3.797  2.6221  2.4127  0.7911
 9395SOL     OW29083   1.399   3.093   0.918  0.3274  0.1829 -0.3098
 9395SOL    HW129084   1.401   3.172   0.858 -0.0003  1.9881  1.9417
 9395SOL    HW229085   1.329   3.029   0.887  1.6852 -0.0888 -3.1035
 9396SOL     OW29086   0.744   2.135   3.572  0.0090  0.3253  0.2806
 9396SOL    HW129087   0.794   2.222   3.571 -0.1562  0.4328 -0.9620
 9396SOL    HW229088   0.668   2.141   3.507  0.5323 -1.0593 -0.4748
 9397SOL     OW29089   6.642   1.822   1.316  0.3294  0.5527 -0.3972
 9397SOL    HW129090   6.604   1.914   1.308  2.6605  1.4338 -2.7032
 9397SOL    HW229091   6.702   1.803   1.238  2.4587 -1.7214  1.6101
 9398SOL     OW29092   3.024   2.294   1.719 -0.5878  0.4823 -0.7090
 9398SOL    HW129093   3.020   2.197   1.746  1.3146  0.7380  0.6830
 9398SOL    HW229094   2.955   2.345   1.771 -0.2015  0.1897  0.1099
 9399SOL     OW29095   2.360   6.671   4.833 -0.0829  0.2743  0.4467
 9399SOL    HW129096   2.403   6.668   4.924  0.4430  1.8246  0.2782
 9399SOL    HW229097   2.419   6.721   4.770 -0.1953 -1.2329 -0.9252
 9400SOL     OW29098   5.575   2.148   5.140  0.3475 -0.1894  0.1211
 9400SOL    HW129099   5.482   2.114   5.153  0.1802 -0.4049 -1.4226
 9400SOL    HW229100   5.605   2.197   5.222 -1.8103  1.5152 -0.0227
 9401SOL     OW29101   2.601   1.912   5.301 -0.3220  0.1571 -0.3726
 9401SOL    HW129102   2.676   1.968   5.333 -0.1763 -0.9047  1.2736
 9401SOL    HW229103   2.567   1.947   5.214  2.4906  0.2837 -1.5211
 9402SOL     OW29104   3.423   5.729   6.797  0.2639  0.6690  0.1347
 9402SOL    HW129105   3.346   5.764   6.744  0.1327  0.2400  0.0357
 9402SOL    HW229106   3.497   5.797   6.799  0.4736  0.4906 -1.0306
 9403SOL     OW29107   5.768   6.272   1.806  0.2498 -0.0767  0.6555
 9403SOL    HW129108   5.855   6.316   1.825  0.4534 -0.4782  0.6625
 9403SOL    HW229109   5.712   6.332   1.749  0.9733 -0.2755 -0.2837
 9404SOL     OW29110   1.788   3.954   4.812  0.0945  0.3936 -0.1195
 9404SOL    HW129111   1.864   4.018   4.797  0.9678 -0.8061 -1.0357
 9404SOL    HW229112   1.760   3.915   4.725  0.8702 -1.8739  0.5722
 9405SOL     OW29113   0.850   0.626   1.509  0.0302 -0.4004 -0.1144
 9405SOL    HW129114   0.947   0.619   1.488  0.2042  0.3860  0.3662
 9405SOL    HW229115   0.807   0.690   1.445  0.0829  0.1681  0.4010
 9406SOL     OW29116   5.900   1.827   5.384 -0.1146 -0.3456 -0.3416
 9406SOL    HW129117   5.997   1.804   5.384 -0.2844 -1.1514  0.5133
 9406SOL    HW229118   5.875   1.871   5.298  0.3469 -2.9836 -1.9170
 9407SOL     OW29119   3.513   6.345   2.738 -0.1300  0.3506  0.0748
 9407SOL    HW129120   3.474   6.346   2.831  1.5043 -0.9554  0.8289
 9407SOL    HW229121   3.469   6.273   2.684  1.2972 -1.2696  0.9910
 9408SOL     OW29122   2.861   6.047   0.116 -0.5633 -0.5419 -0.2381
 9408SOL    HW129123   2.823   5.955   0.112  0.2909 -0.8783 -2.7954
 9408SOL    HW229124   2.789   6.112   0.141 -1.6311 -1.6957 -0.2363
 9409SOL     OW29125   5.276   4.349   4.266  0.3920 -0.3852 -0.1342
 9409SOL    HW129126   5.305   4.384   4.177  0.8238  0.1917  0.2265
 9409SOL    HW229127   5.177   4.361   4.276  0.7122  2.4439  0.6767
 9410SOL     OW29128   3.277   6.018   2.136  0.3588  0.4016 -0.0462
 9410SOL    HW129129   3.199   5.989   2.192 -1.5935  2.7558 -1.3315
 9410SOL    HW229130   3.264   5.986   2.042 -0.3126  2.6269 -0.7883
 9411SOL     OW29131   6.131   4.743   3.378 -0.5498  0.7280  0.6355
 9411SOL    HW129132   6.067   4.720   3.305  0.2412 -0.3417  0.2468
 9411SOL    HW229133   6.131   4.671   3.447  2.0850 -0.7020 -0.6749
 9412SOL     OW29134   0.125   0.865   2.840 -0.5738  0.2859  0.0914
 9412SOL    HW129135   0.124   0.952   2.792  0.3645  0.6802  0.7544
 9412SOL    HW229136   0.038   0.818   2.827 -1.8136  2.1551  1.2213
 9413SOL     OW29137   5.006   5.165   2.378  0.3853  0.2196  0.1044
 9413SOL    HW129138   5.078   5.110   2.337 -0.7378 -0.8626 -0.4936
 9413SOL    HW229139   5.006   5.256   2.336  0.5847 -0.1934 -0.8073
 9414SOL     OW29140   2.200   0.718   0.775 -0.4365  0.3880  0.7398
 9414SOL    HW129141   2.273   0.685   0.714 -0.6971 -1.0741  1.1953
 9414SOL    HW229142   2.123   0.655   0.773 -1.3393  1.4480  0.9673
 9415SOL     OW29143   2.096   0.419   1.034 -0.4807 -0.6536 -0.5036
 9415SOL    HW129144   2.181   0.469   1.051 -0.2925 -1.2229  0.2923
 9415SOL    HW229145   2.035   0.476   0.979 -0.5777  0.7985  1.0138
 9416SOL     OW29146   1.249   0.781   3.134 -0.0261  0.3202 -0.1492
 9416SOL    HW129147   1.241   0.682   3.137  3.5602 -0.0955 -0.0646
 9416SOL    HW229148   1.319   0.807   3.067  0.5103  2.6350  1.1804
 9417SOL     OW29149   6.722   0.199   3.159  0.1075  0.0640  0.4845
 9417SOL    HW129150   6.754   0.125   3.100  0.2438  0.4939  0.0085
 9417SOL    HW229151   6.792   0.219   3.227 -0.2281 -0.7223  1.0724
 9418SOL     OW29152   4.380   2.723   0.720  0.4124 -0.2947  0.2767
 9418SOL    HW129153   4.330   2.637   0.729  1.5356 -0.8875  1.0310
 9418SOL    HW229154   4.346   2.789   0.787  1.2069 -0.9849  1.3864
 9419SOL     OW29155   1.800   5.893   3.051 -0.2393 -0.4615 -0.4197
 9419SOL    HW129156   1.830   5.932   2.964  0.6161 -0.5880 -0.1807
 9419SOL    HW229157   1.729   5.825   3.034 -0.7381  0.1709 -0.9465
 9420SOL     OW29158   0.037   1.832   1.895  0.1903 -0.2764  0.3562
 9420SOL    HW129159  -0.058   1.861   1.880 -0.0858 -0.9298  0.7846
 9420SOL    HW229160   0.059   1.758   1.831  0.9869  1.0216 -0.9421
 9421SOL     OW29161   2.056   5.208   5.240 -0.3811  0.0355 -0.0153
 9421SOL    HW129162   2.077   5.123   5.192 -0.1459  0.7602 -1.2640
 9421SOL    HW229163   1.961   5.206   5.272 -0.4200 -0.6394 -0.1680
 9422SOL     OW29164   3.119   0.375   4.405 -0.0278 -0.5523 -0.4284
 9422SOL    HW129165   3.189   0.352   4.473 -1.7413  0.4028  1.7736
 9422SOL    HW229166   3.163   0.391   4.317  2.8651  1.9019  1.2247
 9423SOL     OW29167   5.389   6.222   4.047  0.0420 -0.0074 -0.0804
 9423SOL    HW129168   5.306   6.232   4.102 -0.5099 -1.0713 -0.6708
 9423SOL    HW229169   5.367   6.173   3.962  1.1001  0.5277 -0.6890
 9424SOL     OW29170   4.258   5.919   2.434 -0.6257 -0.3617 -0.2297
 9424SOL    HW129171   4.185   5.988   2.431 -1.0926 -0.7048  2.0007
 9424SOL    HW229172   4.319   5.938   2.511  1.9603  0.1492 -2.2609
 9425SOL     OW29173   1.791   5.385   2.589 -1.0752 -0.0110 -0.4822
 9425SOL    HW129174   1.800   5.480   2.620 -0.1388 -0.0788 -0.5234
 9425SOL    HW229175   1.707   5.346   2.627 -0.2540  0.0830  1.5752
 9426SOL     OW29176   2.139   0.009   2.228 -0.6001 -0.2869  0.3770
 9426SOL    HW129177   2.230  -0.032   2.220  0.5817  1.9363  1.5436
 9426SOL    HW229178   2.075  -0.058   2.265  0.6161 -1.8118 -0.1878
 9427SOL     OW29179   3.981   5.707   4.162  0.0361  0.0491 -0.1801
 9427SOL    HW129180   3.924   5.782   4.197 -0.4634 -0.5733  0.3505
 9427SOL    HW229181   4.062   5.746   4.117  0.7876  0.8802  1.7731
 9428SOL     OW29182   4.897   6.057   2.562 -0.4351  0.2220 -0.7272
 9428SOL    HW129183   4.924   6.146   2.598  0.0081 -0.7609  1.5819
 9428SOL    HW229184   4.857   6.003   2.636 -0.0899 -1.7360 -1.9131
 9429SOL     OW29185   0.532   3.748   3.912 -0.0181  0.5620 -0.5060
 9429SOL    HW129186   0.611   3.770   3.855  0.8231 -1.8181 -0.3682
 9429SOL    HW229187   0.556   3.758   4.008  0.3570 -0.6871 -0.4432
 9430SOL     OW29188   6.594   0.746   2.681 -0.5003  0.4970  0.4941
 9430SOL    HW129189   6.495   0.754   2.672 -0.8325 -0.5276  2.6376
 9430SOL    HW229190   6.616   0.688   2.759  1.8050 -1.1144 -1.2027
 9431SOL     OW29191   6.051   4.668   0.422 -0.2038 -0.3333 -0.6973
 9431SOL    HW129192   6.046   4.760   0.461  0.6582 -0.5148 -0.1514
 9431SOL    HW229193   6.029   4.601   0.492 -0.1997 -0.5817 -0.9314
 9432SOL     OW29194   5.725   0.497   2.688  0.1854  0.0297 -0.2460
 9432SOL    HW129195   5.802   0.529   2.744 -1.0094 -0.3080  1.6879
 9432SOL    HW229196   5.644   0.487   2.746 -0.8969 -1.2473 -1.8962
 9433SOL     OW29197   0.699   3.690   5.888 -0.2651 -0.4939  0.2807
 9433SOL    HW129198   0.697   3.644   5.798 -1.5807  1.8651 -0.9913
 9433SOL    HW229199   0.772   3.758   5.889 -2.9665  2.7095 -0.8711
 9434SOL     OW29200   4.782   4.118   2.390 -0.8244 -0.5745  0.4124
 9434SOL    HW129201   4.698   4.114   2.443 -0.1968 -0.6079  1.4342
 9434SOL    HW229202   4.814   4.025   2.370 -1.2515 -0.5618 -0.3421
 9435SOL     OW29203   3.493   2.042   0.435 -0.0195 -0.5673 -0.1140
 9435SOL    HW129204   3.453   2.002   0.518 -1.8812 -1.9725 -1.6103
 9435SOL    HW229205   3.539   1.971   0.382 -0.8536 -0.1838 -1.4051
 9436SOL     OW29206   2.438   1.618   6.382  0.1991  0.4974  0.4120
 9436SOL    HW129207   2.468   1.529   6.413 -0.5408  0.2627  0.4777
 9436SOL    HW229208   2.497   1.650   6.308  0.1482 -0.2893  0.0246
 9437SOL     OW29209   2.419   0.043   4.524  0.4623  0.0020 -0.0115
 9437SOL    HW129210   2.409  -0.013   4.441 -1.3307 -2.0145  1.4374
 9437SOL    HW229211   2.329   0.079   4.550  0.9905  0.5449  1.1014
 9438SOL     OW29212   0.802   6.977   2.451  0.3327 -0.2612 -0.3621
 9438SOL    HW129213   0.795   6.949   2.355 -0.6814  0.0202 -0.3797
 9438SOL    HW229214   0.831   6.899   2.506  0.4602 -0.5498 -0.8322
 9439SOL     OW29215   1.275   4.178   4.654 -0.4382 -0.1708  0.0248
 9439SOL    HW129216   1.362   4.142   4.689 -0.7800  0.6895  1.8611
 9439SOL    HW229217   1.215   4.201   4.730 -2.2880 -0.6883 -1.2066
 9440SOL     OW29218   3.907   0.425   3.746  0.0759 -0.2946 -0.6502
 9440SOL    HW129219   3.897   0.500   3.812  0.4581 -0.8531  0.0588
 9440SOL    HW229220   3.853   0.347   3.776  0.5652 -0.6894 -0.7879
 9441SOL     OW29221   2.093   3.118   5.298 -0.0453 -0.4384  0.1684
 9441SOL    HW129222   2.101   3.021   5.273  1.3793 -0.6648  1.3349
 9441SOL    HW229223   2.067   3.125   5.394  1.2885  0.2812  0.5117
 9442SOL     OW29224   1.190   1.415   2.443  0.2604  0.3372 -0.3347
 9442SOL    HW129225   1.198   1.368   2.355  0.2206 -0.2902 -0.0107
 9442SOL    HW229226   1.127   1.365   2.502  0.3662  0.6959  0.0916
 9443SOL     OW29227   1.243   1.041   1.259 -0.1954  0.5152 -0.2037
 9443SOL    HW129228   1.264   1.114   1.322  0.3473  0.1189  0.0832
 9443SOL    HW229229   1.157   0.997   1.285 -0.3997  0.8909 -0.2401
 9444SOL     OW29230   0.879   4.783   5.407  0.3686  0.0938  0.6576
 9444SOL    HW129231   0.967   4.796   5.361 -1.2461  1.4909 -2.3530
 9444SOL    HW229232   0.835   4.701   5.372 -0.4039  0.5456  0.5465
 9445SOL     OW29233   5.595   1.192   3.056  0.4776 -0.2694  0.4218
 9445SOL    HW129234   5.645   1.263   3.007 -0.2589 -1.0153 -1.5447
 9445SOL    HW229235   5.522   1.233   3.109  1.3332  0.5830  0.9720
 9446SOL     OW29236   6.172   5.838   0.327  0.4290 -0.1550  0.0733
 9446SOL    HW129237   6.123   5.808   0.245 -0.4038  1.5225 -0.0834
 9446SOL    HW229238   6.187   5.760   0.387 -0.0965 -1.1854 -1.0928
 9447SOL     OW29239   6.373   0.603   6.889  0.6085 -0.1664  0.0389
 9447SOL    HW129240   6.341   0.531   6.828 -0.8606  1.4643 -1.2147
 9447SOL    HW229241   6.461   0.577   6.928 -0.3808 -3.1388  0.5829
 9448SOL     OW29242   6.200   5.738   5.664  0.4321 -0.4242  0.2472
 9448SOL    HW129243   6.157   5.660   5.619  0.7594 -1.0327  0.9794
 9448SOL    HW229244   6.273   5.706   5.725  1.2948  0.5209 -0.2491
 9449SOL     OW29245   5.836   4.445   3.781  0.0158 -1.1231  0.8359
 9449SOL    HW129246   5.836   4.526   3.722 -0.5297 -0.7139  1.3825
 9449SOL    HW229247   5.822   4.473   3.876 -1.0215 -1.9308  0.9341
 9450SOL     OW29248   2.606   6.420   3.183  0.3420  0.4998 -0.2842
 9450SOL    HW129249   2.559   6.440   3.269  0.7408  2.7987 -0.5265
 9450SOL    HW229250   2.677   6.489   3.167 -0.2868  0.6678 -2.8595
 9451SOL     OW29251   3.511   3.498   6.150 -0.0925  1.2558 -0.5388
 9451SOL    HW129252   3.584   3.521   6.087 -0.1672  2.3246 -0.2620
 9451SOL    HW229253   3.546   3.437   6.221  0.5293  1.7429 -0.4186
 9452SOL     OW29254   1.824   4.850   1.131  0.3559  0.2268  0.0962
 9452SOL    HW129255   1.788   4.889   1.216 -0.6167 -0.3358 -0.0401
 9452SOL    HW229256   1.757   4.863   1.057  0.1779 -1.3221 -0.0480
 9453SOL     OW29257   2.938   5.307   0.773  0.4967  0.1744  0.3495
 9453SOL    HW129258   2.875   5.323   0.697  0.7358 -0.8075 -0.0781
 9453SOL    HW229259   2.959   5.209   0.778  2.1185  0.4972  0.3656
 9454SOL     OW29260   6.929   3.801   5.410  0.2403  0.1909 -0.1417
 9454SOL    HW129261   7.000   3.731   5.404  0.3385  0.3912 -1.9867
 9454SOL    HW229262   6.840   3.759   5.394  0.0938  0.1830  0.6775
 9455SOL     OW29263   2.348   2.730   2.436  0.1809 -0.9300 -0.4757
 9455SOL    HW129264   2.326   2.827   2.428  1.6171 -0.5200  0.1674
 9455SOL    HW229265   2.266   2.676   2.418 -1.3150  0.4568  1.6459
 9456SOL     OW29266   1.880   2.314   6.583  0.1217 -0.0548  1.0026
 9456SOL    HW129267   1.956   2.258   6.552  0.6075  0.4644  1.2367
 9456SOL    HW229268   1.844   2.368   6.507  0.7217  0.5382  1.1315
 9457SOL     OW29269   0.221   4.114   5.343  0.4180 -0.1050  0.0540
 9457SOL    HW129270   0.317   4.092   5.359  0.6315 -0.5063 -1.6105
 9457SOL    HW229271   0.165   4.076   5.417  1.4601 -0.5164  0.6478
 9458SOL     OW29272   0.946   1.545   3.147 -0.0474  0.0659 -0.3659
 9458SOL    HW129273   0.930   1.642   3.167 -0.0909  0.1948 -0.9916
 9458SOL    HW229274   0.908   1.523   3.057 -0.1227 -0.5572 -0.1861
 9459SOL     OW29275   4.164   0.494   1.169  0.1106  0.3722 -0.4174
 9459SOL    HW129276   4.138   0.550   1.248 -1.2539 -2.2461  1.1201
 9459SOL    HW229277   4.262   0.474   1.173  0.1399  0.6472  0.3736
 9460SOL     OW29278   1.399   4.051   5.726 -0.3587 -0.4019 -0.3121
 9460SOL    HW129279   1.308   4.010   5.723 -1.1952  1.4064 -0.5295
 9460SOL    HW229280   1.399   4.138   5.676  1.1017  0.3936  0.9894
 9461SOL     OW29281   0.516   1.917   3.531 -0.8078 -0.6033 -0.0326
 9461SOL    HW129282   0.434   1.966   3.562 -0.8315 -0.8354  0.2779
 9461SOL    HW229283   0.596   1.976   3.540 -0.9554 -0.3326 -0.4495
 9462SOL     OW29284   6.659   4.520   4.135 -0.0910 -0.2908 -0.3746
 9462SOL    HW129285   6.628   4.564   4.219 -2.9268  0.0926 -1.5196
 9462SOL    HW229286   6.757   4.499   4.143 -0.4616 -1.3811  3.4497
 9463SOL     OW29287   5.326   2.025   5.178  0.2523 -0.6206  0.1479
 9463SOL    HW129288   5.233   2.060   5.190 -0.0267 -1.3185  0.0605
 9463SOL    HW229289   5.350   1.968   5.257  1.5704  1.5931  1.4569
 9464SOL     OW29290   6.061   0.618   6.211  0.1702  0.1316 -0.0184
 9464SOL    HW129291   6.026   0.588   6.299  0.7558  1.3030  0.6372
 9464SOL    HW229292   6.007   0.576   6.138 -1.6879  0.7791  0.9132
 9465SOL     OW29293   2.780   6.835   4.141 -0.0323  0.4597 -0.0143
 9465SOL    HW129294   2.763   6.821   4.043  0.9441 -0.1838 -0.1014
 9465SOL    HW229295   2.696   6.814   4.192 -0.0731 -0.8883 -0.5828
 9466SOL     OW29296   4.570   2.105   6.153 -0.4111 -0.3373  0.4671
 9466SOL    HW129297   4.481   2.067   6.130  0.8465 -0.7108 -5.4051
 9466SOL    HW229298   4.567   2.205   6.146 -0.4525 -0.3124  0.8156
 9467SOL     OW29299   1.301   3.972   3.276  0.3467  0.4568  0.3792
 9467SOL    HW129300   1.381   3.927   3.315  0.1859 -0.4954 -0.3478
 9467SOL    HW229301   1.220   3.947   3.328  0.2061 -0.4032 -0.2346
 9468SOL     OW29302   0.573   0.663   5.839  0.3515 -0.2580 -0.2367
 9468SOL    HW129303   0.498   0.680   5.775  0.4641 -1.9334 -0.8599
 9468SOL    HW229304   0.543   0.685   5.932 -0.5203  0.1967 -0.6159
 9469SOL     OW29305   1.610   3.232   4.352  0.1715 -0.2839  0.0906
 9469SOL    HW129306   1.690   3.291   4.361 -0.5211  0.8391 -0.8255
 9469SOL    HW229307   1.530   3.279   4.390 -0.3397 -0.7241 -0.4273
 9470SOL     OW29308   6.712   3.017   2.320  0.2733  0.0559 -0.6223
 9470SOL    HW129309   6.625   3.065   2.306  1.4391  1.9588 -1.8052
 9470SOL    HW229310   6.750   3.042   2.409 -0.7822 -1.5300  0.3267
 9471SOL     OW29311   6.816   1.178   6.115  0.3042  0.3660 -0.2413
 9471SOL    HW129312   6.725   1.219   6.109 -0.2956 -0.7438  0.7975
 9471SOL    HW229313   6.867   1.221   6.189  0.6812  1.0746 -0.9052
 9472SOL     OW29314   6.726   0.535   6.697 -0.5925  0.3014 -0.1039
 9472SOL    HW129315   6.667   0.501   6.623  1.1246  0.7541 -1.7550
 9472SOL    HW229316   6.705   0.631   6.714 -1.9871 -0.1708  1.0682
 9473SOL     OW29317   2.831   4.067   6.142  0.6403  0.2683 -0.2909
 9473SOL    HW129318   2.877   4.081   6.054  0.3850 -3.2810 -1.1381
 9473SOL    HW229319   2.732   4.083   6.131  0.4883 -0.9931 -0.9313
 9474SOL     OW29320   2.977   5.210   4.682 -0.6745 -0.3006  0.1498
 9474SOL    HW129321   3.055   5.199   4.744 -0.9011  1.7987  0.9006
 9474SOL    HW229322   2.945   5.121   4.652  2.6587 -1.2754 -1.0205
 9475SOL     OW29323   2.625   4.062   0.692 -0.2358 -0.2034 -0.1295
 9475SOL    HW129324   2.676   4.063   0.606  0.3253 -0.4417  0.1895
 9475SOL    HW229325   2.689   4.051   0.768 -0.6604  0.7033  0.3751
 9476SOL     OW29326   0.471   3.044   6.030 -0.1105  0.1343 -0.0208
 9476SOL    HW129327   0.469   2.982   5.952  1.2034  1.3260 -1.0468
 9476SOL    HW229328   0.556   3.029   6.081  0.2192  1.0781 -0.2806
 9477SOL     OW29329   1.418   2.139   1.170 -0.2158  0.2421  0.1821
 9477SOL    HW129330   1.484   2.140   1.095  1.0488  0.4237  1.2660
 9477SOL    HW229331   1.361   2.221   1.165 -0.6024 -0.0750 -0.9529
 9478SOL     OW29332   6.865   4.995   5.609  0.1313 -0.2860  0.0995
 9478SOL    HW129333   6.850   4.898   5.587  0.1390 -0.7402  1.9146
 9478SOL    HW229334   6.785   5.049   5.581  1.0065 -0.4133 -2.9276
 9479SOL     OW29335   5.035   4.200   4.911  0.5276  0.2761 -0.2364
 9479SOL    HW129336   5.055   4.135   4.838  0.0039  2.2630 -2.2715
 9479SOL    HW229337   4.955   4.169   4.962 -0.4530 -0.1136 -1.9312
 9480SOL     OW29338   0.064   3.310   0.209 -0.0419  0.2957 -0.1824
 9480SOL    HW129339   0.075   3.407   0.185  0.3517  0.3070  0.0338
 9480SOL    HW229340   0.077   3.254   0.128  0.1188  0.4034 -0.2335
 9481SOL     OW29341   0.236   4.049   3.408 -0.1905  0.5507 -0.3154
 9481SOL    HW129342   0.279   3.973   3.457 -0.1658  1.1727  0.6609
 9481SOL    HW229343   0.255   4.040   3.310  1.5562  0.4081 -0.0011
 9482SOL     OW29344   3.318   0.136   2.556 -0.2485 -0.6342 -0.3212
 9482SOL    HW129345   3.223   0.164   2.541  0.9111  3.8853 -0.8664
 9482SOL    HW229346   3.330   0.113   2.653 -2.1612 -3.1133 -0.5704
 9483SOL     OW29347   2.069   1.989   0.873  0.8565 -0.1718  0.1347
 9483SOL    HW129348   1.972   1.969   0.857  0.9293  0.1433 -0.7583
 9483SOL    HW229349   2.097   1.948   0.960 -0.3161  0.5761  0.8947
 9484SOL     OW29350   6.513   1.045   5.176  0.1535 -0.2040 -0.0926
 9484SOL    HW129351   6.493   0.950   5.199 -1.5840  0.7172  2.6476
 9484SOL    HW229352   6.597   1.074   5.222 -1.1673  0.4944  1.9973
 9485SOL     OW29353   0.256   0.313   5.774 -0.3805  0.0162  0.1086
 9485SOL    HW129354   0.241   0.384   5.843  0.8817 -0.9641  1.4465
 9485SOL    HW229355   0.322   0.345   5.707 -3.1432  1.8010 -2.0069
 9486SOL     OW29356   3.944   0.548   2.468  0.1199  0.3536  0.1848
 9486SOL    HW129357   3.911   0.583   2.556  2.6020  1.6934  0.6459
 9486SOL    HW229358   3.881   0.576   2.396 -1.1529  0.5176  1.3126
 9487SOL     OW29359   4.095   3.454   3.543 -0.5708  0.1945  0.4937
 9487SOL    HW129360   4.095   3.548   3.508  0.8470  0.1603  0.3682
 9487SOL    HW229361   4.140   3.452   3.632 -0.5171 -0.3948  0.4530
 9488SOL     OW29362   1.329   5.433   2.111 -0.5829  0.3567  0.4718
 9488SOL    HW129363   1.258   5.364   2.097  0.0809 -0.2152 -0.1458
 9488SOL    HW229364   1.388   5.404   2.187  0.3287 -0.3027 -0.4633
 9489SOL     OW29365   3.446   4.723   0.918  0.1652  0.3030 -0.0403
 9489SOL    HW129366   3.357   4.761   0.894  1.1410  1.5986 -1.9663
 9489SOL    HW229367   3.478   4.762   1.004  0.1670  2.2690 -0.8738
 9490SOL     OW29368   5.226   0.545   0.164 -0.4265  0.0814  0.0109
 9490SOL    HW129369   5.208   0.534   0.262 -3.3939  2.9791  0.0070
 9490SOL    HW229370   5.185   0.469   0.114  0.2430 -0.9166  0.9395
 9491SOL     OW29371   6.132   5.917   4.260 -0.6164 -0.0119  0.4409
 9491SOL    HW129372   6.192   5.842   4.289 -1.9774 -1.3367 -0.0840
 9491SOL    HW229373   6.037   5.893   4.279 -1.1286  1.3100 -0.3630
 9492SOL     OW29374   1.884   4.492   6.073  0.1732 -0.0846 -0.3072
 9492SOL    HW129375   1.804   4.433   6.060 -1.0983  0.7573  2.8380
 9492SOL    HW229376   1.959   4.438   6.111 -0.0506 -0.2195 -0.0527
 9493SOL     OW29377   4.251   4.588   1.254 -0.3513 -0.2324  0.2176
 9493SOL    HW129378   4.156   4.598   1.223  0.4788  0.2855 -2.4376
 9493SOL    HW229379   4.274   4.491   1.260 -0.7424 -0.3564 -0.2176
 9494SOL     OW29380   5.108   4.827   6.347  0.4227 -0.1201 -0.2400
 9494SOL    HW129381   5.054   4.830   6.432 -0.7850  2.3910 -0.9856
 9494SOL    HW229382   5.053   4.865   6.273  1.6615 -1.7540 -2.0652
 9495SOL     OW29383   3.766   1.277   3.323 -0.0719 -0.2337  0.3124
 9495SOL    HW129384   3.688   1.217   3.308  0.0442 -0.2722 -0.1341
 9495SOL    HW229385   3.841   1.224   3.362  0.4406 -0.6520 -1.1700
 9496SOL     OW29386   6.988   5.278   0.490  0.6099  0.7359 -0.0629
 9496SOL    HW129387   6.891   5.288   0.513  0.6904 -0.6485  1.0418
 9496SOL    HW229388   7.034   5.366   0.501 -0.4358  1.3123 -0.1726
 9497SOL     OW29389   0.540   4.756   4.449 -0.0436  0.4551  0.3465
 9497SOL    HW129390   0.580   4.740   4.540 -1.0413  0.1051  0.7346
 9497SOL    HW229391   0.586   4.833   4.406  1.0505  0.0628  0.7764
 9498SOL     OW29392   4.734   5.137   0.547  0.3578  0.0105  0.2089
 9498SOL    HW129393   4.826   5.117   0.582  1.4821 -1.4370 -3.1088
 9498SOL    HW229394   4.730   5.232   0.517  1.6393 -0.4946 -1.7415
 9499SOL     OW29395   5.444   3.132   6.037 -0.2856 -0.4557  0.1212
 9499SOL    HW129396   5.506   3.208   6.018 -1.7725  0.5122 -1.1118
 9499SOL    HW229397   5.428   3.125   6.135 -2.2925  2.6887  0.1337
 9500SOL     OW29398   4.417   1.369   0.490 -0.5093  0.0779 -0.2861
 9500SOL    HW129399   4.335   1.331   0.446 -0.5455  2.1493 -2.1561
 9500SOL    HW229400   4.495   1.310   0.470 -1.3191 -1.3894  0.6896
 9501SOL     OW29401   2.682   2.397   3.698 -0.1107  0.0350 -0.5529
 9501SOL    HW129402   2.695   2.482   3.750 -0.5371  0.1902 -0.6923
 9501SOL    HW229403   2.584   2.380   3.688 -0.0566 -1.1909  0.6570
 9502SOL     OW29404   3.027   3.382   5.329  0.9495 -0.0840  0.1432
 9502SOL    HW129405   2.984   3.292   5.330  0.5776  0.0768 -0.7246
 9502SOL    HW229406   2.956   3.453   5.332  1.2290  0.1887  0.4538
 9503SOL     OW29407   2.041   4.743   1.290 -0.3486 -0.4674 -0.0166
 9503SOL    HW129408   2.033   4.644   1.279  0.2865 -0.5429  0.1821
 9503SOL    HW229409   2.004   4.789   1.209 -0.0775 -0.8842 -0.3789
 9504SOL     OW29410   1.811   3.596   2.253  0.0307 -0.3531 -0.2261
 9504SOL    HW129411   1.758   3.672   2.288  1.1773  0.8810 -1.0553
 9504SOL    HW229412   1.750   3.529   2.209 -0.8561  0.9244 -0.9949
 9505SOL     OW29413   5.384   3.154   3.033  0.1060  0.4028 -0.4560
 9505SOL    HW129414   5.327   3.123   3.110  1.5614 -0.0903  0.4591
 9505SOL    HW229415   5.394   3.253   3.037  1.3056  0.2607  0.8534
 9506SOL     OW29416   6.435   1.961   1.627  0.0917  0.1376  0.3904
 9506SOL    HW129417   6.459   2.019   1.549 -2.1818 -0.4294 -0.8250
 9506SOL    HW229418   6.438   2.014   1.711  0.8978  1.2137 -0.2916
 9507SOL     OW29419   1.585   3.173   3.199 -0.5806 -0.3730  0.4416
 9507SOL    HW129420   1.542   3.263   3.210  1.2363  0.9649 -2.3018
 9507SOL    HW229421   1.516   3.106   3.172 -1.6508  0.6891  0.4610
 9508SOL     OW29422   3.866   2.428   7.020 -0.6375 -0.4147 -0.0159
 9508SOL    HW129423   3.771   2.450   7.043 -0.6399 -1.8491  1.5490
 9508SOL    HW229424   3.928   2.492   7.066 -0.8270  0.2220 -0.6441
 9509SOL     OW29425   3.089   0.393   5.035  0.7872 -0.4233  0.1484
 9509SOL    HW129426   2.990   0.381   5.045  1.0546 -2.3126  0.8117
 9509SOL    HW229427   3.107   0.464   4.966 -1.0142  0.1640  0.2321
 9510SOL     OW29428   0.816   3.884   1.832 -0.0353 -0.1925 -0.8767
 9510SOL    HW129429   0.888   3.819   1.854 -0.2490  0.3701  1.7007
 9510SOL    HW229430   0.791   3.874   1.735  4.2208  0.3705 -2.2417
 9511SOL     OW29431   3.372   1.558   2.672  0.1886  0.6366  0.2258
 9511SOL    HW129432   3.381   1.475   2.617 -0.0559  0.3201  0.6664
 9511SOL    HW229433   3.337   1.632   2.614  0.2920  0.4033 -0.1372
 9512SOL     OW29434   4.870   4.652   5.746 -0.5428  0.0827 -0.6300
 9512SOL    HW129435   4.848   4.744   5.713  2.4266  1.4894  0.8827
 9512SOL    HW229436   4.841   4.644   5.842  0.4755  0.0136 -0.3152
 9513SOL     OW29437   3.665   5.781   4.786  0.0905 -0.2083  0.3820
 9513SOL    HW129438   3.615   5.851   4.837  2.6314 -0.2604  3.1735
 9513SOL    HW229439   3.689   5.706   4.846  0.1228 -2.0876 -1.8319
 9514SOL     OW29440   3.363   4.013   5.610  0.0391  0.4895  0.5797
 9514SOL    HW129441   3.435   4.055   5.554 -0.3200  1.5172  0.8701
 9514SOL    HW229442   3.310   3.951   5.553  0.7223  0.2492  0.1898
 9515SOL     OW29443   1.089   5.767   6.334 -0.1881 -0.6053  0.3140
 9515SOL    HW129444   1.184   5.747   6.310 -0.0970 -0.4976  0.5850
 9515SOL    HW229445   1.086   5.847   6.394 -0.5376  0.1733 -0.7040
 9516SOL     OW29446   6.704   5.697   3.087  0.1604  0.4013 -0.0455
 9516SOL    HW129447   6.651   5.779   3.105  0.9651  0.2704  3.8594
 9516SOL    HW229448   6.795   5.706   3.129  1.4002 -1.3390 -2.1394
 9517SOL     OW29449   0.494   3.729   3.271 -0.2402 -0.0301 -0.6504
 9517SOL    HW129450   0.566   3.659   3.268 -0.8072 -0.6286 -0.4032
 9517SOL    HW229451   0.489   3.775   3.183 -0.2450 -0.6873 -1.0002
 9518SOL     OW29452   0.884   3.993   5.537 -0.3711 -0.1887 -0.3444
 9518SOL    HW129453   0.806   4.012   5.597  0.0721 -0.2232  0.2425
 9518SOL    HW229454   0.874   3.901   5.499  0.2133 -0.8394  1.0289
 9519SOL     OW29455   3.177   3.304   2.704 -1.2640  0.0506 -0.3171
 9519SOL    HW129456   3.198   3.380   2.643 -2.7751 -0.4385 -1.5249
 9519SOL    HW229457   3.221   3.319   2.792  1.3231  0.6087 -1.5923
 9520SOL     OW29458   3.812   0.436   4.861  0.0495 -0.2796 -0.3452
 9520SOL    HW129459   3.805   0.416   4.763  1.5058 -2.3570 -0.0805
 9520SOL    HW229460   3.908   0.439   4.887 -0.1304  3.7066  0.4455
 9521SOL     OW29461   1.574   1.846   1.789 -0.5744 -0.3330  0.5401
 9521SOL    HW129462   1.545   1.933   1.831  0.0054  0.4949 -0.7077
 9521SOL    HW229463   1.643   1.865   1.719 -1.5059 -1.6571 -0.7842
 9522SOL     OW29464   5.155   4.628   1.512  0.1487  0.3901 -0.7479
 9522SOL    HW129465   5.121   4.612   1.419  0.2078  1.4842 -0.9747
 9522SOL    HW229466   5.224   4.701   1.510  0.4895  0.1009  0.0937
 9523SOL     OW29467   2.779   5.620   3.836  0.0209  0.8348  0.0722
 9523SOL    HW129468   2.770   5.711   3.877 -1.0426  1.6006 -1.7170
 9523SOL    HW229469   2.761   5.550   3.905 -0.5868  2.0162  1.1548
 9524SOL     OW29470   2.126   2.879   0.539 -0.3142  0.2248  0.0655
 9524SOL    HW129471   2.174   2.793   0.551 -2.6896 -1.5549 -2.1451
 9524SOL    HW229472   2.067   2.896   0.618 -0.3665 -0.5695  0.2039
 9525SOL     OW29473   1.858   4.384   0.960 -0.1819 -0.4616 -0.0901
 9525SOL    HW129474   1.840   4.418   1.052 -0.0561  1.0474 -0.6000
 9525SOL    HW229475   1.955   4.365   0.949 -0.4169 -2.3536  0.6054
 9526SOL     OW29476   6.486   1.692   5.877 -0.2659  0.6349  0.3227
 9526SOL    HW129477   6.573   1.677   5.830 -0.9928 -0.2223 -0.8060
 9526SOL    HW229478   6.431   1.758   5.826 -0.5329  0.6963  0.6824
 9527SOL     OW29479   3.548   4.260   6.000  0.0856  0.0192 -0.1247
 9527SOL    HW129480   3.457   4.269   5.959  0.3283 -0.8398 -0.8884
 9527SOL    HW229481   3.612   4.230   5.930  1.2639  1.9652  0.0581
 9528SOL     OW29482   4.258   4.495   0.697  0.0021  0.0031 -0.5302
 9528SOL    HW129483   4.358   4.493   0.685 -0.0883 -1.9496 -1.3206
 9528SOL    HW229484   4.214   4.498   0.608 -0.6394 -0.2752 -0.2287
 9529SOL     OW29485   0.266   6.690   1.558  0.1754 -0.0541  0.4969
 9529SOL    HW129486   0.205   6.639   1.620  2.2412 -0.9274  1.9493
 9529SOL    HW229487   0.307   6.626   1.493 -2.7236  0.9880 -2.6634
 9530SOL     OW29488   0.623   3.148   3.176  0.6698  0.3043 -0.0755
 9530SOL    HW129489   0.617   3.171   3.079  1.5172  0.8431 -0.0150
 9530SOL    HW229490   0.531   3.144   3.215  0.2811 -0.5626 -1.0380
 9531SOL     OW29491   4.554   5.033   0.751 -0.0160 -0.1356  0.8443
 9531SOL    HW129492   4.501   5.110   0.786 -0.2372  0.0849  0.0395
 9531SOL    HW229493   4.607   5.062   0.672 -0.5875 -0.9653  0.1390
 9532SOL     OW29494   1.055   4.974   3.046 -0.1747  0.1236 -0.4145
 9532SOL    HW129495   1.068   4.986   2.948 -0.0090  0.7838 -0.3163
 9532SOL    HW229496   1.075   5.060   3.093  0.8025 -0.4711  0.2957
 9533SOL     OW29497   1.220   5.377   4.666  0.0427  0.0783 -0.3376
 9533SOL    HW129498   1.126   5.342   4.658  0.5031 -1.2190 -0.2749
 9533SOL    HW229499   1.236   5.405   4.761 -0.0016 -0.5713 -0.1292
 9534SOL     OW29500   5.267   5.820   3.047  0.5941 -0.6144  0.2905
 9534SOL    HW129501   5.227   5.907   3.018  0.2763 -0.6460  0.6304
 9534SOL    HW229502   5.279   5.761   2.967 -3.3726 -2.0029  0.5095
 9535SOL     OW29503   6.229   2.099   5.419 -0.4037 -0.0262 -1.0858
 9535SOL    HW129504   6.177   2.062   5.495  1.1394  0.6096  0.3376
 9535SOL    HW229505   6.256   2.193   5.440 -0.2986  0.3146 -2.6165
 9536SOL     OW29506   4.332   4.301   5.493  0.3630  0.1384  0.0491
 9536SOL    HW129507   4.269   4.288   5.416 -0.4829  0.2260  0.7161
 9536SOL    HW229508   4.399   4.372   5.470 -1.3996  1.9500  0.3207
 9537SOL     OW29509   6.447   6.008   4.603  0.7167  0.2505 -0.1263
 9537SOL    HW129510   6.512   6.006   4.679  0.8725  1.5089 -0.1970
 9537SOL    HW229511   6.474   5.940   4.534  1.1436 -0.2149  0.4936
 9538SOL     OW29512   6.974   0.953   6.111  0.5076  0.4827  0.0830
 9538SOL    HW129513   6.910   0.876   6.119 -0.3066  1.1633  0.2134
 9538SOL    HW229514   6.928   1.038   6.136  1.6831  0.8972  0.9347
 9539SOL     OW29515   2.994   3.112   2.643  0.6684 -0.0458 -0.4380
 9539SOL    HW129516   3.078   3.166   2.649  0.8225 -0.4226  1.3991
 9539SOL    HW229517   2.941   3.141   2.563  1.3574  1.9113 -0.2392
 9540SOL     OW29518   3.234   5.333   3.179 -0.1917  0.1203 -0.1202
 9540SOL    HW129519   3.184   5.335   3.266  0.3052 -0.7657  0.1996
 9540SOL    HW229520   3.331   5.347   3.197 -0.3048  2.1869 -0.7662
 9541SOL     OW29521   2.011   5.135   0.385  0.4429 -0.8661  0.1416
 9541SOL    HW129522   1.923   5.174   0.412  0.6463 -0.2536 -0.0884
 9541SOL    HW229523   2.076   5.145   0.460  0.7429  0.0163 -0.2259
 9542SOL     OW29524   6.260   4.445   3.364  0.1844 -0.1383 -0.1768
 9542SOL    HW129525   6.202   4.466   3.443 -0.0243  0.7154 -0.5479
 9542SOL    HW229526   6.350   4.486   3.378 -0.2582  1.1546 -0.9534
 9543SOL     OW29527   2.929   3.579   5.039  0.2528  0.4260  0.1096
 9543SOL    HW129528   3.023   3.549   5.024  0.1850 -0.0437  0.6069
 9543SOL    HW229529   2.867   3.526   4.982  0.1867  0.0019  0.5749
 9544SOL     OW29530   6.297   4.051   3.980  0.0085 -0.4418 -0.0103
 9544SOL    HW129531   6.319   4.137   4.027  0.8544  0.7257 -2.3738
 9544SOL    HW229532   6.377   3.991   3.980 -0.6969 -1.4928  1.9851
 9545SOL     OW29533   6.282   3.527   0.331  0.2790  0.3931 -0.2772
 9545SOL    HW129534   6.228   3.608   0.308  0.0966  0.6023  0.8361
 9545SOL    HW229535   6.360   3.553   0.388  0.5203 -0.1453 -0.3561
 9546SOL     OW29536   4.208   1.201   0.415 -0.0990  0.3151 -0.3378
 9546SOL    HW129537   4.125   1.248   0.386 -0.1445 -1.3022 -3.2727
 9546SOL    HW229538   4.188   1.141   0.493 -1.1461  1.4830  0.3134
 9547SOL     OW29539   3.629   6.744   1.670  0.0064 -0.2129 -0.9986
 9547SOL    HW129540   3.652   6.647   1.676 -0.2910 -0.2009  1.1151
 9547SOL    HW229541   3.531   6.756   1.686  0.0114  0.4357 -1.4122
 9548SOL     OW29542   0.306   6.093   0.309  0.0829  0.4881 -0.2906
 9548SOL    HW129543   0.390   6.108   0.256  0.6659 -0.2003  0.3957
 9548SOL    HW229544   0.325   6.112   0.405 -0.4360 -0.0697 -0.0748
 9549SOL     OW29545   3.327   0.969   3.353 -0.3015 -0.1791 -0.1109
 9549SOL    HW129546   3.281   1.017   3.279  0.1513  0.2488 -0.1210
 9549SOL    HW229547   3.331   0.871   3.332 -1.3631 -0.2473 -0.0140
 9550SOL     OW29548   6.370   2.581   3.980 -0.2737 -0.3506  0.4488
 9550SOL    HW129549   6.317   2.639   4.042 -1.2445 -1.3848  0.6155
 9550SOL    HW229550   6.396   2.634   3.899  0.1862  0.7419  1.2739
 9551SOL     OW29551   1.186   3.343   0.460  0.1174  0.2298  0.5193
 9551SOL    HW129552   1.217   3.388   0.376 -0.8470 -0.3441 -0.1657
 9551SOL    HW229553   1.160   3.412   0.528 -1.6663  0.7502 -0.6255
 9552SOL     OW29554   2.023   2.981   5.931  0.1688  0.3757  0.1247
 9552SOL    HW129555   1.931   2.946   5.914  0.4834 -0.7053  0.5963
 9552SOL    HW229556   2.051   2.957   6.024  1.1239  0.2572 -0.1898
 9553SOL     OW29557   5.328   1.901   0.397  0.1258 -0.2417  0.1011
 9553SOL    HW129558   5.273   1.957   0.335  0.2853 -0.8179 -0.5792
 9553SOL    HW229559   5.375   1.960   0.463 -1.2639  0.2583  0.6746
 9554SOL     OW29560   1.140   0.979   6.138  0.8210  0.1939  0.1867
 9554SOL    HW129561   1.076   0.935   6.075  0.8621  2.3267 -1.4865
 9554SOL    HW229562   1.096   0.993   6.227 -1.1621  1.6633 -0.9281
 9555SOL     OW29563   0.427   1.486   2.367  0.0043 -0.0984 -0.1769
 9555SOL    HW129564   0.449   1.547   2.290 -0.3922  0.1031 -0.1363
 9555SOL    HW229565   0.431   1.538   2.452  1.5695 -0.5799  0.0804
 9556SOL     OW29566   2.082   3.508   6.106  0.2932 -0.6844 -0.4032
 9556SOL    HW129567   1.997   3.456   6.099  0.7434 -1.4756 -0.1734
 9556SOL    HW229568   2.069   3.585   6.170 -0.3662 -0.5355 -0.7116
 9557SOL     OW29569   5.603   0.258   6.809 -0.0174 -0.1606  0.4907
 9557SOL    HW129570   5.587   0.249   6.907 -0.7364  0.2924  0.4205
 9557SOL    HW229571   5.702   0.264   6.792  0.1307 -0.6109  1.1477
 9558SOL     OW29572   1.019   5.438   3.518  0.6271 -0.4247  0.7190
 9558SOL    HW129573   1.069   5.515   3.479 -0.5130 -1.6200 -3.5936
 9558SOL    HW229574   0.934   5.471   3.559  0.8724  0.7335  0.3421
 9559SOL     OW29575   3.004   5.459   1.187 -0.6441  0.3263  0.0382
 9559SOL    HW129576   3.013   5.361   1.172 -0.0868  0.7039 -2.3851
 9559SOL    HW229577   3.064   5.487   1.262 -1.7322 -1.3203  1.6143
 9560SOL     OW29578   1.569   6.942   1.773  0.4724  0.5359  0.3713
 9560SOL    HW129579   1.590   6.845   1.760  0.7759  0.6083  0.3172
 9560SOL    HW229580   1.471   6.953   1.783  0.3524  0.3273 -0.5135
 9561SOL     OW29581   0.661   0.836   6.180 -0.1180  0.2222  0.4491
 9561SOL    HW129582   0.734   0.828   6.112 -1.3570  1.5192 -1.1369
 9561SOL    HW229583   0.696   0.882   6.262  1.0504 -0.0144  0.0953
 9562SOL     OW29584   1.748   4.281   4.106 -0.0420  0.0228 -0.0015
 9562SOL    HW129585   1.829   4.314   4.057 -0.5004 -0.3547 -1.0467
 9562SOL    HW229586   1.693   4.359   4.135  1.7033  0.4176  2.6029
 9563SOL     OW29587   0.062   6.096   1.136 -0.1010  0.1935  0.6505
 9563SOL    HW129588  -0.029   6.122   1.106 -1.7782 -0.4233  4.5286
 9563SOL    HW229589   0.108   6.175   1.176  1.0115  0.4270 -0.9984
 9564SOL     OW29590   0.519   1.290   0.246 -0.2784 -0.0539 -0.2228
 9564SOL    HW129591   0.608   1.252   0.268 -1.0340 -1.2966  0.8311
 9564SOL    HW229592   0.449   1.246   0.301 -1.9011 -0.9518 -2.8071
 9565SOL     OW29593   2.600   1.745   3.460 -0.2389 -0.2294  0.2650
 9565SOL    HW129594   2.574   1.724   3.365 -1.0733  0.3125  0.3658
 9565SOL    HW229595   2.673   1.813   3.460  0.4742 -0.9671  0.0034
 9566SOL     OW29596   2.881   5.036   5.816  0.3623 -0.2257 -0.1405
 9566SOL    HW129597   2.892   4.985   5.901 -0.0029 -0.4767 -0.2447
 9566SOL    HW229598   2.811   5.106   5.829 -2.3032 -2.5168 -1.2394
 9567SOL     OW29599   6.015   3.419   0.001  0.0747 -0.0608  0.5323
 9567SOL    HW129600   5.941   3.364  -0.035 -0.5820  1.3672 -0.3794
 9567SOL    HW229601   6.100   3.366   0.001 -0.5890 -1.1427 -0.0292
 9568SOL     OW29602   4.761   3.160   5.328 -0.3863 -0.2745  0.7323
 9568SOL    HW129603   4.687   3.097   5.350 -1.1973  0.7560  1.0470
 9568SOL    HW229604   4.730   3.254   5.342  0.3036  0.2847 -1.1480
 9569SOL     OW29605   5.850   6.580   2.701  0.4180  0.0902 -0.0058
 9569SOL    HW129606   5.941   6.596   2.738  0.0047  0.1158  1.0236
 9569SOL    HW229607   5.857   6.528   2.616  1.3486 -0.7208  0.5491
 9570SOL     OW29608   0.148   4.952   6.829 -0.2212  0.4451 -0.2282
 9570SOL    HW129609   0.191   4.963   6.740  0.0420  1.5674  0.0302
 9570SOL    HW229610   0.187   4.872   6.875 -0.4487 -0.2168 -1.1472
 9571SOL     OW29611   2.340   6.634   6.353  0.2573  0.3376 -0.3365
 9571SOL    HW129612   2.260   6.650   6.295 -2.0392  0.4532  2.6389
 9571SOL    HW229613   2.401   6.713   6.350 -0.9313  1.2517 -0.8588
 9572SOL     OW29614   1.853   3.231   4.589  0.3396 -0.8041  0.1682
 9572SOL    HW129615   1.951   3.233   4.604  0.3191 -2.2638  0.6923
 9572SOL    HW229616   1.822   3.319   4.554  1.8650 -0.4058 -0.2341
 9573SOL     OW29617   4.430   1.001   3.395 -0.0810  0.0978 -0.4077
 9573SOL    HW129618   4.389   0.918   3.433 -1.3755  0.5449 -0.7527
 9573SOL    HW229619   4.435   0.993   3.296 -1.0610  0.7568 -0.5325
 9574SOL     OW29620   6.089   0.485   6.635  0.1774  0.2280 -0.3057
 9574SOL    HW129621   6.111   0.582   6.650 -0.0705  0.4684 -1.3941
 9574SOL    HW229622   6.017   0.478   6.565  0.6309 -0.7688 -0.6845
 9575SOL     OW29623   5.449   0.261   1.751 -0.0263  0.2893 -0.4348
 9575SOL    HW129624   5.517   0.193   1.725  1.5091  1.1535  1.0909
 9575SOL    HW229625   5.495   0.342   1.788 -1.8673  0.0689  2.7058
 9576SOL     OW29626   3.573   2.467   6.984  0.2819 -0.6291  0.5583
 9576SOL    HW129627   3.492   2.523   6.999  0.1459 -0.8609  0.7105
 9576SOL    HW229628   3.551   2.393   6.920  0.7515  0.1207 -0.5037
 9577SOL     OW29629   0.450   5.310   2.186  0.4222  0.1824 -0.9145
 9577SOL    HW129630   0.373   5.360   2.224  0.0885  1.8462 -3.5219
 9577SOL    HW229631   0.490   5.361   2.110  3.4342 -1.1503 -0.4085
 9578SOL     OW29632   0.384   3.232   4.088 -0.1998 -0.0844 -1.3670
 9578SOL    HW129633   0.330   3.267   4.012  0.4750 -0.4425 -2.0265
 9578SOL    HW229634   0.327   3.171   4.144 -0.3249 -0.9753 -2.4212
 9579SOL     OW29635   4.969   5.097   3.039 -0.4775 -0.1075 -0.3708
 9579SOL    HW129636   4.891   5.158   3.024 -0.4181  0.2068  0.5566
 9579SOL    HW229637   4.971   5.069   3.135  0.6243 -0.0277 -0.3673
 9580SOL     OW29638   4.025   5.374   3.325  0.6757 -0.4057 -0.0228
 9580SOL    HW129639   3.981   5.292   3.363 -1.3158 -0.1061 -1.5490
 9580SOL    HW229640   4.048   5.358   3.229 -0.5071  1.0870 -0.5854
 9581SOL     OW29641   5.672   2.053   5.490  0.5262 -0.4576  0.0398
 9581SOL    HW129642   5.753   2.022   5.441  1.2583  0.7984  0.4026
 9581SOL    HW229643   5.666   2.008   5.579 -1.1829 -3.2763 -1.3690
 9582SOL     OW29644   5.511   5.660   5.530 -0.3114  0.4629 -0.6135
 9582SOL    HW129645   5.593   5.686   5.581 -0.2167 -0.5212 -0.2375
 9582SOL    HW229646   5.527   5.573   5.482 -0.5711  1.1211 -1.9289
 9583SOL     OW29647   2.832   5.693   1.504  0.2873 -0.0938  0.5673
 9583SOL    HW129648   2.840   5.757   1.580 -1.0556  0.3816  0.3307
 9583SOL    HW229649   2.867   5.603   1.532 -0.7547 -0.0991  1.9580
 9584SOL     OW29650   0.873   5.044   4.822  0.1840 -0.2422 -0.6566
 9584SOL    HW129651   0.886   4.945   4.817  0.6032 -0.1999 -0.3986
 9584SOL    HW229652   0.894   5.085   4.733 -0.5610 -0.4492 -0.9338
 9585SOL     OW29653   4.143   5.692   0.154  0.3440 -0.0422  0.0294
 9585SOL    HW129654   4.122   5.725   0.062  2.7405  0.0885 -0.5475
 9585SOL    HW229655   4.106   5.756   0.222 -1.0973  0.0772 -0.8266
 9586SOL     OW29656   3.409   5.627   4.883 -0.1199  0.2230  0.0655
 9586SOL    HW129657   3.499   5.628   4.927  0.3381  3.6815 -0.6229
 9586SOL    HW229658   3.352   5.699   4.922 -1.3653  0.3347 -1.8174
 9587SOL     OW29659   5.195   5.842   5.964  0.5651  0.1383  0.0136
 9587SOL    HW129660   5.098   5.855   5.943  0.3636  0.2214  0.9424
 9587SOL    HW229661   5.249   5.856   5.881 -0.3079 -1.2610 -0.8412
 9588SOL     OW29662   5.709   5.445   2.179 -0.5206 -0.1220 -0.0032
 9588SOL    HW129663   5.736   5.378   2.248  3.1687  1.6437  0.4697
 9588SOL    HW229664   5.677   5.528   2.223 -0.4498  0.1510 -0.4589
 9589SOL     OW29665   5.728   0.468   4.676  0.1898 -0.5995 -0.1014
 9589SOL    HW129666   5.744   0.558   4.716 -0.3626 -0.6413  0.2290
 9589SOL    HW229667   5.693   0.406   4.747  1.0733 -1.2238 -0.1978
 9590SOL     OW29668   5.021   0.905   0.454 -0.4508  0.3624 -0.0686
 9590SOL    HW129669   5.030   0.887   0.356 -1.6558  0.5459 -0.2245
 9590SOL    HW229670   4.985   0.997   0.467 -1.7517 -0.2073  0.4881
 9591SOL     OW29671   4.584   5.917   5.994  0.1147  0.0157  0.4096
 9591SOL    HW129672   4.635   5.841   6.034  2.2567  1.3655  0.4267
 9591SOL    HW229673   4.601   5.920   5.895 -0.2223  0.2650  0.3579
 9592SOL     OW29674   0.729   5.182   6.503 -0.0871 -0.0797 -0.1066
 9592SOL    HW129675   0.774   5.107   6.455 -0.3259  0.3318 -0.9770
 9592SOL    HW229676   0.795   5.257   6.517 -0.3889  0.3656 -1.0370
 9593SOL     OW29677   3.136   2.135   3.760  0.3326  0.5079  0.3513
 9593SOL    HW129678   3.180   2.191   3.830  0.5268  0.5152  0.2236
 9593SOL    HW229679   3.205   2.100   3.697  0.0712  1.2077 -0.3500
 9594SOL     OW29680   6.996   6.870   2.270 -0.1647 -0.3442  0.5429
 9594SOL    HW129681   6.928   6.886   2.199 -0.3509 -0.6627  0.6438
 9594SOL    HW229682   6.977   6.928   2.349 -1.0080 -1.2432  1.0240
 9595SOL     OW29683   0.762   3.633   3.514 -0.2453  0.2722 -0.1382
 9595SOL    HW129684   0.703   3.552   3.521 -0.7640  0.6478 -0.1779
 9595SOL    HW229685   0.760   3.683   3.600  0.4087  0.0246  0.0314
 9596SOL     OW29686   2.967   4.804   1.063  0.3505 -0.0435 -0.9550
 9596SOL    HW129687   2.923   4.862   1.132 -1.7937 -1.2515 -1.2155
 9596SOL    HW229688   2.944   4.838   0.972 -1.9535 -1.8755 -1.1458
 9597SOL     OW29689   2.112   2.442   1.923  0.0585 -0.4241  0.1221
 9597SOL    HW129690   2.170   2.411   1.848 -0.3395 -1.2373  0.1366
 9597SOL    HW229691   2.125   2.540   1.937  1.0148 -0.4910 -0.2298
 9598SOL     OW29692   2.766   5.914   3.571 -0.3677 -0.3359 -0.2103
 9598SOL    HW129693   2.835   5.919   3.499  0.8426  2.2369  1.0144
 9598SOL    HW229694   2.779   5.830   3.624  1.6390 -0.0914 -0.2283
 9599SOL     OW29695   4.738   0.498   3.503 -0.5611  0.3904  0.2748
 9599SOL    HW129696   4.640   0.505   3.483 -0.6606  1.6815  1.0903
 9599SOL    HW229697   4.785   0.578   3.466  0.4408 -0.8970 -1.3619
 9600SOL     OW29698   4.775   6.908   1.105  0.8502 -0.2608 -0.0537
 9600SOL    HW129699   4.691   6.949   1.071  1.2866  0.6380 -0.0902
 9600SOL    HW229700   4.769   6.809   1.099 -1.3616 -0.4276  2.6132
 9601SOL     OW29701   0.786   4.383   6.633 -0.3822  0.1691 -0.4508
 9601SOL    HW129702   0.835   4.322   6.571  0.4970 -0.6937  1.0267
 9601SOL    HW229703   0.821   4.371   6.726 -1.7357  1.3278  0.2498
 9602SOL     OW29704   4.538   4.029   6.860 -0.8786  0.1957 -0.0977
 9602SOL    HW129705   4.521   4.033   6.761  0.1705  2.1595 -0.2575
 9602SOL    HW229706   4.625   3.983   6.877 -0.6672  0.5602 -0.1703
 9603SOL     OW29707   6.551   6.442   5.084 -0.2291  0.3838  0.2107
 9603SOL    HW129708   6.601   6.486   5.010  0.1009 -1.4292 -0.7011
 9603SOL    HW229709   6.609   6.374   5.128 -1.4107 -0.7698  0.0532
 9604SOL     OW29710   5.123   0.059   2.550  0.4881  0.4760 -0.6326
 9604SOL    HW129711   5.137   0.067   2.451  0.4162  0.6265 -0.6313
 9604SOL    HW229712   5.029   0.084   2.572  1.1561  2.8839 -0.2512
 9605SOL     OW29713   4.945   5.604   1.105 -0.7387 -0.5445 -0.0962
 9605SOL    HW129714   5.017   5.590   1.173 -0.6558  0.8218  0.1162
 9605SOL    HW229715   4.872   5.658   1.145 -0.8181  0.0341 -1.0109
 9606SOL     OW29716   2.717   0.853   6.775  0.2217 -0.1226  0.7622
 9606SOL    HW129717   2.772   0.904   6.841  0.2920  0.1322  0.5126
 9606SOL    HW229718   2.731   0.892   6.683  3.3279 -2.9785 -0.1505
 9607SOL     OW29719   6.466   2.309   0.034 -0.0113  0.7037 -0.0208
 9607SOL    HW129720   6.522   2.360  -0.031  0.1340 -0.8053 -1.1413
 9607SOL    HW229721   6.374   2.348   0.036 -0.0913  0.6298 -1.3576
 9608SOL     OW29722   6.144   1.487   5.094  0.4462  0.2535 -0.1744
 9608SOL    HW129723   6.109   1.400   5.059  0.0023  0.2028  0.3878
 9608SOL    HW229724   6.235   1.503   5.056  0.5733 -0.4983 -0.2070
 9609SOL     OW29725   4.500   3.023   1.193  0.1717  0.0787 -0.2291
 9609SOL    HW129726   4.537   3.034   1.285  0.3637  0.1956 -0.3191
 9609SOL    HW229727   4.405   2.992   1.198 -0.4976  2.0603  0.0481
 9610SOL     OW29728   1.444   0.069   2.583  0.4501  0.3420 -0.6876
 9610SOL    HW129729   1.368   0.056   2.646  0.2210 -2.2171 -1.3848
 9610SOL    HW229730   1.410   0.112   2.499 -0.3320 -1.0779 -1.1210
 9611SOL     OW29731   1.287   0.749   0.368  0.2097 -0.1130 -0.0222
 9611SOL    HW129732   1.253   0.701   0.449 -1.0142  1.9283  0.7596
 9611SOL    HW229733   1.250   0.842   0.366  5.1703  2.2155  0.5077
 9612SOL     OW29734   0.201   0.946   4.738  0.4828 -0.2956  0.7606
 9612SOL    HW129735   0.259   0.962   4.658 -0.2137  1.5517  0.5863
 9612SOL    HW229736   0.213   1.020   4.804  1.2052 -1.8876  2.5299
 9613SOL     OW29737   3.795   4.894   3.497  0.7413  0.0419 -0.4210
 9613SOL    HW129738   3.702   4.901   3.535  0.9522 -0.7118  0.2717
 9613SOL    HW229739   3.800   4.813   3.438  0.9578  0.0831 -0.4570
 9614SOL     OW29740   3.436   0.568   4.384 -0.5767 -0.1269  0.3967
 9614SOL    HW129741   3.415   0.662   4.409 -1.5553  0.0457 -0.9346
 9614SOL    HW229742   3.501   0.568   4.308  0.9588 -0.5918  1.6567
 9615SOL     OW29743   1.860   3.387   1.270 -0.8694  0.3666  0.7403
 9615SOL    HW129744   1.769   3.427   1.267 -1.1128 -0.1938  0.4607
 9615SOL    HW229745   1.905   3.401   1.182 -1.1923 -0.4959  0.4244
 9616SOL     OW29746   3.517   3.410   0.592  0.0487  0.0061 -0.2988
 9616SOL    HW129747   3.425   3.372   0.605  0.6705 -0.9995  1.5283
 9616SOL    HW229748   3.584   3.346   0.627  1.5749  0.2650 -2.5273
 9617SOL     OW29749   6.915   3.754   2.912  0.2864 -0.3435 -0.0063
 9617SOL    HW129750   7.008   3.756   2.950  0.6064 -1.0405 -0.7170
 9617SOL    HW229751   6.920   3.738   2.814 -0.6193 -0.9411  0.0360
 9618SOL     OW29752   2.752   3.667   1.068  0.1962  0.0409 -0.1567
 9618SOL    HW129753   2.678   3.731   1.053 -1.4051 -1.2379  1.8170
 9618SOL    HW229754   2.799   3.689   1.153 -1.2637 -2.0797  1.2952
 9619SOL     OW29755   1.946   0.913   6.298 -0.0046  0.2730  0.3475
 9619SOL    HW129756   1.945   0.910   6.398 -2.2939 -0.7600  0.3593
 9619SOL    HW229757   1.866   0.864   6.262  0.1379  1.5748 -1.9735
 9620SOL     OW29758   5.363   6.818   5.658 -0.1724  0.4625  1.0248
 9620SOL    HW129759   5.293   6.874   5.613 -0.2439 -0.5670 -0.1808
 9620SOL    HW229760   5.319   6.752   5.718 -0.2449 -0.1558  0.2999
 9621SOL     OW29761   1.026   3.443   3.742 -0.1208  0.5780 -0.8272
 9621SOL    HW129762   0.934   3.437   3.702 -1.1820 -0.4887  1.5438
 9621SOL    HW229763   1.037   3.532   3.787  0.0235  0.7344 -1.1753
 9622SOL     OW29764   4.050   5.810   1.309 -0.1074 -0.5377 -0.3107
 9622SOL    HW129765   4.137   5.763   1.293  0.1202 -0.3727  0.3788
 9622SOL    HW229766   4.004   5.827   1.222  2.1585  2.4605 -1.0905
 9623SOL     OW29767   0.215   4.762   6.633  0.8634  0.2359 -0.4057
 9623SOL    HW129768   0.203   4.675   6.679 -0.3161  0.5798 -0.0335
 9623SOL    HW229769   0.191   4.753   6.536  0.2409  0.2653 -0.2561
 9624SOL     OW29770   5.844   3.119   3.865  0.2462 -0.8280 -0.3910
 9624SOL    HW129771   5.847   3.097   3.963 -3.7107 -0.2535  0.0426
 9624SOL    HW229772   5.784   3.197   3.851  1.0801 -0.5888 -3.3165
 9625SOL     OW29773   4.283   5.072   1.156  0.4775  0.6623 -0.5111
 9625SOL    HW129774   4.343   4.999   1.125  0.0854  0.4730 -0.8422
 9625SOL    HW229775   4.321   5.115   1.238 -0.4029 -1.4319  1.0863
 9626SOL     OW29776   4.341   1.142   1.408 -0.2757 -0.5178  0.4845
 9626SOL    HW129777   4.322   1.126   1.311  0.6147 -0.6740  0.3258
 9626SOL    HW229778   4.292   1.223   1.439 -1.7425 -1.2846  0.2895
 9627SOL     OW29779   0.947   1.426   0.688  0.4464  0.0368  0.1611
 9627SOL    HW129780   0.942   1.523   0.664 -0.0003 -0.2830 -1.1571
 9627SOL    HW229781   0.855   1.386   0.685  0.6791 -0.5218  0.2768
 9628SOL     OW29782   3.556   6.911   2.355 -0.9439 -0.2106  0.0233
 9628SOL    HW129783   3.478   6.896   2.415  0.8432 -1.9086  2.0734
 9628SOL    HW229784   3.597   6.823   2.331  0.3711  0.6398 -0.9875
 9629SOL     OW29785   3.456   0.134   1.803 -0.7516  0.5218  0.2691
 9629SOL    HW129786   3.443   0.093   1.713  0.3969 -0.4391  0.5055
 9629SOL    HW229787   3.506   0.220   1.794 -1.1437  0.7163 -0.0538
 9630SOL     OW29788   5.585   1.668   6.921  0.3435  0.1411 -0.4059
 9630SOL    HW129789   5.565   1.571   6.933  0.7552  0.0618 -0.3486
 9630SOL    HW229790   5.672   1.690   6.965  0.3279  0.5041 -0.5512
 9631SOL     OW29791   5.971   6.184   2.239  0.0062 -0.7083 -0.3982
 9631SOL    HW129792   5.938   6.138   2.156 -3.7837  0.0163  0.5242
 9631SOL    HW229793   5.981   6.282   2.222 -0.2590 -0.6331 -0.1219
 9632SOL     OW29794   1.536   5.796   3.301  1.0545  0.5380  0.6001
 9632SOL    HW129795   1.521   5.699   3.317 -1.0541  0.8574  0.9007
 9632SOL    HW229796   1.634   5.815   3.294  1.7108 -1.1227  3.6650
 9633SOL     OW29797   0.254   6.463   0.027  0.0393  0.5500 -0.2180
 9633SOL    HW129798   0.203   6.378   0.037  0.1528  0.5998  0.9176
 9633SOL    HW229799   0.338   6.446  -0.025 -0.1587  0.0652 -0.3810
 9634SOL     OW29800   2.094   4.629   5.652  0.1998  0.2706 -0.4202
 9634SOL    HW129801   2.102   4.634   5.752 -1.1773  0.7239 -0.3121
 9634SOL    HW229802   2.176   4.588   5.614  0.1809 -1.1884  1.0187
 9635SOL     OW29803   6.152   5.550   0.215 -0.4770  0.7018 -0.1542
 9635SOL    HW129804   6.155   5.505   0.125 -1.5988  1.6277 -0.6809
 9635SOL    HW229805   6.057   5.559   0.244 -0.1673  1.2007  0.7323
 9636SOL     OW29806   3.681   2.455   6.467  0.3513 -0.6875 -0.4216
 9636SOL    HW129807   3.717   2.524   6.406  0.4369  0.5339  0.9604
 9636SOL    HW229808   3.582   2.469   6.479  0.2976 -1.0447 -0.4216
 9637SOL     OW29809   1.920   0.893   0.438 -0.4501 -0.5566  0.0354
 9637SOL    HW129810   2.019   0.889   0.427 -0.4426  0.3307 -0.2714
 9637SOL    HW229811   1.883   0.800   0.447  0.6053 -0.8385  1.9784
 9638SOL     OW29812   0.446   0.669   7.004 -0.1757  0.0712 -0.1178
 9638SOL    HW129813   0.497   0.705   6.927  0.6770  2.4481  1.4622
 9638SOL    HW229814   0.451   0.732   7.081 -2.3428 -1.4212  1.3940
 9639SOL     OW29815   2.927   0.407   3.029  0.5349  0.2412  0.0905
 9639SOL    HW129816   2.863   0.483   3.043  0.6763  0.3328  0.2511
 9639SOL    HW229817   3.003   0.416   3.094 -0.1233 -0.7798  1.0477
 9640SOL     OW29818   3.299   1.153   3.579  0.4469  0.5360 -0.2767
 9640SOL    HW129819   3.333   1.083   3.517 -1.3645 -1.3258  0.7115
 9640SOL    HW229820   3.245   1.220   3.528  1.5259  0.8192 -1.1016
 9641SOL     OW29821   4.541   3.466   6.799 -0.4565  0.1270 -0.0577
 9641SOL    HW129822   4.634   3.499   6.815 -0.1750 -1.3622  1.7387
 9641SOL    HW229823   4.486   3.538   6.757  0.8979  1.8035  0.9412
 9642SOL     OW29824   2.619   6.889   2.839  0.4168 -0.0713  0.2939
 9642SOL    HW129825   2.574   6.823   2.779  0.2632 -1.9946  2.3710
 9642SOL    HW229826   2.710   6.855   2.865  1.5014  1.8748 -0.6993
 9643SOL     OW29827   3.101   5.890   4.259  0.3684  0.2391 -0.2784
 9643SOL    HW129828   3.141   5.977   4.285  1.4064 -0.5648  0.9285
 9643SOL    HW229829   3.159   5.845   4.191  1.6231 -0.9307  1.4802
 9644SOL     OW29830   2.998   0.406   0.681  0.0161  0.4344  0.1699
 9644SOL    HW129831   3.036   0.432   0.592 -1.3843 -0.2361 -0.6612
 9644SOL    HW229832   3.064   0.350   0.730  1.6919  2.5963  0.5241
 9645SOL     OW29833   2.972   6.383   0.196 -0.2713 -0.7736 -0.4406
 9645SOL    HW129834   2.983   6.317   0.270  2.4374 -0.8490 -0.8150
 9645SOL    HW229835   3.000   6.342   0.109 -1.3528 -0.0182 -1.1673
 9646SOL     OW29836   2.755   6.529   4.616  0.1157  0.3934 -0.1737
 9646SOL    HW129837   2.773   6.434   4.644 -1.7715  0.0774  0.1030
 9646SOL    HW229838   2.736   6.584   4.697 -0.2707  0.6654 -0.4499
 9647SOL     OW29839   0.682   3.815   5.318  0.3423  0.3911 -0.1175
 9647SOL    HW129840   0.720   3.866   5.241 -3.0186 -0.3269 -2.5079
 9647SOL    HW229841   0.717   3.722   5.317  1.0512  0.6492 -0.1369
 9648SOL     OW29842   5.957   4.072   0.775  0.3775 -0.2213  0.4214
 9648SOL    HW129843   5.969   4.067   0.874 -0.8383  0.7529  0.6476
 9648SOL    HW229844   5.906   4.155   0.752  0.0994 -0.7521 -0.9681
 9649SOL     OW29845   0.329   5.727   6.904 -0.1525 -0.5457  0.1847
 9649SOL    HW129846   0.297   5.719   6.998 -0.4073 -3.7729 -0.0405
 9649SOL    HW229847   0.419   5.770   6.903 -0.1575 -0.4350  1.9137
 9650SOL     OW29848   0.853   1.428   0.137 -0.4237  0.0562  0.1265
 9650SOL    HW129849   0.774   1.486   0.115 -0.4872  0.1292  0.5305
 9650SOL    HW229850   0.937   1.482   0.132 -0.3896 -0.0332 -0.3519
 9651SOL     OW29851   0.414   2.319   6.186 -0.3498 -0.6473  0.1017
 9651SOL    HW129852   0.397   2.398   6.127 -1.2801  0.5280  1.8626
 9651SOL    HW229853   0.506   2.283   6.168  0.2872  1.1312 -0.3943
 9652SOL     OW29854   2.063   3.808   0.164 -0.5903 -0.1335  0.0583
 9652SOL    HW129855   2.056   3.829   0.262  1.7065 -0.6160  0.3803
 9652SOL    HW229856   2.031   3.715   0.148 -0.7959 -0.1216  0.3824
 9653SOL     OW29857   5.858   6.834   6.002  0.7979 -0.6394  0.5119
 9653SOL    HW129858   5.882   6.766   5.932  0.5683 -0.3279  0.1277
 9653SOL    HW229859   5.839   6.922   5.958 -1.6570 -1.0162  0.7095
 9654SOL     OW29860   1.320   3.789   3.786 -0.2352 -0.5138 -0.5175
 9654SOL    HW129861   1.399   3.773   3.726 -0.0021  1.2776 -0.7225
 9654SOL    HW229862   1.352   3.826   3.874 -0.8763  0.9645 -0.8857
 9655SOL     OW29863   5.246   1.508   0.321  0.3929  0.8787 -0.3211
 9655SOL    HW129864   5.194   1.544   0.244 -2.4103 -0.0199  1.0018
 9655SOL    HW229865   5.257   1.579   0.391  1.5847  1.2504 -0.8586
 9656SOL     OW29866   3.567   1.954   1.999  0.1500 -0.2795 -0.0936
 9656SOL    HW129867   3.599   2.049   2.002 -0.9867  0.2226 -2.2864
 9656SOL    HW229868   3.642   1.893   2.025  0.9560  1.1631  1.1768
 9657SOL     OW29869   0.497   0.333   4.029  0.0060  0.2232 -0.3095
 9657SOL    HW129870   0.533   0.259   4.086  0.3702 -0.5390 -1.4992
 9657SOL    HW229871   0.537   0.327   3.937 -2.8228 -0.4433 -1.6064
 9658SOL     OW29872   6.078   0.961   1.389 -0.2137 -0.3848  0.2813
 9658SOL    HW129873   6.059   0.863   1.384  0.8118 -0.5234 -1.6834
 9658SOL    HW229874   6.010   1.011   1.337  0.1993 -0.1986 -0.0840
 9659SOL     OW29875   1.229   6.345   1.313 -0.4919  0.5502  0.3348
 9659SOL    HW129876   1.141   6.298   1.311 -0.5755  0.6973  0.5108
 9659SOL    HW229877   1.299   6.287   1.272 -0.2634 -0.3784  1.9813
 9660SOL     OW29878   0.632   4.384   0.954 -0.0334 -0.4839  0.3727
 9660SOL    HW129879   0.556   4.448   0.966  1.5201  1.7201 -0.7586
 9660SOL    HW229880   0.717   4.427   0.984  0.8437 -2.8192  1.4510
 9661SOL     OW29881   5.295   6.368   0.630 -0.0874 -0.3935  0.1507
 9661SOL    HW129882   5.220   6.316   0.671 -0.3997  0.4913  0.7269
 9661SOL    HW229883   5.378   6.311   0.629 -0.4660 -0.9674  0.6000
 9662SOL     OW29884   6.197   3.505   3.935 -0.8372 -0.2174  0.1617
 9662SOL    HW129885   6.153   3.504   3.846  1.3636  2.0607 -1.0993
 9662SOL    HW229886   6.199   3.599   3.970  1.1780 -0.5259  1.0512
 9663SOL     OW29887   3.174   6.643   3.980  0.2741 -0.0943 -0.7346
 9663SOL    HW129888   3.125   6.613   3.898  2.5866 -2.4775 -1.3914
 9663SOL    HW229889   3.252   6.699   3.955  0.3659  0.0972 -0.0515
 9664SOL     OW29890   2.843   5.812   6.468 -0.1205 -0.4412  0.1889
 9664SOL    HW129891   2.942   5.797   6.467  0.1079  0.4912 -3.0816
 9664SOL    HW229892   2.796   5.724   6.465  0.6116 -0.8605  0.5855
 9665SOL     OW29893   5.670   5.527   4.780 -0.2009  0.0383 -0.7189
 9665SOL    HW129894   5.739   5.580   4.730 -0.3665  0.6663 -0.2970
 9665SOL    HW229895   5.638   5.452   4.723 -0.8325  1.0953 -1.7991
 9666SOL     OW29896   5.630   4.632   5.820  0.0689 -0.4464 -0.2683
 9666SOL    HW129897   5.574   4.549   5.827 -0.0404 -0.2556  1.4532
 9666SOL    HW229898   5.574   4.706   5.783 -0.3640 -0.6812 -0.0935
 9667SOL     OW29899   3.808   4.023   3.547 -0.0754  0.3709 -0.0985
 9667SOL    HW129900   3.824   3.997   3.643  0.8347  0.7927 -0.1189
 9667SOL    HW229901   3.750   4.104   3.544 -1.2663 -0.4596  0.0376
 9668SOL     OW29902   1.360   0.985   4.799  0.5739  0.0613  0.4215
 9668SOL    HW129903   1.289   0.976   4.730  0.1685  2.0840  0.5236
 9668SOL    HW229904   1.450   0.981   4.756  0.3518 -0.0117 -0.0347
 9669SOL     OW29905   1.707   6.835   6.618 -0.0815  0.0029 -0.5714
 9669SOL    HW129906   1.622   6.784   6.602  0.0963 -0.7718  0.7591
 9669SOL    HW229907   1.731   6.887   6.536 -2.5909  1.3720 -0.5488
 9670SOL     OW29908   0.562   5.876   0.217 -0.5696  0.3426  0.9195
 9670SOL    HW129909   0.540   5.815   0.141 -1.2472 -1.5113  2.5157
 9670SOL    HW229910   0.568   5.970   0.184 -0.5072 -0.4342 -1.4578
 9671SOL     OW29911   5.200   0.945   6.895 -0.0193 -0.2381 -0.0586
 9671SOL    HW129912   5.276   0.983   6.842  1.8741 -2.6759  0.7602
 9671SOL    HW229913   5.234   0.875   6.958 -3.3111 -4.3399 -2.3224
 9672SOL     OW29914   2.064   4.907   5.516 -0.0005  0.6885 -0.0785
 9672SOL    HW129915   2.152   4.955   5.514  0.0529  0.6450  0.9518
 9672SOL    HW229916   2.069   4.831   5.580 -0.9602  1.0019  0.3849
 9673SOL     OW29917   3.039   0.403   1.154 -0.5643  1.0636 -0.4113
 9673SOL    HW129918   3.030   0.314   1.111 -0.5337  0.2230  1.2281
 9673SOL    HW229919   3.066   0.471   1.086 -0.9673 -0.0890 -1.7631
 9674SOL     OW29920   1.941   6.088   2.867 -0.0320  0.2587 -0.3243
 9674SOL    HW129921   1.868   6.149   2.836  0.3240  0.4589 -0.7762
 9674SOL    HW229922   1.974   6.119   2.956 -0.9513 -0.2276  0.2070
 9675SOL     OW29923   0.357   1.207   1.721  0.5173 -0.1586 -0.0958
 9675SOL    HW129924   0.323   1.168   1.636  2.1855 -1.7062 -0.1224
 9675SOL    HW229925   0.349   1.139   1.794  0.7601  0.5019  0.5627
 9676SOL     OW29926   6.482   4.579   3.907 -0.4115 -0.2805 -0.0597
 9676SOL    HW129927   6.548   4.564   3.833 -0.6435 -1.3402 -0.0697
 9676SOL    HW229928   6.531   4.591   3.993 -0.1641  0.3694 -0.2798
 9677SOL     OW29929   0.610   2.755   6.381  0.2382  0.1071  0.2358
 9677SOL    HW129930   0.677   2.722   6.447 -0.5019  0.9009  1.4212
 9677SOL    HW229931   0.520   2.759   6.424 -0.2128  0.9106 -0.7410
 9678SOL     OW29932   3.872   3.376   4.890 -0.1888  0.4694  0.1877
 9678SOL    HW129933   3.910   3.468   4.900 -0.5412  0.7705 -1.1255
 9678SOL    HW229934   3.930   3.311   4.940  1.3247  1.0952 -0.6846
 9679SOL     OW29935   0.703   5.221   0.683  0.8404 -0.2144  0.3584
 9679SOL    HW129936   0.700   5.159   0.761  0.5397  0.2975  0.7575
 9679SOL    HW229937   0.690   5.169   0.598  0.3748 -0.6670  0.7029
 9680SOL     OW29938   6.444   5.267   0.559 -0.5650  0.3898  0.1778
 9680SOL    HW129939   6.466   5.177   0.596 -0.2618  1.0378  1.6009
 9680SOL    HW229940   6.369   5.307   0.611 -1.5405  0.4720 -1.2254
 9681SOL     OW29941   6.502   0.780   5.281  0.7724  0.4171  0.4894
 9681SOL    HW129942   6.406   0.768   5.257  1.3601 -2.1056 -0.9780
 9681SOL    HW229943   6.558   0.715   5.229  3.1666  1.0596  2.0834
 9682SOL     OW29944   0.809   5.237   1.864  0.4940  0.9440  0.3694
 9682SOL    HW129945   0.769   5.146   1.874 -0.7119  1.4520  0.3641
 9682SOL    HW229946   0.738   5.301   1.833  1.1720  2.0128  0.9670
 9683SOL     OW29947   6.050   5.798   3.829 -0.0230 -0.3754  0.4698
 9683SOL    HW129948   6.029   5.742   3.908 -2.5482  0.5339  0.5443
 9683SOL    HW229949   6.027   5.893   3.849  3.3248  0.6609  0.0539
 9684SOL     OW29950   1.647   6.695   1.678  0.5218 -0.4290  0.2796
 9684SOL    HW129951   1.697   6.721   1.595 -1.4939 -0.9662 -1.1720
 9684SOL    HW229952   1.707   6.644   1.738  1.8037 -0.8401 -1.2742
 9685SOL     OW29953   2.288   1.032   6.342 -0.3778 -0.0619  0.1250
 9685SOL    HW129954   2.302   1.045   6.440  1.0234 -0.2149 -0.0441
 9685SOL    HW229955   2.274   0.935   6.323  0.9467 -0.2411 -0.0011
 9686SOL     OW29956   6.832   2.600   2.108 -0.4304 -0.4153  0.5895
 9686SOL    HW129957   6.787   2.518   2.072 -1.2807 -0.1811  1.0716
 9686SOL    HW229958   6.776   2.639   2.182 -0.0277  0.5694  0.3988
 9687SOL     OW29959   2.011   1.548   2.412  0.1743 -1.0210  0.1300
 9687SOL    HW129960   1.954   1.594   2.345 -2.0474  0.2102  2.6628
 9687SOL    HW229961   1.988   1.451   2.415 -1.1204 -0.7330  0.3686
 9688SOL     OW29962   5.282   1.865   5.374  0.1508  0.2175 -0.1026
 9688SOL    HW129963   5.368   1.815   5.364  0.1556  0.4397 -1.3829
 9688SOL    HW229964   5.290   1.930   5.450  0.5960 -0.7723  0.7198
 9689SOL     OW29965   2.751   5.014   0.393 -0.2140 -0.6264 -0.0045
 9689SOL    HW129966   2.680   5.079   0.422 -0.6704 -2.2425  3.0015
 9689SOL    HW229967   2.708   4.927   0.369  0.5262 -0.4540 -2.0799
 9690SOL     OW29968   5.538   3.783   6.686  0.0800 -0.1463  0.2859
 9690SOL    HW129969   5.481   3.702   6.674  0.1747 -0.1319 -0.2936
 9690SOL    HW229970   5.509   3.833   6.768 -1.4698  0.4589 -0.5881
 9691SOL     OW29971   1.238   2.709   6.621  0.4086 -0.3353 -0.7692
 9691SOL    HW129972   1.298   2.715   6.541  0.7005  1.3642 -0.4599
 9691SOL    HW229973   1.281   2.756   6.698 -0.8137 -0.1091 -0.2084
 9692SOL     OW29974   3.609   5.739   1.373  0.5528 -0.0588 -0.5306
 9692SOL    HW129975   3.701   5.744   1.413  0.4209  0.0930 -0.2399
 9692SOL    HW229976   3.588   5.826   1.328  0.1944  0.2484  0.2079
 9693SOL     OW29977   0.792   6.521   1.791 -0.1077  0.5228 -0.2216
 9693SOL    HW129978   0.804   6.457   1.867  0.5909  0.7721 -0.1088
 9693SOL    HW229979   0.697   6.552   1.787 -0.3952 -0.3371 -0.1348
 9694SOL     OW29980   0.925   1.668   6.381 -0.0022 -0.3522  0.1864
 9694SOL    HW129981   0.894   1.758   6.414  0.9454  0.1304 -0.2004
 9694SOL    HW229982   1.016   1.677   6.341 -0.5013 -1.2060 -1.1924
 9695SOL     OW29983   4.490   6.076   2.043  0.0267  0.1295  0.2042
 9695SOL    HW129984   4.390   6.071   2.037  0.0971  0.2944 -1.3796
 9695SOL    HW229985   4.528   6.102   1.954  1.3726  2.0741  1.2728
 9696SOL     OW29986   6.324   5.117   1.500  0.3378 -0.1517 -0.3131
 9696SOL    HW129987   6.231   5.108   1.534  0.6987  0.5965  0.9478
 9696SOL    HW229988   6.374   5.184   1.556  1.8363 -1.0549 -0.5176
 9697SOL     OW29989   0.547   5.212   6.692  0.4753 -0.4236 -0.4858
 9697SOL    HW129990   0.616   5.185   6.625 -0.4596 -0.3616 -1.4909
 9697SOL    HW229991   0.538   5.312   6.693  0.2166 -0.4446 -0.5562
 9698SOL     OW29992   3.911   1.618   4.934 -0.1931 -0.5158  0.3851
 9698SOL    HW129993   3.981   1.630   4.863 -1.2915  2.7441 -0.3198
 9698SOL    HW229994   3.848   1.695   4.932 -0.4792 -0.4005  4.7504
 9699SOL     OW29995   0.482   2.168   0.019  0.0636 -0.0387  0.6094
 9699SOL    HW129996   0.505   2.249  -0.035 -1.0617 -0.3680 -0.4129
 9699SOL    HW229997   0.481   2.192   0.116 -0.0545  1.1263  0.3352
 9700SOL     OW29998   3.503   3.003   4.030 -0.4231  0.2832  0.3177
 9700SOL    HW129999   3.561   2.965   3.958 -0.2690 -1.1612  1.1565
 9700SOL    HW230000   3.557   3.014   4.114 -0.9289  0.6399  0.6046
 9701SOL     OW30001   3.996   5.506   4.785 -0.4452 -0.7531  0.2745
 9701SOL    HW130002   4.063   5.571   4.748 -0.6274 -0.6347  0.1488
 9701SOL    HW230003   3.982   5.524   4.882 -2.2887  0.9991 -0.2388
 9702SOL     OW30004   5.848   6.720   4.929 -0.7001 -0.2688  0.0549
 9702SOL    HW130005   5.775   6.653   4.944 -0.6484 -0.0280  1.5094
 9702SOL    HW230006   5.912   6.717   5.005  0.2899  0.2146 -0.7297
 9703SOL     OW30007   2.212   4.389   4.004  0.2489  0.1104 -0.1996
 9703SOL    HW130008   2.230   4.366   4.100  1.9261  0.9841 -0.2810
 9703SOL    HW230009   2.242   4.314   3.945 -0.9755 -0.5188 -0.0675
 9704SOL     OW30010   2.269   1.510   5.672  0.7686 -0.0695  0.0607
 9704SOL    HW130011   2.246   1.418   5.640  0.5814  0.4744 -1.4454
 9704SOL    HW230012   2.190   1.551   5.717  1.1944 -1.0483  1.7647
 9705SOL     OW30013   2.800   4.442   6.773 -0.0575  0.4062 -0.1751
 9705SOL    HW130014   2.759   4.483   6.855 -0.6936  2.3007 -1.3892
 9705SOL    HW230015   2.729   4.421   6.707  0.5552 -0.0816 -0.6917
 9706SOL     OW30016   6.558   4.216   3.417  0.3509 -0.1723 -0.2333
 9706SOL    HW130017   6.585   4.277   3.343 -2.4074  0.7441 -0.6092
 9706SOL    HW230018   6.471   4.172   3.394 -0.0654 -0.6597  2.0189
 9707SOL     OW30019   2.564   5.264   1.325  0.3250  0.8409  0.4135
 9707SOL    HW130020   2.590   5.270   1.229  1.8695  0.1180  0.7540
 9707SOL    HW230021   2.614   5.333   1.378  1.3935 -0.3826  1.0466
 9708SOL     OW30022   1.514   2.058   2.215 -0.0953  0.0876  0.3216
 9708SOL    HW130023   1.530   1.971   2.261  1.2702 -0.8373 -1.7940
 9708SOL    HW230024   1.456   2.044   2.135  0.2457  1.0911 -0.1243
 9709SOL     OW30025   2.319   1.148   3.524 -0.0380 -0.0923 -0.1988
 9709SOL    HW130026   2.240   1.191   3.479 -0.1376 -0.5963 -0.5176
 9709SOL    HW230027   2.341   1.198   3.608 -0.4354  0.3028 -0.3246
 9710SOL     OW30028   2.055   6.490   5.013 -0.4682 -0.7212 -0.1953
 9710SOL    HW130029   1.977   6.514   5.071 -0.9850 -0.3130 -1.0350
 9710SOL    HW230030   2.077   6.568   4.954  1.2088 -0.4795  0.7128
 9711SOL     OW30031   1.675   3.007   6.009 -0.1524  0.0389 -0.5428
 9711SOL    HW130032   1.715   2.973   5.924 -2.9206 -3.1589 -0.8064
 9711SOL    HW230033   1.729   2.975   6.087  1.4668  1.5854 -0.9754
 9712SOL     OW30034   5.356   3.627   4.322 -0.1109  0.2122 -0.1645
 9712SOL    HW130035   5.452   3.641   4.298 -0.4745  0.6334 -1.4760
 9712SOL    HW230036   5.299   3.639   4.240 -1.2909  0.0299  0.6012
 9713SOL     OW30037   0.622   6.453   3.009 -0.1302 -0.4161 -0.2912
 9713SOL    HW130038   0.703   6.401   3.035  0.1341  1.0471  2.1334
 9713SOL    HW230039   0.549   6.391   2.981  1.0030 -1.8940 -0.0724
 9714SOL     OW30040   2.097   2.547   0.902  0.2371  0.0501 -0.2107
 9714SOL    HW130041   2.048   2.477   0.850  1.1535 -1.1512  0.5090
 9714SOL    HW230042   2.130   2.509   0.987  0.4342  1.4841  0.3838
 9715SOL     OW30043   4.867   6.879   6.507  0.3812 -0.0193  0.1057
 9715SOL    HW130044   4.807   6.847   6.581  1.5403 -0.5638  0.8410
 9715SOL    HW230045   4.830   6.850   6.419  0.3148 -1.6356  0.6355
 9716SOL     OW30046   3.307   1.370   5.744  0.1990  0.0335 -0.1509
 9716SOL    HW130047   3.236   1.439   5.734 -1.1580 -1.5095 -1.7284
 9716SOL    HW230048   3.265   1.279   5.751  1.9469 -1.1940 -3.3435
 9717SOL     OW30049   5.894   5.254   3.460  0.1866 -0.1814 -0.2295
 9717SOL    HW130050   5.900   5.167   3.412  1.5444 -0.7150  0.8576
 9717SOL    HW230051   5.981   5.302   3.452  0.6809 -0.5814  2.1861
 9718SOL     OW30052   6.078   2.019   2.412  0.0426 -0.3256  0.6650
 9718SOL    HW130053   6.135   2.098   2.432  0.7767 -0.8553  0.7154
 9718SOL    HW230054   6.131   1.953   2.358 -0.3007 -1.1191  1.2815
 9719SOL     OW30055   0.278   1.289   0.139  0.0383 -0.1868  0.0831
 9719SOL    HW130056   0.373   1.267   0.162  0.4739  0.4459 -0.9881
 9719SOL    HW230057   0.218   1.214   0.167  0.6472  0.0223  2.0952
 9720SOL     OW30058   5.431   1.011   0.366  0.0513  0.2365  0.0794
 9720SOL    HW130059   5.374   1.078   0.317  0.4309  0.3935 -0.1502
 9720SOL    HW230060   5.486   1.059   0.435  0.8641  0.2744 -0.5752
 9721SOL     OW30061   0.596   2.532   3.263 -0.3361 -0.2646 -0.4205
 9721SOL    HW130062   0.614   2.501   3.170  0.1284 -1.4343  0.0377
 9721SOL    HW230063   0.679   2.567   3.304 -0.6261  0.6099 -0.5692
 9722SOL     OW30064   6.030   6.967   4.136  0.6931  0.0796  0.6661
 9722SOL    HW130065   6.022   6.868   4.144 -0.6056 -0.2935 -3.0738
 9722SOL    HW230066   5.945   7.011   4.166  0.7446 -0.0490  1.0014
 9723SOL     OW30067   4.806   0.841   3.695  0.3001  0.6443  0.0061
 9723SOL    HW130068   4.746   0.903   3.644  1.6990 -0.0403 -2.6669
 9723SOL    HW230069   4.751   0.780   3.752 -1.2340  2.5899  0.7306
 9724SOL     OW30070   2.648   1.286   0.489  0.2491  1.0161  0.5078
 9724SOL    HW130071   2.646   1.308   0.586  1.5292  1.4261  0.4558
 9724SOL    HW230072   2.703   1.354   0.440  1.0604 -0.1378 -0.2387
 9725SOL     OW30073   3.975   3.023   5.691 -0.0290  0.1291 -0.2611
 9725SOL    HW130074   4.031   3.060   5.765  0.7568 -1.2145 -0.1602
 9725SOL    HW230075   3.879   3.049   5.706  0.1225 -0.0694  1.2167
 9726SOL     OW30076   4.702   5.909   4.828  0.0987 -0.0575 -0.1663
 9726SOL    HW130077   4.675   5.821   4.866  1.4404 -0.5418 -0.2624
 9726SOL    HW230078   4.664   5.919   4.736 -0.4801 -0.3019  0.0430
 9727SOL     OW30079   1.433   1.072   5.804 -0.3725  0.3512 -0.0828
 9727SOL    HW130080   1.384   1.106   5.885 -0.2387  0.3322  0.0057
 9727SOL    HW230081   1.491   1.145   5.768  0.5785 -0.0333  0.6152
 9728SOL     OW30082   3.603   5.883   6.453 -0.2914 -0.5966 -0.0982
 9728SOL    HW130083   3.586   5.836   6.540  0.9422  0.0598  0.5193
 9728SOL    HW230084   3.589   5.981   6.465  0.3357 -0.4512 -0.5201
 9729SOL     OW30085   2.058   5.866   0.583  0.3345  0.4859  0.8285
 9729SOL    HW130086   2.016   5.808   0.653  0.5659  1.2203  1.5809
 9729SOL    HW230087   2.156   5.846   0.577  0.4417  0.9054  1.1924
 9730SOL     OW30088   5.017   2.363   2.399 -0.2019  0.6354  0.2804
 9730SOL    HW130089   4.976   2.454   2.408 -0.0017  0.7417  0.1249
 9730SOL    HW230090   5.107   2.371   2.356  0.3824  0.4973  1.4489
 9731SOL     OW30091   6.087   5.635   6.402 -0.1661 -0.1190 -0.2751
 9731SOL    HW130092   6.110   5.595   6.314  0.2958  0.0359 -0.2260
 9731SOL    HW230093   5.996   5.676   6.398 -0.5348 -0.9252 -0.4076
 9732SOL     OW30094   6.100   0.697   4.799 -0.4159  0.3969  0.2256
 9732SOL    HW130095   6.011   0.673   4.838  0.2740 -1.1464  0.9163
 9732SOL    HW230096   6.094   0.695   4.699 -1.2366  0.6580  0.2634
 9733SOL     OW30097   5.833   4.717   5.461  0.1728 -0.0047 -0.2873
 9733SOL    HW130098   5.843   4.672   5.550  1.6931  1.7286  0.4664
 9733SOL    HW230099   5.840   4.648   5.388 -0.0315 -1.2987  0.8801
 9734SOL     OW30100   6.371   1.165   6.162  0.3504 -0.8688  0.3399
 9734SOL    HW130101   6.428   1.107   6.220  0.3041 -2.1901 -0.8785
 9734SOL    HW230102   6.425   1.241   6.127  0.6394 -0.6310  1.2706
 9735SOL     OW30103   5.115   4.709   0.644  0.9663  0.7898 -0.2065
 9735SOL    HW130104   5.212   4.686   0.637  0.2615 -1.8812 -3.1108
 9735SOL    HW230105   5.091   4.724   0.741  3.9734  0.3763  0.6898
 9736SOL     OW30106   3.397   1.542   1.016  0.6449 -0.4874 -0.0995
 9736SOL    HW130107   3.302   1.510   1.022  0.4140  0.4611  3.0864
 9736SOL    HW230108   3.404   1.611   0.944 -1.2169 -0.2158 -0.0718
 9737SOL     OW30109   5.058   1.381   4.854  0.2119  0.1417 -0.6568
 9737SOL    HW130110   5.152   1.377   4.887  0.2778 -1.2367 -0.9726
 9737SOL    HW230111   5.056   1.374   4.755 -0.2887 -1.4994 -0.5578
 9738SOL     OW30112   3.769   6.523   0.135 -0.0956 -0.3581  0.1952
 9738SOL    HW130113   3.770   6.551   0.039 -0.9671  0.0011  0.2813
 9738SOL    HW230114   3.814   6.593   0.191 -2.4581  1.0983  0.4393
 9739SOL     OW30115   5.687   2.187   1.541  0.2149 -0.3715 -0.0382
 9739SOL    HW130116   5.752   2.174   1.465 -1.4738 -1.3897 -1.3977
 9739SOL    HW230117   5.737   2.217   1.622  2.1707  0.3226 -1.4038
 9740SOL     OW30118   6.704   5.551   0.729  0.3183  0.0561  0.0424
 9740SOL    HW130119   6.624   5.547   0.789 -0.0702 -1.0076 -0.5193
 9740SOL    HW230120   6.678   5.590   0.641  0.5625  0.2830  0.0685
 9741SOL     OW30121   3.080   5.684   3.464 -0.2314  0.2511 -0.2102
 9741SOL    HW130122   3.070   5.692   3.364 -1.5361  0.9562 -0.0416
 9741SOL    HW230123   3.101   5.774   3.502  1.3994 -0.2072  0.0686
 9742SOL     OW30124   3.816   0.711   2.658 -0.2852  0.1849  0.1418
 9742SOL    HW130125   3.832   0.744   2.751  0.1660 -1.8699  0.8622
 9742SOL    HW230126   3.875   0.760   2.594  1.3869 -0.1862  1.3265
 9743SOL     OW30127   1.554   0.275   4.744  0.7432 -0.4029 -0.8733
 9743SOL    HW130128   1.474   0.221   4.719  1.0836 -1.1264 -0.4275
 9743SOL    HW230129   1.634   0.241   4.695  1.2872 -1.4126  0.6701
 9744SOL     OW30130   2.746   1.072   2.382  0.3372 -0.0633  0.1624
 9744SOL    HW130131   2.780   1.132   2.309 -0.7158  0.4823  0.1007
 9744SOL    HW230132   2.810   0.997   2.395  0.3687 -0.3996 -1.6162
 9745SOL     OW30133   6.708   0.461   3.647  0.6281  0.2639 -0.2663
 9745SOL    HW130134   6.760   0.547   3.649  0.4934  0.3571 -0.6711
 9745SOL    HW230135   6.706   0.426   3.554 -0.4764  0.5358 -0.3585
 9746SOL     OW30136   5.328   6.773   4.759  0.7815  0.2208  0.0630
 9746SOL    HW130137   5.341   6.690   4.815 -1.8925  0.4129  1.1013
 9746SOL    HW230138   5.398   6.776   4.688  3.3176 -0.9103  2.3404
 9747SOL     OW30139   6.944   0.365   4.668 -0.1271  0.2475  0.4340
 9747SOL    HW130140   6.890   0.356   4.585 -2.7896 -0.9172  2.1383
 9747SOL    HW230141   6.935   0.458   4.704 -0.9298  0.1041  0.6250
 9748SOL     OW30142   3.241   5.341   3.826  0.2303 -0.3972 -0.0323
 9748SOL    HW130143   3.305   5.321   3.752  0.6251 -0.2616  0.2690
 9748SOL    HW230144   3.228   5.440   3.832  0.5888 -0.3750  0.4026
 9749SOL     OW30145   1.818   4.564   3.875 -0.0417 -0.0938  0.1741
 9749SOL    HW130146   1.835   4.518   3.962  0.2535 -1.7510 -0.7190
 9749SOL    HW230147   1.845   4.504   3.800 -2.4588  0.3452 -1.1381
 9750SOL     OW30148   3.366   5.523   2.551  0.5651 -0.2401  0.5562
 9750SOL    HW130149   3.313   5.438   2.556 -0.4911  0.2858 -0.9921
 9750SOL    HW230150   3.343   5.572   2.467 -1.1715  3.0845  2.7208
 9751SOL     OW30151   3.501   0.953   1.579  0.1244  0.1106 -0.6951
 9751SOL    HW130152   3.512   0.873   1.637 -0.7426 -0.6677 -1.5651
 9751SOL    HW230153   3.461   1.028   1.633 -2.2770 -1.1311 -0.6380
 9752SOL     OW30154   1.925   0.971   5.405  0.4058 -0.2548 -0.0448
 9752SOL    HW130155   1.847   0.919   5.371  0.4674 -0.3093 -0.1019
 9752SOL    HW230156   1.998   0.909   5.432  0.2780 -0.2202  0.3875
 9753SOL     OW30157   0.533   6.630   5.675 -0.0279 -0.3513 -0.2713
 9753SOL    HW130158   0.523   6.634   5.775  0.8798  2.6795 -0.1933
 9753SOL    HW230159   0.483   6.706   5.633  3.2878  1.2563 -1.6658
 9754SOL     OW30160   1.329   4.359   0.849 -0.3682 -0.3716 -0.3086
 9754SOL    HW130161   1.360   4.351   0.944  1.7677  0.7916 -0.8416
 9754SOL    HW230162   1.313   4.268   0.811  0.8468 -0.9697  0.5433
 9755SOL     OW30163   4.753   5.683   6.002  0.3770  0.1649  0.2340
 9755SOL    HW130164   4.785   5.610   5.942  0.0966 -0.8967  1.3154
 9755SOL    HW230165   4.819   5.758   6.004  0.3160  0.2824 -1.4751
 9756SOL     OW30166   2.512   2.903   0.313 -0.3924  0.1004 -0.8964
 9756SOL    HW130167   2.478   2.993   0.287 -1.8327  0.4751  1.9654
 9756SOL    HW230168   2.436   2.843   0.339  0.6671 -1.3112 -0.8584
 9757SOL     OW30169   5.209   5.769   5.193  0.3297  0.6199 -0.3210
 9757SOL    HW130170   5.282   5.713   5.232 -0.2950  0.3831  0.5118
 9757SOL    HW230171   5.245   5.818   5.113  1.1316 -0.2344 -0.5004
 9758SOL     OW30172   5.205   6.318   6.327  0.3441  0.5793 -0.1422
 9758SOL    HW130173   5.232   6.252   6.398  4.1295  2.5969  0.5593
 9758SOL    HW230174   5.252   6.297   6.242 -1.2983  0.3440 -1.0358
 9759SOL     OW30175   1.976   6.062   3.381  0.0887 -0.3011 -0.3515
 9759SOL    HW130176   1.953   6.073   3.478  0.0960 -2.5214 -0.0393
 9759SOL    HW230177   2.074   6.045   3.372 -0.0338 -0.8532 -0.6631
 9760SOL     OW30178   4.173   4.030   5.343 -0.3121  0.3947 -0.1994
 9760SOL    HW130179   4.083   3.995   5.367 -0.8094  0.5053 -1.8164
 9760SOL    HW230180   4.165   4.123   5.307  0.7086  1.2453  1.6160
 9761SOL     OW30181   5.925   6.139   4.256  0.4656  0.3750  0.3226
 9761SOL    HW130182   5.938   6.051   4.303 -1.6724  0.1064  0.5392
 9761SOL    HW230183   5.963   6.212   4.312 -0.9336 -0.0677  1.9613
 9762SOL     OW30184   4.601   2.144   0.757 -0.4214  0.2458  0.2588
 9762SOL    HW130185   4.626   2.048   0.767  0.0833 -0.1377 -3.1582
 9762SOL    HW230186   4.683   2.197   0.733 -0.9675  1.2363  0.5268
 9763SOL     OW30187   0.917   4.284   2.395 -0.1870 -0.2000 -0.3579
 9763SOL    HW130188   0.833   4.336   2.382 -0.0541 -0.4987 -2.7520
 9763SOL    HW230189   0.903   4.189   2.367  1.2023 -0.0051 -1.8692
 9764SOL     OW30190   2.431   2.494   4.503 -0.0622 -0.3197 -0.0981
 9764SOL    HW130191   2.462   2.479   4.597 -0.4513 -1.0348 -0.0726
 9764SOL    HW230192   2.494   2.449   4.440 -0.9771 -1.7349 -0.0480
 9765SOL     OW30193   1.102   3.077   4.379  0.2471 -0.5066  0.3997
 9765SOL    HW130194   1.125   3.165   4.336  0.4296 -1.4760 -1.6176
 9765SOL    HW230195   1.106   3.005   4.310  1.0150 -2.2625  2.1934
 9766SOL     OW30196   3.233   6.654   2.766 -0.0900  0.0058  0.0607
 9766SOL    HW130197   3.203   6.561   2.787 -0.4950  0.0429 -0.3219
 9766SOL    HW230198   3.300   6.651   2.692 -1.0126  0.0961 -0.8003
 9767SOL     OW30199   1.090   1.643   3.505 -0.1654  0.2154 -0.4409
 9767SOL    HW130200   1.141   1.730   3.507  0.0869  0.0462  1.3281
 9767SOL    HW230201   1.096   1.604   3.413  0.8628  1.3948 -0.9052
 9768SOL     OW30202   6.095   1.717   4.218 -0.5676 -0.3943 -0.0545
 9768SOL    HW130203   6.051   1.670   4.141 -1.6739  0.3705  0.0744
 9768SOL    HW230204   6.194   1.707   4.211 -0.6892 -1.1154 -1.0674
 9769SOL     OW30205   6.054   3.224   1.348  0.4884  0.2805 -0.2086
 9769SOL    HW130206   6.068   3.223   1.249  0.3710 -1.9017 -0.2371
 9769SOL    HW230207   5.966   3.266   1.369  0.0107 -0.2513 -1.1157
 9770SOL     OW30208   5.167   2.509   6.248 -0.3336 -0.2752 -0.7941
 9770SOL    HW130209   5.084   2.523   6.302  0.2723 -0.7165  0.2956
 9770SOL    HW230210   5.157   2.553   6.159 -1.4113  0.3918 -0.3675
 9771SOL     OW30211   1.593   1.057   4.676  0.0521 -0.5920 -0.2255
 9771SOL    HW130212   1.665   1.033   4.610 -0.5607  1.0168 -1.5335
 9771SOL    HW230213   1.632   1.062   4.767  1.3500 -0.8750 -0.7430
 9772SOL     OW30214   5.329   5.793   6.665 -0.6978 -0.4130 -0.3918
 9772SOL    HW130215   5.385   5.802   6.583 -1.3266 -1.9803 -1.0414
 9772SOL    HW230216   5.354   5.709   6.713 -0.9602  0.0254  0.5200
 9773SOL     OW30217   5.101   4.429   4.805 -0.0255  0.1578 -0.5594
 9773SOL    HW130218   5.053   4.344   4.824 -0.8954  0.9229  0.8194
 9773SOL    HW230219   5.089   4.453   4.709 -1.3488 -0.3122 -0.5260
 9774SOL     OW30220   0.729   0.355   5.487  0.0846 -0.0481 -0.0588
 9774SOL    HW130221   0.720   0.360   5.587 -1.5499 -2.1931 -0.0412
 9774SOL    HW230222   0.794   0.282   5.464  1.1136  1.0077 -0.5882
 9775SOL     OW30223   0.823   2.287   3.270 -0.2210 -0.4608  0.1903
 9775SOL    HW130224   0.868   2.359   3.217  1.3080 -2.1096 -0.8804
 9775SOL    HW230225   0.888   2.251   3.337 -0.1160 -2.3856 -0.8691
 9776SOL     OW30226   0.867   4.603   2.954  0.1133  0.0394 -0.0917
 9776SOL    HW130227   0.944   4.565   2.903 -0.0955 -1.0961  0.4041
 9776SOL    HW230228   0.896   4.628   3.046 -0.5121 -2.2611  0.7819
 9777SOL     OW30229   4.537   5.704   6.374  0.2092 -0.1186  0.3731
 9777SOL    HW130230   4.606   5.765   6.411 -0.7120 -0.4599  2.8420
 9777SOL    HW230231   4.543   5.615   6.419 -1.6834 -0.2044  0.5557
 9778SOL     OW30232   1.563   1.379   5.951  0.0285 -0.1313  0.1050
 9778SOL    HW130233   1.586   1.333   6.037  0.0393 -0.0713  0.1345
 9778SOL    HW230234   1.590   1.322   5.874  0.2675 -0.0671  0.1392
 9779SOL     OW30235   2.567   2.289   0.266  0.3259  0.1936  0.4387
 9779SOL    HW130236   2.538   2.384   0.253  0.4473 -0.0069 -1.5177
 9779SOL    HW230237   2.648   2.287   0.325  0.9130  1.3864 -0.2984
 9780SOL     OW30238   1.994   2.922   0.144  0.0507  0.3151  0.0765
 9780SOL    HW130239   1.972   2.827   0.163 -0.7140  0.5728  0.5612
 9780SOL    HW230240   1.912   2.978   0.158  0.3936  0.9936 -0.5611
 9781SOL     OW30241   0.348   0.542   4.164  0.5460  0.3635 -0.2585
 9781SOL    HW130242   0.285   0.510   4.234  2.5194  0.2575  1.5601
 9781SOL    HW230243   0.397   0.464   4.126  0.2246  0.5340 -1.0461
 9782SOL     OW30244   6.215   0.375   1.697  0.6512 -0.0862 -0.5070
 9782SOL    HW130245   6.237   0.279   1.713 -1.5915 -0.7077 -0.8016
 9782SOL    HW230246   6.216   0.425   1.783  0.4181 -0.7144 -0.1352
 9783SOL     OW30247   4.733   0.304   4.351 -0.6722  0.0984  0.1265
 9783SOL    HW130248   4.662   0.301   4.421 -0.6286 -2.4735  0.1743
 9783SOL    HW230249   4.800   0.374   4.374 -0.2291 -1.1388  3.1629
 9784SOL     OW30250   5.642   1.117   5.376 -0.0080  0.2431 -0.5043
 9784SOL    HW130251   5.689   1.203   5.357  0.7225 -0.0233  0.0316
 9784SOL    HW230252   5.612   1.116   5.472  0.3189 -0.2459 -0.4028
 9785SOL     OW30253   0.284   2.065   3.343 -0.0685 -0.3048  0.2694
 9785SOL    HW130254   0.204   2.125   3.342 -0.0113 -0.2354 -0.0956
 9785SOL    HW230255   0.267   1.988   3.404 -0.2542 -0.0695  0.5156
 9786SOL     OW30256   6.582   6.381   3.859 -0.2430 -0.0892  0.3639
 9786SOL    HW130257   6.559   6.439   3.936  0.4794  1.2266 -0.3838
 9786SOL    HW230258   6.498   6.354   3.811 -0.5327  1.1927  0.1251
 9787SOL     OW30259   5.973   4.735   2.765  0.5049  0.2971  0.4779
 9787SOL    HW130260   5.936   4.806   2.825 -0.4156  0.0475  0.2246
 9787SOL    HW230261   6.010   4.778   2.682  0.8796  0.5563  0.7715
 9788SOL     OW30262   1.155   0.555   0.093 -0.2303 -0.0642 -0.2592
 9788SOL    HW130263   1.063   0.589   0.113 -0.4834  0.5789 -2.2831
 9788SOL    HW230264   1.222   0.626   0.115 -0.4442  0.3824 -1.0112
 9789SOL     OW30265   1.159   2.900   5.865 -0.2737 -0.2974 -0.2817
 9789SOL    HW130266   1.094   2.836   5.907 -0.0898 -1.6646 -1.9834
 9789SOL    HW230267   1.202   2.955   5.937 -2.8589  0.2883  0.9538
 9790SOL     OW30268   5.772   3.334   2.613  0.4146  0.1510 -0.2563
 9790SOL    HW130269   5.745   3.281   2.694  1.3908 -1.6903 -1.0661
 9790SOL    HW230270   5.811   3.421   2.642  1.4576 -0.7772  1.3120
 9791SOL     OW30271   0.939   6.723   6.681  0.1663 -0.2521 -0.7292
 9791SOL    HW130272   0.905   6.672   6.760  0.1537 -0.5273 -0.9148
 9791SOL    HW230273   0.990   6.662   6.620  0.8316  0.1156 -0.5497
 9792SOL     OW30274   5.770   5.316   1.479  0.0463 -0.1028  0.3499
 9792SOL    HW130275   5.740   5.308   1.574 -0.6076 -0.3111  0.1307
 9792SOL    HW230276   5.837   5.391   1.472  2.5762 -2.0785  1.5443
 9793SOL     OW30277   5.300   5.747   2.024  0.6073  0.3727 -0.7526
 9793SOL    HW130278   5.205   5.777   2.015  0.7208  1.1302  0.3641
 9793SOL    HW230279   5.321   5.730   2.120  0.5480 -3.4552 -1.2396
 9794SOL     OW30280   6.465   4.612   0.878  0.6697 -0.8119  0.2349
 9794SOL    HW130281   6.486   4.527   0.830  0.3058 -1.0777  0.5402
 9794SOL    HW230282   6.384   4.599   0.935  1.5765 -0.7635  1.5695
 9795SOL     OW30283   2.591   4.595   0.814  0.4034  0.0115  0.0515
 9795SOL    HW130284   2.636   4.505   0.811 -0.4158 -0.3937 -0.3878
 9795SOL    HW230285   2.534   4.601   0.896  3.8150  1.8218  2.5272
 9796SOL     OW30286   4.770   6.762   6.242  0.1693  0.3313 -0.4784
 9796SOL    HW130287   4.768   6.667   6.273  4.3822 -0.9511 -3.2612
 9796SOL    HW230288   4.719   6.771   6.157 -0.5545  0.6898 -0.0137
 9797SOL     OW30289   4.834   3.054   2.885 -0.0213  0.3649 -0.2666
 9797SOL    HW130290   4.894   3.118   2.836 -0.0411  0.1651 -0.5615
 9797SOL    HW230291   4.819   3.086   2.978  0.9775  0.1508 -0.0132
 9798SOL     OW30292   1.387   0.795   2.219 -0.1600  0.3055  0.4050
 9798SOL    HW130293   1.313   0.856   2.250 -1.2512 -0.6397 -0.2537
 9798SOL    HW230294   1.365   0.762   2.127  0.9372 -0.2641  0.3395
 9799SOL     OW30295   3.384   3.698   2.852  0.2171 -0.1688 -0.5425
 9799SOL    HW130296   3.305   3.657   2.896  0.8319  0.2951  1.0904
 9799SOL    HW230297   3.360   3.789   2.817  0.4970  0.9228  1.8931
 9800SOL     OW30298   4.339   6.044   0.884 -0.8717  0.1888 -0.0410
 9800SOL    HW130299   4.281   5.963   0.878  0.0530 -0.3750 -2.3113
 9800SOL    HW230300   4.361   6.076   0.792 -0.8838  2.8213  0.7821
 9801SOL     OW30301   5.423   6.370   2.325 -0.0306  0.6332  0.2397
 9801SOL    HW130302   5.413   6.280   2.282  0.1729  1.1103 -0.8541
 9801SOL    HW230303   5.495   6.421   2.279 -0.2616  1.4214  0.7336
 9802SOL     OW30304   0.565   0.125   4.190 -0.4956  0.3391 -0.7783
 9802SOL    HW130305   0.577   0.048   4.127 -2.1001 -1.3566  0.8687
 9802SOL    HW230306   0.577   0.094   4.284 -3.7751  1.3973  0.1367
 9803SOL     OW30307   5.752   6.821   4.424  0.6895 -0.2088  0.7725
 9803SOL    HW130308   5.766   6.915   4.454  1.7065 -0.0283 -0.1975
 9803SOL    HW230309   5.834   6.767   4.442  0.8546 -0.4017 -0.4533
 9804SOL     OW30310   6.356   6.721   3.352 -0.2423  0.3718 -0.4067
 9804SOL    HW130311   6.358   6.667   3.436  0.4972 -0.8576 -1.1953
 9804SOL    HW230312   6.446   6.762   3.336 -0.2583  0.2443 -0.8280
 9805SOL     OW30313   2.044   4.374   6.453 -0.2041 -0.2138  0.1775
 9805SOL    HW130314   1.999   4.450   6.500 -1.0432 -0.6617  0.1035
 9805SOL    HW230315   2.122   4.410   6.400 -0.7102  0.6274 -0.0230
 9806SOL     OW30316   6.482   4.482   2.484  0.0860  0.5414 -0.3765
 9806SOL    HW130317   6.503   4.387   2.460 -0.3138  0.3630 -0.0225
 9806SOL    HW230318   6.436   4.526   2.406 -0.1249  0.3149 -0.3819
 9807SOL     OW30319   3.126   5.674   0.961 -0.1397 -0.6029  0.0917
 9807SOL    HW130320   3.155   5.637   0.872  0.1911 -0.4604  0.1390
 9807SOL    HW230321   3.108   5.598   1.023 -2.2163 -0.7774 -0.6500
 9808SOL     OW30322   1.950   2.905   2.028  0.4033 -1.0465  0.1893
 9808SOL    HW130323   2.010   2.970   2.075  0.8319 -1.5162  0.2989
 9808SOL    HW230324   1.887   2.865   2.095 -0.1494 -0.4305  0.0443
 9809SOL     OW30325   0.756   6.191   2.422  0.1745 -0.2457 -0.1092
 9809SOL    HW130326   0.845   6.216   2.460  0.7208 -2.2127  0.0308
 9809SOL    HW230327   0.704   6.141   2.490 -0.4326 -0.3958 -0.6740
 9810SOL     OW30328   4.872   2.075   3.521 -0.3222  0.2101 -0.4688
 9810SOL    HW130329   4.972   2.082   3.520 -0.3546  2.6894  1.6237
 9810SOL    HW230330   4.844   1.984   3.492  2.5660 -0.7308 -0.5656
 9811SOL     OW30331   3.063   6.290   3.877  0.0266  0.2110  0.8621
 9811SOL    HW130332   3.051   6.376   3.828 -0.8457 -0.6244 -0.4693
 9811SOL    HW230333   3.141   6.297   3.939 -0.3494  2.1127  1.1738
 9812SOL     OW30334   5.442   2.571   0.330  0.2541  0.2905 -0.7814
 9812SOL    HW130335   5.536   2.605   0.326 -0.1251  1.4252 -0.2823
 9812SOL    HW230336   5.384   2.637   0.377 -0.2042 -1.7747  1.8122
 9813SOL     OW30337   5.915   4.083   0.022  0.0760 -0.7803  0.5668
 9813SOL    HW130338   5.911   4.052   0.117 -0.2507  1.8523  1.5099
 9813SOL    HW230339   6.009   4.075  -0.012  0.2243 -1.6052  1.1455
 9814SOL     OW30340   5.846   0.895   4.786  0.0907 -0.1738  0.7061
 9814SOL    HW130341   5.872   0.948   4.704  0.7967  0.9096  1.5978
 9814SOL    HW230342   5.747   0.898   4.797  0.0645  0.4499  0.3834
 9815SOL     OW30343   1.803   3.698   2.873  0.1405  0.1999  0.5400
 9815SOL    HW130344   1.738   3.641   2.923 -1.3127  0.3521 -1.1059
 9815SOL    HW230345   1.889   3.647   2.861 -1.0303 -1.6136 -0.6872
 9816SOL     OW30346   6.923   1.238   5.163 -0.2244  0.0282  0.1029
 9816SOL    HW130347   6.902   1.211   5.069  0.0001 -0.3830  0.1709
 9816SOL    HW230348   6.979   1.321   5.162  1.4930 -1.0766 -0.2009
 9817SOL     OW30349   3.347   2.590   6.962 -0.2466  0.1225 -0.1999
 9817SOL    HW130350   3.250   2.571   6.972 -0.2131 -0.6092 -1.1136
 9817SOL    HW230351   3.360   2.665   6.899 -0.1718 -1.3957 -2.0823
 9818SOL     OW30352   2.186   6.553   3.230  0.0887  0.6612  0.1023
 9818SOL    HW130353   2.252   6.526   3.160 -2.3716 -2.5414 -1.2544
 9818SOL    HW230354   2.210   6.511   3.317 -0.4781 -1.1382 -0.5680
 9819SOL     OW30355   5.437   1.102   4.821 -0.2886  0.7497  0.1122
 9819SOL    HW130356   5.464   1.014   4.783  2.9729  1.7694 -0.1984
 9819SOL    HW230357   5.447   1.100   4.920  0.8172  1.0638  0.0147
 9820SOL     OW30358   2.002   6.636   5.914 -0.1723 -0.0438  0.0130
 9820SOL    HW130359   2.003   6.536   5.903  0.6256 -0.1009  0.5805
 9820SOL    HW230360   2.084   6.675   5.872  0.1994  0.2396  0.9707
 9821SOL     OW30361   3.562   6.383   6.260 -0.0450  0.0882 -0.1676
 9821SOL    HW130362   3.543   6.350   6.167  0.6510  0.7127 -0.5453
 9821SOL    HW230363   3.478   6.418   6.301 -0.1766  0.7029 -0.9369
 9822SOL     OW30364   0.537   2.206   3.424 -0.5617 -0.2757 -0.7333
 9822SOL    HW130365   0.451   2.159   3.405  0.8567 -3.2534 -0.3529
 9822SOL    HW230366   0.585   2.225   3.338  0.3019 -2.6294 -0.8560
 9823SOL     OW30367   3.721   5.174   2.457  0.0633  0.0402  0.2965
 9823SOL    HW130368   3.751   5.145   2.367  0.8499 -2.1040  1.1829
 9823SOL    HW230369   3.771   5.255   2.485  0.5974  0.0799 -0.7369
 9824SOL     OW30370   2.166   0.156   4.573 -0.1072  0.2673  0.6445
 9824SOL    HW130371   2.209   0.246   4.565  0.0601  0.0417 -2.7009
 9824SOL    HW230372   2.084   0.163   4.630  1.3648  1.8855  2.6774
 9825SOL     OW30373   1.195   0.553   6.766  0.0467 -0.4521  0.5904
 9825SOL    HW130374   1.218   0.473   6.821  1.7852  0.7241  1.6951
 9825SOL    HW230375   1.263   0.625   6.782 -1.3336  1.1828 -0.5083
 9826SOL     OW30376   0.439   5.892   6.381 -0.3864  0.1957 -0.0514
 9826SOL    HW130377   0.443   5.795   6.406 -0.7480  0.4561  1.0743
 9826SOL    HW230378   0.512   5.913   6.316  0.7484 -0.4766  0.9644
 9827SOL     OW30379   1.906   5.624   2.610  0.2376  0.4807  0.2779
 9827SOL    HW130380   1.978   5.621   2.541  2.1371 -1.7254  2.1811
 9827SOL    HW230381   1.934   5.685   2.685 -1.1794  1.7625 -0.1803
 9828SOL     OW30382   5.841   6.544   5.484 -0.6734 -0.0433 -0.2717
 9828SOL    HW130383   5.863   6.602   5.563 -1.2422 -0.0278 -0.1203
 9828SOL    HW230384   5.923   6.529   5.430 -0.3419  0.2046  0.1561
 9829SOL     OW30385   5.109   5.013   5.885  0.4595 -0.3676  0.0633
 9829SOL    HW130386   5.160   4.927   5.900  2.1506  0.4080 -0.8971
 9829SOL    HW230387   5.167   5.077   5.834 -1.6165  0.4944 -1.3536
 9830SOL     OW30388   0.011   5.864   2.152 -0.6678 -0.0034  0.0328
 9830SOL    HW130389   0.068   5.927   2.205 -2.2654  0.1602  1.6483
 9830SOL    HW230390   0.069   5.790   2.116  0.6765  0.5150  1.0156
 9831SOL     OW30391   1.549   5.034   0.146 -0.2802  0.1595  0.4235
 9831SOL    HW130392   1.578   4.944   0.177  0.5376  0.7983  1.6075
 9831SOL    HW230393   1.463   5.058   0.191 -0.6822 -0.1709 -0.1642
 9832SOL     OW30394   6.832   5.884   4.286 -0.4301  0.2310  0.2140
 9832SOL    HW130395   6.895   5.818   4.246 -0.5811 -0.5874  1.2771
 9832SOL    HW230396   6.787   5.936   4.213  2.2220  1.6036 -0.5663
 9833SOL     OW30397   2.955   3.349   2.348 -0.6463  0.0430 -0.6289
 9833SOL    HW130398   2.964   3.274   2.283  2.2071  2.0864 -2.8479
 9833SOL    HW230399   2.947   3.436   2.299  3.1043  1.8641  1.5015
 9834SOL     OW30400   4.066   4.525   5.489  0.1409  0.9007  0.4030
 9834SOL    HW130401   4.135   4.472   5.440 -0.8176  3.2307 -3.9497
 9834SOL    HW230402   3.980   4.474   5.492  0.3960  0.4581  0.2042
 9835SOL     OW30403   4.348   3.270   6.913  0.5465 -0.2443  0.6315
 9835SOL    HW130404   4.407   3.229   6.982  1.7053 -1.1896 -0.8588
 9835SOL    HW230405   4.397   3.342   6.865 -0.0146 -0.0611  0.3211
 9836SOL     OW30406   0.384   3.326   0.045 -0.1349  0.1924 -0.0261
 9836SOL    HW130407   0.422   3.373  -0.035  1.1715 -1.1727 -0.2567
 9836SOL    HW230408   0.402   3.228   0.038 -2.0344 -0.2728  0.8485
 9837SOL     OW30409   5.413   1.240   3.247  0.0456 -0.0184 -0.0523
 9837SOL    HW130410   5.412   1.175   3.322  0.3812  0.7293  0.6163
 9837SOL    HW230411   5.320   1.252   3.211 -0.1206 -0.3356  0.2735
 9838SOL     OW30412   1.903   5.296   1.189  0.7620 -0.4483  0.0900
 9838SOL    HW130413   1.834   5.268   1.122 -0.2389 -0.6606  1.1649
 9838SOL    HW230414   1.859   5.348   1.262  1.9310  0.3043  0.2819
 9839SOL     OW30415   3.757   6.210   3.669  0.2113 -0.4284 -0.3095
 9839SOL    HW130416   3.679   6.159   3.633  0.1971 -0.1270 -0.7090
 9839SOL    HW230417   3.796   6.160   3.747 -0.9882 -0.1073  0.5303
 9840SOL     OW30418   0.025   0.733   5.478 -0.2030 -0.3143  0.1850
 9840SOL    HW130419   0.100   0.692   5.425 -0.7291  0.5481 -1.2687
 9840SOL    HW230420  -0.013   0.663   5.540  1.3223 -0.9549  0.4604
 9841SOL     OW30421   6.571   5.586   1.715 -0.0952  0.3281 -0.0153
 9841SOL    HW130422   6.510   5.660   1.742 -0.3449 -0.1379  0.7604
 9841SOL    HW230423   6.574   5.578   1.616 -0.3478  1.1339 -0.0916
 9842SOL     OW30424   5.443   5.749   0.716  0.1650 -0.1137  0.0917
 9842SOL    HW130425   5.368   5.803   0.678  0.1879  0.0384  0.2637
 9842SOL    HW230426   5.530   5.785   0.684  0.2139  0.4405  0.8329
 9843SOL     OW30427   1.436   2.839   1.333 -0.1736 -0.7855  0.1047
 9843SOL    HW130428   1.491   2.861   1.252 -0.5549 -2.3564 -0.6181
 9843SOL    HW230429   1.488   2.863   1.416  0.5500  0.1022 -0.5821
 9844SOL     OW30430   5.857   1.839   4.278  0.1409 -0.5100 -0.1116
 9844SOL    HW130431   5.826   1.869   4.369 -1.0663  1.6880 -1.1699
 9844SOL    HW230432   5.951   1.806   4.284  0.5876  0.9497  1.6895
 9845SOL     OW30433   6.859   5.345   2.252 -0.2097 -0.2011 -0.3188
 9845SOL    HW130434   6.873   5.354   2.351 -2.2224 -1.8104  0.1958
 9845SOL    HW230435   6.761   5.343   2.233  0.1446 -0.3030 -2.3199
 9846SOL     OW30436   5.527   1.725   1.005 -0.4094  0.6927  0.0502
 9846SOL    HW130437   5.529   1.790   1.080  0.7732 -1.7170  2.2815
 9846SOL    HW230438   5.613   1.729   0.954 -0.8491  1.6975 -0.6417
 9847SOL     OW30439   4.630   2.744   0.626 -0.4077  0.4530 -0.2296
 9847SOL    HW130440   4.680   2.705   0.704  0.4304 -4.3099 -2.7504
 9847SOL    HW230441   4.532   2.736   0.642 -0.3272  1.7483  1.1875
 9848SOL     OW30442   0.466   2.281   5.289  0.0253 -0.2533  0.1338
 9848SOL    HW130443   0.416   2.293   5.374 -1.4233  1.5434 -0.8975
 9848SOL    HW230444   0.403   2.281   5.212  1.4892  0.9811 -1.1463
 9849SOL     OW30445   1.138   3.860   2.211  0.4687  0.6815  0.1992
 9849SOL    HW130446   1.188   3.813   2.139 -1.6663 -2.1816  0.4095
 9849SOL    HW230447   1.056   3.903   2.172  1.3051  2.5483  0.3736
 9850SOL     OW30448   1.249   2.390   3.389  0.5125 -0.2010  0.0519
 9850SOL    HW130449   1.322   2.340   3.437  2.4872  2.9608  0.6976
 9850SOL    HW230450   1.286   2.428   3.303 -0.6166  0.6996 -0.0581
 9851SOL     OW30451   5.156   6.230   3.097 -0.3782 -0.2695 -0.4273
 9851SOL    HW130452   5.061   6.229   3.129 -0.1226 -0.3677  0.3543
 9851SOL    HW230453   5.169   6.160   3.027 -0.7951 -0.5109 -0.2647
 9852SOL     OW30454   1.991   0.213   7.016  0.1170  0.1887 -0.3769
 9852SOL    HW130455   1.974   0.285   7.082  1.6226  0.0967  0.1631
 9852SOL    HW230456   2.088   0.215   6.989 -0.3975  0.0599 -2.3856
 9853SOL     OW30457   1.377   4.739   4.552 -0.0088 -0.5212 -0.0225
 9853SOL    HW130458   1.385   4.739   4.452 -0.3653  0.1507 -0.0606
 9853SOL    HW230459   1.363   4.646   4.585 -2.4738 -0.5104 -0.8168
 9854SOL     OW30460   5.793   5.218   6.800 -0.0616  0.3739  0.3765
 9854SOL    HW130461   5.862   5.175   6.860  0.1822  0.3120  0.0546
 9854SOL    HW230462   5.702   5.204   6.839  0.2769  3.1188  2.4920
 9855SOL     OW30463   2.966   0.250   0.089 -0.4940  0.0553  0.2728
 9855SOL    HW130464   2.917   0.166   0.113  0.8051 -0.5666  0.9157
 9855SOL    HW230465   3.007   0.240  -0.001  2.2883 -1.3550  1.5561
 9856SOL     OW30466   6.083   3.758   4.312  0.1240 -0.6385 -0.0290
 9856SOL    HW130467   6.127   3.796   4.230  1.5209  0.9055  1.3521
 9856SOL    HW230468   6.153   3.739   4.381 -1.1732 -0.0396  1.5181
 9857SOL     OW30469   2.957   5.529   5.193 -0.0520  0.2209 -0.1967
 9857SOL    HW130470   3.017   5.564   5.266 -0.3293 -0.6525  0.4721
 9857SOL    HW230471   2.967   5.429   5.187  0.4688  0.3402 -1.8337
 9858SOL     OW30472   5.661   4.704   1.859 -0.1435  0.0771  0.4947
 9858SOL    HW130473   5.584   4.648   1.831 -0.3681  0.3280  0.6110
 9858SOL    HW230474   5.645   4.740   1.951  0.1713  0.0215  0.5734
 9859SOL     OW30475   5.878   5.027   2.666 -0.1728  0.3846 -0.7508
 9859SOL    HW130476   5.867   5.126   2.661 -3.4614  0.1132 -0.8268
 9859SOL    HW230477   5.896   4.991   2.574  0.2507  0.8043 -0.8383
 9860SOL     OW30478   0.022   3.828   3.869  0.1709 -0.1426 -0.1927
 9860SOL    HW130479   0.118   3.856   3.857  0.9141 -2.1211  0.6624
 9860SOL    HW230480  -0.032   3.860   3.791  1.8823 -0.4472 -1.5800
 9861SOL     OW30481   4.348   1.402   3.055  0.7535 -0.0542  0.0963
 9861SOL    HW130482   4.386   1.445   2.973 -0.8619  0.9641 -0.1595
 9861SOL    HW230483   4.249   1.418   3.059  0.2939 -2.5543  0.7445
 9862SOL     OW30484   0.688   2.992   6.213 -0.0562 -0.9897  0.1345
 9862SOL    HW130485   0.656   2.902   6.241  1.7047 -1.5035  0.6583
 9862SOL    HW230486   0.786   3.000   6.232 -0.0225  0.7904 -0.5473
 9863SOL     OW30487   1.784   4.944   1.392 -0.0340 -0.0297  0.5773
 9863SOL    HW130488   1.732   5.011   1.444 -2.1227 -0.1523 -1.1878
 9863SOL    HW230489   1.752   4.852   1.414 -1.9171 -0.0262 -1.7367
 9864SOL     OW30490   3.638   5.629   4.250  0.2044  0.0438 -0.1824
 9864SOL    HW130491   3.695   5.551   4.272  0.9316  0.9086  1.1193
 9864SOL    HW230492   3.607   5.673   4.334 -2.9067 -0.7082 -0.7693
 9865SOL     OW30493   3.288   5.691   1.376 -0.0320  0.3359 -1.7859
 9865SOL    HW130494   3.296   5.782   1.335 -2.1181  1.4317  0.0228
 9865SOL    HW230495   3.377   5.663   1.412  1.0554  0.8014 -3.9777
 9866SOL     OW30496   0.348   6.502   4.466  0.1589  0.8615  0.2139
 9866SOL    HW130497   0.368   6.404   4.463 -0.8321  0.6645 -0.3843
 9866SOL    HW230498   0.262   6.520   4.418 -1.5238  1.5469  3.2683
 9867SOL     OW30499   4.881   0.823   2.644  0.0187 -0.3045 -0.1258
 9867SOL    HW130500   4.937   0.905   2.649 -0.5288  0.0062  1.3187
 9867SOL    HW230501   4.932   0.746   2.684 -0.8840  0.1849  2.1007
 9868SOL     OW30502   2.170   5.741   3.511 -0.3709 -0.3277  0.6961
 9868SOL    HW130503   2.253   5.712   3.559 -0.7514 -1.9728  0.4313
 9868SOL    HW230504   2.189   5.823   3.456  1.3615 -1.2767 -0.1860
 9869SOL     OW30505   5.925   2.431   3.679 -0.2642  0.7047  0.3930
 9869SOL    HW130506   5.910   2.405   3.775  2.2043 -0.5511  0.5041
 9869SOL    HW230507   6.014   2.475   3.670  1.0289 -2.0780 -1.7629
 9870SOL     OW30508   1.674   2.983   2.036  0.2604  0.1184 -0.0144
 9870SOL    HW130509   1.770   2.992   2.010 -0.2476 -0.5036 -2.3812
 9870SOL    HW230510   1.667   2.949   2.129  2.3225  0.2508  0.2339
 9871SOL     OW30511   5.162   4.282   2.323 -0.6003 -0.3158 -0.7054
 9871SOL    HW130512   5.246   4.323   2.360  1.3375 -3.2441 -1.4533
 9871SOL    HW230513   5.102   4.256   2.399  0.6378 -0.9693  0.0988
 9872SOL     OW30514   6.639   5.676   3.863  0.0693  0.1997 -0.4550
 9872SOL    HW130515   6.569   5.712   3.802 -0.1002  0.1795 -0.2744
 9872SOL    HW230516   6.727   5.716   3.839  0.0763 -0.1191 -0.9733
 9873SOL     OW30517   6.568   1.296   4.113 -0.4890 -0.1908 -0.3862
 9873SOL    HW130518   6.591   1.299   4.211 -1.4259  1.9713 -0.1674
 9873SOL    HW230519   6.595   1.208   4.075 -0.0701 -1.0761  1.8113
 9874SOL     OW30520   6.376   2.084   4.920 -0.2203 -0.2662 -0.2081
 9874SOL    HW130521   6.365   2.175   4.880 -0.5084  0.7277  2.0312
 9874SOL    HW230522   6.419   2.092   5.010 -0.1683 -2.3607 -0.0089
 9875SOL     OW30523   4.335   6.225   6.131  0.0346  0.3000  0.1929
 9875SOL    HW130524   4.432   6.208   6.115 -0.3181 -1.0603 -0.7268
 9875SOL    HW230525   4.298   6.155   6.193 -0.1091  1.5333  1.5402
 9876SOL     OW30526   0.613   5.475   3.298 -0.0053  0.0395  0.5565
 9876SOL    HW130527   0.569   5.412   3.362  0.4817 -0.4973  0.3783
 9876SOL    HW230528   0.683   5.528   3.347 -1.0099  1.0911  0.9001
 9877SOL     OW30529   4.154   5.212   5.586  0.0988  0.3824 -0.1293
 9877SOL    HW130530   4.190   5.154   5.659  0.0870  0.7615  0.1775
 9877SOL    HW230531   4.180   5.173   5.497  0.8157  0.3723  0.0844
 9878SOL     OW30532   4.021   4.988   0.826  0.0311 -0.8308 -0.1250
 9878SOL    HW130533   3.991   4.912   0.885  1.7447 -0.1205  1.8011
 9878SOL    HW230534   4.061   4.952   0.742 -2.2087 -1.8923 -0.8190
 9879SOL     OW30535   6.809   4.229   4.896  0.7607  0.1348  0.6617
 9879SOL    HW130536   6.863   4.180   4.827 -1.4364 -1.7553  0.1585
 9879SOL    HW230537   6.770   4.312   4.855  0.7339 -0.1608  0.0713
 9880SOL     OW30538   3.452   0.919   1.016 -0.2629 -0.0178  0.0870
 9880SOL    HW130539   3.454   0.845   1.083 -0.4004 -1.0920 -1.0486
 9880SOL    HW230540   3.382   0.986   1.042 -0.9281 -0.8709  0.5502
 9881SOL     OW30541   6.639   6.901   2.488  0.0677  0.2904 -0.5778
 9881SOL    HW130542   6.555   6.952   2.470  0.7135  1.4099 -0.4683
 9881SOL    HW230543   6.643   6.822   2.426 -1.1682  0.0784 -0.4231
 9882SOL     OW30544   3.100   4.212   5.679 -0.5027  0.1143  0.3187
 9882SOL    HW130545   3.160   4.136   5.702 -1.1466  0.1197  2.2229
 9882SOL    HW230546   3.155   4.289   5.647  0.3919 -0.3032  0.7960
 9883SOL     OW30547   0.771   5.874   0.636 -0.2818  0.5196  0.3756
 9883SOL    HW130548   0.813   5.928   0.709  1.8610 -1.0189  0.3740
 9883SOL    HW230549   0.773   5.777   0.661  2.1799 -0.2772 -2.3918
 9884SOL     OW30550   3.194   2.174   5.378 -0.8274 -0.4718  0.1098
 9884SOL    HW130551   3.192   2.233   5.298 -2.7881 -2.4826 -1.4368
 9884SOL    HW230552   3.266   2.105   5.367 -2.5710 -2.1796 -1.1025
 9885SOL     OW30553   3.927   2.058   6.389 -0.1150 -0.3807  0.2128
 9885SOL    HW130554   3.914   2.143   6.338 -0.9954 -0.4739  0.2670
 9885SOL    HW230555   4.016   2.019   6.367  1.1671  1.5341  1.6310
 9886SOL     OW30556   1.557   5.809   2.613  0.1754 -0.1756  0.1719
 9886SOL    HW130557   1.489   5.864   2.565 -0.7424 -0.6729  0.8862
 9886SOL    HW230558   1.612   5.758   2.546  0.1533  0.5693 -0.4282
 9887SOL     OW30559   5.054   0.201   1.770  0.5440 -0.1737  0.3440
 9887SOL    HW130560   5.078   0.139   1.844 -1.1177 -0.8352  0.3759
 9887SOL    HW230561   4.985   0.266   1.802 -1.6534 -1.6592 -1.0332
 9888SOL     OW30562   6.639   0.239   2.891  0.2901  0.1838 -0.1849
 9888SOL    HW130563   6.630   0.261   2.988 -0.9488  1.8259 -0.6419
 9888SOL    HW230564   6.693   0.155   2.882 -1.5009 -1.3724  2.0424
 9889SOL     OW30565   6.593   5.022   3.222 -0.4609  0.0865  0.6963
 9889SOL    HW130566   6.688   5.042   3.246 -0.6181  2.1859 -0.1420
 9889SOL    HW230567   6.533   5.067   3.289 -0.8719 -0.5547  0.7606
 9890SOL     OW30568   0.914   4.326   3.316  0.4080  0.2626  0.7980
 9890SOL    HW130569   0.818   4.343   3.341  0.4194  0.2894  0.8240
 9890SOL    HW230570   0.971   4.329   3.398  0.4084  0.0806  0.8036
 9891SOL     OW30571   4.039   6.312   2.123  0.2061  0.0766  0.4039
 9891SOL    HW130572   4.041   6.383   2.193 -1.2010  1.1274 -0.5564
 9891SOL    HW230573   3.951   6.265   2.125 -0.3314  0.8992 -1.3269
 9892SOL     OW30574   2.350   6.258   3.169  0.3927  0.6011 -0.6673
 9892SOL    HW130575   2.432   6.304   3.136  0.2986  0.0527 -1.7085
 9892SOL    HW230576   2.362   6.159   3.162  0.1280  0.4868  0.3859
 9893SOL     OW30577   0.334   5.604   2.684  0.3950 -1.0466  0.0389
 9893SOL    HW130578   0.375   5.602   2.593  0.6996 -1.4861  0.1821
 9893SOL    HW230579   0.406   5.599   2.753  0.1815 -0.4647  0.3096
 9894SOL     OW30580   4.887   2.504   5.357  0.4549 -0.1878 -0.4830
 9894SOL    HW130581   4.861   2.408   5.360  0.2765 -0.1564 -0.8676
 9894SOL    HW230582   4.868   2.540   5.265 -1.6004  0.7924  0.2592
 9895SOL     OW30583   6.355   2.887   0.715 -0.3298 -0.3949  0.1316
 9895SOL    HW130584   6.417   2.932   0.780  0.4309 -0.0237 -0.8293
 9895SOL    HW230585   6.345   2.944   0.634  2.4406 -2.8782 -2.1513
 9896SOL     OW30586   3.145   4.098   5.068 -0.0666 -0.9004 -0.1185
 9896SOL    HW130587   3.060   4.111   5.118 -0.3337 -0.3730 -0.6994
 9896SOL    HW230588   3.154   4.002   5.042 -1.5999 -0.5936 -1.9856
 9897SOL     OW30589   0.982   2.040   2.926  0.3222  0.4414  0.1478
 9897SOL    HW130590   0.938   2.128   2.910 -0.1976 -0.1943 -2.3087
 9897SOL    HW230591   0.985   2.022   3.025 -2.0926  1.9138  0.5752
 9898SOL     OW30592   1.598   4.602   0.042  0.0057 -0.1068  0.3059
 9898SOL    HW130593   1.509   4.607   0.088  0.6477 -0.8584  1.6626
 9898SOL    HW230594   1.647   4.521   0.072  1.1117  0.2259 -0.5364
 9899SOL     OW30595   4.937   5.907   2.349 -0.4366  0.6262  0.1808
 9899SOL    HW130596   4.912   5.956   2.432 -3.6326 -0.8402  0.1957
 9899SOL    HW230597   4.906   5.959   2.269  1.6596  1.4979 -0.1324
 9900SOL     OW30598   0.504   5.926   4.637  0.0875 -0.4565 -0.6020
 9900SOL    HW130599   0.515   5.957   4.732 -0.2453  0.3735 -0.8221
 9900SOL    HW230600   0.459   5.998   4.584 -1.5285 -1.6701 -0.9368
 9901SOL     OW30601   3.176   4.729   5.967 -0.0166  0.1115  0.6864
 9901SOL    HW130602   3.220   4.818   5.977 -0.4801  0.3830  0.3513
 9901SOL    HW230603   3.086   4.731   6.011 -0.5492  0.1988 -0.3721
 9902SOL     OW30604   3.861   4.890   6.843 -0.2774 -1.1610 -0.4459
 9902SOL    HW130605   3.778   4.935   6.877 -1.4346 -2.0704 -1.9121
 9902SOL    HW230606   3.846   4.792   6.839  0.3134 -1.2126 -2.1447
 9903SOL     OW30607   3.053   2.340   1.446  0.1179  0.2970  0.0211
 9903SOL    HW130608   3.044   2.341   1.545  0.8959 -0.3662  0.1036
 9903SOL    HW230609   3.148   2.358   1.421  0.0428 -0.1138 -0.5863
 9904SOL     OW30610   6.114   6.198   0.175 -0.3905 -0.5585 -0.2096
 9904SOL    HW130611   6.206   6.207   0.136  0.1888 -1.2261  0.9585
 9904SOL    HW230612   6.046   6.209   0.102  0.5987  0.1951 -1.0434
 9905SOL     OW30613   3.351   5.238   1.464 -0.2619  0.3246 -0.1912
 9905SOL    HW130614   3.418   5.200   1.401 -1.3363  0.1081 -1.2487
 9905SOL    HW230615   3.326   5.170   1.533  0.6783  0.4555  0.2968
 9906SOL     OW30616   3.004   4.099   6.348  0.1202 -0.6391 -0.8297
 9906SOL    HW130617   2.943   4.095   6.269  1.6881  1.6228 -2.2609
 9906SOL    HW230618   3.089   4.051   6.327 -0.1285 -1.5646  0.1956
 9907SOL     OW30619   2.027   6.988   4.185  0.0868  0.4778  0.4290
 9907SOL    HW130620   2.125   7.007   4.193  0.0941  0.4513  0.4020
 9907SOL    HW230621   1.982   7.065   4.139  0.1001  0.4753  0.4120
 9908SOL     OW30622   1.392   3.476   0.901  0.5683 -0.4291  0.5909
 9908SOL    HW130623   1.477   3.449   0.856  0.2750  0.3342 -0.4725
 9908SOL    HW230624   1.323   3.405   0.887  0.1567  0.2651 -1.1543
 9909SOL     OW30625   1.891   5.610   2.982  0.4751  0.2692  0.1661
 9909SOL    HW130626   1.792   5.617   2.988  0.5490  0.2768  1.5512
 9909SOL    HW230627   1.925   5.681   2.921 -0.3777  0.1228 -0.5054
 9910SOL     OW30628   1.326   6.193   6.727  0.2031  0.4305  1.1027
 9910SOL    HW130629   1.353   6.129   6.799 -0.1198 -0.6629  0.2843
 9910SOL    HW230630   1.351   6.155   6.638 -3.1260 -0.2763  0.3353
 9911SOL     OW30631   2.158   5.188   1.179  0.0207 -0.3517 -0.0756
 9911SOL    HW130632   2.164   5.092   1.153  0.0659  0.4393 -3.3897
 9911SOL    HW230633   2.064   5.210   1.207  0.2872 -1.5504  1.9642
 9912SOL     OW30634   6.142   5.459   5.646  0.0707 -0.4754 -0.2375
 9912SOL    HW130635   6.065   5.398   5.664  1.4409 -2.8332 -1.7386
 9912SOL    HW230636   6.228   5.412   5.669  1.1486  1.3859 -0.2902
 9913SOL     OW30637   5.111   4.057   0.375 -0.2322 -0.4369  0.4140
 9913SOL    HW130638   5.082   4.032   0.468 -0.3256 -1.1273  0.2047
 9913SOL    HW230639   5.209   4.075   0.375 -0.2189 -0.5004  0.6340
 9914SOL     OW30640   2.451   4.445   3.114  0.6687 -0.1976  0.4265
 9914SOL    HW130641   2.504   4.506   3.172  0.1139 -0.3987  1.1519
 9914SOL    HW230642   2.432   4.490   3.027 -0.0488  0.8134  1.0959
 9915SOL     OW30643   5.728   3.956   4.356 -0.6031 -0.0061  0.7040
 9915SOL    HW130644   5.780   3.886   4.405 -1.9585 -0.6574  1.2497
 9915SOL    HW230645   5.780   3.986   4.276 -0.5746 -2.6391 -0.3514
 9916SOL     OW30646   2.115   2.931   2.390 -0.1198 -0.3123 -0.1723
 9916SOL    HW130647   2.080   3.024   2.401  0.0236 -0.2283 -0.4185
 9916SOL    HW230648   2.078   2.873   2.463  0.7168  0.2001  0.6816
 9917SOL     OW30649   0.691   4.571   5.033  0.2401  0.2856  0.0785
 9917SOL    HW130650   0.657   4.477   5.036  0.6200  0.1691  1.7127
 9917SOL    HW230651   0.786   4.572   5.065  0.4065  1.1713 -0.4162
 9918SOL     OW30652   2.056   1.567   4.574 -0.0579 -0.0709 -0.4499
 9918SOL    HW130653   2.125   1.549   4.644 -1.8123  0.3466  1.4925
 9918SOL    HW230654   2.089   1.638   4.512  0.8356  0.9336  1.1026
 9919SOL     OW30655   1.993   6.609   1.962 -0.2308 -0.0526  0.1241
 9919SOL    HW130656   2.017   6.677   1.893  0.5969 -1.3949 -0.9584
 9919SOL    HW230657   1.901   6.574   1.944  0.0254 -0.4769 -0.3696
 9920SOL     OW30658   3.120   0.152   3.262  0.0286  0.2731  1.0585
 9920SOL    HW130659   3.167   0.121   3.344  0.8074  0.8348  0.8307
 9920SOL    HW230660   3.026   0.119   3.264  0.2024 -0.2116  1.8903
 9921SOL     OW30661   4.607   6.929   2.957  0.4937 -0.1037 -0.1221
 9921SOL    HW130662   4.646   7.019   2.978 -0.4229  0.2135  0.2768
 9921SOL    HW230663   4.617   6.909   2.860  2.0785 -0.2522  0.0478
 9922SOL     OW30664   5.375   2.006   2.121 -0.0283 -0.2173  0.0027
 9922SOL    HW130665   5.350   2.082   2.062  1.0897  0.7954  0.7877
 9922SOL    HW230666   5.365   1.920   2.070 -0.9135  0.4682 -1.0279
 9923SOL     OW30667   5.626   0.077   4.700  0.7739 -0.2764 -0.3508
 9923SOL    HW130668   5.654  -0.017   4.718  0.5571  0.0696  2.2801
 9923SOL    HW230669   5.659   0.136   4.774 -2.5611  0.9846  0.3516
 9924SOL     OW30670   0.560   1.500   5.192 -0.0734 -0.6105  0.2616
 9924SOL    HW130671   0.637   1.439   5.171 -1.4170 -2.3053 -0.0649
 9924SOL    HW230672   0.576   1.546   5.279  2.0416  0.4021 -0.5892
 9925SOL     OW30673   4.415   2.129   0.077 -0.3866  0.0429  0.3804
 9925SOL    HW130674   4.505   2.172   0.069 -0.8376  0.8997 -0.2623
 9925SOL    HW230675   4.395   2.077  -0.007 -0.7533  0.3914  0.2469
 9926SOL     OW30676   3.306   0.830   0.078 -0.1179 -0.5420  0.2259
 9926SOL    HW130677   3.366   0.786   0.144  2.7778  0.3646 -1.6198
 9926SOL    HW230678   3.228   0.770   0.059  2.3397 -3.8280 -0.3582
 9927SOL     OW30679   1.121   1.816   6.242 -0.5444  0.8207  0.1927
 9927SOL    HW130680   1.033   1.844   6.204 -0.4795 -2.3854 -2.8492
 9927SOL    HW230681   1.157   1.739   6.189  2.7539  0.0872  3.1227
 9928SOL     OW30682   5.715   4.161   3.010 -0.0444 -0.5219  0.2489
 9928SOL    HW130683   5.656   4.199   3.080 -2.5902  0.6471 -2.3322
 9928SOL    HW230684   5.761   4.080   3.045 -1.3559 -0.1166  3.1365
 9929SOL     OW30685   1.528   4.406   4.406  0.4883  0.2387  0.5497
 9929SOL    HW130686   1.475   4.440   4.484  0.4100  1.5628 -0.0643
 9929SOL    HW230687   1.563   4.483   4.352  1.0667 -0.6460 -0.3860
 9930SOL     OW30688   6.866   5.975   5.619  0.3778  0.3738 -0.6830
 9930SOL    HW130689   6.779   6.023   5.630  0.1184  0.3548 -2.3442
 9930SOL    HW230690   6.941   6.036   5.644 -0.1074 -0.4358  3.3885
 9931SOL     OW30691   2.618   4.997   6.089  0.7020 -0.3682  0.2548
 9931SOL    HW130692   2.641   4.914   6.039  1.9846 -0.5547  1.1026
 9931SOL    HW230693   2.634   4.983   6.187 -0.0088  0.5630  0.5186
 9932SOL     OW30694   2.964   1.934   2.071  0.1010  0.5524 -0.2813
 9932SOL    HW130695   2.989   2.001   2.141 -0.6916  1.6621 -1.0439
 9932SOL    HW230696   2.991   1.968   1.981 -1.8284  0.6496 -0.8631
 9933SOL     OW30697   3.614   1.918   3.650 -0.2842  0.8058  0.2077
 9933SOL    HW130698   3.564   1.831   3.643 -0.8823  0.9968  1.7708
 9933SOL    HW230699   3.696   1.913   3.594  0.4274 -1.3107  1.3374
 9934SOL     OW30700   2.186   0.200   5.014  0.0139 -0.0945  0.3636
 9934SOL    HW130701   2.229   0.186   5.103 -1.1377 -0.3417  0.8988
 9934SOL    HW230702   2.191   0.115   4.961  1.1313  0.1922 -0.0192
 9935SOL     OW30703   3.774   0.772   0.896 -0.0595 -0.0461 -0.2584
 9935SOL    HW130704   3.857   0.725   0.926  0.1029 -0.1416 -0.8457
 9935SOL    HW230705   3.694   0.718   0.923  0.1176 -0.5543 -0.7347
 9936SOL     OW30706   5.942   0.280   1.829  0.0835  0.3898  0.6222
 9936SOL    HW130707   6.036   0.291   1.861  0.2613  0.5837  0.0405
 9936SOL    HW230708   5.929   0.331   1.744 -1.0758  2.0351  1.7102
 9937SOL     OW30709   2.061   0.318   5.214 -0.4347  0.3837  0.4822
 9937SOL    HW130710   2.087   0.291   5.122  0.1449  3.0354 -0.2144
 9937SOL    HW230711   1.999   0.250   5.253 -0.6522 -0.8157 -1.8181
 9938SOL     OW30712   1.098   1.309   4.094 -0.1437  0.4832 -0.0842
 9938SOL    HW130713   1.031   1.352   4.155 -0.8320 -1.2954  0.4873
 9938SOL    HW230714   1.157   1.247   4.147  0.7030  0.5721 -0.8922
 9939SOL     OW30715   3.687   5.453   1.049  0.1812  0.7298  0.2855
 9939SOL    HW130716   3.623   5.385   1.011  0.4032 -0.4401  1.8832
 9939SOL    HW230717   3.763   5.465   0.986  0.0289 -0.3761 -0.1404
 9940SOL     OW30718   0.278   2.021   3.682  0.2770 -0.7735 -0.5098
 9940SOL    HW130719   0.206   2.089   3.669  1.3825  0.3477 -1.0407
 9940SOL    HW230720   0.263   1.973   3.768 -0.1983  0.6078  0.2193
 9941SOL     OW30721   6.184   3.781   0.294  0.2087  0.7029  0.4911
 9941SOL    HW130722   6.238   3.840   0.235  0.3245 -0.1099 -0.2358
 9941SOL    HW230723   6.164   3.829   0.380  1.9999  1.0648  0.7534
 9942SOL     OW30724   4.886   3.390   2.805 -0.0607  0.0165  0.4667
 9942SOL    HW130725   4.884   3.474   2.752 -2.0156 -0.8977 -1.0369
 9942SOL    HW230726   4.876   3.312   2.744  0.1598 -1.2381  1.9646
 9943SOL     OW30727   0.770   5.382   5.365 -0.0356  0.0001 -0.5878
 9943SOL    HW130728   0.719   5.362   5.448  1.6846  1.3449  0.8494
 9943SOL    HW230729   0.868   5.374   5.383  0.3876  0.5542 -2.4226
 9944SOL     OW30730   3.684   5.123   5.849  0.1994 -0.7129 -1.0083
 9944SOL    HW130731   3.648   5.091   5.761 -2.2933  0.0150 -0.3400
 9944SOL    HW230732   3.723   5.214   5.839  2.0795 -1.5548 -1.7709
 9945SOL     OW30733   5.654   3.605   4.455  0.2950  1.0229  0.0478
 9945SOL    HW130734   5.574   3.565   4.500 -0.4800  1.1300 -1.1928
 9945SOL    HW230735   5.719   3.636   4.524  0.4060 -1.2943  1.1004
 9946SOL     OW30736   5.464   2.219   3.271 -0.2689  0.1994 -0.6443
 9946SOL    HW130737   5.559   2.252   3.278 -0.2973 -0.0195  1.0377
 9946SOL    HW230738   5.446   2.154   3.345 -1.4311 -0.5666 -1.5711
 9947SOL     OW30739   5.351   1.916   4.532  0.4642 -0.5004 -0.5721
 9947SOL    HW130740   5.342   1.987   4.462  1.3627 -0.9206 -1.1337
 9947SOL    HW230741   5.438   1.927   4.579 -0.1264 -0.2323  0.4910
 9948SOL     OW30742   5.717   1.700   5.536 -0.0691  0.3960 -0.1420
 9948SOL    HW130743   5.781   1.760   5.489 -1.3327  0.8259 -1.4090
 9948SOL    HW230744   5.629   1.747   5.546 -1.2785 -1.4104 -1.6941
 9949SOL     OW30745   0.594   2.968   1.338  0.1408  0.2968  0.0199
 9949SOL    HW130746   0.562   3.061   1.324 -1.8637  0.2146  3.0803
 9949SOL    HW230747   0.687   2.969   1.373  0.1046  1.1599  0.0944
 9950SOL     OW30748   4.485   4.011   6.109  0.4094 -0.3131 -0.3201
 9950SOL    HW130749   4.485   4.010   6.009 -1.0889 -2.8670 -0.3898
 9950SOL    HW230750   4.576   4.034   6.142  1.8647 -2.5971 -2.3538
 9951SOL     OW30751   0.561   2.386   3.726 -0.3445 -0.4959  0.5765
 9951SOL    HW130752   0.562   2.300   3.676  0.0194 -1.1252  1.6252
 9951SOL    HW230753   0.651   2.429   3.721 -0.6987  0.1549 -0.4732
 9952SOL     OW30754   2.030   3.954   1.445  0.1907 -0.0724  0.2838
 9952SOL    HW130755   2.026   3.868   1.396  0.2856  0.2903 -0.3706
 9952SOL    HW230756   2.043   3.937   1.543 -0.2055 -0.8019  0.2086
 9953SOL     OW30757   5.831   4.524   5.261 -0.1841 -0.2311  0.4562
 9953SOL    HW130758   5.923   4.486   5.257 -0.7578 -1.6131 -1.4368
 9953SOL    HW230759   5.764   4.450   5.260 -1.3305  0.7667 -0.2976
 9954SOL     OW30760   4.708   2.767   1.459 -0.3083  0.2794  0.1209
 9954SOL    HW130761   4.610   2.787   1.461 -0.2535  0.5801 -0.1798
 9954SOL    HW230762   4.759   2.852   1.452 -0.0818  0.0546 -1.2390
 9955SOL     OW30763   3.871   4.881   1.314 -0.4518  0.6533 -0.3106
 9955SOL    HW130764   3.854   4.864   1.411  1.0327 -1.5904 -0.3795
 9955SOL    HW230765   3.946   4.947   1.305  0.8542 -0.7049  0.1559
 9956SOL     OW30766   1.229   4.810   3.388 -0.2723  0.3588 -0.3081
 9956SOL    HW130767   1.292   4.789   3.463 -0.7211 -0.8752 -0.2601
 9956SOL    HW230768   1.250   4.751   3.310  0.1722  1.6146 -1.1630
 9957SOL     OW30769   6.716   1.896   6.878  0.5754 -0.0242 -1.1503
 9957SOL    HW130770   6.741   1.976   6.824  1.3510  0.6254  0.1098
 9957SOL    HW230771   6.633   1.916   6.929  0.8441  0.0463 -0.7316
 9958SOL     OW30772   6.668   5.313   4.334  0.3515  0.2770  0.5279
 9958SOL    HW130773   6.735   5.239   4.345 -0.8558 -0.9613 -0.0585
 9958SOL    HW230774   6.715   5.397   4.307  1.6482 -0.5990 -0.0709
 9959SOL     OW30775   4.617   5.406   6.566 -0.0271  0.5705 -0.3562
 9959SOL    HW130776   4.613   5.317   6.610  0.2021  0.5553 -0.3668
 9959SOL    HW230777   4.527   5.449   6.570  0.3841  1.3465  1.7470
 9960SOL     OW30778   6.792   0.059   5.854  0.3780 -0.0484 -0.6990
 9960SOL    HW130779   6.809   0.055   5.952 -0.8492  2.1483 -0.3254
 9960SOL    HW230780   6.720  -0.005   5.830 -0.3405  0.4318  0.1165
 9961SOL     OW30781   3.238   6.747   1.232  0.6960  1.0800  0.1005
 9961SOL    HW130782   3.231   6.821   1.299 -0.5446  2.1767 -1.1638
 9961SOL    HW230783   3.334   6.738   1.203  1.0340  1.4570  1.0548
 9962SOL     OW30784   4.785   1.868   0.880  0.0344 -0.0646 -0.8831
 9962SOL    HW130785   4.843   1.802   0.926  1.1905  0.0170 -2.1653
 9962SOL    HW230786   4.841   1.942   0.843 -1.2436  1.9131  0.8518
 9963SOL     OW30787   6.255   0.430   6.214  0.0916 -0.4147  0.3100
 9963SOL    HW130788   6.274   0.409   6.118  1.6288  1.7575  0.0576
 9963SOL    HW230789   6.169   0.481   6.220 -0.4007 -1.2258  0.1837
 9964SOL     OW30790   5.893   5.154   6.236 -0.0884 -0.5416  0.4970
 9964SOL    HW130791   5.819   5.151   6.169  0.2242 -0.0945  0.1291
 9964SOL    HW230792   5.861   5.200   6.319 -1.0439 -2.6606  1.3898
 9965SOL     OW30793   1.819   4.703   5.176 -1.0525  0.9517  0.9271
 9965SOL    HW130794   1.735   4.749   5.148 -1.4456 -0.1437  0.2591
 9965SOL    HW230795   1.805   4.656   5.263 -0.4559  2.5852  1.9551
 9966SOL     OW30796   2.524   4.971   1.365 -0.1483 -0.9782 -0.1990
 9966SOL    HW130797   2.427   4.948   1.360 -0.2930 -0.1693 -1.9534
 9966SOL    HW230798   2.538   5.064   1.332  1.1403 -0.7615  0.8658
 9967SOL     OW30799   0.020   1.988   2.157  0.3521 -0.0671  0.6254
 9967SOL    HW130800   0.030   1.932   2.240  0.9340  0.3823  0.8681
 9967SOL    HW230801  -0.037   1.939   2.091  0.8760 -0.9678  0.8200
 9968SOL     OW30802   0.492   5.532   6.721  0.7484 -0.0243 -0.3427
 9968SOL    HW130803   0.578   5.502   6.762 -0.4724 -0.0766  2.3749
 9968SOL    HW230804   0.426   5.553   6.793 -1.9570 -1.2376 -2.2955
 9969SOL     OW30805   1.337   4.301   3.343 -0.0677 -0.0329  0.1298
 9969SOL    HW130806   1.429   4.310   3.380 -0.0774  0.9997 -0.0502
 9969SOL    HW230807   1.273   4.280   3.417  0.3097 -0.7576  0.2538
 9970SOL     OW30808   2.911   3.505   1.909  0.2204  0.1146  0.6184
 9970SOL    HW130809   2.999   3.489   1.865 -0.2010 -0.1582 -0.1382
 9970SOL    HW230810   2.869   3.586   1.869  0.2190  0.3713  1.1312
 9971SOL     OW30811   0.401   6.027   6.619 -0.1870  0.0019 -0.1155
 9971SOL    HW130812   0.463   5.988   6.687 -1.3028 -0.8248  0.4609
 9971SOL    HW230813   0.408   5.975   6.534  0.4934  0.4253 -0.3260
 9972SOL     OW30814   3.109   6.007   0.248  0.1494  0.3351 -0.0955
 9972SOL    HW130815   3.060   6.017   0.161 -0.8340  0.0907  0.4270
 9972SOL    HW230816   3.051   6.037   0.323  1.0923  0.8024  0.4690
 9973SOL     OW30817   3.274   1.393   2.359  0.2690 -0.2282  0.1603
 9973SOL    HW130818   3.267   1.488   2.328 -0.0329 -0.3561 -0.1736
 9973SOL    HW230819   3.183   1.359   2.381  0.5675  0.1774  2.1867
 9974SOL     OW30820   5.774   4.513   2.507  0.4465  0.2126 -0.6948
 9974SOL    HW130821   5.833   4.471   2.438 -0.0826  0.3681 -1.2514
 9974SOL    HW230822   5.732   4.442   2.563 -1.1717 -0.1098 -2.2218
 9975SOL     OW30823   2.294   4.477   5.523  0.0969 -0.3861  0.4343
 9975SOL    HW130824   2.378   4.437   5.487 -1.0237 -2.0471 -0.4931
 9975SOL    HW230825   2.236   4.405   5.560 -1.2824  0.5980  0.2709
 9976SOL     OW30826   5.969   0.091   4.740 -0.3181 -0.5240  0.3908
 9976SOL    HW130827   5.968   0.174   4.684  0.6152 -1.0478 -0.4462
 9976SOL    HW230828   5.933   0.112   4.831  2.2296  1.4458  1.0641
 9977SOL     OW30829   5.306   1.227   5.380 -0.2833 -0.1000 -0.2661
 9977SOL    HW130830   5.335   1.253   5.472  1.4961 -0.1696 -0.7583
 9977SOL    HW230831   5.330   1.300   5.316 -2.1123  0.2457 -0.6152
 9978SOL     OW30832   5.365   3.790   1.993 -0.3557  0.5479  0.1116
 9978SOL    HW130833   5.321   3.842   1.920  0.2367  0.5453 -0.2562
 9978SOL    HW230834   5.447   3.840   2.024 -0.9421  0.8589  1.2041
 9979SOL     OW30835   3.498   3.440   3.675 -0.4762  0.1692  0.3558
 9979SOL    HW130836   3.554   3.361   3.647 -0.5145  0.7061 -1.3678
 9979SOL    HW230837   3.461   3.424   3.766  1.0310 -0.9849  0.8047
 9980SOL     OW30838   3.037   0.714   0.049 -0.0344  0.4212  0.4288
 9980SOL    HW130839   2.969   0.739   0.118  1.0795  0.3453  1.5880
 9980SOL    HW230840   3.003   0.638  -0.005 -0.5929 -0.0925  1.4638
 9981SOL     OW30841   4.995   2.296   2.757 -0.0684  0.6631  0.2770
 9981SOL    HW130842   5.052   2.219   2.785 -0.5092 -0.0185 -0.6649
 9981SOL    HW230843   5.051   2.379   2.756  0.5478  0.2666  0.7511
 9982SOL     OW30844   2.736   2.109   6.406 -0.0989  0.4254  0.5804
 9982SOL    HW130845   2.738   2.074   6.312  3.0888  0.0107  0.6829
 9982SOL    HW230846   2.728   2.208   6.405 -1.8689  0.3033 -0.0168
 9983SOL     OW30847   6.301   3.460   0.778 -0.0825  0.6332  0.0249
 9983SOL    HW130848   6.254   3.436   0.863  0.6717 -1.1767 -0.0304
 9983SOL    HW230849   6.267   3.402   0.704  2.4411 -1.0501  0.0747
 9984SOL     OW30850   1.880   2.314   0.245 -0.1180  0.1071 -0.2176
 9984SOL    HW130851   1.864   2.217   0.226  2.1986 -0.1415 -1.1682
 9984SOL    HW230852   1.870   2.332   0.343  1.4362 -1.5486  0.2883
 9985SOL     OW30853   3.992   4.866   4.714 -0.4973 -0.2862  0.5534
 9985SOL    HW130854   3.912   4.897   4.766 -0.3475  0.0012  0.6156
 9985SOL    HW230855   4.058   4.824   4.776 -0.8714 -1.0958  0.4142
 9986SOL     OW30856   5.466   5.592   1.873  0.2057 -0.2417 -0.3603
 9986SOL    HW130857   5.388   5.632   1.921  2.3346  2.5565  1.0833
 9986SOL    HW230858   5.489   5.504   1.915  1.3120  1.5793  3.3240
 9987SOL     OW30859   6.010   0.948   2.092  0.3629 -0.1625 -0.0435
 9987SOL    HW130860   5.973   0.872   2.146  0.7909 -0.5665 -0.3036
 9987SOL    HW230861   6.026   0.917   1.998 -1.1160  0.7600 -0.6281
 9988SOL     OW30862   6.241   2.085   3.535 -0.0633 -0.1747 -0.6369
 9988SOL    HW130863   6.195   2.013   3.483 -1.0364  0.0325 -0.0993
 9988SOL    HW230864   6.214   2.175   3.498 -0.9287 -0.0183  0.3148
 9989SOL     OW30865   5.897   0.230   0.342  1.0218  0.5826 -0.0257
 9989SOL    HW130866   5.906   0.240   0.242 -0.4170 -0.4741 -0.2874
 9989SOL    HW230867   5.811   0.269   0.372  0.9252 -0.1262  0.6399
 9990SOL     OW30868   1.215   6.609   3.721 -0.1597 -0.5704  0.5227
 9990SOL    HW130869   1.137   6.571   3.769 -2.2824  1.5034 -1.0501
 9990SOL    HW230870   1.212   6.709   3.727  1.5372 -0.3901 -0.8563
 9991SOL     OW30871   1.485   3.204   2.327 -0.0671 -0.2700  0.4088
 9991SOL    HW130872   1.395   3.167   2.300 -0.0129  0.2101 -0.4970
 9991SOL    HW230873   1.486   3.222   2.425 -2.3101  3.1733 -0.0225
 9992SOL     OW30874   6.953   3.006   1.757  0.0741  0.3380 -0.1894
 9992SOL    HW130875   7.045   2.969   1.766 -0.0654 -0.2723 -1.1210
 9992SOL    HW230876   6.888   2.946   1.805 -0.0640 -0.2913 -1.1268
 9993SOL     OW30877   3.177   0.701   3.106 -0.1687  0.0847 -0.1616
 9993SOL    HW130878   3.163   0.611   3.148  2.1484 -0.8589 -1.1883
 9993SOL    HW230879   3.186   0.689   3.007  1.5145  1.2327 -0.1853
 9994SOL     OW30880   0.817   4.803   4.417  0.4579  0.5621  0.0381
 9994SOL    HW130881   0.773   4.893   4.409 -0.8451 -0.1226 -0.8194
 9994SOL    HW230882   0.841   4.769   4.327  1.8901  0.4704  0.4286
 9995SOL     OW30883   4.419   1.931   6.858 -0.1053 -0.4169 -0.4908
 9995SOL    HW130884   4.513   1.905   6.837  0.2074 -0.9389  1.3613
 9995SOL    HW230885   4.376   1.860   6.914 -1.0001  0.6226  0.1985
 9996SOL     OW30886   1.896   6.086   0.597  0.2043  0.3611  0.0724
 9996SOL    HW130887   1.928   6.153   0.531  0.4460  1.5563  1.3389
 9996SOL    HW230888   1.950   6.003   0.590  1.2057  1.0224 -0.2380
 9997SOL     OW30889   5.512   4.960   1.334  0.1537 -0.0295  0.4506
 9997SOL    HW130890   5.485   4.888   1.398 -0.4169 -0.8935 -0.7202
 9997SOL    HW230891   5.554   4.918   1.253 -1.6708  0.8010 -0.9910
 9998SOL     OW30892   6.156   2.742   2.324  0.2529  0.2001 -0.3686
 9998SOL    HW130893   6.161   2.721   2.422 -0.2985 -1.8508 -0.7376
 9998SOL    HW230894   6.075   2.797   2.306 -0.6971 -0.9771  0.1194
 9999SOL     OW30895   1.185   1.613   4.277  0.2140  0.3405  0.4469
 9999SOL    HW130896   1.114   1.586   4.212  0.6363  0.1258  0.0651
 9999SOL    HW230897   1.214   1.707   4.258 -0.3038  0.5983  0.9118
10000SOL     OW30898   3.178   3.647   2.098 -0.6846 -0.4643 -0.1646
10000SOL    HW130899   3.138   3.726   2.049 -1.1820 -1.1660 -0.9250
10000SOL    HW230900   3.109   3.608   2.158 -1.6012 -2.3347 -2.2695
10001SOL     OW30901   4.661   5.372   6.890  0.4920 -0.4302 -0.5126
10001SOL    HW130902   4.677   5.452   6.832  0.6396  0.1133  0.2674
10001SOL    HW230903   4.566   5.370   6.919  0.6546 -0.1221  0.0640
10002SOL     OW30904   4.107   6.907   2.489  0.5516 -0.0614  0.4523
10002SOL    HW130905   4.109   6.815   2.529  0.3319 -0.0366  0.5211
10002SOL    HW230906   4.106   6.975   2.562  0.7086 -0.0038  0.4010
10003SOL     OW30907   0.856   2.378   3.644  0.3985  0.4186  0.3015
10003SOL    HW130908   0.895   2.376   3.736 -0.2079  1.1067  0.5801
10003SOL    HW230909   0.928   2.357   3.578  0.8211 -0.1736  0.9273
10004SOL     OW30910   6.630   3.564   3.167 -0.1112 -0.0771  0.1627
10004SOL    HW130911   6.535   3.590   3.150 -0.2801  0.2657  1.5656
10004SOL    HW230912   6.686   3.646   3.173  0.0454 -0.2196  0.6435
10005SOL     OW30913   3.753   0.409   4.591  0.0403  0.0585 -0.0229
10005SOL    HW130914   3.773   0.426   4.495  0.4000  1.0667  0.2154
10005SOL    HW230915   3.663   0.448   4.613 -1.0135 -2.0260 -0.4319
10006SOL     OW30916   5.979   2.272   5.459  0.4198 -0.5956 -0.2076
10006SOL    HW130917   6.049   2.300   5.394  0.2111 -0.0486 -0.1997
10006SOL    HW230918   6.017   2.205   5.523  1.4943  1.1293  1.0354
10007SOL     OW30919   1.492   5.107   3.260 -0.0716 -0.0621  0.0545
10007SOL    HW130920   1.464   5.012   3.250  2.6961 -1.2714  2.2147
10007SOL    HW230921   1.561   5.130   3.191  1.0538 -0.4905  0.9918
10008SOL     OW30922   2.298   0.586   6.683  0.0631  0.0083  0.5673
10008SOL    HW130923   2.263   0.664   6.632  1.3412  0.4797  0.3875
10008SOL    HW230924   2.320   0.614   6.776 -1.3949 -0.6357  1.1310
10009SOL     OW30925   0.391   6.900   2.127  0.2095 -0.5644  0.2149
10009SOL    HW130926   0.296   6.892   2.096  0.3615  0.6826 -0.6395
10009SOL    HW230927   0.449   6.925   2.049  1.3845 -2.0700  0.5527
10010SOL     OW30928   2.806   4.947   6.661  0.0371 -0.2636  0.2350
10010SOL    HW130929   2.902   4.921   6.663 -0.0104 -0.4338  1.1439
10010SOL    HW230930   2.795   5.035   6.616  0.3599 -1.2013 -1.7469
10011SOL     OW30931   3.086   3.603   6.899 -0.1966  0.2185  0.2119
10011SOL    HW130932   3.181   3.582   6.920 -0.4539 -1.3155 -0.0248
10011SOL    HW230933   3.071   3.595   6.800 -0.6102  0.2091  0.2712
10012SOL     OW30934   5.858   1.030   2.355 -0.1620 -0.6940 -0.7677
10012SOL    HW130935   5.820   0.960   2.296  0.3411 -1.6223 -0.0279
10012SOL    HW230936   5.925   0.989   2.417  0.8414  0.5999 -0.9363
10013SOL     OW30937   6.875   6.630   5.347  0.3343 -0.2464  0.3823
10013SOL    HW130938   6.794   6.686   5.328  0.1284 -0.8341 -0.5575
10013SOL    HW230939   6.954   6.671   5.302  0.4041 -0.1017  0.6365
10014SOL     OW30940   6.773   1.594   1.935  0.7348  0.4378 -0.3764
10014SOL    HW130941   6.679   1.619   1.959  1.0182  0.8059  0.3778
10014SOL    HW230942   6.779   1.580   1.837  0.1233  1.4715 -0.5813
10015SOL     OW30943   5.288   5.129   0.712  0.1794 -0.4680 -0.5608
10015SOL    HW130944   5.299   5.076   0.796  1.6321 -0.3461 -0.6368
10015SOL    HW230945   5.321   5.222   0.726  0.1725 -0.3621 -1.1798
10016SOL     OW30946   1.639   2.809   5.420  0.1499  0.2405 -0.3038
10016SOL    HW130947   1.723   2.772   5.459 -0.1042 -0.2004 -0.1691
10016SOL    HW230948   1.659   2.850   5.331  0.2266 -1.3559 -1.0520
10017SOL     OW30949   2.955   1.999   2.507  0.0994  0.1658 -0.3096
10017SOL    HW130950   3.039   1.946   2.496 -1.2534 -1.7228 -2.0318
10017SOL    HW230951   2.969   2.092   2.471  1.3531 -0.2058 -0.8124
10018SOL     OW30952   1.715   5.572   1.170  0.0290  0.0338 -0.2789
10018SOL    HW130953   1.641   5.530   1.117  0.0101  0.0280 -0.2476
10018SOL    HW230954   1.688   5.664   1.197  0.4322  0.4112 -1.1318
10019SOL     OW30955   2.151   2.162   4.919  0.8962  0.0905  0.4619
10019SOL    HW130956   2.083   2.189   4.987  0.5047  1.0858 -0.3223
10019SOL    HW230957   2.242   2.190   4.950  0.7279  0.4751  0.6089
10020SOL     OW30958   0.428   6.963   3.025  0.1589 -0.0817  1.0143
10020SOL    HW130959   0.499   7.031   3.008  0.1243  0.0819  1.5014
10020SOL    HW230960   0.468   6.871   3.021  0.5628  0.0395  2.0463
10021SOL     OW30961   2.780   4.253   1.667  0.1629  0.0727 -0.1859
10021SOL    HW130962   2.841   4.331   1.663 -1.2333  1.2319  0.3529
10021SOL    HW230963   2.790   4.198   1.584  0.9205  0.9957 -0.7163
10022SOL     OW30964   2.872   1.340   0.025  0.0926 -0.0258 -0.4950
10022SOL    HW130965   2.802   1.334   0.096  1.0288  1.5369  0.6388
10022SOL    HW230966   2.879   1.434  -0.007  2.3871  0.1260  0.2566
10023SOL     OW30967   1.962   0.714   4.169  0.5393  0.1758  0.1015
10023SOL    HW130968   1.977   0.771   4.250  1.1136  0.8627 -0.4859
10023SOL    HW230969   1.956   0.771   4.088  0.0295 -0.5191 -0.3647
10024SOL     OW30970   2.071   3.456   2.238  0.1648  0.0901 -0.3581
10024SOL    HW130971   2.129   3.456   2.157 -2.3724 -2.1123 -2.3835
10024SOL    HW230972   1.984   3.500   2.217  0.2255  1.4606  1.9238
10025SOL     OW30973   6.360   0.706   1.961  0.3633 -0.5090 -0.1816
10025SOL    HW130974   6.433   0.704   1.892  1.3293 -0.7905  0.8222
10025SOL    HW230975   6.295   0.633   1.943 -0.1863  0.2965 -1.6131
10026SOL     OW30976   5.384   1.683   4.914 -0.3890  0.3870  0.4867
10026SOL    HW130977   5.343   1.658   5.002  0.1283 -0.6978  0.4405
10026SOL    HW230978   5.402   1.781   4.913 -1.8284  0.6827  0.9777
10027SOL     OW30979   4.341   0.820   6.305  0.3318 -0.1791 -0.9033
10027SOL    HW130980   4.333   0.919   6.302 -2.5566 -0.2761  0.1790
10027SOL    HW230981   4.342   0.784   6.211  0.8757  0.8273 -1.2937
10028SOL     OW30982   4.358   5.000   1.691  0.1950  0.0154  0.0167
10028SOL    HW130983   4.311   4.988   1.603 -1.1294  1.9087  0.3877
10028SOL    HW230984   4.397   5.092   1.695  2.2093 -0.8144  0.5670
10029SOL     OW30985   6.272   0.605   3.761  0.1117  0.0161 -0.5232
10029SOL    HW130986   6.263   0.518   3.809 -0.9406  0.3376 -0.0961
10029SOL    HW230987   6.288   0.678   3.828  0.9403  0.1650 -0.8719
10030SOL     OW30988   2.306   0.568   4.403 -0.0892 -0.3080 -1.0082
10030SOL    HW130989   2.288   0.663   4.380  0.5917  0.0108 -0.2952
10030SOL    HW230990   2.257   0.544   4.487  1.9783  0.3317  0.4970
10031SOL     OW30991   1.294   0.326   4.077  0.1712 -0.5246 -0.1049
10031SOL    HW130992   1.344   0.260   4.133  2.0084  2.5626  2.2086
10031SOL    HW230993   1.353   0.403   4.055 -2.4101  1.3876 -0.8832
10032SOL     OW30994   1.831   5.704   4.725  0.5484  0.6735  0.2379
10032SOL    HW130995   1.796   5.788   4.765  0.9258  0.7427  0.4334
10032SOL    HW230996   1.756   5.640   4.708  0.4868  0.1852  2.1329
10033SOL     OW30997   1.963   1.449   2.845  0.5517 -0.4787  0.3487
10033SOL    HW130998   1.944   1.547   2.844 -1.7432 -0.8418  1.8449
10033SOL    HW230999   2.028   1.428   2.772  1.9329  2.2651  0.6317
10034SOL     OW31000   3.469   1.785   2.302 -0.3153  0.4001 -0.4851
10034SOL    HW131001   3.394   1.766   2.365  0.1597  1.1733  0.3366
10034SOL    HW231002   3.462   1.880   2.270  0.9020  0.8361  0.4632
10035SOL     OW31003   0.305   2.208   2.357 -0.0374  0.3889 -0.3867
10035SOL    HW131004   0.283   2.264   2.276  0.0701 -0.8152 -1.2761
10035SOL    HW231005   0.231   2.216   2.424  0.3644  2.2457 -0.1162
10036SOL     OW31006   0.700   2.746   0.215  0.3482  0.0573 -0.5949
10036SOL    HW131007   0.745   2.718   0.299  1.1138  0.5600 -0.8319
10036SOL    HW231008   0.689   2.667   0.155 -2.0376 -0.7427  0.7757
10037SOL     OW31009   5.698   1.307   0.018 -0.5111 -0.0925  0.1837
10037SOL    HW131010   5.723   1.266  -0.070  0.2064 -2.1638  1.2973
10037SOL    HW231011   5.602   1.335   0.015 -1.1441 -2.1488 -0.5862
10038SOL     OW31012   5.195   5.945   0.093  0.2204  0.8841  0.1391
10038SOL    HW131013   5.136   6.019   0.123  1.2086  1.4220  0.8325
10038SOL    HW231014   5.151   5.857   0.109 -1.6676  1.2962 -2.1914
10039SOL     OW31015   0.875   6.249   0.407 -0.0040 -0.0950  0.0640
10039SOL    HW131016   0.784   6.283   0.428 -0.3893 -1.3861  0.5556
10039SOL    HW231017   0.931   6.247   0.490  1.4114  3.2392 -0.6546
10040SOL     OW31018   3.267   6.659   6.713 -0.1416  0.2796  0.0275
10040SOL    HW131019   3.264   6.559   6.713 -0.3610  0.2810  0.5463
10040SOL    HW231020   3.347   6.691   6.663  0.5867 -0.1855  0.8707
10041SOL     OW31021   5.252   5.339   5.976 -0.2949 -0.6728  0.1959
10041SOL    HW131022   5.203   5.414   5.931  0.5121  1.2379  2.3160
10041SOL    HW231023   5.185   5.274   6.013 -1.1080  0.1102  0.1499
10042SOL     OW31024   6.315   6.736   5.100 -0.0337  0.1913 -0.1899
10042SOL    HW131025   6.291   6.819   5.150  1.2069  0.9306 -0.7564
10042SOL    HW231026   6.360   6.761   5.014 -1.7581 -1.0494 -1.5277
10043SOL     OW31027   1.380   6.877   3.684  0.3690 -0.0357  0.8519
10043SOL    HW131028   1.412   6.811   3.617 -0.0716  0.0820  0.5192
10043SOL    HW231029   1.306   6.932   3.645 -0.8560 -0.8964  1.8872
10044SOL     OW31030   3.341   2.288   6.555 -0.3210 -0.2084  0.0503
10044SOL    HW131031   3.423   2.243   6.520  0.2567  0.5090  0.4540
10044SOL    HW231032   3.367   2.370   6.606 -1.2326 -0.4521  0.9455
10045SOL     OW31033   3.066   6.595   4.601  0.0052 -0.4529 -0.0690
10045SOL    HW131034   3.099   6.665   4.538 -0.8821 -0.2294 -0.3023
10045SOL    HW231035   2.967   6.583   4.589 -0.3730  0.3060  1.9480
10046SOL     OW31036   6.809   6.907   6.661 -0.1356  0.4878  0.0398
10046SOL    HW131037   6.850   6.970   6.595  0.9472  1.0980  1.2473
10046SOL    HW231038   6.821   6.813   6.630 -1.8907  0.8181 -1.8639
10047SOL     OW31039   6.798   2.640   4.034 -0.4411  0.5262  0.1620
10047SOL    HW131040   6.729   2.658   4.105  0.8405 -1.0861  1.9490
10047SOL    HW231041   6.877   2.699   4.049 -0.4815  0.7289 -0.4276
10048SOL     OW31042   2.177   2.477   3.060 -0.1232  0.5532  0.4481
10048SOL    HW131043   2.126   2.559   3.034  3.4838  3.2311  1.0839
10048SOL    HW231044   2.203   2.427   2.978  1.5038  2.6789 -0.4269
10049SOL     OW31045   0.051   6.014   5.956 -0.0291 -0.2611 -0.1469
10049SOL    HW131046   0.028   5.922   5.987 -1.0669 -1.4043 -3.7570
10049SOL    HW231047   0.151   6.024   5.955  0.0602 -0.4421  2.4360
10050SOL     OW31048   4.395   0.912   5.985  0.1340 -0.0508 -0.0093
10050SOL    HW131049   4.421   0.823   5.948 -1.4302 -0.5307 -0.0494
10050SOL    HW231050   4.301   0.932   5.958  0.6859  1.9475 -0.5812
10051SOL     OW31051   4.795   2.864   1.014 -0.1229 -0.5150  0.1048
10051SOL    HW131052   4.856   2.844   1.090 -0.6156 -1.7655  0.1906
10051SOL    HW231053   4.704   2.888   1.049 -0.3080 -0.9408 -0.0768
10052SOL     OW31054   3.113   4.492   0.830  0.7362 -0.4934 -0.3057
10052SOL    HW131055   3.210   4.490   0.854  1.3390 -0.8636 -2.5761
10052SOL    HW231056   3.102   4.539   0.743 -1.1450 -0.5013 -0.0994
10053SOL     OW31057   3.004   0.909   2.446  0.1837  0.2858  0.2544
10053SOL    HW131058   2.997   0.813   2.422  1.8522  0.3735 -0.7265
10053SOL    HW231059   3.100   0.933   2.464 -0.2648  1.6371  1.0670
10054SOL     OW31060   5.889   5.295   4.538 -0.0024 -0.2364 -0.5130
10054SOL    HW131061   5.949   5.354   4.484 -0.2412  0.6535  0.1691
10054SOL    HW231062   5.891   5.202   4.501  0.1610  0.2560 -1.7828
10055SOL     OW31063   0.723   1.641   6.897  0.5233  0.1158  0.3936
10055SOL    HW131064   0.736   1.651   6.996 -1.6142  0.2656  0.7134
10055SOL    HW231065   0.765   1.719   6.850 -2.2804  2.5295  1.6047
10056SOL     OW31066   5.140   3.988   4.127  0.1209  0.0607 -0.5835
10056SOL    HW131067   5.091   4.047   4.062  1.7554  1.6307 -0.4491
10056SOL    HW231068   5.125   4.021   4.220  0.7474  0.0610 -0.4782
10057SOL     OW31069   2.359   1.502   1.773  0.3798  0.5670  0.0461
10057SOL    HW131070   2.413   1.508   1.857  0.0179 -1.5784  0.4981
10057SOL    HW231071   2.291   1.429   1.782 -0.3052  0.9187 -1.7716
10058SOL     OW31072   2.248   4.393   2.704  0.0718  0.1657 -0.0984
10058SOL    HW131073   2.255   4.298   2.736  0.0045  0.3256  0.4054
10058SOL    HW231074   2.281   4.455   2.776  0.3172  0.5143 -0.5058
10059SOL     OW31075   4.082   5.296   2.585 -0.3781 -0.1013  0.6772
10059SOL    HW131076   4.141   5.332   2.513  0.6015 -0.3041  1.3549
10059SOL    HW231077   4.000   5.352   2.592 -0.5017 -0.0947 -0.6064
10060SOL     OW31078   2.442   2.423   3.130 -0.1717  0.0154 -0.2811
10060SOL    HW131079   2.357   2.474   3.118  0.1461  0.4850 -0.5475
10060SOL    HW231080   2.495   2.426   3.046  0.4347  0.3177  0.1103
10061SOL     OW31081   1.245   1.621   6.125  0.3716  0.1631 -0.5440
10061SOL    HW131082   1.191   1.555   6.073 -0.6369 -0.6498  1.4522
10061SOL    HW231083   1.341   1.615   6.097 -0.0575 -0.5898 -1.9351
10062SOL     OW31084   6.349   6.643   2.517 -0.5937  0.6529 -0.3821
10062SOL    HW131085   6.374   6.651   2.421 -0.5524  1.0589 -0.3391
10062SOL    HW231086   6.429   6.662   2.574 -0.8725  1.4727 -0.2524
10063SOL     OW31087   0.798   3.305   3.310 -0.0178  0.0175 -0.0972
10063SOL    HW131088   0.748   3.241   3.251  0.1543  0.1504 -0.3925
10063SOL    HW231089   0.749   3.316   3.396 -0.1371 -0.3828 -0.1107
10064SOL     OW31090   6.431   5.282   4.474  0.2796 -0.1700  0.0501
10064SOL    HW131091   6.517   5.297   4.424  0.0172  0.5979 -0.1783
10064SOL    HW231092   6.380   5.208   4.430  0.7313 -0.5117  0.0815
10065SOL     OW31093   0.617   0.520   3.022  0.8715 -0.3526  0.2718
10065SOL    HW131094   0.673   0.441   2.995  0.7373  0.0549 -1.2979
10065SOL    HW231095   0.670   0.604   3.010  0.1415 -0.0080 -0.7145
10066SOL     OW31096   6.583   6.527   4.579  0.4748 -0.1229  0.0939
10066SOL    HW131097   6.547   6.435   4.591  0.0467  0.0388  0.0442
10066SOL    HW231098   6.585   6.574   4.667 -0.8823  0.4016 -0.1422
10067SOL     OW31099   6.531   0.223   2.060 -0.3803  0.4392  0.5007
10067SOL    HW131100   6.609   0.255   2.113  1.1154 -0.5279 -1.0185
10067SOL    HW231101   6.517   0.284   1.981 -0.5626  0.0773  0.2482
10068SOL     OW31102   5.966   3.596   5.521 -0.0877 -0.7726  0.0276
10068SOL    HW131103   5.914   3.586   5.606  0.4897 -0.3300  0.4422
10068SOL    HW231104   5.903   3.591   5.443 -0.5840 -1.4915  0.4576
10069SOL     OW31105   5.061   6.817   4.677  1.0339 -0.2538 -0.1693
10069SOL    HW131106   4.992   6.745   4.680  0.5827  0.1941  1.0727
10069SOL    HW231107   5.144   6.786   4.722  1.0170 -0.1871 -0.0903
10070SOL     OW31108   0.921   6.724   3.176 -0.2409  0.0112 -0.2022
10070SOL    HW131109   0.966   6.811   3.157 -0.8408  0.2518 -0.5520
10070SOL    HW231110   0.891   6.682   3.091  0.2838 -0.6810 -0.0621
10071SOL     OW31111   4.740   4.047   6.193 -0.1566  0.0806  0.1300
10071SOL    HW131112   4.752   4.138   6.153 -1.4387 -0.4487 -1.5969
10071SOL    HW231113   4.830   4.006   6.210  0.4361  1.0516 -0.5535
10072SOL     OW31114   5.601   6.007   5.651  0.1886 -0.6729  0.1821
10072SOL    HW131115   5.615   6.071   5.726 -0.6197  0.5615 -0.6798
10072SOL    HW231116   5.610   6.055   5.564  0.1131 -1.8587 -0.5119
10073SOL     OW31117   6.323   1.307   0.345  0.5880  0.6137 -0.6992
10073SOL    HW131118   6.252   1.373   0.318  0.2298  1.1806  1.4805
10073SOL    HW231119   6.282   1.236   0.402  1.1655 -0.9936 -2.2071
10074SOL     OW31120   0.805   6.485   2.631 -0.2188 -0.8048  0.6920
10074SOL    HW131121   0.729   6.492   2.566  0.4525 -0.8017 -0.1121
10074SOL    HW231122   0.780   6.423   2.705 -0.8044 -1.2326  0.1474
10075SOL     OW31123   2.087   1.324   3.406  0.0983  0.2405  0.2161
10075SOL    HW131124   2.008   1.302   3.462  0.0594 -1.3993 -0.4343
10075SOL    HW231125   2.103   1.423   3.408 -0.6596  0.3548  2.0502
10076SOL     OW31126   4.497   6.713   2.004 -1.2481 -0.1989  0.1304
10076SOL    HW131127   4.404   6.678   1.995 -1.0255 -0.5897 -0.7178
10076SOL    HW231128   4.561   6.650   1.961 -0.4616 -0.4510  1.6166
10077SOL     OW31129   3.269   0.612   3.812 -0.2959 -0.2790 -0.0071
10077SOL    HW131130   3.339   0.672   3.850 -2.3462  1.8187  0.7298
10077SOL    HW231131   3.312   0.541   3.757  2.3099  2.8009 -2.3879
10078SOL     OW31132   6.629   6.154   5.624  0.0943  0.0306 -0.5316
10078SOL    HW131133   6.586   6.140   5.535  0.2819  0.4172 -0.6856
10078SOL    HW231134   6.621   6.250   5.650  0.3957 -0.0008 -0.3195
10079SOL     OW31135   0.998   2.759   6.054 -0.0020 -0.0735 -0.1817
10079SOL    HW131136   0.970   2.819   6.129 -0.4363  0.7824 -0.9993
10079SOL    HW231137   1.084   2.714   6.077 -0.0610  0.2823  0.7722
10080SOL     OW31138   6.920   2.446   6.893 -0.1387  0.1521 -0.3515
10080SOL    HW131139   6.923   2.347   6.908 -1.4073  0.1131 -0.3046
10080SOL    HW231140   6.989   2.470   6.824  0.4916 -0.6907 -0.0383
10081SOL     OW31141   1.060   6.987   6.895  0.4484  0.6677  0.1147
10081SOL    HW131142   1.035   6.947   6.807  0.1558  1.5980 -0.2366
10081SOL    HW231143   1.036   6.924   6.968 -0.8551  0.5693 -0.3699
10082SOL     OW31144   6.280   2.232   0.338 -0.2569  0.1019  0.2404
10082SOL    HW131145   6.296   2.232   0.437 -0.4034 -0.1873  0.2643
10082SOL    HW231146   6.235   2.317   0.311  0.5509  0.5548  0.2970
10083SOL     OW31147   4.089   1.628   4.688 -0.0176 -0.0146  0.1189
10083SOL    HW131148   4.164   1.612   4.623  0.2221 -1.6496  0.7581
10083SOL    HW231149   4.126   1.640   4.780 -0.5269 -0.6569  0.4106
10084SOL     OW31150   3.226   2.550   0.546  0.6457 -0.5387  0.1488
10084SOL    HW131151   3.288   2.576   0.472  0.9219  1.1660  0.9204
10084SOL    HW231152   3.233   2.617   0.620 -2.9352  0.4377 -0.1808
10085SOL     OW31153   6.784   5.632   2.026  0.7656  0.2926  0.1467
10085SOL    HW131154   6.876   5.602   2.000  0.5585  0.1095 -0.3882
10085SOL    HW231155   6.752   5.702   1.962  0.1455 -0.3593 -0.2814
10086SOL     OW31156   0.043   3.143   2.121  0.0297 -0.0580 -0.0800
10086SOL    HW131157   0.030   3.182   2.212 -1.2219  0.0104 -0.2696
10086SOL    HW231158  -0.016   3.064   2.110 -2.3037  1.8061 -1.9069
10087SOL     OW31159   1.367   6.566   3.082 -0.1694 -0.4418 -0.2199
10087SOL    HW131160   1.436   6.493   3.092 -0.8411 -1.0552  0.0076
10087SOL    HW231161   1.290   6.532   3.029 -1.4852 -0.6135  1.6900
10088SOL     OW31162   6.127   4.865   5.121  0.0281 -0.1684  0.4267
10088SOL    HW131163   6.089   4.783   5.079 -0.1370 -0.1223  0.4851
10088SOL    HW231164   6.073   4.890   5.201  0.0811 -0.0056  0.4124
10089SOL     OW31165   1.634   3.506   2.967 -0.3148 -0.1065  0.2433
10089SOL    HW131166   1.663   3.481   3.060  0.0971 -2.0652 -0.3694
10089SOL    HW231167   1.534   3.515   2.965 -0.2660  0.8258  1.0499
10090SOL     OW31168   0.950   5.778   1.923 -0.3473  0.1795 -0.3193
10090SOL    HW131169   0.982   5.733   1.839 -2.4278 -0.3043 -0.9159
10090SOL    HW231170   1.018   5.766   1.995 -0.4236 -3.2524 -0.6699
10091SOL     OW31171   0.528   1.468   3.807  0.2428  0.5501  0.0755
10091SOL    HW131172   0.535   1.469   3.907 -0.6579  0.7475  0.1526
10091SOL    HW231173   0.500   1.378   3.776 -0.8623  0.8585  0.1303
10092SOL     OW31174   3.049   3.770   5.212  0.0537 -0.3807 -0.0806
10092SOL    HW131175   3.050   3.689   5.154 -0.7397 -1.5731  1.5095
10092SOL    HW231176   2.987   3.838   5.172  1.1426 -0.2757 -1.7139
10093SOL     OW31177   1.124   0.922   5.855  0.4626 -0.2919 -0.3704
10093SOL    HW131178   1.218   0.936   5.826  0.7064 -0.5939  0.2524
10093SOL    HW231179   1.076   0.864   5.789 -0.2761  2.5101 -2.4651
10094SOL     OW31180   1.567   0.564   0.478  0.3507 -0.2287  0.6941
10094SOL    HW131181   1.576   0.465   0.489 -0.2386 -0.3348  0.2766
10094SOL    HW231182   1.651   0.601   0.438  1.3140 -0.2694  2.6002
10095SOL     OW31183   0.924   4.179   4.525 -0.1059  0.8095  0.2543
10095SOL    HW131184   0.881   4.089   4.516 -0.8445  1.1863 -0.0993
10095SOL    HW231185   0.957   4.191   4.618 -2.7596  1.3475  1.2246
10096SOL     OW31186   6.645   4.607   2.765 -0.3964  0.1124  0.2255
10096SOL    HW131187   6.595   4.599   2.679  0.7241  0.6350 -0.4990
10096SOL    HW231188   6.701   4.525   2.779 -1.1878 -0.3261  0.8662
10097SOL     OW31189   0.279   2.603   5.898  0.1294  0.0734  0.3299
10097SOL    HW131190   0.236   2.540   5.833 -0.0444  1.3746 -0.8823
10097SOL    HW231191   0.257   2.575   5.991 -0.5791 -1.1992 -0.1952
10098SOL     OW31192   5.001   5.158   0.672  0.1075  0.7011 -0.0925
10098SOL    HW131193   5.042   5.093   0.736 -2.8591 -1.1149  0.1667
10098SOL    HW231194   5.066   5.180   0.600  1.7930 -1.3046  0.7149
10099SOL     OW31195   0.584   3.454   4.743  0.5037  0.4133 -0.3598
10099SOL    HW131196   0.664   3.395   4.748  0.8193  0.9026  0.7753
10099SOL    HW231197   0.591   3.513   4.662  1.6535  0.9334  0.0930
10100SOL     OW31198   5.022   0.931   5.940 -0.2489  0.2806  0.2142
10100SOL    HW131199   4.960   1.008   5.955 -2.2171 -0.4946 -3.0580
10100SOL    HW231200   4.969   0.848   5.924  1.7150 -0.9501 -0.2898
10101SOL     OW31201   0.141   3.718   3.018  0.5263  0.2340  0.1982
10101SOL    HW131202   0.173   3.720   3.113  1.5597 -1.4973 -0.0731
10101SOL    HW231203   0.218   3.700   2.957 -0.0133  1.8978 -1.0688
10102SOL     OW31204   4.782   0.698   3.330  0.3757 -0.1160  0.0375
10102SOL    HW131205   4.817   0.781   3.286  0.4550 -0.9955 -1.6312
10102SOL    HW231206   4.805   0.618   3.275 -3.6484 -0.8520 -0.9056
10103SOL     OW31207   0.698   2.666   1.683 -0.3834  0.0930 -0.4978
10103SOL    HW131208   0.752   2.748   1.704 -0.7634 -0.2232  2.1110
10103SOL    HW231209   0.618   2.693   1.630 -0.5541  1.4729  0.3869
10104SOL     OW31210   3.801   5.060   4.784  0.5983  0.2524 -0.0919
10104SOL    HW131211   3.869   5.125   4.750  0.9727 -0.4050 -0.6324
10104SOL    HW231212   3.731   5.046   4.715  0.1360  0.6090  0.3010
10105SOL     OW31213   5.217   1.625   6.718 -0.0705  0.2939 -0.1779
10105SOL    HW131214   5.125   1.646   6.685  0.6446  0.4550 -2.2077
10105SOL    HW231215   5.260   1.707   6.754 -0.4968  0.3467  0.2122
10106SOL     OW31216   5.184   4.408   1.081 -0.0087  0.0121 -0.1201
10106SOL    HW131217   5.176   4.317   1.124  2.0825 -1.6192 -2.8058
10106SOL    HW231218   5.105   4.425   1.024 -0.7624  0.2360  0.9702
10107SOL     OW31219   5.542   3.296   3.864 -0.2347  0.0379 -0.3781
10107SOL    HW131220   5.464   3.356   3.848 -0.6059 -0.4134 -0.2708
10107SOL    HW231221   5.540   3.262   3.958  0.1975  0.1753 -0.3138
10108SOL     OW31222   5.145   6.081   4.980  0.2514 -0.1835 -0.5854
10108SOL    HW131223   5.238   6.051   4.962  1.3262  1.5015  1.7105
10108SOL    HW231224   5.140   6.181   4.974 -1.0229 -0.1195  0.8068
10109SOL     OW31225   3.325   5.486   4.649 -0.2174 -0.3935  0.2128
10109SOL    HW131226   3.357   5.526   4.735  0.1086  1.8080 -0.8343
10109SOL    HW231227   3.404   5.471   4.589 -0.6915  1.3371 -0.9240
10110SOL     OW31228   3.108   3.725   5.567  0.1935 -0.1981 -0.2055
10110SOL    HW131229   3.011   3.750   5.569 -0.0743 -1.1855  1.6755
10110SOL    HW231230   3.154   3.777   5.496 -1.0754  2.7179  0.9292
10111SOL     OW31231   5.396   3.435   2.992 -0.2448 -0.0229  0.3184
10111SOL    HW131232   5.370   3.457   3.087 -0.9634  0.9399 -0.0778
10111SOL    HW231233   5.456   3.507   2.957 -1.3419  0.5186 -0.4914
10112SOL     OW31234   5.879   3.947   5.538  0.2309 -0.5087  0.6457
10112SOL    HW131235   5.892   3.901   5.450 -1.2275  0.7284 -0.2780
10112SOL    HW231236   5.822   3.891   5.597  0.5053 -0.9764  0.4672
10113SOL     OW31237   3.251   6.973   0.372  0.0328  0.3319  0.1556
10113SOL    HW131238   3.298   7.000   0.288  0.1523 -0.8018 -0.1690
10113SOL    HW231239   3.282   7.031   0.448 -0.3674  1.6246 -0.6412
10114SOL     OW31240   4.397   1.703   3.251 -0.5456  0.1541 -0.3049
10114SOL    HW131241   4.323   1.683   3.315  1.1584  0.2404  1.8230
10114SOL    HW231242   4.467   1.632   3.256 -0.9635 -0.5900 -3.1878
10115SOL     OW31243   1.548   0.985   6.841 -0.4720  0.1556 -0.6661
10115SOL    HW131244   1.638   0.947   6.861 -0.2880  1.5711  1.5789
10115SOL    HW231245   1.543   1.011   6.745  1.3177 -0.4381 -0.9541
10116SOL     OW31246   0.895   0.988   2.806 -0.2654  0.1834 -0.5264
10116SOL    HW131247   0.885   1.009   2.708  0.3857 -0.6336 -0.7814
10116SOL    HW231248   0.884   0.890   2.820 -1.0630  0.3804  0.3346
10117SOL     OW31249   5.191   6.223   5.635  0.5848 -0.1022  0.1445
10117SOL    HW131250   5.172   6.125   5.639 -1.5851  0.2480 -0.1217
10117SOL    HW231251   5.171   6.265   5.723 -0.0479  0.3175 -0.1852
10118SOL     OW31252   6.030   2.264   2.098 -0.1124 -0.6801  0.4771
10118SOL    HW131253   5.996   2.310   2.016  1.4532 -1.1292 -0.4720
10118SOL    HW231254   5.963   2.195   2.127 -0.8588 -0.2547 -0.1768
10119SOL     OW31255   1.484   1.192   4.979  0.0349  0.0989 -0.0442
10119SOL    HW131256   1.458   1.108   4.931  0.5630 -0.5713  0.7992
10119SOL    HW231257   1.416   1.263   4.961 -0.1910 -0.3673 -1.1234
10120SOL     OW31258   5.109   4.007   4.746 -0.2786  0.3080 -0.2970
10120SOL    HW131259   5.121   4.080   4.679  0.2641  0.9351  0.4817
10120SOL    HW231260   5.017   3.968   4.735 -1.0369  1.9098  0.0711
10121SOL     OW31261   0.751   4.353   3.735  0.6047  0.0726 -0.1132
10121SOL    HW131262   0.699   4.386   3.814 -0.2669 -1.9054  0.1976
10121SOL    HW231263   0.848   4.347   3.760  0.3802 -0.2485  0.7308
10122SOL     OW31264   5.156   1.591   3.226  0.3128  0.6465 -0.1233
10122SOL    HW131265   5.149   1.624   3.132  1.1422  0.6548 -0.1935
10122SOL    HW231266   5.106   1.505   3.235  0.5801  0.4226 -0.6914
10123SOL     OW31267   2.535   6.393   1.970  0.8064  0.1844  0.2122
10123SOL    HW131268   2.494   6.468   2.021  0.6765  0.0896  0.2454
10123SOL    HW231269   2.485   6.379   1.884  1.0477  0.3685  0.0391
10124SOL     OW31270   4.583   4.824   1.659  0.0571  0.4574  0.0370
10124SOL    HW131271   4.534   4.901   1.699  2.1435  2.1504 -0.4623
10124SOL    HW231272   4.634   4.776   1.731 -0.3349  0.2504  0.1781
10125SOL     OW31273   2.989   2.497   1.032  0.3363 -0.0196 -0.0516
10125SOL    HW131274   2.919   2.427   1.018  0.0747  0.1886  0.1925
10125SOL    HW231275   3.071   2.473   0.981  0.3153 -0.6016  0.1748
10126SOL     OW31276   0.339   3.935   6.480 -0.8313 -0.0283  0.1570
10126SOL    HW131277   0.399   3.876   6.426 -0.5711 -0.1552  0.5743
10126SOL    HW231278   0.331   3.898   6.573  0.8314  1.5489  1.0054
10127SOL     OW31279   5.507   4.845   5.702 -0.1261 -0.4102 -0.0037
10127SOL    HW131280   5.537   4.855   5.607  0.1417 -1.3740 -0.0286
10127SOL    HW231281   5.539   4.924   5.755  1.0549 -0.6119 -0.3879
10128SOL     OW31282   2.114   2.519   1.436  0.7792 -0.3754  0.2171
10128SOL    HW131283   2.209   2.521   1.466  1.3991  3.1543 -1.4870
10128SOL    HW231284   2.109   2.483   1.343  0.8187  1.2510 -0.4556
10129SOL     OW31285   6.009   1.768   3.200  0.2175  0.0789  0.1551
10129SOL    HW131286   6.102   1.778   3.163 -0.3217  0.1139 -1.2449
10129SOL    HW231287   5.944   1.808   3.136 -0.8826 -1.1124  0.5024
10130SOL     OW31288   6.557   4.406   0.029  0.3925 -0.2932 -0.1830
10130SOL    HW131289   6.468   4.384  -0.011  0.8079  0.7449 -1.7725
10130SOL    HW231290   6.551   4.493   0.079  0.1557 -1.0241  1.1170
10131SOL     OW31291   1.262   1.279   0.134 -0.2916 -0.3627 -0.3663
10131SOL    HW131292   1.288   1.184   0.144 -0.7639 -0.5107 -0.5071
10131SOL    HW231293   1.271   1.307   0.038  0.1430 -0.1746 -0.2737
10132SOL     OW31294   2.248   5.325   3.107 -0.7297 -0.8832 -0.2852
10132SOL    HW131295   2.286   5.235   3.128  0.3357 -0.6228 -1.0014
10132SOL    HW231296   2.198   5.360   3.187 -1.2629 -2.1485 -0.0432
10133SOL     OW31297   5.301   2.963   1.876  0.0629 -0.9180  0.3355
10133SOL    HW131298   5.251   2.981   1.961  0.0787 -0.1278  0.1917
10133SOL    HW231299   5.395   2.995   1.887 -0.2632  0.3595 -0.3867
10134SOL     OW31300   0.522   3.231   2.894 -0.2070  0.5592  0.6206
10134SOL    HW131301   0.562   3.305   2.948  0.4564 -0.0143  0.9365
10134SOL    HW231302   0.463   3.269   2.823 -0.2727  1.3634  1.0999
10135SOL     OW31303   3.720   6.976   2.160  0.1109 -0.3023 -0.2450
10135SOL    HW131304   3.643   6.981   2.224 -0.5557 -3.6542 -0.5721
10135SOL    HW231305   3.685   6.957   2.068  1.2613 -1.3549 -0.4909
10136SOL     OW31306   5.260   6.360   2.846  0.0543  0.8670 -0.0230
10136SOL    HW131307   5.210   6.346   2.932 -0.4212 -2.4748 -0.7066
10136SOL    HW231308   5.213   6.429   2.791 -1.7847  0.4007  0.8680
10137SOL     OW31309   5.101   4.936   4.079  0.9584 -0.1971  0.8395
10137SOL    HW131310   5.045   4.987   4.144 -0.1132 -1.6848  1.1239
10137SOL    HW231311   5.087   4.972   3.987 -0.6047 -0.6332  0.8819
10138SOL     OW31312   5.596   2.152   6.356 -0.3881  0.0492  0.2903
10138SOL    HW131313   5.581   2.244   6.319 -1.8547  0.0824  0.9011
10138SOL    HW231314   5.643   2.096   6.288  0.8910  1.3391  0.0428
10139SOL     OW31315   2.961   3.351   3.778 -0.0455  0.0361  0.9365
10139SOL    HW131316   3.060   3.345   3.785 -0.1024 -0.7555  1.2140
10139SOL    HW231317   2.933   3.332   3.684 -0.0308 -1.5999  1.2259
10140SOL     OW31318   6.060   4.925   3.941 -0.5417 -0.0235  0.0334
10140SOL    HW131319   5.975   4.886   3.905  0.2067 -1.0358 -0.7281
10140SOL    HW231320   6.131   4.854   3.941  1.0101  1.4000 -1.7780
10141SOL     OW31321   1.066   0.967   3.225 -0.0660 -0.1299  0.0179
10141SOL    HW131322   1.132   0.917   3.168 -0.4380  0.0877 -0.6167
10141SOL    HW231323   0.973   0.940   3.199 -0.3639  2.2044 -1.6282
10142SOL     OW31324   0.225   6.504   3.257 -0.0351  0.4293  0.4269
10142SOL    HW131325   0.177   6.435   3.203 -0.3486 -0.0933  1.3354
10142SOL    HW231326   0.314   6.468   3.285  0.6980  1.2027 -0.8283
10143SOL     OW31327   5.176   6.103   2.348  0.1666  0.0693  0.4508
10143SOL    HW131328   5.270   6.127   2.327 -0.4833  2.5167  0.0263
10143SOL    HW231329   5.160   6.007   2.324  2.0324  0.1112 -1.2307
10144SOL     OW31330   2.445   6.235   4.749  0.5702 -0.3088 -0.6576
10144SOL    HW131331   2.499   6.296   4.692  0.1689 -0.9047 -1.6992
10144SOL    HW231332   2.354   6.224   4.709  0.5099 -1.2763 -0.2823
10145SOL     OW31333   3.495   0.128   6.149  0.2744 -0.0231 -0.0704
10145SOL    HW131334   3.558   0.195   6.110 -1.0945 -0.3430 -3.1178
10145SOL    HW231335   3.405   0.170   6.162 -0.2227 -0.8703 -0.6728
10146SOL     OW31336   5.110   4.287   3.213 -0.2524 -0.2762 -0.0471
10146SOL    HW131337   5.145   4.204   3.256 -4.1891 -1.7686  0.7439
10146SOL    HW231338   5.089   4.269   3.117  1.1292  0.6136 -0.5403
10147SOL     OW31339   4.838   4.109   3.435  0.4289  0.0948 -0.2713
10147SOL    HW131340   4.840   4.016   3.398  0.7205 -0.2326  0.5402
10147SOL    HW231341   4.794   4.108   3.525  0.6005  0.7143 -0.1752
10148SOL     OW31342   4.848   0.018   2.733 -0.2584 -0.4428  0.0089
10148SOL    HW131343   4.885  -0.047   2.800  0.6537 -1.9481 -1.8419
10148SOL    HW231344   4.862   0.111   2.766  1.5583 -1.0774  1.2243
10149SOL     OW31345   4.092   1.992   1.333  0.4563 -0.1393 -0.6986
10149SOL    HW131346   4.002   2.029   1.310  0.4055 -0.5243 -1.1389
10149SOL    HW231347   4.124   2.033   1.418 -1.5774 -2.2706  1.2645
10150SOL     OW31348   5.983   0.559   0.467 -0.2844  0.0518  0.1647
10150SOL    HW131349   5.940   0.546   0.378  0.8815  0.9022 -0.5525
10150SOL    HW231350   6.011   0.470   0.504 -0.7750 -0.3042 -0.2991
10151SOL     OW31351   6.554   2.823   5.003 -0.6097 -0.1044  0.2766
10151SOL    HW131352   6.640   2.796   5.046  0.4362 -0.9105 -2.1082
10151SOL    HW231353   6.529   2.915   5.032  2.5688  1.2952 -0.9654
10152SOL     OW31354   0.397   5.215   5.666 -0.6099  0.0159 -0.3846
10152SOL    HW131355   0.432   5.143   5.605  0.4497  0.8573 -0.7880
10152SOL    HW231356   0.347   5.173   5.742  1.0810 -1.2258  0.0967
10153SOL     OW31357   4.974   0.604   4.080  0.7038  0.3846  0.1136
10153SOL    HW131358   5.004   0.617   3.985 -1.4923  2.2373 -0.4151
10153SOL    HW231359   4.912   0.526   4.084  1.2675 -0.0732  0.1818
10154SOL     OW31360   1.386   0.115   4.596  0.4106  0.1880  0.0215
10154SOL    HW131361   1.329   0.101   4.516 -1.2632 -0.5703  1.3003
10154SOL    HW231362   1.393   0.030   4.648 -0.9979  1.3240  2.2055
10155SOL     OW31363   5.282   1.346   5.015 -0.2450  0.3824 -0.7217
10155SOL    HW131364   5.339   1.424   5.040 -2.3745  0.9666  3.0547
10155SOL    HW231365   5.333   1.261   5.033  0.7504  0.8566 -1.2015
10156SOL     OW31366   4.725   6.066   2.186  0.5192 -0.4282 -0.3013
10156SOL    HW131367   4.643   6.042   2.134  0.5379  0.3175 -0.6854
10156SOL    HW231368   4.720   6.163   2.213 -0.0221 -1.0455  2.0411
10157SOL     OW31369   4.705   0.445   2.917  0.8385 -0.3874 -0.2473
10157SOL    HW131370   4.731   0.462   2.822  0.7385 -0.1105 -0.2252
10157SOL    HW231371   4.625   0.500   2.941  1.7030  0.6163  0.4164
10158SOL     OW31372   5.068   3.463   6.420 -0.1824 -0.2579 -0.0477
10158SOL    HW131373   5.047   3.370   6.390 -0.5263  0.2499 -1.4383
10158SOL    HW231374   5.123   3.459   6.503 -0.0637 -1.7062 -0.1718
10159SOL     OW31375   1.047   0.252   6.641 -0.4534 -0.9072 -0.3925
10159SOL    HW131376   0.982   0.179   6.619 -2.4033  0.6655 -0.0322
10159SOL    HW231377   1.056   0.260   6.740 -0.9396 -0.0938 -0.4064
10160SOL     OW31378   0.107   1.304   2.550 -0.5762  0.8927  0.2605
10160SOL    HW131379   0.077   1.392   2.514 -0.5777  0.5888 -0.5129
10160SOL    HW231380   0.056   1.282   2.633  0.1577  2.0884  1.0533
10161SOL     OW31381   2.463   6.210   5.029  0.1143 -0.2466  0.5461
10161SOL    HW131382   2.380   6.265   5.037  0.0871 -0.3567  1.0440
10161SOL    HW231383   2.491   6.206   4.934  0.7353  1.5556  0.6223
10162SOL     OW31384   1.328   1.989   6.232  0.0624 -0.3652 -0.5012
10162SOL    HW131385   1.292   2.057   6.168 -0.6886  1.0267  1.3178
10162SOL    HW231386   1.257   1.921   6.252 -0.5749  0.6290  0.7294
10163SOL     OW31387   1.380   3.614   3.416  0.4355 -0.0577 -0.1962
10163SOL    HW131388   1.432   3.688   3.372  0.7639 -0.5951 -0.7241
10163SOL    HW231389   1.339   3.648   3.501  1.5929  0.3946  0.1934
10164SOL     OW31390   2.016   4.037   5.897  0.5551 -0.1583 -0.0636
10164SOL    HW131391   1.940   4.056   5.836  1.3313  2.1821 -0.3939
10164SOL    HW231392   2.020   3.939   5.915 -2.5890 -0.3572  0.1159
10165SOL     OW31393   6.233   1.423   1.956  0.3005  0.5459 -0.8460
10165SOL    HW131394   6.177   1.340   1.962  0.5629  0.4387  0.3770
10165SOL    HW231395   6.328   1.401   1.978 -0.1121  1.6308  2.5179
10166SOL     OW31396   2.117   0.463   1.921 -0.3211 -0.5954  0.2436
10166SOL    HW131397   2.035   0.459   1.864 -1.4585 -1.3111  1.8242
10166SOL    HW231398   2.118   0.383   1.982 -0.0486  0.9238  2.3319
10167SOL     OW31399   5.617   6.042   1.456  0.1643  0.4119 -0.1373
10167SOL    HW131400   5.614   6.115   1.388 -2.4178  0.2724 -0.2982
10167SOL    HW231401   5.564   6.070   1.536 -0.1137 -0.9134  0.1616
10168SOL     OW31402   1.300   5.009   5.276  0.4125 -0.3359  0.1842
10168SOL    HW131403   1.340   4.963   5.356 -0.7143 -1.4800  0.1196
10168SOL    HW231404   1.207   4.974   5.260 -0.5044  1.9444  0.1032
10169SOL     OW31405   6.687   5.029   5.817  0.4475  0.0954 -0.4315
10169SOL    HW131406   6.773   4.989   5.785  1.2090 -0.3759  2.0040
10169SOL    HW231407   6.696   5.129   5.820 -0.1241  0.2783 -2.8385
10170SOL     OW31408   1.081   5.473   4.329 -0.3162  0.0562  0.5565
10170SOL    HW131409   1.140   5.393   4.344 -1.4889 -1.6063 -2.5251
10170SOL    HW231410   0.994   5.460   4.377 -0.5981 -0.7163 -0.1290
10171SOL     OW31411   4.964   3.784   6.638 -0.5131  0.0780 -0.0397
10171SOL    HW131412   4.916   3.839   6.569 -0.8842 -1.1071 -0.7483
10171SOL    HW231413   5.062   3.784   6.618 -0.5328  0.3113 -0.1446
10172SOL     OW31414   4.787   5.820   6.417  0.3889  0.3634 -0.6481
10172SOL    HW131415   4.848   5.808   6.495  0.1266  0.2079 -0.4671
10172SOL    HW231416   4.785   5.917   6.391 -1.7222  0.9141  1.3454
10173SOL     OW31417   6.550   2.396   1.445 -0.7501 -0.3657  0.4845
10173SOL    HW131418   6.512   2.376   1.535 -1.3452 -1.7944 -0.0522
10173SOL    HW231419   6.650   2.392   1.448 -0.7644 -0.2818  1.1033
10174SOL     OW31420   0.884   4.198   0.729 -0.3049 -0.0096  0.6236
10174SOL    HW131421   0.829   4.115   0.731 -0.4530  0.0949  1.8238
10174SOL    HW231422   0.965   4.185   0.786  0.0425  0.4265  0.2383
10175SOL     OW31423   6.903   2.059   6.311 -0.3993 -0.6515  0.5440
10175SOL    HW131424   6.807   2.055   6.281 -0.0933  2.2161 -1.2373
10175SOL    HW231425   6.957   1.993   6.259 -0.8721  0.2565 -1.1761
10176SOL     OW31426   2.141   2.158   0.658  0.4645 -0.3510 -0.0000
10176SOL    HW131427   2.110   2.096   0.731  0.7784 -0.3095  0.1683
10176SOL    HW231428   2.188   2.105   0.587  0.8863 -0.2820  0.2285
10177SOL     OW31429   0.099   0.173   6.145  0.4161 -0.2673 -0.4234
10177SOL    HW131430   0.123   0.077   6.162 -0.2018 -0.4907 -0.7633
10177SOL    HW231431   0.085   0.219   6.233  0.8159 -0.4550 -0.2534
10178SOL     OW31432   6.818   3.710   5.005 -0.1996  0.3976 -0.2956
10178SOL    HW131433   6.807   3.737   5.101 -0.5040  0.5222 -0.3669
10178SOL    HW231434   6.783   3.782   4.945 -1.6760 -0.4262 -0.4787
10179SOL     OW31435   0.366   3.529   0.250 -0.4036 -0.4281  0.0027
10179SOL    HW131436   0.338   3.467   0.176  0.2155  1.6111 -2.0650
10179SOL    HW231437   0.409   3.611   0.210  2.4820 -0.4292  2.7333
10180SOL     OW31438   2.036   5.754   6.419  0.1425  0.6118 -0.0843
10180SOL    HW131439   2.091   5.678   6.453  0.2140  0.4199 -0.6204
10180SOL    HW231440   2.070   5.840   6.458 -0.1096  0.3510  0.7417
10181SOL     OW31441   4.990   2.845   3.005 -0.5620  0.5387 -0.1761
10181SOL    HW131442   4.940   2.767   3.043 -1.1106  1.1712  0.4526
10181SOL    HW231443   4.925   2.907   2.961 -0.4042  1.5033  0.8820
10182SOL     OW31444   5.085   6.383   0.434  0.0767  0.0128 -0.2985
10182SOL    HW131445   5.113   6.363   0.528  0.3465  1.0084 -0.1551
10182SOL    HW231446   5.150   6.342   0.371  0.3262 -0.0035 -0.0336
10183SOL     OW31447   0.282   1.760   6.079 -0.5663  0.3868 -0.0879
10183SOL    HW131448   0.379   1.776   6.100 -0.6863  2.1865 -0.6929
10183SOL    HW231449   0.269   1.666   6.049  0.9213 -0.0013  0.4144
10184SOL     OW31450   4.572   5.917   0.123 -0.8593  0.1591  0.2109
10184SOL    HW131451   4.524   5.837   0.086 -0.5747  0.8131 -1.6684
10184SOL    HW231452   4.649   5.886   0.179 -1.9802 -0.8743  1.2299
10185SOL     OW31453   5.468   4.641   6.478 -0.1775  0.3511  0.2849
10185SOL    HW131454   5.525   4.699   6.535 -0.2177  0.6473  0.0300
10185SOL    HW231455   5.467   4.677   6.384 -2.0198  1.2623  0.6094
10186SOL     OW31456   3.379   1.438   3.692 -0.7837  0.3434  0.6083
10186SOL    HW131457   3.414   1.527   3.660 -0.6220  1.2136  3.0007
10186SOL    HW231458   3.395   1.369   3.622  3.9014  1.0845  0.6424
10187SOL     OW31459   1.049   2.352   2.700 -0.5924 -0.1345 -0.0200
10187SOL    HW131460   1.043   2.449   2.680 -1.9076 -0.2755 -0.4131
10187SOL    HW231461   1.022   2.336   2.796 -2.5075 -0.2995 -0.5415
10188SOL     OW31462   2.756   5.541   4.847 -0.4003  0.6913  0.0646
10188SOL    HW131463   2.819   5.466   4.867  0.1398  0.3469 -2.5840
10188SOL    HW231464   2.668   5.503   4.819 -0.8014  1.1141  0.7308
10189SOL     OW31465   6.761   0.530   4.932  0.2051 -0.4299  0.2357
10189SOL    HW131466   6.795   0.438   4.950  0.0030 -0.5681 -0.0747
10189SOL    HW231467   6.820   0.575   4.864  1.1244  0.1883  1.4048
10190SOL     OW31468   5.228   2.628   0.105  0.7578  0.1440 -0.1087
10190SOL    HW131469   5.288   2.594   0.179  1.6414  0.7017 -0.5508
10190SOL    HW231470   5.249   2.578   0.021 -0.7072 -0.9543  0.1471
10191SOL     OW31471   6.635   5.824   6.761  0.2233 -0.3751  0.3548
10191SOL    HW131472   6.682   5.790   6.842  1.6576 -1.5037 -0.8928
10191SOL    HW231473   6.700   5.869   6.700 -0.7988  0.3307 -0.2524
10192SOL     OW31474   2.699   1.876   1.620  0.1887  0.5903 -0.0084
10192SOL    HW131475   2.629   1.865   1.549 -0.0650 -0.6738  0.4247
10192SOL    HW231476   2.678   1.957   1.675 -0.6526  0.5235 -0.2157
10193SOL     OW31477   4.156   3.783   1.720  0.2394  0.4928  0.1774
10193SOL    HW131478   4.206   3.870   1.716  1.2375 -0.0712  0.0052
10193SOL    HW231479   4.145   3.755   1.815 -2.2611  1.9852  0.4336
10194SOL     OW31480   4.415   2.421   4.633  0.2763  0.6573  0.3292
10194SOL    HW131481   4.367   2.363   4.567  1.1912  3.0840 -2.7344
10194SOL    HW231482   4.362   2.504   4.650  0.0707  0.0881  2.7418
10195SOL     OW31483   4.738   4.677   2.008 -0.1522  0.2309 -0.3537
10195SOL    HW131484   4.752   4.674   2.107 -0.5778  0.1063 -0.2942
10195SOL    HW231485   4.817   4.719   1.964  1.1645 -1.9095 -0.1776
10196SOL     OW31486   5.564   3.129   3.662  0.1635 -0.2922 -0.7166
10196SOL    HW131487   5.560   3.199   3.734 -0.1613 -1.4098  0.3734
10196SOL    HW231488   5.632   3.157   3.594  0.3042  0.9079 -0.1253
10197SOL     OW31489   6.443   0.280   5.872 -0.1645 -0.6109 -0.0669
10197SOL    HW131490   6.378   0.354   5.852 -0.4390 -1.1258 -1.1908
10197SOL    HW231491   6.399   0.192   5.854  0.1273 -1.0686  1.3605
10198SOL     OW31492   6.550   5.271   2.572  0.6253  0.5410  0.2295
10198SOL    HW131493   6.601   5.195   2.613  0.1210 -0.4238 -0.8918
10198SOL    HW231494   6.453   5.246   2.566  0.6001  0.8833 -1.0018
10199SOL     OW31495   0.697   0.394   5.780  0.6100 -0.1726  0.0049
10199SOL    HW131496   0.645   0.471   5.816 -0.5775 -0.6490 -0.6285
10199SOL    HW231497   0.655   0.308   5.809  0.5268 -0.5713 -1.2178
10200SOL     OW31498   4.499   2.759   1.107  0.1604  0.6953  0.1310
10200SOL    HW131499   4.508   2.854   1.140 -3.0204  1.0788  0.1706
10200SOL    HW231500   4.530   2.696   1.179  2.5050  1.6370  0.0359
10201SOL     OW31501   0.164   3.701   6.958 -0.1072  0.1858 -0.4047
10201SOL    HW131502   0.120   3.790   6.971 -0.6438 -0.3317  1.6382
10201SOL    HW231503   0.140   3.640   7.034  2.5516 -0.7742 -0.2323
10202SOL     OW31504   4.585   0.617   4.572  0.5607  0.0597  0.1189
10202SOL    HW131505   4.565   0.699   4.519  0.7731 -0.0822 -0.1783
10202SOL    HW231506   4.606   0.643   4.666  4.3661  0.7198 -0.7748
10203SOL     OW31507   6.949   3.633   4.584  0.1085  0.0612 -0.3023
10203SOL    HW131508   6.982   3.674   4.499 -0.0401  2.0596  0.5284
10203SOL    HW231509   7.021   3.634   4.652 -0.5474  1.0583  0.4085
10204SOL     OW31510   3.814   5.359   0.003 -0.6832  0.1024  0.6602
10204SOL    HW131511   3.834   5.351   0.101 -0.0995  0.8129  0.6035
10204SOL    HW231512   3.855   5.282  -0.045  1.4101  1.1586  0.6397
10205SOL     OW31513   6.836   1.948   0.367 -0.4428  0.3555 -0.3245
10205SOL    HW131514   6.915   2.000   0.332 -0.5000  0.3540 -0.4571
10205SOL    HW231515   6.853   1.921   0.461 -0.6382  1.0693 -0.0820
10206SOL     OW31516   1.926   1.894   4.181  0.3149 -0.3436  0.5063
10206SOL    HW131517   1.857   1.822   4.174 -1.0667  0.8991  0.7539
10206SOL    HW231518   2.013   1.860   4.145 -0.9005 -1.3388 -1.7425
10207SOL     OW31519   1.033   3.585   0.060  0.3647 -0.1719 -0.0158
10207SOL    HW131520   0.975   3.516   0.103  0.2668  0.6328  1.1659
10207SOL    HW231521   0.980   3.667   0.040  0.7977  0.0898 -0.1245
10208SOL     OW31522   6.499   0.317   5.552  0.3970 -0.1296  0.0505
10208SOL    HW131523   6.561   0.317   5.631  1.8706 -2.8041 -0.9452
10208SOL    HW231524   6.449   0.403   5.549  1.5380  0.7740  2.8852
10209SOL     OW31525   1.925   6.681   6.640  0.1271  0.1596  0.5037
10209SOL    HW131526   1.953   6.738   6.717 -0.7882  0.9764  0.2522
10209SOL    HW231527   1.832   6.704   6.613 -0.2479 -1.4252  0.3412
10210SOL     OW31528   2.933   6.992   1.586 -0.8072 -0.0493  0.0320
10210SOL    HW131529   3.016   7.046   1.583 -0.5577 -0.2147  2.1860
10210SOL    HW231530   2.876   7.013   1.506  1.6657 -0.6315 -1.9935
10211SOL     OW31531   5.787   5.979   4.614  0.7496 -0.0948  0.3372
10211SOL    HW131532   5.886   5.994   4.610  0.6703  0.7415  1.1277
10211SOL    HW231533   5.768   5.881   4.622  1.5151 -0.2547  0.2636
10212SOL     OW31534   0.401   6.023   4.930 -0.0775  0.1628  0.3235
10212SOL    HW131535   0.340   6.071   4.867  1.3496  1.5211 -0.0810
10212SOL    HW231536   0.346   5.978   5.000 -1.6334 -0.3149 -1.1322
10213SOL     OW31537   4.256   2.111   1.998  0.4854 -0.0858  0.3677
10213SOL    HW131538   4.265   2.208   1.974  0.9031 -0.2058  0.0267
10213SOL    HW231539   4.338   2.062   1.968 -1.3460 -1.3117 -3.1655
10214SOL     OW31540   1.041   3.068   1.797 -0.1591 -0.3836 -0.3641
10214SOL    HW131541   1.103   3.015   1.855 -1.3146 -1.7254 -0.3047
10214SOL    HW231542   1.074   3.065   1.702  0.6880  0.2147 -0.0991
10215SOL     OW31543   3.604   2.516   1.449  0.3434 -0.1234 -0.2849
10215SOL    HW131544   3.696   2.547   1.472  0.1382  1.1892 -1.1173
10215SOL    HW231545   3.560   2.478   1.531  0.8773  1.1722  0.6539
10216SOL     OW31546   6.965   6.612   0.504  0.2184 -0.1674  0.0826
10216SOL    HW131547   7.024   6.547   0.552  1.3379  0.3210 -0.6010
10216SOL    HW231548   7.014   6.650   0.426 -0.6756  0.9651  0.0501
10217SOL     OW31549   2.306   1.787   4.361  0.1628 -0.0147 -0.0795
10217SOL    HW131550   2.268   1.808   4.451  1.3173 -0.0634  0.4457
10217SOL    HW231551   2.404   1.808   4.361  0.1362  0.2001 -1.4056
10218SOL     OW31552   0.370   2.824   3.851  0.3377  0.0136  0.2921
10218SOL    HW131553   0.338   2.913   3.820  1.0943 -0.1381 -1.0027
10218SOL    HW231554   0.367   2.759   3.775 -0.9111 -1.2766  1.3975
10219SOL     OW31555   1.196   4.855   1.084  0.2897  0.6770  0.2743
10219SOL    HW131556   1.161   4.767   1.052  2.0396 -0.4482  1.2463
10219SOL    HW231557   1.139   4.888   1.159 -0.0170  0.0269  0.3315
10220SOL     OW31558   3.162   5.259   6.744  0.1065 -0.2038 -0.4126
10220SOL    HW131559   3.251   5.215   6.738  1.2094  1.8029  0.0765
10220SOL    HW231560   3.122   5.266   6.653  0.8745 -0.3289 -0.7636
10221SOL     OW31561   2.991   6.104   1.926 -0.1941  0.4384  0.2918
10221SOL    HW131562   3.057   6.146   1.988  0.0137  1.5426 -0.6371
10221SOL    HW231563   2.899   6.135   1.949 -0.4021 -0.9391  1.4554
10222SOL     OW31564   3.908   3.423   5.347  0.2668 -0.0356  0.0438
10222SOL    HW131565   3.964   3.477   5.285 -0.9675 -1.8459 -2.8481
10222SOL    HW231566   3.963   3.346   5.382  0.3325 -0.3900 -0.8028
10223SOL     OW31567   4.237   0.603   0.819  0.0155 -0.1405 -0.6081
10223SOL    HW131568   4.218   0.599   0.721  0.7492 -0.2974 -0.7532
10223SOL    HW231569   4.333   0.629   0.833 -0.4866  1.4861  0.0873
10224SOL     OW31570   5.364   2.929   3.328  0.0330  0.0178  0.2482
10224SOL    HW131571   5.415   3.015   3.327 -1.4827  0.9552 -0.4744
10224SOL    HW231572   5.301   2.927   3.250  0.3205 -1.9433  0.0215
10225SOL     OW31573   2.770   4.004   5.850 -0.1339 -0.3235 -0.2154
10225SOL    HW131574   2.725   3.981   5.764 -0.3379  0.9443 -0.4713
10225SOL    HW231575   2.810   4.095   5.843  0.5199 -0.5141  0.7830
10226SOL     OW31576   3.882   4.775   5.742  0.1722 -0.7817 -0.4727
10226SOL    HW131577   3.839   4.685   5.727 -0.7844 -0.3829 -0.2239
10226SOL    HW231578   3.895   4.790   5.840 -0.1315 -0.4446 -0.4818
10227SOL     OW31579   5.723   4.153   1.108  0.0488 -0.0551 -0.4048
10227SOL    HW131580   5.768   4.200   1.184  0.3979  0.1093 -0.7110
10227SOL    HW231581   5.780   4.076   1.079 -0.1351 -0.1802 -0.4331
10228SOL     OW31582   5.039   0.005   6.632 -0.4290  0.1402  0.3090
10228SOL    HW131583   4.966   0.041   6.690 -1.5244  0.4893 -1.2336
10228SOL    HW231584   5.000  -0.047   6.557  0.6097  3.1555 -2.5546
10229SOL     OW31585   0.133   1.350   4.604 -0.1787 -0.7298  0.1644
10229SOL    HW131586   0.134   1.433   4.548 -0.9798 -1.0945 -0.4128
10229SOL    HW231587   0.193   1.282   4.563 -2.3197 -1.7488 -1.4969
10230SOL     OW31588   4.011   0.003   6.061 -0.7600  0.6642 -0.1561
10230SOL    HW131589   3.955  -0.056   6.004 -1.0247 -0.0638  0.8291
10230SOL    HW231590   3.954   0.072   6.105 -1.0474 -0.4845  1.3677
10231SOL     OW31591   0.798   3.282   4.720 -0.6870  0.3732 -0.4563
10231SOL    HW131592   0.867   3.255   4.653 -0.6460  1.6958 -0.9673
10231SOL    HW231593   0.821   3.241   4.809  1.0480  1.1539 -0.4892
10232SOL     OW31594   3.554   3.534   2.146 -0.1142  0.0489 -0.2476
10232SOL    HW131595   3.474   3.476   2.162  0.2369 -0.3153  0.2031
10232SOL    HW231596   3.620   3.485   2.089  0.9216 -0.6655  1.5083
10233SOL     OW31597   3.852   3.775   6.119 -0.5138  0.3850 -0.3447
10233SOL    HW131598   3.773   3.808   6.171 -1.5134 -0.5351 -1.2367
10233SOL    HW231599   3.869   3.836   6.042  0.3991  1.2340  0.4963
10234SOL     OW31600   1.380   1.408   3.719 -0.5066 -0.2539  0.8540
10234SOL    HW131601   1.464   1.458   3.741 -0.9375  0.2599  1.3421
10234SOL    HW231602   1.361   1.418   3.621  0.1818 -0.6582  0.6718
10235SOL     OW31603   0.060   1.456   4.853 -0.2606  0.0246 -0.6263
10235SOL    HW131604   0.100   1.415   4.770  1.2011 -1.3163  0.6812
10235SOL    HW231605   0.083   1.553   4.856  1.3674 -0.3253 -0.8455
10236SOL     OW31606   1.050   0.807   3.442  0.7996  0.1457  0.2089
10236SOL    HW131607   1.129   0.768   3.491  0.1543 -0.0588  1.1190
10236SOL    HW231608   1.082   0.877   3.379  1.7686 -0.3353  0.1404
10237SOL     OW31609   6.337   2.423   5.185  0.4028 -0.1814  0.0986
10237SOL    HW131610   6.378   2.332   5.179  1.0354  0.1795 -1.5707
10237SOL    HW231611   6.238   2.413   5.201  0.7791 -1.0816  2.1743
10238SOL     OW31612   5.103   5.576   1.326 -0.1096 -0.3294 -0.1672
10238SOL    HW131613   5.150   5.491   1.346  2.0368  1.0517  1.1227
10238SOL    HW231614   5.168   5.640   1.283 -1.3615  0.9973 -0.1606
10239SOL     OW31615   6.405   2.573   4.959 -0.5616  0.1515 -0.2363
10239SOL    HW131616   6.370   2.534   5.044 -0.0140 -0.2046 -0.1683
10239SOL    HW231617   6.483   2.633   4.979 -0.0643 -0.3847 -0.5309
10240SOL     OW31618   0.576   5.600   2.822 -0.0218  0.6241 -1.3526
10240SOL    HW131619   0.616   5.691   2.832  1.0065  0.0837 -0.3162
10240SOL    HW231620   0.550   5.565   2.912  2.1434 -1.1920 -1.3498
10241SOL     OW31621   5.460   4.182   1.088  0.2606  0.5342  0.0073
10241SOL    HW131622   5.426   4.276   1.090  1.2836  0.9992 -2.1169
10241SOL    HW231623   5.557   4.181   1.110 -0.0082 -0.2227  1.2815
10242SOL     OW31624   1.634   3.960   0.718 -0.0958  0.6659 -0.5389
10242SOL    HW131625   1.679   3.916   0.795 -0.2698 -1.1390 -1.4061
10242SOL    HW231626   1.686   4.040   0.689  1.3465 -0.1077 -0.1451
10243SOL     OW31627   2.762   5.512   1.227 -0.0091 -0.1607 -0.4026
10243SOL    HW131628   2.858   5.491   1.210  0.5369  1.7859  0.0346
10243SOL    HW231629   2.710   5.498   1.143  0.7613 -0.6103 -0.8234
10244SOL     OW31630   0.849   5.470   1.486  0.4173  0.6177  0.4351
10244SOL    HW131631   0.779   5.439   1.550  1.4413 -1.1241  0.7678
10244SOL    HW231632   0.819   5.450   1.392  1.4635 -2.5541  0.6622
10245SOL     OW31633   0.235   4.481   0.001  0.5785 -0.1207  0.1079
10245SOL    HW131634   0.190   4.534   0.073 -0.1796 -0.5739 -0.0219
10245SOL    HW231635   0.313   4.431   0.039  1.5518  1.3785  0.1569
10246SOL     OW31636   3.314   2.888   2.486 -0.0207 -0.0795  0.3813
10246SOL    HW131637   3.360   2.817   2.433  0.8120  0.3470  0.5169
10246SOL    HW231638   3.220   2.897   2.455 -0.1110 -1.1652  0.2874
10247SOL     OW31639   2.138   2.863   5.229 -0.3871 -0.3669 -0.1152
10247SOL    HW131640   2.065   2.797   5.246 -1.1263 -0.0651 -1.8802
10247SOL    HW231641   2.127   2.902   5.137 -0.1691  2.4639  0.9541
10248SOL     OW31642   5.521   0.484   4.425  0.0267  0.1687  0.5765
10248SOL    HW131643   5.588   0.524   4.488  0.4712 -0.7463  0.7125
10248SOL    HW231644   5.475   0.408   4.471  0.3088 -0.4667 -0.1777
10249SOL     OW31645   2.931   4.937   4.749 -0.1346 -0.3500  0.4374
10249SOL    HW131646   2.902   4.868   4.683 -1.1025  1.6253 -1.3102
10249SOL    HW231647   2.870   4.937   4.828 -1.2474 -0.2586 -0.4147
10250SOL     OW31648   4.002   2.617   6.530  0.3662  0.3132  0.1310
10250SOL    HW131649   3.967   2.689   6.471 -0.8441 -0.6858 -0.4194
10250SOL    HW231650   4.022   2.535   6.475 -1.2503 -0.8026  1.1346
10251SOL     OW31651   2.176   0.516   5.371 -0.0921 -0.2329  0.2722
10251SOL    HW131652   2.138   0.440   5.319 -0.3463 -0.7502  1.1889
10251SOL    HW231653   2.143   0.512   5.465  2.7112 -1.0955  1.3197
10252SOL     OW31654   5.604   4.187   0.300  0.4930  0.2111 -0.5484
10252SOL    HW131655   5.691   4.138   0.296  0.5083  0.0856  0.8549
10252SOL    HW231656   5.607   4.265   0.238  0.8071 -0.9946 -2.1296
10253SOL     OW31657   4.500   5.562   5.894 -0.3111  0.0317 -0.4953
10253SOL    HW131658   4.423   5.621   5.919 -1.1174 -1.5377  0.9569
10253SOL    HW231659   4.585   5.614   5.897 -0.6993  0.7048  2.9469
10254SOL     OW31660   1.391   1.322   5.309 -0.2052 -0.0634 -0.7793
10254SOL    HW131661   1.477   1.279   5.282  0.0502  0.3553 -0.6478
10254SOL    HW231662   1.407   1.418   5.329 -0.8237  0.1717 -1.3613
10255SOL     OW31663   4.030   5.088   1.269  0.4150 -0.3586  0.1600
10255SOL    HW131664   4.117   5.078   1.220  0.1105  0.4537 -0.5847
10255SOL    HW231665   3.967   5.141   1.212  0.0579  0.6502  1.4698
10256SOL     OW31666   1.763   2.173   3.947 -0.7556  0.4913  0.1812
10256SOL    HW131667   1.818   2.114   3.889 -0.8259  0.3227  0.2851
10256SOL    HW231668   1.692   2.217   3.892  0.9081  2.5531 -0.4495
10257SOL     OW31669   3.164   6.878   2.900  0.2185  0.2357  0.5937
10257SOL    HW131670   3.167   6.821   2.983 -0.9185  1.2509  1.3724
10257SOL    HW231671   3.192   6.824   2.821  1.8753 -0.6153  1.7092
10258SOL     OW31672   2.228   6.873   0.659  0.3220 -0.0694  0.3114
10258SOL    HW131673   2.246   6.787   0.612 -0.1699  0.5828 -1.1014
10258SOL    HW231674   2.314   6.911   0.693  0.5761 -0.9595  0.7070
10259SOL     OW31675   1.392   3.355   4.497  0.1897  0.1135 -0.2813
10259SOL    HW131676   1.295   3.359   4.520 -0.1031  0.2367 -1.4728
10259SOL    HW231677   1.441   3.427   4.547  0.0259 -1.1815  1.8379
10260SOL     OW31678   4.772   1.253   4.645 -0.2566 -0.5702  0.7098
10260SOL    HW131679   4.750   1.327   4.582  0.1365 -1.5082 -0.5580
10260SOL    HW231680   4.721   1.266   4.730 -4.7760 -1.8594 -1.5123
10261SOL     OW31681   0.862   3.297   1.005  0.2864 -0.0266 -0.0931
10261SOL    HW131682   0.901   3.208   0.980 -1.5782 -0.8704 -0.1545
10261SOL    HW231683   0.919   3.370   0.967  0.7900 -1.2134 -1.7148
10262SOL     OW31684   4.414   6.637   0.036  0.5038 -0.0501 -0.2710
10262SOL    HW131685   4.350   6.560   0.030  0.6691 -0.5007  2.3661
10262SOL    HW231686   4.368   6.715   0.077  0.9500  0.5197 -0.8464
10263SOL     OW31687   4.986   6.324   2.634  0.6900  0.2244  0.1435
10263SOL    HW131688   5.025   6.408   2.670  1.1572  0.0130  0.1357
10263SOL    HW231689   5.001   6.319   2.535 -0.1803  0.5830 -0.0140
10264SOL     OW31690   0.694   0.956   4.320  0.0234  0.3596 -0.1815
10264SOL    HW131691   0.704   0.951   4.220  0.7579  1.3230 -0.1623
10264SOL    HW231692   0.603   0.991   4.342 -0.6883 -1.1959 -0.4705
10265SOL     OW31693   1.550   0.597   2.859 -0.2966 -0.1621  0.3554
10265SOL    HW131694   1.642   0.632   2.841  0.0528 -1.6366 -0.9305
10265SOL    HW231695   1.493   0.610   2.779 -0.6932 -0.8585  0.5178
10266SOL     OW31696   1.890   3.185   2.018  0.7937 -0.4153  0.3078
10266SOL    HW131697   1.899   3.284   2.012 -0.6578 -0.1291  2.0068
10266SOL    HW231698   1.973   3.147   2.060  0.9190  0.2215  0.6615
10267SOL     OW31699   6.582   0.476   1.369 -0.5417 -0.0129  0.1449
10267SOL    HW131700   6.495   0.524   1.358 -0.8118 -0.4283  0.4546
10267SOL    HW231701   6.626   0.467   1.279 -0.0603  1.5832  0.1856
10268SOL     OW31702   3.905   6.419   1.870  0.3805 -0.4890  0.1194
10268SOL    HW131703   3.911   6.347   1.939  1.0742 -0.5310  0.0226
10268SOL    HW231704   3.818   6.467   1.879  0.3313 -0.7009  0.8185
10269SOL     OW31705   3.242   2.194   0.608  1.0237  0.0732  0.2747
10269SOL    HW131706   3.172   2.227   0.546 -1.0973  1.7566  3.2791
10269SOL    HW231707   3.322   2.254   0.603 -0.2680  1.9627  1.1107
10270SOL     OW31708   1.147   0.180   3.386  0.7113  0.2327  0.2614
10270SOL    HW131709   1.194   0.262   3.419  0.4188  0.7615 -0.6076
10270SOL    HW231710   1.184   0.099   3.433  0.6644  0.8952  1.4921
10271SOL     OW31711   1.555   1.234   1.295 -0.2143 -0.0703  0.0617
10271SOL    HW131712   1.505   1.297   1.354  0.4902  0.5973 -0.0353
10271SOL    HW231713   1.573   1.149   1.344  0.1162  0.3706  0.7164
10272SOL     OW31714   0.477   0.642   6.109  0.4643 -0.0429 -0.1780
10272SOL    HW131715   0.470   0.559   6.163 -1.6619  0.9024  1.1376
10272SOL    HW231716   0.536   0.708   6.155  1.1779 -0.3712 -0.6131
10273SOL     OW31717   2.409   6.757   2.668 -0.0647 -0.1847 -0.0498
10273SOL    HW131718   2.351   6.677   2.681 -2.1868  1.1817 -0.5277
10273SOL    HW231719   2.376   6.809   2.589  0.8081  1.5099  0.6469
10274SOL     OW31720   2.005   2.656   6.496 -0.0603 -0.4243 -0.7982
10274SOL    HW131721   1.963   2.747   6.500 -0.7907 -0.7807  0.2674
10274SOL    HW231722   2.103   2.664   6.513  0.0746  0.2729 -1.8354
10275SOL     OW31723   6.832   0.349   1.748 -0.0725  0.8777  0.0860
10275SOL    HW131724   6.920   0.385   1.776  0.9204 -0.6854 -0.8823
10275SOL    HW231725   6.793   0.409   1.678 -0.2328  2.0512  1.1363
10276SOL     OW31726   4.144   6.342   4.809  0.0148  0.3248  0.4538
10276SOL    HW131727   4.087   6.422   4.828  0.1594  0.5603 -0.0819
10276SOL    HW231728   4.240   6.365   4.823  0.0236  0.1010  0.7763
10277SOL     OW31729   0.179   5.046   2.375 -0.0716  0.4311  0.1233
10277SOL    HW131730   0.092   5.033   2.422 -0.4330 -1.8543 -1.0433
10277SOL    HW231731   0.163   5.068   2.279  0.6443  0.3679 -0.0162
10278SOL     OW31732   0.342   6.115   4.228  0.3108  0.7092 -0.6830
10278SOL    HW131733   0.257   6.062   4.238 -0.4918  2.1890  0.8596
10278SOL    HW231734   0.320   6.204   4.187  1.3442  0.5821 -1.5309
10279SOL     OW31735   0.247   4.138   5.710 -0.0735  0.1492  0.0613
10279SOL    HW131736   0.291   4.227   5.701  0.1211 -0.1794 -3.0430
10279SOL    HW231737   0.148   4.151   5.716 -0.0154  0.5909  0.1173
10280SOL     OW31738   6.343   5.098   5.437  0.5537  0.2861 -0.0527
10280SOL    HW131739   6.421   5.039   5.461  0.8683  1.3033  1.6626
10280SOL    HW231740   6.260   5.061   5.478  0.4441  0.1212 -0.4247
10281SOL     OW31741   6.034   1.033   4.272 -0.2159 -0.5743 -0.0623
10281SOL    HW131742   5.978   1.061   4.350 -0.9253 -0.4445 -0.6075
10281SOL    HW231743   5.985   1.053   4.187  0.8601 -0.0087 -0.5709
10282SOL     OW31744   3.374   1.863   4.466  0.6415 -0.1343 -0.0452
10282SOL    HW131745   3.357   1.811   4.382 -1.6852 -1.9239  1.3862
10282SOL    HW231746   3.445   1.817   4.519  1.4399  0.4641 -0.5774
10283SOL     OW31747   0.255   3.313   2.281 -0.2595 -0.2142 -0.3404
10283SOL    HW131748   0.157   3.315   2.262 -0.2356 -0.4231 -0.4942
10283SOL    HW231749   0.305   3.323   2.196 -0.1334  1.5570 -0.0815
10284SOL     OW31750   1.853   4.272   5.144  0.2885 -0.0244 -0.0440
10284SOL    HW131751   1.906   4.351   5.113 -0.8533  1.1115  0.8019
10284SOL    HW231752   1.879   4.249   5.238 -0.2792  0.1527  0.1585
10285SOL     OW31753   0.014   6.493   6.073 -0.6605  0.9074  0.1657
10285SOL    HW131754   0.047   6.450   6.157  1.0382 -0.6624 -1.2092
10285SOL    HW231755  -0.052   6.564   6.095 -1.7710 -0.7759  2.7169
10286SOL     OW31756   5.513   0.725   6.850 -0.4322 -0.0628 -0.0051
10286SOL    HW131757   5.531   0.818   6.818  0.1481  0.5659  1.9927
10286SOL    HW231758   5.587   0.697   6.911 -0.9027 -1.6299 -0.1292
10287SOL     OW31759   6.623   6.055   1.772  0.2232 -0.1436 -0.0512
10287SOL    HW131760   6.574   5.969   1.757 -0.0438  0.2786 -1.7657
10287SOL    HW231761   6.563   6.132   1.750  0.9886  0.4397 -0.1295
10288SOL     OW31762   2.362   6.255   5.601 -0.1048 -0.2955 -0.1060
10288SOL    HW131763   2.444   6.208   5.568  0.6948  1.7895 -1.2435
10288SOL    HW231764   2.386   6.314   5.678 -0.8049 -0.5563  0.3309
10289SOL     OW31765   4.611   6.157   5.364 -0.0971 -0.7180  0.5170
10289SOL    HW131766   4.676   6.103   5.310  0.4376  1.1586 -0.8135
10289SOL    HW231767   4.661   6.215   5.428 -0.5994 -0.9392  1.1205
10290SOL     OW31768   4.044   3.699   3.432  0.6411  0.3525 -0.1953
10290SOL    HW131769   3.953   3.730   3.404  0.5493 -0.6038 -1.0063
10290SOL    HW231770   4.074   3.752   3.512 -1.3695 -0.5011  1.1919
10291SOL     OW31771   2.793   2.332   1.312  0.4372  0.1836  0.1192
10291SOL    HW131772   2.748   2.258   1.363  1.1695 -1.8899 -2.0742
10291SOL    HW231773   2.890   2.336   1.339 -0.0184  1.7812  1.7067
10292SOL     OW31774   0.484   0.358   0.593  0.9585 -0.4732 -0.0950
10292SOL    HW131775   0.563   0.402   0.635  0.9654  0.2299 -0.8237
10292SOL    HW231776   0.402   0.377   0.647  1.5105 -2.7405  1.7344
10293SOL     OW31777   1.799   2.896   5.795  0.0812  0.0406  0.5359
10293SOL    HW131778   1.761   2.945   5.717 -1.5098 -0.6240  0.8592
10293SOL    HW231779   1.744   2.815   5.814  0.1617  0.4069  2.6255
10294SOL     OW31780   1.586   2.285   2.361  0.0681 -0.0271 -0.4229
10294SOL    HW131781   1.568   2.212   2.296  0.2280  0.8637 -1.4978
10294SOL    HW231782   1.532   2.271   2.444 -1.9530  0.0624 -1.6759
10295SOL     OW31783   1.482   2.126   1.913  0.4094  0.2721  0.1209
10295SOL    HW131784   1.563   2.162   1.959  0.5027  0.4185 -0.1568
10295SOL    HW231785   1.434   2.201   1.867 -0.4666  0.3837  1.1599
10296SOL     OW31786   6.960   3.024   6.669 -0.3282  0.4362  0.5676
10296SOL    HW131787   6.888   3.067   6.615  0.3141 -1.3037 -1.8234
10296SOL    HW231788   7.003   2.951   6.616  0.8043 -0.9864  3.2231
10297SOL     OW31789   4.429   6.431   5.652  0.4503 -0.4264 -0.6273
10297SOL    HW131790   4.470   6.510   5.607  1.1658 -0.8781 -0.7888
10297SOL    HW231791   4.341   6.456   5.691  0.5021  0.3506 -1.0029
10298SOL     OW31792   1.665   0.476   1.907  0.1680 -0.1257 -0.0636
10298SOL    HW131793   1.627   0.568   1.901 -1.6216 -0.8619 -1.2005
10298SOL    HW231794   1.603   0.412   1.862  1.7542 -1.7825 -0.0269
10299SOL     OW31795   4.711   0.159   2.949 -0.6187 -0.6006 -0.2472
10299SOL    HW131796   4.781   0.142   3.018  0.3944  0.5816 -0.9204
10299SOL    HW231797   4.686   0.256   2.950  1.2467  0.0654 -3.0662
10300SOL     OW31798   2.003   3.706   1.282  0.1444  0.2150 -0.4049
10300SOL    HW131799   2.051   3.637   1.229  0.7022  0.6534 -0.4730
10300SOL    HW231800   1.954   3.661   1.357 -0.2652 -0.3510 -1.0012
10301SOL     OW31801   5.694   6.937   0.984 -0.1759  0.5854 -0.3608
10301SOL    HW131802   5.783   6.971   0.955  0.2922  0.4689  0.8665
10301SOL    HW231803   5.633   7.014   1.001  0.7347  0.8828  1.9476
10302SOL     OW31804   2.986   4.764   5.274 -0.1318  0.2070 -0.1073
10302SOL    HW131805   2.963   4.673   5.238 -1.2841  1.2510 -2.2334
10302SOL    HW231806   2.917   4.830   5.244  2.4180  2.4312 -1.5829
10303SOL     OW31807   2.381   3.810   6.979  0.0613  0.4800 -0.4319
10303SOL    HW131808   2.296   3.824   6.928 -0.1758 -1.4891 -0.6578
10303SOL    HW231809   2.366   3.831   7.075 -0.1723  1.8484 -0.7449
10304SOL     OW31810   4.910   5.880   5.914 -0.1614 -0.1859  0.0996
10304SOL    HW131811   4.930   5.815   5.841 -0.9317 -0.1863 -0.1160
10304SOL    HW231812   4.892   5.970   5.875 -0.3722 -0.1393  0.2983
10305SOL     OW31813   3.241   4.035   4.743 -0.2223  0.1131 -0.4581
10305SOL    HW131814   3.176   3.985   4.801 -2.9518  1.8874 -1.7472
10305SOL    HW231815   3.270   4.118   4.790 -2.1909  1.3910 -1.3475
10306SOL     OW31816   4.190   1.171   2.211 -0.1668  0.4087 -0.3864
10306SOL    HW131817   4.279   1.147   2.173  0.1838 -0.7853  1.0759
10306SOL    HW231818   4.199   1.254   2.266 -0.5332  1.7451 -2.2521
10307SOL     OW31819   0.511   5.390   4.993  0.0625  0.2828  0.2026
10307SOL    HW131820   0.539   5.397   4.898  1.4328 -1.5229  0.4066
10307SOL    HW231821   0.423   5.435   5.006 -0.5469 -0.1504 -2.0803
10308SOL     OW31822   0.850   3.733   4.047  0.6132  0.0326  0.0739
10308SOL    HW131823   0.753   3.745   4.069  0.1400 -0.9711 -1.3383
10308SOL    HW231824   0.884   3.648   4.087  0.6391 -0.1263 -0.2863
10309SOL     OW31825   0.317   1.063   4.970 -0.0063 -0.0135 -0.1399
10309SOL    HW131826   0.355   1.154   4.952 -0.0196  0.3504  1.4710
10309SOL    HW231827   0.269   1.064   5.058  1.5129 -1.9894  0.8207
10310SOL     OW31828   4.413   2.551   6.559  0.1423  0.2588  0.3684
10310SOL    HW131829   4.377   2.644   6.546 -1.0364 -0.3988 -1.3530
10310SOL    HW231830   4.352   2.501   6.620 -1.1082 -0.3636 -1.3096
10311SOL     OW31831   5.551   6.077   0.068  0.1499 -0.3597  0.1204
10311SOL    HW131832   5.533   6.151   0.003 -0.9175  1.1836  2.0611
10311SOL    HW231833   5.497   5.997   0.042  1.9715 -0.8755 -2.5140
10312SOL     OW31834   2.853   1.189   1.837 -1.1478  0.6941 -0.0765
10312SOL    HW131835   2.858   1.176   1.936  0.5053 -0.7694 -0.3049
10312SOL    HW231836   2.883   1.281   1.814 -2.4700  1.3869  0.8160
10313SOL     OW31837   6.596   6.827   3.373  1.1278  0.1071 -0.0901
10313SOL    HW131838   6.631   6.768   3.445  1.3556 -0.3209 -0.5434
10313SOL    HW231839   6.672   6.859   3.316  0.9346  0.3193 -0.2333
10314SOL     OW31840   0.789   6.737   0.305 -0.4216  0.2479 -0.0973
10314SOL    HW131841   0.886   6.728   0.328  0.1794 -1.1850 -2.7805
10314SOL    HW231842   0.746   6.647   0.303 -1.8441  0.8696  1.0826
10315SOL     OW31843   4.748   5.284   4.831 -0.2392 -0.2200 -0.1146
10315SOL    HW131844   4.787   5.375   4.816 -1.1842  0.0918 -0.7367
10315SOL    HW231845   4.726   5.273   4.928  2.0098 -0.6746  0.4101
10316SOL     OW31846   3.397   1.135   1.733  0.2041 -0.2018  0.4207
10316SOL    HW131847   3.434   1.169   1.819  1.4547 -1.0478  0.2469
10316SOL    HW231848   3.423   1.196   1.658 -0.4250  0.2439  0.5588
10317SOL     OW31849   1.730   5.325   6.183  0.2683  0.6809 -0.4591
10317SOL    HW131850   1.645   5.319   6.235 -0.5271 -0.4791 -1.8199
10317SOL    HW231851   1.716   5.383   6.102  0.9820  1.0630 -0.3178
10318SOL     OW31852   4.152   4.475   0.938 -0.1152 -0.3841 -0.5297
10318SOL    HW131853   4.179   4.478   0.842  2.7659 -0.1950  0.1937
10318SOL    HW231854   4.107   4.388   0.958  1.8489 -1.6833 -1.4772
10319SOL     OW31855   0.834   5.797   2.909 -0.6319  0.5489  0.0957
10319SOL    HW131856   0.781   5.790   2.993 -0.4894  0.8343  0.2090
10319SOL    HW231857   0.927   5.828   2.930  0.0337 -1.2936  0.0805
10320SOL     OW31858   0.053   6.058   2.345  0.2761 -0.4314 -0.0464
10320SOL    HW131859   0.031   6.003   2.427  0.7109 -0.9160 -0.2501
10320SOL    HW231860  -0.031   6.075   2.294 -0.1433  0.6478  0.9688
10321SOL     OW31861   6.092   2.311   3.477  0.1724  0.2681 -0.5208
10321SOL    HW131862   6.031   2.368   3.531  1.0981  0.4365  0.3874
10321SOL    HW231863   6.040   2.260   3.408 -0.7513  1.6736 -0.8912
10322SOL     OW31864   5.005   4.532   4.551 -0.8131  0.3308  0.0224
10322SOL    HW131865   5.036   4.619   4.513 -1.7891 -0.2853 -2.3935
10322SOL    HW231866   4.919   4.544   4.600  0.2353  1.0726  1.7568
10323SOL     OW31867   0.881   5.052   6.960 -0.2045  0.4544 -0.0511
10323SOL    HW131868   0.962   5.039   7.017  0.9089  0.6025 -1.5110
10323SOL    HW231869   0.895   5.132   6.901 -1.2538  0.2451 -0.6094
10324SOL     OW31870   3.671   3.719   1.482 -0.1506 -0.6261 -0.2702
10324SOL    HW131871   3.606   3.754   1.550 -0.9816 -1.5476 -0.5657
10324SOL    HW231872   3.764   3.741   1.511 -0.5397 -0.1366  0.6606
10325SOL     OW31873   6.126   5.761   5.103  0.3239 -0.1544  0.5177
10325SOL    HW131874   6.212   5.711   5.097 -1.0221 -2.7172  1.1246
10325SOL    HW231875   6.122   5.810   5.191  2.6208  3.1558 -1.0091
10326SOL     OW31876   4.670   5.009   1.363 -0.0283 -0.3536 -0.5004
10326SOL    HW131877   4.692   4.921   1.404  0.1713 -0.4218 -0.7495
10326SOL    HW231878   4.693   5.007   1.266 -1.6619 -0.6179 -0.9121
10327SOL     OW31879   0.870   6.621   6.951  0.2886  0.7718 -0.0051
10327SOL    HW131880   0.794   6.656   7.006  1.2020 -0.7776  2.3944
10327SOL    HW231881   0.951   6.612   7.008  2.1776  1.7658 -2.3515
10328SOL     OW31882   6.109   3.215   2.857 -0.3785 -0.1805  0.1099
10328SOL    HW131883   6.090   3.118   2.845  0.0017 -0.3478  0.8125
10328SOL    HW231884   6.205   3.233   2.834 -0.8485  0.3321 -1.6254
10329SOL     OW31885   4.876   2.965   1.726  0.3780  0.1566  0.0424
10329SOL    HW131886   4.878   2.865   1.715  0.1961  0.0538  0.8950
10329SOL    HW231887   4.803   2.990   1.790 -1.5544  1.0638 -2.3287
10330SOL     OW31888   5.028   4.746   2.323  0.1674  0.5987  0.2033
10330SOL    HW131889   4.928   4.752   2.330  0.3272  2.2044  1.6110
10330SOL    HW231890   5.062   4.686   2.396  0.1534 -1.5332 -1.4284
10331SOL     OW31891   6.774   4.572   4.984 -0.6745 -0.2250 -0.0600
10331SOL    HW131892   6.771   4.672   4.972 -1.3904 -0.3717 -1.2022
10331SOL    HW231893   6.849   4.549   5.047 -0.9347  1.0707  0.7717
10332SOL     OW31894   2.849   1.534   0.447  0.3513  0.3479 -0.0685
10332SOL    HW131895   2.836   1.593   0.367  0.1812 -1.0503 -1.1097
10332SOL    HW231896   2.787   1.563   0.520  0.9015  1.9905 -0.2241
10333SOL     OW31897   2.196   2.221   4.359 -0.3641  0.4464 -0.6699
10333SOL    HW131898   2.180   2.308   4.312  1.0056  1.3264  0.4059
10333SOL    HW231899   2.294   2.200   4.359 -0.6086 -0.8030 -0.3876
10334SOL     OW31900   3.279   2.162   4.040 -0.1026 -0.0480 -0.5767
10334SOL    HW131901   3.341   2.159   4.118  0.4225 -1.2033 -1.0038
10334SOL    HW231902   3.195   2.209   4.065 -1.2505 -2.9937  1.6849
10335SOL     OW31903   0.780   2.863   4.807 -0.3021  0.5342  0.5144
10335SOL    HW131904   0.862   2.843   4.754 -1.3509  0.2962 -1.0871
10335SOL    HW231905   0.759   2.786   4.868  0.5095  0.4997  0.7620
10336SOL     OW31906   5.599   0.435   2.379  0.1377  0.2566 -0.4634
10336SOL    HW131907   5.576   0.338   2.384  0.5361  0.1822  0.0062
10336SOL    HW231908   5.695   0.445   2.353  0.8283  0.4550  1.9619
10337SOL     OW31909   6.319   6.094   6.674 -0.2844  0.4311  0.3556
10337SOL    HW131910   6.294   6.014   6.619 -1.4190  0.6249  0.5676
10337SOL    HW231911   6.301   6.177   6.621 -1.2032  0.6119  0.9201
10338SOL     OW31912   6.689   5.947   2.368 -0.0649  0.7537 -0.3375
10338SOL    HW131913   6.708   5.993   2.455  2.3885  1.6176 -1.2431
10338SOL    HW231914   6.722   6.004   2.293  0.5777 -1.2948 -1.6716
10339SOL     OW31915   5.600   2.546   5.491  0.1428  0.2981 -0.3478
10339SOL    HW131916   5.517   2.518   5.442  0.7902  1.9774 -2.5989
10339SOL    HW231917   5.580   2.627   5.546 -0.1656 -0.5364  0.7975
10340SOL     OW31918   1.285   2.990   0.387 -0.5766 -0.2158 -0.0259
10340SOL    HW131919   1.288   2.898   0.428 -2.3381  0.1226  0.9708
10340SOL    HW231920   1.216   3.044   0.434  1.7330  2.3054  0.7479
10341SOL     OW31921   3.041   6.029   2.529  0.1015 -0.4874 -0.0077
10341SOL    HW131922   3.111   5.998   2.593  0.5469  0.4850 -0.0094
10341SOL    HW231923   2.983   6.097   2.574 -0.6399 -1.0260 -0.1196
10342SOL     OW31924   0.231   1.015   4.248  0.0509  0.2690  0.1433
10342SOL    HW131925   0.265   0.921   4.245  0.4685  0.3245  1.8585
10342SOL    HW231926   0.294   1.075   4.197  0.2504 -0.2492 -0.2266
10343SOL     OW31927   6.239   4.030   1.212 -0.2351  0.5222 -0.6431
10343SOL    HW131928   6.278   4.062   1.299 -1.1707 -0.5627  0.2193
10343SOL    HW231929   6.294   3.955   1.176 -0.6137  0.0511 -0.2543
10344SOL     OW31930   4.717   6.153   6.721  0.6972 -0.2068  0.1861
10344SOL    HW131931   4.812   6.133   6.697  0.7887  1.5518 -1.1019
10344SOL    HW231932   4.697   6.249   6.702 -1.5082 -0.6695 -0.1247
10345SOL     OW31933   1.035   4.371   3.548 -0.6192 -0.5342 -0.2633
10345SOL    HW131934   0.968   4.444   3.562 -0.7627 -0.8605  0.7696
10345SOL    HW231935   1.059   4.330   3.635  1.0581 -0.3263 -0.5985
10346SOL     OW31936   0.681   6.772   0.041 -0.2239 -0.0714  0.1560
10346SOL    HW131937   0.715   6.798   0.132  1.2157  1.1740 -0.6964
10346SOL    HW231938   0.643   6.853  -0.004 -0.1073 -0.4909 -0.7062
10347SOL     OW31939   6.554   0.598   4.471 -0.1086 -0.0576  0.1965
10347SOL    HW131940   6.476   0.636   4.421 -1.0512 -0.3637  1.3807
10347SOL    HW231941   6.530   0.589   4.568  1.8421  0.9755  0.8171
10348SOL     OW31942   6.318   6.833   1.590  0.1254 -0.1323 -0.0403
10348SOL    HW131943   6.257   6.902   1.550 -1.7193 -2.1127 -0.8109
10348SOL    HW231944   6.391   6.811   1.526 -0.1626 -0.0002 -0.4135
10349SOL     OW31945   6.664   5.944   0.189  0.4780  0.6418 -0.5218
10349SOL    HW131946   6.569   5.914   0.187  0.0878  1.8714 -1.5657
10349SOL    HW231947   6.723   5.868   0.216 -0.9159  0.2149  1.5127
10350SOL     OW31948   5.218   6.278   0.230  0.0611  0.0101  0.0297
10350SOL    HW131949   5.206   6.336   0.150 -0.9452  0.3620  0.4276
10350SOL    HW231950   5.312   6.286   0.263  0.7214 -0.7381 -1.5573
10351SOL     OW31951   4.644   6.269   5.612  0.6431 -0.5393  0.0249
10351SOL    HW131952   4.627   6.171   5.600 -0.7085 -0.3093 -0.0956
10351SOL    HW231953   4.558   6.316   5.632  1.2346  0.6612 -0.1281
10352SOL     OW31954   5.860   4.476   5.942 -0.4060 -0.1521 -0.3325
10352SOL    HW131955   5.843   4.378   5.936 -0.1749 -0.1288 -2.0534
10352SOL    HW231956   5.785   4.526   5.899 -1.9879  0.6517  3.0422
10353SOL     OW31957   1.120   4.861   6.261  0.0526 -0.0007  0.2387
10353SOL    HW131958   1.078   4.949   6.280  1.4938  0.9066 -0.6314
10353SOL    HW231959   1.072   4.817   6.185  1.0288  1.3300 -1.2039
10354SOL     OW31960   0.378   1.487   1.657 -0.6869  0.2534 -0.4624
10354SOL    HW131961   0.343   1.404   1.703 -0.9277  0.3860 -0.4028
10354SOL    HW231962   0.326   1.566   1.689 -1.6749  0.2013 -1.8434
10355SOL     OW31963   6.521   4.418   2.162  0.1157  0.0889 -0.0939
10355SOL    HW131964   6.572   4.498   2.196 -0.0025  0.0462  0.1859
10355SOL    HW231965   6.423   4.437   2.166  0.0923 -0.0214 -0.1507
10356SOL     OW31966   6.446   1.549   5.299  0.2328  0.1508  0.0306
10356SOL    HW131967   6.461   1.555   5.398 -0.0621  2.9105 -0.0139
10356SOL    HW231968   6.535   1.548   5.252  0.4404  2.2555  0.2706
10357SOL     OW31969   4.357   3.422   6.342  0.1292 -0.0705 -0.7661
10357SOL    HW131970   4.368   3.416   6.243  0.6026 -0.0059 -0.7184
10357SOL    HW231971   4.386   3.336   6.384 -0.0772 -0.1004 -0.6820
10358SOL     OW31972   1.872   1.536   1.897  0.2725  0.1098  0.5454
10358SOL    HW131973   1.930   1.530   1.816 -0.2802 -0.3265  0.1755
10358SOL    HW231974   1.929   1.554   1.978  0.8335  0.4900  0.0774
10359SOL     OW31975   1.801   0.260   2.947 -0.2703  1.0215  0.1335
10359SOL    HW131976   1.711   0.286   2.913 -1.8829 -0.0479  3.1726
10359SOL    HW231977   1.795   0.240   3.045  3.5227  1.9083  0.7074
10360SOL     OW31978   6.657   3.613   3.999  0.3808  0.9162 -0.4821
10360SOL    HW131979   6.667   3.679   4.074 -0.3165 -1.1298  1.5099
10360SOL    HW231980   6.588   3.545   4.023  1.9786 -1.3233 -1.8421
10361SOL     OW31981   2.377   6.079   1.101 -0.4538  0.6526 -0.1880
10361SOL    HW131982   2.326   5.997   1.079 -0.5221  0.1365  1.7502
10361SOL    HW231983   2.474   6.056   1.114 -0.1474  1.1984 -1.3632
10362SOL     OW31984   2.140   3.074   6.447  0.3367 -0.3312  0.2300
10362SOL    HW131985   2.148   3.169   6.479  0.3708  0.7032 -2.5833
10362SOL    HW231986   2.231   3.035   6.435  0.3266 -0.6552  1.1349
10363SOL     OW31987   4.243   0.528   5.162 -0.1962  0.2787 -0.3741
10363SOL    HW131988   4.298   0.612   5.162 -0.0771  0.2155  0.6220
10363SOL    HW231989   4.164   0.540   5.223 -0.0382 -0.4240 -0.0245
10364SOL     OW31990   0.822   2.647   2.378  0.8041 -0.1748  0.2430
10364SOL    HW131991   0.884   2.712   2.336 -0.4457  0.5574 -0.5235
10364SOL    HW231992   0.811   2.668   2.475 -0.2790  1.3701 -0.1744
10365SOL     OW31993   4.805   4.952   5.633  0.1145  0.1529  0.2234
10365SOL    HW131994   4.759   4.982   5.717  0.7670 -0.7615  0.9231
10365SOL    HW231995   4.741   4.960   5.556 -1.2524 -1.1254  1.1700
10366SOL     OW31996   3.351   6.907   3.972  0.1331 -0.1202 -0.1019
10366SOL    HW131997   3.308   6.903   4.062  1.1534 -0.5522  0.3829
10366SOL    HW231998   3.413   6.985   3.968 -1.0479  0.8053 -0.9722
10367SOL     OW31999   5.544   0.438   3.693 -0.4644  0.0956 -0.9654
10367SOL    HW132000   5.502   0.448   3.602 -0.4892  0.3766 -0.9247
10367SOL    HW232001   5.584   0.347   3.702  0.5463  0.4579 -1.6796
10368SOL     OW32002   2.405   0.424   0.191  0.1683 -0.1645 -0.0131
10368SOL    HW132003   2.379   0.374   0.274 -0.2182 -0.9280 -0.5732
10368SOL    HW232004   2.401   0.362   0.113  0.0625  0.6628 -0.6783
10369SOL     OW32005   3.558   3.439   6.534 -0.0163 -0.4116 -0.4154
10369SOL    HW132006   3.527   3.528   6.502 -1.0660 -0.5654  0.1195
10369SOL    HW232007   3.609   3.451   6.620  0.7174 -0.2391 -0.8664
10370SOL     OW32008   1.784   1.510   6.754  0.9053  0.1136  0.5946
10370SOL    HW132009   1.752   1.594   6.712  2.2266  1.2559  1.7489
10370SOL    HW232010   1.844   1.532   6.831  2.0527 -1.8784  0.3488
10371SOL     OW32011   5.428   4.996   0.049  0.1171 -0.2696 -0.3949
10371SOL    HW132012   5.371   4.967  -0.029 -0.9004 -1.0151  0.5822
10371SOL    HW232013   5.395   4.951   0.132  0.9789  0.7613  0.5311
10372SOL     OW32014   6.782   0.613   2.128 -0.4368 -0.4199 -0.4521
10372SOL    HW132015   6.735   0.614   2.217  3.2687  1.7081  1.7344
10372SOL    HW232016   6.736   0.675   2.065 -1.3739  0.4733  1.0423
10373SOL     OW32017   2.829   0.951   5.504  0.0029  0.0154 -0.0049
10373SOL    HW132018   2.796   0.871   5.454 -0.5696  0.2805 -0.0615
10373SOL    HW232019   2.805   0.942   5.601 -1.4575  0.8261 -0.2672
10374SOL     OW32020   2.104   6.802   3.311  0.2702 -0.0795 -0.0687
10374SOL    HW132021   2.067   6.771   3.399 -0.2322  1.8826  0.4680
10374SOL    HW232022   2.153   6.727   3.267 -1.0135 -1.6275  1.0304
10375SOL     OW32023   5.165   2.663   1.695  0.0079 -0.5836 -0.0293
10375SOL    HW132024   5.181   2.735   1.763 -0.7776  0.5945 -1.0570
10375SOL    HW232025   5.089   2.605   1.724  0.0802 -0.4764  0.3810
10376SOL     OW32026   4.660   0.816   5.483 -0.0026  0.0075  0.9360
10376SOL    HW132027   4.647   0.897   5.426  0.4769 -1.4348 -1.3087
10376SOL    HW232028   4.571   0.785   5.516 -0.5948 -0.4414 -0.9588
10377SOL     OW32029   5.414   0.763   5.085  0.4155  0.4573 -0.1007
10377SOL    HW132030   5.378   0.808   5.166 -0.1456  0.5214 -0.3761
10377SOL    HW232031   5.354   0.687   5.060  0.2838  0.7689 -0.7610
10378SOL     OW32032   0.023   6.302   5.896  0.4904  0.0707  0.1808
10378SOL    HW132033   0.010   6.373   5.966  0.1074  1.0559 -0.8600
10378SOL    HW232034   0.089   6.235   5.929 -2.1799 -1.5015  3.0007
10379SOL     OW32035   3.296   1.572   6.278  0.0242  0.2307 -0.6080
10379SOL    HW132036   3.356   1.527   6.211  0.0839 -1.4762  0.5037
10379SOL    HW232037   3.342   1.573   6.367 -0.8739  0.5754 -0.1376
10380SOL     OW32038   3.218   0.345   5.593 -0.5768 -0.0278 -0.1829
10380SOL    HW132039   3.200   0.354   5.691 -0.1069  1.8430 -0.2315
10380SOL    HW232040   3.301   0.290   5.580  0.3361  1.1426  0.5647
10381SOL     OW32041   3.187   5.128   4.411 -0.9400  0.5143  0.2686
10381SOL    HW132042   3.156   5.219   4.439  0.6640  0.9880  0.5829
10381SOL    HW232043   3.269   5.136   4.355 -1.6728 -0.6839 -1.0458
10382SOL     OW32044   5.919   6.691   0.858  0.2127  0.8567 -0.1139
10382SOL    HW132045   5.843   6.723   0.801  0.0819 -0.8102 -0.9496
10382SOL    HW232046   6.002   6.741   0.835  0.0888  0.4224 -1.5695
10383SOL     OW32047   4.940   2.043   0.742 -0.6000  0.3732  0.0013
10383SOL    HW132048   4.972   2.128   0.783 -0.6182  1.1975 -1.5970
10383SOL    HW232049   4.961   2.044   0.644 -0.0486 -1.7448  0.0531
10384SOL     OW32050   3.736   0.679   0.331  0.0211 -0.1433 -0.4197
10384SOL    HW132051   3.780   0.759   0.291  0.1332 -0.1058 -0.2227
10384SOL    HW232052   3.754   0.676   0.430  1.6718 -1.4585 -0.7176
10385SOL     OW32053   5.383   2.893   6.926 -0.3997  0.3544  0.7857
10385SOL    HW132054   5.457   2.827   6.938 -1.4225 -0.7798  1.1349
10385SOL    HW232055   5.307   2.869   6.987 -1.1519  1.3448  0.2730
10386SOL     OW32056   2.624   0.281   5.509 -0.5751 -0.2064  0.3530
10386SOL    HW132057   2.702   0.280   5.571 -0.6541 -1.4328  0.4457
10386SOL    HW232058   2.554   0.218   5.542 -0.3582 -1.3607 -1.2755
10387SOL     OW32059   6.066   4.509   5.652 -0.0419 -0.5016 -0.2673
10387SOL    HW132060   5.976   4.477   5.622 -1.1054  0.8413  1.2873
10387SOL    HW232061   6.095   4.457   5.732 -0.3984  0.3927  0.4574
10388SOL     OW32062   0.207   6.773   2.312 -0.5525  0.3498  0.1209
10388SOL    HW132063   0.124   6.824   2.287  0.4784  1.1535 -1.8828
10388SOL    HW232064   0.287   6.818   2.273  0.5734 -2.0124 -0.5002
10389SOL     OW32065   0.086   6.160   1.955 -0.2244 -0.1461 -0.3282
10389SOL    HW132066   0.173   6.197   1.989  0.7450  0.4930 -3.2069
10389SOL    HW232067   0.099   6.064   1.930 -0.6403 -0.3175  0.0989
10390SOL     OW32068   0.425   3.562   4.295 -0.1179  0.1366 -0.1590
10390SOL    HW132069   0.342   3.511   4.316  0.6579 -1.1882 -0.2537
10390SOL    HW232070   0.477   3.515   4.224  1.0978  0.5232  0.4404
10391SOL     OW32071   3.599   5.797   4.502  0.2473 -0.1254  0.1486
10391SOL    HW132072   3.502   5.772   4.497 -0.2226  1.3239  1.2524
10391SOL    HW232073   3.631   5.788   4.597  1.4027 -1.2527 -0.3210
10392SOL     OW32074   0.914   6.904   6.494  0.1630  0.4162 -0.4448
10392SOL    HW132075   0.988   6.905   6.426  0.4346  1.1802 -0.1526
10392SOL    HW232076   0.928   6.828   6.557  0.8269  0.6720 -0.2719
10393SOL     OW32077   2.118   1.550   4.262  0.6103  0.3149 -0.2910
10393SOL    HW132078   2.020   1.555   4.241  0.7492 -1.6964 -1.6936
10393SOL    HW232079   2.157   1.642   4.261 -1.0461  1.0500 -0.8473
10394SOL     OW32080   1.007   4.847   2.543  0.1235 -0.4688  0.1302
10394SOL    HW132081   0.941   4.914   2.508 -0.9092  0.2121  3.0979
10394SOL    HW232082   0.966   4.755   2.538 -1.2272 -0.0422  2.0561
10395SOL     OW32083   0.155   0.206   4.300 -0.2546  0.6007 -0.1662
10395SOL    HW132084   0.180   0.262   4.222  0.3103 -2.7669 -2.6231
10395SOL    HW232085   0.115   0.120   4.268 -3.1434  0.3503  3.3699
10396SOL     OW32086   0.308   2.404   3.553  0.5395 -0.8094  0.5826
10396SOL    HW132087   0.328   2.489   3.602 -1.2732  0.7171 -1.1422
10396SOL    HW232088   0.288   2.424   3.457 -0.8996 -3.0714  0.3179
10397SOL     OW32089   4.289   2.258   2.453 -0.2329 -0.1485  0.0201
10397SOL    HW132090   4.237   2.240   2.370 -0.5276 -0.7530  0.3261
10397SOL    HW232091   4.243   2.215   2.531 -0.5905  1.3614  0.6841
10398SOL     OW32092   1.429   3.823   3.040  0.0402 -0.4163 -0.8679
10398SOL    HW132093   1.528   3.813   3.055 -0.1001 -1.3633 -0.5265
10398SOL    HW232094   1.395   3.900   3.094  0.7992  0.7300 -1.9674
10399SOL     OW32095   0.454   1.827   5.460 -0.4508 -0.2943 -0.2038
10399SOL    HW132096   0.481   1.869   5.374 -0.4639 -1.1714 -0.6497
10399SOL    HW232097   0.370   1.773   5.446 -0.0505 -1.0379  0.1743
10400SOL     OW32098   1.792   4.477   1.925  0.0247 -0.1388  0.0080
10400SOL    HW132099   1.828   4.522   1.843 -3.3457  0.2111 -1.4782
10400SOL    HW232100   1.810   4.379   1.920 -0.1332 -0.1202 -1.1979
10401SOL     OW32101   6.858   6.691   1.575 -0.3008  0.2734 -0.1780
10401SOL    HW132102   6.837   6.788   1.587  0.4555  0.5199 -0.7643
10401SOL    HW232103   6.781   6.636   1.608 -0.5002  1.0467  0.6808
10402SOL     OW32104   1.093   1.798   2.887 -0.4887  0.4520  0.0861
10402SOL    HW132105   1.029   1.875   2.898  1.1495  1.7691  0.9505
10402SOL    HW232106   1.142   1.807   2.801  0.0527  0.6821  0.4090
10403SOL     OW32107   4.254   1.705   4.115  0.0853  0.8428  0.4032
10403SOL    HW132108   4.346   1.693   4.076 -0.9074  1.9575 -2.5603
10403SOL    HW232109   4.210   1.616   4.125  0.5458  0.4815 -0.6916
10404SOL     OW32110   6.943   0.524   5.640 -0.1031 -0.0373  0.6190
10404SOL    HW132111   6.843   0.527   5.642 -0.0871  0.9901  0.4341
10404SOL    HW232112   6.979   0.526   5.733 -0.2375  1.0853  0.6587
10405SOL     OW32113   3.857   0.025   5.646 -0.2570  0.8606  0.2697
10405SOL    HW132114   3.788   0.029   5.718 -1.3259 -1.6454 -0.4663
10405SOL    HW232115   3.935  -0.030   5.677 -1.4424 -1.6642 -0.8608
10406SOL     OW32116   0.703   6.247   4.587 -0.3365 -0.2571  0.4646
10406SOL    HW132117   0.727   6.267   4.682  0.6078  0.3334  0.1042
10406SOL    HW232118   0.604   6.262   4.575 -0.7202 -1.5591  1.6493
10407SOL     OW32119   5.006   0.674   0.900 -0.2046  0.1991  0.3832
10407SOL    HW132120   4.914   0.701   0.874 -1.0654 -0.7230  2.2699
10407SOL    HW232121   5.009   0.658   0.999  1.1296 -2.9142 -0.0471
10408SOL     OW32122   2.840   0.379   1.573  0.2265  0.4426  0.1990
10408SOL    HW132123   2.838   0.479   1.579  0.5318  0.4625 -0.0535
10408SOL    HW232124   2.892   0.343   1.650 -1.0888  0.4020  1.1073
10409SOL     OW32125   0.823   3.871   1.108 -0.0266 -0.1397  0.0668
10409SOL    HW132126   0.903   3.852   1.165 -0.6726  0.4322  1.1848
10409SOL    HW232127   0.743   3.884   1.165 -0.6650  0.6116 -0.9575
10410SOL     OW32128   3.875   5.093   2.208  0.3069  0.0834  0.1156
10410SOL    HW132129   3.799   5.091   2.143  0.5098 -0.7939 -0.1147
10410SOL    HW232130   3.940   5.020   2.185  0.8830  0.3989  0.7076
10411SOL     OW32131   2.626   5.404   1.022  0.2828  0.0202 -0.0519
10411SOL    HW132132   2.541   5.444   0.987  1.6837  1.3430 -2.1824
10411SOL    HW232133   2.640   5.315   0.980  0.4618  0.2768 -0.5468
10412SOL     OW32134   0.168   5.136   5.133  0.4691  0.1649 -0.2445
10412SOL    HW132135   0.187   5.174   5.224 -0.3457  0.4540 -0.1864
10412SOL    HW232136   0.253   5.108   5.090  0.9781  1.0324  0.1740
10413SOL     OW32137   5.941   1.180   4.506 -0.3831 -0.0962  0.0421
10413SOL    HW132138   6.029   1.138   4.529 -0.4649 -0.3503 -0.1131
10413SOL    HW232139   5.927   1.261   4.563  0.1258  0.1616 -0.1953
10414SOL     OW32140   4.841   4.371   5.262  0.9016 -0.2353  0.3443
10414SOL    HW132141   4.813   4.294   5.204 -1.0048 -0.4528  1.4644
10414SOL    HW232142   4.911   4.340   5.326 -0.9478 -1.5630  1.8530
10415SOL     OW32143   6.198   4.725   1.283 -0.1372  0.2153  0.1295
10415SOL    HW132144   6.125   4.790   1.263  1.1133  0.8764 -2.6887
10415SOL    HW232145   6.278   4.773   1.317  0.0736 -0.1199  0.1151
10416SOL     OW32146   6.621   6.539   0.752  0.3775  0.0576 -0.1292
10416SOL    HW132147   6.533   6.493   0.749  0.5134 -0.1763 -0.7904
10416SOL    HW232148   6.615   6.627   0.705 -0.3209  1.5576  2.5446
10417SOL     OW32149   4.218   4.767   4.594 -0.0775  0.5178  0.3781
10417SOL    HW132150   4.243   4.781   4.690  0.0345  0.5674  0.3414
10417SOL    HW232151   4.120   4.782   4.584 -0.1487  0.1741  0.5488
10418SOL     OW32152   7.007   2.777   6.848 -0.3796 -0.4497  0.4604
10418SOL    HW132153   7.016   2.811   6.942  3.0922  0.9412 -0.2656
10418SOL    HW232154   6.966   2.848   6.791  0.9555  0.1611  0.2280
10419SOL     OW32155   0.101   6.748   2.982  0.5128  0.1689  0.7513
10419SOL    HW132156   0.141   6.677   2.924  1.7139  0.3008  1.3970
10419SOL    HW232157   0.023   6.710   3.032  0.4848 -0.3909  0.2974
10420SOL     OW32158   5.863   3.791   4.517 -0.1266  0.0210 -0.3025
10420SOL    HW132159   5.962   3.803   4.507 -0.2146  0.0971 -1.1236
10420SOL    HW232160   5.835   3.817   4.609  0.6299 -0.0701 -0.0447
10421SOL     OW32161   1.811   3.508   6.077 -0.9111  0.0824 -0.4481
10421SOL    HW132162   1.789   3.464   5.990  1.0974 -0.5216 -0.6801
10421SOL    HW232163   1.816   3.607   6.064  0.5907 -0.0825 -1.3337
10422SOL     OW32164   6.460   3.195   0.559  0.2855  0.2140  0.3077
10422SOL    HW132165   6.456   3.116   0.498 -0.9683 -0.8102  1.6348
10422SOL    HW232166   6.554   3.210   0.589  0.3734 -1.6410  1.0853
10423SOL     OW32167   2.687   5.641   3.252  0.4321 -0.0657  0.8257
10423SOL    HW132168   2.734   5.553   3.256  1.0361  0.2645  1.0947
10423SOL    HW232169   2.735   5.702   3.189  0.3875  0.2868  1.1282
10424SOL     OW32170   5.108   0.708   2.716  0.2460 -0.0601  0.4446
10424SOL    HW132171   5.118   0.610   2.730  0.3148  0.2792  3.2979
10424SOL    HW232172   5.197   0.752   2.720  0.4607  0.0238 -2.6842
10425SOL     OW32173   0.585   4.757   0.328 -0.8174  0.4037 -0.5211
10425SOL    HW132174   0.597   4.751   0.229  0.6546 -0.4531 -0.3202
10425SOL    HW232175   0.523   4.685   0.359  1.2158 -1.4129 -0.4797
10426SOL     OW32176   6.904   4.683   5.631  0.1892  0.3710  0.3392
10426SOL    HW132177   6.982   4.648   5.579  0.1259 -1.9771  1.6950
10426SOL    HW232178   6.917   4.662   5.728 -1.8948  0.3762  0.6488
10427SOL     OW32179   5.053   0.352   4.971 -0.0391  0.0535  0.0442
10427SOL    HW132180   4.963   0.371   5.012 -0.9486 -1.4250 -1.1528
10427SOL    HW232181   5.091   0.269   5.012 -0.2368 -0.5556 -0.9865
10428SOL     OW32182   2.221   0.853   5.568  0.4275 -0.0708  0.1008
10428SOL    HW132183   2.237   0.888   5.475 -1.0710 -1.0725 -0.5788
10428SOL    HW232184   2.214   0.930   5.631 -0.5170  0.7614 -0.9640
10429SOL     OW32185   2.581   4.716   0.056  0.5637  0.0381 -0.5988
10429SOL    HW132186   2.568   4.618   0.038  3.2539 -0.1453 -2.0503
10429SOL    HW232187   2.636   4.756  -0.018 -2.5731  3.2851 -1.4786
10430SOL     OW32188   1.306   1.957   6.730  0.2410  0.6258  0.4283
10430SOL    HW132189   1.331   1.868   6.767  2.3690  0.8039 -0.4211
10430SOL    HW232190   1.383   2.020   6.741 -0.1486  1.5133 -1.5865
10431SOL     OW32191   6.058   1.956   4.026 -0.0235 -0.4731  0.5294
10431SOL    HW132192   6.047   1.867   4.071  0.8621 -0.6136  0.4852
10431SOL    HW232193   5.976   1.976   3.972  0.9703 -2.7710 -2.0810
10432SOL     OW32194   1.287   5.736   0.402  0.1308  0.5041 -0.8279
10432SOL    HW132195   1.385   5.720   0.416  0.3103  2.3258  0.3152
10432SOL    HW232196   1.274   5.823   0.355 -0.9173 -0.7119 -2.9442
10433SOL     OW32197   2.744   6.175   3.148 -0.5209 -0.1206 -0.2235
10433SOL    HW132198   2.747   6.274   3.139  1.0784 -0.2211 -1.1935
10433SOL    HW232199   2.681   6.137   3.080  0.0256  0.1562 -0.9042
10434SOL     OW32200   3.797   1.424   0.282 -0.6657  0.6709  0.0611
10434SOL    HW132201   3.816   1.415   0.380 -0.7889  1.1078  0.1244
10434SOL    HW232202   3.870   1.476   0.238  0.7756 -1.7222 -0.5629
10435SOL     OW32203   2.601   1.479   1.006  0.5733  0.2238 -0.6154
10435SOL    HW132204   2.612   1.536   1.087  0.4160  1.2724 -1.3134
10435SOL    HW232205   2.504   1.458   0.993  0.5435  0.4686 -0.7996
10436SOL     OW32206   1.731   5.126   1.024 -0.2183 -0.1873 -0.3765
10436SOL    HW132207   1.682   5.040   1.012 -0.4289 -0.0583 -0.4428
10436SOL    HW232208   1.825   5.116   0.992  0.3272 -0.9552  1.3456
10437SOL     OW32209   0.145   6.566   4.722  0.2683 -0.5306  0.2683
10437SOL    HW132210   0.188   6.646   4.681  0.1784  0.6885  2.3864
10437SOL    HW232211   0.214   6.509   4.766  0.1466 -0.6207  0.3458
10438SOL     OW32212   1.453   6.727   2.131 -0.1911  0.0576  0.2589
10438SOL    HW132213   1.495   6.692   2.047  2.0110 -0.6848  1.6089
10438SOL    HW232214   1.502   6.808   2.162  0.2721 -0.8064  1.8599
10439SOL     OW32215   4.729   4.840   6.437  0.0622 -0.0032 -0.1745
10439SOL    HW132216   4.719   4.886   6.526 -2.2593 -0.4494 -0.1300
10439SOL    HW232217   4.776   4.900   6.373  0.2205  1.0192  0.8689
10440SOL     OW32218   4.310   1.324   0.946 -0.2656 -0.1145  0.6902
10440SOL    HW132219   4.277   1.399   1.004  1.3423 -0.7571  2.5540
10440SOL    HW232220   4.384   1.357   0.888 -1.2793  0.3130 -0.4037
10441SOL     OW32221   6.570   2.703   6.277 -0.2434 -0.1920  0.5275
10441SOL    HW132222   6.613   2.614   6.290  1.0363  0.1992 -0.7371
10441SOL    HW232223   6.597   2.740   6.188 -3.8585 -0.2473 -0.7598
10442SOL     OW32224   2.406   6.947   5.114  0.1827 -0.2479  0.0500
10442SOL    HW132225   2.353   6.963   5.031 -0.6611 -1.0021  0.4335
10442SOL    HW232226   2.374   7.007   5.187  0.6419  0.1113 -0.0332
10443SOL     OW32227   6.854   0.040   5.581 -0.5963  0.5553 -0.0839
10443SOL    HW132228   6.759   0.024   5.554 -0.1143 -3.3497 -0.0227
10443SOL    HW232229   6.863   0.029   5.679 -0.3003  2.7676  0.1915
10444SOL     OW32230   3.915   5.024   5.215 -0.0467 -0.0197 -0.2173
10444SOL    HW132231   3.846   5.025   5.287  1.1039 -0.0556  0.9279
10444SOL    HW232232   3.886   5.084   5.139 -0.8060  0.8535  0.7337
10445SOL     OW32233   2.110   1.575   5.871  0.6337  0.4163  0.3119
10445SOL    HW132234   2.100   1.596   5.968  0.9709  0.5458  0.3187
10445SOL    HW232235   2.066   1.647   5.817  1.4468  0.9557  0.3439
10446SOL     OW32236   2.676   4.624   6.030  0.1015 -0.3461 -0.1788
10446SOL    HW132237   2.674   4.526   6.007  1.3333 -0.9698  2.1139
10446SOL    HW232238   2.598   4.669   5.986 -1.0991 -2.5432 -0.4741
10447SOL     OW32239   0.979   2.952   4.158 -0.8343 -0.1958 -0.2365
10447SOL    HW132240   0.943   2.927   4.068  0.3353  0.7915 -1.0118
10447SOL    HW232241   0.995   2.870   4.213 -2.2884 -0.7614 -0.6257
10448SOL     OW32242   0.432   0.076   0.204  0.3473 -0.2392  0.2247
10448SOL    HW132243   0.508   0.033   0.253  0.4934 -0.6459 -0.3436
10448SOL    HW232244   0.398   0.012   0.135 -0.1847  0.1350  0.1377
10449SOL     OW32245   3.016   6.175   5.213  0.4340  0.3177 -0.0966
10449SOL    HW132246   3.084   6.224   5.158 -0.3859  0.0515 -1.4050
10449SOL    HW232247   2.986   6.234   5.288  2.5456  0.2026  0.9248
10450SOL     OW32248   0.995   1.586   5.086 -0.5324 -0.4981  0.0406
10450SOL    HW132249   1.082   1.571   5.039 -0.1797 -1.3587  0.9442
10450SOL    HW232250   0.927   1.617   5.020  0.1322 -1.0190 -0.9143
10451SOL     OW32251   0.823   0.852   4.696 -0.6254 -0.1774  0.2881
10451SOL    HW132252   0.853   0.908   4.774  0.1322  0.0511 -0.1486
10451SOL    HW232253   0.723   0.848   4.694 -0.6466 -0.5780  1.5383
10452SOL     OW32254   5.044   2.618   4.082 -0.3712  0.4282  0.0905
10452SOL    HW132255   4.990   2.539   4.111  1.4527 -0.3940  1.5187
10452SOL    HW232256   5.139   2.605   4.111  0.2958  2.4814 -0.9814
10453SOL     OW32257   0.694   6.253   3.330 -0.3283 -0.3051 -0.5722
10453SOL    HW132258   0.724   6.179   3.390  0.5795  0.0173 -0.6090
10453SOL    HW232259   0.760   6.328   3.336 -0.7430  0.1162 -1.2546
10454SOL     OW32260   2.347   4.529   0.196  0.2500 -0.4770 -0.3498
10454SOL    HW132261   2.336   4.624   0.228  2.3510 -0.0938 -0.6081
10454SOL    HW232262   2.258   4.493   0.168 -0.8546  0.8928  1.1537
10455SOL     OW32263   0.623   4.314   4.368  0.3709 -0.8139  0.2048
10455SOL    HW132264   0.603   4.233   4.423 -1.3509  0.4605  1.5603
10455SOL    HW232265   0.665   4.286   4.281  2.1439 -2.9485  1.6613
10456SOL     OW32266   2.586   0.367   5.249 -0.6132 -0.0951 -0.6641
10456SOL    HW132267   2.567   0.342   5.344 -0.5178  4.7690  0.9067
10456SOL    HW232268   2.680   0.341   5.226 -0.5293 -1.0616  0.6413
10457SOL     OW32269   2.208   1.955   1.356  0.4010  0.2280  0.1673
10457SOL    HW132270   2.238   1.943   1.262 -0.6953 -0.1724 -0.1414
10457SOL    HW232271   2.231   2.047   1.387  3.7106 -0.6183  0.6254
10458SOL     OW32272   2.185   1.462   0.261  0.0405 -0.7599 -0.5952
10458SOL    HW132273   2.199   1.557   0.231  0.4091 -0.9639 -1.0902
10458SOL    HW232274   2.227   1.449   0.351 -1.5405 -0.0000  0.2884
10459SOL     OW32275   5.585   5.084   1.956  0.1608 -0.8632  0.0581
10459SOL    HW132276   5.552   5.022   2.027 -1.0313 -1.7626 -1.2460
10459SOL    HW232277   5.679   5.060   1.932 -0.6001 -2.8347 -1.1108
10460SOL     OW32278   6.394   3.417   6.901  0.2124  0.2568  0.2522
10460SOL    HW132279   6.395   3.405   7.000  0.7934  1.4688  0.4077
10460SOL    HW232280   6.401   3.328   6.856 -0.2003 -0.3085  1.2959
10461SOL     OW32281   5.585   5.001   3.572  0.1637  0.1962  0.0533
10461SOL    HW132282   5.684   4.992   3.586 -0.0010  0.8719  1.8526
10461SOL    HW232283   5.563   5.095   3.548  0.0857 -0.2842 -1.9427
10462SOL     OW32284   4.569   4.259   1.621  0.3461  0.1472 -0.1220
10462SOL    HW132285   4.506   4.259   1.699 -0.1701  0.6002 -0.5315
10462SOL    HW232286   4.662   4.275   1.653 -0.0259  1.5843  0.2809
10463SOL     OW32287   3.596   3.149   5.184  0.5781  0.5852 -0.7072
10463SOL    HW132288   3.564   3.235   5.223 -2.6673 -1.5728  1.9220
10463SOL    HW232289   3.682   3.123   5.228 -0.3082  0.7723  1.2417
10464SOL     OW32290   4.846   6.298   1.776 -0.3382 -0.3951 -0.1887
10464SOL    HW132291   4.871   6.203   1.757  0.0473 -0.1099 -1.1499
10464SOL    HW232292   4.912   6.337   1.841  0.2137 -0.4322 -0.7146
10465SOL     OW32293   3.719   4.106   0.486 -0.0238 -0.2847  0.2221
10465SOL    HW132294   3.625   4.138   0.492 -0.2275 -0.2240 -2.3761
10465SOL    HW232295   3.720   4.006   0.481  0.0966 -0.3070  0.6202
10466SOL     OW32296   5.216   4.572   6.455 -0.3210 -0.0573  0.1359
10466SOL    HW132297   5.165   4.658   6.454 -1.4546 -0.7066  0.6681
10466SOL    HW232298   5.312   4.591   6.474 -0.5613  1.0888  0.2901
10467SOL     OW32299   0.341   5.732   5.997 -0.2189  0.1273  0.4961
10467SOL    HW132300   0.381   5.671   5.928 -0.1951 -0.2509  0.8374
10467SOL    HW232301   0.372   5.826   5.981  0.5415 -0.1079  0.5567
10468SOL     OW32302   6.535   0.371   1.820  0.3525  0.2328  0.4964
10468SOL    HW132303   6.630   0.403   1.815  0.3041  0.3352  0.2198
10468SOL    HW232304   6.474   0.441   1.784  0.2722 -0.2880 -0.4059
10469SOL     OW32305   0.521   3.153   4.331 -0.2956 -0.2172 -0.3396
10469SOL    HW132306   0.613   3.131   4.298 -0.2719 -1.2544  0.3699
10469SOL    HW232307   0.482   3.226   4.275  0.9966  0.3193 -0.5857
10470SOL     OW32308   2.079   4.353   6.870 -0.1030  0.4802  0.1438
10470SOL    HW132309   1.994   4.326   6.824  0.9072  0.5935 -1.8775
10470SOL    HW232310   2.150   4.285   6.850  0.7938  1.3942  0.1935
10471SOL     OW32311   2.588   5.122   5.558 -0.1512 -0.1203 -0.3802
10471SOL    HW132312   2.543   5.204   5.523  1.2072  0.8108 -0.0208
10471SOL    HW232313   2.619   5.139   5.652 -0.7751 -1.4256  0.0903
10472SOL     OW32314   3.412   5.599   5.830 -0.4168  0.3700 -0.3110
10472SOL    HW132315   3.495   5.646   5.801 -0.1896 -0.5777 -1.2553
10472SOL    HW232316   3.346   5.666   5.863  0.2210  1.2678 -0.8169
10473SOL     OW32317   5.511   3.773   0.052  0.4318 -0.5900  0.0299
10473SOL    HW132318   5.458   3.835  -0.006  1.1509 -0.4045 -0.4448
10473SOL    HW232319   5.448   3.714   0.103 -0.2590  0.5347  0.5122
10474SOL     OW32320   6.762   5.778   5.444 -0.2638 -0.1855  0.0862
10474SOL    HW132321   6.736   5.694   5.491 -0.4472 -0.1847 -0.0119
10474SOL    HW232322   6.789   5.847   5.511  2.7644 -1.2385  0.1060
10475SOL     OW32323   3.956   6.526   0.712 -0.0816 -0.3080 -0.4589
10475SOL    HW132324   3.862   6.550   0.739 -0.8164 -1.4601 -1.8307
10475SOL    HW232325   3.983   6.441   0.757  0.8352  0.6590  0.9234
10476SOL     OW32326   5.069   6.392   2.366  0.0449 -0.2785 -0.0631
10476SOL    HW132327   5.126   6.453   2.311 -1.4716 -0.7724 -2.2947
10476SOL    HW232328   5.119   6.307   2.383  0.5901 -0.0659 -0.5608
10477SOL     OW32329   5.309   0.045   4.829 -0.0028 -0.1564 -0.8598
10477SOL    HW132330   5.329   0.093   4.744  0.6654 -0.2950 -0.7847
10477SOL    HW232331   5.320  -0.053   4.815  1.1628 -0.1065 -0.3331
10478SOL     OW32332   5.918   1.854   1.083 -0.0386 -0.0630 -0.2267
10478SOL    HW132333   5.870   1.907   1.013 -0.7328 -3.0332 -2.2220
10478SOL    HW232334   6.002   1.816   1.043 -0.6793 -2.2164  0.3265
10479SOL     OW32335   7.021   4.667   1.505  0.0601 -0.0547  0.1014
10479SOL    HW132336   6.968   4.583   1.494 -1.6775  0.9506  0.4093
10479SOL    HW232337   6.976   4.742   1.455  1.3018  0.8154  0.2286
10480SOL     OW32338   1.515   6.156   2.796  0.3135 -0.3700 -0.3554
10480SOL    HW132339   1.464   6.229   2.841  0.4035 -0.2503 -0.4468
10480SOL    HW232340   1.514   6.074   2.853 -2.4668 -1.3292 -1.6067
10481SOL     OW32341   0.539   6.503   1.181  0.0036 -0.2603  0.0570
10481SOL    HW132342   0.476   6.458   1.117  0.8170 -0.9473 -0.2763
10481SOL    HW232343   0.577   6.585   1.139 -1.9998  1.1970  0.9098
10482SOL     OW32344   4.315   4.786   5.307 -0.0222  0.6625 -0.2612
10482SOL    HW132345   4.314   4.858   5.238 -0.0532  0.0949 -0.8583
10482SOL    HW232346   4.223   4.775   5.346 -0.9513 -1.4606 -2.7290
10483SOL     OW32347   6.328   1.734   0.782 -0.1200 -0.6944 -0.1797
10483SOL    HW132348   6.405   1.792   0.754  1.0075 -2.2693 -0.4412
10483SOL    HW232349   6.250   1.750   0.721  0.9067 -1.0331 -1.6244
10484SOL     OW32350   5.254   1.354   5.892  0.2647  0.0433  0.1870
10484SOL    HW132351   5.326   1.376   5.958  0.7846  0.7316 -0.5866
10484SOL    HW232352   5.229   1.258   5.901  0.3324  0.1195  1.3732
10485SOL     OW32353   6.647   5.799   6.068 -0.4798 -0.0367  0.3380
10485SOL    HW132354   6.627   5.841   5.980 -0.8654  2.5067  1.5560
10485SOL    HW232355   6.570   5.812   6.130  0.9898  1.1157  2.0273
10486SOL     OW32356   6.725   2.391   2.995 -0.6548  0.1952  0.4156
10486SOL    HW132357   6.680   2.378   3.084 -1.4433  0.8469  0.1248
10486SOL    HW232358   6.805   2.449   3.007  0.8958 -1.9546  1.1478
10487SOL     OW32359   3.578   1.178   4.861 -0.0230  0.3819  0.3753
10487SOL    HW132360   3.521   1.253   4.826  0.3162  1.2605  1.6405
10487SOL    HW232361   3.659   1.169   4.803 -0.8366 -0.1015 -0.7378
10488SOL     OW32362   5.419   5.565   5.253  0.2600 -0.9945 -0.4431
10488SOL    HW132363   5.464   5.504   5.318  0.3283 -1.6634 -1.0974
10488SOL    HW232364   5.333   5.523   5.223 -0.6981  0.1565  0.6066
10489SOL     OW32365   1.406   5.033   6.751  0.3227 -0.6973 -0.5367
10489SOL    HW132366   1.392   5.131   6.736 -0.9871 -1.1966 -3.2339
10489SOL    HW232367   1.484   5.019   6.811  0.5958  1.9863 -0.1558
10490SOL     OW32368   5.983   5.776   4.875  0.1144  0.4488  0.1882
10490SOL    HW132369   5.908   5.841   4.885 -1.7406 -1.7706  1.9304
10490SOL    HW232370   6.034   5.771   4.961  0.6810  0.1079 -0.1578
10491SOL     OW32371   6.794   6.004   5.239  0.6007 -0.3148  0.0140
10491SOL    HW132372   6.759   6.095   5.257 -1.1910 -1.3917  2.7423
10491SOL    HW232373   6.876   5.988   5.294  0.7668 -0.4336 -0.2645
10492SOL     OW32374   4.249   3.851   0.487  0.2864 -0.5899  0.1213
10492SOL    HW132375   4.260   3.949   0.508  0.0795 -0.7054  0.7942
10492SOL    HW232376   4.326   3.820   0.431  0.7042 -0.1995  0.4738
10493SOL     OW32377   4.620   1.210   0.466  0.2807 -0.3915 -0.4136
10493SOL    HW132378   4.623   1.114   0.439  0.1116 -1.7219  3.6223
10493SOL    HW232379   4.711   1.239   0.496 -0.1893 -0.1346  0.8046
10494SOL     OW32380   6.807   1.571   5.791 -0.1431  0.8902 -0.5430
10494SOL    HW132381   6.780   1.475   5.800  0.5590  0.7348  0.0108
10494SOL    HW232382   6.897   1.584   5.833  0.8629  1.2945 -2.6610
10495SOL     OW32383   2.365   1.000   0.707 -0.0849 -0.5016  0.0543
10495SOL    HW132384   2.268   0.977   0.707 -0.3476  0.5217  0.7988
10495SOL    HW232385   2.404   0.980   0.797 -0.3377  1.8523  0.7532
10496SOL     OW32386   6.958   6.681   0.983 -0.3045 -0.0290  0.0819
10496SOL    HW132387   6.969   6.752   1.052  0.2216 -0.3181  0.2932
10496SOL    HW232388   6.974   6.591   1.023 -0.4729 -0.2360 -0.3034
10497SOL     OW32389   3.201   6.706   0.447  0.4735  0.0892  0.5101
10497SOL    HW132390   3.289   6.659   0.445  0.4854  0.1032 -1.4775
10497SOL    HW232391   3.215   6.803   0.425  0.0099  0.1455  0.4554
10498SOL     OW32392   3.144   6.784   4.789 -0.3491  0.0315 -0.3909
10498SOL    HW132393   3.123   6.695   4.748  1.2588 -0.7984  0.4714
10498SOL    HW232394   3.095   6.793   4.875 -2.4415  1.0816 -1.6093
10499SOL     OW32395   3.689   5.155   1.982 -0.3403  0.1896  0.0585
10499SOL    HW132396   3.728   5.242   1.951 -2.3391  0.6675 -1.2722
10499SOL    HW232397   3.705   5.085   1.912 -1.4621  0.2956 -0.3215
10500SOL     OW32398   1.943   1.635   0.469 -0.4569  0.0352 -0.2709
10500SOL    HW132399   2.023   1.693   0.456 -1.6876  1.6232 -1.0538
10500SOL    HW232400   1.971   1.550   0.514  1.6898  0.4127 -0.7865
10501SOL     OW32401   0.701   3.574   4.433  0.0566 -0.4308  0.3222
10501SOL    HW132402   0.657   3.529   4.355 -2.5242 -0.2420  1.5654
10501SOL    HW232403   0.673   3.671   4.436  0.3736 -0.3556  1.2704
10502SOL     OW32404   4.123   0.761   3.857  0.7223  0.5917  0.0026
10502SOL    HW132405   4.147   0.710   3.940 -0.6680 -0.5608 -0.2771
10502SOL    HW232406   4.073   0.844   3.883  1.1214  0.7290  0.3530
10503SOL     OW32407   1.195   5.980   0.296 -0.0799  0.6237  0.1305
10503SOL    HW132408   1.222   6.076   0.287 -1.1383  0.9086 -0.1260
10503SOL    HW232409   1.105   5.974   0.338  1.0536 -0.3773  2.6899
10504SOL     OW32410   2.268   2.319   0.010  0.0339  0.2064 -0.3223
10504SOL    HW132411   2.364   2.300  -0.008  0.1226  0.0925  0.2555
10504SOL    HW232412   2.228   2.368  -0.068  1.1336  2.2625  0.3281
10505SOL     OW32413   2.292   5.283   1.450  0.2680  0.2084 -0.1596
10505SOL    HW132414   2.212   5.227   1.428  0.2693 -0.8483  2.2558
10505SOL    HW232415   2.366   5.261   1.385 -0.8754  0.0692 -1.4600
10506SOL     OW32416   6.176   5.822   6.603 -0.2965  0.4937 -0.4003
10506SOL    HW132417   6.184   5.777   6.692 -0.0654  2.2783  0.5255
10506SOL    HW232418   6.139   5.758   6.537  0.0454 -1.0457  0.8443
10507SOL     OW32419   1.143   0.976   4.629  0.6068 -0.0920 -0.3347
10507SOL    HW132420   1.161   1.075   4.624  2.1535 -0.3856 -1.3310
10507SOL    HW232421   1.048   0.959   4.602  0.3637  1.1124 -0.3211
10508SOL     OW32422   4.972   5.950   1.200  0.5359  0.1502  0.3085
10508SOL    HW132423   4.944   6.043   1.179 -1.1170 -0.2447  0.6606
10508SOL    HW232424   5.071   5.948   1.217  0.6827  1.7202 -0.2664
10509SOL     OW32425   0.623   3.112   2.678 -0.1981  0.1908  1.1190
10509SOL    HW132426   0.586   3.140   2.767 -0.1240  2.3137  0.5397
10509SOL    HW232427   0.600   3.016   2.661 -0.3864 -0.2113  3.3173
10510SOL     OW32428   4.227   1.820   5.173  0.2730  0.9616  0.4133
10510SOL    HW132429   4.265   1.912   5.162 -0.3215  1.0309 -1.2528
10510SOL    HW232430   4.176   1.795   5.091  0.3646 -0.8356  0.8720
10511SOL     OW32431   0.711   2.471   1.314  0.1944  0.2274  0.1435
10511SOL    HW132432   0.629   2.525   1.334  1.1018  1.4999  0.5983
10511SOL    HW232433   0.791   2.518   1.352  1.4277  0.1901 -2.2206
10512SOL     OW32434   2.124   0.587   6.301 -0.0374 -0.0831 -0.3108
10512SOL    HW132435   2.204   0.633   6.262  0.6138 -0.2442  0.8065
10512SOL    HW232436   2.070   0.653   6.353  1.2575 -0.6338  1.8638
10513SOL     OW32437   5.265   1.454   0.942 -0.3880 -0.8347 -0.3615
10513SOL    HW132438   5.213   1.492   1.019  1.0348  2.0422 -0.6821
10513SOL    HW232439   5.302   1.365   0.968 -3.4244 -1.8886  0.6913
10514SOL     OW32440   1.903   3.644   0.647  0.4276  0.4354  0.2661
10514SOL    HW132441   1.945   3.554   0.662  2.4026  1.1952 -0.5256
10514SOL    HW232442   1.872   3.680   0.734  0.2309 -0.7039  0.6940
10515SOL     OW32443   0.078   3.603   5.358 -0.6435  0.9119  0.1547
10515SOL    HW132444   0.013   3.528   5.371 -0.3945  0.9912  2.1241
10515SOL    HW232445   0.133   3.614   5.440  0.1767  2.4645 -0.5633
10516SOL     OW32446   1.960   6.097   6.157  0.0183  0.1403 -0.4846
10516SOL    HW132447   2.027   6.157   6.202 -0.2168 -1.3328  1.9896
10516SOL    HW232448   1.910   6.149   6.088  2.3228  1.7910 -1.0449
10517SOL     OW32449   5.641   3.730   2.651 -0.0118 -0.1554 -0.6341
10517SOL    HW132450   5.634   3.817   2.602  0.8172  0.1415 -0.2421
10517SOL    HW232451   5.603   3.657   2.594 -1.6329  0.5962 -0.5626
10518SOL     OW32452   0.273   6.778   3.436  0.1802 -0.2055  0.7269
10518SOL    HW132453   0.280   6.838   3.355  1.2382  1.1893  1.7991
10518SOL    HW232454   0.323   6.693   3.419  0.6023  0.1742  0.0012
10519SOL     OW32455   2.067   3.295   4.914 -0.0371  0.2216  0.5836
10519SOL    HW132456   2.092   3.392   4.913  0.3820  0.1125  0.6241
10519SOL    HW232457   2.056   3.263   4.820  1.3011 -0.0756  0.5228
10520SOL     OW32458   0.377   3.054   6.496 -0.0520 -0.6387  0.0221
10520SOL    HW132459   0.439   3.076   6.570  0.5730 -0.0056 -0.6723
10520SOL    HW232460   0.402   3.107   6.414 -0.4936 -1.5787 -0.7447
10521SOL     OW32461   1.570   6.103   1.571 -0.0374  0.0280 -0.1172
10521SOL    HW132462   1.477   6.127   1.600 -0.0589 -0.3728  0.1545
10521SOL    HW232463   1.624   6.077   1.651 -0.0322 -0.8650 -0.4038
10522SOL     OW32464   5.188   5.938   2.594 -0.3096 -0.5786 -0.4413
10522SOL    HW132465   5.090   5.929   2.613 -0.0603  1.8535  2.7955
10522SOL    HW232466   5.201   6.002   2.518 -1.2019  0.0081 -0.1111
10523SOL     OW32467   5.823   4.445   6.778 -0.4080 -0.5523  0.5568
10523SOL    HW132468   5.773   4.391   6.710 -0.1174 -2.0768  1.5137
10523SOL    HW232469   5.908   4.478   6.737 -1.3582  0.6393 -0.5562
10524SOL     OW32470   4.457   1.336   4.540  0.4718  0.0178 -0.5463
10524SOL    HW132471   4.466   1.430   4.573  0.2852  0.2060 -1.0174
10524SOL    HW232472   4.458   1.273   4.617  2.8664  0.2252 -0.3417
10525SOL     OW32473   3.340   6.599   4.953 -0.4585 -0.8305  0.4256
10525SOL    HW132474   3.285   6.681   4.968 -0.4715 -1.0601  1.7149
10525SOL    HW232475   3.418   6.599   5.016  0.2443 -1.1968 -0.4275
10526SOL     OW32476   3.499   5.180   2.893 -0.6657  0.1455  0.4474
10526SOL    HW132477   3.447   5.263   2.874 -1.2188 -0.2737  0.1006
10526SOL    HW232478   3.563   5.197   2.967 -2.3266  0.2703  1.9143
10527SOL     OW32479   2.222   1.815   4.105 -0.0511 -0.6747  0.0049
10527SOL    HW132480   2.275   1.738   4.070  1.9313  0.6853 -0.1948
10527SOL    HW232481   2.245   1.829   4.202  0.2695  0.1646 -0.1854
10528SOL     OW32482   5.078   5.480   5.813  0.1114 -0.1529  0.1257
10528SOL    HW132483   5.042   5.408   5.753  0.0392 -1.7396  1.9768
10528SOL    HW232484   5.016   5.491   5.891  2.3844 -1.3367  2.2124
10529SOL     OW32485   6.666   5.603   5.675 -0.0713  0.0374  0.5677
10529SOL    HW132486   6.733   5.635   5.742  0.7843 -0.2027 -0.1570
10529SOL    HW232487   6.574   5.610   5.714 -0.0779  3.9988  0.3007
10530SOL     OW32488   0.297   1.461   2.747  0.1646 -0.2265 -0.2850
10530SOL    HW132489   0.305   1.438   2.844 -0.4153  0.7591  0.0043
10530SOL    HW232490   0.208   1.502   2.730  0.0926 -0.7806 -1.3269
10531SOL     OW32491   3.731   0.700   2.932 -0.6287 -0.3052  0.0049
10531SOL    HW132492   3.643   0.738   2.962  0.3361 -0.3263  3.2247
10531SOL    HW232493   3.804   0.764   2.952  0.3336 -1.1279 -0.7689
10532SOL     OW32494   3.208   3.295   3.202  0.2966  0.4577 -0.2041
10532SOL    HW132495   3.238   3.354   3.278  0.8091  0.2494 -0.2376
10532SOL    HW232496   3.110   3.304   3.189  0.1281  0.1738  0.7777
10533SOL     OW32497   4.070   1.639   6.448 -0.7248 -0.1036 -0.3637
10533SOL    HW132498   4.124   1.574   6.394 -0.5640 -0.0849 -0.2260
10533SOL    HW232499   4.128   1.715   6.477 -0.1235 -1.3775  2.0361
10534SOL     OW32500   5.850   4.910   1.019 -0.4160 -0.5805 -0.4518
10534SOL    HW132501   5.876   4.866   0.933 -0.7912 -1.4522 -0.1335
10534SOL    HW232502   5.857   5.009   1.009  2.6970 -0.7289 -0.4703
10535SOL     OW32503   0.676   6.275   0.893 -0.5668 -0.3986  0.2419
10535SOL    HW132504   0.641   6.182   0.896 -0.6185 -0.3925 -0.1060
10535SOL    HW232505   0.758   6.282   0.950 -1.4002 -0.2905  1.4549
10536SOL     OW32506   6.318   6.368   2.941  0.4304 -0.1897  0.6514
10536SOL    HW132507   6.244   6.360   3.008  0.1063  3.9008  1.0280
10536SOL    HW232508   6.280   6.366   2.849 -0.4838  3.1040  0.8556
10537SOL     OW32509   6.374   5.661   5.849 -0.1897 -0.3129 -0.8705
10537SOL    HW132510   6.337   5.569   5.862  0.5414 -0.2949  1.8492
10537SOL    HW232511   6.323   5.726   5.905 -0.1081  0.8432 -2.0655
10538SOL     OW32512   4.504   2.228   5.717 -0.0484 -0.1620  0.5423
10538SOL    HW132513   4.449   2.204   5.638  1.3016  1.4590 -0.9695
10538SOL    HW232514   4.586   2.171   5.720 -0.0778 -0.1958  0.7628
10539SOL     OW32515   1.907   2.005   3.520  0.2239 -0.0133 -0.0051
10539SOL    HW132516   1.985   1.981   3.462  0.5625  1.4234 -0.1912
10539SOL    HW232517   1.864   2.088   3.486 -1.5516 -0.8926 -0.0171
10540SOL     OW32518   3.980   2.435   0.920 -0.5146  0.2198 -0.0765
10540SOL    HW132519   3.922   2.399   0.993  0.2035 -1.3590 -0.2427
10540SOL    HW232520   4.067   2.466   0.959 -0.7022  0.7574 -0.0797
10541SOL     OW32521   4.081   3.460   2.950 -0.4917  0.2482 -0.3566
10541SOL    HW132522   4.117   3.503   3.033  1.2954 -1.0549 -0.3781
10541SOL    HW232523   4.106   3.363   2.950  0.1890  0.3593 -2.7149
10542SOL     OW32524   1.288   2.873   6.825 -0.2619 -0.3734 -0.5967
10542SOL    HW132525   1.368   2.871   6.885  0.8935  0.2665 -2.0549
10542SOL    HW232526   1.243   2.962   6.831 -1.4415 -1.0275  0.8928
10543SOL     OW32527   1.661   0.804   3.376 -0.0036  0.1771 -0.1978
10543SOL    HW132528   1.664   0.719   3.428 -0.6213  0.0819 -0.3116
10543SOL    HW232529   1.717   0.873   3.422  0.8259 -0.3990 -0.3169
10544SOL     OW32530   1.547   2.559   0.574  0.1105  0.0260 -0.5865
10544SOL    HW132531   1.464   2.503   0.568 -0.6725  1.0850 -0.0391
10544SOL    HW232532   1.626   2.504   0.548 -0.5846 -1.4075  0.2095
10545SOL     OW32533   3.514   6.788   2.810  0.3407  0.4395 -0.7689
10545SOL    HW132534   3.438   6.853   2.806  1.2376  1.5127 -0.8365
10545SOL    HW232535   3.515   6.732   2.727 -1.2926 -0.6818 -0.0780
10546SOL     OW32536   5.634   0.810   5.843  0.5033  0.3382 -0.2526
10546SOL    HW132537   5.706   0.875   5.821 -0.4803  0.9304 -1.9438
10546SOL    HW232538   5.565   0.810   5.769 -0.8465 -0.7294  0.9426
10547SOL     OW32539   3.649   0.033   0.393  0.4349  0.2067  0.1375
10547SOL    HW132540   3.561   0.021   0.347  0.9794 -0.3058 -0.8012
10547SOL    HW232541   3.679  -0.055   0.430  0.7598  0.2900  0.0715
10548SOL     OW32542   5.643   2.893   4.984 -0.1400  0.0988 -0.2184
10548SOL    HW132543   5.742   2.894   4.999 -0.2068 -1.2330  0.5062
10548SOL    HW232544   5.623   2.864   4.890  0.1532 -1.1657  0.0911
10549SOL     OW32545   5.624   2.036   2.604  0.2477 -0.1483 -0.4504
10549SOL    HW132546   5.553   2.071   2.543  0.4185 -0.1735 -0.6616
10549SOL    HW232547   5.605   1.941   2.627  0.6920 -0.4317 -1.2207
10550SOL     OW32548   4.555   0.284   4.552  0.0997  0.0239 -0.0267
10550SOL    HW132549   4.525   0.380   4.548  0.1483  0.0449  0.1201
10550SOL    HW232550   4.595   0.265   4.642 -2.8523 -1.0139  1.1646
10551SOL     OW32551   2.126   3.244   4.636 -0.0595  0.1024 -0.5364
10551SOL    HW132552   2.169   3.330   4.611 -0.6106  0.3417 -0.6699
10551SOL    HW232553   2.195   3.172   4.641  0.3207  0.4377 -0.9456
10552SOL     OW32554   6.124   6.192   5.357 -0.1811  0.2045 -0.5236
10552SOL    HW132555   6.169   6.151   5.436  0.8438  1.5433 -0.3633
10552SOL    HW232556   6.098   6.121   5.292 -0.4146 -0.8565  0.6928
10553SOL     OW32557   4.129   5.441   0.262 -0.0139 -0.2583  0.0919
10553SOL    HW132558   4.175   5.453   0.350 -0.0550 -0.5350  0.1533
10553SOL    HW232559   4.130   5.527   0.211  1.2844 -0.4520 -0.2540
10554SOL     OW32560   0.626   4.402   3.232  0.4689 -0.5613  0.0728
10554SOL    HW132561   0.617   4.424   3.330 -3.1295 -0.6164 -0.1144
10554SOL    HW232562   0.594   4.480   3.178  1.1914 -1.0192 -1.0326
10555SOL     OW32563   2.445   1.044   0.967 -0.1794 -0.2386  0.2452
10555SOL    HW132564   2.397   1.106   1.029  0.5853 -1.3595  2.0193
10555SOL    HW232565   2.535   1.083   0.945 -0.6787  0.4414 -0.6997
10556SOL     OW32566   2.268   5.479   4.420  0.0169  0.7346 -0.0184
10556SOL    HW132567   2.269   5.567   4.372  1.2200  1.2558  0.9179
10556SOL    HW232568   2.174   5.445   4.424 -0.3902  1.6727 -0.9086
10557SOL     OW32569   5.581   1.074   2.070 -0.2790 -0.2367 -0.2368
10557SOL    HW132570   5.528   0.991   2.085 -0.3748 -0.5349 -1.9840
10557SOL    HW232571   5.527   1.139   2.016  1.0268 -0.4986 -1.9449
10558SOL     OW32572   5.804   4.185   6.538 -0.1886  0.3976 -0.0880
10558SOL    HW132573   5.888   4.237   6.556 -0.0012 -0.1740  0.7358
10558SOL    HW232574   5.828   4.094   6.506 -0.4949  0.3017 -0.0430
10559SOL     OW32575   4.004   3.597   1.296 -0.0269 -0.1122 -0.1213
10559SOL    HW132576   4.003   3.614   1.395  0.2936 -0.1303 -0.1151
10559SOL    HW232577   3.918   3.552   1.269 -0.3866  0.4597  0.0473
10560SOL     OW32578   5.644   2.059   4.202 -0.1959  0.2306 -0.3470
10560SOL    HW132579   5.703   1.985   4.234 -0.5088  0.0306 -0.2288
10560SOL    HW232580   5.612   2.112   4.280  0.2421  0.6571 -0.4536
10561SOL     OW32581   2.284   5.693   6.189 -0.2169 -0.3227  0.6011
10561SOL    HW132582   2.208   5.755   6.166 -0.6772 -0.6213  1.2887
10561SOL    HW232583   2.253   5.627   6.257 -0.1815 -2.2721 -1.1891
10562SOL     OW32584   4.385   2.823   6.491  0.5011 -1.3244 -0.5830
10562SOL    HW132585   4.412   2.782   6.404  1.4137 -0.9496 -0.4888
10562SOL    HW232586   4.452   2.892   6.518  0.1573 -1.3376  0.3505
10563SOL     OW32587   3.032   0.614   2.398 -0.4922 -0.1168  0.1219
10563SOL    HW132588   2.989   0.540   2.449  0.1075 -0.8702 -0.4534
10563SOL    HW232589   3.131   0.598   2.392 -0.3419  0.7590  0.0344
10564SOL     OW32590   6.601   1.730   3.180 -0.2591  0.0390  0.1664
10564SOL    HW132591   6.608   1.638   3.217  0.6970 -0.7318 -1.8059
10564SOL    HW232592   6.517   1.774   3.214 -0.2045 -1.1642  1.9219
10565SOL     OW32593   4.069   6.895   5.746 -0.1638  0.3266 -0.3973
10565SOL    HW132594   4.161   6.915   5.781 -0.5619  1.9658 -0.2158
10565SOL    HW232595   4.069   6.804   5.705  0.6424 -1.1987  2.6833
10566SOL     OW32596   6.376   6.991   5.910 -0.7064 -0.0402 -0.1267
10566SOL    HW132597   6.353   6.934   5.989 -1.0263 -0.6148 -0.6289
10566SOL    HW232598   6.463   6.961   5.871 -0.8216 -0.1248 -0.3246
10567SOL     OW32599   2.201   6.590   5.402  0.5855  0.2775 -0.1251
10567SOL    HW132600   2.171   6.657   5.334  1.0264  0.9604  0.3337
10567SOL    HW232601   2.138   6.512   5.402  0.3594  0.4458 -1.0319
10568SOL     OW32602   3.280   5.852   2.493 -0.1685 -0.4117 -0.5551
10568SOL    HW132603   3.208   5.786   2.469 -0.8977  0.8378 -1.9420
10568SOL    HW232604   3.352   5.849   2.424  0.6829 -0.9807  0.3281
10569SOL     OW32605   5.690   2.684   3.101  0.1166 -0.3299  0.3508
10569SOL    HW132606   5.621   2.692   3.029  0.7550 -1.4213 -0.3949
10569SOL    HW232607   5.644   2.672   3.190 -0.6998  2.1478  0.3325
10570SOL     OW32608   1.947   1.582   3.643  0.9105  0.1615  0.1317
10570SOL    HW132609   1.858   1.620   3.665  1.0981 -0.1632  1.5003
10570SOL    HW232610   2.019   1.646   3.669  1.1665 -0.5224  1.1804
10571SOL     OW32611   1.396   6.507   5.332  0.2098 -0.4028 -0.0570
10571SOL    HW132612   1.397   6.512   5.432 -0.2187  1.3175 -0.0955
10571SOL    HW232613   1.380   6.413   5.303  2.7222 -1.4023  1.4397
10572SOL     OW32614   6.307   3.883   1.615  0.5206 -0.6032  0.1815
10572SOL    HW132615   6.260   3.890   1.704 -0.4821 -2.1542 -0.1845
10572SOL    HW232616   6.394   3.835   1.627  2.1347  2.2562  0.8584
10573SOL     OW32617   5.933   5.683   3.619 -0.2505  0.0971 -0.3919
10573SOL    HW132618   5.850   5.631   3.636 -0.1721  0.3684  0.9719
10573SOL    HW232619   5.965   5.722   3.705  1.9070 -0.9059 -0.6868
10574SOL     OW32620   6.043   2.804   3.064  0.3683 -0.5754 -0.0290
10574SOL    HW132621   6.005   2.730   3.010  2.1885 -1.0990 -0.6826
10574SOL    HW232622   6.048   2.777   3.160  0.3315 -1.0151 -0.1502
10575SOL     OW32623   6.229   0.830   5.237 -0.4193  0.0943  0.0815
10575SOL    HW132624   6.164   0.892   5.281 -0.4001 -0.1417  0.4436
10575SOL    HW232625   6.212   0.830   5.138  1.0519  2.4125 -0.2565
10576SOL     OW32626   2.648   3.985   1.591  0.0481 -0.0549  0.6080
10576SOL    HW132627   2.575   4.002   1.656  1.1998 -2.4186  2.7189
10576SOL    HW232628   2.617   3.920   1.521 -1.0899  2.2403 -1.1297
10577SOL     OW32629   0.253   3.086   4.636 -0.0637  0.5292  0.3694
10577SOL    HW132630   0.305   3.024   4.578 -1.8138 -0.0365 -0.6766
10577SOL    HW232631   0.199   3.147   4.578 -2.0551 -0.2119  1.3590
10578SOL     OW32632   5.966   1.349   6.638 -0.2175  0.4107 -0.1041
10578SOL    HW132633   5.981   1.410   6.715 -1.3447 -0.1339  0.5723
10578SOL    HW232634   6.043   1.285   6.630 -0.5146 -0.1274  1.1565
10579SOL     OW32635   5.076   4.165   1.269  0.1906 -0.3785  0.5042
10579SOL    HW132636   5.108   4.228   1.339  0.1839 -2.0837  2.1279
10579SOL    HW232637   4.976   4.171   1.262  0.2525  0.3095  0.0922
10580SOL     OW32638   0.247   5.241   0.056 -0.4772  0.3315 -0.3001
10580SOL    HW132639   0.326   5.250  -0.005  0.1018  1.7502  0.5950
10580SOL    HW232640   0.279   5.210   0.146 -1.2850 -1.4880 -0.5957
10581SOL     OW32641   4.002   1.941   4.110 -0.1674 -0.5694 -0.0839
10581SOL    HW132642   4.045   1.851   4.117  3.1516  0.7701 -0.9197
10581SOL    HW232643   3.909   1.937   4.145  0.5702 -3.8094  1.9287
10582SOL     OW32644   3.663   3.960   0.083  0.2680  1.0625  0.1966
10582SOL    HW132645   3.610   3.876   0.076  1.8645 -0.2185  2.3240
10582SOL    HW232646   3.739   3.957   0.017 -1.2964  2.2047 -1.7549
10583SOL     OW32647   4.905   0.601   6.851 -0.2230 -0.0078 -0.6742
10583SOL    HW132648   4.939   0.509   6.875 -1.6119 -0.1458  0.9680
10583SOL    HW232649   4.896   0.608   6.752  0.4765 -1.4468 -0.8705
10584SOL     OW32650   4.627   0.792   2.155 -0.3853  0.0765 -0.1065
10584SOL    HW132651   4.674   0.850   2.088 -2.2551  2.1712  0.2671
10584SOL    HW232652   4.636   0.833   2.246  0.4219 -1.6681  0.6369
10585SOL     OW32653   3.236   3.696   0.436  0.1955 -0.7277 -0.8116
10585SOL    HW132654   3.321   3.730   0.476  0.6346 -0.2489 -2.0961
10585SOL    HW232655   3.168   3.683   0.508  1.0970 -0.3449  0.1321
10586SOL     OW32656   4.014   1.412   1.927  0.1184  0.0640 -0.2299
10586SOL    HW132657   4.028   1.452   2.017  1.5232  1.6171 -1.0751
10586SOL    HW232658   3.948   1.467   1.875  0.0712 -0.2329 -0.4869
10587SOL     OW32659   0.571   2.692   2.207 -0.4365  0.4840 -0.3284
10587SOL    HW132660   0.662   2.674   2.245 -1.4017 -1.7248  1.1480
10587SOL    HW232661   0.573   2.677   2.108  0.4826 -1.2076 -0.1036
10588SOL     OW32662   1.721   5.535   3.269 -0.1587  0.5836 -0.1778
10588SOL    HW132663   1.787   5.494   3.332 -1.0053 -1.3411 -0.4510
10588SOL    HW232664   1.767   5.606   3.215  1.6515 -0.5353 -0.2193
10589SOL     OW32665   4.759   6.887   4.964  0.0014 -0.2025  0.4158
10589SOL    HW132666   4.670   6.907   4.922  0.8948  0.3562 -1.2940
10589SOL    HW232667   4.820   6.965   4.952  1.4173 -1.3765 -0.3432
10590SOL     OW32668   0.254   2.446   3.846  0.2023 -0.4431  0.0077
10590SOL    HW132669   0.282   2.412   3.936 -0.0023 -1.0999 -0.1659
10590SOL    HW232670   0.324   2.424   3.779 -0.4512 -1.5987 -0.3253
10591SOL     OW32671   1.226   3.526   2.290  0.3949  0.0908 -0.1722
10591SOL    HW132672   1.234   3.452   2.356  1.2031 -0.8642 -1.3076
10591SOL    HW232673   1.156   3.503   2.222  0.9925  0.1417 -0.8103
10592SOL     OW32674   4.179   1.017   0.597 -0.7795  0.1654 -0.2049
10592SOL    HW132675   4.133   0.962   0.527 -0.4701 -0.5821  0.1639
10592SOL    HW232676   4.162   0.976   0.687  0.1048  0.2242 -0.0067
10593SOL     OW32677   2.142   3.430   4.391 -0.1977 -0.1254  0.0326
10593SOL    HW132678   2.204   3.507   4.372  1.9897 -1.6220  0.7981
10593SOL    HW232679   2.087   3.412   4.309  0.8756  0.8143 -0.9415
10594SOL     OW32680   3.313   1.702   4.258  0.0405  0.1597  0.2887
10594SOL    HW132681   3.306   1.636   4.183  0.3861  1.0952 -0.6026
10594SOL    HW232682   3.279   1.791   4.226 -0.5099  0.3957  1.4881
10595SOL     OW32683   0.268   5.497   5.036 -0.1180  1.1588  0.0739
10595SOL    HW132684   0.206   5.570   5.007 -0.7769  0.5965  0.0370
10595SOL    HW232685   0.233   5.455   5.120  0.8763  1.6459  0.7546
10596SOL     OW32686   4.705   0.239   2.102 -0.4634  0.0215  0.2842
10596SOL    HW132687   4.668   0.332   2.096 -0.1498  0.2704  1.8558
10596SOL    HW232688   4.714   0.201   2.010 -0.1643  1.7232 -0.4288
10597SOL     OW32689   6.689   1.451   3.915 -0.3021  0.2896 -0.1075
10597SOL    HW132690   6.646   1.386   3.977  1.7066 -0.2978  0.7600
10597SOL    HW232691   6.620   1.489   3.853 -1.8855 -1.1041  0.7194
10598SOL     OW32692   3.704   0.452   1.429  0.0143  0.5712  0.0950
10598SOL    HW132693   3.755   0.414   1.352  0.5217  0.5703  0.4316
10598SOL    HW232694   3.761   0.518   1.477 -0.0271  0.0141  0.9285
10599SOL     OW32695   4.584   5.141   6.739 -0.0325 -0.2422 -0.0973
10599SOL    HW132696   4.638   5.211   6.786 -1.8901  1.2686 -0.0992
10599SOL    HW232697   4.626   5.051   6.752  1.1889  0.5597  1.7933
10600SOL     OW32698   1.852   2.249   4.504  0.0831 -0.1280 -0.1291
10600SOL    HW132699   1.755   2.228   4.493 -0.0454  0.1098  0.5320
10600SOL    HW232700   1.870   2.340   4.467  0.3706 -0.7872 -1.7006
10601SOL     OW32701   3.363   5.316   5.068 -0.4675 -0.1325  0.7631
10601SOL    HW132702   3.298   5.328   4.993 -0.1209 -1.1093  0.2876
10601SOL    HW232703   3.362   5.397   5.126 -1.4947  0.2167  0.2887
10602SOL     OW32704   4.840   2.618   3.044 -0.5587 -0.1532 -0.2578
10602SOL    HW132705   4.843   2.626   2.945  0.2640  2.2019 -0.1020
10602SOL    HW232706   4.923   2.572   3.076 -0.4673 -0.2237 -0.5979
10603SOL     OW32707   3.088   6.268   3.482 -0.2160  0.2909 -0.2477
10603SOL    HW132708   3.141   6.311   3.409  0.2280  0.9746  0.4580
10603SOL    HW232709   3.137   6.276   3.569  0.0221 -1.9424 -0.1187
10604SOL     OW32710   1.641   5.008   6.899  0.6382  0.1740 -0.0907
10604SOL    HW132711   1.616   5.016   6.995  1.8860  0.2189  0.2551
10604SOL    HW232712   1.695   4.924   6.885  2.6724  1.4276 -0.2064
10605SOL     OW32713   1.044   6.831   0.109 -0.4431 -0.5599 -0.0918
10605SOL    HW132714   1.102   6.749   0.114 -0.9751 -0.9785 -0.5814
10605SOL    HW232715   1.030   6.867   0.202 -1.0396 -1.6374  0.2650
10606SOL     OW32716   1.754   1.542   3.375  0.0691  0.4099 -0.2003
10606SOL    HW132717   1.826   1.568   3.440 -0.3303  1.4123 -0.1443
10606SOL    HW232718   1.665   1.567   3.413 -0.1964  0.6710 -0.9816
10607SOL     OW32719   4.776   3.819   0.401  0.0473  0.0280 -0.1693
10607SOL    HW132720   4.826   3.734   0.386  0.2714  0.2880 -0.8881
10607SOL    HW232721   4.766   3.868   0.315  0.4604  1.0383  0.3551
10608SOL     OW32722   6.280   4.866   2.170  0.1733 -0.5985  0.6029
10608SOL    HW132723   6.350   4.902   2.108  0.4368 -0.3152  1.0639
10608SOL    HW232724   6.232   4.941   2.214 -4.1981 -0.3898 -3.6742
10609SOL     OW32725   3.417   5.270   3.659  0.4470  0.4731  0.2244
10609SOL    HW132726   3.499   5.304   3.613  1.2045 -2.0008 -0.4160
10609SOL    HW232727   3.417   5.170   3.658 -2.6622  0.3642  0.0725
10610SOL     OW32728   2.163   3.554   3.960 -0.0053 -0.4630  0.0491
10610SOL    HW132729   2.158   3.608   3.875 -0.2043 -2.3911 -1.2158
10610SOL    HW232730   2.167   3.616   4.038 -0.6024  1.3830 -1.3113
10611SOL     OW32731   5.381   0.361   5.926 -0.5833  0.3652  0.6218
10611SOL    HW132732   5.452   0.396   5.865 -0.1069 -3.8885 -1.6331
10611SOL    HW232733   5.422   0.302   5.995 -1.6223  1.2279  2.0292
10612SOL     OW32734   2.080   0.869   2.576 -0.2367  0.1198 -0.1078
10612SOL    HW132735   2.030   0.927   2.512 -1.7348 -0.5574  0.3845
10612SOL    HW232736   2.120   0.926   2.648  0.9326  0.8182 -1.2772
10613SOL     OW32737   2.515   5.715   5.328 -0.2956 -0.4284  0.1964
10613SOL    HW132738   2.550   5.646   5.265 -2.2255 -0.5846 -0.7851
10613SOL    HW232739   2.521   5.805   5.286 -0.9313 -0.4468  0.0476
10614SOL     OW32740   6.677   0.901   3.643  0.3495  0.2704 -0.2198
10614SOL    HW132741   6.677   0.879   3.740 -0.3754  0.0421 -0.2713
10614SOL    HW232742   6.765   0.943   3.619  1.1017 -0.9745  0.2365
10615SOL     OW32743   2.838   1.620   5.835  0.1938 -0.1507  0.2092
10615SOL    HW132744   2.899   1.558   5.787  1.2732  0.5642  0.6260
10615SOL    HW232745   2.881   1.710   5.842 -1.0520  0.4637  0.2135
10616SOL     OW32746   3.034   6.043   3.775  0.0084  0.7701 -0.2459
10616SOL    HW132747   3.106   6.004   3.718  1.0315 -0.5746  1.8441
10616SOL    HW232748   3.053   6.139   3.792  1.4791  0.3837  0.4618
10617SOL     OW32749   0.101   2.551   0.532  0.6293 -0.0556  0.7300
10617SOL    HW132750   0.160   2.620   0.490 -0.1471 -0.2556 -0.7517
10617SOL    HW232751   0.091   2.571   0.630 -0.5946  2.7054  0.1375
10618SOL     OW32752   0.027   3.849   0.830  0.1529 -0.7697  0.4183
10618SOL    HW132753   0.086   3.809   0.901 -2.0782  0.3999  3.1175
10618SOL    HW232754   0.060   3.941   0.809 -0.6304 -0.1101  1.9308
10619SOL     OW32755   1.732   2.065   4.919  0.3152  0.3161  0.6572
10619SOL    HW132756   1.776   2.108   4.997 -0.2300 -0.9134  1.6781
10619SOL    HW232757   1.799   2.052   4.845  1.2233  0.0737  1.5072
10620SOL     OW32758   0.818   6.977   3.711 -0.5651 -0.3994 -0.0299
10620SOL    HW132759   0.897   7.023   3.750  0.5612 -2.6067  0.4835
10620SOL    HW232760   0.830   6.966   3.613 -0.5357 -0.2036 -0.0485
10621SOL     OW32761   3.818   1.257   0.695 -0.1157  0.2229  0.5917
10621SOL    HW132762   3.917   1.267   0.706  0.0729 -0.6793 -0.1049
10621SOL    HW232763   3.786   1.178   0.748  0.5098 -3.0197 -3.3647
10622SOL     OW32764   5.666   2.151   0.616 -0.3330  0.5736  0.4882
10622SOL    HW132765   5.643   2.106   0.702 -0.5515  0.3642  0.3202
10622SOL    HW232766   5.726   2.230   0.635  0.1660  0.1369  0.7678
10623SOL     OW32767   0.415   1.253   2.533  0.1334 -0.1971 -0.1062
10623SOL    HW132768   0.340   1.291   2.588 -1.1140 -2.1975 -0.3019
10623SOL    HW232769   0.447   1.322   2.469 -0.5995  1.1478  0.9148
10624SOL     OW32770   1.600   1.792   2.300  0.1654  0.2754  0.1351
10624SOL    HW132771   1.536   1.731   2.347 -0.9456  0.7423 -0.7493
10624SOL    HW232772   1.623   1.754   2.210  0.7444  0.3699  0.2366
10625SOL     OW32773   0.229   2.370   2.150 -0.3927  0.4355  0.5182
10625SOL    HW132774   0.256   2.409   2.062 -0.1942  0.0079  0.3874
10625SOL    HW232775   0.131   2.354   2.151 -0.1936 -0.9295 -0.1824
10626SOL     OW32776   6.494   2.380   1.729 -0.1376 -0.3129  0.0755
10626SOL    HW132777   6.467   2.448   1.797  0.4175  1.2177 -1.1487
10626SOL    HW232778   6.449   2.293   1.748 -1.7477  0.6910  1.0905
10627SOL     OW32779   1.383   4.761   5.551 -0.7360 -0.3003 -0.4362
10627SOL    HW132780   1.309   4.795   5.608 -1.3802  0.8619 -1.9084
10627SOL    HW232781   1.438   4.837   5.518  0.1053 -1.0187 -0.7454
10628SOL     OW32782   0.952   7.010   4.305 -0.1693 -0.1222  0.1617
10628SOL    HW132783   0.902   7.028   4.389 -0.7059 -0.6987 -0.0295
10628SOL    HW232784   0.955   6.912   4.288  0.3659 -0.0405 -0.2318
10629SOL     OW32785   3.979   4.654   1.240  1.0283 -0.5641 -0.1728
10629SOL    HW132786   3.920   4.734   1.238  0.8476 -0.6941 -0.0607
10629SOL    HW232787   3.977   4.613   1.331  1.1116 -0.7039 -0.2329
10630SOL     OW32788   3.946   1.702   0.611  0.0293  0.5129  0.1914
10630SOL    HW132789   3.974   1.771   0.545 -0.3141  0.2514 -0.2273
10630SOL    HW232790   3.849   1.713   0.633 -0.1712 -0.1916 -0.3161
10631SOL     OW32791   3.300   2.105   6.896 -0.1347 -0.4363  0.7176
10631SOL    HW132792   3.321   2.029   6.834 -1.8228  0.0757 -0.5470
10631SOL    HW232793   3.369   2.177   6.885  0.0915 -0.7401  0.1012
10632SOL     OW32794   6.490   3.887   0.782  0.2305  0.3843 -0.7857
10632SOL    HW132795   6.426   3.897   0.706  0.1095 -0.6251 -0.8357
10632SOL    HW232796   6.475   3.799   0.827 -0.4327  1.3938  1.1096
10633SOL     OW32797   2.903   5.760   0.543  0.1810  0.2132 -1.0366
10633SOL    HW132798   2.903   5.676   0.489  1.0632  0.1155 -0.9085
10633SOL    HW232799   2.839   5.752   0.619 -0.4107  0.0117 -1.5537
10634SOL     OW32800   1.141   4.542   3.222  0.0239  0.0073 -0.1904
10634SOL    HW132801   1.190   4.459   3.251  0.1802  0.0437 -0.3509
10634SOL    HW232802   1.042   4.527   3.231  0.0646 -0.0583  0.1550
10635SOL     OW32803   6.106   1.000   0.403  0.8801  0.0805 -0.0166
10635SOL    HW132804   6.123   1.083   0.456  1.1090 -0.5982  0.9940
10635SOL    HW232805   6.125   0.919   0.459 -3.6270 -0.7971  0.6446
10636SOL     OW32806   0.699   0.729   6.506 -0.7306 -0.3582 -0.1106
10636SOL    HW132807   0.747   0.669   6.569  1.0600 -0.1964 -1.2462
10636SOL    HW232808   0.752   0.812   6.492 -0.8316 -0.5887 -2.1579
10637SOL     OW32809   3.897   4.548   0.646 -0.1011  0.0760 -0.5603
10637SOL    HW132810   3.921   4.451   0.653 -0.1569  0.1398  0.6796
10637SOL    HW232811   3.816   4.566   0.702 -0.0209  0.8700 -0.6926
10638SOL     OW32812   0.320   2.404   5.495 -0.7502  0.1733  0.1223
10638SOL    HW132813   0.233   2.450   5.513 -0.8281 -0.6399  2.0972
10638SOL    HW232814   0.395   2.470   5.504 -1.0457  0.5028  0.1898
10639SOL     OW32815   4.321   1.441   3.699  0.6256 -0.2184  0.1446
10639SOL    HW132816   4.343   1.525   3.649  0.1495 -0.3693 -0.3285
10639SOL    HW232817   4.392   1.373   3.683  0.9819  0.0752  0.4801
10640SOL     OW32818   3.849   5.227   1.110  0.5651 -0.2840 -0.1331
10640SOL    HW132819   3.790   5.149   1.126 -0.3444  0.1673 -1.2359
10640SOL    HW232820   3.797   5.312   1.120  1.4773  0.1986  0.7976
10641SOL     OW32821   4.572   6.910   5.292 -0.0926 -0.0092  0.4374
10641SOL    HW132822   4.616   6.997   5.269  0.0165 -0.0379  0.5374
10641SOL    HW232823   4.519   6.919   5.376  0.5951 -0.2552  0.9109
10642SOL     OW32824   6.280   6.404   2.661 -0.1347 -0.3946 -0.1761
10642SOL    HW132825   6.280   6.492   2.613 -0.5175 -1.3806 -2.0601
10642SOL    HW232826   6.371   6.364   2.656  0.7497  0.9289  2.8302
10643SOL     OW32827   5.224   3.101   0.608  0.0042  0.1528  0.0302
10643SOL    HW132828   5.165   3.021   0.615  0.4020 -0.0150  2.1713
10643SOL    HW232829   5.182   3.169   0.547 -2.3761  0.0033  1.3782
10644SOL     OW32830   4.230   1.407   5.955 -0.9537  0.0835  0.1906
10644SOL    HW132831   4.257   1.372   6.045 -0.7131  0.6383  0.3422
10644SOL    HW232832   4.310   1.411   5.895 -1.3628 -1.6496 -0.5389
10645SOL     OW32833   0.128   2.196   2.555  0.0952  0.6588  0.3633
10645SOL    HW132834   0.072   2.268   2.514 -0.3392  1.5561  2.3897
10645SOL    HW232835   0.070   2.136   2.609  0.4910 -1.1509 -1.1251
10646SOL     OW32836   6.253   4.117   6.808  0.5037  0.3360 -0.2023
10646SOL    HW132837   6.256   4.183   6.733  1.3685  0.3676 -0.1562
10646SOL    HW232838   6.313   4.040   6.787 -0.6436 -0.5390 -0.3335
10647SOL     OW32839   4.930   0.381   0.445 -0.3461 -0.3165 -0.0174
10647SOL    HW132840   4.926   0.308   0.376 -1.3563  0.1579 -0.4827
10647SOL    HW232841   4.895   0.466   0.405 -3.0504 -0.5368  1.6817
10648SOL     OW32842   4.466   2.913   6.801 -0.0219 -0.2079 -0.6407
10648SOL    HW132843   4.374   2.878   6.815 -0.3934  1.1469  0.4644
10648SOL    HW232844   4.478   2.998   6.852  0.8706  1.2628 -3.1187
10649SOL     OW32845   5.425   6.625   6.608 -0.3126  0.1778  0.3683
10649SOL    HW132846   5.363   6.585   6.540  2.9488  0.1098 -2.8745
10649SOL    HW232847   5.477   6.700   6.566  0.4034  1.6280  3.5307
10650SOL     OW32848   2.806   6.583   5.950  0.0938 -0.0124  0.1436
10650SOL    HW132849   2.725   6.572   6.007  0.6738  1.4708  1.3112
10650SOL    HW232850   2.826   6.680   5.937 -0.6835 -0.1928 -3.6372
10651SOL     OW32851   1.563   2.159   4.410  0.4210  0.4127  0.6444
10651SOL    HW132852   1.489   2.182   4.472 -0.6125 -0.8900 -0.0439
10651SOL    HW232853   1.584   2.238   4.352 -3.4231 -0.2526 -2.0846
10652SOL     OW32854   4.322   5.782   1.231 -0.5142  0.2529 -0.7342
10652SOL    HW132855   4.299   5.729   1.150  0.0519 -2.0693  0.5314
10652SOL    HW232856   4.418   5.810   1.226  0.0478 -1.4494 -0.1092
10653SOL     OW32857   5.531   4.305   3.183 -0.0241  0.3982 -0.0758
10653SOL    HW132858   5.507   4.397   3.154 -1.7031  0.5887  1.7397
10653SOL    HW232859   5.466   4.273   3.251  1.4381 -1.5309  0.5097
10654SOL     OW32860   5.264   6.582   0.794 -0.0908  0.6377  0.1534
10654SOL    HW132861   5.349   6.624   0.828  0.6229  0.6458 -1.5615
10654SOL    HW232862   5.285   6.523   0.716 -1.6352  0.3815 -0.0963
10655SOL     OW32863   3.263   5.752   7.017  0.7156 -0.1239 -0.6982
10655SOL    HW132864   3.203   5.673   7.013  0.8718 -0.4856  2.0232
10655SOL    HW232865   3.338   5.741   6.951  1.3596 -2.8406  0.3561
10656SOL     OW32866   1.603   5.580   6.021 -0.1488  0.1310  0.0727
10656SOL    HW132867   1.629   5.661   6.074  1.5711 -1.0687  1.1626
10656SOL    HW232868   1.542   5.523   6.076  0.7607 -0.5801  0.3630
10657SOL     OW32869   0.650   0.990   2.224  0.2701 -0.0761  0.5935
10657SOL    HW132870   0.621   0.946   2.139 -0.7326  0.1298  0.8186
10657SOL    HW232871   0.574   0.991   2.289  0.0597  2.4872  0.4012
10658SOL     OW32872   0.119   5.147   2.114  0.2651 -0.0209  0.7895
10658SOL    HW132873   0.113   5.075   2.045  0.8548  0.3417  0.3569
10658SOL    HW232874   0.096   5.235   2.073 -0.4722  0.0492  1.3236
10659SOL     OW32875   4.435   0.445   1.188 -0.2954 -0.0606 -1.0142
10659SOL    HW132876   4.502   0.435   1.261 -1.3209  0.0807 -0.0324
10659SOL    HW232877   4.479   0.483   1.107  0.6148  0.8888 -0.0920
10660SOL     OW32878   3.941   5.888   4.744  0.5199 -0.2670  0.3136
10660SOL    HW132879   3.864   5.831   4.772  1.0407 -1.1448  0.0118
10660SOL    HW232880   3.909   5.962   4.685 -0.1954 -0.1234  0.8728
10661SOL     OW32881   1.324   5.434   1.390 -0.0931 -0.3109 -0.1006
10661SOL    HW132882   1.343   5.336   1.379 -1.5187 -0.7860  1.2288
10661SOL    HW232883   1.361   5.465   1.478 -2.6646 -0.5551  1.1502
10662SOL     OW32884   2.893   1.042   1.419 -0.6830 -0.6358  0.5544
10662SOL    HW132885   2.963   0.971   1.409 -1.4735 -1.2432 -1.0077
10662SOL    HW232886   2.829   1.037   1.342 -0.6910  1.8644  0.2913
10663SOL     OW32887   6.479   3.254   4.237  0.1479 -0.1894 -0.3079
10663SOL    HW132888   6.463   3.308   4.155  1.2282  2.8897  1.3252
10663SOL    HW232889   6.567   3.207   4.230  0.0596 -0.2585 -1.0312
10664SOL     OW32890   2.763   4.008   6.881  0.0651  0.0771 -0.1240
10664SOL    HW132891   2.827   4.082   6.861 -1.0033  1.1988  0.4698
10664SOL    HW232892   2.672   4.047   6.898 -0.6521 -1.4295 -0.3996
10665SOL     OW32893   6.197   2.482   6.651  0.0063  0.0172 -0.1478
10665SOL    HW132894   6.200   2.423   6.731  2.3184  0.4444  0.1630
10665SOL    HW232895   6.269   2.455   6.587 -0.5536  0.8876 -1.1930
10666SOL     OW32896   0.424   0.363   1.859  0.5117 -0.1285  0.1243
10666SOL    HW132897   0.512   0.316   1.849  1.4581  1.5957 -0.0571
10666SOL    HW232898   0.390   0.389   1.768 -0.2749 -0.9067  0.1851
10667SOL     OW32899   5.555   2.337   6.856  0.0020 -0.3061  0.4428
10667SOL    HW132900   5.559   2.425   6.809 -0.0143 -0.4243  0.2162
10667SOL    HW232901   5.489   2.341   6.931  0.1923 -0.0493  0.5945
10668SOL     OW32902   1.286   1.155   0.587 -0.2122 -0.2892 -0.1363
10668SOL    HW132903   1.340   1.213   0.648 -0.3365 -1.5061  1.2141
10668SOL    HW232904   1.249   1.078   0.640 -0.7029 -1.1552 -1.6874
10669SOL     OW32905   2.614   0.623   0.170 -0.4249  0.3882 -0.0966
10669SOL    HW132906   2.700   0.573   0.178  0.2967  1.2674 -1.8259
10669SOL    HW232907   2.539   0.558   0.158 -0.6757 -0.6391  4.9565
10670SOL     OW32908   5.894   4.724   5.758 -0.2195 -0.0425 -0.1318
10670SOL    HW132909   5.806   4.688   5.791 -0.8412 -1.7124 -3.2685
10670SOL    HW232910   5.955   4.648   5.738  0.4059  0.8794 -1.8997
10671SOL     OW32911   2.263   2.964   4.715 -0.0733 -0.1349  0.3162
10671SOL    HW132912   2.294   2.986   4.808  0.3673  0.2666  0.0757
10671SOL    HW232913   2.318   2.889   4.678  0.6593  0.6206 -0.1354
10672SOL     OW32914   1.895   4.289   0.548 -0.1316 -0.0268 -0.0250
10672SOL    HW132915   1.830   4.270   0.621 -0.7651  0.2693 -0.5078
10672SOL    HW232916   1.983   4.317   0.588 -1.2055  2.7224  0.6809
10673SOL     OW32917   3.885   2.999   3.663 -0.0459  0.1531 -0.0908
10673SOL    HW132918   3.901   3.084   3.612 -1.3845  0.0792 -0.6891
10673SOL    HW232919   3.967   2.975   3.715  0.6346  1.3662 -0.5601
10674SOL     OW32920   3.152   0.892   3.829 -0.3835  0.3964  0.7432
10674SOL    HW132921   3.175   0.795   3.829 -2.2808 -0.0980  1.1135
10674SOL    HW232922   3.146   0.925   3.923  2.0845  1.3939  0.6182
10675SOL     OW32923   0.529   3.369   6.035  0.2097 -0.2449 -0.2174
10675SOL    HW132924   0.544   3.279   5.996 -0.3975 -1.0888  1.3763
10675SOL    HW232925   0.492   3.430   5.965 -3.5779 -2.4498 -0.4714
10676SOL     OW32926   6.983   0.295   5.471  0.5256 -0.2533 -0.4054
10676SOL    HW132927   6.994   0.391   5.497  0.1600 -0.0554 -0.9631
10676SOL    HW232928   6.920   0.250   5.534  1.1228 -0.2777  0.1903
10677SOL     OW32929   5.883   6.129   5.120  0.6120  0.2772 -0.1184
10677SOL    HW132930   5.900   6.223   5.091 -0.6046  0.8632  0.9625
10677SOL    HW232931   5.853   6.075   5.041 -0.0062  1.1404 -0.4890
10678SOL     OW32932   1.950   6.335   3.314 -0.2010 -0.1140  0.3338
10678SOL    HW132933   1.914   6.263   3.374 -1.1466  0.5522  0.5936
10678SOL    HW232934   2.034   6.373   3.354 -0.0978 -0.5710  0.5590
10679SOL     OW32935   4.728   6.332   3.690  0.1174  0.9512  0.2940
10679SOL    HW132936   4.763   6.239   3.701  1.2372  1.3423  0.1964
10679SOL    HW232937   4.796   6.397   3.723 -1.1977  1.7009  1.6417
10680SOL     OW32938   6.959   3.303   3.272  0.1580  0.3203  0.2487
10680SOL    HW132939   6.948   3.396   3.239  1.9812  1.0166  1.3981
10680SOL    HW232940   6.872   3.270   3.310 -0.0308  2.4136  1.8349
10681SOL     OW32941   1.894   3.518   0.391  0.3856  0.1636 -0.4642
10681SOL    HW132942   1.969   3.456   0.415  1.2258  1.2510 -0.2178
10681SOL    HW232943   1.883   3.587   0.462 -0.6171  0.2434 -0.6755
10682SOL     OW32944   4.432   1.754   2.129  0.1101  0.8253 -0.0082
10682SOL    HW132945   4.414   1.667   2.175 -0.1203  0.7019 -0.3289
10682SOL    HW232946   4.531   1.765   2.117  0.1304 -1.7101 -4.2684
10683SOL     OW32947   0.178   1.026   5.210 -0.7460 -0.1405  0.1364
10683SOL    HW132948   0.170   1.070   5.299 -0.4192  0.5294 -0.1662
10683SOL    HW232949   0.093   0.978   5.189 -0.7327 -0.5126  0.9182
10684SOL     OW32950   4.672   0.251   1.348 -0.9261  0.3221 -0.5691
10684SOL    HW132951   4.669   0.350   1.333 -1.7397  0.0870 -2.1085
10684SOL    HW232952   4.751   0.212   1.300  1.4477  0.5955  2.7897
10685SOL     OW32953   6.948   0.640   3.589  0.1430  0.2718 -0.0726
10685SOL    HW132954   7.028   0.586   3.618  0.4450  0.6773 -0.1485
10685SOL    HW232955   6.974   0.736   3.579  0.3516  0.0244 -2.7491
10686SOL     OW32956   5.892   5.021   6.616  0.4678  0.8899 -0.0924
10686SOL    HW132957   5.835   5.082   6.669  0.9644  1.5650 -0.3150
10686SOL    HW232958   5.970   5.072   6.579  1.0218  0.0696 -0.0802
10687SOL     OW32959   5.912   5.611   0.333 -0.2050 -0.0539 -0.2249
10687SOL    HW132960   5.823   5.568   0.321 -0.6809  1.0263 -0.6688
10687SOL    HW232961   5.904   5.686   0.398 -0.3995  2.1994 -2.6852
10688SOL     OW32962   1.774   5.084   2.716  0.6156  0.0407  0.1496
10688SOL    HW132963   1.730   5.028   2.646 -1.3408  0.4699  0.9833
10688SOL    HW232964   1.845   5.141   2.674  0.5112 -0.7987 -1.2034
10689SOL     OW32965   1.795   0.981   1.919  0.2911 -0.0975 -0.1640
10689SOL    HW132966   1.776   1.077   1.942  1.0644 -0.0692  0.3897
10689SOL    HW232967   1.736   0.922   1.975  0.3030  0.0372 -0.0076
10690SOL     OW32968   5.095   6.635   1.650  0.3056  0.2946  0.2458
10690SOL    HW132969   5.051   6.670   1.568 -1.0661 -0.0813  0.7855
10690SOL    HW232970   5.067   6.539   1.664  1.6154 -0.0808  0.4050
10691SOL     OW32971   3.155   1.245   2.090 -0.6250  0.8826 -0.1748
10691SOL    HW132972   3.158   1.290   2.001  0.5112  0.8729 -0.1523
10691SOL    HW232973   3.218   1.291   2.152  0.5500 -0.7170 -0.1386
10692SOL     OW32974   5.071   0.246   4.045  0.6235  0.4684 -0.6570
10692SOL    HW132975   4.995   0.199   4.000  1.7601 -1.0768 -1.0454
10692SOL    HW232976   5.145   0.259   3.979  1.3803  0.3410  0.1557
10693SOL     OW32977   4.263   1.642   4.469 -0.2993  0.8830 -0.7450
10693SOL    HW132978   4.245   1.578   4.395 -0.3103  2.4085 -2.1023
10693SOL    HW232979   4.209   1.725   4.457  1.4555  2.1642 -0.3781
10694SOL     OW32980   3.788   1.985   0.626  0.5257 -0.1489 -0.0293
10694SOL    HW132981   3.725   2.039   0.570 -0.4705  0.3683  1.5135
10694SOL    HW232982   3.857   2.045   0.666  0.4704 -0.3001  0.2971
10695SOL     OW32983   4.870   5.080   5.986 -0.7101  0.2562 -0.2261
10695SOL    HW132984   4.795   5.110   5.928 -0.4918  1.4037  0.0646
10695SOL    HW232985   4.946   5.048   5.930 -0.2210  2.0230 -0.6248
10696SOL     OW32986   5.691   0.212   0.808  0.0726 -0.1107  0.1625
10696SOL    HW132987   5.667   0.141   0.741  1.6855 -0.4847 -0.0739
10696SOL    HW232988   5.658   0.301   0.776  0.3502 -0.3666 -0.8728
10697SOL     OW32989   1.614   4.589   4.097 -0.5335 -0.4811 -0.0930
10697SOL    HW132990   1.685   4.634   4.043 -0.3904 -0.9239 -0.2829
10697SOL    HW232991   1.647   4.573   4.190 -0.5130 -0.3760 -0.0820
10698SOL     OW32992   2.140   3.821   2.551  0.2164 -0.0706 -0.0367
10698SOL    HW132993   2.043   3.836   2.570  0.3638  0.7131  0.1369
10698SOL    HW232994   2.183   3.908   2.526  0.8011 -0.4720 -0.4533
10699SOL     OW32995   1.287   3.634   4.302 -0.0166  0.1462  0.2206
10699SOL    HW132996   1.274   3.733   4.299 -0.2462  0.1187  0.3263
10699SOL    HW232997   1.370   3.610   4.252 -0.2081  0.3485 -0.1941
10700SOL     OW32998   0.424   1.722   3.743  0.7541 -0.6124  0.4511
10700SOL    HW132999   0.474   1.657   3.800 -0.1173 -0.9024  0.9053
10700SOL    HW233000   0.479   1.744   3.663  1.1951 -1.6917  0.4296
10701SOL     OW33001   2.366   5.829   2.375  0.0523 -0.1971 -0.3914
10701SOL    HW133002   2.387   5.885   2.455  2.6046 -2.2086  0.4786
10701SOL    HW233003   2.430   5.753   2.369 -0.0778 -0.2321 -4.3375
10702SOL     OW33004   3.978   1.875   6.707  0.0248  0.0469 -0.2308
10702SOL    HW133005   4.067   1.833   6.690  0.6708  1.7374 -1.2098
10702SOL    HW233006   3.986   1.974   6.698 -1.3505  0.4739  2.4220
10703SOL     OW33007   3.597   4.184   4.338  0.5961  0.4596 -0.0893
10703SOL    HW133008   3.501   4.164   4.322  0.7009 -1.4534  1.2595
10703SOL    HW233009   3.653   4.143   4.266  0.4336  1.8930 -1.0834
10704SOL     OW33010   0.369   4.380   6.240  0.0798  0.0195 -0.1149
10704SOL    HW133011   0.281   4.409   6.202  0.8086  1.3712 -0.8897
10704SOL    HW233012   0.419   4.461   6.271  0.1603 -0.9169  2.3590
10705SOL     OW33013   0.596   4.554   6.921 -0.4417 -0.2959  0.0886
10705SOL    HW133014   0.610   4.540   6.823  3.6392 -0.8346  0.5824
10705SOL    HW233015   0.568   4.467   6.962  0.6223 -0.8394 -0.2735
10706SOL     OW33016   3.444   4.996   0.935  0.0012 -0.0108  0.0192
10706SOL    HW133017   3.389   4.973   0.856 -0.5901 -0.7797  0.6406
10706SOL    HW233018   3.540   5.004   0.908 -0.3000  0.5995 -0.9277
10707SOL     OW33019   6.346   0.936   6.848  0.1252 -0.0042 -0.4763
10707SOL    HW133020   6.342   0.896   6.939  0.6518  0.9141 -0.0381
10707SOL    HW233021   6.339   1.035   6.854 -1.9185 -0.0114 -1.5963
10708SOL     OW33022   4.961   4.346   6.352  0.7852 -0.4523  0.3063
10708SOL    HW133023   5.054   4.342   6.314  1.8043 -1.4523  2.7386
10708SOL    HW233024   4.966   4.352   6.451 -1.7880 -1.3923  0.5526
10709SOL     OW33025   1.443   1.914   5.563 -0.5796  0.0092  0.7574
10709SOL    HW133026   1.362   1.859   5.544 -0.4396 -0.1468  0.6048
10709SOL    HW233027   1.522   1.854   5.573 -0.2411  0.2410 -0.3667
10710SOL     OW33028   0.131   5.901   2.942  0.0324 -0.8337 -0.1429
10710SOL    HW133029   0.083   5.830   2.889  0.2362 -0.4506 -0.8543
10710SOL    HW233030   0.200   5.858   3.000 -1.0324 -1.3763  0.7575
10711SOL     OW33031   2.297   4.780   5.369 -0.0949 -0.0824 -0.0630
10711SOL    HW133032   2.205   4.753   5.397 -0.1016 -1.0413 -0.9350
10711SOL    HW233033   2.354   4.794   5.450 -0.7364 -0.4722  0.4654
10712SOL     OW33034   2.737   3.053   0.756 -0.0341 -0.0822  0.0995
10712SOL    HW133035   2.833   3.078   0.743 -0.2594  0.5977 -0.2626
10712SOL    HW233036   2.701   3.012   0.672  0.1579 -1.1052  0.4914
10713SOL     OW33037   1.136   0.910   6.616  0.0426 -0.2465 -0.2836
10713SOL    HW133038   1.052   0.883   6.662  1.2009  0.3417  2.3673
10713SOL    HW233039   1.204   0.837   6.625  0.3248 -0.0920 -1.0556
10714SOL     OW33040   6.786   5.547   4.240  0.0945  0.6439  0.0468
10714SOL    HW133041   6.702   5.565   4.188  0.1408 -2.0989 -1.1277
10714SOL    HW233042   6.864   5.586   4.191 -0.1651  0.4704 -0.5128
10715SOL     OW33043   6.570   6.660   2.677  0.9358  0.5583 -1.0605
10715SOL    HW133044   6.597   6.602   2.753  3.3396 -1.1974 -3.0626
10715SOL    HW233045   6.575   6.756   2.705  0.4008 -0.0539  1.3205
10716SOL     OW33046   5.943   2.144   1.704 -0.3067 -0.2230  0.1438
10716SOL    HW133047   5.923   2.210   1.777 -0.0753 -1.7461  1.6520
10716SOL    HW233048   5.989   2.191   1.629 -1.3510  1.5738  0.5742
10717SOL     OW33049   4.982   6.088   6.674 -0.1540 -0.6822  0.0450
10717SOL    HW133050   4.996   6.083   6.575 -0.0831 -0.5949  0.0507
10717SOL    HW233051   5.047   6.028   6.720 -0.1458 -0.6759  0.0424
10718SOL     OW33052   1.222   4.041   6.292 -0.0332  0.7180  0.3759
10718SOL    HW133053   1.157   4.095   6.241  0.9229  0.5834 -1.0399
10718SOL    HW233054   1.209   4.056   6.390 -1.1491  1.8655  0.0686
10719SOL     OW33055   3.864   4.804   2.374  0.2048  0.2012  0.2393
10719SOL    HW133056   3.922   4.813   2.292  0.1915  0.1302  0.2223
10719SOL    HW233057   3.780   4.856   2.360  0.4817  0.7189  0.4640
10720SOL     OW33058   0.547   3.506   5.194 -0.0383  0.1165  0.0566
10720SOL    HW133059   0.603   3.526   5.113  0.9694 -1.9110  0.2019
10720SOL    HW233060   0.458   3.552   5.185  0.9490  1.9431 -1.0175
10721SOL     OW33061   5.802   6.104   5.384  0.5733 -0.3241 -0.1463
10721SOL    HW133062   5.831   6.130   5.292  1.2580 -0.3887  0.0445
10721SOL    HW233063   5.786   6.186   5.438  1.7335 -0.2758  0.1481
10722SOL     OW33064   1.316   6.120   5.967  0.2006  0.5282 -0.2292
10722SOL    HW133065   1.245   6.062   6.008  0.5880 -0.7591 -1.3076
10722SOL    HW233066   1.311   6.113   5.868  3.1835 -1.3748 -0.3818
10723SOL     OW33067   6.812   5.545   6.938 -0.0050  0.0251 -0.3433
10723SOL    HW133068   6.904   5.582   6.930  0.9564 -2.0748  0.3439
10723SOL    HW233069   6.789   5.531   7.034 -1.2427  0.9277 -0.4790
10724SOL     OW33070   4.606   5.389   6.204  0.0614 -0.2241 -0.6168
10724SOL    HW133071   4.578   5.443   6.125 -0.3829  0.2195 -0.1633
10724SOL    HW233072   4.526   5.340   6.240  0.0938  0.1740  0.0150
10725SOL     OW33073   1.333   0.603   5.376  0.4370  0.4529 -0.0494
10725SOL    HW133074   1.244   0.557   5.373  0.5138  0.1967  1.0094
10725SOL    HW233075   1.320   0.698   5.403  0.4849  0.3766  0.2536
10726SOL     OW33076   4.596   6.581   4.848  0.2165  0.2484  0.1335
10726SOL    HW133077   4.516   6.557   4.903 -1.3196  2.4818 -0.9333
10726SOL    HW233078   4.675   6.595   4.908 -0.6318 -0.2618  1.4219
10727SOL     OW33079   5.112   4.746   4.771  0.7278  0.2051  0.2070
10727SOL    HW133080   5.049   4.819   4.797  1.1242  0.1255  1.4714
10727SOL    HW233081   5.157   4.711   4.853  2.4710  0.3128 -0.6584
10728SOL     OW33082   0.151   5.800   3.990 -0.5057  0.3452 -0.1874
10728SOL    HW133083   0.088   5.876   3.970 -0.1163  0.3342 -1.6142
10728SOL    HW233084   0.245   5.830   3.972 -0.0493  0.4051  2.0739
10729SOL     OW33085   4.774   2.863   5.947  0.5557  0.7564  0.3858
10729SOL    HW133086   4.833   2.916   5.886  3.3177 -2.7891 -0.3521
10729SOL    HW233087   4.694   2.831   5.896  2.4449 -1.5197 -1.3888
10730SOL     OW33088   2.136   0.486   4.620 -0.1296  0.2759 -0.1149
10730SOL    HW133089   2.037   0.501   4.630  0.3850  4.0629  0.9429
10730SOL    HW233090   2.172   0.447   4.705 -0.4553  0.8691  0.3073
10731SOL     OW33091   6.171   4.998   5.929 -0.4268 -0.0129  0.1867
10731SOL    HW133092   6.271   5.002   5.930 -0.4245  0.0900 -0.5875
10731SOL    HW233093   6.141   4.910   5.966 -0.0837  0.2931  1.2458
10732SOL     OW33094   5.931   4.336   0.325  0.4622  0.5089 -0.0741
10732SOL    HW133095   5.873   4.397   0.272  1.8042  1.5109 -0.4406
10732SOL    HW233096   5.919   4.242   0.293 -2.0228  0.4498  0.8581
10733SOL     OW33097   6.818   2.696   5.545 -0.0691  0.0958 -0.1656
10733SOL    HW133098   6.780   2.657   5.461 -0.9547 -2.0060  1.1501
10733SOL    HW233099   6.908   2.736   5.526  0.6344 -2.0861 -1.7241
10734SOL     OW33100   2.607   0.884   3.664  0.2598  0.1990  0.2985
10734SOL    HW133101   2.585   0.787   3.675 -2.5909  0.6629 -0.4043
10734SOL    HW233102   2.659   0.916   3.743  1.1675 -1.8466  0.5906
10735SOL     OW33103   6.442   1.205   0.669  0.1019  0.0628 -0.2472
10735SOL    HW133104   6.417   1.112   0.696 -0.3882  0.0130 -0.8419
10735SOL    HW233105   6.482   1.204   0.578  0.9346  0.3308  0.1125
10736SOL     OW33106   6.477   0.532   3.286 -0.5144 -0.2689 -0.0406
10736SOL    HW133107   6.468   0.438   3.252 -0.9456 -0.3099  0.1870
10736SOL    HW233108   6.466   0.533   3.385 -0.4791  0.0226 -0.0388
10737SOL     OW33109   5.563   0.887   0.734  0.0748  0.0856  0.0232
10737SOL    HW133110   5.491   0.823   0.708 -0.0663  0.7943 -1.4589
10737SOL    HW233111   5.650   0.854   0.698  0.1435  0.2738  0.0191
10738SOL     OW33112   0.448   6.306   1.905  0.3799  0.4762 -0.8511
10738SOL    HW133113   0.520   6.368   1.935  1.2669 -1.5202  1.5499
10738SOL    HW233114   0.366   6.319   1.962  0.7738 -0.8646  0.0698
10739SOL     OW33115   4.716   2.761   4.724 -0.1024 -0.3016 -0.4546
10739SOL    HW133116   4.724   2.677   4.670  1.1314 -0.0699 -0.6573
10739SOL    HW233117   4.678   2.834   4.667  0.0811 -0.3705 -0.6655
10740SOL     OW33118   3.271   0.173   0.506  0.0207 -0.0500  0.4243
10740SOL    HW133119   3.258   0.224   0.592 -1.0747 -0.2197  0.3738
10740SOL    HW233120   3.321   0.230   0.441  0.4414  0.2626  1.0105
10741SOL     OW33121   1.942   2.679   5.318  0.0034 -0.4235 -0.1505
10741SOL    HW133122   2.011   2.658   5.387 -2.0002  0.0860  2.1690
10741SOL    HW233123   1.881   2.601   5.306 -1.1571  0.3309  0.5968
10742SOL     OW33124   6.722   0.393   0.341 -0.3372 -0.4256 -0.3301
10742SOL    HW133125   6.803   0.408   0.285 -1.7252 -0.9488 -2.6383
10742SOL    HW233126   6.748   0.357   0.430  2.0355  1.1626 -0.2930
10743SOL     OW33127   4.388   3.168   0.200 -0.2309 -0.2865 -0.3809
10743SOL    HW133128   4.301   3.202   0.236  0.2428 -1.2040  1.7317
10743SOL    HW233129   4.412   3.083   0.245  2.2882  0.4848 -0.1391
10744SOL     OW33130   2.733   1.139   1.613 -0.3254  0.2185 -0.1490
10744SOL    HW133131   2.796   1.105   1.543  0.6102 -0.5267  1.0023
10744SOL    HW233132   2.784   1.157   1.698 -1.5313  0.4084  0.5590
10745SOL     OW33133   4.051   4.932   2.112 -0.1897 -0.3536  0.0496
10745SOL    HW133134   4.135   4.973   2.075  0.2099 -1.8382 -0.7832
10745SOL    HW233135   4.003   4.884   2.039 -0.9421 -0.8659  0.8610
10746SOL     OW33136   1.367   5.552   4.539  0.2021 -0.0151 -0.3831
10746SOL    HW133137   1.418   5.523   4.458  0.7349 -0.0944 -0.0270
10746SOL    HW233138   1.330   5.471   4.585  2.1913 -0.2528  0.9415
10747SOL     OW33139   6.941   1.273   5.603  0.4984 -0.7032  0.7516
10747SOL    HW133140   6.853   1.269   5.556  1.2318  0.5970 -0.8509
10747SOL    HW233141   6.946   1.200   5.671 -1.8210 -0.7515  0.9456
10748SOL     OW33142   4.658   0.531   1.384 -0.2831  0.4516 -0.2060
10748SOL    HW133143   4.641   0.599   1.314  0.6655 -0.6146 -1.5423
10748SOL    HW233144   4.695   0.575   1.466 -1.4275  1.7182 -0.3466
10749SOL     OW33145   5.678   1.332   2.712 -0.6896 -0.6785 -0.4878
10749SOL    HW133146   5.618   1.410   2.694  0.5054 -0.0556 -2.0587
10749SOL    HW233147   5.712   1.295   2.625  0.4630 -1.5857  0.3104
10750SOL     OW33148   3.209   2.071   2.230  0.0205  0.1919  0.3682
10750SOL    HW133149   3.134   2.138   2.232 -1.5888 -1.4775 -0.6896
10750SOL    HW233150   3.238   2.057   2.135 -1.3864 -2.3502  0.2345
10751SOL     OW33151   6.592   5.395   3.869 -0.1153  0.0181 -0.4462
10751SOL    HW133152   6.609   5.493   3.870  0.2704 -0.0465 -0.5009
10751SOL    HW233153   6.531   5.371   3.945  1.1471  0.0660  0.6157
10752SOL     OW33154   0.828   5.718   6.662 -0.4728  0.0092  0.2216
10752SOL    HW133155   0.919   5.750   6.637 -0.0409  1.5633  3.3200
10752SOL    HW233156   0.780   5.687   6.580  1.9230  1.4277 -1.8616
10753SOL     OW33157   5.151   6.804   4.994  0.5923  0.1995  0.3625
10753SOL    HW133158   5.233   6.783   4.942  0.2786 -0.5494  0.1612
10753SOL    HW233159   5.137   6.903   4.995  1.2642  0.3025  0.0494
10754SOL     OW33160   6.906   3.714   1.972 -0.0489  0.5174 -0.3129
10754SOL    HW133161   7.003   3.706   1.993  0.4610 -1.1086 -2.8971
10754SOL    HW233162   6.891   3.788   1.907 -0.4543  0.3205 -0.4492
10755SOL     OW33163   1.503   1.066   3.510  0.0944 -0.0642 -0.2188
10755SOL    HW133164   1.455   0.984   3.480  0.2982 -0.9164  1.6441
10755SOL    HW233165   1.590   1.073   3.461  0.3406 -1.3035 -0.0082
10756SOL     OW33166   1.035   0.046   0.452 -0.5908  0.0729  0.3961
10756SOL    HW133167   0.959   0.109   0.463  0.5676  1.5534  0.2755
10756SOL    HW233168   1.093   0.076   0.376  0.3845 -0.7252  0.7937
10757SOL     OW33169   1.942   1.314   3.627 -0.2044 -0.0669 -0.4843
10757SOL    HW133170   1.860   1.268   3.662  0.8605 -0.9060  1.0188
10757SOL    HW233171   1.936   1.412   3.646 -0.7759 -0.1428 -0.2518
10758SOL     OW33172   0.343   1.176   0.442 -0.4280 -0.0493 -0.5110
10758SOL    HW133173   0.368   1.240   0.514  0.8966 -0.0989 -0.9123
10758SOL    HW233174   0.251   1.139   0.461 -0.0649 -0.1604  1.2005
10759SOL     OW33175   2.895   4.738   6.413 -0.1288  0.0965  0.7937
10759SOL    HW133176   2.919   4.656   6.465  0.7456  1.0173  1.9286
10759SOL    HW233177   2.967   4.807   6.425 -2.0820  2.0422  2.1838
10760SOL     OW33178   0.762   4.124   0.306 -0.2263 -0.8024 -0.4753
10760SOL    HW133179   0.681   4.087   0.351 -0.4041 -1.0878 -1.0189
10760SOL    HW233180   0.841   4.111   0.365 -0.8656  1.2379  0.9450
10761SOL     OW33181   2.903   0.286   6.681 -0.1699 -0.1214  0.1094
10761SOL    HW133182   2.826   0.261   6.622  1.0068 -0.3066 -1.4034
10761SOL    HW233183   2.954   0.203   6.706  0.7740  0.2086 -0.6850
10762SOL     OW33184   0.539   5.812   1.648 -0.6651  0.0723  0.2015
10762SOL    HW133185   0.535   5.906   1.681  0.7177  0.5715 -0.9430
10762SOL    HW233186   0.452   5.789   1.603 -1.1696  0.6421  0.8577
10763SOL     OW33187   3.672   1.491   2.075 -0.1361 -0.1570 -0.7946
10763SOL    HW133188   3.757   1.524   2.114 -0.4430 -0.0453 -0.2073
10763SOL    HW233189   3.691   1.424   2.003  0.4414 -2.0688  1.0080
10764SOL     OW33190   5.546   6.632   3.674  0.3886 -0.9287  0.2211
10764SOL    HW133191   5.601   6.623   3.591 -1.5963 -2.3807 -1.0139
10764SOL    HW233192   5.457   6.672   3.652  0.7455  1.1556  2.1353
10765SOL     OW33193   0.995   2.830   2.512  0.3389 -0.0267 -0.4089
10765SOL    HW133194   1.050   2.818   2.429 -0.3175  0.1935 -0.8842
10765SOL    HW233195   0.956   2.922   2.512 -1.6930 -0.8450 -1.1107
10766SOL     OW33196   3.556   4.475   6.872  0.3844  0.5765 -0.4092
10766SOL    HW133197   3.554   4.406   6.944 -0.8714  1.7750  0.7809
10766SOL    HW233198   3.498   4.445   6.796 -0.3902  0.4311  0.2235
10767SOL     OW33199   0.635   5.065   0.095  0.5352  0.4431 -0.3557
10767SOL    HW133200   0.597   4.974   0.077  1.2220 -0.5625  2.7794
10767SOL    HW233201   0.725   5.072   0.052  0.4391 -0.3262 -0.7030
10768SOL     OW33202   6.127   6.411   5.959  0.6786  0.2651  0.0326
10768SOL    HW133203   6.040   6.397   6.006 -0.1491  2.4767 -0.7094
10768SOL    HW233204   6.178   6.325   5.957 -0.9363 -0.7989  1.5360
10769SOL     OW33205   3.772   3.662   3.432  0.3627  0.4975  0.0330
10769SOL    HW133206   3.827   3.618   3.502 -0.3524 -0.1360  0.2137
10769SOL    HW233207   3.751   3.597   3.360 -0.7488  0.5074  0.3287
10770SOL     OW33208   2.559   1.924   2.629  0.0648 -0.5585 -0.1995
10770SOL    HW133209   2.659   1.920   2.634  0.1248 -0.2089 -0.8773
10770SOL    HW233210   2.527   2.006   2.676 -0.1373 -2.0235  2.3701
10771SOL     OW33211   6.727   5.294   5.801  0.0242  0.0532 -0.5753
10771SOL    HW133212   6.801   5.339   5.751  1.9335 -0.9378  1.1870
10771SOL    HW233213   6.680   5.360   5.859  0.5550  0.4186 -0.5573
10772SOL     OW33214   4.968   3.607   4.026 -0.6527 -0.4556 -0.5548
10772SOL    HW133215   4.915   3.597   4.110 -0.9925  0.7955 -0.6027
10772SOL    HW233216   5.052   3.658   4.045 -0.1030 -1.2593 -0.7456
10773SOL     OW33217   0.789   4.828   1.054  0.3195  0.0008  0.2555
10773SOL    HW133218   0.786   4.738   1.010  0.6661 -0.3620  0.9589
10773SOL    HW233219   0.825   4.895   0.989  2.3982 -0.8289  0.4579
10774SOL     OW33220   6.062   3.775   3.093 -0.1336 -0.1989  0.1359
10774SOL    HW133221   6.094   3.862   3.056 -0.1907 -0.4251 -0.4471
10774SOL    HW233222   5.964   3.780   3.109 -0.0369  0.0545  0.7084
10775SOL     OW33223   3.926   3.971   5.958 -0.9379 -0.1945 -0.0638
10775SOL    HW133224   3.893   3.967   5.864  1.2995  0.8352 -0.9703
10775SOL    HW233225   3.890   4.053   6.002  1.9929  2.2548 -1.8185
10776SOL     OW33226   1.018   3.134   5.382  0.8835  0.0050  0.0216
10776SOL    HW133227   0.964   3.114   5.300  0.9469 -0.5213  0.0983
10776SOL    HW233228   0.960   3.128   5.463  1.4808 -3.1520  0.3810
10777SOL     OW33229   1.029   0.166   1.586  0.0802 -0.4067 -0.3713
10777SOL    HW133230   0.964   0.240   1.570 -1.3206 -0.8362  2.6814
10777SOL    HW233231   0.987   0.078   1.563 -0.3026 -0.6571  1.2286
10778SOL     OW33232   5.542   1.581   2.121  0.2259  0.2442  0.0633
10778SOL    HW133233   5.629   1.548   2.084 -0.3222  0.0784 -1.1272
10778SOL    HW233234   5.546   1.580   2.221  1.2000 -0.7938  0.0375
10779SOL     OW33235   5.260   2.296   6.383 -0.3365  0.0914  0.5539
10779SOL    HW133236   5.197   2.221   6.404  1.1512 -1.4140 -0.0795
10779SOL    HW233237   5.214   2.364   6.327 -2.7305  1.4070  3.7896
10780SOL     OW33238   0.734   0.415   4.693 -0.0033  0.2392  0.1895
10780SOL    HW133239   0.819   0.425   4.642 -0.1428 -3.2354 -0.9584
10780SOL    HW233240   0.657   0.418   4.630 -0.8702  3.3461  1.2147
10781SOL     OW33241   5.655   3.309   6.000  0.0626 -0.0393 -0.5850
10781SOL    HW133242   5.599   3.391   5.989 -1.3246 -1.0807 -1.5593
10781SOL    HW233243   5.747   3.336   6.031 -0.7554  1.7496  0.4400
10782SOL     OW33244   0.378   3.913   5.637 -0.5580 -0.6412  0.2702
10782SOL    HW133245   0.378   3.883   5.541  1.1656 -0.1413  0.0806
10782SOL    HW233246   0.334   4.003   5.643 -0.0864 -0.3731 -0.1716
10783SOL     OW33247   0.999   3.104   4.632  0.3338 -0.0081 -0.6757
10783SOL    HW133248   1.044   3.118   4.543  2.0056  0.9775  0.2849
10783SOL    HW233249   0.978   3.007   4.643  2.2502 -0.5270 -1.1915
10784SOL     OW33250   4.291   5.370   2.414 -0.2662  0.1290  0.3334
10784SOL    HW133251   4.294   5.436   2.339  1.4829  0.5045  0.6828
10784SOL    HW233252   4.294   5.277   2.377 -2.3726  0.1937 -0.1442
10785SOL     OW33253   1.155   5.486   2.759  0.2751  0.7804 -1.2769
10785SOL    HW133254   1.228   5.470   2.693  3.1809 -0.7486  2.0173
10785SOL    HW233255   1.118   5.399   2.790 -0.5989  1.4187 -0.4483
10786SOL     OW33256   3.484   0.576   0.893  0.0627  0.7188 -0.2062
10786SOL    HW133257   3.414   0.558   0.824  0.6833  1.6276 -1.0972
10786SOL    HW233258   3.442   0.579   0.983 -0.7499 -0.6065 -0.5112
10787SOL     OW33259   4.995   1.332   2.990  0.0647  0.4225 -0.0582
10787SOL    HW133260   5.029   1.421   2.958  0.8627  0.5207  1.0208
10787SOL    HW233261   4.969   1.277   2.911  4.6721 -0.4452 -1.2599
10788SOL     OW33262   0.917   3.490   6.809 -0.8037  0.3002 -0.1912
10788SOL    HW133263   0.927   3.467   6.906  1.6291 -0.9433 -0.6414
10788SOL    HW233264   0.951   3.583   6.793  0.2413 -0.0406 -0.0413
10789SOL     OW33265   0.792   2.747   3.342 -0.0819 -0.4446 -0.2695
10789SOL    HW133266   0.803   2.793   3.430 -1.4834  0.0590 -0.3356
10789SOL    HW233267   0.882   2.720   3.307  0.6562  0.9910  0.4373
10790SOL     OW33268   6.004   1.751   4.924 -0.0492 -0.2690  0.0209
10790SOL    HW133269   6.044   1.842   4.933  0.2124 -0.4781  1.1924
10790SOL    HW233270   6.060   1.685   4.974 -0.8136 -0.8862  0.0825
10791SOL     OW33271   1.449   3.161   4.111 -0.2436 -0.1844 -0.1855
10791SOL    HW133272   1.516   3.193   4.178  1.9025 -0.8159 -1.9161
10791SOL    HW233273   1.455   3.062   4.103 -1.3084 -0.2345 -0.4679
10792SOL     OW33274   5.115   1.022   2.614  0.4283  0.1610  0.2433
10792SOL    HW133275   5.106   1.122   2.622  0.8841  0.1834  0.4564
10792SOL    HW233276   5.174   1.001   2.536  1.6117  0.0949  1.1397
10793SOL     OW33277   3.230   2.123   2.754 -0.1032 -0.1678  0.0531
10793SOL    HW133278   3.295   2.123   2.830 -0.1445 -4.0465  0.3276
10793SOL    HW233279   3.140   2.152   2.786 -0.3809 -2.7092  1.9272
10794SOL     OW33280   6.459   1.942   7.016  0.1359  0.6003  0.1402
10794SOL    HW133281   6.365   1.969   7.034 -0.0402  0.1443 -0.0930
10794SOL    HW233282   6.514   1.958   7.098 -0.4779 -0.6381  0.8213
10795SOL     OW33283   5.751   1.795   2.362 -0.4292 -0.2324 -0.0021
10795SOL    HW133284   5.767   1.880   2.411  0.5972  0.1516 -0.9483
10795SOL    HW233285   5.798   1.798   2.273 -0.8477 -1.5561 -0.3000
10796SOL     OW33286   1.804   1.081   6.612 -0.0205 -0.1073 -0.4426
10796SOL    HW133287   1.783   1.174   6.582 -0.9785 -0.2992 -0.4097
10796SOL    HW233288   1.719   1.032   6.630  0.4488 -1.2643 -1.2620
10797SOL     OW33289   7.022   3.861   6.204 -0.1077  0.0807 -0.0717
10797SOL    HW133290   7.085   3.886   6.130  0.1690  0.2006  0.2033
10797SOL    HW233291   7.071   3.807   6.272 -0.9946 -2.5243 -1.3406
10798SOL     OW33292   3.418   4.958   0.632  0.4918  0.0716  0.3492
10798SOL    HW133293   3.330   4.917   0.610  1.3095 -0.9183 -1.2517
10798SOL    HW233294   3.407   5.057   0.640 -0.5248  0.1485 -1.3839
10799SOL     OW33295   1.860   1.190   2.576 -0.4047  0.1016  0.4064
10799SOL    HW133296   1.833   1.133   2.654  0.1013  0.7664  1.0764
10799SOL    HW233297   1.816   1.279   2.583 -0.4310  0.1330 -0.1269
10800SOL     OW33298   4.218   1.771   1.033  0.7721  0.2347 -0.0078
10800SOL    HW133299   4.167   1.745   1.115 -0.1982 -0.1379 -0.7092
10800SOL    HW233300   4.316   1.763   1.050  0.5646 -0.6497  0.8437
10801SOL     OW33301   3.541   6.058   0.772  0.3306  0.0896 -0.5898
10801SOL    HW133302   3.550   6.108   0.858  1.9467 -1.5741  0.2948
10801SOL    HW233303   3.445   6.050   0.747 -0.5105 -1.9146  2.6965
10802SOL     OW33304   0.705   5.744   2.482 -0.1242 -0.3105  0.1684
10802SOL    HW133305   0.623   5.787   2.520 -0.0772  1.4985 -1.6027
10802SOL    HW233306   0.769   5.723   2.556 -1.9283 -1.2890  1.5356
10803SOL     OW33307   1.358   4.322   6.471 -0.0462  0.4269  0.2408
10803SOL    HW133308   1.293   4.396   6.489  2.0490  2.1196  1.4124
10803SOL    HW233309   1.382   4.321   6.374 -0.6609  0.7511  0.0774
10804SOL     OW33310   1.209   3.392   6.757 -0.1647  0.4180  0.0414
10804SOL    HW133311   1.255   3.424   6.675 -0.4123 -3.4988 -1.8477
10804SOL    HW233312   1.116   3.428   6.760  0.5178  2.2961 -0.1677
10805SOL     OW33313   4.675   5.680   3.228  0.6084  0.2453 -0.3409
10805SOL    HW133314   4.623   5.705   3.146  0.4919  1.1689 -0.0077
10805SOL    HW233315   4.676   5.758   3.291  1.8978  0.0341 -0.0834
10806SOL     OW33316   0.099   1.568   4.418  0.2414 -0.1180  0.3944
10806SOL    HW133317   0.059   1.655   4.444 -0.2964  0.6142 -2.5157
10806SOL    HW233318   0.028   1.505   4.387  0.6678 -1.4881  2.0320
10807SOL     OW33319   5.871   2.976   0.062 -0.1332 -0.1254  0.2539
10807SOL    HW133320   5.862   3.071   0.030  2.7139 -0.2547 -1.1731
10807SOL    HW233321   5.790   2.952   0.116 -1.2347  2.8900  0.1441
10808SOL     OW33322   0.159   2.671   1.118 -0.9841 -0.0338  0.0943
10808SOL    HW133323   0.198   2.676   1.210  0.6269 -1.3777 -0.4686
10808SOL    HW233324   0.189   2.587   1.074 -0.7303  1.1392 -2.0959
10809SOL     OW33325   0.681   2.660   3.715 -0.2240 -0.1737 -0.0831
10809SOL    HW133326   0.678   2.624   3.808  0.7312  0.5777  0.2464
10809SOL    HW233327   0.618   2.607   3.657  1.2748 -2.5405  0.3047
10810SOL     OW33328   3.367   0.837   0.472 -0.0482 -0.2542  0.2692
10810SOL    HW133329   3.384   0.814   0.567 -2.6949 -0.1363  0.8452
10810SOL    HW233330   3.382   0.935   0.459  1.4702 -0.4578  0.2157
10811SOL     OW33331   3.840   4.387   5.544  0.0359  0.0795  0.1142
10811SOL    HW133332   3.840   4.410   5.641  1.0500 -1.2048  0.4440
10811SOL    HW233333   3.753   4.414   5.503 -0.6806 -0.0093  1.5300
10812SOL     OW33334   4.241   2.291   1.677 -0.8553 -0.4576 -0.7073
10812SOL    HW133335   4.230   2.313   1.774  0.7615 -1.5095 -0.2474
10812SOL    HW233336   4.183   2.213   1.654  1.7740 -2.9396  0.5234
10813SOL     OW33337   1.355   6.217   2.562  0.1845 -0.2812  0.0813
10813SOL    HW133338   1.349   6.317   2.565  0.2294 -0.2064 -1.4527
10813SOL    HW233339   1.397   6.183   2.646  2.3165  1.1582 -0.3374
10814SOL     OW33340   1.338   5.452   6.492  0.4562 -0.6872  0.2012
10814SOL    HW133341   1.279   5.380   6.528 -0.2555 -0.9337 -1.4001
10814SOL    HW233342   1.289   5.504   6.422  1.0974  1.1110  0.9973
10815SOL     OW33343   3.965   3.649   6.977 -0.9925  0.6063  0.3248
10815SOL    HW133344   4.000   3.593   6.902 -0.0026 -1.6845  2.3531
10815SOL    HW233345   4.012   3.738   6.977 -0.0499  0.1353 -0.9669
10816SOL     OW33346   2.797   1.681   0.207  0.2939 -0.1264 -0.4504
10816SOL    HW133347   2.840   1.652   0.121 -1.3378 -2.1287 -0.6549
10816SOL    HW233348   2.713   1.731   0.187 -0.0356 -0.5084 -0.0161
10817SOL     OW33349   4.940   0.978   6.783  0.1425  0.4530  0.0122
10817SOL    HW133350   4.933   0.893   6.836 -0.2938  0.0286 -0.7228
10817SOL    HW233351   5.037   1.002   6.773  0.2462  0.3356  0.6792
10818SOL     OW33352   4.514   3.962   6.609 -0.1344  0.0583  0.2618
10818SOL    HW133353   4.431   3.987   6.560 -2.0189 -0.2179  3.0273
10818SOL    HW233354   4.505   3.868   6.644  0.7416  0.4969  1.7541
10819SOL     OW33355   1.752   2.352   6.837 -0.3687 -0.4715  0.4659
10819SOL    HW133356   1.818   2.333   6.765 -0.8309  1.3121 -0.5099
10819SOL    HW233357   1.676   2.405   6.799 -0.9205  0.0124  2.1493
10820SOL     OW33358   6.917   3.586   3.231 -0.2967 -0.5514 -0.0459
10820SOL    HW133359   6.853   3.645   3.281 -0.1545 -1.0414  0.7379
10820SOL    HW233360   7.010   3.619   3.247 -0.3285  0.0823 -1.0769
10821SOL     OW33361   6.665   3.138   5.196  0.0731 -0.2663  0.0682
10821SOL    HW133362   6.658   3.209   5.267 -0.1225 -0.3824  0.1645
10821SOL    HW233363   6.595   3.153   5.127 -0.3242 -0.6830  0.3727
10822SOL     OW33364   1.203   5.850   1.415 -0.3042  0.0177 -0.4950
10822SOL    HW133365   1.241   5.873   1.504  0.3099  0.2905 -0.8275
10822SOL    HW233366   1.156   5.761   1.421  1.6325 -1.0515 -0.4204
10823SOL     OW33367   3.809   3.006   0.217  0.1846  0.1559  0.1611
10823SOL    HW133368   3.802   2.938   0.144 -0.3612  1.2691 -0.8447
10823SOL    HW233369   3.776   3.094   0.185 -0.3904  0.6080  1.8646
10824SOL     OW33370   3.755   2.629   6.244  0.0778 -0.2741 -0.5392
10824SOL    HW133371   3.841   2.676   6.265  0.2452 -0.8498  0.1118
10824SOL    HW233372   3.682   2.696   6.234  0.0905  0.0862  1.4258
10825SOL     OW33373   4.170   2.081   2.628 -0.2938 -0.2301 -0.3062
10825SOL    HW133374   4.100   2.014   2.655  0.0180 -0.2167  0.5456
10825SOL    HW233375   4.244   2.034   2.580  0.5305 -0.7231  1.3690
10826SOL     OW33376   1.301   4.641   0.079  0.1663  0.1097 -0.7649
10826SOL    HW133377   1.335   4.700   0.153  0.4859 -1.4287  0.3592
10826SOL    HW233378   1.237   4.693   0.022  0.3900  1.5158  0.2109
10827SOL     OW33379   6.650   4.156   5.111 -0.2368 -0.5686 -0.0370
10827SOL    HW133380   6.655   4.233   5.174 -1.6813 -0.1558 -0.3893
10827SOL    HW233381   6.700   4.179   5.027 -1.8741  0.6392 -0.7481
10828SOL     OW33382   4.888   6.603   0.352  0.2113 -0.2475 -0.2148
10828SOL    HW133383   4.955   6.535   0.382  0.5155 -0.0499 -0.4402
10828SOL    HW233384   4.805   6.556   0.320  0.1365 -0.4796  0.3141
10829SOL     OW33385   0.340   3.409   1.680 -0.1695 -0.3093  0.2549
10829SOL    HW133386   0.353   3.499   1.722 -1.3680  0.4594 -0.9162
10829SOL    HW233387   0.246   3.402   1.645  0.5147 -1.2149 -1.5313
10830SOL     OW33388   6.620   0.761   4.831 -0.0460 -0.1285  0.0749
10830SOL    HW133389   6.630   0.677   4.884  0.6027  0.2597  0.5903
10830SOL    HW233390   6.708   0.784   4.789 -1.0191 -1.6653 -3.1127
10831SOL     OW33391   5.265   2.239   3.971 -0.3566 -0.0494  0.0505
10831SOL    HW133392   5.323   2.177   3.918  0.8338 -0.2678  1.5479
10831SOL    HW233393   5.220   2.303   3.909  0.5831 -0.6151 -1.2634
10832SOL     OW33394   6.386   3.076   3.957 -0.0416 -0.0884 -0.2050
10832SOL    HW133395   6.330   3.145   3.911 -3.6785 -1.3021  1.9909
10832SOL    HW233396   6.432   3.020   3.889 -0.7831  1.5595 -2.1600
10833SOL     OW33397   3.367   6.327   3.615 -1.1090 -0.4746 -0.2317
10833SOL    HW133398   3.407   6.418   3.625  2.0053 -1.5388 -1.6619
10833SOL    HW233399   3.372   6.279   3.702  0.5601 -0.4425 -0.2721
10834SOL     OW33400   6.513   2.497   5.510  0.2607 -0.4105 -0.1367
10834SOL    HW133401   6.606   2.515   5.479  0.2416  0.9022  0.4482
10834SOL    HW233402   6.512   2.494   5.610 -0.4744  0.7447 -0.0814
10835SOL     OW33403   1.647   0.868   2.280  0.8775  0.1923 -0.1872
10835SOL    HW133404   1.560   0.836   2.244  0.7064  0.5067 -0.0543
10835SOL    HW233405   1.720   0.805   2.252  0.6106 -0.0651 -0.3043
10836SOL     OW33406   0.715   0.446   1.874 -0.0389 -0.6645 -0.0952
10836SOL    HW133407   0.746   0.539   1.856 -1.1372 -0.6750 -2.4580
10836SOL    HW233408   0.667   0.443   1.962  1.2082  0.6511  0.6748
10837SOL     OW33409   1.243   5.535   1.158  0.5315 -0.6544  0.7583
10837SOL    HW133410   1.178   5.469   1.120  1.4235 -1.9494  1.4023
10837SOL    HW233411   1.280   5.500   1.244  2.4751 -0.2295  0.1410
10838SOL     OW33412   5.243   6.705   1.886  0.1753 -0.0549  0.3114
10838SOL    HW133413   5.251   6.804   1.901 -1.8484  0.1860  0.0503
10838SOL    HW233414   5.183   6.688   1.808  0.6702 -1.5024  0.2202
10839SOL     OW33415   1.215   2.933   1.223 -0.2030 -0.0766 -0.1070
10839SOL    HW133416   1.287   2.896   1.282 -2.1069 -2.7979  0.7235
10839SOL    HW233417   1.208   2.879   1.140 -0.8998  0.5217 -0.4534
10840SOL     OW33418   6.708   2.219   2.784 -0.3896 -0.1765 -0.1765
10840SOL    HW133419   6.717   2.306   2.833 -0.7158 -0.8391  1.1024
10840SOL    HW233420   6.792   2.200   2.734 -0.0123  0.4899  0.1867
10841SOL     OW33421   6.210   2.272   6.324 -0.3985  0.0363 -0.1501
10841SOL    HW133422   6.180   2.231   6.238 -1.2463  2.0859 -0.8955
10841SOL    HW233423   6.226   2.200   6.391  0.0334 -1.6061 -1.9196
10842SOL     OW33424   4.841   1.702   1.507  0.1525  0.5474 -0.2689
10842SOL    HW133425   4.779   1.715   1.584  0.3522 -1.9105  0.3838
10842SOL    HW233426   4.912   1.636   1.532  1.3923  1.1664 -1.9478
10843SOL     OW33427   1.654   2.306   0.980 -0.0981  0.6661  0.1619
10843SOL    HW133428   1.622   2.213   0.962  0.2860  0.7773 -1.2210
10843SOL    HW233429   1.753   2.310   0.968  0.2370  0.7550  2.5290
10844SOL     OW33430   3.425   0.173   3.638 -0.0331 -0.1114  0.2165
10844SOL    HW133431   3.374   0.104   3.585  0.0676 -1.9112  2.3203
10844SOL    HW233432   3.522   0.168   3.613 -0.0999 -0.3863 -0.0033
10845SOL     OW33433   3.767   3.319   1.369 -0.6940  0.1035  0.1107
10845SOL    HW133434   3.708   3.238   1.372  2.6609 -2.5215  2.0675
10845SOL    HW233435   3.790   3.348   1.462  0.0834  1.8874 -0.5831
10846SOL     OW33436   2.930   1.718   1.107 -0.2230 -0.1999  0.1910
10846SOL    HW133437   2.903   1.811   1.082  0.4424 -0.1988 -0.5864
10846SOL    HW233438   2.927   1.708   1.206  0.8097  1.0269  0.3831
10847SOL     OW33439   4.402   1.694   6.164  0.0119 -0.5393  0.4137
10847SOL    HW133440   4.494   1.685   6.125 -0.4093 -0.2321 -0.6599
10847SOL    HW233441   4.335   1.707   6.091 -0.7244  0.6306  1.2508
10848SOL     OW33442   3.559   0.949   1.952 -0.5317  0.3706 -0.0238
10848SOL    HW133443   3.613   0.924   2.031 -1.0743  0.8421  0.5128
10848SOL    HW233444   3.500   1.027   1.975 -1.6335 -0.2908 -0.4990
10849SOL     OW33445   1.117   4.092   4.332 -0.2046 -0.7538 -0.0870
10849SOL    HW133446   1.070   4.093   4.244  0.3869  0.3518 -0.3984
10849SOL    HW233447   1.058   4.134   4.401  0.0743  0.0930 -0.3541
10850SOL     OW33448   0.145   5.960   4.340 -0.1547 -0.0219  0.0323
10850SOL    HW133449   0.144   5.871   4.386 -0.8784  0.1556  0.3669
10850SOL    HW233450   0.058   6.006   4.354 -0.9677 -0.5493 -2.6635
10851SOL     OW33451   5.104   2.110   1.237 -0.3566 -0.2864 -0.0696
10851SOL    HW133452   5.046   2.105   1.318 -0.9251 -1.1526 -0.5083
10851SOL    HW233453   5.113   2.018   1.197  0.7995 -0.0572 -0.3740
10852SOL     OW33454   5.613   0.248   6.541 -0.2211 -0.0517  0.3960
10852SOL    HW133455   5.571   0.242   6.632 -0.6350  0.7248  0.2683
10852SOL    HW233456   5.617   0.344   6.513 -0.8685 -0.3490 -0.7561
10853SOL     OW33457   3.770   1.313   5.652  0.2646 -0.3813  0.3107
10853SOL    HW133458   3.856   1.329   5.700 -0.3344 -0.6302  1.5075
10853SOL    HW233459   3.693   1.339   5.711 -0.4793  1.4050 -1.3053
10854SOL     OW33460   5.189   4.853   5.050 -0.5066  0.0826 -0.1171
10854SOL    HW133461   5.281   4.844   5.011 -0.5517  0.2160 -0.2552
10854SOL    HW233462   5.196   4.890   5.142 -0.4644  0.7653 -0.3876
10855SOL     OW33463   0.037   6.817   6.818  0.6216  0.3811  0.4374
10855SOL    HW133464  -0.032   6.750   6.794  1.5123 -0.1858 -0.6162
10855SOL    HW233465   0.003   6.909   6.798 -1.0567  0.4184  2.9551
10856SOL     OW33466   4.686   5.388   0.444 -0.5141 -0.3807 -0.0542
10856SOL    HW133467   4.649   5.372   0.352 -1.5974 -1.8239  0.6137
10856SOL    HW233468   4.639   5.466   0.486 -0.0901  0.2156 -0.6524
10857SOL     OW33469   6.470   6.277   4.649 -0.1655 -0.2536 -0.4778
10857SOL    HW133470   6.439   6.285   4.744  2.2098  1.4033  0.2744
10857SOL    HW233471   6.460   6.183   4.618  0.1660 -1.1277  1.8698
10858SOL     OW33472   0.251   2.755   1.373 -0.1696 -0.3276 -0.3705
10858SOL    HW133473   0.214   2.848   1.372 -0.7495 -0.5411 -1.7245
10858SOL    HW233474   0.234   2.713   1.462 -2.6968 -0.1742 -0.6895
10859SOL     OW33475   0.760   4.333   2.793 -0.4527 -0.2795  0.1878
10859SOL    HW133476   0.809   4.410   2.834 -0.2581 -0.5372  0.4466
10859SOL    HW233477   0.682   4.366   2.742  0.1309  0.1600 -0.4385
10860SOL     OW33478   4.754   1.451   3.840 -0.7296 -0.6763  0.9476
10860SOL    HW133479   4.747   1.548   3.815  1.5341 -0.8309 -0.5964
10860SOL    HW233480   4.662   1.412   3.847 -1.6660  0.9650 -0.9912
10861SOL     OW33481   2.857   5.782   0.988  0.0098 -0.0231 -0.4164
10861SOL    HW133482   2.807   5.710   0.941  1.3732 -1.9801  0.9866
10861SOL    HW233483   2.955   5.773   0.969  0.1863  1.7134 -0.5101
10862SOL     OW33484   3.643   5.551   0.089 -0.4643  0.4004  0.0849
10862SOL    HW133485   3.558   5.499   0.089  0.7090 -1.6689 -1.6938
10862SOL    HW233486   3.718   5.493   0.057  1.8459  1.8560  2.4193
10863SOL     OW33487   5.422   1.914   4.125  0.2046  0.4346 -0.0782
10863SOL    HW133488   5.415   1.858   4.043 -0.6863  0.0405  0.2531
10863SOL    HW233489   5.509   1.965   4.124 -0.7125  2.1002 -2.2939
10864SOL     OW33490   3.832   3.663   2.790 -0.6947 -0.4335 -0.1885
10864SOL    HW133491   3.848   3.665   2.889  1.3324  0.2678 -0.4823
10864SOL    HW233492   3.874   3.581   2.751  2.4851  1.3924 -0.9687
10865SOL     OW33493   3.999   0.728   4.632  0.0764  0.3331 -0.0165
10865SOL    HW133494   3.923   0.774   4.585 -1.6984 -1.7213  0.6482
10865SOL    HW233495   4.039   0.660   4.571  0.8646  0.8542 -0.0871
10866SOL     OW33496   6.190   2.711   6.417 -0.2444  0.6742 -0.4787
10866SOL    HW133497   6.120   2.728   6.486  1.5500  1.6554  1.2081
10866SOL    HW233498   6.243   2.630   6.443  1.2390  1.7675  0.0310
10867SOL     OW33499   6.019   3.462   6.658  0.2654 -0.8586  0.4084
10867SOL    HW133500   6.037   3.534   6.724 -0.8190 -0.6377  0.4790
10867SOL    HW233501   6.106   3.421   6.629  1.0309  1.4234 -0.7302
10868SOL     OW33502   7.010   6.971   4.292  0.1091 -0.7210  0.2629
10868SOL    HW133503   6.949   7.046   4.315 -1.2898 -1.8586  0.3879
10868SOL    HW233504   7.032   6.919   4.374 -0.5184 -1.5873 -0.1020
10869NA      NA33505   6.915   1.700   6.642 -0.0919  0.0164 -0.4269
10870NA      NA33506   4.622   4.963   4.504  0.4072  0.0729 -0.0808
10871NA      NA33507   1.295   4.187   2.884  0.6367 -0.5693  0.0376
10872NA      NA33508   4.877   4.593   3.294 -0.3939 -0.0431  0.4387
10873NA      NA33509   4.340   2.500   5.259 -0.0001 -0.0957 -0.3391
10874NA      NA33510   2.246   3.375   6.013  0.3373 -0.1718  0.2647
10875NA      NA33511   2.362   5.765   1.380 -0.3712 -0.3608  0.3093
10876NA      NA33512   3.544   4.413   1.341  0.7932  0.4216  0.6346
10877NA      NA33513   6.844   3.752   0.749  0.2453 -0.2542 -0.2916
10878NA      NA33514   3.667   1.753   0.857  0.2761  0.2294 -0.2404
10879NA      NA33515   4.125   6.242   1.509 -0.0095  0.2735  0.1348
10880NA      NA33516   1.174   0.638   3.759  0.3260 -0.1279 -0.2252
10881NA      NA33517   4.493   0.097   2.478 -0.2123 -0.3421  0.0203
10882NA      NA33518   4.798   4.400   5.691 -0.1750 -0.0226 -0.2896
   7.02242   7.02242   7.02242
