CNT in water
33518
    1C        C    1   2.846   2.768   4.750  0.9786  0.6043  0.3033
    1C        C    2   2.894   2.712   4.870 -0.0846  0.0619  0.4877
    1C        C    3   2.845   2.770   4.988 -0.7770  0.3796  0.0552
    1C        C    4   2.849   2.769   4.260 -0.0473 -0.2549  0.1369
    1C        C    5   2.894   2.717   4.384 -0.4918 -0.3336  0.2668
    1C        C    6   2.846   2.770   4.506 -0.1266  0.0020  0.2675
    1C        C    7   3.015   2.642   4.624  0.0909 -0.0067  0.0977
    1C        C    8   2.896   2.719   4.627  0.0823 -0.0226  0.1726
    1C        C    9   3.073   2.601   4.746  0.0118  0.1455  0.1894
    1C        C   10   3.010   2.633   4.868 -0.3640 -0.3456  0.1296
    1C        C   11   3.187   2.496   4.977  0.3607  0.3591  0.2062
    1C        C   12   3.065   2.566   4.978  0.1978  0.0815  0.1114
    1C        C   13   2.846   2.766   3.773 -0.1454 -0.1351  0.4547
    1C        C   14   2.896   2.712   3.893  0.1346 -0.4175  0.2133
    1C        C   15   2.847   2.763   4.016  0.8072  0.6208  0.0565
    1C        C   16   3.016   2.639   4.138 -0.0134 -0.2770  0.0213
    1C        C   17   2.898   2.717   4.139  0.2182  0.0751  0.1017
    1C        C   18   3.079   2.611   4.261 -0.3073 -0.3332  0.1554
    1C        C   19   3.015   2.644   4.382 -0.2157  0.1224  0.0780
    1C        C   20   3.207   2.550   4.502 -0.0523  0.1178  0.0922
    1C        C   21   3.080   2.611   4.503 -0.0476  0.1276 -0.0113
    1C        C   22   3.274   2.521   4.623  0.0367 -0.2960 -0.0581
    1C        C   23   3.205   2.546   4.743 -0.3753 -0.7940 -0.1853
    1C        C   24   3.412   2.484   4.862  0.0162  0.1850 -0.0656
    1C        C   25   3.270   2.502   4.861 -0.0037  0.0215 -0.0751
    1C        C   26   3.487   2.475   4.980 -0.0079  0.1753 -0.0516
    1C        C   27   2.848   2.766   3.284 -0.3589 -0.1564 -0.2821
    1C        C   28   2.903   2.719   3.406 -0.4048  0.1863 -0.1335
    1C        C   29   2.850   2.769   3.527  0.3742  0.0602  0.2570
    1C        C   30   3.013   2.636   3.647  0.0086  0.1626 -0.0232
    1C        C   31   2.902   2.723   3.650 -0.1524 -0.0614  0.4290
    1C        C   32   3.073   2.599   3.770  0.3590  0.5217 -0.0852
    1C        C   33   3.012   2.632   3.893  0.0950 -0.4706  0.0554
    1C        C   34   3.208   2.553   4.013  0.3269  0.3674  0.0516
    1C        C   35   3.076   2.603   4.015 -0.0172 -0.5375  0.0970
    1C        C   36   3.276   2.534   4.135  0.1185  0.0352  0.1113
    1C        C   37   3.208   2.555   4.258 -0.0641  0.2454 -0.0280
    1C        C   38   3.415   2.514   4.377 -0.1261  0.2084  0.2794
    1C        C   39   3.276   2.533   4.380 -0.0978  0.4378  0.0237
    1C        C   40   3.485   2.499   4.499  0.3530 -0.1982 -0.0399
    1C        C   41   3.413   2.493   4.620  0.1206  0.1298 -0.1617
    1C        C   42   3.628   2.480   4.742  0.0269 -0.1477  0.3033
    1C        C   43   3.486   2.479   4.740  0.0245  0.4232 -0.0703
    1C        C   44   3.702   2.482   4.862  0.3885 -0.0986  0.0813
    1C        C   45   3.625   2.469   4.979 -0.0189 -0.0652 -0.1798
    1C        C   46   2.836   2.748   2.794 -0.5855 -0.4620  0.1849
    1C        C   47   2.896   2.711   2.916  0.0631 -0.3290 -0.0950
    1C        C   48   2.844   2.761   3.037 -0.3378 -0.4600 -0.2170
    1C        C   49   3.007   2.629   3.158  0.1728  0.2840  0.1076
    1C        C   50   2.895   2.715   3.161 -0.2989 -0.3232 -0.1865
    1C        C   51   3.073   2.596   3.278  0.0026  0.3162  0.2069
    1C        C   52   3.016   2.635   3.401  0.2278  1.0138  0.0927
    1C        C   53   3.200   2.538   3.526  0.3601  0.8895  0.0642
    1C        C   54   3.071   2.595   3.525  0.2008  0.5260 -0.0506
    1C        C   55   3.270   2.521   3.648  0.4609  0.3145 -0.0738
    1C        C   56   3.205   2.550   3.770  0.2273  0.1692 -0.1649
    1C        C   57   3.416   2.514   3.891  0.0676  0.2675  0.2308
    1C        C   58   3.276   2.535   3.890  0.0493  0.1266 -0.0662
    1C        C   59   3.486   2.510   4.014 -0.1864 -0.1922  0.3592
    1C        C   60   3.414   2.506   4.135  0.0714 -0.2090  0.5109
    1C        C   61   3.627   2.496   4.259  0.2017  0.1494 -0.1296
    1C        C   62   3.486   2.500   4.256  0.1912  0.2438  0.4620
    1C        C   63   3.699   2.501   4.380  0.4203 -0.2574 -0.2441
    1C        C   64   3.626   2.497   4.501  0.3656  0.4423 -0.2548
    1C        C   65   3.834   2.539   4.619 -0.4469  0.6936 -0.0349
    1C        C   66   3.700   2.496   4.621 -0.3029  0.2642  0.1577
    1C        C   67   3.902   2.565   4.740 -0.1363  0.7229 -0.2158
    1C        C   68   3.835   2.529   4.859  0.3493 -0.0067 -0.1529
    1C        C   69   4.048   2.580   4.974  0.1753  0.0717  0.0503
    1C        C   70   3.920   2.523   4.969  0.0472  0.3558  0.1021
    1C        C   71   2.822   2.732   2.310 -0.2579 -0.9050 -0.0643
    1C        C   72   2.882   2.690   2.431 -0.4945 -0.7470  0.1057
    1C        C   73   2.829   2.742   2.551 -0.5527 -0.1404 -0.1821
    1C        C   74   3.004   2.619   2.672 -0.4020  0.4514  0.1099
    1C        C   75   2.889   2.701   2.672 -0.6186  0.1417 -0.0579
    1C        C   76   3.066   2.583   2.794 -0.0868  0.3363 -0.0908
    1C        C   77   3.008   2.624   2.916 -0.0663 -0.4915  0.1965
    1C        C   78   3.200   2.537   3.035  0.1883  0.0806  0.3421
    1C        C   79   3.071   2.592   3.038  0.0858 -0.1592  0.2008
    1C        C   80   3.272   2.526   3.156  0.0445 -0.3416  0.3895
    1C        C   81   3.206   2.548   3.279 -0.0659  0.1323  0.2438
    1C        C   82   3.408   2.500   3.402  0.1435 -0.4832 -0.2283
    1C        C   83   3.268   2.523   3.403  0.2501  0.1725  0.0922
    1C        C   84   3.480   2.494   3.523  0.0572 -0.1758 -0.1614
    1C        C   85   3.410   2.507   3.645  0.3865 -0.4636  0.0564
    1C        C   86   3.623   2.504   3.770  0.0305  0.5995  0.3021
    1C        C   87   3.482   2.504   3.767  0.0206 -0.5586  0.2713
    1C        C   88   3.696   2.506   3.891  0.0316  0.5180  0.3010
    1C        C   89   3.627   2.501   4.015 -0.1549  0.3110  0.1885
    1C        C   90   3.833   2.550   4.133  0.4151 -0.2116  0.0542
    1C        C   91   3.697   2.511   4.137  0.3112  0.1507 -0.0634
    1C        C   92   3.901   2.568   4.255  0.2956  0.0808  0.0742
    1C        C   93   3.834   2.543   4.376  0.4110 -0.2033  0.0745
    1C        C   94   4.026   2.632   4.496 -0.2967  0.7251  0.0748
    1C        C   95   3.903   2.562   4.498  0.2305 -0.2023  0.1745
    1C        C   96   4.089   2.668   4.617 -0.1846  0.4370  0.0981
    1C        C   97   4.030   2.626   4.739 -0.0561  0.5640  0.2019
    1C        C   98   4.183   2.768   4.863 -0.0029  0.3745  0.0347
    1C        C   99   4.096   2.654   4.862  0.1456  0.2599  0.1608
    1C        C  100   4.213   2.841   4.979 -0.1177  0.7028 -0.1419
    1C        C  101   2.826   2.732   2.070 -0.0170 -0.1317 -0.2457
    1C        C  102   2.987   2.589   2.191  0.0201  0.0183 -0.0210
    1C        C  103   2.874   2.677   2.189 -0.4995 -0.6494 -0.2846
    1C        C  104   3.062   2.571   2.311 -0.2657 -0.0425  0.1463
    1C        C  105   2.999   2.610   2.431 -0.5022 -0.7527  0.2562
    1C        C  106   3.199   2.533   2.550 -0.1102  0.4545 -0.1853
    1C        C  107   3.068   2.586   2.551 -0.2129  0.1868  0.2868
    1C        C  108   3.267   2.513   2.672  0.0784  0.9301 -0.2155
    1C        C  109   3.197   2.530   2.794  0.0912  0.7799 -0.1908
    1C        C  110   3.409   2.493   2.916 -0.2033  0.8316 -0.0708
    1C        C  111   3.270   2.517   2.914 -0.2001  0.8426 -0.0097
    1C        C  112   3.483   2.500   3.036  0.2496  0.2598 -0.3108
    1C        C  113   3.412   2.508   3.158  0.1449  0.3411 -0.3780
    1C        C  114   3.622   2.502   3.281 -0.0075 -0.5190 -0.2392
    1C        C  115   3.481   2.502   3.281 -0.0086 -0.0812 -0.3147
    1C        C  116   3.690   2.508   3.404 -0.4070 -0.1312 -0.0343
    1C        C  117   3.621   2.498   3.527  0.0550 -0.4091  0.2064
    1C        C  118   3.831   2.539   3.645 -0.1970  0.5706 -0.2795
    1C        C  119   3.693   2.508   3.647 -0.0259 -0.1856  0.2351
    1C        C  120   3.898   2.568   3.765 -0.0859  0.7678 -0.3897
    1C        C  121   3.830   2.548   3.888  0.1314  0.1527 -0.3679
    1C        C  122   4.026   2.632   4.012 -0.0331 -0.2684 -0.0864
    1C        C  123   3.897   2.575   4.009 -0.0696 -0.1721 -0.1888
    1C        C  124   4.092   2.663   4.133 -0.2482 -0.0294 -0.0335
    1C        C  125   4.027   2.633   4.254  0.1499  0.3610  0.2800
    1C        C  126   4.196   2.762   4.374  0.6357 -0.1244 -0.0882
    1C        C  127   4.088   2.672   4.376  0.2535  0.3420  0.2309
    1C        C  128   4.243   2.815   4.496  0.0112 -0.0379  0.1141
    1C        C  129   4.191   2.766   4.618 -0.2360  0.4872  0.2217
    1C        C  130   4.319   2.933   4.736  0.7422  0.0716 -0.0534
    1C        C  131   4.237   2.817   4.741 -0.1458  0.6994  0.1002
    1C        C  132   4.351   3.004   4.854 -0.1506  0.3185  0.0490
    1C        C  133   4.289   2.958   4.971  0.1773  0.5458  0.3144
    1C        C  134   3.172   2.473   2.076  0.1567  0.0010  0.2735
    1C        C  135   3.036   2.505   2.086  0.0721 -0.3825  0.3276
    1C        C  136   3.257   2.481   2.187 -0.0045  0.5123  0.3611
    1C        C  137   3.194   2.520   2.307 -0.0881  0.4040  0.3498
    1C        C  138   3.404   2.484   2.426  0.1994 -0.4610  0.2970
    1C        C  139   3.265   2.509   2.428  0.3103  0.1895  0.0965
    1C        C  140   3.477   2.487   2.548  0.1038 -0.0209  0.3418
    1C        C  141   3.408   2.500   2.670  0.0478  0.5437  0.2540
    1C        C  142   3.618   2.499   2.792  0.3050  0.2127 -0.1169
    1C        C  143   3.477   2.490   2.793  0.2501  1.0576  0.1774
    1C        C  144   3.693   2.507   2.912  0.1986  0.7332 -0.0841
    1C        C  145   3.624   2.506   3.035  0.2672 -0.1662 -0.0492
    1C        C  146   3.831   2.535   3.157  0.2281 -0.0809  0.1251
    1C        C  147   3.693   2.508   3.159  0.2956 -0.4350 -0.0598
    1C        C  148   3.897   2.555   3.280  0.1662 -0.7243  0.2615
    1C        C  149   3.829   2.536   3.402 -0.3376 -0.4670  0.0198
    1C        C  150   4.025   2.621   3.521  0.0447 -0.2700  0.0632
    1C        C  151   3.900   2.555   3.523  0.0969 -0.3802 -0.2503
    1C        C  152   4.085   2.663   3.642  0.1644 -0.0474 -0.0713
    1C        C  153   4.024   2.631   3.766  0.3585 -0.1121  0.0068
    1C        C  154   4.193   2.757   3.885 -0.4652  0.7802  0.1756
    1C        C  155   4.079   2.674   3.889 -0.5150  0.8473  0.0738
    1C        C  156   4.245   2.807   4.006 -0.2183  0.4160  0.2148
    1C        C  157   4.198   2.757   4.130 -0.4169  0.1614  0.0339
    1C        C  158   4.332   2.922   4.252  0.0070  0.3569 -0.1860
    1C        C  159   4.247   2.809   4.251 -0.2379  0.5409 -0.2024
    1C        C  160   4.375   2.982   4.372  0.3645 -0.1484 -0.0629
    1C        C  161   4.331   2.926   4.494  0.7514 -0.6270 -0.1460
    1C        C  162   4.427   3.117   4.615 -0.1148  0.0947  0.0175
    1C        C  163   4.357   2.994   4.615  0.5310 -0.2794 -0.2977
    1C        C  164   4.458   3.187   4.733  0.5999 -0.1452 -0.0245
    1C        C  165   4.425   3.124   4.855  0.1245  0.1505 -0.0024
    1C        C  166   4.512   3.323   4.968  0.1810  0.4630  0.2544
    1C        C  167   4.476   3.189   4.968  0.1635  0.4662 -0.2010
    1C        C  168   3.476   2.436   2.072 -0.1886 -0.0950  0.2634
    1C        C  169   3.397   2.459   2.185 -0.0485  0.2449  0.2917
    1C        C  170   3.614   2.473   2.302  0.2406 -0.5526 -0.2148
    1C        C  171   3.472   2.462   2.304  0.1764  0.2739  0.1479
    1C        C  172   3.686   2.491   2.422 -0.1849  0.1272 -0.0538
    1C        C  173   3.618   2.489   2.546  0.0984 -0.0273  0.1000
    1C        C  174   3.823   2.537   2.665  0.4813 -0.7022 -0.1322
    1C        C  175   3.687   2.500   2.668  0.4488 -0.5652 -0.0469
    1C        C  176   3.894   2.554   2.786  0.5472 -0.7131 -0.1719
    1C        C  177   3.832   2.529   2.910  0.3848 -0.3795 -0.1863
    1C        C  178   4.019   2.620   3.030 -0.0455 -0.0276 -0.1602
    1C        C  179   3.898   2.548   3.033 -0.0312 -0.0433 -0.0123
    1C        C  180   4.081   2.655   3.153 -0.4347 -0.2470  0.0981
    1C        C  181   4.024   2.616   3.276 -0.1432 -0.0714  0.2880
    1C        C  182   4.187   2.754   3.396 -0.1662  0.3511 -0.2175
    1C        C  183   4.082   2.659   3.398 -0.1693  0.3578  0.1509
    1C        C  184   4.238   2.805   3.517 -0.1771  0.1352 -0.1198
    1C        C  185   4.192   2.755   3.641 -0.1322  0.3012 -0.0352
    1C        C  186   4.329   2.918   3.763 -0.1330  0.0582  0.0616
    1C        C  187   4.244   2.805   3.762  0.0561 -0.0841  0.0474
    1C        C  188   4.365   2.978   3.886 -0.0071  0.2513 -0.0712
    1C        C  189   4.328   2.921   4.009 -0.2781  0.4648 -0.0560
    1C        C  190   4.431   3.109   4.126  0.2868  0.3958  0.2556
    1C        C  191   4.370   2.982   4.129 -0.3965  0.7101 -0.1407
    1C        C  192   4.458   3.175   4.248  0.7257  0.2783  0.2193
    1C        C  193   4.436   3.109   4.371  0.3806 -0.1588 -0.0752
    1C        C  194   4.497   3.315   4.489 -0.3187 -0.1494  0.1718
    1C        C  195   4.461   3.178   4.492  0.8585 -0.4671 -0.0012
    1C        C  196   4.510   3.390   4.608 -0.7525  0.2371 -0.0244
    1C        C  197   4.506   3.321   4.731  0.6400 -0.1650 -0.1858
    1C        C  198   4.551   3.535   4.847  0.3951 -0.2073  0.1568
    1C        C  199   4.538   3.392   4.849  0.3880 -0.2084 -0.0920
    1C        C  200   4.587   3.621   4.956 -0.2378  0.2164  0.0314
    1C        C  201   3.615   2.425   2.068 -0.1827  0.0535  0.0132
    1C        C  202   3.827   2.510   2.179  0.1571  0.2599  0.0748
    1C        C  203   3.690   2.469   2.182  0.3018 -0.2462 -0.1864
    1C        C  204   3.890   2.546   2.302  0.3295 -0.4330  0.1935
    1C        C  205   3.822   2.530   2.424 -0.0448 -0.3615 -0.0048
    1C        C  206   4.020   2.618   2.542  0.2816 -0.4543 -0.0913
    1C        C  207   3.889   2.564   2.543  0.1246 -0.0741 -0.1852
    1C        C  208   4.080   2.656   2.664  0.2601 -0.4737 -0.0770
    1C        C  209   4.020   2.618   2.786  0.3204 -0.2674  0.0153
    1C        C  210   4.189   2.745   2.908 -0.0231  0.2243  0.4313
    1C        C  211   4.081   2.653   2.908  0.3442 -0.2104 -0.0136
    1C        C  212   4.238   2.801   3.028  0.1542  0.2750  0.3359
    1C        C  213   4.186   2.749   3.148 -0.8191  0.1742 -0.1228
    1C        C  214   4.316   2.914   3.271  0.0029 -0.0104  0.1352
    1C        C  215   4.234   2.799   3.271 -0.3494  0.2355 -0.3299
    1C        C  216   4.356   2.973   3.393  0.0362 -0.0862  0.1632
    1C        C  217   4.321   2.919   3.518 -0.0454  0.0399  0.1963
    1C        C  218   4.427   3.103   3.638 -0.0113  0.1413  0.1763
    1C        C  219   4.361   2.979   3.640  0.0209  0.1229  0.1345
    1C        C  220   4.459   3.168   3.759  0.5115  0.1900  0.0147
    1C        C  221   4.426   3.105   3.881  0.2662  0.1195 -0.0887
    1C        C  222   4.497   3.307   3.998 -0.1041  0.0925 -0.0501
    1C        C  223   4.454   3.172   4.002 -0.3892  0.1884  0.0242
    1C        C  224   4.507   3.377   4.120  0.4168  0.1984 -0.1548
    1C        C  225   4.500   3.309   4.244  0.1439  0.4517 -0.0332
    1C        C  226   4.516   3.522   4.361  0.2621  0.0407  0.2111
    1C        C  227   4.514   3.381   4.365 -0.4456  0.0545  0.2658
    1C        C  228   4.508   3.596   4.481  0.1531 -0.0786  0.2742
    1C        C  229   4.524   3.530   4.605  0.1251  0.1635  0.4036
    1C        C  230   4.499   3.743   4.723  0.7669  0.2778  0.1123
    1C        C  231   4.523   3.603   4.726  0.8721  0.3006  0.3298
    1C        C  232   4.498   3.819   4.842 -0.2039 -0.0736  0.3378
    1C        C  233   4.554   3.757   4.955  0.3252  0.3594  0.3187
    1C        C  234   4.020   2.601   2.064 -0.0587  0.3713 -0.0893
    1C        C  235   3.899   2.533   2.061  0.1182  0.0492  0.0108
    1C        C  236   4.082   2.648   2.180 -0.1910  0.3073  0.0060
    1C        C  237   4.018   2.607   2.299  0.1382 -0.0385  0.0643
    1C        C  238   4.196   2.733   2.421  0.3033 -0.1776  0.1262
    1C        C  239   4.081   2.649   2.418  0.4417 -0.3601  0.0144
    1C        C  240   4.248   2.783   2.542 -0.2734  0.2507  0.1997
    1C        C  241   4.196   2.736   2.665  0.1866 -0.3711  0.1590
    1C        C  242   4.336   2.898   2.783 -0.3762 -0.0426 -0.1414
    1C        C  243   4.244   2.790   2.786  0.0327 -0.3857  0.2270
    1C        C  244   4.373   2.961   2.904  0.1179 -0.3267 -0.1371
    1C        C  245   4.328   2.910   3.027  0.1560  0.2762  0.1314
    1C        C  246   4.434   3.092   3.147 -0.3551  0.3271  0.0702
    1C        C  247   4.364   2.969   3.150  0.3679 -0.0849  0.2449
    1C        C  248   4.450   3.161   3.269  0.4563 -0.2151  0.2790
    1C        C  249   4.419   3.100   3.393  0.6499 -0.3862  0.2462
    1C        C  250   4.480   3.305   3.512  0.1902 -0.0229 -0.1879
    1C        C  251   4.446   3.168   3.513  0.4387 -0.0836  0.1264
    1C        C  252   4.500   3.375   3.633  0.3081  0.0683 -0.2590
    1C        C  253   4.496   3.305   3.755  0.1027  0.2962 -0.1341
    1C        C  254   4.503   3.518   3.877  0.3786  0.0557 -0.0961
    1C        C  255   4.506   3.377   3.876  0.5401  0.0585 -0.0270
    1C        C  256   4.507   3.589   3.999  0.3788  0.0817 -0.1134
    1C        C  257   4.507   3.518   4.121  0.2757  0.1951 -0.0486
    1C        C  258   4.485   3.734   4.240  0.9007 -0.0332  0.1140
    1C        C  259   4.501   3.593   4.240  0.0072 -0.1341  0.1422
    1C        C  260   4.466   3.805   4.360  1.0337  0.0230  0.1006
    1C        C  261   4.479   3.734   4.481 -0.0811 -0.1285  0.1435
    1C        C  262   4.422   3.941   4.604  0.0514  0.0173 -0.1438
    1C        C  263   4.470   3.808   4.601 -0.4325 -0.1687  0.1422
    1C        C  264   4.398   4.009   4.726 -0.4639  0.1810 -0.3353
    1C        C  265   4.433   3.945   4.846  0.0946  0.1147 -0.5301
    1C        C  266   4.315   4.131   4.957  0.4306  0.1083 -0.1359
    1C        C  267   4.379   4.008   4.959  0.4412  0.1097 -0.3590
    1C        C  268   4.260   2.775   2.064  0.1157 -0.3301 -0.2532
    1C        C  269   4.199   2.727   2.180 -0.4445  0.6834 -0.1189
    1C        C  270   4.340   2.891   2.299 -0.3415  0.1882  0.0202
    1C        C  271   4.254   2.778   2.300 -0.0492 -0.0351  0.0085
    1C        C  272   4.382   2.951   2.420  0.5693 -0.1866 -0.0983
    1C        C  273   4.340   2.890   2.540  0.2882 -0.2343 -0.2185
    1C        C  274   4.439   3.081   2.663  0.0573 -0.2288  0.4412
    1C        C  275   4.377   2.954   2.660 -0.3353 -0.0321 -0.1254
    1C        C  276   4.470   3.150   2.782 -0.3010  0.4729  0.1388
    1C        C  277   4.443   3.083   2.904 -0.4780  0.0232 -0.1396
    1C        C  278   4.500   3.291   3.023  0.0241 -0.1117 -0.1952
    1C        C  279   4.467   3.154   3.024 -0.4447 -0.0036 -0.1260
    1C        C  280   4.510   3.362   3.144 -0.6951  0.1840 -0.2974
    1C        C  281   4.480   3.299   3.267 -0.2956 -0.0525 -0.3144
    1C        C  282   4.502   3.512   3.387  0.4757 -0.1682  0.0333
    1C        C  283   4.494   3.371   3.388 -0.0829 -0.1414 -0.2822
    1C        C  284   4.507   3.585   3.508  0.2547  0.1222 -0.1301
    1C        C  285   4.507   3.516   3.631  0.2661  0.0719 -0.1572
    1C        C  286   4.484   3.726   3.749  0.0034 -0.1124 -0.1659
    1C        C  287   4.503   3.586   3.754  1.2089  0.0483 -0.1045
    1C        C  288   4.467   3.793   3.872  0.3096 -0.0310 -0.1686
    1C        C  289   4.491   3.730   3.996  0.3643  0.0779 -0.1242
    1C        C  290   4.420   3.932   4.116  0.5907 -0.1549 -0.0369
    1C        C  291   4.471   3.800   4.117  0.3561 -0.2447  0.0634
    1C        C  292   4.398   4.003   4.236  0.2794  0.0361 -0.2077
    1C        C  293   4.427   3.941   4.360  0.0525 -0.2499 -0.2962
    1C        C  294   4.330   4.130   4.477 -0.0092 -0.2041 -0.1603
    1C        C  295   4.398   4.006   4.482 -0.4612 -0.4603 -0.3033
    1C        C  296   4.287   4.192   4.597 -0.0918  0.2848 -0.4416
    1C        C  297   4.328   4.133   4.718 -0.1726  0.3456 -0.3847
    1C        C  298   4.206   4.317   4.833  0.0018 -0.0421 -0.0083
    1C        C  299   4.285   4.197   4.837  0.0651 -0.0029 -0.1077
    1C        C  300   4.175   4.408   4.939 -0.1295 -0.0498 -0.0392
    1C        C  301   4.347   2.884   2.063 -0.2165 -0.0559  0.2627
    1C        C  302   4.463   3.072   2.177 -0.4813  0.2658  0.1017
    1C        C  303   4.394   2.946   2.179  0.2145 -0.1217  0.1251
    1C        C  304   4.479   3.142   2.300  0.2357  0.0972  0.1103
    1C        C  305   4.442   3.078   2.420 -0.0607  0.1150  0.0313
    1C        C  306   4.506   3.281   2.538  0.3653 -0.4834 -0.1052
    1C        C  307   4.475   3.143   2.541 -0.1128 -0.3764  0.3117
    1C        C  308   4.516   3.354   2.658  0.0205 -0.1200 -0.2917
    1C        C  309   4.505   3.287   2.782 -0.2040  0.4522  0.0134
    1C        C  310   4.518   3.502   2.898  1.1653  0.3257 -0.4228
    1C        C  311   4.516   3.361   2.901  0.0974  0.3377  0.0662
    1C        C  312   4.513   3.574   3.020  0.7776 -0.1519 -0.1443
    1C        C  313   4.507   3.503   3.141 -0.0780  0.2102  0.0408
    1C        C  314   4.489   3.717   3.264  0.2421  0.0689 -0.0731
    1C        C  315   4.504   3.576   3.262  0.2429  0.0623  0.1449
    1C        C  316   4.477   3.792   3.383  0.0745  0.2632 -0.2114
    1C        C  317   4.491   3.725   3.507  0.6829  0.1730 -0.3278
    1C        C  318   4.432   3.931   3.626  0.7866  0.0010 -0.2102
    1C        C  319   4.474   3.796   3.627  0.4610 -0.1008 -0.1965
    1C        C  320   4.406   3.994   3.750  0.2412 -0.1446 -0.2507
    1C        C  321   4.429   3.929   3.873 -0.4393 -0.2350 -0.1660
    1C        C  322   4.331   4.121   3.988  0.4097 -0.1450 -0.4269
    1C        C  323   4.396   3.996   3.993  0.5023 -0.0821  0.0186
    1C        C  324   4.282   4.176   4.109 -0.4027 -0.7508 -0.4797
    1C        C  325   4.326   4.125   4.233  0.3304  0.0614 -0.3992
    1C        C  326   4.189   4.287   4.353  0.0269 -0.2458 -0.0581
    1C        C  327   4.290   4.187   4.355 -0.3144 -0.5983 -0.2457
    1C        C  328   4.134   4.340   4.471 -0.0436  0.3672 -0.3619
    1C        C  329   4.189   4.294   4.593 -0.3227  0.0663 -0.3486
    1C        C  330   4.027   4.436   4.710 -0.3100 -0.6170 -0.0365
    1C        C  331   4.145   4.357   4.711 -0.1454 -0.3687 -0.0446
    1C        C  332   3.970   4.490   4.828  0.2205  0.2406 -0.1666
    1C        C  333   4.055   4.480   4.939 -0.2569 -0.2646  0.1531
    1C        C  334   4.553   3.269   2.060 -0.4139  0.1128  0.1876
    1C        C  335   4.526   3.132   2.064 -0.5059  0.1256  0.0138
    1C        C  336   4.539   3.348   2.175 -0.0892  0.1710  0.1903
    1C        C  337   4.509   3.281   2.296 -0.2841  0.2138  0.1693
    1C        C  338   4.516   3.494   2.411 -0.2036  0.0826  0.0568
    1C        C  339   4.514   3.353   2.417  0.5454  0.0706  0.2278
    1C        C  340   4.517   3.568   2.531  0.2968  0.1215  0.0342
    1C        C  341   4.519   3.496   2.652 -0.1519 -0.1014 -0.0837
    1C        C  342   4.494   3.708   2.774 -0.3506  0.4021 -0.0821
    1C        C  343   4.514   3.568   2.774 -0.5064  0.3751 -0.3730
    1C        C  344   4.480   3.781   2.894  0.6273  0.0782  0.2456
    1C        C  345   4.493   3.714   3.018  1.4342 -0.0451  0.1065
    1C        C  346   4.431   3.916   3.137  0.4318  0.0742 -0.0616
    1C        C  347   4.474   3.782   3.140  0.3793  0.0541 -0.0998
    1C        C  348   4.401   3.984   3.257 -0.3762  0.1087 -0.2790
    1C        C  349   4.428   3.924   3.382  0.7448  0.5143 -0.3162
    1C        C  350   4.327   4.112   3.499  0.3590 -0.0426  0.1465
    1C        C  351   4.401   3.992   3.503  0.6033  0.1005 -0.1145
    1C        C  352   4.281   4.163   3.622  0.3950 -0.0555  0.1624
    1C        C  353   4.323   4.109   3.745  0.2144 -0.1464  0.1818
    1C        C  354   4.182   4.269   3.863 -0.1500  0.1536  0.0183
    1C        C  355   4.281   4.169   3.865 -0.2725  0.0321 -0.0799
    1C        C  356   4.128   4.316   3.985 -0.2788 -0.0418  0.0341
    1C        C  357   4.184   4.277   4.109 -0.1459 -0.5020 -0.1710
    1C        C  358   4.016   4.406   4.226  0.3994  0.0527  0.0903
    1C        C  359   4.133   4.327   4.230  0.2572 -0.1680 -0.1378
    1C        C  360   3.953   4.449   4.345 -0.2033  0.0099 -0.2143
    1C        C  361   4.015   4.416   4.467 -0.3192 -0.0458 -0.1720
    1C        C  362   3.824   4.506   4.589 -0.1201 -0.1265 -0.0662
    1C        C  363   3.956   4.456   4.589 -0.0149  0.1563 -0.0907
    1C        C  364   3.762   4.547   4.709 -0.1117 -0.3269  0.0036
    1C        C  365   3.837   4.537   4.828  0.0901 -0.1358 -0.1094
    1C        C  366   3.630   4.590   4.948  0.3037  0.0379 -0.0172
    1C        C  367   3.768   4.570   4.945  0.3458  0.3327 -0.0903
    1C        C  368   4.512   3.563   2.052 -0.2752  0.3026 -0.1325
    1C        C  369   4.524   3.489   2.170 -0.2970  0.1385 -0.2299
    1C        C  370   4.498   3.705   2.288  0.3297 -0.0375 -0.2986
    1C        C  371   4.513   3.565   2.289 -0.4361 -0.1281 -0.0665
    1C        C  372   4.481   3.776   2.409 -0.1616 -0.2055 -0.2607
    1C        C  373   4.499   3.708   2.531 -0.5598  0.0186 -0.0702
    1C        C  374   4.426   3.908   2.649 -0.3524  0.1511 -0.1975
    1C        C  375   4.483   3.778   2.652  0.0968  0.3459 -0.1644
    1C        C  376   4.396   3.974   2.770  0.3739 -0.0117  0.0829
    1C        C  377   4.426   3.911   2.892  0.2227 -0.0877  0.0849
    1C        C  378   4.322   4.096   3.010  0.5666  0.2480 -0.1251
    1C        C  379   4.396   3.976   3.014  0.6604  0.3083 -0.0151
    1C        C  380   4.276   4.154   3.131  0.4061  0.1769 -0.1514
    1C        C  381   4.322   4.102   3.254 -0.2324  0.2152  0.1063
    1C        C  382   4.178   4.259   3.376 -0.4194 -0.4414  0.3977
    1C        C  383   4.275   4.156   3.375 -0.2945 -0.3182  0.3220
    1C        C  384   4.127   4.307   3.499 -0.0722  0.0514  0.3469
    1C        C  385   4.179   4.261   3.622 -0.3799 -0.8486  0.1480
    1C        C  386   4.003   4.384   3.738 -0.1331  0.0092 -0.2185
    1C        C  387   4.126   4.315   3.741 -0.3015 -0.2810 -0.0751
    1C        C  388   3.943   4.419   3.861 -0.0317 -0.4673 -0.0361
    1C        C  389   4.009   4.392   3.983 -0.4814 -0.3579  0.2312
    1C        C  390   3.821   4.490   4.102 -0.2267 -0.3546 -0.1427
    1C        C  391   3.951   4.434   4.104 -0.2003 -0.2720  0.3332
    1C        C  392   3.755   4.516   4.224 -0.0274 -0.1016 -0.0905
    1C        C  393   3.824   4.508   4.346 -0.0972  0.2329 -0.0318
    1C        C  394   3.615   4.547   4.470 -0.0619  0.2228  0.0960
    1C        C  395   3.754   4.524   4.468 -0.0032  0.6031 -0.0270
    1C        C  396   3.546   4.564   4.592 -0.0245  0.3562  0.0939
    1C        C  397   3.622   4.563   4.711 -0.0636  0.0506  0.1136
    1C        C  398   3.413   4.547   4.837  0.0562  0.0575 -0.0305
    1C        C  399   3.552   4.572   4.834  0.0168  0.2937  0.1399
    1C        C  400   3.343   4.511   4.953  0.0718 -0.1293 -0.0810
    1C        C  401   4.502   3.701   2.052 -0.3948  0.2953 -0.2980
    1C        C  402   4.450   3.915   2.165 -0.1666  0.1038 -0.4050
    1C        C  403   4.487   3.779   2.168  0.0870  0.1742 -0.1532
    1C        C  404   4.404   3.975   2.285  0.2772  0.2228 -0.2877
    1C        C  405   4.435   3.909   2.406  0.4014 -0.0080 -0.4382
    1C        C  406   4.320   4.090   2.525  0.5286  0.1273 -0.0786
    1C        C  407   4.396   3.972   2.526  0.3559  0.0047 -0.4538
    1C        C  408   4.275   4.150   2.645  0.5413 -0.0707  0.0299
    1C        C  409   4.316   4.091   2.766  0.3358 -0.0329  0.1205
    1C        C  410   4.175   4.249   2.887 -0.1998 -0.2614  0.1383
    1C        C  411   4.276   4.150   2.888  0.3327  0.2754 -0.0275
    1C        C  412   4.120   4.294   3.009 -0.0538 -0.2922  0.2162
    1C        C  413   4.178   4.255   3.131 -0.0267 -0.2409  0.2172
    1C        C  414   4.002   4.373   3.250 -0.2329 -0.6074  0.0390
    1C        C  415   4.123   4.301   3.253 -0.2725 -0.6578  0.2623
    1C        C  416   3.940   4.408   3.372 -0.5149 -0.5620 -0.1196
    1C        C  417   4.006   4.379   3.494 -0.5442 -0.7674 -0.1575
    1C        C  418   3.811   4.469   3.613 -0.1307  0.1784 -0.2534
    1C        C  419   3.941   4.414   3.615 -0.3253 -0.2720 -0.1861
    1C        C  420   3.748   4.497   3.737  0.1642  0.0673 -0.0833
    1C        C  421   3.815   4.479   3.860 -0.0082 -0.4275 -0.0641
    1C        C  422   3.612   4.536   3.983  0.1514  0.3057 -0.1384
    1C        C  423   3.751   4.512   3.981  0.1954  0.5841 -0.2274
    1C        C  424   3.543   4.536   4.106  0.1940  0.2026 -0.1180
    1C        C  425   3.616   4.537   4.227  0.0381  0.3027 -0.0290
    1C        C  426   3.405   4.550   4.353 -0.0521 -0.2235 -0.1950
    1C        C  427   3.546   4.561   4.348 -0.0447 -0.2480  0.0322
    1C        C  428   3.332   4.546   4.473  0.1677 -0.2824 -0.0654
    1C        C  429   3.405   4.552   4.594  0.0342 -0.3161  0.0136
    1C        C  430   3.199   4.515   4.719  0.1041 -0.1086 -0.3234
    1C        C  431   3.338   4.545   4.718 -0.0463  0.6283  0.0229
    1C        C  432   3.127   4.492   4.840  0.3091  0.3269 -0.1168
    1C        C  433   3.205   4.501   4.956  0.0300  0.4342  0.0617
    1C        C  434   4.384   4.125   2.050 -0.1247  0.4233 -0.4688
    1C        C  435   4.447   3.999   2.054 -0.5554  0.2095 -0.3195
    1C        C  436   4.299   4.160   2.159  0.2494 -0.1242  0.0069
    1C        C  437   4.324   4.093   2.282 -0.1957 -0.0757  0.1321
    1C        C  438   4.179   4.250   2.399  0.0436  0.2410 -0.1462
    1C        C  439   4.273   4.144   2.403  0.6381  0.7659  0.1506
    1C        C  440   4.128   4.301   2.520 -0.1955 -0.6890  0.1642
    1C        C  441   4.182   4.256   2.642  0.2428 -0.3246  0.1078
    1C        C  442   4.009   4.377   2.763  0.2488  0.1447  0.2733
    1C        C  443   4.128   4.302   2.765 -0.1729 -0.5367  0.0067
    1C        C  444   3.940   4.404   2.884 -0.0004 -0.3588  0.2411
    1C        C  445   4.003   4.373   3.006 -0.1795 -0.4792  0.2997
    1C        C  446   3.812   4.466   3.128 -0.3381 -0.2446 -0.2877
    1C        C  447   3.944   4.414   3.128 -0.4417 -0.5044  0.1771
    1C        C  448   3.745   4.491   3.250  0.2461  0.0894 -0.0354
    1C        C  449   3.812   4.467   3.372 -0.2127  0.0915  0.2137
    1C        C  450   3.604   4.519   3.494 -0.4415  0.4978 -0.1041
    1C        C  451   3.743   4.494   3.492 -0.4496  0.4744 -0.0110
    1C        C  452   3.536   4.526   3.618 -0.1071  0.0143  0.1051
    1C        C  453   3.610   4.524   3.738  0.0501 -0.5233 -0.0003
    1C        C  454   3.401   4.542   3.861  0.0111 -0.5520 -0.2171
    1C        C  455   3.543   4.544   3.860  0.0022 -0.1902 -0.0857
    1C        C  456   3.334   4.523   3.984  0.2351 -0.6335 -0.1086
    1C        C  457   3.402   4.530   4.108  0.1972  0.1849 -0.1283
    1C        C  458   3.199   4.490   4.234 -0.2224  0.5029 -0.0755
    1C        C  459   3.335   4.528   4.232  0.0578 -0.4730 -0.2122
    1C        C  460   3.130   4.478   4.357  0.0163  0.0196  0.0135
    1C        C  461   3.196   4.509   4.478 -0.0117  0.3708 -0.0619
    1C        C  462   3.000   4.429   4.600 -0.0723 -0.0943 -0.1643
    1C        C  463   3.128   4.490   4.600 -0.2114  0.1960 -0.2030
    1C        C  464   2.940   4.391   4.721  0.1721 -0.2345 -0.0878
    1C        C  465   2.994   4.439   4.844  0.2104  0.5572 -0.4114
    1C        C  466   2.806   4.335   4.959  1.0384 -0.0569  0.2816
    1C        C  467   2.913   4.426   4.961  0.6032  0.4682 -0.1489
    1C        C  468   4.123   4.286   2.039 -0.2803  0.6177  0.1951
    1C        C  469   4.192   4.254   2.157  0.4143  0.0623 -0.3472
    1C        C  470   4.003   4.366   2.276  0.6117  0.6143 -0.0391
    1C        C  471   4.127   4.296   2.277  0.0954 -0.3135 -0.3836
    1C        C  472   3.942   4.406   2.397  0.4937  0.4927 -0.0564
    1C        C  473   4.008   4.376   2.518 -0.0975 -0.5302  0.0242
    1C        C  474   3.814   4.460   2.641  0.0905 -0.7219  0.3270
    1C        C  475   3.947   4.410   2.641  0.2059 -0.4121  0.1429
    1C        C  476   3.743   4.480   2.761 -0.3988 -0.3974 -0.0192
    1C        C  477   3.811   4.460   2.883 -0.1736 -0.7591 -0.2044
    1C        C  478   3.606   4.514   3.006 -0.2412 -0.2245 -0.1400
    1C        C  479   3.744   4.483   3.005 -0.2909 -0.4216 -0.3334
    1C        C  480   3.535   4.522   3.128 -0.1363 -0.3612 -0.0743
    1C        C  481   3.605   4.507   3.250  0.2035 -0.3101 -0.2672
    1C        C  482   3.394   4.526   3.375  0.0673  0.0308 -0.3108
    1C        C  483   3.535   4.524   3.371  0.0592  0.0297 -0.4019
    1C        C  484   3.322   4.525   3.497  0.1851 -0.0394 -0.2468
    1C        C  485   3.395   4.535   3.618 -0.0938  0.1619 -0.0988
    1C        C  486   3.190   4.496   3.742 -0.2074  0.1629  0.0298
    1C        C  487   3.328   4.528   3.742 -0.2008  0.1236 -0.1630
    1C        C  488   3.125   4.471   3.865 -0.0961  0.0921  0.0727
    1C        C  489   3.198   4.487   3.985  0.2523 -0.6893 -0.0297
    1C        C  490   3.010   4.402   4.115 -0.4240  0.6436 -0.1671
    1C        C  491   3.135   4.466   4.110 -0.0005 -0.1622 -0.0660
    1C        C  492   2.945   4.374   4.237  0.1718  0.2464  0.0655
    1C        C  493   3.002   4.419   4.358  0.0514 -0.0519  0.2358
    1C        C  494   2.826   4.300   4.483 -0.1844 -0.3862  0.0653
    1C        C  495   2.939   4.385   4.480 -0.3186 -0.2078  0.0038
    1C        C  496   2.773   4.253   4.604 -0.4539  0.2792  0.2146
    1C        C  497   2.824   4.308   4.724 -0.2574  0.3661  0.0914
    1C        C  498   2.671   4.161   4.846  0.3702  0.1317 -0.0270
    1C        C  499   2.758   4.272   4.843  0.5710 -0.0097  0.4470
    1C        C  500   2.597   4.112   4.954  0.1596  0.2576 -0.1108
    1C        C  501   4.000   4.350   2.038 -0.2655  0.6426 -0.1348
    1C        C  502   3.810   4.457   2.158  0.1389  0.4316  0.6055
    1C        C  503   3.939   4.398   2.155  0.1185  0.4073  0.1642
    1C        C  504   3.741   4.477   2.279 -0.2170 -0.4849  0.5607
    1C        C  505   3.812   4.462   2.400 -0.0309 -0.7028  0.4261
    1C        C  506   3.602   4.499   2.520 -0.0744 -0.7345 -0.0118
    1C        C  507   3.742   4.479   2.521 -0.1032 -0.9228  0.4138
    1C        C  508   3.531   4.501   2.642 -0.5795 -0.4907 -0.3096
    1C        C  509   3.604   4.504   2.763 -0.4183 -0.4772 -0.4102
    1C        C  510   3.392   4.517   2.884 -0.1100 -0.0491  0.1110
    1C        C  511   3.534   4.516   2.885 -0.1094 -0.5922 -0.2243
    1C        C  512   3.324   4.508   3.007 -0.1303 -0.6518  0.0556
    1C        C  513   3.394   4.523   3.129 -0.1299  0.0533 -0.0334
    1C        C  514   3.188   4.483   3.252 -0.3372  0.0673  0.1694
    1C        C  515   3.326   4.514   3.252 -0.1556 -0.7479 -0.1080
    1C        C  516   3.121   4.465   3.375 -0.0292 -0.0779  0.3146
    1C        C  517   3.185   4.492   3.498  0.2355 -0.2259  0.2049
    1C        C  518   2.992   4.413   3.624 -0.0510 -0.0420 -0.2768
    1C        C  519   3.120   4.473   3.622 -0.3213  0.5428  0.0265
    1C        C  520   2.935   4.373   3.747 -0.2538  0.3088 -0.2560
    1C        C  521   3.001   4.405   3.868 -0.2961  0.4490 -0.2688
    1C        C  522   2.831   4.288   3.995 -0.7289  0.9845  0.0745
    1C        C  523   2.944   4.372   3.993  0.0078  0.0013 -0.2478
    1C        C  524   2.785   4.234   4.117 -0.3829  0.2935 -0.0939
    1C        C  525   2.832   4.290   4.238 -0.2472  0.7921 -0.3728
    1C        C  526   2.696   4.132   4.362  0.5448  0.0044 -0.1412
    1C        C  527   2.777   4.247   4.361  0.1298  0.2998 -0.3701
    1C        C  528   2.658   4.074   4.485 -0.0618  0.3866 -0.1387
    1C        C  529   2.687   4.141   4.606 -0.1683  0.0547  0.0771
    1C        C  530   2.584   3.958   4.728  0.2161 -0.1287 -0.0681
    1C        C  531   2.642   4.088   4.729  0.3664 -0.1922  0.1727
    1C        C  532   2.544   3.899   4.851  0.1009  0.2912  0.1013
    1C        C  533   2.522   3.994   4.956 -0.4850  0.6567 -0.3439
    1C        C  534   3.615   4.545   2.037  0.3464  0.0664 -0.1195
    1C        C  535   3.751   4.512   2.044  0.1543 -0.7122  0.0300
    1C        C  536   3.533   4.531   2.154  0.1854  0.5151 -0.1758
    1C        C  537   3.603   4.508   2.276 -0.1449 -0.2208 -0.1224
    1C        C  538   3.391   4.502   2.394 -0.0132 -0.6181 -0.1645
    1C        C  539   3.532   4.510   2.398 -0.0143 -0.6707 -0.0387
    1C        C  540   3.322   4.495   2.517 -0.1736 -0.7682 -0.2652
    1C        C  541   3.390   4.503   2.640 -0.5766 -0.2690 -0.0750
    1C        C  542   3.183   4.477   2.762 -0.1972  0.4591  0.1623
    1C        C  543   3.320   4.511   2.763 -0.1613  0.3027  0.1265
    1C        C  544   3.121   4.449   2.886 -0.6937  0.7537 -0.0179
    1C        C  545   3.188   4.467   3.009 -0.3020 -0.0839 -0.1004
    1C        C  546   2.992   4.396   3.133 -0.5426  1.1033 -0.2320
    1C        C  547   3.120   4.455   3.132 -0.1375  0.2364  0.0203
    1C        C  548   2.938   4.356   3.257 -0.6296  0.5880 -0.4358
    1C        C  549   2.996   4.399   3.378 -0.3503  0.4799 -0.5315
    1C        C  550   2.826   4.281   3.505 -0.0771  0.3518 -0.3272
    1C        C  551   2.934   4.372   3.502  0.0155  0.2398 -0.4030
    1C        C  552   2.778   4.228   3.627  0.4236  0.4787 -0.0713
    1C        C  553   2.828   4.280   3.748 -0.3990  0.4761  0.2773
    1C        C  554   2.697   4.123   3.874 -0.3405  0.2080 -0.4778
    1C        C  555   2.781   4.236   3.874 -0.2496  0.1531  0.2228
    1C        C  556   2.659   4.064   3.997 -0.2716  0.4856 -0.3197
    1C        C  557   2.701   4.120   4.120 -0.3351  0.2520 -0.1868
    1C        C  558   2.595   3.941   4.245  0.6029 -0.0921  0.4263
    1C        C  559   2.654   4.069   4.243  0.1097  0.1322 -0.0602
    1C        C  560   2.565   3.878   4.368  0.1126 -0.0638  0.3264
    1C        C  561   2.592   3.949   4.487 -0.4995  0.6162  0.0714
    1C        C  562   2.532   3.747   4.615  0.3072 -0.0131  0.1059
    1C        C  563   2.562   3.885   4.609 -0.2953  0.1159 -0.1302
    1C        C  564   2.526   3.676   4.736 -0.5915 -0.0487  0.0558
    1C        C  565   2.525   3.757   4.853  0.2439  0.2660 -0.1420
    1C        C  566   2.522   3.543   4.980  0.2278 -0.1279 -0.0380
    1C        C  567   2.521   3.682   4.971 -0.5164 -0.1509 -0.4216
    1C        C  568   3.327   4.460   2.038 -0.2086  0.2513  0.2449
    1C        C  569   3.393   4.507   2.152  0.3248 -0.3556  0.1936
    1C        C  570   3.180   4.467   2.275 -0.2245 -0.2387 -0.0769
    1C        C  571   3.319   4.500   2.273 -0.1247 -0.6549 -0.0966
    1C        C  572   3.113   4.446   2.397 -0.2583 -0.0125 -0.0562
    1C        C  573   3.183   4.467   2.518 -0.4382  0.4861 -0.0358
    1C        C  574   2.988   4.395   2.645  0.0166  0.0359 -0.0990
    1C        C  575   3.115   4.456   2.641 -0.0993  0.2923  0.1372
    1C        C  576   2.926   4.359   2.767 -0.2877  0.0901 -0.2355
    1C        C  577   2.993   4.389   2.888 -0.6570  0.6729 -0.1743
    1C        C  578   2.823   4.266   3.013  0.0046  0.0662 -0.2677
    1C        C  579   2.933   4.355   3.011 -0.6092  0.8340 -0.1074
    1C        C  580   2.775   4.221   3.138 -0.0167  0.2890 -0.1946
    1C        C  581   2.830   4.264   3.260 -0.1519  0.0367 -0.0427
    1C        C  582   2.687   4.116   3.385 -0.3709  0.1134 -0.1619
    1C        C  583   2.780   4.222   3.385 -0.3067  0.0566 -0.0973
    1C        C  584   2.652   4.058   3.509  0.1561  0.3934  0.1237
    1C        C  585   2.691   4.117   3.631 -0.3650  1.0906 -0.0391
    1C        C  586   2.589   3.935   3.757  0.0064 -0.0209 -0.1584
    1C        C  587   2.657   4.059   3.755 -0.4014  0.2031 -0.4576
    1C        C  588   2.565   3.871   3.880  0.4552  0.0141 -0.0483
    1C        C  589   2.597   3.937   4.001 -0.4401  0.5694 -0.1026
    1C        C  590   2.537   3.736   4.125  0.7832  0.4316 -0.6548
    1C        C  591   2.568   3.874   4.124  0.5323  0.5061  0.1058
    1C        C  592   2.529   3.668   4.249 -0.6300  0.3866 -0.7510
    1C        C  593   2.538   3.739   4.371 -0.1694 -0.0377 -0.5245
    1C        C  594   2.513   3.533   4.496  0.3500  0.3957 -0.1958
    1C        C  595   2.519   3.674   4.495  0.5360  0.3951 -0.1785
    1C        C  596   2.521   3.462   4.618  0.3859  0.1214 -0.3483
    1C        C  597   2.522   3.533   4.740 -0.6389 -0.0611 -0.2138
    1C        C  598   2.540   3.325   4.863 -0.1822 -0.0068  0.3950
    1C        C  599   2.526   3.465   4.864  0.3350  0.0579 -0.1613
    1C        C  600   2.539   3.248   4.980 -0.0576  0.3983  0.6664
    1C        C  601   3.192   4.433   2.037 -0.1357 -0.1289 -0.1484
    1C        C  602   2.978   4.390   2.157  0.0061 -0.3735 -0.1275
    1C        C  603   3.114   4.436   2.154 -0.2263  0.3196 -0.2200
    1C        C  604   2.919   4.357   2.282 -0.3680  0.4105 -0.0889
    1C        C  605   2.984   4.389   2.404 -0.4423  0.4000 -0.0462
    1C        C  606   2.812   4.268   2.526 -0.5002  0.4644 -0.2290
    1C        C  607   2.921   4.358   2.526 -0.2198  0.1337  0.0030
    1C        C  608   2.764   4.217   2.649  0.0467 -0.0954 -0.2348
    1C        C  609   2.815   4.273   2.769 -0.4063  0.2428 -0.1941
    1C        C  610   2.680   4.110   2.895 -0.3804  0.2306  0.1916
    1C        C  611   2.770   4.219   2.891 -0.1076 -0.0052 -0.1917
    1C        C  612   2.639   4.055   3.019  0.0231 -0.3958  0.0544
    1C        C  613   2.683   4.113   3.140 -0.2974  0.5241 -0.2599
    1C        C  614   2.581   3.932   3.265  0.2807  0.0023 -0.3213
    1C        C  615   2.643   4.059   3.264  0.0604  0.1087 -0.3201
    1C        C  616   2.562   3.868   3.389 -0.1138  0.2584 -0.2467
    1C        C  617   2.589   3.932   3.512  0.5679  0.1748 -0.3475
    1C        C  618   2.535   3.729   3.637  0.7971  0.1278 -0.0725
    1C        C  619   2.566   3.867   3.635  0.3393  0.2270 -0.3631
    1C        C  620   2.519   3.662   3.760  0.4700 -0.1911 -0.2901
    1C        C  621   2.530   3.734   3.881  0.3428  0.0384 -0.4149
    1C        C  622   2.507   3.526   4.011 -0.1112  0.1164  0.3315
    1C        C  623   2.521   3.666   4.004  0.6473  0.0168 -0.4026
    1C        C  624   2.519   3.455   4.132  0.4883 -0.0890  0.1617
    1C        C  625   2.516   3.528   4.253  0.3401  0.3021 -0.0701
    1C        C  626   2.543   3.320   4.377 -0.7475  0.0819  0.1670
    1C        C  627   2.518   3.459   4.376 -0.1080  0.2066 -0.1074
    1C        C  628   2.559   3.251   4.500  0.1304  0.2069  0.1356
    1C        C  629   2.538   3.322   4.620 -0.3920  0.0174  0.1651
    1C        C  630   2.601   3.119   4.743  0.2829  0.4017 -0.0585
    1C        C  631   2.553   3.253   4.742 -0.3431  0.1842  0.2601
    1C        C  632   2.621   3.046   4.864  0.6261  0.5054 -0.0469
    1C        C  633   2.566   3.111   4.979 -0.2345  0.3599 -0.3663
    1C        C  634   2.779   4.293   2.049 -0.0415 -0.5406 -0.1419
    1C        C  635   2.890   4.378   2.045 -0.5575  0.1693  0.2470
    1C        C  636   2.744   4.225   2.166 -0.4718  0.2954  0.2308
    1C        C  637   2.808   4.268   2.284 -0.5220  0.6069  0.1442
    1C        C  638   2.676   4.104   2.408 -0.2927 -0.1326 -0.2544
    1C        C  639   2.755   4.220   2.406 -0.4506 -0.0198 -0.0666
    1C        C  640   2.634   4.047   2.530 -0.1731  0.5932  0.1354
    1C        C  641   2.678   4.105   2.651  0.3111 -0.2944  0.4027
    1C        C  642   2.582   3.920   2.775  0.0457 -0.4043 -0.3527
    1C        C  643   2.640   4.049   2.775  0.3900 -0.5473  0.3148
    1C        C  644   2.556   3.858   2.900  0.6599 -0.4390 -0.2338
    1C        C  645   2.582   3.926   3.020  0.1851 -0.4702 -0.1081
    1C        C  646   2.527   3.725   3.148 -0.1388 -0.2721  0.1631
    1C        C  647   2.557   3.863   3.144 -0.1406 -0.2804 -0.0766
    1C        C  648   2.529   3.657   3.272  0.0991 -0.1134  0.2427
    1C        C  649   2.540   3.729   3.393 -0.0246  0.2542  0.0363
    1C        C  650   2.515   3.518   3.520  0.5857  0.0544 -0.0193
    1C        C  651   2.527   3.658   3.515  0.6500  0.0460 -0.0114
    1C        C  652   2.524   3.449   3.643  0.4681 -0.0069 -0.0491
    1C        C  653   2.519   3.521   3.764  0.5269 -0.1805  0.0530
    1C        C  654   2.542   3.316   3.889  0.0861  0.2340  0.1697
    1C        C  655   2.518   3.455   3.889  0.1949  0.2513  0.2805
    1C        C  656   2.558   3.248   4.012  0.8088 -0.1168 -0.1149
    1C        C  657   2.545   3.316   4.134  0.2722 -0.1396 -0.1533
    1C        C  658   2.606   3.115   4.258  0.0980  0.4015 -0.1680
    1C        C  659   2.559   3.248   4.257 -0.5740  0.1727  0.1265
    1C        C  660   2.637   3.051   4.380  0.1906 -0.0425 -0.4168
    1C        C  661   2.611   3.119   4.500  0.4830  0.3308 -0.5568
    1C        C  662   2.709   2.933   4.625 -0.1155  0.5379  0.1297
    1C        C  663   2.636   3.054   4.623  0.3120  0.7956 -0.2684
    1C        C  664   2.751   2.874   4.746  0.6193  0.2715 -0.2492
    1C        C  665   2.704   2.930   4.868  0.4487  0.3651 -0.3561
    1C        C  666   2.742   2.864   4.985  0.1095  1.3735  0.3345
    1C        C  667   2.662   4.023   2.048  0.3017 -0.3728 -0.1534
    1C        C  668   2.683   4.098   2.165  0.7473 -0.3064 -0.2738
    1C        C  669   2.591   3.906   2.291  0.2873 -0.2016 -0.0782
    1C        C  670   2.650   4.035   2.287  0.1687 -0.1519 -0.3466
    1C        C  671   2.555   3.844   2.413  0.4159 -0.1560 -0.0161
    1C        C  672   2.574   3.919   2.532  0.4798  0.2709 -0.2908
    1C        C  673   2.525   3.714   2.659  0.5518 -0.2383  0.2664
    1C        C  674   2.553   3.853   2.655  0.5786 -0.2670 -0.5600
    1C        C  675   2.518   3.646   2.783  0.1609 -0.5366  0.0794
    1C        C  676   2.531   3.719   2.903  0.1450 -0.3438 -0.0385
    1C        C  677   2.512   3.511   3.032  0.0237 -0.1278  0.2248
    1C        C  678   2.522   3.652   3.027  0.3816 -0.1596  0.0760
    1C        C  679   2.516   3.442   3.154 -0.1770 -0.0795  0.2539
    1C        C  680   2.525   3.516   3.274 -0.0603 -0.1047  0.2562
    1C        C  681   2.537   3.307   3.398  0.1227 -0.2885 -0.1542
    1C        C  682   2.525   3.447   3.398 -0.1860 -0.3186  0.1314
    1C        C  683   2.560   3.244   3.523  0.5349  0.1048 -0.0376
    1C        C  684   2.544   3.309   3.647  0.3652 -0.0156 -0.0034
    1C        C  685   2.606   3.109   3.769 -0.1609  0.1858 -0.1888
    1C        C  686   2.556   3.241   3.770 -0.0706  0.2144  0.1651
    1C        C  687   2.635   3.048   3.893  0.1630 -0.1464 -0.4271
    1C        C  688   2.608   3.116   4.014 -0.1077 -0.4728 -0.3033
    1C        C  689   2.718   2.934   4.137  0.1159  0.1964  0.2541
    1C        C  690   2.639   3.052   4.136 -0.2643 -0.0550 -0.0372
    1C        C  691   2.758   2.877   4.259  0.3361  0.0705  0.1251
    1C        C  692   2.709   2.929   4.381  0.6363  0.2144  0.1908
    1C        C  693   2.750   2.874   4.504 -0.0265  0.0986  0.3709
    1C        C  694   2.627   3.888   2.056  0.3044 -0.3423  0.4502
    1C        C  695   2.521   3.700   2.173 -0.2233 -0.4876  0.1349
    1C        C  696   2.573   3.831   2.172 -0.0039 -0.5731  0.1967
    1C        C  697   2.501   3.635   2.297  0.2438 -0.0863  0.4211
    1C        C  698   2.519   3.708   2.417  0.5960 -0.1949  0.4355
    1C        C  699   2.484   3.502   2.544 -0.3309 -0.2497 -0.1747
    1C        C  700   2.506   3.641   2.540  0.7471 -0.4020  0.3376
    1C        C  701   2.502   3.434   2.666 -0.1002 -0.4484 -0.3222
    1C        C  702   2.512   3.505   2.788  0.7553 -0.5786 -0.3129
    1C        C  703   2.529   3.297   2.910 -0.1325  0.1704  0.2764
    1C        C  704   2.507   3.437   2.912 -0.2226  0.1552  0.0620
    1C        C  705   2.545   3.230   3.033  0.3813 -0.0851  0.0693
    1C        C  706   2.532   3.302   3.154 -0.3172 -0.0896 -0.0017
    1C        C  707   2.596   3.102   3.279  0.0263 -0.2462  0.2052
    1C        C  708   2.549   3.235   3.277 -0.1799 -0.3282 -0.1543
    1C        C  709   2.631   3.044   3.403  0.4524 -0.0043  0.1955
    1C        C  710   2.604   3.110   3.525  0.0446 -0.0472  0.1229
    1C        C  711   2.710   2.926   3.650  0.1873 -0.0509  0.0056
    1C        C  712   2.631   3.043   3.646 -0.0393 -0.2061  0.0488
    1C        C  713   2.753   2.873   3.773  0.1308  0.1066  0.0903
    1C        C  714   2.711   2.930   3.896 -0.3009 -0.4374  0.1977
    1C        C  715   2.758   2.873   4.016  0.5954  0.4493  0.2821
    1C        C  716   2.445   3.493   2.062  0.0057 -0.2173  0.0777
    1C        C  717   2.496   3.624   2.058 -0.0340 -0.2083 -0.0931
    1C        C  718   2.458   3.419   2.184 -0.1291 -0.1033  0.1603
    1C        C  719   2.479   3.495   2.302  0.5566 -0.1477  0.0696
    1C        C  720   2.508   3.289   2.424  0.3848 -0.1384 -0.1407
    1C        C  721   2.474   3.426   2.425 -0.5100 -0.3584 -0.0860
    1C        C  722   2.543   3.225   2.545  0.4247 -0.0142 -0.0900
    1C        C  723   2.526   3.295   2.667  0.3449 -0.3683  0.0985
    1C        C  724   2.592   3.094   2.792 -0.0383  0.1246 -0.1326
    1C        C  725   2.537   3.224   2.789 -0.3778 -0.0088  0.3715
    1C        C  726   2.626   3.032   2.913 -0.5834 -0.4900 -0.2903
    1C        C  727   2.595   3.098   3.034  0.1759 -0.1648 -0.2723
    1C        C  728   2.704   2.920   3.162 -0.4976 -0.2792 -0.1414
    1C        C  729   2.623   3.035   3.157  0.4317  0.3817 -0.0518
    1C        C  730   2.753   2.870   3.285 -0.5687 -0.3538 -0.1484
    1C        C  731   2.707   2.925   3.406  0.0268 -0.2758  0.0421
    1C        C  732   2.751   2.869   3.528  0.1938 -0.1238  0.0466
    1C        C  733   2.492   3.198   2.072 -0.3282 -0.0162 -0.4581
    1C        C  734   2.483   3.278   2.187  0.0116 -0.0899 -0.3791
    1C        C  735   2.564   3.077   2.308  0.9393  0.4172 -0.0766
    1C        C  736   2.511   3.209   2.308  0.1426  0.0972 -0.3053
    1C        C  737   2.611   3.021   2.428 -0.0172 -0.1865  0.0244
    1C        C  738   2.593   3.093   2.548 -0.1893 -0.2414  0.0286
    1C        C  739   2.700   2.910   2.671  0.0044 -0.1037 -0.0142
    1C        C  740   2.624   3.029   2.671 -0.2915 -0.2934  0.0248
    1C        C  741   2.740   2.852   2.793 -0.5924 -0.4764  0.0049
    1C        C  742   2.702   2.913   2.915 -0.2820 -0.2913  0.0034
    1C        C  743   2.747   2.864   3.039  0.1036 -0.0444 -0.0387
    1C        C  744   2.543   3.068   2.075  0.1514  0.1813  0.2044
    1C        C  745   2.680   2.894   2.188  0.4764  0.0426  0.0809
    1C        C  746   2.593   3.005   2.190  0.6708  0.1994 -0.0075
    1C        C  747   2.729   2.839   2.308  0.1181 -0.5763 -0.0509
    1C        C  748   2.688   2.902   2.428 -0.6575 -0.5980 -0.3050
    1C        C  749   2.740   2.852   2.549 -0.2248  0.1214 -0.1940
    1C        C  750   2.740   2.842   2.073 -0.4609 -0.4766 -0.1828
    1C        C  751   3.681   2.342   1.965 -0.2523 -0.1418  0.1256
    1C        O  752   3.702   2.220   1.989  0.1520  0.0620  0.8437
    1C        O  753   3.693   2.372   1.828  0.4692 -0.4915  0.1104
    1C        C  754   4.612   3.056   1.971 -0.6890 -0.2438  0.1433
    1C        O  755   4.628   3.103   1.855  0.8093 -0.5148  0.2193
    1C        O  756   4.728   2.997   2.023 -0.1773  0.3677 -0.2919
    1C        C  757   4.453   4.226   1.967  0.9165 -0.4044 -0.6339
    1C        O  758   4.489   4.341   2.005 -0.1974 -0.5013  0.7803
    1C        O  759   4.429   4.236   1.829  0.0658 -0.0923 -0.4668
    1C        C  760   3.582   4.646   1.934  0.6016  0.1228 -0.1456
    1C        O  761   3.611   4.769   1.944  0.1672  0.2699 -0.6807
    1C        O  762   3.534   4.601   1.811  0.7307 -0.1489 -0.0969
    1C        C  763   2.881   4.484   1.942 -0.0315  0.1051  0.1302
    1C        O  764   2.896   4.439   1.825  0.4400  0.6377 -0.0198
    1C        O  765   2.769   4.568   1.944 -0.2313 -0.1590  0.0655
    1C        C  766   2.330   3.477   1.969  0.1512  0.1340 -0.1629
    1C        O  767   2.340   3.418   1.858 -0.4493 -0.0891 -0.0965
    1C        O  768   2.199   3.480   2.018  0.1423 -0.3855 -0.1548
    1C        C  769   4.704   3.598   5.043 -0.1556  0.1481 -0.1007
    1C        O  770   4.707   3.523   5.145  0.3954 -0.5459 -0.6177
    1C        O  771   4.839   3.613   5.008 -0.1021  0.2458  0.1418
    1C        C  772   4.281   4.469   5.022 -0.4887  0.4141  0.0802
    1C        O  773   4.291   4.450   5.146  0.0942  0.2883  0.0161
    1C        O  774   4.333   4.595   4.989  0.2247  0.0665 -0.1504
    1C        C  775   4.136   2.504   5.066  0.0660 -0.1328 -0.0129
    1C        O  776   4.206   2.408   5.024  0.0464 -0.2795  0.2837
    1C        O  777   4.141   2.498   5.206 -0.0536  0.5831  0.0281
    1C        C  778   2.871   4.549   5.031  0.5204  0.3609 -0.0099
    1C        O  779   2.856   4.655   4.966 -0.4184  0.1299 -0.1865
    1C        O  780   2.896   4.565   5.168 -0.8628 -0.5185  0.3708
    1C        C  781   2.488   3.031   5.076  0.4092 -0.0667 -0.1926
    1C        O  782   2.364   3.012   5.058  0.2663 -0.6001  1.1837
    1C        O  783   2.508   3.048   5.213 -0.1615  0.2708 -0.1456
    1C        C  784   2.400   3.981   5.039 -0.6330 -0.7946 -0.7622
    1C        O  785   2.307   4.063   5.015 -0.0999 -0.0426 -0.2966
    1C        O  786   2.418   3.961   5.176  0.1943  0.2359 -0.7054
    1C        C  787   2.949   2.399   2.029  0.1519 -0.1601 -0.1993
    1C        O  788   2.967   2.372   1.907  0.4255  0.0826 -0.2158
    1C        O  789   2.922   2.292   2.114  0.2422 -0.0268 -0.0038
    1C        C  790   3.192   2.386   5.076 -0.3336  0.3169  0.2018
    1C        O  791   3.142   2.274   5.048 -0.2995  0.3794 -0.1072
    1C        O  792   3.217   2.400   5.213  0.0033 -0.1333  0.1851
    1C        H  793   4.332   2.987   5.064 -0.4218  2.0647  0.1480
    1C        H  794   4.152   2.836   5.067 -0.4251  2.4555 -0.2156
    1C        H  795   4.524   3.126   5.041 -0.1788 -0.5374 -0.8147
    1C        H  796   4.530   3.376   5.060  0.5356  2.1581 -0.7444
    1C        H  797   4.554   3.808   5.049 -0.6219 -1.5679  1.4237
    1C        H  798   4.379   3.957   5.053  1.7218  0.7205 -0.0047
    1C        H  799   4.265   4.166   5.045  1.3719  0.3737  0.3011
    1C        H  800   4.043   4.557   5.013 -1.0127 -2.0751  2.0184
    1C        H  801   3.809   4.534   5.037  0.2616 -0.9630 -0.5407
    1C        H  802   3.584   4.558   5.039  1.4353  0.8092  0.8692
    1C        H  803   3.394   4.474   5.040  1.0102  2.2396  0.4782
    1C        H  804   3.158   4.491   5.052  1.6986  0.9572  0.9745
    1C        H  805   3.902   2.438   5.030  0.5178  1.9541  2.6368
    1C        H  806   3.678   2.478   5.072  1.4058  0.1848 -0.9852
    1C        H  807   3.018   2.581   5.073  0.6794  0.0506  0.3585
    1C        H  808   3.453   2.531   5.065  1.2562 -0.6712  1.0431
    1C        H  809   2.890   2.748   5.083  1.5554  3.3636 -0.2253
    1C        H  810   2.734   2.916   5.078  1.0804  0.9246  0.6846
    1C        H  811   2.482   3.282   5.064  0.5960 -1.8067  2.1011
    1C        H  812   2.491   3.500   5.073  0.4910 -0.2841 -0.0217
    1C        H  813   2.562   3.733   5.056  0.4170 -0.0933 -0.8875
    1C        H  814   2.602   4.159   5.051  0.1332  0.0054  0.0138
    1C        H  815   2.751   4.317   5.049 -0.6847  1.6624 -0.3849
    1C        H  816   2.757   2.906   1.989 -0.7512 -3.0506 -2.3444
    1C        H  817   2.890   2.724   1.984  0.4093 -0.8736  0.1298
    1C        H  818   3.215   2.495   1.980  0.3239  0.6711  0.4974
    1C        H  819   3.425   2.430   1.978  0.8923  2.4427 -0.5546
    1C        H  820   3.849   2.542   1.966  0.0096 -2.9747 -0.2964
    1C        H  821   4.079   2.590   1.975  0.5170  0.1921  0.3134
    1C        H  822   4.285   2.698   1.994  1.5042 -0.4756  0.3643
    1C        H  823   4.330   2.951   1.981 -1.9215  0.0240  0.6443
    1C        H  824   4.556   3.308   1.961  0.2768 -0.8182 -0.1744
    1C        H  825   4.523   3.518   1.955 -0.6650 -0.0819 -0.0025
    1C        H  826   4.553   3.751   1.972  1.4787  1.5718  1.5768
    1C        H  827   3.818   4.534   1.964  0.6429 -1.4633  0.2246
    1C        H  828   3.956   4.364   1.941 -1.1742 -0.3066  0.1305
    1C        H  829   4.183   4.308   1.954 -1.2702 -1.3330 -1.0751
    1C        H  830   4.488   3.959   1.964 -0.3896  0.7540 -0.4953
    1C        H  831   2.696   3.825   2.005 -3.3038 -1.5528 -3.6089
    1C        H  832   2.640   4.080   1.960  0.2784  0.1773  0.2030
    1C        H  833   2.704   4.308   1.974  0.5328 -0.3738 -0.6838
    1C        H  834   3.383   4.419   1.956 -0.4350 -0.0532  0.2373
    1C        H  835   3.138   4.425   1.945 -0.4745  0.0504  0.0320
    1C        H  836   2.514   3.001   1.997  2.4514  1.1206 -1.5824
    1C        H  837   2.483   3.245   1.977  1.5745  0.1926 -0.5807
    1C        H  838   2.529   3.653   1.961  2.4069 -2.7242 -0.1459
    2V3OU   H29  839   2.807   3.550   1.720  2.7514 -1.4757 -0.3241
    2V3OU   C27  840   2.781   3.503   1.818 -0.3242  0.0402 -0.2968
    2V3OU   H27  841   2.723   3.573   1.884  0.7015  1.4420 -0.8464
    2V3OU   H28  842   2.723   3.408   1.803  0.3125 -0.1226 -1.9739
    2V3OU   O11  843   2.906   3.475   1.880 -0.2533  0.6615 -0.1539
    2V3OU   C15  844   2.920   3.397   1.993  0.0180  0.1254 -0.5535
    2V3OU   C13  845   3.049   3.374   2.046 -0.0401  0.0194 -0.4612
    2V3OU   C14  846   3.073   3.270   2.136 -0.1059 -0.1612 -0.6532
    2V3OU   C16  847   2.975   3.187   2.190  0.2123 -0.1656 -0.0740
    2V3OU    H6  848   2.994   3.106   2.262  0.8461 -0.1064 -0.1696
    2V3OU   C12  849   3.211   3.226   2.167 -0.1549  0.3839  0.3707
    2V3OU    O2  850   3.239   3.127   2.238  0.6486  0.1979 -0.1859
    2V3OU   C10  851   3.322   3.305   2.111  0.4119 -0.0146  0.9219
    2V3OU    C8  852   3.455   3.268   2.126  0.4749 -0.1418  0.0893
    2V3OU   O10  853   3.488   3.162   2.204 -0.5952  0.1588  0.9842
    2V3OU   H26  854   3.406   3.114   2.225 -0.7363 -0.4023 -0.7417
    2V3OU    C6  855   3.561   3.351   2.079  0.0541  0.0152 -0.5908
    2V3OU    C5  856   3.531   3.465   2.006  0.0205  0.3275 -0.0947
    2V3OU    C4  857   3.698   3.292   2.071  0.0289 -0.1194 -0.0362
    2V3OU    H4  858   3.723   3.226   2.160 -0.7969  0.2437  0.4785
    2V3OU    H5  859   3.701   3.224   1.982 -0.9787  0.4914 -0.5542
    2V3OU    C2  860   3.816   3.390   2.068  0.0652 -0.1678 -0.1325
    2V3OU    O6  861   3.812   3.471   2.185  0.5676  0.2672 -0.4116
    2V3OU   H21  862   3.763   3.550   2.156  0.2495 -0.0883 -0.8602
    2V3OU    C3  863   3.780   3.486   1.954  0.3668 -0.0690 -0.1446
    2V3OU    H2  864   3.854   3.570   1.953 -0.2553  0.4800 -0.1588
    2V3OU    H3  865   3.778   3.437   1.853 -1.6305 -0.1771 -0.0835
    2V3OU   C25  866   3.950   3.317   2.060  0.0432 -0.2749  0.4711
    2V3OU    O7  867   4.001   3.289   1.952 -0.3400  0.6221  0.0486
    2V3OU   C26  868   4.030   3.277   2.183 -0.0395 -0.5896  0.4231
    2V3OU   H22  869   4.076   3.370   2.225  1.3230 -0.7678 -0.5951
    2V3OU   H23  870   4.114   3.210   2.152  1.2775  1.2855 -0.2251
    2V3OU    O8  871   3.961   3.205   2.283 -1.0214 -0.4857 -0.1685
    2V3OU   H24  872   3.925   3.256   2.358  3.0744  0.5119  1.4089
    2V3OU    C1  873   3.646   3.556   1.972  0.3460 -0.1068 -0.1551
    2V3OU    H1  874   3.623   3.612   1.877  1.7407  0.5755 -0.1134
    2V3OU    O3  875   3.663   3.648   2.080 -0.6795  0.1349 -0.1947
    2V3OU   C19  876   3.619   3.784   2.068 -0.5095  0.1673 -0.4483
    2V3OU    H9  877   3.524   3.803   2.010 -0.6016  4.0354  0.7477
    2V3OU    O4  878   3.716   3.841   1.982 -0.1541  0.3309  0.0558
    2V3OU   C20  879   3.843   3.873   2.038 -0.1129 -0.1487  0.2396
    2V3OU   H10  880   3.893   3.772   2.049  0.7480  0.2074 -0.2806
    2V3OU   C24  881   3.609   3.853   2.204  0.1631 -0.3242 -0.1421
    2V3OU   H16  882   3.546   3.797   2.278 -0.7351  3.4820  2.2639
    2V3OU   H17  883   3.564   3.953   2.184  0.6769  0.1569  1.0420
    2V3OU   C23  884   3.746   3.872   2.268  0.0782  0.2588 -0.1299
    2V3OU   H15  885   3.788   3.768   2.291  0.7494  0.0383 -2.1237
    2V3OU    N1  886   3.737   3.953   2.388 -0.1115  0.1888 -0.0959
    2V3OU   H19  887   3.805   3.911   2.447 -0.0014 -1.5235 -1.3693
    2V3OU   H20  888   3.648   3.935   2.428  0.4347 -1.3258  0.4771
    2V3OU   C21  889   3.847   3.945   2.173  0.5537 -0.0188  0.1563
    2V3OU   H11  890   3.946   3.926   2.223  0.1742 -0.8172  0.6388
    2V3OU    O5  891   3.824   4.085   2.172 -0.4127 -0.1620  0.4856
    2V3OU   H18  892   3.787   4.106   2.259  0.2252  0.2182  0.6729
    2V3OU   C22  893   3.918   3.953   1.933 -0.5957 -0.1586 -0.1146
    2V3OU   H12  894   3.863   4.047   1.910  0.1142  0.4298  0.5425
    2V3OU   H13  895   3.918   3.894   1.837  1.5962 -1.6421  0.7047
    2V3OU   H14  896   4.024   3.966   1.965 -0.5999  0.7357 -0.4485
    2V3OU   C11  897   3.156   3.472   2.028  0.2839 -0.2972 -0.2513
    2V3OU    O1  898   3.137   3.584   1.975 -0.0158  0.0255  0.5271
    2V3OU    C9  899   3.296   3.423   2.036  0.1901 -0.4780  0.2731
    2V3OU    C7  900   3.396   3.502   1.981 -0.1513 -0.3552 -0.1667
    2V3OU    O9  901   3.382   3.615   1.903 -0.5444 -0.0779  0.3005
    2V3OU   H25  902   3.286   3.628   1.899 -0.4828  0.3474  0.1309
    2V3OU   C17  903   2.817   3.319   2.050  0.6645 -0.3106  0.0306
    2V3OU    H7  904   2.719   3.325   2.003  1.3851 -3.1170 -2.0861
    2V3OU   C18  905   2.850   3.216   2.137  0.1336 -0.6387 -0.1543
    2V3OU    H8  906   2.775   3.143   2.172  0.3314 -0.4555  0.6902
    3SOL     OW  907   5.037   4.477   0.894 -0.4204  0.4653 -0.1000
    3SOL    HW1  908   5.082   4.562   0.868 -0.3784  0.5435  0.2215
    3SOL    HW2  909   4.986   4.441   0.816  0.3910  0.2491 -0.5467
    4SOL     OW  910   6.298   0.220   1.090 -0.2287  0.4048  0.7769
    4SOL    HW1  911   6.230   0.157   1.128 -1.8947  1.5484 -0.1837
    4SOL    HW2  912   6.252   0.298   1.049  1.7112  1.4026  0.3671
    5SOL     OW  913   2.452   1.098   2.126 -0.1098  0.6272  0.2730
    5SOL    HW1  914   2.468   1.011   2.173 -2.1637  0.3765  0.6059
    5SOL    HW2  915   2.481   1.174   2.185  1.0829  0.2131  0.2484
    6SOL     OW  916   4.336   1.070   2.256  0.7293 -0.0447  0.1993
    6SOL    HW1  917   4.406   1.074   2.186  1.2668 -2.0991  0.5628
    6SOL    HW2  918   4.378   1.058   2.346  0.0514  2.4521  0.9342
    7SOL     OW  919   5.512   2.244   1.874 -0.4094  0.4957  0.6391
    7SOL    HW1  920   5.559   2.250   1.962 -1.5328  0.0313  1.2983
    7SOL    HW2  921   5.420   2.207   1.888  0.0122 -1.2888 -0.9649
    8SOL     OW  922   2.545   6.001   5.537  0.1036  0.1104 -0.4148
    8SOL    HW1  923   2.514   6.044   5.622 -2.1544 -1.2951 -0.4553
    8SOL    HW2  924   2.572   6.072   5.472 -0.9833  1.3571  0.4385
    9SOL     OW  925   5.840   4.532   5.003 -0.5583 -0.0397 -0.2886
    9SOL    HW1  926   5.837   4.439   4.966 -1.7064 -0.2752  0.3357
    9SOL    HW2  927   5.749   4.573   4.997 -0.1814  0.8479 -0.0637
   10SOL     OW  928   0.846   4.490   5.411 -0.4129 -0.1201  0.8015
   10SOL    HW1  929   0.919   4.447   5.358 -0.5272 -0.7536  1.1434
   10SOL    HW2  930   0.838   4.586   5.386  1.9227  0.5157  2.2162
   11SOL     OW  931   3.656   0.588   6.345  0.4440 -0.0985 -0.4545
   11SOL    HW1  932   3.601   0.530   6.285  1.6130 -0.8876 -0.8079
   11SOL    HW2  933   3.609   0.674   6.360 -2.2468 -1.7717  1.5853
   12SOL     OW  934   3.700   4.997   4.164 -0.1791 -0.2575  0.1742
   12SOL    HW1  935   3.610   4.973   4.199  1.1532 -0.5611  3.8563
   12SOL    HW2  936   3.746   4.914   4.131 -0.4571 -0.4601  0.2929
   13SOL     OW  937   3.135   5.132   3.472 -0.2150  0.9672 -0.5968
   13SOL    HW1  938   3.066   5.204   3.483  1.8673  3.1825 -1.2876
   13SOL    HW2  939   3.135   5.101   3.377 -0.0682  1.1565 -0.6578
   14SOL     OW  940   5.335   5.521   1.728 -0.5264 -0.6145 -0.1658
   14SOL    HW1  941   5.276   5.444   1.703 -0.5471 -0.3058 -1.0800
   14SOL    HW2  942   5.414   5.487   1.779 -0.4852 -1.2584 -0.6514
   15SOL     OW  943   1.648   6.145   0.003 -0.4937 -0.0139 -0.2012
   15SOL    HW1  944   1.636   6.207  -0.075  0.3489 -0.6059 -0.8166
   15SOL    HW2  945   1.620   6.053  -0.023 -1.9421  0.1210  0.7781
   16SOL     OW  946   6.496   1.516   3.787  0.0187 -0.1796  0.3849
   16SOL    HW1  947   6.525   1.457   3.711  1.8016  1.9021 -0.6711
   16SOL    HW2  948   6.557   1.504   3.864  0.2988  0.1549  0.2194
   17SOL     OW  949   4.385   6.822   4.266  0.9152  0.6332 -0.5941
   17SOL    HW1  950   4.323   6.806   4.189 -0.3271  1.2363  0.2471
   17SOL    HW2  951   4.425   6.734   4.295 -1.0099 -0.0913  0.0198
   18SOL     OW  952   2.572   2.037   6.066 -0.4246 -0.2087 -0.0674
   18SOL    HW1  953   2.601   1.947   6.033  0.2327  0.3420 -1.0226
   18SOL    HW2  954   2.548   2.095   5.989 -0.8323  0.4508  0.5442
   19SOL     OW  955   6.865   6.506   3.753  0.6270  0.3839 -0.5862
   19SOL    HW1  956   6.900   6.413   3.766  0.0691  0.1666 -0.5799
   19SOL    HW2  957   6.828   6.539   3.840  0.8716  0.6327 -0.5770
   20SOL     OW  958   3.988   1.043   3.885 -0.3089  0.3630  0.0140
   20SOL    HW1  959   4.046   1.033   3.966 -0.2439  1.4530  0.1187
   20SOL    HW2  960   4.042   1.030   3.803 -0.6793 -2.3393  0.1143
   21SOL     OW  961   3.709   2.105   2.332  0.4258 -0.3087 -0.3018
   21SOL    HW1  962   3.773   2.132   2.261  0.3468  0.6019 -0.0382
   21SOL    HW2  963   3.615   2.110   2.296  0.4873 -2.1190 -0.8457
   22SOL     OW  964   4.217   1.928   5.360 -0.0968 -0.1281 -0.8989
   22SOL    HW1  965   4.186   1.931   5.455 -1.4955  3.3087 -1.3255
   22SOL    HW2  966   4.137   1.928   5.299  0.7766 -0.0334 -2.0809
   23SOL     OW  967   3.400   6.749   2.878 -0.7078  0.4040 -0.0937
   23SOL    HW1  968   3.313   6.766   2.924 -1.4449  1.0862 -1.6820
   23SOL    HW2  969   3.385   6.738   2.780  0.6967 -2.0737 -0.0934
   24SOL     OW  970   6.446   1.407   1.066  0.0144 -0.0507 -0.1000
   24SOL    HW1  971   6.415   1.448   1.152 -0.6396 -0.6045 -0.0668
   24SOL    HW2  972   6.370   1.359   1.023  0.7927 -1.3615 -0.0650
   25SOL     OW  973   2.780   0.395   5.078  0.2632 -0.3329  0.1606
   25SOL    HW1  974   2.775   0.328   5.005  2.6596 -0.2771 -0.1136
   25SOL    HW2  975   2.736   0.357   5.160 -1.8919 -0.6346 -1.0556
   26SOL     OW  976   6.581   1.891   0.189 -0.2687  0.0955 -0.8004
   26SOL    HW1  977   6.583   1.964   0.257 -0.4797  0.9951 -1.7246
   26SOL    HW2  978   6.497   1.897   0.135 -1.1599 -1.9657  0.2704
   27SOL     OW  979   6.994   2.052   1.187 -0.0191  0.2052 -0.2393
   27SOL    HW1  980   7.009   1.990   1.110  0.7130 -0.9955  0.8369
   27SOL    HW2  981   6.916   2.019   1.241  0.2840  0.3039  0.2575
   28SOL     OW  982   4.605   1.062   6.249 -0.2380  0.2156  0.6446
   28SOL    HW1  983   4.514   1.097   6.227  0.1188  0.2428 -0.8654
   28SOL    HW2  984   4.640   1.109   6.330 -1.0919  1.0105  0.5684
   29SOL     OW  985   5.119   0.420   6.897  0.1760  0.1323  0.6373
   29SOL    HW1  986   5.047   0.431   6.829  0.4016 -0.8202  0.2286
   29SOL    HW2  987   5.184   0.496   6.891  0.1332  0.1118 -0.1365
   30SOL     OW  988   2.460   6.209   2.985  0.6681  0.3211  0.0571
   30SOL    HW1  989   2.479   6.263   2.902  0.8945 -0.3334 -0.3183
   30SOL    HW2  990   2.408   6.127   2.960 -0.6998  0.9301  0.7732
   31SOL     OW  991   1.000   1.458   5.321  0.1885  0.4103  0.4364
   31SOL    HW1  992   0.954   1.545   5.340  1.8505  0.8757  2.6531
   31SOL    HW2  993   0.961   1.386   5.379 -0.5353 -0.1734 -0.7186
   32SOL     OW  994   0.558   1.259   2.359  0.2444  0.1241 -0.1439
   32SOL    HW1  995   0.653   1.260   2.390  1.4195 -0.9687 -3.3200
   32SOL    HW2  996   0.550   1.316   2.277 -1.1725 -1.9111 -1.5079
   33SOL     OW  997   1.059   3.743   5.776 -0.1110 -0.2983 -0.7329
   33SOL    HW1  998   1.137   3.801   5.799 -1.9185  1.7958  0.4701
   33SOL    HW2  999   1.044   3.677   5.849 -0.3414  0.2833 -0.2487
   34SOL     OW 1000   2.177   1.072   3.358  0.1023 -0.4544  0.2203
   34SOL    HW1 1001   2.159   0.974   3.360 -1.3109 -0.2103  1.9827
   34SOL    HW2 1002   2.275   1.088   3.351  0.3580 -1.9790 -0.0243
   35SOL     OW 1003   0.795   1.219   0.446 -0.5021  0.0555 -0.1109
   35SOL    HW1 1004   0.791   1.206   0.347 -0.2239 -0.9453 -0.0020
   35SOL    HW2 1005   0.890   1.216   0.476 -0.5772  0.4682  0.1773
   36SOL     OW 1006   1.847   0.085   6.456 -0.1842 -0.0032  0.5487
   36SOL    HW1 1007   1.748   0.075   6.458 -0.5064  2.0666 -1.3090
   36SOL    HW2 1008   1.883   0.046   6.371  0.0322  2.7832 -0.7218
   37SOL     OW 1009   1.273   0.066   0.396 -0.0002  0.5168  0.3276
   37SOL    HW1 1010   1.182   0.028   0.380  1.3108 -1.9030 -2.0803
   37SOL    HW2 1011   1.292   0.137   0.328 -0.4222  1.8487  1.5303
   38SOL     OW 1012   0.694   4.600   3.454 -0.3331 -0.4517  0.0946
   38SOL    HW1 1013   0.734   4.612   3.545 -0.8545 -1.4999  0.4863
   38SOL    HW2 1014   0.759   4.552   3.395 -0.0197  0.1705 -0.0725
   39SOL     OW 1015   0.373   4.762   0.964  0.1604 -0.8122 -0.8481
   39SOL    HW1 1016   0.294   4.713   1.001  1.3548 -2.3528 -0.2122
   39SOL    HW2 1017   0.344   4.821   0.889 -2.0697  0.9741  1.2473
   40SOL     OW 1018   5.705   2.578   6.983 -0.0899  0.1951  0.5567
   40SOL    HW1 1019   5.736   2.519   7.058 -0.2646 -2.3763 -1.2656
   40SOL    HW2 1020   5.698   2.525   6.899 -2.2149  2.4036 -0.8078
   41SOL     OW 1021   0.816   0.211   2.498  0.2205 -0.3163  0.0028
   41SOL    HW1 1022   0.878   0.205   2.577  2.0492  1.4427 -1.2005
   41SOL    HW2 1023   0.785   0.306   2.488 -2.4624 -1.0806  0.3380
   42SOL     OW 1024   2.998   5.439   5.605  1.0296 -0.2382 -0.6500
   42SOL    HW1 1025   3.034   5.411   5.516  0.4878  1.5301 -1.4601
   42SOL    HW2 1026   2.952   5.528   5.597 -1.1671 -1.1361  0.8940
   43SOL     OW 1027   6.037   5.399   5.551 -0.3550  0.1154 -0.5651
   43SOL    HW1 1028   6.012   5.303   5.547  0.3465 -0.1601  1.1463
   43SOL    HW2 1029   6.132   5.410   5.521  0.0372  0.0670  0.6414
   44SOL     OW 1030   5.141   1.206   5.462  0.1830  0.6076 -0.0975
   44SOL    HW1 1031   5.056   1.186   5.511  0.0360 -1.3982 -1.0597
   44SOL    HW2 1032   5.129   1.184   5.365  1.2084  2.1912 -0.6156
   45SOL     OW 1033   2.403   6.239   3.520  0.3112  0.1083  0.3058
   45SOL    HW1 1034   2.474   6.301   3.489  1.0247 -0.6325  0.4140
   45SOL    HW2 1035   2.417   6.216   3.616 -0.7728  0.8743  0.6741
   46SOL     OW 1036   1.255   4.496   3.430  0.1698  0.6141 -0.1828
   46SOL    HW1 1037   1.281   4.414   3.379 -0.7278  0.9843 -1.2809
   46SOL    HW2 1038   1.181   4.543   3.382  0.4759  1.9201  0.5735
   47SOL     OW 1039   5.768   4.348   1.801 -0.4849  0.2948  0.7804
   47SOL    HW1 1040   5.696   4.409   1.769 -0.9284  0.2206  1.6088
   47SOL    HW2 1041   5.857   4.390   1.784 -0.5852 -0.3931 -1.9240
   48SOL     OW 1042   6.539   3.186   5.954  0.2564 -0.1850  0.2479
   48SOL    HW1 1043   6.450   3.148   5.932  0.7300 -1.6113  0.6783
   48SOL    HW2 1044   6.536   3.286   5.948 -2.0559 -0.0081  2.6734
   49SOL     OW 1045   5.045   3.886   1.739  0.3954 -0.4616  0.1452
   49SOL    HW1 1046   4.977   3.828   1.694  0.1047  0.2658 -0.3660
   49SOL    HW2 1047   5.114   3.828   1.783 -1.1142 -1.2496  1.5926
   50SOL     OW 1048   6.277   0.853   7.004 -0.4700  0.0963  0.0625
   50SOL    HW1 1049   6.359   0.905   6.983 -0.9695  1.5124  1.4341
   50SOL    HW2 1050   6.282   0.821   7.099 -0.4171 -1.9447 -0.5861
   51SOL     OW 1051   2.386   0.535   2.562 -0.3093  0.5985  0.2323
   51SOL    HW1 1052   2.453   0.576   2.500 -1.2617  0.4519 -0.9283
   51SOL    HW2 1053   2.434   0.481   2.631  0.8305  1.6044  0.2646
   52SOL     OW 1054   4.148   2.241   3.527 -0.5676  0.0957  0.0452
   52SOL    HW1 1055   4.211   2.262   3.453  0.9774  0.1154  1.3147
   52SOL    HW2 1056   4.058   2.220   3.490 -0.1593  1.3654 -1.7282
   53SOL     OW 1057   3.146   0.150   3.180  0.7352 -0.6161 -0.7520
   53SOL    HW1 1058   3.153   0.089   3.258 -3.3185 -1.8691 -1.1485
   53SOL    HW2 1059   3.067   0.210   3.190  1.3083  0.6755 -2.9744
   54SOL     OW 1060   3.628   3.412   5.107 -0.3076 -0.1158 -0.2122
   54SOL    HW1 1061   3.577   3.362   5.178 -0.1649 -0.4554 -0.3455
   54SOL    HW2 1062   3.570   3.424   5.027  0.6896 -3.1486 -1.5605
   55SOL     OW 1063   2.758   2.160   6.753 -0.0052  0.0782  0.2759
   55SOL    HW1 1064   2.673   2.214   6.752 -0.6689 -0.9332 -1.0192
   55SOL    HW2 1065   2.836   2.222   6.743 -0.3430  1.2716  3.5738
   56SOL     OW 1066   0.542   1.654   1.841 -1.0030 -0.4606  0.3429
   56SOL    HW1 1067   0.588   1.575   1.800  0.1708  0.4519 -0.1704
   56SOL    HW2 1068   0.502   1.627   1.929 -0.4420 -1.5740  0.2764
   57SOL     OW 1069   5.980   0.382   1.135 -0.0201 -0.0442  0.4637
   57SOL    HW1 1070   6.019   0.406   1.224 -1.9627 -2.7940  2.2114
   57SOL    HW2 1071   5.885   0.411   1.132 -0.0055 -0.0853 -0.7212
   58SOL     OW 1072   0.631   4.126   6.318 -0.2489  0.0092 -0.2629
   58SOL    HW1 1073   0.669   4.144   6.409 -1.9179 -0.8938  0.6719
   58SOL    HW2 1074   0.590   4.035   6.317 -2.5441  0.9795 -1.0803
   59SOL     OW 1075   3.340   2.251   6.649  0.1750  0.2848 -0.4259
   59SOL    HW1 1076   3.379   2.342   6.636  0.2923  0.4606  0.9744
   59SOL    HW2 1077   3.385   2.207   6.726 -0.6333 -0.5288 -0.4073
   60SOL     OW 1078   6.703   0.891   0.346  0.0726  0.2383 -0.3330
   60SOL    HW1 1079   6.767   0.946   0.292  1.3296 -0.1469  0.6781
   60SOL    HW2 1080   6.752   0.811   0.382 -0.6698  0.5334  1.4187
   61SOL     OW 1081   6.558   2.112   0.451  0.1440  0.4591  0.0064
   61SOL    HW1 1082   6.616   2.128   0.531  0.0182 -0.4673  0.2968
   61SOL    HW2 1083   6.462   2.124   0.477  0.1882  2.2295 -0.5318
   62SOL     OW 1084   1.049   0.370   3.589  0.3828  0.3607  0.1965
   62SOL    HW1 1085   1.089   0.385   3.499 -0.1573  2.5604  0.2794
   62SOL    HW2 1086   1.121   0.338   3.651  0.4262 -2.8823 -1.3259
   63SOL     OW 1087   4.469   1.401   3.113  0.4936  0.1100  0.0046
   63SOL    HW1 1088   4.445   1.473   3.178  0.0772 -0.9314  1.0584
   63SOL    HW2 1089   4.398   1.393   3.044 -0.3956 -0.4815  0.9509
   64SOL     OW 1090   6.612   5.212   5.140 -0.4819 -0.3331 -0.1601
   64SOL    HW1 1091   6.657   5.187   5.226  1.0736 -1.1711 -1.1690
   64SOL    HW2 1092   6.518   5.239   5.158 -0.0171  0.0794  1.8703
   65SOL     OW 1093   0.113   5.213   0.147  0.2116  0.3624  0.1897
   65SOL    HW1 1094   0.116   5.300   0.196 -0.6292  0.4100  0.1731
   65SOL    HW2 1095   0.202   5.195   0.105  0.3318  1.3265  0.0079
   66SOL     OW 1096   3.273   0.970   6.746 -0.3917  0.4351 -0.2846
   66SOL    HW1 1097   3.209   0.975   6.669  0.4576 -0.4334 -1.0611
   66SOL    HW2 1098   3.316   1.060   6.758  2.2210 -0.2576 -3.2585
   67SOL     OW 1099   5.145   4.334   4.584  0.2534  0.3555  0.2082
   67SOL    HW1 1100   5.161   4.432   4.599 -0.4017  0.9396 -2.3717
   67SOL    HW2 1101   5.151   4.286   4.671  2.2529  2.4299  1.3304
   68SOL     OW 1102   6.334   6.342   6.343  0.2522  0.1338 -0.1084
   68SOL    HW1 1103   6.299   6.251   6.319 -0.6251  0.7297 -1.2122
   68SOL    HW2 1104   6.428   6.334   6.374  0.4102 -1.0849 -0.8222
   69SOL     OW 1105   0.339   2.471   5.945 -0.1842  0.3815 -0.0366
   69SOL    HW1 1106   0.374   2.561   5.919 -1.0913  0.7512  0.0127
   69SOL    HW2 1107   0.348   2.409   5.868 -0.1118  0.6775 -0.2690
   70SOL     OW 1108   6.652   3.094   4.167 -0.0730 -0.2608  0.2043
   70SOL    HW1 1109   6.552   3.091   4.158 -0.1011  0.2434  0.3223
   70SOL    HW2 1110   6.683   3.189   4.164  0.7190 -0.5185 -3.2283
   71SOL     OW 1111   4.815   5.918   3.405  0.4998  0.7361 -0.1797
   71SOL    HW1 1112   4.792   5.833   3.451 -1.9662  1.5934  0.3336
   71SOL    HW2 1113   4.868   5.898   3.322 -0.2172 -1.2910 -0.2014
   72SOL     OW 1114   2.965   6.792   4.178 -0.2599 -0.1846  0.2664
   72SOL    HW1 1115   3.046   6.750   4.138  1.0571  0.8318  1.7588
   72SOL    HW2 1116   2.964   6.777   4.277  0.1796  3.0095  0.8525
   73SOL     OW 1117   2.975   6.176   1.703 -0.6875  0.3684 -0.3684
   73SOL    HW1 1118   2.966   6.099   1.767 -2.1525 -0.3793 -1.4011
   73SOL    HW2 1119   3.060   6.166   1.650  0.7709  1.2379  1.6920
   74SOL     OW 1120   5.123   4.747   6.304 -0.2386  0.2930 -0.4063
   74SOL    HW1 1121   5.205   4.759   6.249  0.5954 -0.7258  0.5687
   74SOL    HW2 1122   5.060   4.823   6.288  1.0176  1.2462 -0.9305
   75SOL     OW 1123   3.293   0.558   4.590 -0.3883  0.1706 -0.3364
   75SOL    HW1 1124   3.380   0.605   4.603  0.5754 -0.5342 -3.4129
   75SOL    HW2 1125   3.247   0.596   4.510 -1.2397 -1.7654 -0.8151
   76SOL     OW 1126   1.299   2.927   2.379 -0.2679  0.2065  0.1956
   76SOL    HW1 1127   1.211   2.915   2.334 -0.2441  0.2174  0.1459
   76SOL    HW2 1128   1.291   2.994   2.452  0.3864  2.6412 -1.7997
   77SOL     OW 1129   5.336   5.557   6.166 -0.4414 -0.0151  0.4082
   77SOL    HW1 1130   5.260   5.622   6.166 -0.9517 -0.5682  2.0636
   77SOL    HW2 1131   5.393   5.572   6.085 -1.9124  0.8695 -0.5024
   78SOL     OW 1132   6.316   0.208   5.435 -0.0410  0.0544  0.1805
   78SOL    HW1 1133   6.297   0.262   5.517  2.5637  0.9789  0.2518
   78SOL    HW2 1134   6.414   0.205   5.419 -0.4853  0.4093 -3.2749
   79SOL     OW 1135   4.285   0.113   6.845  0.1742  0.2427  0.0653
   79SOL    HW1 1136   4.316   0.146   6.756  0.2612 -1.3199 -0.5199
   79SOL    HW2 1137   4.188   0.089   6.840 -0.3355  1.9133  0.9510
   80SOL     OW 1138   5.847   1.535   5.206 -0.6281  0.1292 -0.2619
   80SOL    HW1 1139   5.884   1.446   5.233 -0.5814  0.2987  0.2573
   80SOL    HW2 1140   5.749   1.527   5.189 -0.2968 -0.4217 -2.1072
   81SOL     OW 1141   6.632   0.926   1.671  0.4275  0.2388 -0.1563
   81SOL    HW1 1142   6.634   0.974   1.758  0.3966 -1.5415  0.8711
   81SOL    HW2 1143   6.709   0.862   1.666 -1.6234 -2.4110  0.2365
   82SOL     OW 1144   0.227   5.661   1.187  0.2108 -0.9507 -0.6459
   82SOL    HW1 1145   0.249   5.759   1.183  0.9012 -1.0980 -0.5380
   82SOL    HW2 1146   0.225   5.632   1.283 -3.4524 -0.2891 -0.3650
   83SOL     OW 1147   5.924   1.724   0.362  0.7742 -0.2591 -0.2495
   83SOL    HW1 1148   6.016   1.722   0.400  1.0288  1.9033 -0.5968
   83SOL    HW2 1149   5.910   1.810   0.314 -1.7201 -0.1427  0.5302
   84SOL     OW 1150   5.253   2.193   4.190 -0.1082  0.3121 -0.2345
   84SOL    HW1 1151   5.237   2.229   4.282 -0.2924 -0.6419  0.1162
   84SOL    HW2 1152   5.174   2.215   4.132 -0.8336 -0.6669  0.3406
   85SOL     OW 1153   1.830   2.878   4.366 -0.0805  0.0949  0.5892
   85SOL    HW1 1154   1.808   2.943   4.293  1.4575  0.0617  0.0419
   85SOL    HW2 1155   1.841   2.927   4.452  0.2421  0.4560  0.3477
   86SOL     OW 1156   6.605   1.843   5.249  0.1241 -0.0983 -0.1659
   86SOL    HW1 1157   6.695   1.803   5.231 -0.1978 -1.0049  0.1780
   86SOL    HW2 1158   6.613   1.913   5.320  0.5164 -0.3827  0.0763
   87SOL     OW 1159   6.036   3.914   2.243 -0.6146 -0.1796 -0.3300
   87SOL    HW1 1160   6.079   3.998   2.275  1.3747 -1.7529  1.4139
   87SOL    HW2 1161   6.035   3.912   2.143 -0.3718  1.7072 -0.3963
   88SOL     OW 1162   4.950   1.793   5.869 -0.2828 -0.7930  0.0174
   88SOL    HW1 1163   4.914   1.880   5.901  0.6415 -1.0849  2.0139
   88SOL    HW2 1164   4.979   1.801   5.773  0.8276  1.4298  0.4869
   89SOL     OW 1165   6.305   2.411   4.607  0.2258  0.4838 -0.1989
   89SOL    HW1 1166   6.234   2.372   4.666  0.1305  2.3191  0.9711
   89SOL    HW2 1167   6.371   2.340   4.585  0.6417 -0.1824  2.7046
   90SOL     OW 1168   6.462   6.415   2.100  0.1228  0.3503  0.1351
   90SOL    HW1 1169   6.379   6.455   2.139  0.3316  1.3358 -0.3873
   90SOL    HW2 1170   6.437   6.339   2.040 -0.3787  0.4254  0.2431
   91SOL     OW 1171   4.194   3.079   6.389  0.0013  0.3743  0.1510
   91SOL    HW1 1172   4.198   3.037   6.298 -1.2163  1.3143 -0.3636
   91SOL    HW2 1173   4.287   3.103   6.418  0.2663  1.8686 -1.7377
   92SOL     OW 1174   2.538   3.434   6.724  0.3976  0.3429 -0.2588
   92SOL    HW1 1175   2.598   3.355   6.731  1.5955  1.1643 -1.0122
   92SOL    HW2 1176   2.493   3.435   6.635  0.8026  0.7800 -0.4666
   93SOL     OW 1177   2.200   5.077   5.907  0.2315  0.1287  0.2040
   93SOL    HW1 1178   2.182   4.979   5.899  1.2239  0.0171 -1.0424
   93SOL    HW2 1179   2.269   5.092   5.979 -0.8399  0.0539  1.2689
   94SOL     OW 1180   1.421   4.152   4.687 -0.1088 -0.1361 -0.7905
   94SOL    HW1 1181   1.435   4.070   4.743 -2.3605 -1.3716 -1.9239
   94SOL    HW2 1182   1.419   4.127   4.590 -1.8202  1.0621 -1.1142
   95SOL     OW 1183   0.749   0.962   3.212 -0.0326  0.0609  0.0052
   95SOL    HW1 1184   0.778   0.875   3.174 -0.2740 -0.3507  0.7452
   95SOL    HW2 1185   0.663   0.949   3.262  0.5035  0.4990  1.0575
   96SOL     OW 1186   2.275   0.973   5.041  0.6344 -0.7716 -0.1775
   96SOL    HW1 1187   2.220   0.890   5.046  1.0811 -1.0161  0.9724
   96SOL    HW2 1188   2.354   0.964   5.102  0.8759  0.3581 -0.3108
   97SOL     OW 1189   1.030   4.345   4.653  0.1285 -0.5049 -0.4019
   97SOL    HW1 1190   0.949   4.341   4.596  0.8321  1.7550 -1.6401
   97SOL    HW2 1191   1.112   4.346   4.596  1.0713 -2.0845  0.8047
   98SOL     OW 1192   4.904   4.054   0.134 -0.3668 -0.1470 -0.4572
   98SOL    HW1 1193   4.948   4.107   0.062  1.9645 -1.8150 -0.4175
   98SOL    HW2 1194   4.866   3.970   0.095  2.5809 -2.0049  0.3314
   99SOL     OW 1195   6.769   3.043   0.728  0.1833 -0.1421 -0.1186
   99SOL    HW1 1196   6.819   3.111   0.674  1.8834 -0.7758  0.5710
   99SOL    HW2 1197   6.752   3.080   0.820  0.4455 -0.3663  0.0215
  100SOL     OW 1198   5.962   1.388   4.764  0.3096  0.4930 -0.3138
  100SOL    HW1 1199   6.032   1.458   4.783  0.6922  0.0320 -0.0055
  100SOL    HW2 1200   5.884   1.403   4.825  0.5365  0.4467 -0.0073
  101SOL     OW 1201   2.419   5.279   1.285  0.5266  0.2310  0.0657
  101SOL    HW1 1202   2.489   5.208   1.298  1.9760  1.4207 -0.8931
  101SOL    HW2 1203   2.350   5.270   1.356  1.5506 -1.1068  0.9631
  102SOL     OW 1204   3.151   7.001   2.036  0.4197 -0.0447  0.1289
  102SOL    HW1 1205   3.103   6.918   2.063 -1.3802  1.2122  1.0529
  102SOL    HW2 1206   3.249   6.986   2.039  0.1271 -2.3868 -0.6533
  103SOL     OW 1207   0.497   0.090   2.237 -0.0773 -0.0012  0.2745
  103SOL    HW1 1208   0.543   0.014   2.282  1.6822  0.5654 -0.5030
  103SOL    HW2 1209   0.524   0.176   2.280 -0.0423  0.3837 -0.5088
  104SOL     OW 1210   2.168   3.715   2.700  0.3122  0.5897 -0.1228
  104SOL    HW1 1211   2.171   3.645   2.629  1.9882 -0.5715  1.0275
  104SOL    HW2 1212   2.119   3.680   2.779 -0.3705  1.3829 -0.1812
  105SOL     OW 1213   6.390   3.153   6.697 -0.2921  0.5492 -0.1826
  105SOL    HW1 1214   6.333   3.223   6.740  0.0051  0.3122  0.6178
  105SOL    HW2 1215   6.333   3.092   6.643 -0.2508  3.1368 -3.4058
  106SOL     OW 1216   3.139   6.262   4.354 -0.0322  0.4125  0.7718
  106SOL    HW1 1217   3.085   6.200   4.295  0.8882  1.3345 -1.1368
  106SOL    HW2 1218   3.190   6.208   4.420 -1.2443 -0.6709  0.8743
  107SOL     OW 1219   3.438   2.128   2.261 -0.1697  0.2341  0.5848
  107SOL    HW1 1220   3.445   2.080   2.173 -1.4769  0.4246  0.3681
  107SOL    HW2 1221   3.430   2.226   2.244 -2.0823  0.1409  0.8359
  108SOL     OW 1222   2.617   4.829   6.138 -0.3356  0.6130  0.0132
  108SOL    HW1 1223   2.540   4.767   6.134 -0.3193  0.6106 -0.2907
  108SOL    HW2 1224   2.657   4.839   6.046  0.6311 -0.1521  0.3274
  109SOL     OW 1225   6.474   0.384   2.078 -0.3723  0.7055 -0.0362
  109SOL    HW1 1226   6.573   0.398   2.086 -0.1853  0.2961 -1.4354
  109SOL    HW2 1227   6.445   0.313   2.143  0.5551 -0.4386 -0.8390
  110SOL     OW 1228   4.172   5.552   4.922  0.5890 -0.2872 -0.7248
  110SOL    HW1 1229   4.088   5.564   4.870  0.2785 -0.4776 -0.2743
  110SOL    HW2 1230   4.198   5.640   4.963  0.9583 -0.0850 -1.3773
  111SOL     OW 1231   2.224   2.015   4.358 -0.0426 -0.1263 -0.4746
  111SOL    HW1 1232   2.206   2.010   4.260 -1.0441 -1.9559 -0.2348
  111SOL    HW2 1233   2.165   1.951   4.407  0.6863  0.4824  1.3020
  112SOL     OW 1234   5.456   0.953   5.269 -0.2930 -0.2525 -0.1908
  112SOL    HW1 1235   5.446   0.959   5.170 -2.0443  1.0781  0.0074
  112SOL    HW2 1236   5.422   0.864   5.300 -1.1821 -0.0912 -0.6644
  113SOL     OW 1237   0.646   5.406   3.027 -0.2873 -0.0035 -0.2597
  113SOL    HW1 1238   0.639   5.312   2.994 -1.5422  0.3512 -1.0472
  113SOL    HW2 1239   0.561   5.432   3.072 -0.1470  0.9314 -0.5195
  114SOL     OW 1240   2.032   0.237   6.643 -0.1580  0.4457 -0.1293
  114SOL    HW1 1241   1.984   0.220   6.557  1.1119 -0.5338 -0.6610
  114SOL    HW2 1242   2.125   0.201   6.638 -0.0479  0.3826  1.6497
  115SOL     OW 1243   2.044   0.147   1.494  0.0529  0.4853 -0.4443
  115SOL    HW1 1244   2.087   0.189   1.415 -0.5715  1.1241 -0.4591
  115SOL    HW2 1245   2.012   0.055   1.470  1.1657  0.0925 -0.4962
  116SOL     OW 1246   5.519   4.643   1.823  0.2374  0.2795  0.4862
  116SOL    HW1 1247   5.559   4.608   1.738 -0.1263  0.0462  0.4072
  116SOL    HW2 1248   5.452   4.578   1.857  0.6730  0.1810  1.1771
  117SOL     OW 1249   1.386   2.106   6.821  0.0126  0.1063  0.4062
  117SOL    HW1 1250   1.400   2.007   6.822 -0.8000 -0.0394 -0.6959
  117SOL    HW2 1251   1.473   2.151   6.799 -0.2273 -0.5698 -2.2843
  118SOL     OW 1252   2.221   1.404   3.941 -0.3185 -0.3185  0.7820
  118SOL    HW1 1253   2.225   1.503   3.949 -1.9718 -0.3473  2.7075
  118SOL    HW2 1254   2.201   1.364   4.031  1.1546 -2.4674  0.2343
  119SOL     OW 1255   1.874   1.398   6.736 -0.2785 -0.3672  0.6858
  119SOL    HW1 1256   1.893   1.374   6.831 -0.0574 -1.3748  0.3922
  119SOL    HW2 1257   1.943   1.464   6.704  0.0738 -0.5780  1.0013
  120SOL     OW 1258   0.446   6.488   6.929  0.3832  0.0645  0.0216
  120SOL    HW1 1259   0.375   6.546   6.970  0.4410 -2.0655  3.4491
  120SOL    HW2 1260   0.422   6.470   6.833 -0.6381  3.9567 -0.6369
  121SOL     OW 1261   1.636   2.775   5.923  0.4454  0.1445 -0.0108
  121SOL    HW1 1262   1.670   2.681   5.925 -1.3071 -0.5271 -0.1092
  121SOL    HW2 1263   1.584   2.794   6.006  0.9507  1.1199  0.1028
  122SOL     OW 1264   1.957   4.506   6.936 -0.1802  0.4036  0.3233
  122SOL    HW1 1265   1.880   4.562   6.906 -0.8340 -0.2423  0.7758
  122SOL    HW2 1266   2.030   4.512   6.867 -0.2637  1.7134  0.3083
  123SOL     OW 1267   6.772   3.232   1.766 -0.7247  0.0651 -0.1319
  123SOL    HW1 1268   6.682   3.270   1.784 -1.3446 -1.7604  0.8597
  123SOL    HW2 1269   6.786   3.226   1.667 -0.4607  3.0241 -0.3484
  124SOL     OW 1270   5.717   2.955   5.642 -0.5111  0.4027 -1.0000
  124SOL    HW1 1271   5.805   2.988   5.608  0.9150 -1.0338  1.0675
  124SOL    HW2 1272   5.674   2.898   5.571  1.3685 -0.8136 -1.2496
  125SOL     OW 1273   1.805   2.508   0.990  0.0939  0.1158  0.6903
  125SOL    HW1 1274   1.717   2.466   0.964 -0.1359  0.6992  0.5001
  125SOL    HW2 1275   1.808   2.602   0.955  1.1331 -0.1607 -0.0198
  126SOL     OW 1276   3.280   2.768   0.731 -0.2040  1.2127 -0.0413
  126SOL    HW1 1277   3.380   2.776   0.739 -0.1393  0.5201 -0.1542
  126SOL    HW2 1278   3.237   2.824   0.802  0.2825  0.7844  0.6005
  127SOL     OW 1279   7.009   5.534   5.365 -0.0433  0.1024 -0.2192
  127SOL    HW1 1280   6.928   5.593   5.376  0.0821  0.1703  0.3699
  127SOL    HW2 1281   7.028   5.488   5.451  1.1117  0.8087 -0.0877
  128SOL     OW 1282   5.129   2.020   1.344  0.0835 -0.6474  0.1643
  128SOL    HW1 1283   5.139   1.921   1.336  3.2010 -0.4990  0.8615
  128SOL    HW2 1284   5.092   2.058   1.259  0.3403 -2.2418 -0.6900
  129SOL     OW 1285   1.210   4.562   5.223  0.0346 -0.4284 -0.1174
  129SOL    HW1 1286   1.221   4.656   5.256  0.6334 -0.4283 -0.3095
  129SOL    HW2 1287   1.300   4.521   5.210 -0.1884 -0.4105 -1.8392
  130SOL     OW 1288   6.636   3.231   5.040 -0.2776 -0.0879 -0.1494
  130SOL    HW1 1289   6.591   3.144   5.059 -1.5429  0.5541 -0.1255
  130SOL    HW2 1290   6.668   3.232   4.945  0.8451 -1.0339  0.1952
  131SOL     OW 1291   3.758   1.673   5.419 -0.4338  0.1783  0.1053
  131SOL    HW1 1292   3.665   1.690   5.386 -0.4149  0.9214  0.4140
  131SOL    HW2 1293   3.757   1.666   5.519 -0.5025 -2.1315 -0.0044
  132SOL     OW 1294   3.934   3.222   6.375  0.3504  0.1512 -0.6127
  132SOL    HW1 1295   3.948   3.321   6.374  0.5273  0.1485  0.3918
  132SOL    HW2 1296   4.010   3.177   6.327  0.5386  0.4726 -0.6185
  133SOL     OW 1297   5.482   5.460   4.402 -0.0094 -0.2586  0.4324
  133SOL    HW1 1298   5.432   5.526   4.458 -2.0932  0.4649 -2.1072
  133SOL    HW2 1299   5.479   5.370   4.447 -1.5731  0.2909  1.5048
  134SOL     OW 1300   5.406   1.025   3.506  0.1960  0.2736 -0.4893
  134SOL    HW1 1301   5.453   1.102   3.547  1.0482 -0.7130  0.4519
  134SOL    HW2 1302   5.314   1.053   3.476  0.5220  1.6415 -0.2416
  135SOL     OW 1303   5.732   3.596   3.726 -0.4770  0.2786 -0.1303
  135SOL    HW1 1304   5.787   3.665   3.678 -1.4892  1.4802  0.3655
  135SOL    HW2 1305   5.791   3.520   3.753  1.0085  1.6068  0.5776
  136SOL     OW 1306   2.962   2.265   6.448 -0.2504 -0.0369  0.4869
  136SOL    HW1 1307   2.898   2.195   6.418 -0.3243  0.0763  0.3843
  136SOL    HW2 1308   3.055   2.238   6.422 -0.2366 -0.2761  0.7728
  137SOL     OW 1309   4.634   1.799   4.807 -0.4254 -0.2989 -0.1882
  137SOL    HW1 1310   4.682   1.794   4.720 -1.8357 -0.9414 -0.9461
  137SOL    HW2 1311   4.570   1.876   4.806 -0.7443 -0.5543  0.1252
  138SOL     OW 1312   0.687   3.061   2.429 -0.2067 -0.1349 -0.3548
  138SOL    HW1 1313   0.650   2.994   2.364  1.1277 -0.9424 -0.3234
  138SOL    HW2 1314   0.683   3.023   2.521  1.8281 -0.8060 -0.4909
  139SOL     OW 1315   1.648   6.660   4.583 -0.8439  0.1473 -0.3421
  139SOL    HW1 1316   1.723   6.657   4.650  0.3372 -0.6572 -1.6540
  139SOL    HW2 1317   1.572   6.711   4.622  0.0056  0.1705  1.4127
  140SOL     OW 1318   2.075   6.543   3.279  0.4330 -0.6684  0.0403
  140SOL    HW1 1319   2.114   6.590   3.358  0.0164  0.8388 -0.6113
  140SOL    HW2 1320   2.046   6.450   3.306 -0.2225  0.0024  1.8043
  141SOL     OW 1321   6.978   2.927   4.465  0.2882  0.1366  0.4741
  141SOL    HW1 1322   6.946   2.886   4.380  1.3195  1.4355 -0.5833
  141SOL    HW2 1323   6.917   3.003   4.490 -0.0483 -0.2802  0.9548
  142SOL     OW 1324   1.434   2.745   5.674 -0.2801  0.4050 -0.0926
  142SOL    HW1 1325   1.501   2.740   5.599  0.0946 -0.5689  0.2872
  142SOL    HW2 1326   1.473   2.796   5.750 -0.1316  0.2005 -0.0320
  143SOL     OW 1327   5.703   5.738   1.930  0.1379 -0.2396  0.5393
  143SOL    HW1 1328   5.763   5.766   2.005  0.9577  0.7387 -0.4532
  143SOL    HW2 1329   5.721   5.642   1.907 -1.0049 -0.9535  2.3809
  144SOL     OW 1330   0.762   5.399   6.825 -0.4876 -0.0973  0.2857
  144SOL    HW1 1331   0.811   5.312   6.819 -0.6029 -0.1167 -0.5441
  144SOL    HW2 1332   0.828   5.474   6.832 -0.3637 -0.1906  0.1174
  145SOL     OW 1333   0.899   4.357   0.097 -0.0526 -0.2192  0.5220
  145SOL    HW1 1334   0.961   4.282   0.122  1.9243  0.6600 -1.4212
  145SOL    HW2 1335   0.831   4.322   0.031  1.2099 -0.2589 -0.8195
  146SOL     OW 1336   6.359   5.693   5.766 -0.1656 -0.0089  0.2203
  146SOL    HW1 1337   6.417   5.722   5.842 -0.3749 -1.2774  0.8909
  146SOL    HW2 1338   6.263   5.693   5.795 -0.0377 -3.7071  1.1550
  147SOL     OW 1339   5.260   1.333   1.168  0.0818 -0.6004 -0.1238
  147SOL    HW1 1340   5.223   1.385   1.245 -1.5831 -0.3143 -1.0761
  147SOL    HW2 1341   5.337   1.383   1.127  1.0305 -0.7928  1.3472
  148SOL     OW 1342   1.201   6.769   6.793 -0.2275  0.1091  0.2651
  148SOL    HW1 1343   1.214   6.728   6.703  2.8199 -0.6007  0.9403
  148SOL    HW2 1344   1.170   6.864   6.782  1.0512  0.3654 -1.6005
  149SOL     OW 1345   2.794   2.038   5.019 -0.3497  0.6248 -0.2322
  149SOL    HW1 1346   2.836   2.032   4.928 -0.9103  1.3981 -0.5482
  149SOL    HW2 1347   2.815   1.954   5.070 -1.1552 -0.4192 -1.5428
  150SOL     OW 1348   5.788   5.336   4.427 -0.2730 -0.2972  0.3995
  150SOL    HW1 1349   5.807   5.332   4.329 -1.0731 -4.1738  0.2575
  150SOL    HW2 1350   5.691   5.354   4.442 -0.2362 -0.1480  0.4609
  151SOL     OW 1351   3.243   1.174   0.620  0.1725  0.4352 -0.5812
  151SOL    HW1 1352   3.170   1.227   0.663  0.0613 -0.6733  0.6643
  151SOL    HW2 1353   3.308   1.237   0.576 -1.3537  1.4496 -1.4852
  152SOL     OW 1354   0.798   0.377   3.785 -0.2620 -0.2560  0.4246
  152SOL    HW1 1355   0.829   0.345   3.874  0.9863  2.9098  1.2700
  152SOL    HW2 1356   0.876   0.379   3.721 -0.3786  0.7124  0.3051
  153SOL     OW 1357   1.152   0.494   0.334  0.1792  0.4443  0.1134
  153SOL    HW1 1358   1.111   0.447   0.412 -0.2083  0.2351 -0.2147
  153SOL    HW2 1359   1.252   0.485   0.339  0.1110 -0.5166  0.0015
  154SOL     OW 1360   1.603   1.731   4.025 -0.2554 -0.6678  0.0396
  154SOL    HW1 1361   1.644   1.749   3.936 -2.4573 -1.1012 -1.1576
  154SOL    HW2 1362   1.665   1.759   4.097  1.0807  0.9346 -1.6347
  155SOL     OW 1363   0.370   1.599   1.306 -0.4667  0.0317  0.0047
  155SOL    HW1 1364   0.432   1.550   1.245 -0.5670  1.1030 -0.9882
  155SOL    HW2 1365   0.411   1.604   1.397  0.0332 -0.9206 -0.1517
  156SOL     OW 1366   6.774   0.785   6.501  0.2563 -0.0456 -0.5566
  156SOL    HW1 1367   6.696   0.834   6.539 -0.3799 -1.2319 -0.2564
  156SOL    HW2 1368   6.859   0.824   6.536 -0.1412  1.8414 -1.5952
  157SOL     OW 1369   6.706   3.438   6.401 -0.1710  0.2569 -0.5701
  157SOL    HW1 1370   6.746   3.371   6.339  0.0061 -1.7392  1.5645
  157SOL    HW2 1371   6.608   3.446   6.382 -0.0505 -0.0056 -1.3399
  158SOL     OW 1372   0.283   0.707   0.184  0.0279  0.3271 -0.1030
  158SOL    HW1 1373   0.338   0.679   0.106  0.2365 -0.5085  0.3335
  158SOL    HW2 1374   0.340   0.759   0.248 -0.5901  2.7251 -1.3817
  159SOL     OW 1375   2.976   4.836   1.141 -0.1406  0.2951  0.1382
  159SOL    HW1 1376   2.886   4.846   1.097 -1.6375 -0.4324  2.7967
  159SOL    HW2 1377   2.991   4.912   1.204  1.1030  0.3682 -0.2313
  160SOL     OW 1378   6.349   4.392   1.375  0.1056  0.3076  0.1322
  160SOL    HW1 1379   6.425   4.379   1.312 -0.4256  0.8067 -0.6333
  160SOL    HW2 1380   6.365   4.474   1.430 -0.5368  1.2702 -1.0612
  161SOL     OW 1381   0.839   5.941   2.760  0.7067 -0.1523 -0.2399
  161SOL    HW1 1382   0.913   5.880   2.786  0.7131 -0.4610 -0.9554
  161SOL    HW2 1383   0.789   5.970   2.841 -0.2534 -2.3378  0.0119
  162SOL     OW 1384   2.801   6.673   1.183  0.0803 -0.5318 -0.1315
  162SOL    HW1 1385   2.768   6.657   1.090  1.1339 -3.5152 -0.0842
  162SOL    HW2 1386   2.723   6.686   1.244 -0.7093 -0.6772 -1.0788
  163SOL     OW 1387   0.483   6.671   1.172 -0.2755 -0.5519 -0.5482
  163SOL    HW1 1388   0.504   6.720   1.087  0.8501  0.3140  0.2067
  163SOL    HW2 1389   0.452   6.736   1.241  0.6820 -0.9670  0.2930
  164SOL     OW 1390   6.649   4.789   0.290 -0.5179  0.1453  0.4136
  164SOL    HW1 1391   6.749   4.788   0.286 -0.5443  0.9300 -1.1005
  164SOL    HW2 1392   6.618   4.883   0.304 -1.0682  0.1558 -0.7708
  165SOL     OW 1393   5.960   3.188   1.660 -0.0821 -0.4644 -0.3294
  165SOL    HW1 1394   6.025   3.258   1.689 -1.7535  1.1851 -0.3800
  165SOL    HW2 1395   5.954   3.187   1.560  0.2233 -0.9509 -0.3432
  166SOL     OW 1396   0.896   6.556   3.173  0.0763  0.7262 -0.2047
  166SOL    HW1 1397   0.987   6.569   3.213  0.4694 -1.2899 -0.3372
  166SOL    HW2 1398   0.850   6.645   3.166  1.5380  1.6394  1.0027
  167SOL     OW 1399   6.217   2.840   0.784  0.3535 -0.1589 -0.4038
  167SOL    HW1 1400   6.257   2.913   0.729 -0.6718  0.1023 -0.8231
  167SOL    HW2 1401   6.265   2.754   0.766 -0.5913 -0.2918 -2.4786
  168SOL     OW 1402   2.166   2.587   3.021  0.4370 -0.5858  0.2530
  168SOL    HW1 1403   2.131   2.646   3.094  1.8892  0.2232  0.3277
  168SOL    HW2 1404   2.159   2.491   3.049 -1.9581 -0.5006  0.1289
  169SOL     OW 1405   2.368   5.652   1.387  0.0517 -0.2484  0.3176
  169SOL    HW1 1406   2.458   5.670   1.426 -0.4948 -0.0603  1.5481
  169SOL    HW2 1407   2.373   5.570   1.329  0.3387 -2.3286  3.0844
  170SOL     OW 1408   0.847   0.470   4.425 -0.1031  0.3916 -0.7536
  170SOL    HW1 1409   0.751   0.490   4.445 -0.3327 -0.8684 -0.5179
  170SOL    HW2 1410   0.903   0.497   4.504 -0.7460 -2.4168  0.8044
  171SOL     OW 1411   3.450   6.372   0.751  0.0689 -0.3742 -0.3784
  171SOL    HW1 1412   3.519   6.309   0.717 -0.1355 -0.2702 -1.0114
  171SOL    HW2 1413   3.392   6.325   0.818 -0.2369 -0.9402 -1.0278
  172SOL     OW 1414   4.991   2.592   4.866 -0.2182 -0.0953  0.4274
  172SOL    HW1 1415   5.002   2.686   4.832  1.2167 -0.1609  0.6637
  172SOL    HW2 1416   4.931   2.542   4.804  1.0410  0.2505 -1.1417
  173SOL     OW 1417   6.042   3.408   4.467  0.6322 -0.3547  0.7260
  173SOL    HW1 1418   5.946   3.412   4.495 -0.0876  0.2332 -1.6151
  173SOL    HW2 1419   6.096   3.364   4.539 -1.3368 -0.5090  2.1874
  174SOL     OW 1420   2.748   5.154   4.815 -0.3107  0.0256  0.1162
  174SOL    HW1 1421   2.658   5.169   4.775 -0.1153  1.0821  0.0488
  174SOL    HW2 1422   2.760   5.213   4.895 -0.3727 -1.4434  1.2703
  175SOL     OW 1423   3.060   0.620   2.253  0.3932  0.2337 -0.5857
  175SOL    HW1 1424   3.061   0.676   2.336 -2.0079 -0.5214  0.0306
  175SOL    HW2 1425   3.022   0.530   2.274  0.8482 -0.3916 -2.2823
  176SOL     OW 1426   2.489   5.050   1.812 -0.1825  0.2663 -0.0621
  176SOL    HW1 1427   2.529   5.061   1.903  0.6782  0.1885 -0.4291
  176SOL    HW2 1428   2.501   5.135   1.760 -1.4524  0.6225  0.1867
  177SOL     OW 1429   6.934   3.738   1.617  0.0800  0.0708  0.0893
  177SOL    HW1 1430   6.852   3.681   1.624  0.6185 -0.8456 -0.8245
  177SOL    HW2 1431   7.008   3.696   1.669  0.5533 -0.2318 -0.8007
  178SOL     OW 1432   2.336   3.841   6.402  0.1790 -0.0238  0.0286
  178SOL    HW1 1433   2.264   3.827   6.334  1.4113 -0.8045 -1.1763
  178SOL    HW2 1434   2.320   3.927   6.450 -0.9993  0.3149 -0.9034
  179SOL     OW 1435   3.224   1.948   6.513  0.0241  0.2017 -0.2756
  179SOL    HW1 1436   3.232   2.026   6.452 -0.1141  0.7281  0.3662
  179SOL    HW2 1437   3.289   1.957   6.589 -1.8939  1.1548  1.3488
  180SOL     OW 1438   1.289   6.640   6.067 -0.1786  0.3594  0.0887
  180SOL    HW1 1439   1.337   6.636   5.979 -1.9091  0.1909 -0.9060
  180SOL    HW2 1440   1.272   6.547   6.099 -1.7754  0.3392 -0.7219
  181SOL     OW 1441   3.511   1.286   1.898  0.5676  0.0469  0.5238
  181SOL    HW1 1442   3.504   1.190   1.869  0.3056  0.0795  0.4810
  181SOL    HW2 1443   3.578   1.333   1.841  0.7234 -0.1179  0.5664
  182SOL     OW 1444   4.004   6.150   2.321  0.2550  0.2066 -0.0753
  182SOL    HW1 1445   4.015   6.053   2.342  0.3133  0.4259  0.9152
  182SOL    HW2 1446   4.086   6.183   2.275  0.1303 -0.2684 -0.6578
  183SOL     OW 1447   4.493   1.415   3.949 -0.2850  0.0714 -0.3057
  183SOL    HW1 1448   4.587   1.400   3.918 -0.0676  0.5136  0.1194
  183SOL    HW2 1449   4.452   1.328   3.975 -0.8778 -0.5075 -2.9122
  184SOL     OW 1450   2.371   5.029   3.891 -0.0450 -0.5361 -0.0327
  184SOL    HW1 1451   2.456   5.041   3.840  0.7707 -1.8576  0.9344
  184SOL    HW2 1452   2.382   4.953   3.955 -1.5991  0.0009  0.9080
  185SOL     OW 1453   0.755   1.262   5.789 -0.4020 -0.1516  0.4196
  185SOL    HW1 1454   0.669   1.297   5.826 -0.6103  0.6533 -0.7983
  185SOL    HW2 1455   0.737   1.182   5.732 -0.4246  0.4527 -0.4224
  186SOL     OW 1456   6.381   2.183   3.684  0.4677  0.8412 -0.2503
  186SOL    HW1 1457   6.376   2.263   3.744  3.2769  0.7769  0.1939
  186SOL    HW2 1458   6.355   2.209   3.591 -3.0702  1.1528  0.6858
  187SOL     OW 1459   5.564   0.373   2.702 -0.3883  0.1638  0.5448
  187SOL    HW1 1460   5.539   0.327   2.617  0.8287  0.1151  0.1935
  187SOL    HW2 1461   5.488   0.431   2.732 -0.9571 -0.0744 -0.3856
  188SOL     OW 1462   6.962   1.721   2.801 -0.1577  0.1643  0.2808
  188SOL    HW1 1463   6.985   1.722   2.899 -0.0168 -1.0533  0.2819
  188SOL    HW2 1464   6.932   1.812   2.773  0.0771  0.6062  1.3913
  189SOL     OW 1465   2.578   5.619   2.106  0.1347 -0.1991 -0.3249
  189SOL    HW1 1466   2.568   5.543   2.170  1.4178  0.2949  0.4997
  189SOL    HW2 1467   2.574   5.584   2.012 -0.0073 -1.1784  0.0308
  190SOL     OW 1468   3.081   2.174   3.835 -0.2326 -0.0709  0.4483
  190SOL    HW1 1469   3.020   2.176   3.757  0.3228  1.2345  0.0056
  190SOL    HW2 1470   3.029   2.190   3.919 -0.7350 -0.8110  0.2853
  191SOL     OW 1471   6.024   0.500   5.523  0.0123  0.5442  0.0956
  191SOL    HW1 1472   6.079   0.528   5.601  0.1320  0.6990 -0.0432
  191SOL    HW2 1473   6.009   0.579   5.463 -0.8630  0.6498  0.4312
  192SOL     OW 1474   6.329   5.101   3.125 -0.1103  0.7700  0.9300
  192SOL    HW1 1475   6.357   5.168   3.057 -1.0309  1.0095  0.7670
  192SOL    HW2 1476   6.287   5.147   3.203  1.3811  0.5368  1.9164
  193SOL     OW 1477   4.332   1.080   0.836  0.1762 -0.1989  0.3842
  193SOL    HW1 1478   4.334   1.079   0.736  1.7842  0.5172  0.3736
  193SOL    HW2 1479   4.303   0.990   0.869 -0.6115 -0.3713 -0.7200
  194SOL     OW 1480   5.368   6.485   2.567 -0.0324  0.3129 -0.0822
  194SOL    HW1 1481   5.278   6.484   2.523  0.5838  0.2917 -1.3874
  194SOL    HW2 1482   5.435   6.439   2.509  0.7962  0.1457  0.9626
  195SOL     OW 1483   0.188   6.648   5.408  0.1124 -0.2958  0.1689
  195SOL    HW1 1484   0.271   6.688   5.368 -0.6035 -1.4127 -2.6565
  195SOL    HW2 1485   0.109   6.706   5.387 -0.0479  0.0389  1.6218
  196SOL     OW 1486   2.801   1.589   6.113 -0.0457 -0.0574  0.3443
  196SOL    HW1 1487   2.733   1.516   6.113 -0.0634 -0.0628 -0.9496
  196SOL    HW2 1488   2.768   1.665   6.058  2.0731 -1.1522 -2.6661
  197SOL     OW 1489   2.802   1.302   0.795  0.1326 -0.4198  0.3242
  197SOL    HW1 1490   2.761   1.298   0.703 -0.7327  0.0163  0.6756
  197SOL    HW2 1491   2.764   1.380   0.845  0.8808 -0.4315  0.9276
  198SOL     OW 1492   2.315   0.132   1.903 -0.0927 -0.3104  0.1629
  198SOL    HW1 1493   2.389   0.186   1.942  1.1202 -1.3391 -0.6318
  198SOL    HW2 1494   2.242   0.122   1.970  0.2516  1.1471  0.7857
  199SOL     OW 1495   0.882   2.551   3.916  0.4436 -0.5174 -0.0719
  199SOL    HW1 1496   0.852   2.472   3.970  1.0172  0.2922  1.4938
  199SOL    HW2 1497   0.825   2.630   3.938  0.3120 -0.3032 -1.1204
  200SOL     OW 1498   2.448   3.265   1.679  0.1895 -0.1618 -0.2435
  200SOL    HW1 1499   2.389   3.276   1.599  0.7573 -1.1302 -0.8192
  200SOL    HW2 1500   2.406   3.309   1.758 -0.5786  0.4593 -0.9797
  201SOL     OW 1501   6.918   6.586   5.572  0.6179 -0.6940  0.2847
  201SOL    HW1 1502   6.964   6.674   5.586  0.3113 -0.7761  2.0902
  201SOL    HW2 1503   6.837   6.600   5.516  1.3615 -0.0873 -0.6667
  202SOL     OW 1504   5.254   1.460   6.698 -0.4211 -0.1602  0.0906
  202SOL    HW1 1505   5.301   1.410   6.625  0.9185 -1.0554  1.4907
  202SOL    HW2 1506   5.187   1.522   6.658 -0.2597 -1.1440 -1.8506
  203SOL     OW 1507   5.387   3.334   6.590 -0.3988  0.3479 -0.0385
  203SOL    HW1 1508   5.313   3.273   6.562  0.9727 -0.8751 -1.1333
  203SOL    HW2 1509   5.444   3.287   6.658 -1.6811  2.0053  2.3456
  204SOL     OW 1510   1.445   6.891   6.693 -0.3543  0.6043 -0.6005
  204SOL    HW1 1511   1.489   6.937   6.770 -0.3628 -1.3987  0.6833
  204SOL    HW2 1512   1.376   6.828   6.728 -2.7844  2.0901 -2.4734
  205SOL     OW 1513   0.347   3.232   2.867  0.7364  0.5654  0.0138
  205SOL    HW1 1514   0.306   3.179   2.793 -1.1786  1.7590  0.1367
  205SOL    HW2 1515   0.278   3.248   2.938  2.1886  0.4717  1.5024
  206SOL     OW 1516   0.691   5.423   1.485 -0.6409 -0.4497  0.0542
  206SOL    HW1 1517   0.633   5.486   1.434  0.0263 -0.9790 -1.4286
  206SOL    HW2 1518   0.705   5.458   1.577 -2.4906  0.1713  0.1336
  207SOL     OW 1519   4.988   2.698   5.490  0.0492 -0.0332  0.0803
  207SOL    HW1 1520   4.968   2.765   5.562 -0.6475  0.3110 -0.4176
  207SOL    HW2 1521   4.977   2.606   5.526  2.9871 -0.0104  1.3757
  208SOL     OW 1522   0.111   4.686   6.108  0.2077 -0.0175 -0.0650
  208SOL    HW1 1523   0.101   4.587   6.100 -1.6579  0.1550 -0.3564
  208SOL    HW2 1524   0.058   4.731   6.036  1.2890  1.2003 -0.1419
  209SOL     OW 1525   1.829   3.985   2.676 -0.7609 -0.7411 -0.1436
  209SOL    HW1 1526   1.737   4.024   2.676 -1.0881 -1.4880 -0.8109
  209SOL    HW2 1527   1.829   3.901   2.729 -0.2632 -0.3063  0.5537
  210SOL     OW 1528   3.044   0.123   0.293  0.4240 -0.1179 -0.2167
  210SOL    HW1 1529   3.032   0.222   0.306 -1.9416 -0.4203  0.4152
  210SOL    HW2 1530   3.108   0.088   0.362  1.0358  0.9029 -0.2408
  211SOL     OW 1531   0.047   0.772   3.060  0.4466 -0.8092  0.4412
  211SOL    HW1 1532   0.038   0.673   3.064  0.6957 -0.8485  0.0586
  211SOL    HW2 1533   0.131   0.796   3.012 -0.3132 -0.4073 -0.7362
  212SOL     OW 1534   2.162   5.659   1.571 -0.7228  0.2629 -0.1859
  212SOL    HW1 1535   2.113   5.746   1.580 -1.3228 -0.1086  0.2182
  212SOL    HW2 1536   2.224   5.664   1.493 -1.8506  0.5448 -1.0943
  213SOL     OW 1537   4.479   6.295   5.824 -0.3130 -0.4324  0.3272
  213SOL    HW1 1538   4.453   6.271   5.918 -0.7018 -0.5647  0.1881
  213SOL    HW2 1539   4.410   6.354   5.784 -0.8767 -1.5063 -0.3509
  214SOL     OW 1540   1.788   0.246   2.377 -0.5896  0.0795 -0.0639
  214SOL    HW1 1541   1.857   0.251   2.305  1.0199 -0.3191  1.3714
  214SOL    HW2 1542   1.749   0.154   2.378  0.4617 -0.3893  0.4644
  215SOL     OW 1543   3.069   4.025   5.588  0.5521  0.1140  0.1817
  215SOL    HW1 1544   3.064   4.105   5.648  1.1434  0.2637  0.0392
  215SOL    HW2 1545   3.154   3.976   5.606  0.9864  0.4532 -0.8914
  216SOL     OW 1546   1.333   5.947   3.026  0.1081  0.0909 -0.4408
  216SOL    HW1 1547   1.337   5.929   3.124 -1.4878  0.5567 -0.2485
  216SOL    HW2 1548   1.417   5.991   2.996  0.5579  0.0718  0.7488
  217SOL     OW 1549   1.172   1.780   5.611 -0.2271  0.4303 -0.0825
  217SOL    HW1 1550   1.073   1.787   5.626  0.0725  3.0623  1.1818
  217SOL    HW2 1551   1.200   1.685   5.624 -2.6296 -0.4985 -1.0373
  218SOL     OW 1552   1.277   2.811   5.928 -0.2403 -0.6053 -0.0989
  218SOL    HW1 1553   1.268   2.785   6.024 -0.4066  0.7498  0.2757
  218SOL    HW2 1554   1.228   2.745   5.871 -0.7612 -1.0273  0.8049
  219SOL     OW 1555   5.760   6.934   0.772  0.2236 -0.4250 -0.0242
  219SOL    HW1 1556   5.676   6.904   0.727  0.8806 -2.5498  0.0508
  219SOL    HW2 1557   5.837   6.928   0.708  0.9634 -2.3386  0.9441
  220SOL     OW 1558   2.390   6.340   1.982  0.2934  0.3500 -0.5159
  220SOL    HW1 1559   2.317   6.284   1.943 -1.7010  2.3868  0.0839
  220SOL    HW2 1560   2.439   6.387   1.908 -0.3167  0.5063 -0.8273
  221SOL     OW 1561   0.071   4.563   0.452  0.7253  0.3902  0.0696
  221SOL    HW1 1562   0.136   4.539   0.381 -0.5333 -0.2139 -0.9129
  221SOL    HW2 1563   0.120   4.580   0.538  2.1135 -0.4752 -0.5235
  222SOL     OW 1564   1.226   6.256   6.735 -0.1310  0.1682  0.1185
  222SOL    HW1 1565   1.163   6.311   6.789 -1.4831  0.9793 -2.1221
  222SOL    HW2 1566   1.177   6.219   6.655  2.2260  0.9231 -1.7765
  223SOL     OW 1567   6.802   3.876   5.147  0.4525 -0.3481  0.1153
  223SOL    HW1 1568   6.731   3.828   5.197  0.4576  0.7118  1.1873
  223SOL    HW2 1569   6.768   3.903   5.057  0.3018 -1.8968 -0.3148
  224SOL     OW 1570   2.815   2.546   5.442 -0.0838  0.2708 -0.0800
  224SOL    HW1 1571   2.798   2.476   5.373  1.0057 -0.7761  0.6791
  224SOL    HW2 1572   2.912   2.570   5.442  0.1431 -0.4850  1.7240
  225SOL     OW 1573   2.962   2.973   6.165  0.7570 -0.1874 -0.3624
  225SOL    HW1 1574   2.882   2.986   6.223  0.6087  0.1288 -0.6337
  225SOL    HW2 1575   2.940   2.907   6.092  1.6196 -2.3507  1.2309
  226SOL     OW 1576   6.875   2.138   0.489  0.9007  0.1963  0.3568
  226SOL    HW1 1577   6.826   2.056   0.459  1.0410  0.6696 -1.2727
  226SOL    HW2 1578   6.965   2.113   0.524  0.3501 -0.4715  1.3481
  227SOL     OW 1579   0.888   3.895   2.308  0.0167 -0.4197  0.1669
  227SOL    HW1 1580   0.968   3.847   2.271  0.2937 -1.3423  1.8508
  227SOL    HW2 1581   0.808   3.875   2.252  0.4440 -1.6631 -0.0284
  228SOL     OW 1582   3.303   1.195   2.780  0.5214 -0.2839  0.3714
  228SOL    HW1 1583   3.266   1.103   2.767  0.8759 -0.1735 -1.8274
  228SOL    HW2 1584   3.364   1.196   2.859 -2.2477 -1.0091  2.6839
  229SOL     OW 1585   4.896   5.652   5.309 -0.0116  0.1597  0.2455
  229SOL    HW1 1586   4.967   5.588   5.338  1.3325  0.6797 -1.7527
  229SOL    HW2 1587   4.930   5.746   5.314 -1.3019  0.6092  1.2630
  230SOL     OW 1588   2.392   4.789   4.078 -0.2285 -0.0146 -0.0864
  230SOL    HW1 1589   2.360   4.761   4.169 -0.2996 -0.2884 -0.1953
  230SOL    HW2 1590   2.355   4.727   4.009 -1.1586  0.9066 -0.4320
  231SOL     OW 1591   6.563   1.161   6.331  0.2000  0.2499 -0.2417
  231SOL    HW1 1592   6.631   1.088   6.318  0.4847  0.5472 -0.4246
  231SOL    HW2 1593   6.491   1.128   6.393 -0.9935 -1.0600 -2.2229
  232SOL     OW 1594   6.072   3.186   6.914 -0.1584  0.0236  0.2714
  232SOL    HW1 1595   6.065   3.090   6.884  1.8653  0.1670 -0.8321
  232SOL    HW2 1596   5.996   3.206   6.976 -2.5555 -1.3622 -1.9402
  233SOL     OW 1597   2.775   0.029   3.313  0.0792 -0.0959  0.1728
  233SOL    HW1 1598   2.786   0.051   3.217 -1.9065  1.8001  0.3088
  233SOL    HW2 1599   2.698  -0.034   3.325  2.8788 -3.8744  0.2457
  234SOL     OW 1600   4.266   1.683   1.052 -0.5717 -1.0310  0.2367
  234SOL    HW1 1601   4.177   1.639   1.043  0.2897 -2.7198 -0.5383
  234SOL    HW2 1602   4.278   1.749   0.978 -0.4846 -2.1189 -0.7485
  235SOL     OW 1603   5.450   3.112   2.483  0.3519  0.6136  0.2193
  235SOL    HW1 1604   5.517   3.094   2.555  0.3174  0.8461  0.3123
  235SOL    HW2 1605   5.487   3.086   2.394 -0.3324 -1.5857  0.5091
  236SOL     OW 1606   4.875   3.319   6.260  0.2177  0.8038  0.2594
  236SOL    HW1 1607   4.959   3.360   6.223 -0.0743  0.5670 -0.6843
  236SOL    HW2 1608   4.882   3.220   6.259  1.1326  0.7675  3.0389
  237SOL     OW 1609   1.277   6.947   1.901  0.3232 -0.2932 -0.1595
  237SOL    HW1 1610   1.216   6.885   1.951 -0.3071  1.4287  1.3247
  237SOL    HW2 1611   1.223   7.011   1.846  0.8158  0.4960  0.2468
  238SOL     OW 1612   4.629   6.562   6.674  0.1463  0.1904 -0.8479
  238SOL    HW1 1613   4.625   6.470   6.635  2.3822 -1.3249  2.0611
  238SOL    HW2 1614   4.725   6.591   6.682 -0.3368  1.4652  1.0277
  239SOL     OW 1615   0.146   5.647   6.487  0.2371  0.5030 -0.1277
  239SOL    HW1 1616   0.158   5.590   6.568  3.2958  1.4766  0.2394
  239SOL    HW2 1617   0.106   5.735   6.513 -1.9993 -0.3992 -0.2928
  240SOL     OW 1618   0.478   3.631   3.599 -0.3159  0.6251  0.6535
  240SOL    HW1 1619   0.389   3.642   3.644 -0.2903  1.7067  0.4432
  240SOL    HW2 1620   0.474   3.668   3.507 -0.0109 -0.5148  0.1618
  241SOL     OW 1621   3.298   2.071   5.432 -0.3278 -0.2914  0.1034
  241SOL    HW1 1622   3.223   2.134   5.415 -0.5356 -0.0935  1.5797
  241SOL    HW2 1623   3.290   1.992   5.372 -1.0123  0.3063 -0.6062
  242SOL     OW 1624   3.092   3.924   3.087  0.5645 -0.0199  0.0404
  242SOL    HW1 1625   3.031   4.002   3.071 -0.6976 -0.6974  1.2308
  242SOL    HW2 1626   3.184   3.946   3.056  0.1684  1.8157  0.0499
  243SOL     OW 1627   5.514   6.842   0.668 -0.0366  0.7525 -0.0558
  243SOL    HW1 1628   5.513   6.855   0.569  2.4330 -0.1076 -0.2748
  243SOL    HW2 1629   5.457   6.764   0.692  0.2715  0.2271 -0.9683
  244SOL     OW 1630   4.176   3.331   6.741  0.3528 -0.3536 -0.2314
  244SOL    HW1 1631   4.260   3.338   6.688  0.6398 -1.0365  0.1164
  244SOL    HW2 1632   4.099   3.314   6.679  0.6936 -1.2117 -0.4476
  245SOL     OW 1633   5.697   1.560   4.172  0.2387 -0.2424  0.0109
  245SOL    HW1 1634   5.668   1.466   4.194 -0.6716 -0.5929 -2.3667
  245SOL    HW2 1635   5.622   1.623   4.192 -0.4359 -0.5108 -1.4669
  246SOL     OW 1636   5.206   2.987   3.486  0.0327 -0.1210 -0.9960
  246SOL    HW1 1637   5.150   2.941   3.417  0.5140  0.2894 -1.6612
  246SOL    HW2 1638   5.241   3.073   3.450  1.2472 -0.4481 -0.6472
  247SOL     OW 1639   3.820   2.705   0.597 -0.4673 -0.5916  0.4940
  247SOL    HW1 1640   3.789   2.625   0.544  1.2840 -0.8032 -0.2915
  247SOL    HW2 1641   3.816   2.684   0.694  0.1365 -1.7376  0.2927
  248SOL     OW 1642   3.276   0.981   3.129 -0.7693 -0.4682 -0.1450
  248SOL    HW1 1643   3.357   1.036   3.108 -0.8732 -0.9551 -2.0714
  248SOL    HW2 1644   3.201   1.008   3.068 -1.0889 -2.1155 -0.5406
  249SOL     OW 1645   6.293   6.607   3.805  0.2100 -0.0865  0.1559
  249SOL    HW1 1646   6.314   6.703   3.790 -0.3126 -0.0650 -0.4771
  249SOL    HW2 1647   6.362   6.550   3.761 -0.8489 -0.0153 -1.6944
  250SOL     OW 1648   5.341   1.569   0.940  0.3794  0.2256 -0.0539
  250SOL    HW1 1649   5.411   1.527   0.998 -1.3842 -1.0569  1.2523
  250SOL    HW2 1650   5.331   1.516   0.856 -0.1452 -0.5729  0.4984
  251SOL     OW 1651   3.062   3.088   4.449 -0.5976 -0.4275 -0.4982
  251SOL    HW1 1652   3.093   3.182   4.466 -0.7816 -0.1340 -1.6902
  251SOL    HW2 1653   2.972   3.075   4.489 -0.3897 -0.2316  0.0454
  252SOL     OW 1654   5.251   5.734   5.101 -0.7165  0.4064  0.0218
  252SOL    HW1 1655   5.321   5.665   5.086 -1.1059 -0.1460  0.7145
  252SOL    HW2 1656   5.272   5.787   5.183 -0.3672  1.1932 -0.5579
  253SOL     OW 1657   2.951   5.449   4.556  0.3401  0.1700 -0.9062
  253SOL    HW1 1658   2.921   5.355   4.570  0.9747  0.1711  0.7145
  253SOL    HW2 1659   2.988   5.485   4.642  1.4956  1.4011 -1.8769
  254SOL     OW 1660   5.197   5.167   4.514  0.4201 -0.3052 -0.3035
  254SOL    HW1 1661   5.176   5.248   4.459 -0.5757 -0.1868  0.2389
  254SOL    HW2 1662   5.187   5.085   4.457  1.2801 -0.0742 -0.8109
  255SOL     OW 1663   4.077   5.628   6.088 -0.0384 -0.2328 -0.2033
  255SOL    HW1 1664   4.003   5.692   6.066  1.9904  2.7906  1.1333
  255SOL    HW2 1665   4.038   5.540   6.116 -3.1019  1.1694  0.3010
  256SOL     OW 1666   6.263   2.792   5.068 -0.2768  0.6856 -0.2788
  256SOL    HW1 1667   6.268   2.712   5.008 -0.8557 -0.5122  1.1873
  256SOL    HW2 1668   6.354   2.829   5.083 -0.2104  1.6528 -2.6584
  257SOL     OW 1669   4.731   0.495   2.694 -0.1274  0.2733  0.3212
  257SOL    HW1 1670   4.646   0.460   2.656 -0.1603  0.0662  0.5811
  257SOL    HW2 1671   4.761   0.575   2.642 -1.7693  1.8849  1.7113
  258SOL     OW 1672   1.231   5.653   5.284 -0.1816 -0.8899 -0.0975
  258SOL    HW1 1673   1.331   5.647   5.290 -0.1043  0.0194 -0.3458
  258SOL    HW2 1674   1.206   5.735   5.232 -1.0273 -2.1435 -1.7499
  259SOL     OW 1675   6.383   1.930   3.134 -0.0958 -0.6176  0.3111
  259SOL    HW1 1676   6.482   1.926   3.140 -0.0720  1.3636  2.4248
  259SOL    HW2 1677   6.343   1.872   3.204 -0.3065  1.3042  1.8692
  260SOL     OW 1678   4.367   1.035   2.630 -0.7613 -0.4682  0.0374
  260SOL    HW1 1679   4.425   1.079   2.562 -0.7316  0.7927  0.8402
  260SOL    HW2 1680   4.303   0.973   2.585 -0.7073  0.3039 -1.1382
  261SOL     OW 1681   6.481   2.479   5.313 -0.1384 -0.2216  0.0985
  261SOL    HW1 1682   6.575   2.512   5.320  0.4225 -0.8363 -2.9481
  261SOL    HW2 1683   6.444   2.463   5.404  2.7145 -0.0011  1.3954
  262SOL     OW 1684   6.683   4.468   6.645  0.7806 -0.1393  0.4679
  262SOL    HW1 1685   6.690   4.560   6.683  1.7431  0.1419 -0.3465
  262SOL    HW2 1686   6.705   4.401   6.716 -0.8843  0.1742  1.3405
  263SOL     OW 1687   1.812   1.204   5.102 -0.2251  0.5226  0.4175
  263SOL    HW1 1688   1.789   1.119   5.149  1.4117 -0.3668 -0.3198
  263SOL    HW2 1689   1.910   1.206   5.081 -1.0411 -0.1771 -4.8231
  264SOL     OW 1690   5.788   2.849   6.251  0.1600 -0.7093  0.0297
  264SOL    HW1 1691   5.729   2.784   6.205  0.0780  0.5770 -1.7893
  264SOL    HW2 1692   5.813   2.923   6.188  3.4734 -1.0162  0.7641
  265SOL     OW 1693   5.315   6.162   2.446  0.4747  0.2464  0.5301
  265SOL    HW1 1694   5.312   6.131   2.541  3.7946 -2.3897 -0.0253
  265SOL    HW2 1695   5.393   6.223   2.433 -0.7280  1.6818 -0.3140
  266SOL     OW 1696   2.794   4.215   5.776 -0.0124  0.3239 -0.2412
  266SOL    HW1 1697   2.729   4.153   5.733  0.9762 -1.0471  0.1638
  266SOL    HW2 1698   2.861   4.246   5.709 -1.2308  2.0076 -0.7378
  267SOL     OW 1699   1.037   1.153   0.647 -0.4966  0.2031  0.3159
  267SOL    HW1 1700   1.080   1.064   0.665  1.4298  0.7265 -1.3407
  267SOL    HW2 1701   1.107   1.219   0.622 -2.0211  1.9301  0.4314
  268SOL     OW 1702   2.698   0.751   6.417 -0.0169 -0.4041 -0.6225
  268SOL    HW1 1703   2.673   0.677   6.480  0.6033 -1.9323 -2.1145
  268SOL    HW2 1704   2.786   0.789   6.445  0.8178 -1.8476 -1.1684
  269SOL     OW 1705   1.225   4.506   6.456 -0.1162 -0.8610 -0.3167
  269SOL    HW1 1706   1.135   4.522   6.415 -0.0861 -1.1309 -0.4905
  269SOL    HW2 1707   1.216   4.501   6.555  0.1181  2.0173 -0.0612
  270SOL     OW 1708   3.309   6.078   6.186 -0.8312 -0.2945  0.6044
  270SOL    HW1 1709   3.218   6.110   6.162 -1.4079 -1.5499  1.0376
  270SOL    HW2 1710   3.364   6.069   6.102 -1.4969 -0.6878  0.2034
  271SOL     OW 1711   3.913   1.396   0.332  0.1745 -0.7575 -0.7333
  271SOL    HW1 1712   3.890   1.439   0.420  0.2790 -2.6442  0.2676
  271SOL    HW2 1713   3.972   1.457   0.279 -1.2701  1.1534 -0.2606
  272SOL     OW 1714   3.357   5.441   2.915  0.3909 -0.4147 -0.1979
  272SOL    HW1 1715   3.281   5.376   2.908  0.6510 -0.8222  0.6146
  272SOL    HW2 1716   3.401   5.450   2.826  1.7914 -3.1574  0.1082
  273SOL     OW 1717   1.018   4.423   4.942 -0.2659 -0.1585  0.0431
  273SOL    HW1 1718   1.004   4.397   4.847  0.8771 -1.9406  0.3075
  273SOL    HW2 1719   1.083   4.499   4.947  0.6011 -0.8409 -0.5708
  274SOL     OW 1720   5.156   0.997   2.242  0.1963 -0.9161 -0.3204
  274SOL    HW1 1721   5.188   1.050   2.163 -1.4283 -1.4273 -1.3962
  274SOL    HW2 1722   5.075   0.945   2.215 -0.3662 -1.1602  1.6962
  275SOL     OW 1723   5.848   5.015   0.948  0.0329 -0.2087  0.1969
  275SOL    HW1 1724   5.945   5.022   0.924 -0.2597  0.4650 -0.8858
  275SOL    HW2 1725   5.805   5.105   0.942 -0.6519 -0.4849  0.7306
  276SOL     OW 1726   0.640   6.908   2.340  0.2344  0.3139  0.9421
  276SOL    HW1 1727   0.607   6.845   2.410  0.9943  0.2661  1.2591
  276SOL    HW2 1728   0.735   6.931   2.357  0.4711  0.2065 -0.1361
  277SOL     OW 1729   2.388   5.084   5.340 -0.2220  0.0371 -0.3087
  277SOL    HW1 1730   2.454   5.155   5.364  1.3265 -0.9160 -1.5165
  277SOL    HW2 1731   2.394   5.065   5.242 -1.6067 -0.7936 -0.2644
  278SOL     OW 1732   6.949   5.616   0.689 -0.0161 -0.1802 -0.4220
  278SOL    HW1 1733   6.980   5.703   0.651 -1.0279  0.4621  0.1654
  278SOL    HW2 1734   6.992   5.541   0.640  3.5593  0.6027  1.2298
  279SOL     OW 1735   0.005   3.464   5.277 -0.0086 -0.2001  0.0362
  279SOL    HW1 1736  -0.067   3.523   5.312  1.5370  0.7981  1.7527
  279SOL    HW2 1737  -0.033   3.375   5.253 -1.5705 -0.3369  2.6155
  280SOL     OW 1738   3.281   1.259   2.201  0.6979  0.3209 -0.4317
  280SOL    HW1 1739   3.322   1.283   2.289  1.0750 -0.2140 -0.4560
  280SOL    HW2 1740   3.190   1.299   2.194  0.9188  0.9052 -0.0647
  281SOL     OW 1741   2.182   6.298   1.045 -0.0670  0.3056  0.2109
  281SOL    HW1 1742   2.149   6.253   1.127 -0.3612  0.1879  0.0284
  281SOL    HW2 1743   2.265   6.350   1.066  0.3687 -0.4554  0.3825
  282SOL     OW 1744   2.999   0.422   5.701  0.2384 -0.5669 -0.0432
  282SOL    HW1 1745   2.989   0.510   5.748 -0.0389 -1.1597  1.0422
  282SOL    HW2 1746   3.091   0.416   5.661  1.1469 -0.7107  1.9205
  283SOL     OW 1747   4.950   2.101   5.308  0.0098 -0.6238 -0.4362
  283SOL    HW1 1748   4.992   2.049   5.234  0.1928 -0.3583 -0.5201
  283SOL    HW2 1749   5.021   2.138   5.368 -0.1369 -0.8466 -0.1174
  284SOL     OW 1750   0.553   3.304   2.452  0.6387 -0.0732  0.5211
  284SOL    HW1 1751   0.544   3.326   2.549 -2.0660  0.6571  0.1899
  284SOL    HW2 1752   0.614   3.226   2.441  0.6778 -0.4439  2.8399
  285SOL     OW 1753   5.063   4.551   5.058  0.1754 -0.3503 -0.2084
  285SOL    HW1 1754   5.039   4.648   5.067 -1.1796 -0.6038 -0.7333
  285SOL    HW2 1755   5.043   4.503   5.144 -0.1622 -0.3554 -0.2891
  286SOL     OW 1756   4.629   5.817   6.607  0.6670 -0.8651 -0.4758
  286SOL    HW1 1757   4.617   5.902   6.556 -1.2300 -1.5343 -1.2344
  286SOL    HW2 1758   4.552   5.805   6.670  1.7818 -1.2145  0.8659
  287SOL     OW 1759   1.706   5.653   0.746  0.3335 -0.5547 -0.2239
  287SOL    HW1 1760   1.643   5.630   0.672  0.3500  0.8023 -0.6861
  287SOL    HW2 1761   1.799   5.630   0.718  0.5236  1.3294 -1.2668
  288SOL     OW 1762   3.390   1.952   6.720  0.1165  0.5105  0.0495
  288SOL    HW1 1763   3.483   1.916   6.723  0.5777  1.2615 -2.6745
  288SOL    HW2 1764   3.347   1.939   6.809  1.8642 -2.3274  0.6181
  289SOL     OW 1765   1.714   5.012   5.702 -0.0390  0.1551 -0.2757
  289SOL    HW1 1766   1.799   5.048   5.665 -0.0997  0.5556 -0.0326
  289SOL    HW2 1767   1.660   5.087   5.741 -0.9295  0.0491 -1.2680
  290SOL     OW 1768   6.331   1.325   5.325 -0.5419  0.5510  0.1282
  290SOL    HW1 1769   6.285   1.243   5.292  0.7777 -0.9297  1.7343
  290SOL    HW2 1770   6.263   1.390   5.360 -1.7133  0.8801 -2.5546
  291SOL     OW 1771   1.953   3.126   5.392 -0.3660  0.0535 -0.5026
  291SOL    HW1 1772   1.992   3.155   5.480 -0.7030  0.4267 -0.4697
  291SOL    HW2 1773   1.856   3.153   5.388 -0.3592  0.0185 -0.9797
  292SOL     OW 1774   0.645   3.483   5.243 -1.1557 -0.2232  0.5532
  292SOL    HW1 1775   0.679   3.493   5.336 -1.3560  4.4626  0.3538
  292SOL    HW2 1776   0.720   3.497   5.178 -1.3708 -1.6011 -0.0237
  293SOL     OW 1777   3.804   0.185   3.176  0.2542 -0.0687 -0.4591
  293SOL    HW1 1778   3.877   0.184   3.244 -0.4900 -0.5205  0.3450
  293SOL    HW2 1779   3.752   0.100   3.181  0.4473 -0.2950 -1.8915
  294SOL     OW 1780   2.984   6.568   5.938  0.5746 -0.0488 -0.2474
  294SOL    HW1 1781   2.967   6.666   5.942 -0.4262 -0.1792 -0.9098
  294SOL    HW2 1782   2.983   6.538   5.843  0.4806 -0.7584 -0.0292
  295SOL     OW 1783   2.479   2.479   3.494  0.2555 -0.3855 -0.0001
  295SOL    HW1 1784   2.443   2.389   3.472  1.1186 -0.4719 -1.2034
  295SOL    HW2 1785   2.417   2.549   3.458 -1.3021 -0.4267  2.4206
  296SOL     OW 1786   4.885   3.339   3.104 -0.1862 -0.3261  0.6596
  296SOL    HW1 1787   4.867   3.292   3.018  1.7938 -2.2271  1.1944
  296SOL    HW2 1788   4.893   3.271   3.178  0.2347  1.0827  1.9598
  297SOL     OW 1789   0.151   3.268   1.464 -0.0427  0.0354  0.1572
  297SOL    HW1 1790   0.126   3.175   1.438  0.0873 -0.3703  1.4106
  297SOL    HW2 1791   0.236   3.266   1.517 -1.2031  0.5934  2.1539
  298SOL     OW 1792   1.759   0.165   0.087  0.2271 -0.2426  0.1156
  298SOL    HW1 1793   1.695   0.159   0.163 -0.0771  0.4378 -0.0755
  298SOL    HW2 1794   1.823   0.241   0.103 -0.7310  0.8316 -0.9508
  299SOL     OW 1795   5.841   2.847   4.802 -0.2733 -0.3330  1.0856
  299SOL    HW1 1796   5.857   2.928   4.859  1.0622 -0.0888  0.4172
  299SOL    HW2 1797   5.901   2.851   4.722 -2.8192 -0.1113 -0.9582
  300SOL     OW 1798   6.809   0.860   2.318  0.2677  0.1879 -0.1858
  300SOL    HW1 1799   6.862   0.794   2.265 -3.5555 -2.4883 -1.1210
  300SOL    HW2 1800   6.800   0.828   2.412 -0.6934 -0.0854 -0.3607
  301SOL     OW 1801   0.030   2.977   1.718  0.2179 -0.0015  0.1984
  301SOL    HW1 1802   0.077   2.918   1.784  0.5208  0.2552  0.2157
  301SOL    HW2 1803   0.037   3.073   1.747  1.2965  0.2320 -0.7673
  302SOL     OW 1804   2.232   6.435   2.709 -0.0099  0.0499 -0.2344
  302SOL    HW1 1805   2.141   6.407   2.740  0.0561  0.1863  0.0818
  302SOL    HW2 1806   2.272   6.361   2.655 -1.7390  1.2987 -3.4705
  303SOL     OW 1807   5.498   0.255   0.571  0.3319  0.6142 -0.2052
  303SOL    HW1 1808   5.409   0.224   0.607  0.3254  0.7783 -0.0834
  303SOL    HW2 1809   5.519   0.203   0.487  0.0249  0.7192 -0.3493
  304SOL     OW 1810   5.085   1.905   4.416  0.1666  0.3420 -0.0375
  304SOL    HW1 1811   5.094   1.819   4.366  1.8150  0.1091  0.5984
  304SOL    HW2 1812   5.056   1.977   4.353 -0.6904 -0.5585 -0.6864
  305SOL     OW 1813   6.494   3.420   0.051 -0.2188  0.0237 -0.4839
  305SOL    HW1 1814   6.539   3.349   0.105 -1.1287 -1.3803 -1.5121
  305SOL    HW2 1815   6.536   3.425  -0.040 -0.3052  0.6594 -0.4949
  306SOL     OW 1816   1.174   6.810   3.570 -0.7370 -0.3574  0.1732
  306SOL    HW1 1817   1.165   6.711   3.566 -4.3993 -0.1626 -0.3815
  306SOL    HW2 1818   1.238   6.836   3.642  3.1513 -3.0764 -1.9995
  307SOL     OW 1819   5.338   4.103   1.611 -0.8976  0.3737  0.2044
  307SOL    HW1 1820   5.246   4.140   1.626 -2.4996 -0.2529 -5.6243
  307SOL    HW2 1821   5.333   4.004   1.601  0.4199  0.3192 -0.1151
  308SOL     OW 1822   6.392   3.516   4.084  0.1846  0.2638 -0.3994
  308SOL    HW1 1823   6.334   3.478   4.157  1.2043  3.0852  2.1025
  308SOL    HW2 1824   6.348   3.597   4.046  1.5151  1.2424  0.0772
  309SOL     OW 1825   4.763   2.862   4.890 -0.3159  0.4754 -0.2692
  309SOL    HW1 1826   4.845   2.847   4.946  0.0904 -0.4597 -1.0731
  309SOL    HW2 1827   4.789   2.901   4.802 -0.2669 -2.6276 -1.7870
  310SOL     OW 1828   0.388   0.336   5.417 -0.4486 -0.5810  0.2103
  310SOL    HW1 1829   0.446   0.259   5.446  1.8256  1.0376  0.2249
  310SOL    HW2 1830   0.413   0.418   5.468  0.2679  1.2122 -2.7552
  311SOL     OW 1831   0.309   5.986   2.092 -0.3639  0.1072  0.0424
  311SOL    HW1 1832   0.354   6.059   2.144 -1.4743  2.0720 -1.5934
  311SOL    HW2 1833   0.295   6.016   1.998 -3.9705 -0.8075  0.1355
  312SOL     OW 1834   5.441   2.490   6.611  0.0516 -0.0126 -0.4026
  312SOL    HW1 1835   5.521   2.497   6.552  0.9017 -0.4629  0.6538
  312SOL    HW2 1836   5.396   2.579   6.617  0.6616  0.3277 -0.7615
  313SOL     OW 1837   3.598   4.242   0.885  0.1720  0.4944  0.1516
  313SOL    HW1 1838   3.505   4.250   0.850 -0.4572  1.2307  1.8801
  313SOL    HW2 1839   3.602   4.171   0.955  1.0747  0.0108 -0.3707
  314SOL     OW 1840   3.472   5.824   6.574 -0.3891 -0.6346  0.1684
  314SOL    HW1 1841   3.484   5.921   6.597 -0.5869 -0.1963 -1.4377
  314SOL    HW2 1842   3.419   5.779   6.645 -0.2151  0.4095  0.9847
  315SOL     OW 1843   7.008   2.813   1.995  0.3823  0.3073 -0.2250
  315SOL    HW1 1844   6.966   2.746   1.933  0.7209 -1.5013  1.3699
  315SOL    HW2 1845   6.951   2.895   1.999 -0.2581 -0.0062 -1.9870
  316SOL     OW 1846   0.332   4.099   3.658 -0.3258 -0.4041  0.1341
  316SOL    HW1 1847   0.341   4.042   3.739 -0.3725 -0.6415 -0.0283
  316SOL    HW2 1848   0.394   4.067   3.586 -0.5815 -0.4541 -0.0702
  317SOL     OW 1849   1.802   0.950   2.043 -0.0627 -0.4651  0.4620
  317SOL    HW1 1850   1.902   0.947   2.039  0.1777  1.1557  2.8922
  317SOL    HW2 1851   1.768   0.863   2.079  0.2976 -1.5215 -1.5897
  318SOL     OW 1852   0.658   5.696   5.725  0.6621 -0.0056 -0.5691
  318SOL    HW1 1853   0.713   5.770   5.762  1.5748 -1.1467  0.4224
  318SOL    HW2 1854   0.672   5.689   5.627  2.6257 -0.5075 -0.2941
  319SOL     OW 1855   5.853   2.064   1.158  0.6788  0.3414 -0.0433
  319SOL    HW1 1856   5.807   1.977   1.144  1.3861  0.1255 -1.2040
  319SOL    HW2 1857   5.787   2.139   1.150  0.4022  0.0082 -1.0868
  320SOL     OW 1858   5.055   1.513   6.882  0.3764  0.3272 -0.2946
  320SOL    HW1 1859   5.132   1.549   6.829  0.4446 -0.4422 -0.7335
  320SOL    HW2 1860   5.031   1.423   6.847  0.6935 -0.3789  1.2735
  321SOL     OW 1861   2.744   0.912   2.226 -0.0102 -0.3773 -0.0156
  321SOL    HW1 1862   2.725   0.874   2.316 -2.8315 -0.3868 -0.5336
  321SOL    HW2 1863   2.795   0.846   2.171 -2.4738 -2.4353  0.0079
  322SOL     OW 1864   4.009   3.218   4.524 -0.1729  0.0876 -0.1167
  322SOL    HW1 1865   4.021   3.158   4.603 -0.0869  0.1357 -0.0933
  322SOL    HW2 1866   3.917   3.205   4.486 -0.3536  0.3355  0.2206
  323SOL     OW 1867   5.784   3.847   5.178  0.1194  0.4345  0.0189
  323SOL    HW1 1868   5.692   3.842   5.138  0.3894  2.4831 -1.0073
  323SOL    HW2 1869   5.787   3.920   5.246  0.4110 -1.1948  1.8360
  324SOL     OW 1870   1.542   4.657   4.561 -0.1913 -0.3928 -0.5861
  324SOL    HW1 1871   1.560   4.578   4.504 -0.4357 -0.8414 -0.0560
  324SOL    HW2 1872   1.599   4.653   4.643 -0.5361 -0.2609 -0.3355
  325SOL     OW 1873   1.158   3.332   0.858  0.8209  0.6065  0.2355
  325SOL    HW1 1874   1.192   3.332   0.952  0.1593  1.5691  0.4845
  325SOL    HW2 1875   1.214   3.270   0.803  1.1012 -0.1237  1.2967
  326SOL     OW 1876   3.894   0.125   0.991 -0.1217  0.8488 -0.4735
  326SOL    HW1 1877   3.894   0.115   0.892  0.6087  2.2392 -0.6487
  326SOL    HW2 1878   3.873   0.220   1.014 -1.4904  0.2856  0.7629
  327SOL     OW 1879   2.715   4.997   3.979 -0.1524  0.8742  0.4965
  327SOL    HW1 1880   2.733   5.038   4.068 -1.6284 -1.1175  1.8152
  327SOL    HW2 1881   2.728   4.898   3.985 -2.9860  0.3306 -0.6757
  328SOL     OW 1882   2.007   4.223   4.407  0.6303  0.1953  0.7907
  328SOL    HW1 1883   2.067   4.178   4.340  0.6765  0.3913  0.6988
  328SOL    HW2 1884   1.914   4.187   4.397 -0.2201  2.7356 -1.8698
  329SOL     OW 1885   3.692   2.898   3.465  0.2336 -0.0691  0.4349
  329SOL    HW1 1886   3.631   2.903   3.544  0.2297 -1.0429  0.5111
  329SOL    HW2 1887   3.638   2.893   3.382  0.2189 -0.0962  0.4461
  330SOL     OW 1888   3.400   6.279   1.712 -0.4315  0.1673 -0.2888
  330SOL    HW1 1889   3.402   6.195   1.657  0.6958 -0.3761  0.5341
  330SOL    HW2 1890   3.411   6.255   1.809 -1.6179  1.1647  0.1217
  331SOL     OW 1891   5.306   5.547   6.958 -0.1830  0.6055  0.2723
  331SOL    HW1 1892   5.337   5.578   7.048 -1.6215  1.8482  0.3839
  331SOL    HW2 1893   5.208   5.564   6.949 -0.6644 -2.1889 -0.4593
  332SOL     OW 1894   4.751   0.824   3.273 -0.2427  0.2271 -0.2037
  332SOL    HW1 1895   4.803   0.742   3.251 -0.8024 -0.5099  1.1150
  332SOL    HW2 1896   4.794   0.872   3.350 -0.3383  0.7769 -0.4834
  333SOL     OW 1897   2.999   4.942   6.023 -0.1797 -0.1914 -0.0626
  333SOL    HW1 1898   3.048   4.948   6.110 -1.0329 -1.1005  0.5088
  333SOL    HW2 1899   3.056   4.894   5.956  0.4043  0.3348  0.0542
  334SOL     OW 1900   2.275   6.768   2.215  0.2048  0.6827  0.1315
  334SOL    HW1 1901   2.355   6.827   2.205 -0.3742  1.3576 -0.6816
  334SOL    HW2 1902   2.305   6.675   2.236  1.1535  1.1470  0.9253
  335SOL     OW 1903   1.736   0.913   5.083 -0.1315 -0.3745  0.2285
  335SOL    HW1 1904   1.728   0.961   4.996  1.9820  0.2520  0.3092
  335SOL    HW2 1905   1.826   0.869   5.088  0.3638  0.7476  2.6147
  336SOL     OW 1906   3.193   1.499   3.584  0.8207 -0.0375  0.3585
  336SOL    HW1 1907   3.165   1.591   3.611  1.3618 -0.1447  1.3267
  336SOL    HW2 1908   3.186   1.438   3.663 -2.0157 -1.4522 -0.8626
  337SOL     OW 1909   1.226   4.190   5.950  0.5148  0.9208 -0.5054
  337SOL    HW1 1910   1.314   4.212   5.991  0.8016  0.1521 -0.6853
  337SOL    HW2 1911   1.200   4.263   5.886  1.2196  0.9516 -0.7641
  338SOL     OW 1912   2.486   3.277   0.646 -0.4234  0.1380 -0.2337
  338SOL    HW1 1913   2.514   3.359   0.696  1.0723  0.5685 -1.6874
  338SOL    HW2 1914   2.565   3.238   0.599 -1.8500  0.2273 -2.9066
  339SOL     OW 1915   3.069   5.678   4.467 -0.4303  0.7084  0.1470
  339SOL    HW1 1916   3.011   5.612   4.516 -0.0025  0.8326  0.8259
  339SOL    HW2 1917   3.017   5.716   4.390 -0.4414 -0.9654 -0.7265
  340SOL     OW 1918   6.544   4.983   4.067 -0.0744  1.1157  0.0599
  340SOL    HW1 1919   6.617   4.963   4.132 -1.1306 -0.3039  0.8738
  340SOL    HW2 1920   6.460   5.005   4.117 -1.1855 -1.0086 -0.7202
  341SOL     OW 1921   0.862   5.331   4.305  0.7530 -0.0737 -0.0299
  341SOL    HW1 1922   0.893   5.328   4.210  0.3482 -0.2659 -0.1593
  341SOL    HW2 1923   0.861   5.238   4.343  2.6224  0.1741  0.7344
  342SOL     OW 1924   0.182   4.714   0.708  0.3567 -0.3071 -0.7179
  342SOL    HW1 1925   0.126   4.787   0.668  0.1935  0.7114  1.2485
  342SOL    HW2 1926   0.129   4.665   0.777  1.1625 -0.8831 -0.4895
  343SOL     OW 1927   2.224   4.562   0.790  0.4418  0.6447  0.3354
  343SOL    HW1 1928   2.296   4.509   0.747 -0.0785 -1.0528  1.4580
  343SOL    HW2 1929   2.259   4.654   0.812  0.8442  1.4822 -3.1774
  344SOL     OW 1930   1.199   6.985   0.706  0.4495 -0.2323  0.0199
  344SOL    HW1 1931   1.189   7.056   0.636 -1.5571 -1.4214 -0.9900
  344SOL    HW2 1932   1.277   6.927   0.683  0.1366 -0.2913 -0.9366
  345SOL     OW 1933   6.986   0.071   1.154  0.3827 -0.1249 -0.2012
  345SOL    HW1 1934   7.048   0.021   1.093 -1.0144 -1.1855 -0.8182
  345SOL    HW2 1935   6.909   0.011   1.178  0.4713  0.5658  1.9413
  346SOL     OW 1936   1.538   2.875   0.612  0.0582 -0.1869 -0.0276
  346SOL    HW1 1937   1.545   2.974   0.606  0.0446 -0.1658  0.3142
  346SOL    HW2 1938   1.445   2.846   0.587  0.3315 -0.1930 -1.0853
  347SOL     OW 1939   3.853   1.839   4.762  0.6417 -0.1303  0.3067
  347SOL    HW1 1940   3.876   1.936   4.774 -0.9997  0.2456  0.5887
  347SOL    HW2 1941   3.846   1.796   4.852  1.9621 -0.6873  0.1689
  348SOL     OW 1942   6.798   4.411   2.324  0.9172  0.2557 -0.0612
  348SOL    HW1 1943   6.848   4.418   2.411 -0.3366 -0.2109  0.7306
  348SOL    HW2 1944   6.801   4.316   2.292  0.0414  0.0895  0.3188
  349SOL     OW 1945   0.054   3.711   5.117 -0.3347 -0.2045 -0.1267
  349SOL    HW1 1946   0.048   3.637   5.183  2.1726 -1.8712 -1.5891
  349SOL    HW2 1947  -0.035   3.724   5.072 -1.0344 -1.7340  0.7609
  350SOL     OW 1948   4.751   6.144   1.791 -0.0336  0.0416 -0.1504
  350SOL    HW1 1949   4.748   6.083   1.712  0.9437  0.0507 -0.1979
  350SOL    HW2 1950   4.798   6.100   1.867 -0.1743  0.3722  0.1360
  351SOL     OW 1951   3.375   2.535   0.449  0.2352  0.5365  1.2114
  351SOL    HW1 1952   3.404   2.617   0.399  1.6166 -1.1666 -0.9335
  351SOL    HW2 1953   3.275   2.533   0.454  0.0539  1.0797 -1.0565
  352SOL     OW 1954   5.202   6.827   4.890 -0.0537 -0.5486 -0.1559
  352SOL    HW1 1955   5.149   6.747   4.918 -1.3970  0.2381 -0.3218
  352SOL    HW2 1956   5.175   6.853   4.797  1.1739 -0.5529 -0.5240
  353SOL     OW 1957   0.731   2.152   6.960  0.5676  0.0279 -0.0732
  353SOL    HW1 1958   0.654   2.212   6.982  0.1396 -1.0199  1.4802
  353SOL    HW2 1959   0.736   2.138   6.861 -1.9049 -0.6962 -0.1468
  354SOL     OW 1960   3.026   0.098   1.004 -0.2215  0.5527  0.0861
  354SOL    HW1 1961   3.098   0.031   1.020 -0.2241  0.7631  1.0152
  354SOL    HW2 1962   2.966   0.103   1.083 -2.0277 -0.5302 -1.1440
  355SOL     OW 1963   5.619   2.588   5.011  0.4765  0.4343 -0.4176
  355SOL    HW1 1964   5.656   2.553   4.926 -0.1158  0.3949 -0.6576
  355SOL    HW2 1965   5.619   2.688   5.009  1.5021  0.4632 -0.0115
  356SOL     OW 1966   3.832   5.260   5.037  0.6933 -1.1939 -0.0711
  356SOL    HW1 1967   3.777   5.279   5.118 -1.0427  0.3518 -1.5352
  356SOL    HW2 1968   3.788   5.188   4.983 -0.1216  0.2435 -1.3886
  357SOL     OW 1969   0.848   1.454   0.565 -0.6950  0.3899 -0.1187
  357SOL    HW1 1970   0.891   1.501   0.488  1.9977 -0.5866  0.6654
  357SOL    HW2 1971   0.777   1.392   0.531  0.0101  0.4411 -1.7698
  358SOL     OW 1972   5.424   1.037   1.538  0.0993  0.1262 -0.2184
  358SOL    HW1 1973   5.376   1.093   1.605  1.7765  1.0172  0.3160
  358SOL    HW2 1974   5.474   1.096   1.474 -0.3770 -0.7355 -1.4358
  359SOL     OW 1975   1.237   3.551   2.972  0.2804 -0.3031 -0.3624
  359SOL    HW1 1976   1.182   3.579   3.051  1.8968  1.1164  0.3287
  359SOL    HW2 1977   1.208   3.604   2.891  1.0063  0.9248  0.1486
  360SOL     OW 1978   3.543   6.031   4.912  0.2745  0.5771 -0.1009
  360SOL    HW1 1979   3.630   6.080   4.909 -1.2502  3.4539 -0.3744
  360SOL    HW2 1980   3.505   6.037   5.005 -0.7364  1.4710 -0.5546
  361SOL     OW 1981   6.106   5.285   3.269  0.2073 -0.5212 -0.4598
  361SOL    HW1 1982   6.164   5.327   3.200  0.1485 -0.8661 -0.7247
  361SOL    HW2 1983   6.016   5.267   3.230  0.2484 -0.9369 -0.3688
  362SOL     OW 1984   3.486   3.080   1.849 -0.6134  0.0060 -0.1829
  362SOL    HW1 1985   3.467   2.983   1.830  0.6013 -0.5482  1.2266
  362SOL    HW2 1986   3.408   3.120   1.896 -0.3586 -0.8620  1.0328
  363SOL     OW 1987   4.108   5.234   4.509  0.0689  0.2705 -0.4383
  363SOL    HW1 1988   4.079   5.275   4.423 -1.0495  0.2763 -0.0842
  363SOL    HW2 1989   4.207   5.240   4.518  0.0419  1.8798 -0.9210
  364SOL     OW 1990   0.350   5.264   3.818  0.4155 -0.0681 -0.5826
  364SOL    HW1 1991   0.438   5.306   3.841  1.3217 -0.5553 -2.8496
  364SOL    HW2 1992   0.299   5.324   3.756  1.1176 -1.5775 -2.7380
  365SOL     OW 1993   5.834   5.509   3.144 -0.5198 -0.4085  0.2728
  365SOL    HW1 1994   5.894   5.517   3.224  1.6009  0.9096 -1.3263
  365SOL    HW2 1995   5.761   5.577   3.150  0.9014  1.1858  0.1163
  366SOL     OW 1996   5.713   5.315   0.956  0.0651 -1.1582  0.7073
  366SOL    HW1 1997   5.655   5.389   0.989  1.0521 -1.3531  3.0960
  366SOL    HW2 1998   5.661   5.256   0.895 -1.3226  0.3607  0.3665
  367SOL     OW 1999   5.611   3.736   2.005 -0.0355 -0.8067 -0.1794
  367SOL    HW1 2000   5.557   3.724   1.922  0.5750 -0.9069 -0.5728
  367SOL    HW2 2001   5.701   3.693   1.993  0.5926  0.4092 -0.0043
  368SOL     OW 2002   0.899   4.502   5.700 -0.4271  0.4279 -1.1953
  368SOL    HW1 2003   0.890   4.602   5.709 -0.2805  0.4003 -0.6980
  368SOL    HW2 2004   0.877   4.475   5.607  0.8205  1.0726 -1.6970
  369SOL     OW 2005   0.558   5.153   3.493  0.6561 -0.1157 -0.0553
  369SOL    HW1 2006   0.627   5.164   3.421 -0.6238  0.8972 -1.1814
  369SOL    HW2 2007   0.471   5.189   3.460 -0.7102 -2.3865  0.9115
  370SOL     OW 2008   2.664   2.415   6.089  0.2045  0.1142  0.0082
  370SOL    HW1 2009   2.586   2.353   6.090 -0.6047  1.0568 -1.3181
  370SOL    HW2 2010   2.695   2.430   5.995  1.3033  0.6066  0.4172
  371SOL     OW 2011   1.460   3.181   6.035 -0.0254 -0.0280  0.7592
  371SOL    HW1 2012   1.450   3.245   5.959  1.2112  0.4827  1.0053
  371SOL    HW2 2013   1.543   3.126   6.023 -1.5177 -2.2717  0.0830
  372SOL     OW 2014   6.237   2.651   5.318 -0.5128 -0.1381 -0.5537
  372SOL    HW1 2015   6.332   2.662   5.346 -1.5081  1.7026  2.5874
  372SOL    HW2 2016   6.227   2.677   5.221  1.7321  2.4802 -0.1974
  373SOL     OW 2017   0.453   6.157   6.553  0.1170  0.2560 -0.6972
  373SOL    HW1 2018   0.511   6.156   6.471  0.9709 -2.9609 -0.2007
  373SOL    HW2 2019   0.373   6.098   6.537  1.0476 -1.6326  1.1917
  374SOL     OW 2020   5.513   6.004   3.085  0.2489  0.0965  0.0845
  374SOL    HW1 2021   5.539   6.034   3.177  1.7811  0.3603 -0.3984
  374SOL    HW2 2022   5.425   5.958   3.089 -0.4647  1.4827  1.4295
  375SOL     OW 2023   5.423   4.171   4.618  0.1258  0.7942 -0.2963
  375SOL    HW1 2024   5.401   4.220   4.534  2.4169 -0.8643 -1.9782
  375SOL    HW2 2025   5.428   4.237   4.694  1.0543  2.8685 -2.0347
  376SOL     OW 2026   1.180   3.689   3.497  0.5422 -0.6495  0.5068
  376SOL    HW1 2027   1.262   3.738   3.467 -0.3552  1.0230  0.6878
  376SOL    HW2 2028   1.175   3.601   3.450  2.1419 -0.5409  0.0777
  377SOL     OW 2029   5.818   4.413   3.619  0.3554 -0.0722 -0.1559
  377SOL    HW1 2030   5.804   4.444   3.525  0.7659  0.4248 -0.0597
  377SOL    HW2 2031   5.782   4.481   3.683 -1.6043 -1.2376  0.0572
  378SOL     OW 2032   4.156   3.420   4.929  0.2093 -0.2142  0.0317
  378SOL    HW1 2033   4.155   3.507   4.979  1.3769 -0.4206  0.4635
  378SOL    HW2 2034   4.188   3.435   4.836  1.2022 -0.2668  0.3456
  379SOL     OW 2035   5.445   3.641   2.216 -0.4347 -0.3264 -0.3148
  379SOL    HW1 2036   5.486   3.692   2.141 -0.6314  0.0269 -0.1843
  379SOL    HW2 2037   5.415   3.551   2.183 -0.5249 -0.1709 -0.6539
  380SOL     OW 2038   2.960   3.162   0.258  0.1674  0.0034  0.2120
  380SOL    HW1 2039   2.899   3.228   0.302  0.0954 -0.9092  1.5256
  380SOL    HW2 2040   3.055   3.186   0.280  0.2240  0.4959 -0.5209
  381SOL     OW 2041   2.745   5.504   1.483 -0.3426  0.1813  0.0667
  381SOL    HW1 2042   2.662   5.560   1.489 -0.1092  0.4369  1.2429
  381SOL    HW2 2043   2.825   5.561   1.502  0.2238  0.1598 -2.0651
  382SOL     OW 2044   5.616   6.644   5.659 -0.4203  0.3403 -0.1993
  382SOL    HW1 2045   5.680   6.569   5.642 -2.1088 -0.8325 -1.8798
  382SOL    HW2 2046   5.559   6.622   5.737 -1.7476 -0.7920 -1.4361
  383SOL     OW 2047   0.195   3.909   5.483 -0.4721  0.3412 -0.0690
  383SOL    HW1 2048   0.207   4.006   5.503 -1.1209  0.2047  1.0380
  383SOL    HW2 2049   0.148   3.864   5.559  1.7202 -1.2873  0.4681
  384SOL     OW 2050   1.683   2.832   5.120 -0.1579 -0.0749 -0.1549
  384SOL    HW1 2051   1.654   2.743   5.086  0.9418 -0.0538 -1.2663
  384SOL    HW2 2052   1.603   2.890   5.136 -0.9702 -1.6646  1.8614
  385SOL     OW 2053   6.162   5.198   0.223  0.1965  0.1197  0.4109
  385SOL    HW1 2054   6.218   5.252   0.159  1.1767 -0.4597  0.7563
  385SOL    HW2 2055   6.127   5.258   0.295  0.6747  0.4350  0.3886
  386SOL     OW 2056   4.776   6.918   5.479 -0.4567  0.3534 -0.6179
  386SOL    HW1 2057   4.860   6.971   5.478 -0.8217  0.9442 -0.4868
  386SOL    HW2 2058   4.784   6.841   5.415  0.4490 -0.0368 -0.0640
  387SOL     OW 2059   1.626   6.989   5.628 -0.0787 -0.3020  0.6898
  387SOL    HW1 2060   1.563   6.914   5.648 -3.4182  1.7956 -1.1545
  387SOL    HW2 2061   1.664   6.977   5.536 -0.3880  0.1293  0.5060
  388SOL     OW 2062   0.451   1.922   6.519 -0.1575  0.3157 -0.1186
  388SOL    HW1 2063   0.357   1.927   6.554 -0.0798  0.2627  0.0988
  388SOL    HW2 2064   0.471   1.829   6.489  0.3808 -0.0885  1.4037
  389SOL     OW 2065   3.912   4.310   1.465  0.6856 -0.0589  0.5591
  389SOL    HW1 2066   3.891   4.245   1.538 -0.9369 -1.3325 -0.9619
  389SOL    HW2 2067   3.980   4.271   1.403 -1.2491 -0.9866 -1.1046
  390SOL     OW 2068   2.642   1.486   0.917  0.3422 -0.1617  0.0342
  390SOL    HW1 2069   2.671   1.542   0.839  1.3627 -2.0213 -0.9816
  390SOL    HW2 2070   2.655   1.539   1.002  2.1826  0.8271 -0.7969
  391SOL     OW 2071   1.321   4.792   5.435 -0.2634 -0.3692 -0.4894
  391SOL    HW1 2072   1.300   4.818   5.341  0.4801  2.3604  0.0292
  391SOL    HW2 2073   1.419   4.799   5.452 -0.4985  0.2515  0.7717
  392SOL     OW 2074   6.682   5.791   1.380  0.2425  0.3769 -0.9068
  392SOL    HW1 2075   6.615   5.853   1.421 -1.4193 -1.6047 -0.4844
  392SOL    HW2 2076   6.662   5.697   1.408  2.8080 -0.3802 -1.3419
  393SOL     OW 2077   1.826   4.650   0.312 -0.0229  0.4221 -0.6296
  393SOL    HW1 2078   1.752   4.583   0.306 -0.3870  0.7222  0.3816
  393SOL    HW2 2079   1.876   4.638   0.397  1.9774 -0.6339 -1.8653
  394SOL     OW 2080   0.264   1.165   6.467  0.7148 -0.0619  0.4439
  394SOL    HW1 2081   0.289   1.262   6.473  0.9114  0.0077 -1.1043
  394SOL    HW2 2082   0.180   1.149   6.519 -0.6579  1.4501 -1.1868
  395SOL     OW 2083   4.710   3.519   0.481  0.0850  0.2175  0.4120
  395SOL    HW1 2084   4.660   3.511   0.394  0.8414 -0.0359 -0.0099
  395SOL    HW2 2085   4.664   3.464   0.550  0.5747 -1.2234 -0.3582
  396SOL     OW 2086   2.223   1.820   0.823 -0.3441 -0.1419  0.8834
  396SOL    HW1 2087   2.168   1.901   0.801 -0.1610 -0.3933 -0.5828
  396SOL    HW2 2088   2.206   1.749   0.755  0.8869 -0.6671  1.1028
  397SOL     OW 2089   6.668   0.235   5.337  0.4576 -0.3142 -0.2419
  397SOL    HW1 2090   6.678   0.233   5.237  1.6516 -0.1811 -0.1396
  397SOL    HW2 2091   6.756   0.213   5.379  0.0079 -0.1696  0.7820
  398SOL     OW 2092   2.544   0.141   4.712 -0.1167  0.1617 -0.1836
  398SOL    HW1 2093   2.631   0.093   4.710  0.1642  0.7051 -1.1727
  398SOL    HW2 2094   2.486   0.109   4.636 -0.4928  0.3396  0.0228
  399SOL     OW 2095   0.128   6.253   2.696  0.2102 -0.2324  0.8049
  399SOL    HW1 2096   0.194   6.302   2.753  0.0217  0.8958  0.0806
  399SOL    HW2 2097   0.035   6.268   2.731  0.0193  1.0749 -0.1868
  400SOL     OW 2098   6.417   6.064   3.925  0.1088  0.6238 -0.5575
  400SOL    HW1 2099   6.459   6.077   3.836  0.8048  1.6011 -0.1059
  400SOL    HW2 2100   6.326   6.106   3.927 -1.0460 -1.6147 -1.5812
  401SOL     OW 2101   6.491   1.968   6.308 -0.7149 -0.4434 -0.1245
  401SOL    HW1 2102   6.465   1.937   6.217  0.5337  0.2650 -0.7434
  401SOL    HW2 2103   6.523   2.063   6.304 -0.6263 -0.4002  1.0536
  402SOL     OW 2104   0.068   0.198   3.545  0.5299 -0.0083 -0.9206
  402SOL    HW1 2105  -0.013   0.245   3.580  1.2868  0.6519 -0.0026
  402SOL    HW2 2106   0.133   0.182   3.619  0.1570 -2.9216 -1.0955
  403SOL     OW 2107   3.422   0.515   0.212  0.7082 -0.0741 -0.0433
  403SOL    HW1 2108   3.470   0.454   0.274 -0.3707 -0.8918  0.0212
  403SOL    HW2 2109   3.362   0.575   0.264  0.3306 -0.2786 -0.2392
  404SOL     OW 2110   3.006   4.322   6.273 -0.0099 -0.2661 -0.2718
  404SOL    HW1 2111   2.948   4.325   6.354 -0.9702 -0.2935 -0.9390
  404SOL    HW2 2112   3.007   4.412   6.229  1.3948  0.0530  0.3588
  405SOL     OW 2113   6.697   2.217   2.785 -0.1655 -0.1437 -0.2078
  405SOL    HW1 2114   6.611   2.197   2.832 -0.3612  1.3692  0.1255
  405SOL    HW2 2115   6.712   2.316   2.783  1.6014 -0.3763 -0.2115
  406SOL     OW 2116   5.197   4.671   5.933 -0.1932 -0.0081  0.0253
  406SOL    HW1 2117   5.118   4.627   5.976 -0.2680  0.8046  0.7457
  406SOL    HW2 2118   5.227   4.617   5.854 -0.2291 -1.3913  0.9303
  407SOL     OW 2119   0.937   3.694   4.086 -0.8441  0.2522 -0.3228
  407SOL    HW1 2120   0.995   3.617   4.113 -0.1817  0.9073  0.1947
  407SOL    HW2 2121   0.918   3.689   3.988  1.3940  0.8325 -0.8567
  408SOL     OW 2122   4.272   3.355   1.540 -0.4319  0.8392  0.3494
  408SOL    HW1 2123   4.187   3.392   1.578 -2.0986 -2.1766 -0.1563
  408SOL    HW2 2124   4.311   3.289   1.605 -1.0803 -1.2767 -1.3058
  409SOL     OW 2125   6.221   2.812   1.455 -0.1325  0.2804 -0.1260
  409SOL    HW1 2126   6.253   2.731   1.505  0.7538  1.0639  0.6127
  409SOL    HW2 2127   6.255   2.808   1.361  2.5963  1.2603  0.7161
  410SOL     OW 2128   0.650   3.544   1.857 -0.3587  0.1124  0.0107
  410SOL    HW1 2129   0.747   3.544   1.833 -0.8473  1.6657 -2.3516
  410SOL    HW2 2130   0.634   3.606   1.934  0.6539 -1.2477  1.3680
  411SOL     OW 2131   0.393   3.266   2.236  0.1781  0.4237  0.3626
  411SOL    HW1 2132   0.432   3.282   2.145 -0.9707  1.3318 -0.0032
  411SOL    HW2 2133   0.457   3.297   2.306  1.1369 -0.4222 -0.1249
  412SOL     OW 2134   2.768   4.719   3.789  0.1250  0.1024 -0.4793
  412SOL    HW1 2135   2.676   4.747   3.762 -0.1586 -0.8963 -0.5836
  412SOL    HW2 2136   2.772   4.706   3.888  0.0684 -0.1720 -0.5138
  413SOL     OW 2137   3.443   5.693   1.506  0.0834 -0.0415 -0.3819
  413SOL    HW1 2138   3.487   5.650   1.585  2.2821 -2.0988 -2.5538
  413SOL    HW2 2139   3.346   5.671   1.507 -0.0306  0.2870  1.8719
  414SOL     OW 2140   1.964   6.841   1.922 -0.2462  0.2001  0.1745
  414SOL    HW1 2141   2.035   6.884   1.867 -0.9284 -0.2085 -1.0723
  414SOL    HW2 2142   1.883   6.826   1.866 -0.9551 -0.2906  1.2895
  415SOL     OW 2143   5.913   1.921   4.980  0.0723  0.1034  0.4216
  415SOL    HW1 2144   5.820   1.951   5.003  0.1275  0.6152  0.0115
  415SOL    HW2 2145   5.914   1.890   4.885 -0.3382 -2.7271  1.2396
  416SOL     OW 2146   5.390   2.279   5.744 -0.7429 -0.8828  0.2758
  416SOL    HW1 2147   5.299   2.321   5.742 -1.0814 -1.4389  2.1335
  416SOL    HW2 2148   5.460   2.350   5.737 -1.2465 -0.5420 -2.5337
  417SOL     OW 2149   1.754   1.589   6.946 -0.1886  0.1013  0.0554
  417SOL    HW1 2150   1.770   1.642   7.029 -1.5260  0.6365  0.0014
  417SOL    HW2 2151   1.772   1.493   6.964 -0.3014  0.2361  0.9303
  418SOL     OW 2152   4.553   5.843   5.029  0.0422 -0.1214 -0.1072
  418SOL    HW1 2153   4.624   5.829   4.959  0.2475 -0.5349  0.1817
  418SOL    HW2 2154   4.561   5.937   5.064 -0.6776  0.4183 -1.3085
  419SOL     OW 2155   0.777   6.016   3.052 -0.2397  0.3172  0.0125
  419SOL    HW1 2156   0.804   6.112   3.059  2.1280 -0.0942 -2.1062
  419SOL    HW2 2157   0.677   6.009   3.054 -0.4873  2.8625 -0.4313
  420SOL     OW 2158   0.560   6.977   5.046  0.5202  0.0485  0.4240
  420SOL    HW1 2159   0.487   6.978   5.114  0.4372  0.6782  0.3316
  420SOL    HW2 2160   0.565   6.886   5.003 -0.6775  0.2081 -0.0774
  421SOL     OW 2161   4.343   2.059   4.260 -0.0177 -0.7878 -0.0450
  421SOL    HW1 2162   4.292   1.991   4.206  0.7622 -1.0842 -0.4216
  421SOL    HW2 2163   4.416   2.097   4.204  1.0170 -1.3448  0.9054
  422SOL     OW 2164   4.361   1.427   1.887  0.3711 -0.1447  0.2764
  422SOL    HW1 2165   4.403   1.509   1.850 -1.9230  0.7766 -0.4991
  422SOL    HW2 2166   4.263   1.444   1.903 -0.3880 -2.9515 -0.7326
  423SOL     OW 2167   2.769   1.396   4.919  0.1496  0.7620 -0.0796
  423SOL    HW1 2168   2.758   1.490   4.886 -0.5103  0.9779  0.7420
  423SOL    HW2 2169   2.698   1.375   4.986 -0.7024 -0.8665 -1.4235
  424SOL     OW 2170   2.716   5.026   2.031  0.1108  0.1915  0.0108
  424SOL    HW1 2171   2.792   5.081   2.068 -0.7916 -0.1648  2.5760
  424SOL    HW2 2172   2.753   4.956   1.969  1.5794  1.6727 -0.8665
  425SOL     OW 2173   5.504   1.530   4.468 -0.2956  0.2422  0.0679
  425SOL    HW1 2174   5.460   1.604   4.415  2.6171  1.2737 -1.0941
  425SOL    HW2 2175   5.543   1.568   4.552 -0.2577 -0.3438  0.3168
  426SOL     OW 2176   1.307   3.477   5.625 -0.3341 -0.3552  0.0505
  426SOL    HW1 2177   1.316   3.562   5.573 -1.1899 -2.3487 -3.6378
  426SOL    HW2 2178   1.210   3.457   5.638 -0.1335 -0.4491  1.6041
  427SOL     OW 2179   5.854   2.624   3.294 -0.3461  0.1969 -0.3637
  427SOL    HW1 2180   5.762   2.616   3.256 -0.7366  1.5673  0.2274
  427SOL    HW2 2181   5.854   2.593   3.389 -0.6275  1.7922  0.1916
  428SOL     OW 2182   2.763   0.856   4.606 -0.0241  0.3383 -0.1307
  428SOL    HW1 2183   2.849   0.905   4.594 -0.3939  0.5995 -2.1963
  428SOL    HW2 2184   2.765   0.771   4.553 -0.8266  0.0838  0.2284
  429SOL     OW 2185   1.078   4.657   3.728  0.2595 -0.2789 -0.7845
  429SOL    HW1 2186   1.041   4.715   3.655  0.7494 -0.2456 -1.0087
  429SOL    HW2 2187   1.156   4.703   3.771  0.5880 -0.7287 -0.8968
  430SOL     OW 2188   0.560   1.344   5.135  0.3543  0.4156  0.2394
  430SOL    HW1 2189   0.527   1.255   5.106 -0.0237  0.8185 -0.6176
  430SOL    HW2 2190   0.535   1.413   5.067  1.1547  1.0799  0.5867
  431SOL     OW 2191   2.488   2.214   1.378  0.0812  0.5127  0.5172
  431SOL    HW1 2192   2.410   2.198   1.439 -0.9460 -1.2536 -1.1499
  431SOL    HW2 2193   2.539   2.129   1.366 -1.2833  0.0138 -3.0196
  432SOL     OW 2194   5.997   3.402   2.396  0.3367  0.2330 -0.2328
  432SOL    HW1 2195   5.969   3.485   2.348  0.0343 -0.2810 -0.9721
  432SOL    HW2 2196   6.056   3.426   2.473 -0.4843  1.1956  0.1239
  433SOL     OW 2197   3.682   4.051   6.251 -0.4354 -0.0303  0.6320
  433SOL    HW1 2198   3.685   3.988   6.328  2.3488 -0.0836  0.5926
  433SOL    HW2 2199   3.765   4.041   6.196 -1.5350  1.2251 -1.4162
  434SOL     OW 2200   5.313   6.358   3.528 -0.3566 -0.1337 -0.3867
  434SOL    HW1 2201   5.277   6.264   3.522 -1.3138  0.1970 -0.0086
  434SOL    HW2 2202   5.240   6.419   3.557  0.2314  0.7586 -0.7573
  435SOL     OW 2203   3.886   1.240   6.317  0.3803  0.2592 -0.0802
  435SOL    HW1 2204   3.809   1.286   6.363 -0.3701 -0.7445 -0.2891
  435SOL    HW2 2205   3.959   1.306   6.300  0.2566  0.8869  1.6207
  436SOL     OW 2206   3.966   6.415   5.681  0.0309  0.0390  0.0075
  436SOL    HW1 2207   3.876   6.393   5.717  0.2343  0.7230  0.9870
  436SOL    HW2 2208   3.957   6.452   5.588 -0.4534 -2.3094 -0.9466
  437SOL     OW 2209   0.127   1.073   4.691  0.0269 -0.0476 -0.4969
  437SOL    HW1 2210   0.181   1.151   4.659 -0.4477  0.5980  0.2226
  437SOL    HW2 2211   0.045   1.065   4.635  0.8207 -0.9890 -1.5485
  438SOL     OW 2212   1.875   6.585   4.777  0.3358  0.1357 -0.1722
  438SOL    HW1 2213   1.838   6.507   4.727  0.3099 -0.4560  0.7576
  438SOL    HW2 2214   1.961   6.614   4.734 -0.1194  0.1887 -1.0739
  439SOL     OW 2215   5.870   6.953   2.052 -0.2630 -0.1995 -0.2071
  439SOL    HW1 2216   5.966   6.977   2.036 -0.2979 -0.3883 -0.7181
  439SOL    HW2 2217   5.854   6.947   2.150  0.3305 -0.4647 -0.1177
  440SOL     OW 2218   4.871   0.567   6.784  0.3186  0.3685 -0.2147
  440SOL    HW1 2219   4.859   0.601   6.691 -1.9834  1.3151  0.3556
  440SOL    HW2 2220   4.828   0.477   6.793  0.6197  0.2352 -0.0713
  441SOL     OW 2221   6.016   4.668   1.599  1.2671  0.3513  0.2350
  441SOL    HW1 2222   5.991   4.600   1.666 -0.7416  0.6425 -0.1617
  441SOL    HW2 2223   6.103   4.711   1.625  1.4816 -0.8477  1.5874
  442SOL     OW 2224   5.883   3.300   0.490 -0.0300  0.4063  0.0020
  442SOL    HW1 2225   5.807   3.258   0.441 -0.7173  0.6847  0.8287
  442SOL    HW2 2226   5.849   3.372   0.550  0.8051  0.0649  0.9051
  443SOL     OW 2227   4.704   4.672   2.247  0.0740  0.7111  0.1326
  443SOL    HW1 2228   4.790   4.680   2.297  0.0827  0.2241  0.1984
  443SOL    HW2 2229   4.708   4.594   2.185 -0.4498  0.4675  0.3992
  444SOL     OW 2230   3.093   0.467   1.186  0.1313 -0.1213 -0.6291
  444SOL    HW1 2231   3.005   0.456   1.140 -0.8738  1.1997  0.8678
  444SOL    HW2 2232   3.146   0.538   1.140 -0.6725  0.8652 -0.0756
  445SOL     OW 2233   3.019   5.717   2.169  0.0841 -0.1245 -0.8657
  445SOL    HW1 2234   2.955   5.781   2.128 -0.6996 -0.1272  0.3029
  445SOL    HW2 2235   3.064   5.760   2.247  0.0948 -0.7399 -0.5226
  446SOL     OW 2236   6.004   4.477   1.782  0.2799 -0.0567  0.0932
  446SOL    HW1 2237   6.052   4.514   1.862 -0.3994  1.7050 -0.2743
  446SOL    HW2 2238   6.068   4.421   1.729  0.6978 -1.3922  1.9133
  447SOL     OW 2239   4.732   2.855   6.411 -0.0939 -0.3349  0.1557
  447SOL    HW1 2240   4.707   2.761   6.386 -0.0469 -0.2825 -0.0962
  447SOL    HW2 2241   4.671   2.919   6.366 -0.7309 -0.2717  1.0908
  448SOL     OW 2242   2.773   2.290   3.348  0.6554 -0.4335  0.3135
  448SOL    HW1 2243   2.788   2.341   3.432  1.0674 -0.2552  0.1347
  448SOL    HW2 2244   2.767   2.192   3.368  0.6938 -0.3855  0.5563
  449SOL     OW 2245   2.103   3.572   4.403  0.6385 -0.1648  0.0957
  449SOL    HW1 2246   2.106   3.477   4.433 -1.5362  0.2378  1.8579
  449SOL    HW2 2247   2.060   3.628   4.474  0.6915  1.9292 -1.4291
  450SOL     OW 2248   1.554   4.653   1.219 -0.1055 -0.3580 -0.5968
  450SOL    HW1 2249   1.465   4.607   1.220 -0.5681  0.4861  0.8801
  450SOL    HW2 2250   1.627   4.584   1.215 -0.7946 -1.1629  0.1814
  451SOL     OW 2251   1.412   3.522   2.068  0.2533 -0.0190 -0.4767
  451SOL    HW1 2252   1.498   3.478   2.043  0.1786 -1.9661  2.2535
  451SOL    HW2 2253   1.430   3.618   2.091  1.7381 -0.4243  0.1616
  452SOL     OW 2254   4.226   6.935   2.660  0.1433 -0.8332 -0.2392
  452SOL    HW1 2255   4.231   6.994   2.579  0.5934 -0.1593  0.2608
  452SOL    HW2 2256   4.282   6.975   2.733 -2.3408  0.0587  1.3229
  453SOL     OW 2257   4.218   6.165   4.998 -0.1526  0.3058  0.2324
  453SOL    HW1 2258   4.293   6.178   5.062  1.2566 -1.5980 -0.9259
  453SOL    HW2 2259   4.209   6.247   4.940  1.4203  0.3579  0.0226
  454SOL     OW 2260   6.868   2.817   4.227  0.1463 -0.4880 -0.4062
  454SOL    HW1 2261   6.811   2.746   4.187 -1.0739  0.0003  0.4172
  454SOL    HW2 2262   6.917   2.865   4.154 -1.7533  0.1582 -1.3122
  455SOL     OW 2263   6.057   4.919   5.143  0.0557  0.3377  0.0068
  455SOL    HW1 2264   6.002   4.897   5.223  1.4128  0.0765  0.9064
  455SOL    HW2 2265   6.010   4.889   5.061 -1.6890  1.2501  0.6285
  456SOL     OW 2266   2.032   2.191   2.882 -0.3505 -0.5921  0.4214
  456SOL    HW1 2267   1.956   2.190   2.817  0.6718 -2.1763 -0.8579
  456SOL    HW2 2268   2.064   2.098   2.897  0.9340 -0.0267  1.3982
  457SOL     OW 2269   0.586   4.603   6.991  0.2872  0.4701 -0.1054
  457SOL    HW1 2270   0.587   4.519   7.046 -2.0715 -1.0546 -2.1935
  457SOL    HW2 2271   0.499   4.650   7.004 -0.5349 -0.1612 -2.7073
  458SOL     OW 2272   2.937   2.223   3.583  0.6126  0.1013 -0.4040
  458SOL    HW1 2273   2.892   2.312   3.583  0.9537  0.2794  0.1714
  458SOL    HW2 2274   2.885   2.159   3.527 -1.4922 -0.2677  1.8274
  459SOL     OW 2275   1.642   1.270   5.992  0.2236 -0.2464 -1.0166
  459SOL    HW1 2276   1.572   1.340   6.003  0.2362 -0.2115 -1.1540
  459SOL    HW2 2277   1.599   1.180   5.986  0.3109 -0.4689  1.1260
  460SOL     OW 2278   2.238   1.291   5.246  0.0799 -0.5091 -0.3251
  460SOL    HW1 2279   2.156   1.325   5.292  0.6565  0.0459  0.3210
  460SOL    HW2 2280   2.251   1.194   5.269 -1.4869 -1.1944 -2.0557
  461SOL     OW 2281   6.240   4.566   3.593  0.6152  0.4244  0.5138
  461SOL    HW1 2282   6.286   4.586   3.680 -0.0869 -2.7316  1.7388
  461SOL    HW2 2283   6.153   4.615   3.591 -1.2884 -2.4186  3.5930
  462SOL     OW 2284   4.030   3.615   4.356 -0.1073 -0.0142  0.2151
  462SOL    HW1 2285   3.944   3.565   4.357 -1.1863  1.7067 -0.9960
  462SOL    HW2 2286   4.012   3.712   4.335  2.2585  0.0687 -1.8354
  463SOL     OW 2287   0.484   0.721   4.442  0.8718 -0.0640  0.1203
  463SOL    HW1 2288   0.543   0.752   4.517  0.4027 -0.8555  0.8328
  463SOL    HW2 2289   0.440   0.635   4.467 -1.2074  0.8817 -0.0480
  464SOL     OW 2290   3.827   6.139   6.448 -0.4205 -0.5087  0.2974
  464SOL    HW1 2291   3.766   6.130   6.369  0.1475  1.4431 -0.4174
  464SOL    HW2 2292   3.922   6.143   6.418 -0.2574  1.3695  0.9388
  465SOL     OW 2293   2.134   2.331   1.884  0.8817 -0.2733  0.0429
  465SOL    HW1 2294   2.034   2.322   1.879  0.9842 -1.0581 -1.1370
  465SOL    HW2 2295   2.159   2.373   1.971 -0.3107 -2.6964  1.6977
  466SOL     OW 2296   3.647   0.962   5.765 -0.3088  0.0780  0.2177
  466SOL    HW1 2297   3.656   0.885   5.701 -0.3103  1.0667 -1.0027
  466SOL    HW2 2298   3.614   1.042   5.716 -2.1132  0.3817  1.8248
  467SOL     OW 2299   0.468   2.682   2.417 -0.1036  0.3210 -0.1315
  467SOL    HW1 2300   0.451   2.626   2.498 -0.1809  1.6786  0.8372
  467SOL    HW2 2301   0.565   2.676   2.393 -0.3238 -1.0948 -0.7419
  468SOL     OW 2302   4.052   0.361   6.656 -0.1686  0.1699  0.4402
  468SOL    HW1 2303   4.058   0.387   6.560 -0.0559  1.2472  0.7244
  468SOL    HW2 2304   4.134   0.392   6.705 -0.1913 -0.4260  0.8745
  469SOL     OW 2305   3.915   3.997   6.096  0.3279  0.3607 -0.0190
  469SOL    HW1 2306   3.968   3.927   6.143  1.0939  0.7384 -0.3051
  469SOL    HW2 2307   3.888   3.963   6.006  0.4393  0.3168 -0.0369
  470SOL     OW 2308   2.539   4.510   3.416 -0.0749 -0.0821 -0.4360
  470SOL    HW1 2309   2.561   4.607   3.412 -1.2797  0.2653  0.4633
  470SOL    HW2 2310   2.611   4.461   3.465  0.3167  0.4363 -0.4912
  471SOL     OW 2311   2.020   4.710   4.262  0.5731  0.2468  0.3944
  471SOL    HW1 2312   2.012   4.803   4.297 -0.4021 -0.8654  3.4852
  471SOL    HW2 2313   2.050   4.713   4.167  1.2251  3.6517  0.5647
  472SOL     OW 2314   5.996   4.130   0.310 -0.4239 -0.4389 -0.9539
  472SOL    HW1 2315   5.911   4.101   0.354 -0.1999 -0.3419 -0.4421
  472SOL    HW2 2316   5.986   4.128   0.211 -1.5839  1.2093 -0.9068
  473SOL     OW 2317   6.488   1.581   3.037  0.2229  0.5647  0.2539
  473SOL    HW1 2318   6.410   1.632   3.001 -0.7391 -1.5167 -0.8021
  473SOL    HW2 2319   6.566   1.591   2.976  0.6708  2.1991  1.0234
  474SOL     OW 2320   0.146   6.713   5.775 -0.0329 -0.3026 -0.5835
  474SOL    HW1 2321   0.121   6.662   5.857  0.4014  0.6946  0.1834
  474SOL    HW2 2322   0.212   6.659   5.722  0.5146 -0.5056  0.2790
  475SOL     OW 2323   6.062   0.163   5.759  0.2711 -0.2330  0.0177
  475SOL    HW1 2324   6.011   0.084   5.725  0.1837 -0.0292 -0.3260
  475SOL    HW2 2325   6.160   0.150   5.742  0.0330  1.2931 -3.3840
  476SOL     OW 2326   2.033   4.686   1.491 -0.0619 -0.1106 -0.4649
  476SOL    HW1 2327   1.985   4.768   1.524  0.7702  0.2936 -0.2252
  476SOL    HW2 2328   2.054   4.627   1.569 -0.1399 -0.2688 -0.5646
  477SOL     OW 2329   0.686   7.020   3.979  0.6565 -0.3036 -0.1358
  477SOL    HW1 2330   0.622   6.943   3.980 -0.9053  0.7952 -3.0794
  477SOL    HW2 2331   0.642   7.100   4.021  0.7396  0.0067 -0.6357
  478SOL     OW 2332   2.502   5.629   3.623  0.0910 -0.4378  0.0437
  478SOL    HW1 2333   2.406   5.619   3.596  0.1016  1.6253 -1.0036
  478SOL    HW2 2334   2.539   5.712   3.581  0.9629  1.4817  4.1559
  479SOL     OW 2335   3.675   3.501   2.769  0.4916 -0.0235 -0.0596
  479SOL    HW1 2336   3.706   3.430   2.832  1.3450 -0.1742 -0.6275
  479SOL    HW2 2337   3.583   3.479   2.736  0.4331 -0.4449  0.3743
  480SOL     OW 2338   2.741   0.163   1.378 -0.0662  0.4850  0.3477
  480SOL    HW1 2339   2.807   0.181   1.451  0.1116  1.1142  0.0362
  480SOL    HW2 2340   2.781   0.099   1.313  1.7331  3.5192 -1.7878
  481SOL     OW 2341   2.900   2.521   0.615 -0.0642 -0.1635 -0.3159
  481SOL    HW1 2342   2.846   2.459   0.559  1.0211 -0.0619 -1.5105
  481SOL    HW2 2343   2.865   2.520   0.709 -0.1202 -2.5147 -0.3074
  482SOL     OW 2344   5.413   4.684   3.455  0.0122 -0.2815 -0.2599
  482SOL    HW1 2345   5.493   4.670   3.396 -0.9744 -0.6429 -1.5671
  482SOL    HW2 2346   5.376   4.775   3.440  0.1194 -0.1520  0.2658
  483SOL     OW 2347   6.228   1.678   2.061 -0.0265 -0.6151 -0.9903
  483SOL    HW1 2348   6.192   1.679   2.154 -0.6393 -0.2625 -1.2257
  483SOL    HW2 2349   6.215   1.768   2.019  0.6554 -0.6371 -1.2650
  484SOL     OW 2350   0.930   5.274   5.322  0.4039 -0.2505  0.5092
  484SOL    HW1 2351   1.017   5.318   5.342  1.7065 -1.9768 -0.9763
  484SOL    HW2 2352   0.888   5.242   5.406  1.0659  0.8398  1.2740
  485SOL     OW 2353   4.076   5.450   3.386 -0.8036  0.1382  0.4750
  485SOL    HW1 2354   4.077   5.549   3.372 -1.1637  0.0219 -0.4487
  485SOL    HW2 2355   4.159   5.410   3.349 -1.0603  0.0004  0.0399
  486SOL     OW 2356   6.901   5.973   0.013 -0.6277 -0.0754  0.6046
  486SOL    HW1 2357   6.829   6.022  -0.035  1.0765  1.4273 -0.5457
  486SOL    HW2 2358   6.897   5.995   0.110 -1.8251 -0.1863  0.5978
  487SOL     OW 2359   0.210   0.549   6.278  0.3194  0.3119 -0.4947
  487SOL    HW1 2360   0.270   0.471   6.294  0.3059  0.5231  0.6574
  487SOL    HW2 2361   0.261   0.622   6.233 -0.1165 -0.9992 -3.3617
  488SOL     OW 2362   0.899   0.141   3.507  0.2727  0.4255  0.1025
  488SOL    HW1 2363   0.945   0.066   3.555  0.5837 -0.0520 -0.9068
  488SOL    HW2 2364   0.933   0.228   3.542  0.3091  0.0960  0.9092
  489SOL     OW 2365   1.393   5.984   2.555  0.3620 -0.3318  0.0342
  489SOL    HW1 2366   1.295   5.966   2.554  0.6703 -2.3898  0.7309
  489SOL    HW2 2367   1.424   5.995   2.650  0.8400  0.0998 -0.1656
  490SOL     OW 2368   2.748   5.856   6.213  0.2690  0.0816  0.2837
  490SOL    HW1 2369   2.800   5.941   6.207  1.7118 -0.6011  2.0623
  490SOL    HW2 2370   2.811   5.779   6.225 -1.0518 -1.1120 -0.2016
  491SOL     OW 2371   5.878   3.464   1.086 -0.6181  0.0156  0.6177
  491SOL    HW1 2372   5.914   3.440   1.176  2.5987 -0.7247 -0.7385
  491SOL    HW2 2373   5.863   3.380   1.033 -1.8349  0.4801  0.1970
  492SOL     OW 2374   1.087   1.785   6.789 -0.3776  0.1658 -0.0560
  492SOL    HW1 2375   0.989   1.771   6.803 -0.3813 -2.5619 -1.9904
  492SOL    HW2 2376   1.137   1.756   6.870 -1.1272  4.2751  2.1552
  493SOL     OW 2377   2.462   5.107   4.720  0.2397  0.0310 -0.8392
  493SOL    HW1 2378   2.365   5.095   4.696 -0.1900  0.6177  0.5119
  493SOL    HW2 2379   2.516   5.036   4.674 -0.9778 -1.0439 -0.6890
  494SOL     OW 2380   0.848   6.095   5.075  0.3805 -0.2977 -0.1543
  494SOL    HW1 2381   0.868   6.092   5.173 -0.9694 -0.3361  0.1407
  494SOL    HW2 2382   0.913   6.156   5.029 -0.4842  1.6899  1.1590
  495SOL     OW 2383   4.764   5.308   5.602 -0.1024 -0.3561 -0.2751
  495SOL    HW1 2384   4.848   5.359   5.618 -1.0554  1.3479 -0.4742
  495SOL    HW2 2385   4.686   5.371   5.598 -1.0389 -1.5055 -3.0249
  496SOL     OW 2386   6.327   2.727   2.482  0.0350  0.2638 -0.0542
  496SOL    HW1 2387   6.358   2.648   2.429  0.6486 -0.8636  1.8741
  496SOL    HW2 2388   6.268   2.696   2.557 -0.7927  1.7900 -0.0331
  497SOL     OW 2389   3.633   0.465   0.007  0.6617 -0.3945 -0.3576
  497SOL    HW1 2390   3.604   0.428  -0.082  0.0354 -0.9119  0.0550
  497SOL    HW2 2391   3.573   0.430   0.079  0.7461  0.5548  0.1925
  498SOL     OW 2392   1.662   6.124   1.410 -0.9165 -0.0450  0.2435
  498SOL    HW1 2393   1.759   6.104   1.424 -1.2254 -1.3387  0.6801
  498SOL    HW2 2394   1.652   6.196   1.342  0.3560  0.2797  0.3761
  499SOL     OW 2395   4.474   5.650   0.964  0.2673  0.7609  0.4988
  499SOL    HW1 2396   4.491   5.560   0.926 -4.6403  0.1522 -1.0058
  499SOL    HW2 2397   4.496   5.720   0.896  0.0321  0.3471 -0.0105
  500SOL     OW 2398   6.674   1.930   6.041 -0.6704 -0.4883 -0.0937
  500SOL    HW1 2399   6.693   1.856   6.105 -1.0830  0.2632  0.9150
  500SOL    HW2 2400   6.676   2.018   6.089 -0.7632  0.1135 -1.1534
  501SOL     OW 2401   1.352   6.753   0.785 -0.2516 -0.5813 -0.3892
  501SOL    HW1 2402   1.284   6.776   0.856  0.8519  1.1381  0.1704
  501SOL    HW2 2403   1.436   6.805   0.801  0.5601 -1.2774 -2.1354
  502SOL     OW 2404   2.886   5.667   6.665 -0.1224  0.0766  0.6721
  502SOL    HW1 2405   2.882   5.578   6.710  0.8577 -0.4264 -0.2100
  502SOL    HW2 2406   2.823   5.730   6.711  0.0316 -0.7291  2.0276
  503SOL     OW 2407   2.621   3.908   5.310 -0.2273 -0.3812  0.6799
  503SOL    HW1 2408   2.651   3.975   5.378 -0.1545  1.9740 -1.5373
  503SOL    HW2 2409   2.554   3.950   5.249 -1.5456 -2.9271  0.2211
  504SOL     OW 2410   6.901   6.444   2.525  0.0216 -0.0780 -0.0480
  504SOL    HW1 2411   6.931   6.537   2.541  0.6061 -0.2621 -0.0509
  504SOL    HW2 2412   6.849   6.411   2.604  0.2592  0.0693  0.1702
  505SOL     OW 2413   3.761   6.353   4.185 -0.0961 -0.4126 -0.0639
  505SOL    HW1 2414   3.712   6.298   4.253 -1.2120 -2.8094 -2.5703
  505SOL    HW2 2415   3.734   6.449   4.194 -2.4660 -1.0925  1.0104
  506SOL     OW 2416   2.582   6.101   1.439  0.0861  0.5550  0.0608
  506SOL    HW1 2417   2.624   6.033   1.499 -0.6972  0.5059  0.5656
  506SOL    HW2 2418   2.654   6.157   1.397  0.6651  0.3353  0.7419
  507SOL     OW 2419   2.694   1.344   1.989  0.2353  0.1719  0.4368
  507SOL    HW1 2420   2.602   1.352   2.028  0.1838  2.5970 -0.0001
  507SOL    HW2 2421   2.745   1.273   2.038 -1.7461 -1.0424  0.8682
  508SOL     OW 2422   0.681   4.889   5.556  0.2100 -0.3070 -0.3030
  508SOL    HW1 2423   0.605   4.831   5.526  0.8346 -0.6913 -1.1554
  508SOL    HW2 2424   0.662   4.984   5.532 -0.2757 -0.3040  0.0516
  509SOL     OW 2425   4.741   0.157   0.193  0.4384 -0.3050  0.1606
  509SOL    HW1 2426   4.788   0.245   0.195  0.2388 -0.1715 -0.7588
  509SOL    HW2 2427   4.736   0.120   0.286 -0.4291  1.1559  0.7198
  510SOL     OW 2428   4.809   4.360   5.592 -0.0502  0.1304 -0.2421
  510SOL    HW1 2429   4.886   4.398   5.643  1.2937 -1.6914 -0.8230
  510SOL    HW2 2430   4.735   4.339   5.655  1.1209 -0.9555  0.8370
  511SOL     OW 2431   2.732   2.989   0.289  0.5714  0.3822 -0.3396
  511SOL    HW1 2432   2.799   3.063   0.300  0.3491  0.6124 -0.5223
  511SOL    HW2 2433   2.657   3.021   0.231  1.8977 -0.8755 -2.9604
  512SOL     OW 2434   4.478   1.378   0.580  0.1707 -0.0724  0.1948
  512SOL    HW1 2435   4.525   1.400   0.665 -1.1602  0.5407  0.8100
  512SOL    HW2 2436   4.488   1.281   0.560  0.9423 -0.1209  0.7530
  513SOL     OW 2437   6.088   1.065   2.519  0.0982 -0.4706 -0.2623
  513SOL    HW1 2438   6.082   1.017   2.432 -0.8463  0.8729 -0.9668
  513SOL    HW2 2439   6.160   1.023   2.575  1.6891 -0.4926 -2.2274
  514SOL     OW 2440   0.282   5.642   4.482 -0.4966 -0.3367 -0.2995
  514SOL    HW1 2441   0.306   5.668   4.389  1.3713 -1.7480 -0.2720
  514SOL    HW2 2442   0.365   5.637   4.538 -1.7285  2.3109  2.0081
  515SOL     OW 2443   1.139   1.243   0.945  0.2415 -0.4827  0.6990
  515SOL    HW1 2444   1.131   1.160   1.001 -2.7714 -0.3341  0.6458
  515SOL    HW2 2445   1.053   1.294   0.948  0.4943  0.4045 -2.7130
  516SOL     OW 2446   2.867   5.690   0.522 -0.4690 -0.6667 -0.2358
  516SOL    HW1 2447   2.858   5.728   0.430 -1.0062 -1.2702 -0.4436
  516SOL    HW2 2448   2.894   5.762   0.586  0.2660 -0.3216 -0.9270
  517SOL     OW 2449   1.502   6.314   1.849  0.9798  0.1936 -0.2196
  517SOL    HW1 2450   1.570   6.248   1.818  1.5946 -0.0072  1.4354
  517SOL    HW2 2451   1.488   6.303   1.948 -0.3546  1.2429 -0.2610
  518SOL     OW 2452   2.188   4.287   1.230  0.0707 -0.5065 -0.1072
  518SOL    HW1 2453   2.179   4.372   1.282  0.0026 -0.5504 -0.0472
  518SOL    HW2 2454   2.263   4.297   1.163 -0.1891 -0.2628 -0.3686
  519SOL     OW 2455   0.525   6.119   4.743  0.4076 -0.2844 -0.6126
  519SOL    HW1 2456   0.451   6.070   4.789 -1.5600  0.6963 -2.5517
  519SOL    HW2 2457   0.564   6.187   4.805 -2.8119  1.6848 -0.5206
  520SOL     OW 2458   6.453   3.164   4.626 -0.0437  0.0156  0.6248
  520SOL    HW1 2459   6.503   3.156   4.713  0.6465  0.1069  0.2433
  520SOL    HW2 2460   6.490   3.098   4.561 -0.3689  0.1494  0.3067
  521SOL     OW 2461   5.427   3.949   4.879  0.1322  0.1460 -0.4404
  521SOL    HW1 2462   5.396   4.018   4.814  0.9347 -0.9290 -2.0101
  521SOL    HW2 2463   5.359   3.876   4.884 -2.0393  2.0926  3.1670
  522SOL     OW 2464   5.630   3.990   0.021 -0.4640 -0.1283  0.4968
  522SOL    HW1 2465   5.729   3.980   0.025 -0.5409 -1.3075 -0.1494
  522SOL    HW2 2466   5.587   3.915   0.072 -1.0280  0.1875  0.4981
  523SOL     OW 2467   0.591   6.792   0.942  0.3118  0.0967 -0.1621
  523SOL    HW1 2468   0.538   6.849   0.878 -2.2614 -0.7766  1.0418
  523SOL    HW2 2469   0.648   6.851   0.999  3.0772  0.8746 -3.4505
  524SOL     OW 2470   6.743   2.490   2.212 -0.2159 -0.2595  0.0649
  524SOL    HW1 2471   6.796   2.417   2.170  0.0636 -0.9075  1.4925
  524SOL    HW2 2472   6.668   2.516   2.150 -0.6228 -2.0898 -0.2882
  525SOL     OW 2473   0.424   4.701   5.480 -0.4878  0.2114  0.1828
  525SOL    HW1 2474   0.369   4.651   5.547 -2.3800  1.6273 -0.2364
  525SOL    HW2 2475   0.399   4.671   5.388 -1.0368  1.2857 -0.0335
  526SOL     OW 2476   4.382   1.902   4.568 -0.1766 -0.3326  0.4587
  526SOL    HW1 2477   4.455   1.945   4.622  0.6296 -0.9662 -0.0921
  526SOL    HW2 2478   4.341   1.970   4.507  0.5109 -0.1374  0.2004
  527SOL     OW 2479   0.979   2.088   0.046 -0.5624  0.2209 -0.3511
  527SOL    HW1 2480   0.887   2.111   0.015 -1.0304  1.0734  1.5058
  527SOL    HW2 2481   1.043   2.096  -0.030 -1.9044  0.3523 -1.5018
  528SOL     OW 2482   6.568   5.666   4.768 -0.0019  0.1598 -0.0128
  528SOL    HW1 2483   6.526   5.633   4.853  1.2516  0.1129  0.6053
  528SOL    HW2 2484   6.502   5.722   4.718 -0.5296  0.7981  1.3553
  529SOL     OW 2485   2.478   6.673   4.965  0.2714 -1.0906  0.4086
  529SOL    HW1 2486   2.544   6.747   4.971  1.2868 -2.0174  1.0966
  529SOL    HW2 2487   2.427   6.667   5.051  0.8146 -1.7257  0.6990
  530SOL     OW 2488   3.761   1.450   0.600  0.3604 -0.3728 -0.2330
  530SOL    HW1 2489   3.704   1.405   0.531  1.6190 -0.0822 -1.5076
  530SOL    HW2 2490   3.761   1.395   0.684 -0.1515 -1.4370 -0.9037
  531SOL     OW 2491   4.357   6.940   0.297  0.0698  0.2439 -0.0977
  531SOL    HW1 2492   4.343   6.867   0.230 -0.7771 -0.5610  0.9285
  531SOL    HW2 2493   4.423   6.910   0.366  0.2621  0.7348 -0.0622
  532SOL     OW 2494   0.117   3.613   0.642  0.1783 -0.0250  0.1200
  532SOL    HW1 2495   0.069   3.701   0.637  1.4925  0.7099 -0.2732
  532SOL    HW2 2496   0.111   3.567   0.553  1.9477  1.0849 -0.6494
  533SOL     OW 2497   3.333   6.673   2.600  0.0772 -0.0815 -0.0863
  533SOL    HW1 2498   3.318   6.712   2.510  1.1950  1.8143  0.4794
  533SOL    HW2 2499   3.250   6.627   2.631  0.0304 -1.8074 -2.4978
  534SOL     OW 2500   1.519   6.974   1.774 -0.0700  0.0431  0.3350
  534SOL    HW1 2501   1.425   6.968   1.809  0.2094  2.4549  1.6864
  534SOL    HW2 2502   1.517   7.021   1.686 -0.3817 -2.8080 -1.3072
  535SOL     OW 2503   5.602   5.070   2.497 -0.3850  0.2660 -0.3018
  535SOL    HW1 2504   5.698   5.083   2.473  0.2233 -1.7392  0.8507
  535SOL    HW2 2505   5.550   5.152   2.472  0.9736  0.1776 -3.9577
  536SOL     OW 2506   6.542   6.499   2.494 -0.2216  0.3969 -0.6944
  536SOL    HW1 2507   6.624   6.442   2.488 -0.3471  0.1765 -0.3172
  536SOL    HW2 2508   6.567   6.594   2.475  0.4190  0.5899  0.9160
  537SOL     OW 2509   2.715   1.440   4.355 -0.6375  0.0622 -0.2804
  537SOL    HW1 2510   2.629   1.409   4.395  0.3559 -1.4327  0.7738
  537SOL    HW2 2511   2.722   1.540   4.364 -0.7472 -0.1039  2.8399
  538SOL     OW 2512   3.455   3.180   4.426 -0.6832 -0.5985  0.3110
  538SOL    HW1 2513   3.368   3.220   4.453 -0.5419  0.0155 -0.1406
  538SOL    HW2 2514   3.481   3.110   4.493 -0.1781  1.1048  1.9833
  539SOL     OW 2515   1.853   4.982   6.685  0.4779 -0.3713  0.4134
  539SOL    HW1 2516   1.932   5.004   6.629  1.5312 -0.0131  1.9781
  539SOL    HW2 2517   1.798   4.911   6.639  0.9852  0.2873 -1.2803
  540SOL     OW 2518   1.974   1.921   2.943 -0.0456 -0.0482 -0.5052
  540SOL    HW1 2519   1.926   1.945   3.027  0.2746  1.6203 -0.7700
  540SOL    HW2 2520   1.908   1.899   2.871 -0.3216 -1.1782  0.0618
  541SOL     OW 2521   3.563   5.336   3.762 -0.0710 -0.1301  0.3035
  541SOL    HW1 2522   3.477   5.300   3.726 -0.9591  1.5062  0.6791
  541SOL    HW2 2523   3.607   5.266   3.818 -0.9986 -1.1029 -0.1454
  542SOL     OW 2524   5.627   5.228   5.377  0.3560  0.1656 -0.8286
  542SOL    HW1 2525   5.630   5.169   5.296  0.9520 -1.3846  0.2833
  542SOL    HW2 2526   5.532   5.234   5.410  0.4978 -1.5425 -0.0149
  543SOL     OW 2527   6.369   3.664   2.602 -0.1140 -0.0210 -0.5662
  543SOL    HW1 2528   6.402   3.625   2.516  1.3858  0.1044 -0.0736
  543SOL    HW2 2529   6.371   3.764   2.597  0.6792 -0.0007 -0.1653
  544SOL     OW 2530   1.003   4.711   0.693  0.0602 -0.1067  0.0893
  544SOL    HW1 2531   0.927   4.739   0.751 -0.4535  2.0931 -1.4904
  544SOL    HW2 2532   1.090   4.740   0.734  0.1594 -2.6521  1.9123
  545SOL     OW 2533   5.148   6.709   1.365 -0.0714 -0.2579 -0.5192
  545SOL    HW1 2534   5.205   6.761   1.302 -1.0940  0.5844 -0.7908
  545SOL    HW2 2535   5.127   6.765   1.445 -1.1260 -0.2507 -0.7763
  546SOL     OW 2536   6.935   5.917   2.517 -0.1230 -0.0283 -0.3043
  546SOL    HW1 2537   7.017   5.918   2.573 -0.6387  1.0279  0.4580
  546SOL    HW2 2538   6.957   5.947   2.425  0.0816  1.7648  0.3050
  547SOL     OW 2539   5.094   1.638   1.075 -0.2373  0.2833  0.3703
  547SOL    HW1 2540   5.054   1.547   1.082 -1.0306  0.3839 -1.9502
  547SOL    HW2 2541   5.175   1.635   1.017  0.4628  0.8652  1.2960
  548SOL     OW 2542   3.338   6.600   0.647 -0.0778 -0.1613  1.2297
  548SOL    HW1 2543   3.248   6.643   0.660 -0.1377  0.4423 -0.8547
  548SOL    HW2 2544   3.348   6.525   0.712 -2.2675 -0.5272  1.2394
  549SOL     OW 2545   5.292   1.789   6.893  0.6043 -0.4464  0.3044
  549SOL    HW1 2546   5.228   1.794   6.816 -0.8553  0.5222  1.5284
  549SOL    HW2 2547   5.359   1.862   6.885  1.2052 -1.0701 -0.6430
  550SOL     OW 2548   4.889   3.184   2.865 -0.4501 -0.0207  0.5952
  550SOL    HW1 2549   4.834   3.146   2.790 -1.2070  0.6337  0.7951
  550SOL    HW2 2550   4.978   3.214   2.830 -0.9695  0.7053 -0.1501
  551SOL     OW 2551   1.307   1.113   1.396 -0.8483  0.1389 -0.1198
  551SOL    HW1 2552   1.374   1.097   1.323 -1.1745  2.3760 -1.0063
  551SOL    HW2 2553   1.355   1.117   1.483  0.0961  0.9190 -0.6466
  552SOL     OW 2554   5.678   6.531   6.582 -0.0531 -0.3990 -0.3529
  552SOL    HW1 2555   5.594   6.487   6.551 -1.0908  1.4045 -0.2606
  552SOL    HW2 2556   5.655   6.615   6.631  1.8904  2.2991 -3.6958
  553SOL     OW 2557   4.587   6.277   4.123 -0.0867  0.3733 -0.2130
  553SOL    HW1 2558   4.638   6.340   4.182 -0.3257  0.2625  0.1177
  553SOL    HW2 2559   4.489   6.296   4.130 -0.2553 -0.7177  0.7370
  554SOL     OW 2560   5.759   2.843   1.611  0.0094  0.5040  0.0827
  554SOL    HW1 2561   5.731   2.938   1.621  0.0765  0.5464 -0.1435
  554SOL    HW2 2562   5.854   2.833   1.642  0.5404  0.8204 -1.3629
  555SOL     OW 2563   3.615   4.244   5.274 -0.0139  0.6063 -0.0065
  555SOL    HW1 2564   3.582   4.206   5.187  0.1080 -0.1390  0.2623
  555SOL    HW2 2565   3.543   4.300   5.315 -0.1959  0.6796 -0.4250
  556SOL     OW 2566   0.325   3.792   1.778 -0.2445  0.7569  0.1632
  556SOL    HW1 2567   0.322   3.870   1.716 -0.7020  1.3999  0.9739
  556SOL    HW2 2568   0.392   3.810   1.851  0.3071  0.0026 -0.1409
  557SOL     OW 2569   5.181   5.157   6.446 -0.1839 -0.0494  0.3649
  557SOL    HW1 2570   5.163   5.229   6.378  0.5515 -0.9933 -0.8928
  557SOL    HW2 2571   5.280   5.150   6.461 -0.0587 -1.9791 -0.9547
  558SOL     OW 2572   3.599   4.144   3.193 -0.4982  0.4249 -0.4478
  558SOL    HW1 2573   3.627   4.129   3.099 -1.0981 -1.7300 -0.3301
  558SOL    HW2 2574   3.677   4.175   3.247  0.1415  0.4442 -1.3666
  559SOL     OW 2575   5.438   5.032   4.278 -0.2282  0.9501 -0.1377
  559SOL    HW1 2576   5.351   4.990   4.304  0.5615 -0.5993  0.1340
  559SOL    HW2 2577   5.509   5.004   4.343  0.7026  1.2971 -0.9832
  560SOL     OW 2578   6.220   3.535   4.740 -0.0144  0.4751 -0.7037
  560SOL    HW1 2579   6.136   3.587   4.721 -0.1466  0.7194  0.4450
  560SOL    HW2 2580   6.285   3.594   4.788 -0.1971 -0.4294  0.6935
  561SOL     OW 2581   6.899   4.447   5.776 -0.3300 -0.2444 -0.4483
  561SOL    HW1 2582   6.835   4.374   5.752  0.7916 -1.5291  0.2968
  561SOL    HW2 2583   6.960   4.465   5.699  1.3975 -2.3403  0.3054
  562SOL     OW 2584   2.935   0.125   5.098 -0.6798  0.5311  0.3408
  562SOL    HW1 2585   3.022   0.168   5.076  0.3228 -1.4066  0.2605
  562SOL    HW2 2586   2.883   0.185   5.159  1.0628  1.4067  1.0593
  563SOL     OW 2587   6.952   1.106   4.319 -0.0186 -0.8152 -0.4170
  563SOL    HW1 2588   6.869   1.144   4.278 -1.6373  0.2228  3.3662
  563SOL    HW2 2589   7.022   1.177   4.326  0.1561 -0.9196 -1.0394
  564SOL     OW 2590   6.871   1.542   0.648 -0.2082 -0.3457  0.4849
  564SOL    HW1 2591   6.950   1.589   0.688 -0.2523  0.3988 -0.2742
  564SOL    HW2 2592   6.811   1.510   0.721 -1.8619  3.6051  1.0936
  565SOL     OW 2593   3.274   3.076   3.723  0.0561  0.3500 -0.0113
  565SOL    HW1 2594   3.325   3.155   3.691 -1.7541  1.0198 -1.4418
  565SOL    HW2 2595   3.189   3.067   3.671  0.0858 -2.4320  0.2367
  566SOL     OW 2596   2.063   5.490   1.789  0.2903  0.1099  0.0993
  566SOL    HW1 2597   2.132   5.464   1.856  0.0292  1.6717  1.0373
  566SOL    HW2 2598   2.108   5.530   1.709  0.5960 -1.6629 -0.6503
  567SOL     OW 2599   1.919   4.079   1.381 -0.1769  0.6084 -0.5412
  567SOL    HW1 2600   1.939   4.076   1.283  0.8586 -0.0936 -0.3285
  567SOL    HW2 2601   1.860   4.002   1.404  0.2742  0.2701 -0.4857
  568SOL     OW 2602   6.471   6.111   0.476 -0.5014 -0.0959  0.7692
  568SOL    HW1 2603   6.404   6.183   0.460  1.1013  1.2867 -0.0193
  568SOL    HW2 2604   6.540   6.113   0.404 -0.1250 -2.1298  1.0062
  569SOL     OW 2605   6.988   3.050   0.235  0.5350 -0.3135  0.0774
  569SOL    HW1 2606   6.937   3.110   0.174 -0.6789 -1.0855  0.2969
  569SOL    HW2 2607   7.084   3.077   0.236  0.0606  1.4826  0.0267
  570SOL     OW 2608   4.728   5.754   0.615  0.2543 -0.2172  0.8474
  570SOL    HW1 2609   4.788   5.812   0.560  0.7804 -0.9050  0.6842
  570SOL    HW2 2610   4.750   5.658   0.598 -0.3573 -0.4583  1.3921
  571SOL     OW 2611   2.280   4.250   3.132  0.8325  0.1771 -0.2342
  571SOL    HW1 2612   2.277   4.247   3.032  1.7001  0.0913 -0.2630
  571SOL    HW2 2613   2.352   4.313   3.162 -1.0176  2.1052  0.3563
  572SOL     OW 2614   1.030   6.827   4.694  0.1592 -0.2290  0.5178
  572SOL    HW1 2615   1.088   6.908   4.681  1.0034 -0.9913 -0.7250
  572SOL    HW2 2616   0.949   6.834   4.636  0.1817 -0.2202  0.4875
  573SOL     OW 2617   7.000   0.642   6.180 -0.0995  0.0634  0.1935
  573SOL    HW1 2618   6.926   0.603   6.235  0.7009 -1.0773  0.5149
  573SOL    HW2 2619   7.088   0.612   6.217  0.5555  1.8816  0.1840
  574SOL     OW 2620   3.854   1.243   5.917  0.2604 -0.6238 -0.0180
  574SOL    HW1 2621   3.822   1.336   5.937  1.0142  0.0384 -1.6410
  574SOL    HW2 2622   3.779   1.178   5.927 -0.7091  0.4027 -0.4513
  575SOL     OW 2623   3.606   2.290   0.269 -0.4014 -0.1593  0.0817
  575SOL    HW1 2624   3.522   2.317   0.223 -0.3941 -1.1673 -0.5406
  575SOL    HW2 2625   3.586   2.228   0.344 -0.3007  0.5224  0.6919
  576SOL     OW 2626   1.661   3.307   1.416 -0.3359 -0.2016 -0.0689
  576SOL    HW1 2627   1.693   3.376   1.352 -0.7583  0.5064  0.4714
  576SOL    HW2 2628   1.649   3.220   1.368  0.7033 -0.0462 -0.6421
  577SOL     OW 2629   1.514   0.598   2.364  0.5491 -0.0609  0.9569
  577SOL    HW1 2630   1.456   0.532   2.411 -1.5307  0.6873 -0.3984
  577SOL    HW2 2631   1.481   0.610   2.270  1.1412  2.5137  1.0000
  578SOL     OW 2632   0.958   5.389   0.693  0.3816  0.7972  0.1388
  578SOL    HW1 2633   0.967   5.294   0.664 -1.6083  0.1421  1.4723
  578SOL    HW2 2634   0.942   5.448   0.614  0.1063 -0.2026 -0.5590
  579SOL     OW 2635   2.262   2.929   3.187 -0.4155  0.0114 -0.2723
  579SOL    HW1 2636   2.332   2.866   3.152  1.2044  1.2823  0.5507
  579SOL    HW2 2637   2.246   3.002   3.120 -0.2748  0.2462 -0.0461
  580SOL     OW 2638   5.335   4.714   3.724  0.2490  0.3654  0.0119
  580SOL    HW1 2639   5.420   4.767   3.732  0.5640 -0.4290  2.7296
  580SOL    HW2 2640   5.328   4.678   3.630  1.1970  3.1536 -1.2316
  581SOL     OW 2641   0.540   3.049   3.368  0.1803 -0.7010  0.1245
  581SOL    HW1 2642   0.591   3.113   3.425 -2.1690  1.7716 -0.3463
  581SOL    HW2 2643   0.481   2.992   3.426 -1.4877  1.1491  0.3575
  582SOL     OW 2644   3.393   6.060   3.139  0.7374  0.3541  0.4345
  582SOL    HW1 2645   3.488   6.039   3.160  0.5037 -1.5841 -0.2359
  582SOL    HW2 2646   3.341   6.068   3.224  1.2007 -0.2305  0.7826
  583SOL     OW 2647   2.935   3.852   5.166 -0.0106  0.0726 -0.4392
  583SOL    HW1 2648   3.001   3.902   5.110  1.1343 -1.4543 -0.5084
  583SOL    HW2 2649   2.911   3.908   5.245  1.5006  0.6179 -0.3203
  584SOL     OW 2650   2.527   6.031   0.836  0.6130  0.3655  0.0887
  584SOL    HW1 2651   2.556   6.104   0.774  0.0033 -0.0528 -0.7020
  584SOL    HW2 2652   2.607   5.985   0.873  0.9923  0.9524  0.0196
  585SOL     OW 2653   4.376   0.039   0.854  0.9448  0.0987 -0.3054
  585SOL    HW1 2654   4.288   0.037   0.808  0.1992  1.1571  1.0002
  585SOL    HW2 2655   4.391  -0.048   0.901 -0.0823  0.4112  0.6357
  586SOL     OW 2656   3.639   1.783   0.227 -0.0514 -0.5909 -0.1673
  586SOL    HW1 2657   3.555   1.837   0.229  0.8694  0.9590 -1.0379
  586SOL    HW2 2658   3.676   1.781   0.134  2.4201  1.3618  0.6520
  587SOL     OW 2659   6.073   0.936   1.483  0.2340  0.0869 -0.6219
  587SOL    HW1 2660   5.995   0.895   1.436 -1.7320  2.1188  0.6684
  587SOL    HW2 2661   6.070   1.035   1.472  1.9625  0.3021  0.5147
  588SOL     OW 2662   3.340   6.582   6.886 -0.0796  0.1864 -0.5441
  588SOL    HW1 2663   3.388   6.576   6.974 -0.8465 -0.9121 -0.1773
  588SOL    HW2 2664   3.351   6.673   6.848 -0.9605  1.1754  1.4168
  589SOL     OW 2665   2.975   4.836   0.563  0.2871  0.2687 -0.1390
  589SOL    HW1 2666   3.073   4.839   0.543  0.6923 -0.0376  1.6357
  589SOL    HW2 2667   2.961   4.803   0.656 -1.4278  1.8441  0.2314
  590SOL     OW 2668   4.863   6.708   0.663  0.0026  0.4167 -0.3326
  590SOL    HW1 2669   4.796   6.652   0.712  0.6976 -0.2688 -0.1458
  590SOL    HW2 2670   4.928   6.747   0.728 -0.4724  1.4700 -0.4593
  591SOL     OW 2671   4.870   5.214   3.969  1.0349  0.0996  0.1354
  591SOL    HW1 2672   4.865   5.182   3.875 -1.3514 -0.3323  0.3452
  591SOL    HW2 2673   4.800   5.285   3.984  0.5304 -0.7134  1.8630
  592SOL     OW 2674   4.807   2.079   3.979  0.3118  0.0868 -0.6058
  592SOL    HW1 2675   4.873   2.043   3.914 -0.4407 -1.7916 -0.3827
  592SOL    HW2 2676   4.758   2.156   3.938 -0.3164 -1.2023 -2.3677
  593SOL     OW 2677   3.083   1.223   5.050  0.4769 -1.1425  0.0155
  593SOL    HW1 2678   3.007   1.259   4.995 -0.0973 -1.5410  0.5351
  593SOL    HW2 2679   3.091   1.278   5.134  0.3209 -1.5256  0.2819
  594SOL     OW 2680   5.614   1.628   0.078  0.6127 -0.0842 -0.8484
  594SOL    HW1 2681   5.570   1.555   0.131 -1.0055  0.5116 -1.3092
  594SOL    HW2 2682   5.577   1.628  -0.015 -2.0485  3.3971 -0.0078
  595SOL     OW 2683   6.703   0.702   4.759 -0.3873  0.7755 -0.6127
  595SOL    HW1 2684   6.678   0.605   4.763 -0.8839  0.9337  0.6904
  595SOL    HW2 2685   6.701   0.740   4.852  0.1599  1.9436 -1.0717
  596SOL     OW 2686   4.830   5.356   2.084  0.1514  0.1515 -0.0403
  596SOL    HW1 2687   4.761   5.384   2.152  0.1362 -0.6091  0.2632
  596SOL    HW2 2688   4.847   5.258   2.092 -1.1091 -0.3159 -2.2808
  597SOL     OW 2689   4.585   0.070   5.554 -0.6993  0.3887  0.2426
  597SOL    HW1 2690   4.611   0.156   5.512 -1.7253  0.3798 -0.4460
  597SOL    HW2 2691   4.654   0.000   5.535 -0.0418  0.9561  0.5096
  598SOL     OW 2692   3.936   3.212   5.286  0.8897  0.4142  0.1152
  598SOL    HW1 2693   3.898   3.267   5.360 -0.5339 -1.4517  0.8424
  598SOL    HW2 2694   3.993   3.139   5.324  0.2501 -0.4828 -0.5964
  599SOL     OW 2695   1.965   6.555   1.333  0.7037  0.1372  0.0912
  599SOL    HW1 2696   1.971   6.464   1.294  0.8296  0.3688 -0.4465
  599SOL    HW2 2697   2.045   6.609   1.305 -0.1526  0.9166 -0.9513
  600SOL     OW 2698   6.703   4.052   4.943 -0.3285 -0.1709 -0.0079
  600SOL    HW1 2699   6.644   4.130   4.965 -1.3011 -0.9554  0.2458
  600SOL    HW2 2700   6.799   4.081   4.943 -0.7341  1.2841 -1.0723
  601SOL     OW 2701   2.020   1.329   3.745 -0.1069 -0.4785  0.3077
  601SOL    HW1 2702   1.944   1.392   3.733  0.4874 -0.1342 -2.5097
  601SOL    HW2 2703   2.092   1.373   3.799 -0.3681  0.6951 -0.2604
  602SOL     OW 2704   2.723   6.570   6.518  0.3718 -0.2541 -0.1602
  602SOL    HW1 2705   2.654   6.576   6.590  0.2844 -1.0451 -0.1754
  602SOL    HW2 2706   2.803   6.625   6.544  0.2177 -0.2870  0.3957
  603SOL     OW 2707   2.157   0.660   0.736 -0.3588 -1.0564 -0.2307
  603SOL    HW1 2708   2.099   0.697   0.665 -0.5114 -3.1251 -1.2753
  603SOL    HW2 2709   2.253   0.662   0.705  0.0530  1.2308  0.9907
  604SOL     OW 2710   0.621   5.429   1.969  0.4540 -0.1261  0.5709
  604SOL    HW1 2711   0.560   5.442   2.047  0.2886  1.2525  0.2510
  604SOL    HW2 2712   0.712   5.462   1.992  0.5311 -0.1785  0.3478
  605SOL     OW 2713   0.863   6.679   1.993  0.2597  0.2277  0.3732
  605SOL    HW1 2714   0.768   6.650   1.981  0.4907 -0.3543 -0.1011
  605SOL    HW2 2715   0.883   6.691   2.090 -0.6946  1.7178  0.4316
  606SOL     OW 2716   3.983   0.799   4.841 -0.6782 -0.1465 -0.2397
  606SOL    HW1 2717   3.924   0.871   4.806 -1.4416  0.3252  1.9013
  606SOL    HW2 2718   4.013   0.822   4.934  1.4056 -1.2474 -0.5709
  607SOL     OW 2719   0.951   4.664   6.441  0.1410 -0.1569 -0.2486
  607SOL    HW1 2720   0.867   4.667   6.496  1.0435 -3.2504  1.5550
  607SOL    HW2 2721   1.001   4.750   6.453 -2.4895  1.6194 -1.0911
  608SOL     OW 2722   2.967   5.859   4.746 -0.1835  0.6467 -0.1388
  608SOL    HW1 2723   3.023   5.910   4.681 -1.0301 -0.6094 -1.9244
  608SOL    HW2 2724   3.025   5.819   4.817  0.5465  3.8614  1.3037
  609SOL     OW 2725   4.309   2.286   3.287  0.0667  0.6855  0.0955
  609SOL    HW1 2726   4.349   2.377   3.299 -3.0195  2.2708 -0.6764
  609SOL    HW2 2727   4.256   2.284   3.202  3.2226 -3.1759 -2.1283
  610SOL     OW 2728   5.022   0.840   5.919  0.2879 -0.2143 -0.0347
  610SOL    HW1 2729   5.022   0.927   5.969 -0.1092  0.7214 -1.6013
  610SOL    HW2 2730   4.991   0.767   5.980 -2.7043  1.2824  0.4302
  611SOL     OW 2731   3.405   6.944   1.700 -0.0739 -0.2560  0.7096
  611SOL    HW1 2732   3.375   6.855   1.664 -1.2759  0.0529  0.9137
  611SOL    HW2 2733   3.422   7.006   1.623  0.2052 -0.4724  0.5898
  612SOL     OW 2734   2.448   4.269   0.272 -0.1858 -0.2615 -0.3458
  612SOL    HW1 2735   2.420   4.185   0.319  0.6184 -0.0642  0.4892
  612SOL    HW2 2736   2.388   4.283   0.193  0.3068 -2.1747 -1.1201
  613SOL     OW 2737   5.972   4.424   3.968 -0.0266 -0.4847  0.1443
  613SOL    HW1 2738   5.985   4.426   3.869 -0.5411  0.2625  0.0866
  613SOL    HW2 2739   5.890   4.476   3.992  0.4455 -0.1301  1.0177
  614SOL     OW 2740   4.965   4.002   6.735 -0.1741  0.6224 -0.4254
  614SOL    HW1 2741   4.866   3.991   6.741 -0.3459  2.0656 -0.3588
  614SOL    HW2 2742   4.989   4.041   6.646  0.4880 -0.9827 -1.0056
  615SOL     OW 2743   2.561   2.610   0.104 -0.3376  0.3875 -0.3559
  615SOL    HW1 2744   2.585   2.514   0.086 -1.1320 -0.0987  1.0806
  615SOL    HW2 2745   2.645   2.665   0.102  0.3628 -0.6081  0.4749
  616SOL     OW 2746   6.950   3.606   2.723  0.1394  0.4443 -0.8656
  616SOL    HW1 2747   6.985   3.569   2.809  2.1260  0.7214 -1.4990
  616SOL    HW2 2748   6.871   3.665   2.742  2.1738  2.7809  1.1951
  617SOL     OW 2749   2.403   5.421   5.971 -0.0655 -0.6974 -0.0267
  617SOL    HW1 2750   2.492   5.387   5.942 -0.5309 -2.1917  0.2443
  617SOL    HW2 2751   2.401   5.428   6.071 -0.0403 -0.0238 -0.0667
  618SOL     OW 2752   0.173   2.379   2.137 -0.2327  0.2569  0.0796
  618SOL    HW1 2753   0.195   2.363   2.041 -0.8082 -0.6717  0.0869
  618SOL    HW2 2754   0.257   2.397   2.188  0.1574  0.0128 -0.4675
  619SOL     OW 2755   0.957   5.346   0.159 -0.0330  0.4141  0.3510
  619SOL    HW1 2756   0.884   5.414   0.153 -0.7177 -0.4474 -2.2280
  619SOL    HW2 2757   0.921   5.262   0.198  0.5392  1.0949  2.4738
  620SOL     OW 2758   4.746   0.973   6.836 -0.2677  0.1285  0.4015
  620SOL    HW1 2759   4.654   0.934   6.844 -0.2645  0.1541  0.5640
  620SOL    HW2 2760   4.813   0.909   6.873 -0.1935  0.0004  0.0489
  621SOL     OW 2761   5.046   4.177   5.481 -0.0503  0.1696 -0.0707
  621SOL    HW1 2762   4.953   4.208   5.501 -0.1796  0.1091 -0.5568
  621SOL    HW2 2763   5.049   4.077   5.483 -0.3453  0.1127 -1.4949
  622SOL     OW 2764   3.298   2.171   0.317  0.1514 -0.4223 -0.1881
  622SOL    HW1 2765   3.339   2.176   0.408  0.2263 -2.7882 -0.0338
  622SOL    HW2 2766   3.260   2.260   0.293 -1.7280 -0.1834  3.0291
  623SOL     OW 2767   1.550   4.952   6.098 -0.1601  0.2972  0.0092
  623SOL    HW1 2768   1.574   4.943   6.195 -0.8019 -0.6052  0.0965
  623SOL    HW2 2769   1.451   4.966   6.089 -0.0830  0.5490 -0.5117
  624SOL     OW 2770   0.315   4.021   1.620  0.5261 -0.2195 -0.7329
  624SOL    HW1 2771   0.277   3.989   1.533  0.5010  2.3195 -1.7330
  624SOL    HW2 2772   0.391   4.084   1.602  0.9494 -0.1615  1.1154
  625SOL     OW 2773   3.518   1.581   6.699 -0.0000 -0.0078 -0.0009
  625SOL    HW1 2774   3.570   1.514   6.751 -1.3737  0.3611  1.9575
  625SOL    HW2 2775   3.423   1.582   6.730 -0.2988  2.0312 -0.7691
  626SOL     OW 2776   2.620   6.447   3.807 -0.9408 -0.0579 -0.1577
  626SOL    HW1 2777   2.560   6.426   3.884  1.1227  0.5618  1.7402
  626SOL    HW2 2778   2.672   6.365   3.783  0.8362  0.5355  1.4336
  627SOL     OW 2779   6.095   6.897   6.444 -0.0998  0.2470 -0.4957
  627SOL    HW1 2780   6.055   6.989   6.452 -1.3793 -0.2740 -0.6618
  627SOL    HW2 2781   6.050   6.836   6.509 -0.7382 -0.7577 -1.8593
  628SOL     OW 2782   3.865   5.793   5.090  0.3668 -0.1146 -0.6522
  628SOL    HW1 2783   3.941   5.755   5.144  0.3656 -0.1371 -0.6664
  628SOL    HW2 2784   3.810   5.854   5.148  0.8960  0.5828 -0.8738
  629SOL     OW 2785   0.095   2.245   1.530 -0.2905 -0.0222 -0.1147
  629SOL    HW1 2786   0.185   2.288   1.532 -0.5765  0.6251 -0.7288
  629SOL    HW2 2787   0.024   2.315   1.519 -0.8821 -0.5117  0.4782
  630SOL     OW 2788   4.446   2.267   0.799  0.4889 -0.7459 -0.4117
  630SOL    HW1 2789   4.534   2.289   0.759  0.6859 -1.1496 -0.2033
  630SOL    HW2 2790   4.409   2.348   0.845  0.0555 -0.1524 -1.7639
  631SOL     OW 2791   2.201   6.036   5.473  0.5313  0.8031 -0.0233
  631SOL    HW1 2792   2.275   6.001   5.531 -0.5984 -1.1988  0.2980
  631SOL    HW2 2793   2.229   6.123   5.433  2.6059  0.6652  0.9754
  632SOL     OW 2794   2.945   2.038   0.990  0.2764 -0.0077  0.5264
  632SOL    HW1 2795   3.040   2.062   1.010 -0.2302  0.9485  2.0180
  632SOL    HW2 2796   2.885   2.085   1.055 -1.2975  0.2427 -1.0433
  633SOL     OW 2797   3.979   5.883   0.164 -0.1631 -0.0491 -0.0673
  633SOL    HW1 2798   4.026   5.795   0.159 -0.6412 -0.3185  0.1003
  633SOL    HW2 2799   3.949   5.910   0.073  1.5787  0.8408 -0.4319
  634SOL     OW 2800   4.044   4.867   1.497  0.1600  0.0340 -0.1801
  634SOL    HW1 2801   4.036   4.953   1.446  0.8685 -0.4736 -1.1637
  634SOL    HW2 2802   4.115   4.877   1.567 -0.7263  0.6893  0.6551
  635SOL     OW 2803   4.240   6.411   3.085  0.1966  0.1056  0.1549
  635SOL    HW1 2804   4.245   6.399   2.986  0.5888  0.8789  0.0738
  635SOL    HW2 2805   4.202   6.501   3.105 -0.1790 -0.1766  0.7115
  636SOL     OW 2806   5.619   6.508   6.938  0.5912  0.0451  0.0673
  636SOL    HW1 2807   5.701   6.454   6.921  0.8664  0.2226  0.7748
  636SOL    HW2 2808   5.586   6.489   7.031 -0.1394  0.0081 -0.1969
  637SOL     OW 2809   6.531   4.241   0.996  0.2151  0.0034  0.5157
  637SOL    HW1 2810   6.540   4.337   1.022  2.0168 -0.1742  0.6989
  637SOL    HW2 2811   6.609   4.190   1.032 -1.4456 -1.8290  1.6904
  638SOL     OW 2812   6.460   1.748   0.612 -0.2830 -0.6886 -0.0009
  638SOL    HW1 2813   6.416   1.809   0.545  0.7133  1.1949  0.9835
  638SOL    HW2 2814   6.556   1.734   0.586 -0.0724 -0.4947  0.6766
  639SOL     OW 2815   4.338   4.521   1.899 -0.2981 -0.1789 -0.7436
  639SOL    HW1 2816   4.376   4.436   1.936  0.4770  0.2182 -0.6326
  639SOL    HW2 2817   4.257   4.499   1.844 -0.7858 -0.8798  0.2223
  640SOL     OW 2818   2.925   4.056   5.368 -0.1402  0.1269 -0.0239
  640SOL    HW1 2819   2.974   4.027   5.451 -0.2104 -1.1494 -0.4129
  640SOL    HW2 2820   2.986   4.113   5.312  0.2277  0.1950  0.4327
  641SOL     OW 2821   0.731   4.841   1.569 -0.1434 -0.0120 -0.2463
  641SOL    HW1 2822   0.763   4.912   1.507  0.0169  1.2331  1.2061
  641SOL    HW2 2823   0.640   4.863   1.602  0.7996  0.8016  2.0165
  642SOL     OW 2824   2.745   4.785   2.818 -0.4154  0.2991  0.4066
  642SOL    HW1 2825   2.827   4.804   2.763 -0.3882 -0.4666  0.1616
  642SOL    HW2 2826   2.682   4.729   2.764 -0.4307 -0.3911  1.1241
  643SOL     OW 2827   5.385   6.624   3.934 -0.2959  0.0382 -0.3156
  643SOL    HW1 2828   5.346   6.550   3.988  1.6234  0.1511  1.3465
  643SOL    HW2 2829   5.473   6.595   3.896 -1.3934  0.1092 -3.1653
  644SOL     OW 2830   0.229   3.756   3.606 -0.2787  0.1023 -0.0680
  644SOL    HW1 2831   0.190   3.729   3.694  1.9686  0.2011  1.0260
  644SOL    HW2 2832   0.182   3.837   3.572 -0.4459  0.7567  1.6279
  645SOL     OW 2833   4.553   1.837   5.113 -0.5455 -0.1801 -0.0525
  645SOL    HW1 2834   4.525   1.798   5.025 -0.5910  0.5569 -0.3759
  645SOL    HW2 2835   4.641   1.884   5.102  0.7993 -2.3167  0.9129
  646SOL     OW 2836   1.514   3.591   4.770  0.3236  0.4130  0.2336
  646SOL    HW1 2837   1.512   3.497   4.804  1.9324  0.4223  0.4173
  646SOL    HW2 2838   1.600   3.634   4.796  0.9371  0.9595 -2.3947
  647SOL     OW 2839   6.669   2.360   4.668  0.1876  0.0125  0.1678
  647SOL    HW1 2840   6.637   2.434   4.609  0.2110 -0.5925 -0.6243
  647SOL    HW2 2841   6.625   2.366   4.757 -0.5703  0.3824 -0.2278
  648SOL     OW 2842   5.895   3.231   2.225 -0.2077  0.0077 -0.6981
  648SOL    HW1 2843   5.800   3.256   2.205  0.1680  0.0788 -2.5306
  648SOL    HW2 2844   5.929   3.288   2.300 -1.0007  1.3765 -1.3312
  649SOL     OW 2845   4.992   2.709   0.846  0.3833 -0.7353  0.4846
  649SOL    HW1 2846   5.039   2.794   0.869 -0.1568  0.1558 -1.4735
  649SOL    HW2 2847   5.004   2.643   0.920  0.7528  1.0487  2.1017
  650SOL     OW 2848   4.700   3.801   1.621 -0.3383  0.2978 -0.3840
  650SOL    HW1 2849   4.628   3.792   1.551  0.8066 -0.5563 -1.4874
  650SOL    HW2 2850   4.701   3.896   1.654 -1.1952  0.6192 -1.1965
  651SOL     OW 2851   0.427   5.809   0.134  0.0838  0.0977 -0.5488
  651SOL    HW1 2852   0.480   5.843   0.212 -1.0259  0.2255  0.1734
  651SOL    HW2 2853   0.359   5.878   0.108 -0.0223 -0.2412 -1.1806
  652SOL     OW 2854   6.072   6.528   4.370 -0.5612  0.5950  0.2816
  652SOL    HW1 2855   6.078   6.587   4.450 -0.3196 -0.0667  0.7592
  652SOL    HW2 2856   6.163   6.490   4.350 -0.8183 -0.0536  0.3181
  653SOL     OW 2857   2.923   6.075   4.959 -0.5103  0.3463  0.0147
  653SOL    HW1 2858   2.928   6.077   4.859 -0.7769  0.3389  0.0001
  653SOL    HW2 2859   2.874   5.993   4.988  0.5999 -0.2669  0.1973
  654SOL     OW 2860   0.830   5.271   6.435  0.2698 -0.3987 -0.3734
  654SOL    HW1 2861   0.875   5.213   6.368  0.3026  0.1271 -0.8051
  654SOL    HW2 2862   0.744   5.305   6.398 -0.3908 -1.1952  0.3522
  655SOL     OW 2863   0.264   0.447   3.779  0.0980 -0.1408 -0.4030
  655SOL    HW1 2864   0.349   0.417   3.821 -0.6209 -0.5607  0.8154
  655SOL    HW2 2865   0.279   0.532   3.729  0.9894  0.3906  0.7389
  656SOL     OW 2866   1.381   5.532   3.195  0.3286 -0.0646 -0.5920
  656SOL    HW1 2867   1.434   5.456   3.233  1.5189  0.8294 -0.3848
  656SOL    HW2 2868   1.364   5.516   3.098  0.5628 -0.5996 -0.5476
  657SOL     OW 2869   2.403   0.047   1.069  0.1140  0.1852 -0.1529
  657SOL    HW1 2870   2.319   0.013   1.028  1.3578  1.3307 -4.0561
  657SOL    HW2 2871   2.424   0.138   1.033  0.7831  1.9903  4.1860
  658SOL     OW 2872   2.917   2.981   6.698 -0.2183  0.8146 -0.5197
  658SOL    HW1 2873   2.899   3.038   6.778 -0.3638  0.9874 -0.6756
  658SOL    HW2 2874   2.969   2.900   6.726 -1.5758  0.0903  0.0226
  659SOL     OW 2875   3.347   6.266   5.016 -0.1699  0.2313 -0.0442
  659SOL    HW1 2876   3.344   6.180   5.068  0.2433 -0.1311 -0.6002
  659SOL    HW2 2877   3.436   6.310   5.029 -0.2718  0.4243  0.0032
  660SOL     OW 2878   3.191   5.049   2.680 -0.1963 -0.1644 -0.1411
  660SOL    HW1 2879   3.214   5.137   2.723  1.2427 -1.2764  1.5266
  660SOL    HW2 2880   3.185   5.061   2.581 -0.3576  1.8716  0.0717
  661SOL     OW 2881   4.640   6.461   3.725 -0.4726 -0.5890  0.1090
  661SOL    HW1 2882   4.618   6.403   3.804  0.8602 -2.3992 -0.7803
  661SOL    HW2 2883   4.660   6.403   3.646 -1.5847  1.1690 -1.5460
  662SOL     OW 2884   1.991   1.654   5.386 -0.3599  0.0428  0.1968
  662SOL    HW1 2885   1.988   1.568   5.437  1.7162  0.3351  0.8797
  662SOL    HW2 2886   1.980   1.634   5.288  2.0224 -1.2925  0.1149
  663SOL     OW 2887   1.504   5.719   5.216 -0.0978 -0.3396  0.2246
  663SOL    HW1 2888   1.587   5.678   5.177  0.0993 -0.3669  0.6627
  663SOL    HW2 2889   1.450   5.760   5.143  1.0301  0.9974  0.0802
  664SOL     OW 2890   5.577   1.460   4.975 -0.0346 -0.2161 -0.0782
  664SOL    HW1 2891   5.549   1.447   4.880 -3.3548  1.8394  0.4384
  664SOL    HW2 2892   5.628   1.545   4.983  0.5996 -0.5919 -0.0396
  665SOL     OW 2893   3.778   5.954   3.097  0.0757 -0.2332 -0.3661
  665SOL    HW1 2894   3.876   5.939   3.086  0.5765  2.3096  0.0150
  665SOL    HW2 2895   3.741   5.999   3.016  0.1583  2.5493  1.0191
  666SOL     OW 2896   4.982   1.077   1.929  0.3323  0.4986  0.0389
  666SOL    HW1 2897   4.955   0.984   1.952  0.3407  0.6312  0.5933
  666SOL    HW2 2898   4.904   1.124   1.887 -0.0107  0.5839  0.7697
  667SOL     OW 2899   0.062   4.400   3.424 -0.1924 -0.0431  0.1361
  667SOL    HW1 2900  -0.012   4.457   3.460  0.2016 -0.2210  1.2760
  667SOL    HW2 2901   0.138   4.400   3.489  1.0884  0.6709 -1.3315
  668SOL     OW 2902   4.932   4.836   6.044 -0.0552  0.4024 -0.0335
  668SOL    HW1 2903   4.864   4.904   6.072  1.5507  2.2953 -0.4665
  668SOL    HW2 2904   4.900   4.789   5.962 -0.7388  1.4758 -0.4080
  669SOL     OW 2905   5.979   0.669   1.821 -0.0425  0.2307 -0.4889
  669SOL    HW1 2906   5.924   0.658   1.739  1.8326  0.7045 -1.8710
  669SOL    HW2 2907   6.067   0.623   1.809  0.7190  1.2697  0.8097
  670SOL     OW 2908   1.160   3.412   3.860  0.1448  1.0539 -0.0223
  670SOL    HW1 2909   1.240   3.352   3.866 -0.8537 -0.5758 -1.7829
  670SOL    HW2 2910   1.185   3.495   3.810  0.7678  0.5797 -0.5206
  671SOL     OW 2911   3.046   6.560   6.896 -0.3113 -0.4240  0.2110
  671SOL    HW1 2912   3.008   6.468   6.903 -0.5771 -0.3064  0.3230
  671SOL    HW2 2913   3.146   6.555   6.892 -0.1552 -0.5809  2.7755
  672SOL     OW 2914   1.975   4.585   1.772  0.4558  0.5403  0.0947
  672SOL    HW1 2915   2.008   4.496   1.804  0.2687  0.5307  0.2618
  672SOL    HW2 2916   1.894   4.572   1.715 -0.4779  0.6985  1.3356
  673SOL     OW 2917   5.505   6.529   1.315  0.6941 -0.2315  0.0693
  673SOL    HW1 2918   5.468   6.436   1.308  0.7389 -0.2611  0.2185
  673SOL    HW2 2919   5.584   6.538   1.255  1.4039 -0.6434  0.9224
  674SOL     OW 2920   6.481   3.805   6.849 -0.5811 -0.4273 -0.3521
  674SOL    HW1 2921   6.486   3.845   6.757  2.3742  0.7541  0.2290
  674SOL    HW2 2922   6.557   3.741   6.862  1.5069  2.3302  2.4451
  675SOL     OW 2923   5.985   2.769   2.236  0.3160 -0.2041 -0.5493
  675SOL    HW1 2924   5.973   2.734   2.143 -1.3318 -0.1526 -0.3823
  675SOL    HW2 2925   6.057   2.839   2.236  0.3786 -0.2485 -1.7700
  676SOL     OW 2926   1.475   5.147   3.388 -0.3343 -0.2682  0.2168
  676SOL    HW1 2927   1.562   5.126   3.434  0.0748  1.5248  0.3340
  676SOL    HW2 2928   1.491   5.153   3.289 -0.3162  0.0931  0.2416
  677SOL     OW 2929   5.768   0.375   1.494 -0.2664 -0.4171 -0.1874
  677SOL    HW1 2930   5.774   0.390   1.395  0.1515  0.0981 -0.0845
  677SOL    HW2 2931   5.856   0.343   1.529 -0.1981  0.1160  0.1370
  678SOL     OW 2932   1.698   4.960   3.898 -0.0254 -0.4878  0.2079
  678SOL    HW1 2933   1.670   4.864   3.904 -2.2922  0.0303 -1.0799
  678SOL    HW2 2934   1.754   4.983   3.978  1.0268 -2.9772  0.2892
  679SOL     OW 2935   4.894   1.183   5.626  0.2824 -0.0606  0.4291
  679SOL    HW1 2936   4.841   1.140   5.699  1.3365 -4.7921 -1.1675
  679SOL    HW2 2937   4.839   1.185   5.542  0.8376  0.0887  0.0635
  680SOL     OW 2938   4.716   6.489   4.293  0.4645  0.4643  0.4518
  680SOL    HW1 2939   4.777   6.474   4.371  0.1932  1.3432  0.8457
  680SOL    HW2 2940   4.759   6.551   4.228  0.8605 -0.5887 -0.3171
  681SOL     OW 2941   5.818   6.064   0.655  0.4614 -0.6156  0.3738
  681SOL    HW1 2942   5.787   6.158   0.640 -0.2627 -0.6384  1.5515
  681SOL    HW2 2943   5.768   6.002   0.594 -0.1725 -0.3900  0.6530
  682SOL     OW 2944   0.371   3.155   1.821 -0.2221  0.2458  0.4740
  682SOL    HW1 2945   0.314   3.073   1.816 -0.5223  0.5263 -1.0753
  682SOL    HW2 2946   0.361   3.209   1.737  2.6260  0.0876 -0.0784
  683SOL     OW 2947   5.210   3.981   2.499  0.5589  0.0368 -0.0505
  683SOL    HW1 2948   5.252   3.908   2.552 -0.6075  1.5954  3.2984
  683SOL    HW2 2949   5.280   4.044   2.467  1.3030 -1.0099 -0.5343
  684SOL     OW 2950   6.628   1.079   2.240  0.2172  0.1012 -0.0107
  684SOL    HW1 2951   6.595   1.090   2.334  1.0797  1.0691  0.1909
  684SOL    HW2 2952   6.681   0.994   2.233  1.4951  0.8109  0.7848
  685SOL     OW 2953   2.687   2.396   5.214  1.0086  0.9667 -0.4957
  685SOL    HW1 2954   2.625   2.437   5.147  1.1354  0.7932 -0.7170
  685SOL    HW2 2955   2.770   2.364   5.169  0.2106 -1.0947 -0.6327
  686SOL     OW 2956   5.155   0.912   3.654 -0.0698  0.3095  0.0075
  686SOL    HW1 2957   5.098   0.953   3.583 -1.5218 -1.7897 -0.1396
  686SOL    HW2 2958   5.207   0.983   3.701 -1.5633  2.1289 -0.9687
  687SOL     OW 2959   0.488   1.523   4.423  0.1484  0.6339 -0.3611
  687SOL    HW1 2960   0.454   1.561   4.509  0.3246 -0.3277  0.1486
  687SOL    HW2 2961   0.533   1.596   4.370  1.4116  0.9540  1.0573
  688SOL     OW 2962   6.965   1.475   0.386  0.3658  0.3539 -0.2687
  688SOL    HW1 2963   6.937   1.503   0.478  1.8564  2.9706 -0.4884
  688SOL    HW2 2964   6.886   1.443   0.335 -0.6078 -0.4777  1.6800
  689SOL     OW 2965   2.140   4.733   0.365  0.0067 -0.4976  0.1981
  689SOL    HW1 2966   2.122   4.815   0.311 -2.3019 -0.9088  0.2378
  689SOL    HW2 2967   2.099   4.743   0.456 -0.9741 -1.9521 -0.0458
  690SOL     OW 2968   0.676   3.498   3.716  0.1997  0.8895  0.0635
  690SOL    HW1 2969   0.660   3.400   3.704  0.3032  0.8734  0.0554
  690SOL    HW2 2970   0.598   3.549   3.679 -0.7818  0.7531  1.8401
  691SOL     OW 2971   4.579   6.710   6.357 -0.4313  0.3092  0.2289
  691SOL    HW1 2972   4.614   6.745   6.443  0.1159 -0.3057  0.2618
  691SOL    HW2 2973   4.484   6.680   6.369 -0.0404 -0.7081  0.8846
  692SOL     OW 2974   3.983   2.194   3.039  0.3778  0.5061  0.0190
  692SOL    HW1 2975   4.067   2.245   3.024  0.1619  1.7014  2.3603
  692SOL    HW2 2976   4.004   2.098   3.055  1.1389  0.5257 -0.7847
  693SOL     OW 2977   1.999   4.746   2.963 -0.3253 -0.3273  0.0488
  693SOL    HW1 2978   2.000   4.709   3.056  0.3282  0.2530  0.2825
  693SOL    HW2 2979   1.962   4.838   2.965  0.9836  0.2183 -0.0455
  694SOL     OW 2980   3.855   4.705   5.835 -0.2011 -0.1156 -0.4808
  694SOL    HW1 2981   3.950   4.702   5.867  0.3988  0.2577 -2.1346
  694SOL    HW2 2982   3.838   4.628   5.774 -0.8731 -0.0148 -0.4261
  695SOL     OW 2983   2.326   6.309   5.433  0.2036 -0.5121  0.2969
  695SOL    HW1 2984   2.418   6.316   5.394 -0.1023  1.2683 -0.2240
  695SOL    HW2 2985   2.331   6.314   5.533  0.6134  1.1045  0.2256
  696SOL     OW 2986   5.441   4.674   4.169 -0.4177 -0.0334  0.0891
  696SOL    HW1 2987   5.463   4.706   4.077 -0.0181  0.6340  0.4125
  696SOL    HW2 2988   5.351   4.630   4.168 -1.3766  1.8233 -0.2115
  697SOL     OW 2989   0.606   4.633   2.223 -0.6001  0.2840  0.1628
  697SOL    HW1 2990   0.530   4.656   2.163 -2.1831 -0.8630  1.6234
  697SOL    HW2 2991   0.573   4.623   2.317  1.6014  1.0135  1.0997
  698SOL     OW 2992   4.063   6.220   2.013  0.2788 -0.6192 -0.5086
  698SOL    HW1 2993   4.097   6.259   2.099  0.9719  0.6639 -1.3318
  698SOL    HW2 2994   4.102   6.128   2.001 -0.6657 -1.2604  1.0304
  699SOL     OW 2995   3.660   2.398   1.034  0.2959  0.2122 -0.3699
  699SOL    HW1 2996   3.644   2.304   1.003  1.0430  0.0464 -0.2575
  699SOL    HW2 2997   3.573   2.438   1.063  0.0796 -0.6932  0.2712
  700SOL     OW 2998   4.417   1.962   3.804  0.6553 -0.2405  0.2632
  700SOL    HW1 2999   4.425   1.866   3.778  0.1282 -0.4439  0.8325
  700SOL    HW2 3000   4.451   1.975   3.897 -1.8397 -0.4262  1.2892
  701SOL     OW 3001   7.020   4.081   1.457  0.1873  0.1776  0.2596
  701SOL    HW1 3002   7.015   4.180   1.469  0.4645  0.2206  0.0369
  701SOL    HW2 3003   6.929   4.041   1.472  0.3840  0.2740  1.9622
  702SOL     OW 3004   2.579   6.865   6.566 -0.0936 -0.3940 -0.4526
  702SOL    HW1 3005   2.673   6.841   6.590 -0.0598  1.5932  1.8120
  702SOL    HW2 3006   2.519   6.787   6.584  0.8938 -1.1587 -0.3596
  703SOL     OW 3007   2.024   3.554   4.748 -1.0474 -0.2786  0.1277
  703SOL    HW1 3008   2.097   3.603   4.796 -0.3199 -0.2774 -0.9363
  703SOL    HW2 3009   1.964   3.620   4.703 -2.0949 -0.2499  1.4877
  704SOL     OW 3010   2.252   1.718   6.233 -0.0431  0.1883  0.3399
  704SOL    HW1 3011   2.183   1.740   6.302  0.4535  0.7333  0.6745
  704SOL    HW2 3012   2.296   1.631   6.256 -1.1097 -0.5320 -0.2719
  705SOL     OW 3013   6.934   0.289   2.823 -0.1835  0.3040  0.2541
  705SOL    HW1 3014   7.025   0.256   2.848 -0.6046 -3.5920 -2.4034
  705SOL    HW2 3015   6.940   0.344   2.740 -0.1879  0.3062  0.2552
  706SOL     OW 3016   3.353   0.522   3.417  0.3990 -0.2777 -0.2033
  706SOL    HW1 3017   3.433   0.576   3.394  1.0887 -0.0939  2.3606
  706SOL    HW2 3018   3.294   0.573   3.480 -0.1322 -1.5734  0.3979
  707SOL     OW 3019   3.496   6.244   2.687  0.0778 -0.0618  0.4076
  707SOL    HW1 3020   3.557   6.320   2.663 -0.8515  0.3848 -0.6569
  707SOL    HW2 3021   3.421   6.278   2.744 -0.6972 -0.0066 -0.5964
  708SOL     OW 3022   2.110   4.480   4.973  0.2423 -0.0378 -0.2266
  708SOL    HW1 3023   2.017   4.459   4.943  0.0086  0.8701 -0.1637
  708SOL    HW2 3024   2.167   4.398   4.965 -0.6986 -0.7601  0.2807
  709SOL     OW 3025   6.946   6.994   1.502  0.0035  0.4329  0.0336
  709SOL    HW1 3026   6.885   6.925   1.541 -1.7234  1.5382 -0.6043
  709SOL    HW2 3027   6.907   7.029   1.417  0.2733  2.9238  0.8456
  710SOL     OW 3028   4.529   2.561   1.662  0.6147  0.3347 -0.4722
  710SOL    HW1 3029   4.540   2.648   1.709 -1.0442  0.3769 -0.0919
  710SOL    HW2 3030   4.581   2.562   1.576  0.5115  1.7442 -0.5323
  711SOL     OW 3031   6.275   3.484   6.541  0.3661  1.0310 -0.0941
  711SOL    HW1 3032   6.180   3.517   6.540  0.3111  0.8696 -0.3981
  711SOL    HW2 3033   6.296   3.447   6.632  0.7596  2.8245  0.5797
  712SOL     OW 3034   3.788   1.625   1.375 -0.5402  0.4882  0.2843
  712SOL    HW1 3035   3.824   1.696   1.314 -0.3273  0.4713  0.3888
  712SOL    HW2 3036   3.857   1.602   1.444 -0.9980  0.9316  0.8948
  713SOL     OW 3037   3.938   2.540   6.209  0.4870  0.1925  0.5296
  713SOL    HW1 3038   3.992   2.525   6.126 -0.4586 -1.7937  0.2027
  713SOL    HW2 3039   3.975   2.617   6.259  1.1108  1.4562 -1.7204
  714SOL     OW 3040   5.471   5.296   2.459  0.7259 -0.3167  0.0895
  714SOL    HW1 3041   5.389   5.298   2.402  0.5540 -1.6020  0.2564
  714SOL    HW2 3042   5.456   5.351   2.541 -0.5668 -1.7774  0.8710
  715SOL     OW 3043   4.659   4.232   5.076  1.2139 -0.0123 -0.0253
  715SOL    HW1 3044   4.630   4.314   5.027 -1.8425 -1.0287 -0.1695
  715SOL    HW2 3045   4.690   4.256   5.168  0.7142  1.3328 -0.1945
  716SOL     OW 3046   2.568   1.748   4.236 -0.1451  0.2182  0.3650
  716SOL    HW1 3047   2.557   1.847   4.226  0.5230  0.3312  0.6974
  716SOL    HW2 3048   2.591   1.726   4.331  0.0341 -0.2238  0.2237
  717SOL     OW 3049   5.016   6.070   3.021 -0.3320 -0.1998  0.1882
  717SOL    HW1 3050   4.999   5.984   3.069  0.0282  0.9675  2.5652
  717SOL    HW2 3051   4.929   6.115   3.002 -0.4669  0.2360  1.6457
  718SOL     OW 3052   4.689   2.387   4.832 -0.0269 -0.0535 -0.5002
  718SOL    HW1 3053   4.740   2.415   4.751  1.1600  1.8619  0.8163
  718SOL    HW2 3054   4.752   2.357   4.903 -0.9615 -0.6595  0.1026
  719SOL     OW 3055   5.836   6.829   2.949  0.0289 -1.0034 -0.2319
  719SOL    HW1 3056   5.931   6.829   2.916 -0.5318  1.8841 -2.2327
  719SOL    HW2 3057   5.828   6.887   3.029 -0.2100 -0.4006 -0.6879
  720SOL     OW 3058   2.222   0.252   4.662 -0.0814  0.0309  0.1086
  720SOL    HW1 3059   2.225   0.272   4.564 -1.7983 -0.8819 -0.1881
  720SOL    HW2 3060   2.314   0.256   4.701  0.4641  1.7461 -1.2418
  721SOL     OW 3061   0.328   3.068   2.662 -0.6657 -0.1713 -0.9670
  721SOL    HW1 3062   0.310   2.976   2.699 -1.0093 -1.3158 -3.7225
  721SOL    HW2 3063   0.296   3.072   2.568  1.3092  2.1205 -1.6240
  722SOL     OW 3064   1.905   1.773   0.456 -0.3702  0.4013  0.2673
  722SOL    HW1 3065   1.997   1.734   0.466  0.0227  1.5971  1.6039
  722SOL    HW2 3066   1.857   1.769   0.543  0.3077  4.3221  0.9711
  723SOL     OW 3067   1.286   0.287   5.032  0.5542  0.0045 -0.3835
  723SOL    HW1 3068   1.326   0.201   5.002  0.2481  0.2645 -1.5841
  723SOL    HW2 3069   1.218   0.270   5.102  0.0023 -0.7990 -1.0980
  724SOL     OW 3070   6.990   5.842   5.411 -0.5849  0.0453 -0.7538
  724SOL    HW1 3071   6.980   5.783   5.491  2.3306 -1.9932 -1.7143
  724SOL    HW2 3072   7.062   5.908   5.427 -0.5549  0.1744 -1.3849
  725SOL     OW 3073   1.340   4.604   0.981  0.0010 -0.4654 -0.1765
  725SOL    HW1 3074   1.363   4.508   0.967 -2.8196 -1.2497  0.0166
  725SOL    HW2 3075   1.310   4.618   1.075 -1.1420  0.2242 -0.6218
  726SOL     OW 3076   2.005   4.731   1.179  0.1445  0.0382 -0.0485
  726SOL    HW1 3077   2.068   4.675   1.232  0.9822  0.3654 -0.6681
  726SOL    HW2 3078   2.000   4.696   1.085 -0.2006  0.3209 -0.1392
  727SOL     OW 3079   4.864   4.065   5.944 -0.4141 -0.2107  0.0978
  727SOL    HW1 3080   4.870   4.026   5.852 -0.5042  1.5060 -0.6865
  727SOL    HW2 3081   4.846   4.164   5.936  0.4431  0.1202  1.9517
  728SOL     OW 3082   6.496   2.715   3.978  0.2981 -0.5129  0.1402
  728SOL    HW1 3083   6.513   2.804   3.937 -0.5226 -1.5577 -2.7813
  728SOL    HW2 3084   6.460   2.726   4.070 -0.7450  2.2252 -0.5012
  729SOL     OW 3085   6.974   3.821   0.615 -0.0199 -0.6824 -0.1356
  729SOL    HW1 3086   6.955   3.871   0.530 -0.7963  0.5061  0.6940
  729SOL    HW2 3087   7.006   3.885   0.684  3.4600 -2.0398 -0.3006
  730SOL     OW 3088   4.302   7.016   3.537 -0.5296 -0.0647 -0.7438
  730SOL    HW1 3089   4.216   7.047   3.498 -0.5078 -0.4929 -1.1432
  730SOL    HW2 3090   4.291   7.002   3.636 -1.0242 -0.4800 -0.8535
  731SOL     OW 3091   3.785   2.909   5.489  0.3839  0.4441  0.0564
  731SOL    HW1 3092   3.725   2.842   5.444 -0.6090  0.8220  0.7867
  731SOL    HW2 3093   3.847   2.948   5.421 -0.3816  0.2472 -0.7740
  732SOL     OW 3094   5.448   2.692   3.542 -0.0941  0.2123  0.4238
  732SOL    HW1 3095   5.440   2.775   3.487 -2.0289  0.3169  0.8031
  732SOL    HW2 3096   5.524   2.702   3.607  1.3375  0.6255 -1.2396
  733SOL     OW 3097   5.754   0.820   3.337 -0.4580 -0.4387  0.3631
  733SOL    HW1 3098   5.657   0.796   3.347 -0.4232 -1.7423 -1.8719
  733SOL    HW2 3099   5.769   0.859   3.246  1.4141 -1.9422 -0.0111
  734SOL     OW 3100   6.279   4.898   2.640  0.3481  0.4027  0.1635
  734SOL    HW1 3101   6.322   4.931   2.556  1.1219  0.5316  0.5965
  734SOL    HW2 3102   6.349   4.886   2.711 -0.5113  2.2665  1.4261
  735SOL     OW 3103   5.926   1.111   1.876  0.3377 -0.3344  1.0446
  735SOL    HW1 3104   5.961   1.204   1.873  0.4853 -0.4012  0.3910
  735SOL    HW2 3105   6.002   1.047   1.866  0.2783 -0.5364  1.8393
  736SOL     OW 3106   1.708   3.032   4.169 -0.1510  0.3827 -0.2823
  736SOL    HW1 3107   1.802   3.049   4.140 -0.3403  1.3109 -0.4117
  736SOL    HW2 3108   1.682   3.100   4.237 -0.5424 -0.2280  0.1846
  737SOL     OW 3109   2.047   0.542   6.216  0.2910  0.7310  0.1224
  737SOL    HW1 3110   1.994   0.619   6.181 -0.6997 -0.3681 -0.9297
  737SOL    HW2 3111   2.063   0.477   6.141 -0.4304 -0.9109  1.3448
  738SOL     OW 3112   2.150   2.806   2.029  0.2747  0.1744 -0.3334
  738SOL    HW1 3113   2.242   2.773   2.006 -0.1611  0.4067 -2.5967
  738SOL    HW2 3114   2.141   2.810   2.128  2.3544 -0.8243 -0.0376
  739SOL     OW 3115   4.704   5.777   4.785  0.4311 -0.2243 -0.1963
  739SOL    HW1 3116   4.797   5.802   4.758  0.3300  0.7763  0.3300
  739SOL    HW2 3117   4.647   5.764   4.704  0.5023  1.2604 -0.5063
  740SOL     OW 3118   6.966   1.740   2.354 -0.1891 -0.1538  0.8013
  740SOL    HW1 3119   7.011   1.671   2.410  0.7550 -0.1496  0.0771
  740SOL    HW2 3120   6.954   1.705   2.261 -0.6373  0.2743  0.6922
  741SOL     OW 3121   0.922   1.043   5.131  0.3611 -0.0776 -0.0095
  741SOL    HW1 3122   1.011   1.025   5.090  0.9565  2.8316 -0.2621
  741SOL    HW2 3123   0.867   1.099   5.069  0.2320  2.1190  1.9468
  742SOL     OW 3124   3.254   5.520   0.899  0.1937 -0.1202  0.0845
  742SOL    HW1 3125   3.293   5.530   0.808  0.9152  0.4115  0.4441
  742SOL    HW2 3126   3.278   5.430   0.936  1.8619  0.5396  0.6606
  743SOL     OW 3127   6.320   5.510   0.929  0.1620 -0.0892 -0.5134
  743SOL    HW1 3128   6.390   5.506   1.000  0.1903  0.0372 -0.5348
  743SOL    HW2 3129   6.348   5.574   0.858 -0.8810  1.4971  0.4583
  744SOL     OW 3130   0.269   0.424   1.252  0.8488  0.0782  0.0422
  744SOL    HW1 3131   0.266   0.451   1.155  3.4728 -1.4278 -0.5621
  744SOL    HW2 3132   0.230   0.332   1.262 -1.2972  1.0097  0.8386
  745SOL     OW 3133   0.136   6.066   5.483  0.3784  0.0339 -0.0511
  745SOL    HW1 3134   0.065   6.092   5.549  0.3511  0.9874 -0.4465
  745SOL    HW2 3135   0.225   6.066   5.530  0.2419 -0.2426  0.2153
  746SOL     OW 3136   5.267   3.368   5.017  0.2914  0.6149  0.7805
  746SOL    HW1 3137   5.211   3.440   5.058 -0.0298  0.5189  0.5163
  746SOL    HW2 3138   5.232   3.347   4.926 -0.0465 -0.3637  1.1258
  747SOL     OW 3139   5.889   5.012   3.665  0.1067 -0.5436 -0.0755
  747SOL    HW1 3140   5.875   5.016   3.764 -1.9263 -1.5823 -0.2764
  747SOL    HW2 3141   5.978   5.053   3.642  0.7354 -0.5272  2.1835
  748SOL     OW 3142   6.163   4.861   3.787 -0.1641  0.0532 -0.2056
  748SOL    HW1 3143   6.123   4.823   3.870  0.7859 -0.6978 -0.0763
  748SOL    HW2 3144   6.246   4.911   3.810 -0.2291  0.3663 -0.6349
  749SOL     OW 3145   5.746   1.553   4.601  0.2287 -0.4828 -0.6163
  749SOL    HW1 3146   5.819   1.497   4.640  1.1300 -0.5821 -2.3525
  749SOL    HW2 3147   5.778   1.597   4.518 -0.7141  2.0283  0.2501
  750SOL     OW 3148   2.869   2.031   1.613 -0.6917  0.4686  0.1677
  750SOL    HW1 3149   2.932   1.986   1.677  0.6455  0.4847 -1.0837
  750SOL    HW2 3150   2.816   1.961   1.564  0.7146  0.2360 -1.1016
  751SOL     OW 3151   5.347   2.346   2.310  0.0774 -0.4778 -0.2697
  751SOL    HW1 3152   5.274   2.291   2.350  0.4995 -0.2237  0.9080
  751SOL    HW2 3153   5.384   2.407   2.380  2.2044 -1.4101 -0.4950
  752SOL     OW 3154   3.045   3.371   6.099 -0.0719 -0.1996 -0.0122
  752SOL    HW1 3155   3.030   3.470   6.098 -3.1456 -0.5261  1.4959
  752SOL    HW2 3156   3.122   3.349   6.159  0.7143  1.2474 -0.4508
  753SOL     OW 3157   2.994   3.520   3.815 -0.4888 -0.0622  0.7214
  753SOL    HW1 3158   2.996   3.420   3.816  0.1838 -0.0521  0.5729
  753SOL    HW2 3159   3.020   3.554   3.905  1.5220 -0.0044  0.1728
  754SOL     OW 3160   5.462   0.898   2.937  0.4154 -0.1890  0.0839
  754SOL    HW1 3161   5.482   0.968   3.006  3.9022 -1.4940  0.6152
  754SOL    HW2 3162   5.474   0.936   2.846  0.0124  0.4855  0.3122
  755SOL     OW 3163   2.459   5.036   5.075 -0.1953 -0.8096 -0.1866
  755SOL    HW1 3164   2.547   5.013   5.034 -0.2660 -0.0218 -0.8172
  755SOL    HW2 3165   2.386   5.019   5.008 -0.4116 -0.4537 -0.0426
  756SOL     OW 3166   3.993   4.947   5.545  0.3672 -0.0603 -0.0680
  756SOL    HW1 3167   4.013   5.045   5.556 -0.3064 -0.0522  1.2293
  756SOL    HW2 3168   4.023   4.898   5.627 -1.0878 -0.6440  0.1429
  757SOL     OW 3169   1.904   1.089   3.256  0.2185  0.6315 -0.3823
  757SOL    HW1 3170   1.885   1.136   3.170 -0.7121 -0.5104 -0.8282
  757SOL    HW2 3171   2.001   1.096   3.278  0.6031  0.2935 -1.9135
  758SOL     OW 3172   2.591   1.682   1.599  0.0868 -0.3876 -0.2500
  758SOL    HW1 3173   2.544   1.761   1.638 -1.1251 -0.6829 -1.0537
  758SOL    HW2 3174   2.689   1.688   1.620  0.1069  1.5479 -0.6739
  759SOL     OW 3175   0.258   3.681   2.030 -0.6710 -0.4550  0.2929
  759SOL    HW1 3176   0.230   3.773   2.002 -1.2450 -0.2537  1.4820
  759SOL    HW2 3177   0.321   3.687   2.107 -3.3564 -1.0963  2.6720
  760SOL     OW 3178   0.077   6.709   4.057  0.4963  0.2147  0.6899
  760SOL    HW1 3179   0.097   6.672   3.966  1.1312  0.4850  0.7130
  760SOL    HW2 3180   0.135   6.663   4.125 -0.0700 -0.0796  0.9785
  761SOL     OW 3181   5.824   3.783   3.414 -0.8304  0.5251 -0.3277
  761SOL    HW1 3182   5.835   3.809   3.510 -0.5115  0.5773 -0.3782
  761SOL    HW2 3183   5.914   3.775   3.371 -0.9434 -0.1631 -0.4471
  762SOL     OW 3184   2.442   0.773   6.762  0.1937 -0.3662 -0.5656
  762SOL    HW1 3185   2.416   0.809   6.672  0.5666 -0.8530 -0.8705
  762SOL    HW2 3186   2.476   0.680   6.752  0.1760 -0.4466  0.0931
  763SOL     OW 3187   4.401   6.610   6.850 -0.9931  0.0799  0.0984
  763SOL    HW1 3188   4.460   6.562   6.786 -1.2232 -1.8424  1.2391
  763SOL    HW2 3189   4.421   6.708   6.847  1.7455 -0.4020 -0.0959
  764SOL     OW 3190   6.472   1.030   5.039 -0.3089  0.4406 -0.0208
  764SOL    HW1 3191   6.503   1.072   4.953 -0.9292 -1.8286 -1.4680
  764SOL    HW2 3192   6.378   1.058   5.058 -0.7486 -0.3004 -1.0136
  765SOL     OW 3193   0.595   6.946   6.359 -0.1650 -0.1966 -0.1052
  765SOL    HW1 3194   0.628   6.928   6.266 -0.9908 -1.8368 -0.1241
  765SOL    HW2 3195   0.521   7.013   6.355 -1.9167 -2.0712 -1.0038
  766SOL     OW 3196   1.451   2.111   4.516  0.1897 -0.1985  0.0896
  766SOL    HW1 3197   1.437   2.201   4.475  1.0505 -0.2827 -0.4064
  766SOL    HW2 3198   1.497   2.051   4.450 -3.3238 -2.0878 -0.9256
  767SOL     OW 3199   0.344   5.893   5.264 -0.1765  0.0843 -0.7054
  767SOL    HW1 3200   0.262   5.952   5.262  0.4284  0.9451 -0.7494
  767SOL    HW2 3201   0.421   5.943   5.226  1.3261  0.7604  2.8553
  768SOL     OW 3202   2.708   6.661   3.113  0.1280  0.0217 -0.2410
  768SOL    HW1 3203   2.627   6.711   3.083  0.6601  0.1988 -1.4335
  768SOL    HW2 3204   2.777   6.726   3.145 -0.1443 -0.1209  0.6469
  769SOL     OW 3205   2.304   2.121   5.724 -0.2426 -0.1584  0.4391
  769SOL    HW1 3206   2.289   2.213   5.761 -2.0615 -0.1108 -0.3147
  769SOL    HW2 3207   2.399   2.094   5.739  0.4742  2.0555  0.2002
  770SOL     OW 3208   1.448   4.284   6.341 -1.0074  0.1885  0.7552
  770SOL    HW1 3209   1.403   4.200   6.310  0.3021  0.0295 -0.8801
  770SOL    HW2 3210   1.379   4.349   6.372 -2.0848 -1.3279  1.6985
  771SOL     OW 3211   2.009   3.633   2.945 -0.2738  0.1057  0.2948
  771SOL    HW1 3212   2.058   3.689   3.011  0.0994  0.6342 -0.4131
  771SOL    HW2 3213   1.934   3.686   2.905  2.3236  1.5381 -3.1386
  772SOL     OW 3214   6.586   5.556   1.058  0.1064  0.0721  0.2474
  772SOL    HW1 3215   6.670   5.548   1.005  1.1595  0.9969  1.6908
  772SOL    HW2 3216   6.545   5.645   1.043 -0.0006  0.0503  0.4066
  773SOL     OW 3217   0.576   3.534   1.265 -0.3214 -0.6030 -0.5771
  773SOL    HW1 3218   0.476   3.528   1.259 -0.2207 -0.9594 -3.9994
  773SOL    HW2 3219   0.617   3.466   1.203  2.0576 -0.3288  0.5999
  774SOL     OW 3220   1.954   5.855   4.655 -0.3259 -0.2015  0.1620
  774SOL    HW1 3221   2.017   5.778   4.670  0.0133  0.0802  0.1893
  774SOL    HW2 3222   1.962   5.887   4.561  0.5824  0.7276  0.5468
  775SOL     OW 3223   0.859   0.773   3.038  0.3072 -0.0016  0.0840
  775SOL    HW1 3224   0.808   0.755   2.953 -1.3277  2.9552  0.2899
  775SOL    HW2 3225   0.956   0.785   3.016 -0.0077  0.2018 -1.3291
  776SOL     OW 3226   0.455   6.074   0.560  0.2208 -0.7165 -0.2826
  776SOL    HW1 3227   0.491   6.159   0.522  1.9057 -1.1432  0.2695
  776SOL    HW2 3228   0.511   6.045   0.637 -1.2848 -1.5025  0.5639
  777SOL     OW 3229   1.472   3.651   6.917 -0.1055  0.1494  0.3250
  777SOL    HW1 3230   1.449   3.628   7.011  0.5036 -0.5138  0.3123
  777SOL    HW2 3231   1.557   3.605   6.890 -0.2385  0.3792 -0.5260
  778SOL     OW 3232   2.482   0.091   1.363  0.0212 -0.3295 -0.0588
  778SOL    HW1 3233   2.491   0.081   1.264 -0.9942  0.3213 -0.2365
  778SOL    HW2 3234   2.570   0.115   1.403  0.1411  0.9581 -1.0212
  779SOL     OW 3235   6.732   3.704   1.175 -0.3649  0.1753 -0.0892
  779SOL    HW1 3236   6.783   3.661   1.249  1.3162  0.1683 -1.1905
  779SOL    HW2 3237   6.647   3.653   1.158 -1.4815  0.9463  2.6456
  780SOL     OW 3238   1.704   4.723   5.631  0.0604 -0.0899  0.4846
  780SOL    HW1 3239   1.672   4.726   5.726 -0.7522 -1.9115  0.3185
  780SOL    HW2 3240   1.655   4.792   5.577 -1.7158 -1.0418  0.8031
  781SOL     OW 3241   6.834   5.348   0.607 -0.0288 -0.0516 -0.3836
  781SOL    HW1 3242   6.757   5.403   0.575  0.5732 -0.0038 -1.8693
  781SOL    HW2 3243   6.886   5.316   0.528  1.3979 -0.1899  0.5772
  782SOL     OW 3244   2.434   2.262   5.974 -0.1529  0.1728  0.0250
  782SOL    HW1 3245   2.345   2.261   6.020  0.1058  0.3810  0.5406
  782SOL    HW2 3246   2.434   2.332   5.903 -0.0135  0.9991  0.8185
  783SOL     OW 3247   5.227   3.664   1.805  0.1724  0.3214 -0.4764
  783SOL    HW1 3248   5.256   3.624   1.718  0.1429  1.0267 -0.8119
  783SOL    HW2 3249   5.138   3.626   1.830  0.4990 -0.4177 -0.3890
  784SOL     OW 3250   1.889   6.770   0.827 -0.1918  0.1113 -0.0979
  784SOL    HW1 3251   1.946   6.815   0.758 -0.0394 -0.2432 -0.2089
  784SOL    HW2 3252   1.945   6.706   0.880 -0.1122  1.0478  0.9738
  785SOL     OW 3253   0.513   6.306   3.399  0.3365  0.2526  0.0505
  785SOL    HW1 3254   0.437   6.343   3.346  0.0609  0.3770  0.5254
  785SOL    HW2 3255   0.547   6.376   3.461  0.0427 -0.1725  0.7029
  786SOL     OW 3256   0.780   1.833   3.020 -0.8340  0.2148  0.2446
  786SOL    HW1 3257   0.830   1.752   3.049  0.4440  0.6079 -0.7585
  786SOL    HW2 3258   0.804   1.855   2.926 -3.7921 -0.2290 -0.7285
  787SOL     OW 3259   1.893   6.385   1.069  0.2236  0.4352  0.6976
  787SOL    HW1 3260   1.866   6.476   1.038 -0.3106 -0.1799 -0.7472
  787SOL    HW2 3261   1.988   6.368   1.045  0.1396  0.3801  0.4031
  788SOL     OW 3262   3.643   1.561   6.235  0.2289 -0.4718  0.4792
  788SOL    HW1 3263   3.587   1.488   6.197  1.8883 -1.3448 -0.3816
  788SOL    HW2 3264   3.686   1.612   6.161 -0.2054  0.8369  1.1025
  789SOL     OW 3265   3.367   6.023   1.611 -0.0151  0.0177 -0.2558
  789SOL    HW1 3266   3.324   5.961   1.546 -1.1567  0.5319 -0.0205
  789SOL    HW2 3267   3.392   5.973   1.694  3.1430 -1.0562 -1.7113
  790SOL     OW 3268   1.048   2.313   2.007 -0.7649  0.1901  0.0132
  790SOL    HW1 3269   1.038   2.214   2.001 -2.0012  0.3641 -1.2786
  790SOL    HW2 3270   1.073   2.349   1.917 -0.3017  1.0625  0.4804
  791SOL     OW 3271   3.370   5.200   6.538  0.1865  0.1533 -0.5273
  791SOL    HW1 3272   3.322   5.112   6.541  1.6661 -0.6949 -0.3683
  791SOL    HW2 3273   3.421   5.213   6.623 -0.3698  1.3876 -0.3686
  792SOL     OW 3274   0.099   3.115   6.968 -0.2034 -0.7520 -0.4695
  792SOL    HW1 3275   0.147   3.128   6.881  1.0337 -1.3253  0.0960
  792SOL    HW2 3276   0.054   3.026   6.968  0.0631 -0.8896 -0.4152
  793SOL     OW 3277   5.872   6.737   5.401 -0.0916  0.3213 -0.4466
  793SOL    HW1 3278   5.925   6.809   5.358  0.7303  1.0359  1.6307
  793SOL    HW2 3279   5.797   6.778   5.454  1.8365 -0.0098  2.8012
  794SOL     OW 3280   3.353   3.943   5.946  0.0440  0.7986  0.1427
  794SOL    HW1 3281   3.374   3.972   5.853 -0.3765  1.6852  0.3141
  794SOL    HW2 3282   3.436   3.907   5.989 -0.0376 -0.8770 -0.9982
  795SOL     OW 3283   5.881   0.244   5.433  0.4684 -0.2804 -0.0752
  795SOL    HW1 3284   5.913   0.181   5.504 -0.5959  0.5541  1.1845
  795SOL    HW2 3285   5.836   0.323   5.475 -1.2887 -0.3288 -1.7118
  796SOL     OW 3286   0.275   3.765   0.242 -0.2637  0.0523  0.3625
  796SOL    HW1 3287   0.325   3.811   0.315  1.2756 -0.7556 -0.1272
  796SOL    HW2 3288   0.339   3.710   0.187 -1.4379  0.2428 -1.2935
  797SOL     OW 3289   5.248   0.126   0.595  0.0111  0.1465  0.3254
  797SOL    HW1 3290   5.181   0.129   0.520 -0.7836  1.0763  1.0467
  797SOL    HW2 3291   5.207   0.164   0.678  0.4673 -1.9431  1.5862
  798SOL     OW 3292   4.079   4.160   0.594  0.1589 -0.0525  0.2917
  798SOL    HW1 3293   4.053   4.103   0.517 -2.1182  0.7135  0.4109
  798SOL    HW2 3294   4.166   4.206   0.574  0.0875 -0.5915 -1.4102
  799SOL     OW 3295   5.446   1.076   6.324 -0.5069 -0.6126 -0.2948
  799SOL    HW1 3296   5.350   1.064   6.298 -0.9309  0.6852  0.5694
  799SOL    HW2 3297   5.463   1.026   6.410 -0.6031 -0.2823 -0.0801
  800SOL     OW 3298   0.348   2.172   2.621 -0.2707  0.1514  0.7200
  800SOL    HW1 3299   0.442   2.137   2.627  0.4809  1.7264 -1.1702
  800SOL    HW2 3300   0.328   2.226   2.703  0.6581  0.2578  0.8908
  801SOL     OW 3301   3.760   5.361   6.198 -0.0560 -0.1124 -0.2083
  801SOL    HW1 3302   3.709   5.385   6.280  1.9194 -0.1713  1.1118
  801SOL    HW2 3303   3.733   5.422   6.123 -1.2816  0.5220  0.7090
  802SOL     OW 3304   4.827   0.751   0.430  0.1356  0.0734 -0.5523
  802SOL    HW1 3305   4.831   0.803   0.345 -1.7497  1.3227  0.0492
  802SOL    HW2 3306   4.917   0.712   0.449  1.1832  1.6223 -1.9641
  803SOL     OW 3307   2.893   0.465   1.540  0.5521 -0.2301  0.5688
  803SOL    HW1 3308   2.807   0.422   1.568 -0.0689  0.1763 -0.6332
  803SOL    HW2 3309   2.959   0.394   1.517 -1.2876 -0.8245 -3.9734
  804SOL     OW 3310   6.033   5.879   1.676 -0.7903 -0.6406 -0.6265
  804SOL    HW1 3311   6.019   5.962   1.621  0.5693 -1.1072 -1.7188
  804SOL    HW2 3312   6.059   5.905   1.769 -1.9588  0.1480 -0.4878
  805SOL     OW 3313   3.039   5.981   4.164  0.1743 -0.2407 -0.3828
  805SOL    HW1 3314   3.105   5.934   4.105  2.3781 -0.5039  2.0782
  805SOL    HW2 3315   2.985   5.914   4.214  0.7074 -0.1325  0.3629
  806SOL     OW 3316   6.895   6.651   6.426 -0.3058 -0.4094  0.1831
  806SOL    HW1 3317   6.940   6.720   6.370  1.1926 -1.2598  0.2684
  806SOL    HW2 3318   6.852   6.583   6.366 -1.4338  0.3532  0.1005
  807SOL     OW 3319   1.046   6.369   5.387 -0.5971  0.2920  0.1788
  807SOL    HW1 3320   0.990   6.411   5.315 -0.6543  0.0256  0.0685
  807SOL    HW2 3321   0.991   6.358   5.470 -1.0973 -1.1329 -0.3114
  808SOL     OW 3322   0.598   3.255   1.435  0.3030 -0.1602 -0.5424
  808SOL    HW1 3323   0.609   3.268   1.337  0.6695  0.2688 -0.4498
  808SOL    HW2 3324   0.684   3.222   1.474  0.1998 -0.2033 -0.3508
  809SOL     OW 3325   2.181   4.826   0.014 -0.1150 -0.3395  0.1585
  809SOL    HW1 3326   2.212   4.748  -0.039  0.6035  1.6061 -2.4546
  809SOL    HW2 3327   2.081   4.831   0.011 -0.1443 -0.9321  0.0584
  810SOL     OW 3328   4.281   2.915   0.080  0.0669 -0.4928  0.2607
  810SOL    HW1 3329   4.224   2.855   0.136  0.7948 -1.3947  0.0559
  810SOL    HW2 3330   4.222   2.978   0.029 -0.6312  0.0507  1.6686
  811SOL     OW 3331   6.507   6.284   5.122  0.1983 -0.0795  0.0068
  811SOL    HW1 3332   6.552   6.207   5.078  0.3967 -0.8416  1.4872
  811SOL    HW2 3333   6.493   6.264   5.219 -3.7103 -0.1021 -0.3935
  812SOL     OW 3334   6.483   1.697   4.180 -0.3150  0.1940  0.3661
  812SOL    HW1 3335   6.510   1.768   4.115  0.3204 -0.0404  0.3611
  812SOL    HW2 3336   6.395   1.659   4.154  0.7116 -1.1228 -1.4159
  813SOL     OW 3337   1.315   1.290   3.834  0.5877 -0.7148  0.1587
  813SOL    HW1 3338   1.323   1.222   3.907  1.6358 -0.2859  0.4700
  813SOL    HW2 3339   1.339   1.380   3.870 -1.2473 -0.0733 -0.1239
  814SOL     OW 3340   4.406   5.307   2.519  0.1636 -0.2421  0.2141
  814SOL    HW1 3341   4.442   5.317   2.612  3.1497  0.1932 -0.8849
  814SOL    HW2 3342   4.448   5.228   2.475  0.0765  0.5168 -1.3066
  815SOL     OW 3343   4.582   2.587   4.518  0.2576 -0.2919  0.6562
  815SOL    HW1 3344   4.535   2.575   4.606  0.3488 -0.2218  0.7148
  815SOL    HW2 3345   4.530   2.540   4.446 -0.4139  0.5631  0.5553
  816SOL     OW 3346   4.967   3.983   0.603 -0.5665  0.1359 -0.3012
  816SOL    HW1 3347   4.950   4.078   0.631 -1.4104  0.4927 -1.8720
  816SOL    HW2 3348   4.989   3.981   0.505 -2.4700 -1.4699 -0.7516
  817SOL     OW 3349   1.933   5.703   1.077  0.3033 -0.3718 -0.2825
  817SOL    HW1 3350   1.969   5.796   1.067 -0.7705  0.2776  1.4682
  817SOL    HW2 3351   1.874   5.699   1.157 -0.9079 -2.1989 -1.2012
  818SOL     OW 3352   4.956   2.392   2.344 -0.3809  0.5787 -0.1583
  818SOL    HW1 3353   4.953   2.445   2.259 -0.0329 -0.1728 -0.6505
  818SOL    HW2 3354   5.009   2.308   2.330 -0.9625  0.0641  0.5890
  819SOL     OW 3355   6.120   2.753   1.049  0.0061 -0.3451 -0.3822
  819SOL    HW1 3356   6.135   2.781   0.955  1.3122  0.3083 -0.0034
  819SOL    HW2 3357   6.165   2.818   1.111 -0.0387 -1.2747  0.6536
  820SOL     OW 3358   2.543   2.545   4.788 -0.2571 -0.3385  0.1713
  820SOL    HW1 3359   2.519   2.460   4.740 -0.1646 -1.8056  2.5319
  820SOL    HW2 3360   2.622   2.587   4.744 -0.5925 -1.2133 -1.3461
  821SOL     OW 3361   6.030   3.546   3.948 -0.3172  0.5338  0.1874
  821SOL    HW1 3362   6.084   3.628   3.967  1.2895 -0.3794 -0.2634
  821SOL    HW2 3363   6.002   3.504   4.034 -0.2337  0.9617  0.4258
  822SOL     OW 3364   0.146   4.421   2.362 -0.3297  0.0538  0.6560
  822SOL    HW1 3365   0.116   4.438   2.268  0.1834  0.4519  0.5622
  822SOL    HW2 3366   0.205   4.340   2.364  1.2654  1.1702  0.3091
  823SOL     OW 3367   0.034   4.353   5.463  0.2566  0.1195 -0.1163
  823SOL    HW1 3368  -0.042   4.379   5.403  0.4799  0.4686 -0.2470
  823SOL    HW2 3369   0.008   4.272   5.516 -0.0033 -0.0871 -0.5576
  824SOL     OW 3370   5.338   1.031   6.777  0.4973  0.5240  0.4017
  824SOL    HW1 3371   5.391   1.094   6.835  0.7589  1.4693 -0.8370
  824SOL    HW2 3372   5.399   0.989   6.710 -0.0202  0.3101  0.0669
  825SOL     OW 3373   6.656   5.685   1.875  0.2327 -0.3225 -0.1067
  825SOL    HW1 3374   6.592   5.638   1.814 -0.3897 -0.3248  0.5325
  825SOL    HW2 3375   6.727   5.730   1.821 -2.4069  2.9339 -1.1993
  826SOL     OW 3376   4.645   1.744   6.970  0.8280  0.5756  0.0449
  826SOL    HW1 3377   4.633   1.758   7.068  0.4322 -1.3086  0.2980
  826SOL    HW2 3378   4.743   1.745   6.948  0.9824 -0.3461  0.6814
  827SOL     OW 3379   3.827   3.374   4.813  0.0549  0.1140 -0.6019
  827SOL    HW1 3380   3.918   3.390   4.852  0.6430  1.4672 -2.4006
  827SOL    HW2 3381   3.776   3.460   4.810 -1.6650 -0.7548  1.1060
  828SOL     OW 3382   5.159   5.358   4.307  0.3384  0.4703 -0.1848
  828SOL    HW1 3383   5.233   5.389   4.248  0.8109 -0.8663 -0.3209
  828SOL    HW2 3384   5.077   5.414   4.290 -0.2742 -1.2108 -3.7467
  829SOL     OW 3385   2.603   2.250   1.936 -0.3815  0.1174 -0.1106
  829SOL    HW1 3386   2.647   2.179   1.991  0.8848  0.0519 -1.1406
  829SOL    HW2 3387   2.648   2.255   1.847 -0.4979  2.1411 -0.1031
  830SOL     OW 3388   5.078   4.616   4.586  0.0587 -0.2421  0.1429
  830SOL    HW1 3389   5.173   4.640   4.569 -0.2495  0.0520 -1.2372
  830SOL    HW2 3390   5.018   4.672   4.529 -0.8244 -2.1910 -0.9293
  831SOL     OW 3391   6.851   5.795   1.721  0.2803  0.2471  0.1945
  831SOL    HW1 3392   6.924   5.841   1.772  1.2880  0.0795 -1.0336
  831SOL    HW2 3393   6.793   5.864   1.676 -1.5390  0.4699  2.6654
  832SOL     OW 3394   3.587   1.154   5.591 -0.1030  0.1054  0.0107
  832SOL    HW1 3395   3.549   1.242   5.619 -1.5366 -0.3738 -0.3412
  832SOL    HW2 3396   3.561   1.135   5.497 -1.0578 -1.3159  0.5183
  833SOL     OW 3397   0.620   5.166   5.489  0.0108  0.7288  0.4056
  833SOL    HW1 3398   0.680   5.243   5.510  0.6813  0.0074  1.2136
  833SOL    HW2 3399   0.547   5.196   5.427  0.0388  2.0885  1.0008
  834SOL     OW 3400   4.880   2.429   5.592 -0.4826  0.3354 -0.2502
  834SOL    HW1 3401   4.837   2.388   5.512  2.3193 -0.8828 -1.2649
  834SOL    HW2 3402   4.839   2.390   5.675 -1.2489 -0.8483 -1.1521
  835SOL     OW 3403   3.048   6.514   5.691 -0.1360  0.0952 -0.0175
  835SOL    HW1 3404   3.142   6.481   5.703 -0.5873 -1.7427 -1.2791
  835SOL    HW2 3405   3.048   6.590   5.626  0.4088 -0.3595 -0.5628
  836SOL     OW 3406   2.968   1.596   5.173  0.5463 -0.2259 -0.2749
  836SOL    HW1 3407   3.031   1.544   5.231 -1.9329 -1.3112  1.6233
  836SOL    HW2 3408   2.874   1.584   5.206 -0.7243  1.2624 -2.9897
  837SOL     OW 3409   1.764   0.758   0.160 -1.2671  0.1483  0.7862
  837SOL    HW1 3410   1.693   0.822   0.131 -0.0626  1.4893  0.7195
  837SOL    HW2 3411   1.849   0.778   0.112 -1.2945 -2.7400 -0.7289
  838SOL     OW 3412   1.573   5.915   3.689 -0.6830  0.5994  0.3639
  838SOL    HW1 3413   1.513   5.853   3.638 -0.7142 -0.0036  1.1170
  838SOL    HW2 3414   1.624   5.972   3.625  0.2575 -1.0386 -0.4275
  839SOL     OW 3415   3.410   1.742   1.644  0.0179 -0.6808 -0.5202
  839SOL    HW1 3416   3.491   1.800   1.637  0.3356 -0.6808  2.2362
  839SOL    HW2 3417   3.439   1.646   1.651 -0.2112 -0.7071  0.1498
  840SOL     OW 3418   6.418   5.613   5.025  0.6788  0.0027 -0.2108
  840SOL    HW1 3419   6.331   5.661   5.039  0.0388 -0.9722 -0.7305
  840SOL    HW2 3420   6.418   5.529   5.079  2.0528  0.8677  1.2008
  841SOL     OW 3421   6.880   4.722   4.932 -0.3529 -0.5531 -0.2742
  841SOL    HW1 3422   6.960   4.662   4.940 -1.9639 -2.9070 -0.7809
  841SOL    HW2 3423   6.800   4.676   4.970 -1.3674  2.1214  1.1489
  842SOL     OW 3424   3.293   5.823   6.808  0.3898 -0.5407  0.6254
  842SOL    HW1 3425   3.293   5.901   6.871  0.2118 -0.0699  0.0577
  842SOL    HW2 3426   3.202   5.813   6.769  0.5373 -0.7380  0.3345
  843SOL     OW 3427   3.290   1.841   2.063 -0.4441  0.4877  0.1810
  843SOL    HW1 3428   3.338   1.923   2.033 -0.9242  0.5874 -0.3447
  843SOL    HW2 3429   3.240   1.802   1.986 -0.1914 -0.3198  0.4184
  844SOL     OW 3430   0.432   6.224   5.997  0.1533  0.3766  0.6704
  844SOL    HW1 3431   0.373   6.244   5.919 -0.3317  0.4561  1.0493
  844SOL    HW2 3432   0.418   6.129   6.025  0.0757  0.4456  0.8692
  845SOL     OW 3433   4.268   2.219   3.032  0.6744  0.5085 -0.2165
  845SOL    HW1 3434   4.336   2.145   3.027  0.1850 -0.0818  1.2298
  845SOL    HW2 3435   4.314   2.305   3.051  0.9333 -0.3527  4.0287
  846SOL     OW 3436   4.304   0.090   4.756  0.4676  0.4719  0.1351
  846SOL    HW1 3437   4.215   0.112   4.716  1.2582  1.2552 -1.2799
  846SOL    HW2 3438   4.349   0.175   4.785  1.4233  0.2699 -0.6809
  847SOL     OW 3439   2.106   3.237   2.133 -0.2358 -0.0924 -0.2814
  847SOL    HW1 3440   2.052   3.184   2.068  1.1589 -0.4289 -1.1921
  847SOL    HW2 3441   2.145   3.317   2.088  1.5833 -0.8741 -0.1566
  848SOL     OW 3442   6.240   1.539   0.251  0.7619  0.5736 -0.1979
  848SOL    HW1 3443   6.241   1.441   0.234  1.3930  0.7551 -1.2583
  848SOL    HW2 3444   6.164   1.581   0.202 -0.1735  0.4866  1.1210
  849SOL     OW 3445   4.753   3.790   0.436  0.2997  0.1266  0.2648
  849SOL    HW1 3446   4.760   3.836   0.525  0.3940  0.0022  0.3231
  849SOL    HW2 3447   4.757   3.691   0.449  0.5780  0.1137  0.1006
  850SOL     OW 3448   0.038   0.159   5.713 -0.0035 -0.1546  0.6598
  850SOL    HW1 3449   0.111   0.143   5.780  0.7544  2.3616  0.5222
  850SOL    HW2 3450  -0.032   0.217   5.753 -0.6556 -0.4406 -0.0389
  851SOL     OW 3451   6.408   0.784   5.747 -0.1142 -0.1785 -0.1900
  851SOL    HW1 3452   6.336   0.853   5.747 -0.6033 -0.6580  0.8157
  851SOL    HW2 3453   6.366   0.693   5.748  0.5054 -0.4684 -0.0982
  852SOL     OW 3454   5.872   4.987   0.417 -0.1034 -0.3668 -0.1666
  852SOL    HW1 3455   5.857   5.031   0.329  0.2340 -0.6744 -0.3806
  852SOL    HW2 3456   5.970   4.981   0.436 -0.1775 -0.0937  0.3396
  853SOL     OW 3457   1.988   3.277   6.865  0.0668 -0.0492 -0.1328
  853SOL    HW1 3458   2.079   3.307   6.837  0.5487 -0.8508  0.5045
  853SOL    HW2 3459   1.962   3.324   6.950 -0.1343  0.2020 -0.3306
  854SOL     OW 3460   5.481   0.923   6.544 -0.6347 -0.1546 -0.4369
  854SOL    HW1 3461   5.569   0.917   6.590  0.7497 -0.6469 -2.9551
  854SOL    HW2 3462   5.425   0.843   6.568  0.5967 -1.1125 -0.6688
  855SOL     OW 3463   0.692   6.868   6.126  0.4655 -0.4196 -0.4057
  855SOL    HW1 3464   0.654   6.805   6.059 -0.1955 -0.0239 -0.4125
  855SOL    HW2 3465   0.792   6.855   6.132  0.3800 -1.2354 -0.6310
  856SOL     OW 3466   1.844   1.327   7.019  0.1788  0.8924 -0.1086
  856SOL    HW1 3467   1.922   1.353   7.076  0.2463 -0.7476  0.5926
  856SOL    HW2 3468   1.793   1.253   7.064 -0.0040 -0.1635 -1.9667
  857SOL     OW 3469   6.145   5.327   4.219  0.0382  0.2351 -0.3334
  857SOL    HW1 3470   6.195   5.306   4.135 -0.0045  0.2098 -0.3527
  857SOL    HW2 3471   6.059   5.373   4.196 -0.6748 -1.0673 -0.4155
  858SOL     OW 3472   3.551   3.356   0.848  0.8467  0.3294 -0.3372
  858SOL    HW1 3473   3.568   3.277   0.907  2.1649  0.7040 -0.1925
  858SOL    HW2 3474   3.637   3.388   0.808  0.2981  1.5020 -0.6422
  859SOL     OW 3475   6.440   5.730   5.496 -0.1577 -0.0117 -0.4809
  859SOL    HW1 3476   6.416   5.712   5.592 -1.9824 -1.0719 -1.0949
  859SOL    HW2 3477   6.493   5.653   5.461  0.0149  0.1123 -0.4939
  860SOL     OW 3478   5.635   2.484   6.417 -0.5881  0.0004  0.0383
  860SOL    HW1 3479   5.632   2.540   6.335 -0.2934 -1.9943 -1.4078
  860SOL    HW2 3480   5.604   2.392   6.395  0.1312 -0.7644  2.0258
  861SOL     OW 3481   2.519   6.143   2.172 -0.1273  0.2915 -0.7132
  861SOL    HW1 3482   2.491   6.060   2.220  0.2844  0.8276  0.4864
  861SOL    HW2 3483   2.442   6.177   2.117 -1.2481  0.6804  1.0254
  862SOL     OW 3484   2.347   4.417   6.192 -0.3675  0.1927 -0.2633
  862SOL    HW1 3485   2.260   4.418   6.241 -0.1264 -0.0256  0.1900
  862SOL    HW2 3486   2.408   4.350   6.236 -0.2729 -0.2818 -1.1027
  863SOL     OW 3487   5.722   0.366   4.949  0.0767 -0.2636 -0.2660
  863SOL    HW1 3488   5.805   0.321   4.981 -0.3179 -0.5564  0.3904
  863SOL    HW2 3489   5.659   0.297   4.912  1.0627  0.2096 -3.0145
  864SOL     OW 3490   5.128   5.879   4.621  0.0534  0.2228 -0.0835
  864SOL    HW1 3491   5.112   5.976   4.600 -0.0122 -0.0559 -1.4160
  864SOL    HW2 3492   5.138   5.868   4.720 -0.2454  1.5423  0.1199
  865SOL     OW 3493   2.311   0.792   6.262 -0.3290  0.2273 -0.3008
  865SOL    HW1 3494   2.254   0.764   6.339  1.0652  2.0263  1.5141
  865SOL    HW2 3495   2.253   0.814   6.184 -1.8749 -0.7341  0.5255
  866SOL     OW 3496   4.187   6.223   0.944  0.1478  0.1083 -0.3713
  866SOL    HW1 3497   4.097   6.214   0.987 -0.0103 -3.0558 -1.1047
  866SOL    HW2 3498   4.190   6.308   0.892 -1.5643  1.3943  1.4665
  867SOL     OW 3499   6.272   1.876   0.471 -0.1895 -0.1825  0.0447
  867SOL    HW1 3500   6.262   1.957   0.528 -1.5965 -0.7277  0.6092
  867SOL    HW2 3501   6.227   1.798   0.514 -0.2182 -0.9028 -1.2192
  868SOL     OW 3502   1.922   0.657   1.118  0.8249 -0.2215 -0.5377
  868SOL    HW1 3503   1.923   0.633   1.215  0.5067 -0.8139 -0.6734
  868SOL    HW2 3504   1.989   0.729   1.100  0.6666  0.1140  0.1753
  869SOL     OW 3505   5.434   1.895   2.019  0.4069 -0.5252  0.1861
  869SOL    HW1 3506   5.454   1.918   2.114  0.0499 -0.4430  0.2424
  869SOL    HW2 3507   5.448   1.975   1.961 -2.8295  0.5308  0.6503
  870SOL     OW 3508   3.920   3.623   6.525  0.1518  0.1193  1.1494
  870SOL    HW1 3509   3.994   3.666   6.577 -0.3065  0.9843  1.0843
  870SOL    HW2 3510   3.867   3.564   6.586  1.0709 -0.7579  1.1315
  871SOL     OW 3511   5.696   0.930   4.703  0.5149 -0.4195 -0.5689
  871SOL    HW1 3512   5.713   0.959   4.609  2.1134 -1.3992 -0.6126
  871SOL    HW2 3513   5.625   0.860   4.704 -0.0267  0.1198 -0.9619
  872SOL     OW 3514   6.827   2.236   5.276  0.5709  0.1556 -0.5527
  872SOL    HW1 3515   6.761   2.200   5.210  0.2463  0.6488 -0.4959
  872SOL    HW2 3516   6.919   2.232   5.237  0.1818  2.2650 -1.8252
  873SOL     OW 3517   4.596   6.861   5.760  0.3192 -0.0266 -0.1870
  873SOL    HW1 3518   4.677   6.806   5.743  0.3444  0.4290 -1.6628
  873SOL    HW2 3519   4.559   6.894   5.673 -1.8745 -0.8181  0.3786
  874SOL     OW 3520   6.377   4.912   5.222 -0.2258 -0.0844 -0.1198
  874SOL    HW1 3521   6.306   4.958   5.169 -1.1046 -0.2061  0.9240
  874SOL    HW2 3522   6.336   4.840   5.279  1.0782 -2.1608 -1.6299
  875SOL     OW 3523   6.410   5.113   0.363 -0.1941  0.5435 -0.6508
  875SOL    HW1 3524   6.370   5.167   0.438  0.0679  0.0979 -0.1872
  875SOL    HW2 3525   6.341   5.102   0.291 -0.5670  0.6850 -0.3251
  876SOL     OW 3526   0.895   4.451   0.582  0.6878  0.0380  0.6870
  876SOL    HW1 3527   0.893   4.456   0.483 -1.0435 -0.5278  0.6637
  876SOL    HW2 3528   0.974   4.503   0.617  1.7086 -0.3389 -0.9876
  877SOL     OW 3529   3.781   5.405   6.636 -0.7771 -0.3592  0.2155
  877SOL    HW1 3530   3.738   5.437   6.551 -1.3097 -1.1924  0.1659
  877SOL    HW2 3531   3.830   5.320   6.618 -2.2311 -1.4034  1.0830
  878SOL     OW 3532   4.236   1.330   3.751 -0.7141 -0.3359  0.1863
  878SOL    HW1 3533   4.257   1.335   3.848 -0.6901  0.0194  0.1669
  878SOL    HW2 3534   4.142   1.362   3.735 -0.0583  1.6180 -0.1188
  879SOL     OW 3535   2.937   6.242   0.513 -0.1787 -0.0706 -0.8119
  879SOL    HW1 3536   2.985   6.304   0.451  0.9995 -1.9507 -1.8790
  879SOL    HW2 3537   2.945   6.275   0.606  2.3597  0.2706 -1.0774
  880SOL     OW 3538   3.925   3.318   3.957  0.1949  0.1235 -0.0755
  880SOL    HW1 3539   3.866   3.237   3.962 -0.9247  0.9824  2.0243
  880SOL    HW2 3540   3.870   3.400   3.972  0.5045  1.8626 -5.9194
  881SOL     OW 3541   4.881   1.940   4.198  0.4287 -0.6695  0.2916
  881SOL    HW1 3542   4.844   1.983   4.115 -0.1461  0.6012  1.1740
  881SOL    HW2 3543   4.805   1.908   4.255  0.6877  1.0221  1.6378
  882SOL     OW 3544   2.135   2.719   3.910 -1.0844 -0.2994 -0.3087
  882SOL    HW1 3545   2.104   2.727   4.005 -2.1676 -1.8668 -0.4854
  882SOL    HW2 3546   2.098   2.635   3.870  0.7764 -0.5620 -1.5993
  883SOL     OW 3547   3.193   6.385   2.067  0.1878  0.0702 -0.0028
  883SOL    HW1 3548   3.275   6.396   2.123 -0.5469  0.5693  1.0001
  883SOL    HW2 3549   3.209   6.424   1.976  1.2841 -0.4561 -0.0476
  884SOL     OW 3550   6.509   2.254   6.441  0.6249 -0.5279  0.0134
  884SOL    HW1 3551   6.434   2.189   6.453  0.2992 -0.3617 -1.0348
  884SOL    HW2 3552   6.478   2.345   6.469  0.3285 -0.4021 -0.7109
  885SOL     OW 3553   3.551   0.831   6.361 -0.3157  0.4173  0.2747
  885SOL    HW1 3554   3.455   0.858   6.347 -0.2122  0.4835 -0.3449
  885SOL    HW2 3555   3.610   0.890   6.307 -0.1361 -1.4693 -1.7201
  886SOL     OW 3556   5.080   6.877   6.063  0.0446  0.3562 -0.4437
  886SOL    HW1 3557   5.118   6.841   6.148 -0.7691  0.2757 -0.1067
  886SOL    HW2 3558   4.982   6.859   6.060 -0.0192  0.7831 -1.1866
  887SOL     OW 3559   4.648   0.405   4.556 -0.4945 -0.1053  0.0719
  887SOL    HW1 3560   4.711   0.345   4.606 -2.1646  0.2041  2.7712
  887SOL    HW2 3561   4.588   0.350   4.499 -0.3405 -0.7635  0.5358
  888SOL     OW 3562   6.593   6.400   4.110 -0.0210  0.5525  0.2428
  888SOL    HW1 3563   6.606   6.307   4.145  0.4010  1.3128  2.2445
  888SOL    HW2 3564   6.497   6.425   4.120 -0.3622 -0.0061 -1.3021
  889SOL     OW 3565   0.653   5.071   1.250  0.2140  0.4570  0.2641
  889SOL    HW1 3566   0.623   5.161   1.280  1.1039  0.5014  1.0485
  889SOL    HW2 3567   0.742   5.050   1.290  1.2553  0.3137 -1.9451
  890SOL     OW 3568   1.170   5.166   3.279  0.4491  0.2227  0.4579
  890SOL    HW1 3569   1.210   5.189   3.368 -0.3198  2.6457  0.2671
  890SOL    HW2 3570   1.095   5.229   3.260 -0.1280 -0.9624 -1.4394
  891SOL     OW 3571   6.501   4.844   0.942  0.1492 -0.3043  0.1042
  891SOL    HW1 3572   6.463   4.787   0.869 -0.2311 -0.9836  0.8157
  891SOL    HW2 3573   6.572   4.903   0.905  0.0121 -0.6971 -0.8005
  892SOL     OW 3574   2.882   2.253   0.187 -0.3271 -0.0097  0.0266
  892SOL    HW1 3575   2.940   2.303   0.122 -1.1372 -0.0142 -0.7226
  892SOL    HW2 3576   2.925   2.253   0.277 -0.0032  1.4738 -0.1002
  893SOL     OW 3577   0.802   6.819   4.858 -0.3045  0.2920 -0.2961
  893SOL    HW1 3578   0.899   6.828   4.835 -0.3526 -0.0758 -0.6669
  893SOL    HW2 3579   0.747   6.868   4.790 -0.3425  1.2328  0.4026
  894SOL     OW 3580   0.895   4.994   1.367  0.2115  0.5802  0.0673
  894SOL    HW1 3581   0.923   4.936   1.290 -3.5093  0.1113 -1.1584
  894SOL    HW2 3582   0.936   5.084   1.358 -0.3404  0.6439 -2.7225
  895SOL     OW 3583   0.703   3.903   4.099 -0.4055  0.2571  0.3847
  895SOL    HW1 3584   0.766   3.851   4.157  0.6462  0.7416 -0.2884
  895SOL    HW2 3585   0.690   3.855   4.012  0.5984  1.0963 -0.2531
  896SOL     OW 3586   5.580   3.620   1.721 -0.0859  0.0513 -0.4001
  896SOL    HW1 3587   5.617   3.704   1.681 -0.2822  0.1368 -0.4045
  896SOL    HW2 3588   5.485   3.609   1.693  0.1260 -0.5130 -0.9321
  897SOL     OW 3589   1.440   3.600   5.153 -0.0494  0.4082  0.3429
  897SOL    HW1 3590   1.514   3.558   5.101  0.7207 -0.1646  1.8548
  897SOL    HW2 3591   1.370   3.634   5.090 -0.2609 -2.2814 -0.9841
  898SOL     OW 3592   1.722   6.282   2.736 -0.2310  0.4199  0.3708
  898SOL    HW1 3593   1.795   6.315   2.795  0.9849 -0.3650 -0.6295
  898SOL    HW2 3594   1.728   6.328   2.647 -0.2502 -0.4349 -0.0888
  899SOL     OW 3595   6.329   5.023   5.638 -0.1566  0.8433 -0.0643
  899SOL    HW1 3596   6.358   4.985   5.726 -1.0543  1.5746  0.5711
  899SOL    HW2 3597   6.374   4.974   5.564  0.8190  0.3766  0.8064
  900SOL     OW 3598   4.507   6.848   0.960  0.0064  0.0421 -0.0169
  900SOL    HW1 3599   4.600   6.875   0.939  0.0640 -0.4878 -0.4598
  900SOL    HW2 3600   4.500   6.748   0.961 -0.7488  0.0686 -0.8929
  901SOL     OW 3601   2.830   5.515   4.319  0.2224 -0.3707  0.2658
  901SOL    HW1 3602   2.802   5.526   4.415 -2.0015  0.5165 -0.4054
  901SOL    HW2 3603   2.897   5.442   4.312 -0.0355 -0.8880  2.4258
  902SOL     OW 3604   0.066   2.786   1.030  0.2272 -0.0668 -0.8789
  902SOL    HW1 3605   0.117   2.843   1.095 -0.5939 -1.2071  0.8507
  902SOL    HW2 3606   0.121   2.706   1.006 -0.7606 -1.4915  1.2790
  903SOL     OW 3607   4.329   2.522   6.588  0.1391  0.0070  0.3254
  903SOL    HW1 3608   4.420   2.553   6.616  0.4186 -0.5535  0.0519
  903SOL    HW2 3609   4.262   2.593   6.610  0.4467 -0.0933  1.7173
  904SOL     OW 3610   1.272   4.271   1.279 -0.3830  0.0867  0.5650
  904SOL    HW1 3611   1.284   4.334   1.355  1.7890  0.5334 -0.0737
  904SOL    HW2 3612   1.361   4.245   1.243 -1.3252 -0.3173 -1.6482
  905SOL     OW 3613   6.172   0.264   0.556 -0.4116  0.0786  1.0511
  905SOL    HW1 3614   6.128   0.204   0.623  0.3662 -1.3740  0.3182
  905SOL    HW2 3615   6.254   0.304   0.596  0.9142 -1.9868  0.5752
  906SOL     OW 3616   5.227   1.584   6.248  0.4090 -0.4886  0.3366
  906SOL    HW1 3617   5.291   1.519   6.207 -2.4035 -1.8045 -2.4556
  906SOL    HW2 3618   5.154   1.533   6.294 -0.6518  0.7708  0.1100
  907SOL     OW 3619   5.443   2.932   0.983  0.3786 -0.1137 -0.2894
  907SOL    HW1 3620   5.404   2.978   0.903  0.2471 -0.2496 -0.3029
  907SOL    HW2 3621   5.393   2.847   1.000 -0.5422  0.6148  0.7979
  908SOL     OW 3622   0.900   4.556   2.551 -0.0933  0.7792  0.1788
  908SOL    HW1 3623   0.952   4.634   2.587 -0.3514  0.6167  0.9202
  908SOL    HW2 3624   0.870   4.498   2.627 -0.9486  0.6110 -0.2791
  909SOL     OW 3625   4.862   4.539   1.498  0.3580 -0.4709  0.2013
  909SOL    HW1 3626   4.769   4.561   1.470  0.9297 -0.2976 -1.7055
  909SOL    HW2 3627   4.860   4.471   1.571 -1.2840  0.9773  1.6090
  910SOL     OW 3628   3.444   1.639   0.642 -0.2142 -0.0792 -0.6488
  910SOL    HW1 3629   3.354   1.672   0.614 -0.1805 -0.1851 -0.8860
  910SOL    HW2 3630   3.435   1.581   0.723 -0.4376 -0.6150 -1.0521
  911SOL     OW 3631   1.867   5.123   0.277 -0.1910  0.2409  0.4735
  911SOL    HW1 3632   1.893   5.110   0.373 -0.1389  1.9526  0.7337
  911SOL    HW2 3633   1.938   5.178   0.231 -0.7193  0.3221 -0.2585
  912SOL     OW 3634   5.394   1.710   4.282  0.1276  0.0201  0.1069
  912SOL    HW1 3635   5.418   1.804   4.255  0.1216  0.8234  2.6372
  912SOL    HW2 3636   5.301   1.709   4.319  0.6655 -0.6205  1.5285
  913SOL     OW 3637   5.468   6.376   4.318 -0.1500 -0.5170  0.4531
  913SOL    HW1 3638   5.528   6.342   4.391  0.6273 -1.3876 -0.5484
  913SOL    HW2 3639   5.479   6.318   4.237  0.8240  1.7760 -1.1673
  914SOL     OW 3640   3.230   6.293   6.885  0.5852 -0.1323  0.0083
  914SOL    HW1 3641   3.285   6.365   6.929  2.0131 -0.7808 -0.6491
  914SOL    HW2 3642   3.189   6.328   6.801 -0.2459  0.4379  0.6439
  915SOL     OW 3643   5.541   5.482   6.787 -0.0550  0.2476 -0.1691
  915SOL    HW1 3644   5.501   5.558   6.838  1.1105  1.4732 -0.9738
  915SOL    HW2 3645   5.580   5.517   6.701  1.8549 -0.9885  0.1260
  916SOL     OW 3646   1.244   3.931   2.013  0.1582  0.3112 -0.0436
  916SOL    HW1 3647   1.239   3.902   1.917  2.5644 -0.1094 -0.1059
  916SOL    HW2 3648   1.321   3.995   2.025 -0.3963  0.7316  1.5227
  917SOL     OW 3649   6.704   6.995   0.113  0.2196 -0.3582 -0.2553
  917SOL    HW1 3650   6.670   7.057   0.184 -0.1758 -0.8054 -0.0520
  917SOL    HW2 3651   6.647   7.003   0.032  0.6103  0.0760 -0.4952
  918SOL     OW 3652   4.079   5.413   1.487 -0.5930 -0.3470  0.1174
  918SOL    HW1 3653   4.118   5.353   1.556  0.1348  0.7812  0.7181
  918SOL    HW2 3654   4.131   5.404   1.402  0.2196  0.2266  0.5374
  919SOL     OW 3655   5.478   2.038   1.347  0.2002  0.3281  0.2340
  919SOL    HW1 3656   5.499   2.096   1.426  0.1258 -1.7693  1.8865
  919SOL    HW2 3657   5.529   1.952   1.354 -0.2695 -0.1648 -1.7136
  920SOL     OW 3658   2.860   3.281   1.454 -0.0440 -0.2225  0.1766
  920SOL    HW1 3659   2.925   3.284   1.531  0.3915  1.1161 -0.2213
  920SOL    HW2 3660   2.772   3.318   1.484 -1.0050 -2.8736  0.9867
  921SOL     OW 3661   4.651   5.368   3.582  0.1151 -0.2302  0.1452
  921SOL    HW1 3662   4.674   5.272   3.563 -1.3009 -1.1668  2.6456
  921SOL    HW2 3663   4.551   5.377   3.588  0.1819  1.6414 -0.9912
  922SOL     OW 3664   3.542   4.195   5.017  0.6147 -0.4491 -0.2945
  922SOL    HW1 3665   3.494   4.254   4.952  0.7897 -0.1225 -0.1275
  922SOL    HW2 3666   3.640   4.210   5.011  0.6375 -0.4729 -0.0092
  923SOL     OW 3667   2.679   1.913   1.845  0.0354 -0.7560 -0.0494
  923SOL    HW1 3668   2.738   1.965   1.907  1.0809 -0.9214 -0.8772
  923SOL    HW2 3669   2.700   1.816   1.854 -3.0363 -1.3692  2.7120
  924SOL     OW 3670   5.535   4.273   2.842  0.1809 -0.0713 -0.1821
  924SOL    HW1 3671   5.557   4.247   2.748 -1.4039 -1.9306 -0.0801
  924SOL    HW2 3672   5.468   4.210   2.880  0.0241  1.2412  1.8834
  925SOL     OW 3673   0.410   2.222   0.302 -0.1973  0.3472  0.3131
  925SOL    HW1 3674   0.452   2.136   0.332  1.1603  0.1451 -1.8666
  925SOL    HW2 3675   0.363   2.207   0.215  1.1120  1.9878 -0.7529
  926SOL     OW 3676   5.034   5.541   0.255 -0.4624 -0.3226  1.1677
  926SOL    HW1 3677   4.937   5.541   0.229  0.3572  2.3449 -2.7084
  926SOL    HW2 3678   5.079   5.461   0.214 -0.2512  0.9253 -1.1969
  927SOL     OW 3679   6.035   3.705   5.694  0.0971 -0.1517  0.4962
  927SOL    HW1 3680   5.973   3.726   5.770  2.1007 -1.4451  2.6448
  927SOL    HW2 3681   6.130   3.710   5.727  0.9979 -2.6382 -1.3884
  928SOL     OW 3682   3.542   5.487   1.256  0.0785 -0.2140 -0.6689
  928SOL    HW1 3683   3.608   5.561   1.241 -1.6247  1.7951  1.0033
  928SOL    HW2 3684   3.562   5.444   1.344  1.9977 -2.9483 -2.2817
  929SOL     OW 3685   0.744   0.543   6.441  0.6894 -0.0820 -0.2523
  929SOL    HW1 3686   0.771   0.638   6.456  0.0228  0.6047 -2.7983
  929SOL    HW2 3687   0.786   0.484   6.510  1.0263  2.0457  1.4530
  930SOL     OW 3688   5.943   5.967   5.850  0.2856  0.3008  0.8150
  930SOL    HW1 3689   5.865   6.007   5.802  1.2299  2.0829  0.6839
  930SOL    HW2 3690   5.916   5.941   5.943  0.0537  3.0093  1.5674
  931SOL     OW 3691   0.563   0.669   2.458  0.1940  0.2420 -0.6759
  931SOL    HW1 3692   0.616   0.584   2.462  0.1750  0.2633  0.1886
  931SOL    HW2 3693   0.480   0.653   2.405  0.4626 -0.1203 -1.0035
  932SOL     OW 3694   3.054   0.749   4.469  0.3809 -0.1321 -0.6183
  932SOL    HW1 3695   2.998   0.718   4.392 -0.5326  0.9269 -0.4108
  932SOL    HW2 3696   3.123   0.813   4.436  1.6193 -1.5587 -0.8984
  933SOL     OW 3697   2.575   5.078   2.734 -0.0455 -0.1707 -0.0587
  933SOL    HW1 3698   2.543   4.985   2.716 -1.8071  0.5738 -0.9278
  933SOL    HW2 3699   2.601   5.086   2.831 -2.0561 -0.9729  0.5922
  934SOL     OW 3700   2.578   5.657   5.820  0.0542  0.1346 -0.2635
  934SOL    HW1 3701   2.550   5.562   5.825  0.3784  0.0809  0.7570
  934SOL    HW2 3702   2.676   5.664   5.842 -0.2242  0.8097  0.8793
  935SOL     OW 3703   5.870   4.974   3.939 -0.1566 -0.0903  0.2893
  935SOL    HW1 3704   5.815   4.918   4.001 -0.0024 -0.2693  0.2655
  935SOL    HW2 3705   5.967   4.961   3.959  0.0154 -1.7710 -1.3392
  936SOL     OW 3706   0.999   0.458   5.677  0.5177  0.3771 -0.2913
  936SOL    HW1 3707   1.087   0.437   5.635 -0.5837 -0.8333 -2.1239
  936SOL    HW2 3708   0.964   0.544   5.642  0.2770  0.0899 -0.7712
  937SOL     OW 3709   4.951   2.497   6.333 -0.2237 -0.0608  0.4059
  937SOL    HW1 3710   5.044   2.470   6.359  0.1132  2.1778  1.8214
  937SOL    HW2 3711   4.887   2.465   6.403 -0.4283 -0.8078 -0.1052
  938SOL     OW 3712   0.779   0.462   5.481 -0.1882  0.3606 -0.3369
  938SOL    HW1 3713   0.692   0.422   5.511  1.4341 -1.4221  2.4422
  938SOL    HW2 3714   0.801   0.540   5.540  0.3028  0.5506 -0.7636
  939SOL     OW 3715   2.047   1.059   4.491 -0.1179  0.4932  0.0637
  939SOL    HW1 3716   1.995   1.130   4.539 -0.5075 -0.0522  0.4640
  939SOL    HW2 3717   1.991   0.976   4.484 -0.1618  0.6237 -1.5502
  940SOL     OW 3718   1.543   4.273   0.041 -0.1962  0.9428 -0.0659
  940SOL    HW1 3719   1.562   4.334  -0.036  1.7256  0.4131 -0.0730
  940SOL    HW2 3720   1.626   4.223   0.065 -0.9197  0.6124  1.9569
  941SOL     OW 3721   6.548   0.113   6.005 -0.5331 -0.1684  0.4865
  941SOL    HW1 3722   6.561   0.195   5.950  0.4405 -0.7199 -0.1390
  941SOL    HW2 3723   6.477   0.055   5.963  0.6418 -0.8847 -0.5868
  942SOL     OW 3724   6.878   0.540   1.605 -0.1477 -0.2201  0.6087
  942SOL    HW1 3725   6.830   0.620   1.571  0.4955 -0.3405 -0.6615
  942SOL    HW2 3726   6.973   0.564   1.624 -0.4448 -0.2099  2.1689
  943SOL     OW 3727   3.683   4.739   0.856  0.0492  0.0516 -0.1802
  943SOL    HW1 3728   3.636   4.665   0.904  0.5431  0.0590  0.3377
  943SOL    HW2 3729   3.721   4.705   0.770 -0.8871  0.0489 -0.6058
  944SOL     OW 3730   6.388   4.872   5.874  0.8830  0.8039  0.0732
  944SOL    HW1 3731   6.303   4.820   5.864 -0.2387  2.7342 -1.1595
  944SOL    HW2 3732   6.466   4.810   5.870 -0.4083 -0.8572 -0.3310
  945SOL     OW 3733   6.583   4.739   5.669 -0.1415  0.1013 -0.4960
  945SOL    HW1 3734   6.491   4.719   5.636 -0.7689 -0.9001  1.6977
  945SOL    HW2 3735   6.650   4.709   5.601 -1.3629 -1.9434 -0.8856
  946SOL     OW 3736   4.503   4.873   3.626  0.7654  0.0591 -0.2206
  946SOL    HW1 3737   4.526   4.780   3.656  1.6721  0.4378  0.2964
  946SOL    HW2 3738   4.513   4.879   3.527 -1.5077 -0.9977 -0.5776
  947SOL     OW 3739   2.932   3.457   5.555  0.2881  0.3069  0.4388
  947SOL    HW1 3740   2.896   3.401   5.481  0.2419  0.4761  0.3333
  947SOL    HW2 3741   3.017   3.416   5.590 -0.5071 -0.6358  1.3481
  948SOL     OW 3742   4.127   0.688   3.219 -0.1165 -0.3495 -0.0697
  948SOL    HW1 3743   4.112   0.777   3.264  0.3071 -0.4311  0.2338
  948SOL    HW2 3744   4.180   0.629   3.279 -1.8140 -1.4174  0.4679
  949SOL     OW 3745   3.065   1.371   0.196  0.2463 -0.3644 -0.5922
  949SOL    HW1 3746   3.120   1.453   0.209 -0.7162 -0.0081  1.6337
  949SOL    HW2 3747   3.114   1.308   0.134  1.7817  1.1157 -0.9738
  950SOL     OW 3748   4.838   5.449   2.601 -0.1465 -0.3457  0.3019
  950SOL    HW1 3749   4.806   5.358   2.628  0.0686 -0.2801  0.7847
  950SOL    HW2 3750   4.897   5.441   2.521  0.9295 -0.7795  1.1209
  951SOL     OW 3751   1.240   7.013   4.842 -0.5449 -0.2196  0.5284
  951SOL    HW1 3752   1.281   6.936   4.891  0.3206  0.9488  1.7050
  951SOL    HW2 3753   1.155   7.040   4.886 -0.6301 -0.2297  0.3715
  952SOL     OW 3754   4.116   1.942   3.181  0.3232 -0.0085 -0.6912
  952SOL    HW1 3755   4.201   1.988   3.154 -0.2876  1.8766  0.3567
  952SOL    HW2 3756   4.065   1.916   3.099  3.0949 -3.8045 -1.4792
  953SOL     OW 3757   0.526   5.720   3.114  0.0187  0.1872 -0.0977
  953SOL    HW1 3758   0.460   5.768   3.172  1.6546  0.7396  1.3988
  953SOL    HW2 3759   0.614   5.715   3.161  0.2698 -3.2502 -0.6802
  954SOL     OW 3760   3.919   6.063   4.352  0.3610  0.7413  0.3680
  954SOL    HW1 3761   3.975   6.146   4.356 -1.0235  1.7149  0.2285
  954SOL    HW2 3762   3.978   5.983   4.357  1.7305  1.7288  0.5842
  955SOL     OW 3763   1.467   4.591   6.917  0.3303 -0.2750 -0.0368
  955SOL    HW1 3764   1.428   4.516   6.864 -0.4354  0.9759 -1.3121
  955SOL    HW2 3765   1.537   4.638   6.863  0.6699  0.0473  0.6668
  956SOL     OW 3766   5.645   0.444   0.900 -0.2428  0.2157  0.2258
  956SOL    HW1 3767   5.636   0.350   0.865 -0.5691 -0.1274  1.1949
  956SOL    HW2 3768   5.645   0.442   1.000  1.8583  1.0510  0.2965
  957SOL     OW 3769   6.539   2.868   0.537  0.4637  0.1913  0.3008
  957SOL    HW1 3770   6.627   2.870   0.489  1.1593 -0.1903  1.5323
  957SOL    HW2 3771   6.543   2.805   0.614 -1.2951 -0.7883 -0.3420
  958SOL     OW 3772   5.054   6.575   1.723  0.0476  0.3578 -0.0664
  958SOL    HW1 3773   4.974   6.515   1.723  1.6395 -1.9755  1.6281
  958SOL    HW2 3774   5.114   6.550   1.647  0.5749 -0.0005  0.4629
  959SOL     OW 3775   4.643   7.019   3.925  0.0142  0.2042 -0.0131
  959SOL    HW1 3776   4.617   6.923   3.934  0.2307  0.1921  0.5046
  959SOL    HW2 3777   4.619   7.051   3.833  0.0556 -0.3775 -0.2339
  960SOL     OW 3778   2.205   1.609   1.660  0.2694  0.9332  0.1202
  960SOL    HW1 3779   2.296   1.636   1.628  1.1233  0.8969  2.3414
  960SOL    HW2 3780   2.212   1.565   1.750 -1.7776 -0.7683 -0.4716
  961SOL     OW 3781   3.198   7.006   2.971 -0.6452 -0.0572 -0.3561
  961SOL    HW1 3782   3.186   7.079   3.038 -1.6764  0.6940 -1.3353
  961SOL    HW2 3783   3.286   7.017   2.925 -0.7268  0.4818 -0.3897
  962SOL     OW 3784   5.079   2.770   5.246  0.1344  1.1842 -0.2601
  962SOL    HW1 3785   5.029   2.752   5.330  0.2978 -0.1348 -0.4282
  962SOL    HW2 3786   5.164   2.818   5.267  1.2433 -1.0159  0.6275
  963SOL     OW 3787   3.362   1.123   1.436 -0.2928  0.4362  0.3211
  963SOL    HW1 3788   3.392   1.218   1.424  0.3562  0.1985  0.0764
  963SOL    HW2 3789   3.262   1.121   1.439 -0.2898  1.2838  1.6403
  964SOL     OW 3790   4.860   4.063   4.622 -0.6327  0.4201  0.3308
  964SOL    HW1 3791   4.839   4.149   4.575 -2.0585  0.5162  1.0717
  964SOL    HW2 3792   4.836   4.072   4.719  0.1816 -0.4846  0.6316
  965SOL     OW 3793   6.651   1.809   2.185  0.1335 -0.7107  0.3285
  965SOL    HW1 3794   6.673   1.733   2.125 -1.0889 -0.5897 -0.3090
  965SOL    HW2 3795   6.718   1.814   2.259 -0.5386 -3.2606  1.1973
  966SOL     OW 3796   3.375   1.472   2.857  0.4381  0.1820  0.2226
  966SOL    HW1 3797   3.444   1.434   2.918 -0.6578 -0.7368  0.9337
  966SOL    HW2 3798   3.330   1.397   2.808  0.8123  0.8582 -1.2110
  967SOL     OW 3799   3.065   4.616   1.282  0.0987  0.1499  0.0535
  967SOL    HW1 3800   3.005   4.594   1.359 -0.7346  3.9348  0.6612
  967SOL    HW2 3801   3.019   4.679   1.220  1.5214 -1.1785 -2.5461
  968SOL     OW 3802   1.742   5.259   2.177  0.7298 -0.0589  0.0395
  968SOL    HW1 3803   1.786   5.179   2.218  2.4959  1.1193  0.6097
  968SOL    HW2 3804   1.718   5.240   2.082  1.1285 -1.2579  0.1622
  969SOL     OW 3805   3.182   5.257   4.906  0.1227 -0.3213 -0.0885
  969SOL    HW1 3806   3.210   5.294   4.995  1.2103  1.2985 -1.0491
  969SOL    HW2 3807   3.259   5.210   4.864  0.0730  0.2329 -0.8124
  970SOL     OW 3808   5.724   1.296   0.606  0.1568  0.0361  0.1853
  970SOL    HW1 3809   5.664   1.342   0.541 -2.7902 -0.9505  2.0121
  970SOL    HW2 3810   5.733   1.351   0.689  1.7723  0.1099  0.0029
  971SOL     OW 3811   5.563   1.280   2.704  0.4769  0.1077  0.3610
  971SOL    HW1 3812   5.522   1.258   2.616  0.5343  1.5195 -0.0536
  971SOL    HW2 3813   5.662   1.286   2.694  0.6709 -1.6607  0.9845
  972SOL     OW 3814   1.372   4.427   1.482 -0.5998 -0.2119 -1.2280
  972SOL    HW1 3815   1.398   4.409   1.577  0.8747 -2.3026 -1.9464
  972SOL    HW2 3816   1.360   4.526   1.469 -3.7568 -0.0220  1.7532
  973SOL     OW 3817   5.820   3.735   4.542  0.4448 -0.3785 -0.6361
  973SOL    HW1 3818   5.731   3.703   4.512  0.2838 -0.6794  0.1306
  973SOL    HW2 3819   5.851   3.810   4.484 -1.2230  1.1198  0.3075
  974SOL     OW 3820   0.667   3.909   2.114  0.0396  0.4619 -0.5916
  974SOL    HW1 3821   0.650   3.908   2.015  0.8248  0.4021 -0.7379
  974SOL    HW2 3822   0.582   3.894   2.163 -0.4086  0.7758 -1.2572
  975SOL     OW 3823   4.328   6.345   6.676  0.1327 -0.0499  0.5250
  975SOL    HW1 3824   4.403   6.350   6.742  0.3519 -0.2808  0.2916
  975SOL    HW2 3825   4.250   6.298   6.719  1.1734 -2.6312 -0.2056
  976SOL     OW 3826   5.573   3.566   6.639 -0.0123  0.2007 -0.0997
  976SOL    HW1 3827   5.503   3.637   6.650 -0.8662 -0.3167 -1.8309
  976SOL    HW2 3828   5.530   3.483   6.604  1.5205 -0.0165 -1.5952
  977SOL     OW 3829   0.043   4.463   2.759 -0.0873 -0.2959  0.6068
  977SOL    HW1 3830  -0.015   4.461   2.840 -1.2443 -1.8015 -0.2038
  977SOL    HW2 3831  -0.013   4.486   2.679  0.9185  0.5818  0.1242
  978SOL     OW 3832   6.470   3.831   0.867 -0.1858 -0.6923  0.1932
  978SOL    HW1 3833   6.466   3.740   0.824 -1.1545 -1.5127  1.9196
  978SOL    HW2 3834   6.385   3.880   0.848  0.8376  0.4402 -1.8247
  979SOL     OW 3835   0.209   4.317   6.909 -0.1677 -0.4511  0.4944
  979SOL    HW1 3836   0.228   4.397   6.852  0.3895 -0.1047  1.1578
  979SOL    HW2 3837   0.264   4.321   6.992 -1.5725 -0.5150  1.4658
  980SOL     OW 3838   4.981   1.983   3.795 -0.4779  0.4725 -0.1729
  980SOL    HW1 3839   4.964   1.887   3.774 -0.3675  0.4236 -0.0441
  980SOL    HW2 3840   5.062   2.014   3.745 -0.0077  0.2593  0.4356
  981SOL     OW 3841   1.701   0.845   5.363  0.8189  0.2460  0.2840
  981SOL    HW1 3842   1.719   0.836   5.461 -0.6018 -0.5350  0.4875
  981SOL    HW2 3843   1.604   0.834   5.345  1.0282  0.5560 -1.2114
  982SOL     OW 3844   2.291   3.250   5.567 -0.3030  0.5810  0.3114
  982SOL    HW1 3845   2.306   3.274   5.471  1.6348 -0.8771  0.1862
  982SOL    HW2 3846   2.297   3.333   5.622  1.9772  1.0733 -0.5263
  983SOL     OW 3847   0.447   2.538   2.652  0.2410  0.1196 -0.1502
  983SOL    HW1 3848   0.499   2.478   2.712 -1.4296 -1.2887 -0.0248
  983SOL    HW2 3849   0.349   2.525   2.669 -0.2143  1.1396 -1.7988
  984SOL     OW 3850   2.286   0.908   4.729  0.3027  0.6525  0.0975
  984SOL    HW1 3851   2.240   0.833   4.682  0.4206  0.3267  0.4922
  984SOL    HW2 3852   2.384   0.886   4.737 -0.0525 -0.3995  2.5255
  985SOL     OW 3853   5.869   2.482   4.401 -0.2907 -0.2738  0.1879
  985SOL    HW1 3854   5.850   2.409   4.335  0.4368  0.6930 -1.1346
  985SOL    HW2 3855   5.966   2.506   4.397 -0.6033  1.0841  0.2651
  986SOL     OW 3856   6.063   4.535   1.329  0.1773  0.2230  0.2538
  986SOL    HW1 3857   6.145   4.477   1.325 -0.0065 -0.0479  0.3240
  986SOL    HW2 3858   6.037   4.547   1.425  0.7663  1.2230  0.3045
  987SOL     OW 3859   4.718   5.652   4.185 -0.2367  0.3801  0.3982
  987SOL    HW1 3860   4.633   5.680   4.230 -0.2260  0.6832  0.2274
  987SOL    HW2 3861   4.783   5.728   4.186  0.8856 -0.5327  2.5626
  988SOL     OW 3862   3.983   3.868   1.443  0.2372 -0.4297  0.1134
  988SOL    HW1 3863   3.974   3.774   1.411  0.4431 -0.2885 -0.3696
  988SOL    HW2 3864   4.075   3.902   1.423  0.6126 -0.5704  1.5051
  989SOL     OW 3865   0.368   0.636   2.255 -0.3982  0.2682  0.1675
  989SOL    HW1 3866   0.293   0.572   2.239  2.1853 -2.8020 -0.7468
  989SOL    HW2 3867   0.400   0.671   2.168  0.8202 -0.5203  0.2728
  990SOL     OW 3868   1.622   0.414   1.583 -0.1606 -1.0551 -0.2769
  990SOL    HW1 3869   1.558   0.401   1.658 -2.3310 -0.0188 -1.8554
  990SOL    HW2 3870   1.613   0.506   1.546 -1.1783 -2.3201 -3.5405
  991SOL     OW 3871   5.542   4.049   2.648 -0.0447 -0.4929  0.3320
  991SOL    HW1 3872   5.490   3.969   2.678 -0.7850 -0.6551 -1.2862
  991SOL    HW2 3873   5.484   4.107   2.591  1.2617 -0.1990 -0.7517
  992SOL     OW 3874   6.645   4.677   1.530 -0.0757 -0.0841 -0.4382
  992SOL    HW1 3875   6.678   4.769   1.552 -0.1383 -0.1963  0.1434
  992SOL    HW2 3876   6.683   4.648   1.442  2.2688 -0.6427  0.6684
  993SOL     OW 3877   6.768   4.894   2.295  0.1149 -0.2573 -0.1852
  993SOL    HW1 3878   6.770   4.875   2.196 -1.9158  0.5351 -0.4341
  993SOL    HW2 3879   6.703   4.968   2.313 -0.4414 -1.1709  1.8642
  994SOL     OW 3880   5.713   3.093   1.637 -0.2576 -0.0203  0.3906
  994SOL    HW1 3881   5.810   3.100   1.663  0.2981 -2.0641 -0.8616
  994SOL    HW2 3882   5.661   3.164   1.684  1.8631  1.2699  0.9597
  995SOL     OW 3883   4.382   3.023   1.011 -0.3498 -0.0820 -0.4924
  995SOL    HW1 3884   4.302   3.068   1.050 -0.7881 -0.8623 -0.4842
  995SOL    HW2 3885   4.463   3.049   1.062 -0.7916 -0.3950  0.3797
  996SOL     OW 3886   3.996   5.923   5.783 -0.1828 -0.5268  0.3100
  996SOL    HW1 3887   3.958   5.913   5.875 -0.2128  1.4749  0.5661
  996SOL    HW2 3888   4.073   5.988   5.786 -1.8179  1.6510 -1.4150
  997SOL     OW 3889   1.823   6.673   2.897 -0.5220  0.2738 -0.1158
  997SOL    HW1 3890   1.820   6.582   2.938 -1.1845 -0.0863 -0.9307
  997SOL    HW2 3891   1.810   6.665   2.798 -3.0485  1.4270  0.0515
  998SOL     OW 3892   0.272   0.018   0.110  0.3269  0.2887 -0.4990
  998SOL    HW1 3893   0.243   0.084   0.042 -0.2343  1.1033  0.5072
  998SOL    HW2 3894   0.358  -0.025   0.080  0.4747  1.1516 -1.3606
  999SOL     OW 3895   3.955   5.013   6.382  0.0150  0.4094  0.3772
  999SOL    HW1 3896   3.863   4.974   6.388 -0.3976  1.5248  2.2063
  999SOL    HW2 3897   4.006   4.967   6.310 -1.5160 -1.1745  0.2267
 1000SOL     OW 3898   3.016   2.934   1.480 -0.5745  0.9221  0.6362
 1000SOL    HW1 3899   2.982   2.892   1.396 -0.3806  1.7076  0.1546
 1000SOL    HW2 3900   3.113   2.955   1.470  0.0296 -0.9671  1.8596
 1001SOL     OW 3901   2.245   6.785   1.441 -0.1161 -0.0485 -0.2281
 1001SOL    HW1 3902   2.296   6.853   1.494 -0.3357  0.0379 -0.1282
 1001SOL    HW2 3903   2.173   6.831   1.388  0.1036 -0.1321 -0.6041
 1002SOL     OW 3904   6.790   0.452   6.917 -0.4798 -0.0118 -0.4116
 1002SOL    HW1 3905   6.786   0.388   6.840  0.0819 -0.1434 -0.3323
 1002SOL    HW2 3906   6.795   0.545   6.882 -1.2107 -0.0072 -0.5280
 1003SOL     OW 3907   1.503   6.664   2.312  0.6138 -0.0568  0.2691
 1003SOL    HW1 3908   1.507   6.748   2.257  0.0865 -0.4037 -0.3131
 1003SOL    HW2 3909   1.417   6.616   2.293  1.4444 -1.3506 -0.3290
 1004SOL     OW 3910   0.520   0.988   3.372  0.0165  0.2842  0.4159
 1004SOL    HW1 3911   0.445   0.979   3.438 -0.8097  0.4965 -0.4703
 1004SOL    HW2 3912   0.547   1.084   3.364 -0.7610  0.4451 -0.4763
 1005SOL     OW 3913   2.603   5.921   4.424  0.1795 -0.0563 -0.1816
 1005SOL    HW1 3914   2.596   5.945   4.521  0.3121  1.2927 -0.4890
 1005SOL    HW2 3915   2.569   5.827   4.411  0.8078 -0.5194  1.2596
 1006SOL     OW 3916   2.754   3.379   6.404  0.1297 -0.1972  0.5120
 1006SOL    HW1 3917   2.748   3.478   6.416  0.4523 -0.1064 -0.0166
 1006SOL    HW2 3918   2.741   3.357   6.307 -0.6128 -0.7333  0.7282
 1007SOL     OW 3919   4.530   1.428   0.276  0.6711  0.3038 -0.1297
 1007SOL    HW1 3920   4.536   1.360   0.349 -1.3817 -0.2022 -0.3606
 1007SOL    HW2 3921   4.481   1.508   0.309  0.9320  0.6440 -0.5600
 1008SOL     OW 3922   6.275   3.374   4.277 -0.4754 -0.4071 -0.1836
 1008SOL    HW1 3923   6.186   3.391   4.319 -0.0359 -0.2640  0.7293
 1008SOL    HW2 3924   6.347   3.394   4.344  0.2088 -1.3748 -0.6123
 1009SOL     OW 3925   5.348   4.453   5.010 -0.2855  0.5764  0.3466
 1009SOL    HW1 3926   5.355   4.523   5.080 -1.1936  0.8519  0.1701
 1009SOL    HW2 3927   5.252   4.429   4.995  0.0417 -1.4500  1.1224
 1010SOL     OW 3928   3.737   2.470   0.448 -0.3234 -0.1334 -0.3624
 1010SOL    HW1 3929   3.677   2.436   0.376  1.2290  1.7049 -2.6730
 1010SOL    HW2 3930   3.831   2.440   0.430  0.2192  1.0229  0.4501
 1011SOL     OW 3931   6.777   6.371   0.670 -0.2031  0.7075  0.0003
 1011SOL    HW1 3932   6.681   6.387   0.689  0.1829  0.7684  2.1213
 1011SOL    HW2 3933   6.809   6.291   0.722  1.0087  1.0150 -0.2282
 1012SOL     OW 3934   6.487   1.175   4.091  0.8192  0.1263  0.0518
 1012SOL    HW1 3935   6.473   1.189   3.993 -0.6861 -1.3929 -0.0088
 1012SOL    HW2 3936   6.405   1.134   4.130  1.5906  0.2171  1.8689
 1013SOL     OW 3937   0.074   6.520   6.236 -0.1963 -0.1768 -0.2062
 1013SOL    HW1 3938   0.005   6.530   6.164 -0.4981  2.1888  0.3134
 1013SOL    HW2 3939   0.036   6.552   6.323  1.7223  1.9539 -0.0441
 1014SOL     OW 3940   6.980   3.263   3.316  0.3113 -0.4197 -0.1150
 1014SOL    HW1 3941   6.917   3.230   3.246 -1.3065 -0.7393  1.4141
 1014SOL    HW2 3942   6.986   3.195   3.390  1.5305  0.1495  0.3397
 1015SOL     OW 3943   3.234   1.231   0.022 -0.3833  0.0536 -0.7720
 1015SOL    HW1 3944   3.319   1.257   0.068 -0.6088  0.1595 -0.4142
 1015SOL    HW2 3945   3.247   1.236  -0.077  0.2618 -0.6584 -0.7382
 1016SOL     OW 3946   3.580   4.320   1.773  0.1604  0.0332 -0.2542
 1016SOL    HW1 3947   3.623   4.315   1.683 -0.7217  0.3845 -0.7146
 1016SOL    HW2 3948   3.569   4.416   1.799  0.5766 -0.0705  0.3171
 1017SOL     OW 3949   2.674   2.697   0.604  0.2252 -0.6070  0.2688
 1017SOL    HW1 3950   2.649   2.637   0.527  0.5708 -0.7489  0.2657
 1017SOL    HW2 3951   2.697   2.642   0.683 -0.5707 -0.4501  0.6193
 1018SOL     OW 3952   1.288   3.500   3.358  0.1320  0.4884  0.1981
 1018SOL    HW1 3953   1.356   3.514   3.287  0.2509  0.1716  0.2477
 1018SOL    HW2 3954   1.327   3.447   3.433 -0.5429 -0.8961 -0.3872
 1019SOL     OW 3955   0.273   4.523   6.753  0.1544 -0.8266  0.1998
 1019SOL    HW1 3956   0.291   4.490   6.661 -0.0009  1.5310 -0.7343
 1019SOL    HW2 3957   0.311   4.615   6.764 -2.4075  0.1601  1.5131
 1020SOL     OW 3958   6.447   1.010   0.328  0.3214  0.3423 -0.6494
 1020SOL    HW1 3959   6.511   0.934   0.318  1.8776  1.3228  1.3014
 1020SOL    HW2 3960   6.389   0.993   0.408  0.2009  0.8795 -0.6225
 1021SOL     OW 3961   1.569   6.513   3.588 -0.0853 -0.0278  0.1950
 1021SOL    HW1 3962   1.511   6.592   3.572 -2.0571 -1.2934  0.7124
 1021SOL    HW2 3963   1.640   6.536   3.655 -1.1719  1.0698  1.0130
 1022SOL     OW 3964   3.940   6.042   6.670 -0.1778 -0.2333  0.6161
 1022SOL    HW1 3965   4.039   6.048   6.656 -0.2279  0.0597  0.3821
 1022SOL    HW2 3966   3.892   6.078   6.590 -0.4683  1.4860  1.5091
 1023SOL     OW 3967   1.219   2.603   3.502  0.0189  0.0339  0.3848
 1023SOL    HW1 3968   1.223   2.587   3.403 -1.8204 -0.4573  0.3464
 1023SOL    HW2 3969   1.288   2.547   3.547  0.1418 -0.5976 -0.5500
 1024SOL     OW 3970   1.162   1.377   5.138 -0.2151 -0.2007  0.2015
 1024SOL    HW1 3971   1.148   1.419   5.048 -0.4282 -1.0749 -0.1848
 1024SOL    HW2 3972   1.082   1.392   5.195 -0.4882 -0.4944 -0.1011
 1025SOL     OW 3973   4.898   2.956   0.451 -0.3496 -0.5371 -0.7903
 1025SOL    HW1 3974   4.849   3.043   0.443 -0.5372 -0.6915 -1.3955
 1025SOL    HW2 3975   4.944   2.936   0.364  1.5232  0.0248  0.0235
 1026SOL     OW 3976   3.660   1.784   1.982 -0.0600 -0.2310 -0.0549
 1026SOL    HW1 3977   3.583   1.730   2.016  0.8922 -1.6472 -0.0597
 1026SOL    HW2 3978   3.741   1.765   2.037  0.3645  1.0743 -0.1826
 1027SOL     OW 3979   1.543   1.041   0.665  0.4145 -0.2191  0.0064
 1027SOL    HW1 3980   1.478   1.076   0.598 -0.6977  0.4183  1.3785
 1027SOL    HW2 3981   1.534   0.942   0.673 -0.2373 -0.1626  0.0113
 1028SOL     OW 3982   1.475   5.484   3.660  0.1381  0.8586  0.3362
 1028SOL    HW1 3983   1.451   5.516   3.752 -0.0221  1.1016  0.2124
 1028SOL    HW2 3984   1.440   5.391   3.647  3.5567 -0.8114  1.9295
 1029SOL     OW 3985   1.355   2.114   6.131 -0.1224  0.8072 -0.6612
 1029SOL    HW1 3986   1.444   2.098   6.173  0.0546  1.3127 -0.8371
 1029SOL    HW2 3987   1.285   2.115   6.202  0.1100  1.1566 -0.4351
 1030SOL     OW 3988   4.610   2.466   1.177 -0.2660  0.0626  0.0545
 1030SOL    HW1 3989   4.563   2.387   1.215 -1.6598  1.0913  0.5743
 1030SOL    HW2 3990   4.685   2.436   1.119 -1.4253 -1.6417 -0.6317
 1031SOL     OW 3991   5.261   3.740   1.349  0.0627  0.4447 -0.1613
 1031SOL    HW1 3992   5.336   3.704   1.293 -0.3382 -1.1947  0.2822
 1031SOL    HW2 3993   5.267   3.839   1.354  2.1415  0.3652 -0.2397
 1032SOL     OW 3994   1.446   1.692   4.724 -0.0030  0.0357 -0.0614
 1032SOL    HW1 3995   1.532   1.738   4.745 -0.0249  0.9377 -1.8001
 1032SOL    HW2 3996   1.465   1.605   4.679  0.0085 -0.3821  0.7460
 1033SOL     OW 3997   0.392   5.895   1.580 -0.0933  0.0303 -0.5680
 1033SOL    HW1 3998   0.462   5.960   1.608 -2.3186  2.2884  0.2299
 1033SOL    HW2 3999   0.409   5.867   1.486  1.6967  0.7216 -0.4958
 1034SOL     OW 4000   1.471   1.065   3.970 -0.2340  0.2255 -0.2440
 1034SOL    HW1 4001   1.430   0.980   3.936 -1.1359  0.2720  0.6708
 1034SOL    HW2 4002   1.538   1.099   3.904 -0.3196 -0.8651 -0.9061
 1035SOL     OW 4003   6.517   2.418   0.460 -0.0860  0.7187 -0.1253
 1035SOL    HW1 4004   6.422   2.416   0.428 -0.5093  0.6871  1.0854
 1035SOL    HW2 4005   6.521   2.464   0.549  0.5369 -2.0154  1.3788
 1036SOL     OW 4006   3.801   1.268   3.218 -0.2123  0.1975 -0.1122
 1036SOL    HW1 4007   3.869   1.294   3.149  1.4396 -1.2145  0.9018
 1036SOL    HW2 4008   3.710   1.263   3.176  0.6326  0.0871 -2.0094
 1037SOL     OW 4009   0.763   2.621   1.949  0.5432 -0.5178 -0.4328
 1037SOL    HW1 4010   0.732   2.715   1.965  0.5098 -0.3862 -1.2490
 1037SOL    HW2 4011   0.684   2.563   1.929  0.7375 -0.3198 -1.8451
 1038SOL     OW 4012   0.334   0.487   0.399  0.1294 -0.2924  0.5908
 1038SOL    HW1 4013   0.310   0.583   0.381  2.0118  0.7519  3.1372
 1038SOL    HW2 4014   0.410   0.460   0.340  0.9038  0.4345  1.2485
 1039SOL     OW 4015   4.053   3.684   4.014  0.2912  0.6616  0.0513
 1039SOL    HW1 4016   4.123   3.737   4.060  1.0395 -0.1571 -0.1231
 1039SOL    HW2 4017   4.022   3.610   4.073  0.5996  0.1637 -0.3942
 1040SOL     OW 4018   4.498   0.742   2.833 -0.2482  0.1719  0.5027
 1040SOL    HW1 4019   4.442   0.792   2.898 -1.4646  0.7231 -0.9022
 1040SOL    HW2 4020   4.443   0.671   2.789  0.5569 -0.2286  0.1173
 1041SOL     OW 4021   6.449   0.106   4.112  0.1377  0.0351 -0.3964
 1041SOL    HW1 4022   6.484   0.012   4.118 -1.8008 -0.7407 -0.4389
 1041SOL    HW2 4023   6.493   0.162   4.182  0.9913 -1.0112 -0.0578
 1042SOL     OW 4024   4.202   4.851   2.018 -0.1558  0.4808 -0.5463
 1042SOL    HW1 4025   4.223   4.766   2.066 -0.5487 -1.2496 -3.2203
 1042SOL    HW2 4026   4.287   4.900   1.998  0.3320 -0.5918 -1.1716
 1043SOL     OW 4027   4.911   0.962   2.594  0.3739 -0.0241  0.2515
 1043SOL    HW1 4028   5.007   0.982   2.574  0.4706  0.1889  0.8992
 1043SOL    HW2 4029   4.880   1.020   2.670 -0.1338 -0.4153  0.3482
 1044SOL     OW 4030   5.597   5.354   1.522  0.2069  0.2171 -0.3191
 1044SOL    HW1 4031   5.594   5.348   1.622  1.4976  2.8037 -0.0578
 1044SOL    HW2 4032   5.679   5.308   1.489 -0.1340 -0.4941 -0.2029
 1045SOL     OW 4033   1.684   2.066   2.020 -0.5000  0.3238 -0.0514
 1045SOL    HW1 4034   1.687   1.990   2.085 -0.9806 -0.4935 -0.9548
 1045SOL    HW2 4035   1.589   2.093   2.005 -0.4398  0.1247 -0.8371
 1046SOL     OW 4036   2.362   1.945   0.455  0.4146 -0.1376  0.1086
 1046SOL    HW1 4037   2.442   1.975   0.403  0.0575  1.2279  0.3095
 1046SOL    HW2 4038   2.282   1.998   0.427 -0.3493 -1.2043  0.1980
 1047SOL     OW 4039   2.061   5.657   3.254  0.0481 -0.1894  0.2789
 1047SOL    HW1 4040   2.051   5.565   3.215 -0.9935 -0.7827  1.8716
 1047SOL    HW2 4041   1.996   5.669   3.329 -0.8166  2.3582 -0.7749
 1048SOL     OW 4042   1.691   4.921   2.501  0.1994 -0.1912 -0.0972
 1048SOL    HW1 4043   1.771   4.878   2.460 -0.4950  0.4016 -2.1989
 1048SOL    HW2 4044   1.639   4.969   2.431 -0.7205  1.4942  1.6397
 1049SOL     OW 4045   5.093   0.306   2.183 -0.7844  0.3991  0.0726
 1049SOL    HW1 4046   5.074   0.234   2.116 -1.5720  0.6707 -0.0153
 1049SOL    HW2 4047   5.026   0.302   2.257 -0.7969  0.9910  0.1033
 1050SOL     OW 4048   5.258   6.629   1.024  0.9359 -0.0764 -0.6325
 1050SOL    HW1 4049   5.175   6.608   1.075 -0.8238  1.9078 -2.4699
 1050SOL    HW2 4050   5.288   6.722   1.046  1.3520  0.0396 -1.6285
 1051SOL     OW 4051   0.897   6.556   0.177 -0.3530 -0.1031 -0.0309
 1051SOL    HW1 4052   0.967   6.579   0.109  0.0584 -2.8523 -0.6734
 1051SOL    HW2 4053   0.932   6.485   0.238 -2.0333 -0.3868  0.6589
 1052SOL     OW 4054   5.957   1.851   5.613 -0.1540  0.1329 -0.6750
 1052SOL    HW1 4055   5.883   1.849   5.546 -0.9268  4.2185 -0.1686
 1052SOL    HW2 4056   6.036   1.900   5.574  1.1604 -1.4024 -0.0854
 1053SOL     OW 4057   6.582   2.863   2.511  0.3475 -0.6231  0.8584
 1053SOL    HW1 4058   6.533   2.927   2.570 -0.1340 -1.4239  1.3466
 1053SOL    HW2 4059   6.524   2.783   2.493  0.6283 -0.5616 -0.4090
 1054SOL     OW 4060   3.604   4.029   1.598  0.2060 -0.5724  0.6888
 1054SOL    HW1 4061   3.689   4.047   1.647 -0.1934  0.5828  1.0000
 1054SOL    HW2 4062   3.534   4.093   1.630 -0.4624 -0.7642 -0.3604
 1055SOL     OW 4063   5.978   0.388   5.864  0.3454  0.1448  0.7111
 1055SOL    HW1 4064   6.059   0.448   5.866  0.8909 -0.5795  0.8032
 1055SOL    HW2 4065   6.001   0.303   5.816 -0.5668  0.2115  0.1416
 1056SOL     OW 4066   1.160   2.656   0.697 -0.0942  0.2518  0.4126
 1056SOL    HW1 4067   1.190   2.710   0.619 -0.3929  0.6623  0.5820
 1056SOL    HW2 4068   1.067   2.681   0.722 -1.1889 -2.0154 -1.0282
 1057SOL     OW 4069   3.928   1.528   1.592 -0.2634  0.7119 -0.3788
 1057SOL    HW1 4070   3.916   1.429   1.589  0.4304  0.4958  1.8846
 1057SOL    HW2 4071   3.875   1.566   1.668 -1.6974  2.3214 -2.0893
 1058SOL     OW 4072   3.597   2.022   4.610  0.5195 -0.3308 -0.1371
 1058SOL    HW1 4073   3.687   2.018   4.567  0.9981 -0.1731  0.8232
 1058SOL    HW2 4074   3.607   2.021   4.710 -0.5714 -0.9277 -0.0147
 1059SOL     OW 4075   1.131   6.366   1.619  0.0770  0.3193  0.0219
 1059SOL    HW1 4076   1.083   6.321   1.543 -1.6119  2.0282 -0.0152
 1059SOL    HW2 4077   1.225   6.334   1.623  0.0743 -0.2044 -2.4893
 1060SOL     OW 4078   6.051   4.774   3.027 -0.0115 -0.7031  0.1387
 1060SOL    HW1 4079   6.072   4.871   3.017 -1.0632 -0.4944 -0.1306
 1060SOL    HW2 4080   6.075   4.744   3.120  1.5131 -0.5142 -0.1682
 1061SOL     OW 4081   6.040   3.466   5.543  0.0344  0.1945 -0.4215
 1061SOL    HW1 4082   6.006   3.555   5.574 -2.4765 -0.0973 -2.0559
 1061SOL    HW2 4083   6.065   3.473   5.446 -0.6274 -0.9758 -0.6872
 1062SOL     OW 4084   4.348   5.779   5.432 -0.3695 -0.1129 -0.3984
 1062SOL    HW1 4085   4.345   5.762   5.334  0.1498  1.2708 -0.6906
 1062SOL    HW2 4086   4.291   5.859   5.454 -0.6811 -0.5568  0.4640
 1063SOL     OW 4087   0.417   6.542   0.305 -0.1336 -0.6027  0.2037
 1063SOL    HW1 4088   0.357   6.614   0.270 -0.9316 -0.9054  0.8948
 1063SOL    HW2 4089   0.365   6.456   0.311  0.7034 -1.1602 -0.2802
 1064SOL     OW 4090   0.173   5.470   0.199 -0.8200 -0.2428 -0.1348
 1064SOL    HW1 4091   0.208   5.509   0.114  1.8061  1.3090  1.5307
 1064SOL    HW2 4092   0.168   5.542   0.269 -1.8098 -1.7072  1.3802
 1065SOL     OW 4093   2.629   5.849   2.847  0.3894  0.2054  0.3457
 1065SOL    HW1 4094   2.678   5.931   2.817  0.2839  0.3986  0.6896
 1065SOL    HW2 4095   2.642   5.776   2.781 -0.1741  0.7441 -0.3756
 1066SOL     OW 4096   4.375   0.392   1.609  0.0528 -0.3670  0.0867
 1066SOL    HW1 4097   4.375   0.428   1.703  1.9147  0.3936 -0.1430
 1066SOL    HW2 4098   4.289   0.345   1.591 -0.7832  0.3900  1.8201
 1067SOL     OW 4099   1.685   0.762   0.855  0.5091  0.2143 -0.1946
 1067SOL    HW1 4100   1.668   0.765   0.953  1.1942 -0.0331 -0.0610
 1067SOL    HW2 4101   1.752   0.832   0.830  0.6370  0.0188 -0.4143
 1068SOL     OW 4102   6.325   3.628   6.992  0.5238  0.0823 -0.7159
 1068SOL    HW1 4103   6.371   3.702   6.942  1.7450 -1.5506 -2.0915
 1068SOL    HW2 4104   6.393   3.565   7.028 -0.5549 -1.9265 -2.0258
 1069SOL     OW 4105   6.817   5.520   0.905  0.1286 -0.2294 -0.2596
 1069SOL    HW1 4106   6.896   5.496   0.961  0.1716 -0.6585 -0.5010
 1069SOL    HW2 4107   6.848   5.561   0.819  0.0493  2.3356  0.8278
 1070SOL     OW 4108   1.284   0.690   2.808 -0.1672  0.2267  0.0706
 1070SOL    HW1 4109   1.313   0.714   2.901  2.3894  2.9754 -1.2842
 1070SOL    HW2 4110   1.353   0.633   2.765 -0.6542  0.1503 -0.6265
 1071SOL     OW 4111   1.305   3.895   4.316 -0.2676  0.1855  0.2643
 1071SOL    HW1 4112   1.254   3.895   4.229  1.0775 -1.1164 -0.5838
 1071SOL    HW2 4113   1.257   3.838   4.382 -0.7057  0.2156 -0.0212
 1072SOL     OW 4114   2.268   1.739   2.324  0.7698  0.1215  0.3670
 1072SOL    HW1 4115   2.305   1.766   2.236  0.2912 -0.5650 -0.0588
 1072SOL    HW2 4116   2.209   1.811   2.360 -1.3995 -0.7158 -1.2720
 1073SOL     OW 4117   5.173   0.412   2.559 -0.6166 -0.1179  0.2513
 1073SOL    HW1 4118   5.196   0.499   2.602  1.3573  0.4868 -1.8297
 1073SOL    HW2 4119   5.200   0.336   2.619 -0.9647  0.6569  1.4266
 1074SOL     OW 4120   2.777   3.452   1.224 -0.0482  0.3756 -0.0170
 1074SOL    HW1 4121   2.714   3.375   1.209 -0.0673  0.1144  1.3176
 1074SOL    HW2 4122   2.724   3.534   1.246  0.0505  0.2254  0.8089
 1075SOL     OW 4123   6.098   2.762   3.268 -0.2617 -0.2949 -0.1958
 1075SOL    HW1 4124   6.114   2.776   3.366  0.5335 -0.5392 -0.2806
 1075SOL    HW2 4125   6.016   2.707   3.255  0.7029 -1.9759  0.4257
 1076SOL     OW 4126   6.520   4.185   6.689 -0.6634 -0.1481  0.0692
 1076SOL    HW1 4127   6.501   4.089   6.666 -0.9606  0.1036 -0.7755
 1076SOL    HW2 4128   6.606   4.191   6.739 -0.4988 -0.8331 -0.1155
 1077SOL     OW 4129   1.486   6.637   0.557  0.3589 -0.1604  0.1386
 1077SOL    HW1 4130   1.576   6.598   0.574  1.2126  0.9302 -1.6726
 1077SOL    HW2 4131   1.452   6.679   0.642  2.5943  1.4425  0.3326
 1078SOL     OW 4132   5.273   5.857   3.091 -0.5585  0.1113 -0.3061
 1078SOL    HW1 4133   5.326   5.773   3.083  0.7870  0.8549  0.4317
 1078SOL    HW2 4134   5.181   5.842   3.055 -0.0736 -1.4126 -0.9909
 1079SOL     OW 4135   1.164   0.414   1.965  0.0860  0.7214  0.0659
 1079SOL    HW1 4136   1.076   0.429   2.011 -0.6402  0.1513 -1.0921
 1079SOL    HW2 4137   1.197   0.500   1.927  1.4856  1.5743  2.8787
 1080SOL     OW 4138   2.500   5.316   5.225  0.2835 -0.5249  0.2576
 1080SOL    HW1 4139   2.420   5.290   5.172 -0.8882  0.3686  1.5095
 1080SOL    HW2 4140   2.493   5.413   5.251  1.9409 -0.3345  0.1245
 1081SOL     OW 4141   6.804   0.033   5.665  0.4836  0.6499  0.1224
 1081SOL    HW1 4142   6.888   0.049   5.716  2.6029 -0.6751 -2.6624
 1081SOL    HW2 4143   6.817   0.058   5.569 -1.9999 -0.4944 -0.6217
 1082SOL     OW 4144   5.585   1.485   5.908  0.8590 -0.4048  0.4274
 1082SOL    HW1 4145   5.671   1.466   5.859 -0.1949 -1.7412 -1.0366
 1082SOL    HW2 4146   5.511   1.437   5.862 -0.9722  2.0165  0.6796
 1083SOL     OW 4147   4.619   1.289   6.483  0.4961 -0.1779 -0.0442
 1083SOL    HW1 4148   4.552   1.313   6.554  0.8119  0.4586  0.0427
 1083SOL    HW2 4149   4.670   1.208   6.512 -0.4546 -0.8723 -0.2566
 1084SOL     OW 4150   2.008   6.474   6.508 -1.0920 -0.1826 -0.3636
 1084SOL    HW1 4151   2.065   6.450   6.586 -1.9869 -0.2958  0.2652
 1084SOL    HW2 4152   1.912   6.460   6.531 -1.3617 -0.3629 -1.5327
 1085SOL     OW 4153   0.844   4.130   4.092  0.7660  0.3488  0.3664
 1085SOL    HW1 4154   0.792   4.044   4.086  0.8261  0.2925  0.6413
 1085SOL    HW2 4155   0.780   4.206   4.106  0.7591  0.2754  0.7369
 1086SOL     OW 4156   6.012   4.209   5.182  0.2942 -0.7479 -0.2749
 1086SOL    HW1 4157   5.921   4.175   5.158 -1.0801  0.0824  3.1392
 1086SOL    HW2 4158   6.031   4.293   5.131 -1.1601 -0.5629 -0.5352
 1087SOL     OW 4159   1.309   2.299   5.726  0.0719 -0.3113 -0.0418
 1087SOL    HW1 4160   1.262   2.212   5.739 -0.9272  0.4837  2.2131
 1087SOL    HW2 4161   1.284   2.337   5.637 -0.3129 -1.8081 -0.6008
 1088SOL     OW 4162   1.494   3.941   2.896  0.1863 -0.9663 -0.5101
 1088SOL    HW1 4163   1.501   3.901   2.805 -0.3083 -1.8256 -0.1813
 1088SOL    HW2 4164   1.585   3.971   2.926  0.1658  0.5287 -1.7869
 1089SOL     OW 4165   0.279   6.075   4.876 -0.0345 -0.3471 -0.4459
 1089SOL    HW1 4166   0.296   6.140   4.950  1.6740 -1.4475  0.1759
 1089SOL    HW2 4167   0.188   6.091   4.838 -0.6886  0.6711  1.4454
 1090SOL     OW 4168   4.809   0.996   2.342 -0.0978  0.4318 -0.0239
 1090SOL    HW1 4169   4.845   1.017   2.433  0.7758 -1.1179  0.0256
 1090SOL    HW2 4170   4.805   0.897   2.329 -2.6166  0.5378 -0.7561
 1091SOL     OW 4171   2.045   4.077   4.098  0.1268 -0.4472 -0.5046
 1091SOL    HW1 4172   2.085   3.996   4.057 -1.0695 -0.0124 -2.6594
 1091SOL    HW2 4173   1.947   4.080   4.078  0.2388  1.8181 -1.0178
 1092SOL     OW 4174   0.342   5.089   2.115 -0.0244  0.6936  0.4566
 1092SOL    HW1 4175   0.382   5.105   2.206 -0.8770 -0.0111  0.9767
 1092SOL    HW2 4176   0.243   5.099   2.121 -0.0200  1.5333 -0.6169
 1093SOL     OW 4177   2.659   0.741   1.450  0.2283  0.4118  0.2405
 1093SOL    HW1 4178   2.697   0.699   1.368 -0.0828  0.3164  0.1439
 1093SOL    HW2 4179   2.731   0.791   1.498  0.4745  0.2374  0.0583
 1094SOL     OW 4180   1.428   0.601   3.404  0.2898 -0.0551 -0.1528
 1094SOL    HW1 4181   1.500   0.636   3.344  0.9815 -1.2346 -0.0514
 1094SOL    HW2 4182   1.427   0.501   3.399 -0.4813 -0.1092  0.8609
 1095SOL     OW 4183   0.567   3.255   6.194 -0.0625  0.2854  0.2447
 1095SOL    HW1 4184   0.643   3.257   6.259  0.4406  0.5305 -0.3420
 1095SOL    HW2 4185   0.543   3.160   6.173  0.0408  0.2076  0.4818
 1096SOL     OW 4186   5.162   3.278   0.382  0.3227 -0.2672 -0.2766
 1096SOL    HW1 4187   5.166   3.311   0.288  0.2705  1.0149  0.1527
 1096SOL    HW2 4188   5.073   3.302   0.421 -0.0614 -1.7062 -0.2052
 1097SOL     OW 4189   1.663   5.158   1.929 -0.6470 -0.0541 -0.0420
 1097SOL    HW1 4190   1.597   5.083   1.937 -0.3138 -0.3972 -0.4911
 1097SOL    HW2 4191   1.740   5.130   1.872 -0.1857  0.4003  0.3447
 1098SOL     OW 4192   5.723   3.171   0.309  0.0483  0.0731  0.7831
 1098SOL    HW1 4193   5.692   3.077   0.327  0.8515 -0.4217 -0.2583
 1098SOL    HW2 4194   5.658   3.216   0.248 -0.0501 -0.0152  0.8226
 1099SOL     OW 4195   3.971   1.668   0.286 -0.6752  0.5886 -0.2056
 1099SOL    HW1 4196   3.947   1.761   0.315 -2.5945 -0.3651  1.4923
 1099SOL    HW2 4197   4.059   1.643   0.326 -0.3402  1.4999 -0.3349
 1100SOL     OW 4198   3.673   1.143   5.022  1.0539 -0.1658 -0.3514
 1100SOL    HW1 4199   3.766   1.124   4.990  1.5429 -0.5047  1.1868
 1100SOL    HW2 4200   3.675   1.217   5.088  0.0198  0.7537 -1.3073
 1101SOL     OW 4201   5.312   2.662   4.996  0.7420  0.1836  0.4630
 1101SOL    HW1 4202   5.409   2.664   4.973  0.9572  0.0218  1.3036
 1101SOL    HW2 4203   5.289   2.575   5.038  0.8013  1.1146  2.5578
 1102SOL     OW 4204   2.389   2.802   4.010  0.3172 -0.0165  0.3624
 1102SOL    HW1 4205   2.306   2.783   3.956 -0.2500 -2.1794  1.8546
 1102SOL    HW2 4206   2.370   2.876   4.074 -0.7288 -0.9641  1.1785
 1103SOL     OW 4207   2.716   2.320   0.529 -0.3402  0.6263  0.2269
 1103SOL    HW1 4208   2.763   2.232   0.531  1.0129  1.3254  2.1580
 1103SOL    HW2 4209   2.617   2.304   0.529 -0.1488 -0.9353  1.8290
 1104SOL     OW 4210   2.638   5.283   3.949 -0.0996 -0.0471  0.3611
 1104SOL    HW1 4211   2.650   5.184   3.949  0.8332  0.0552 -0.1296
 1104SOL    HW2 4212   2.617   5.314   3.856 -1.1490  0.1430  0.6440
 1105SOL     OW 4213   6.382   2.609   5.623 -0.0665 -0.0829  0.1015
 1105SOL    HW1 4214   6.353   2.705   5.628  0.8102  0.1504  1.3038
 1105SOL    HW2 4215   6.480   2.605   5.605  0.3860 -0.6540  2.3352
 1106SOL     OW 4216   0.691   0.799   0.070  0.2943  0.4806 -0.1785
 1106SOL    HW1 4217   0.635   0.881   0.084  0.1742  0.3999 -0.1859
 1106SOL    HW2 4218   0.726   0.767   0.158 -3.7642 -2.3968  0.6717
 1107SOL     OW 4219   0.714   1.490   0.180  0.2564  0.1048 -0.0738
 1107SOL    HW1 4220   0.731   1.583   0.213  2.9522 -0.0098 -0.9203
 1107SOL    HW2 4221   0.616   1.470   0.187  0.0080  1.8309  3.0551
 1108SOL     OW 4222   5.905   4.235   4.143  0.4238 -0.0079 -0.3692
 1108SOL    HW1 4223   5.939   4.314   4.091  1.1693 -1.6547 -2.5198
 1108SOL    HW2 4224   5.834   4.266   4.206  0.9433  2.4341 -0.8475
 1109SOL     OW 4225   5.078   2.630   5.892 -0.0970  0.3414 -0.4030
 1109SOL    HW1 4226   5.115   2.577   5.816  1.3890  0.5375  0.1566
 1109SOL    HW2 4227   4.992   2.589   5.923  1.5420 -2.4665  0.7524
 1110SOL     OW 4228   2.440   0.449   2.159  0.7981  0.3926 -0.2674
 1110SOL    HW1 4229   2.346   0.462   2.192  1.0506  1.7855 -0.0414
 1110SOL    HW2 4230   2.452   0.502   2.075  1.1340 -0.4880 -0.7825
 1111SOL     OW 4231   5.783   4.532   6.055  0.8005  0.3027 -0.0668
 1111SOL    HW1 4232   5.792   4.632   6.053 -1.0283  0.5191 -2.4909
 1111SOL    HW2 4233   5.859   4.491   6.005  1.6187  0.4237  1.0306
 1112SOL     OW 4234   6.109   1.709   4.542  0.0618  1.2062 -0.1549
 1112SOL    HW1 4235   6.175   1.634   4.541  0.6464  1.7147 -0.4447
 1112SOL    HW2 4236   6.134   1.776   4.472 -0.8924  1.2961 -0.4269
 1113SOL     OW 4237   6.435   4.062   1.370  0.1316 -0.0683  0.1905
 1113SOL    HW1 4238   6.439   4.161   1.361 -0.3009 -0.0679  0.0086
 1113SOL    HW2 4239   6.474   4.035   1.458  1.8603  0.1355 -0.4592
 1114SOL     OW 4240   1.874   2.015   5.868 -0.2927 -0.2557 -0.0401
 1114SOL    HW1 4241   1.922   2.039   5.952  2.1576  1.2577 -1.7366
 1114SOL    HW2 4242   1.842   2.098   5.823  0.4128 -0.8230 -1.6652
 1115SOL     OW 4243   3.702   3.739   4.219  0.1739  0.5374 -0.5948
 1115SOL    HW1 4244   3.786   3.794   4.221  1.5403 -1.2694 -2.6720
 1115SOL    HW2 4245   3.645   3.767   4.142 -1.0640  1.5490  0.6301
 1116SOL     OW 4246   6.410   6.789   5.445 -0.5953 -0.1065  0.0817
 1116SOL    HW1 4247   6.341   6.862   5.438 -0.7599 -0.0394  1.8867
 1116SOL    HW2 4248   6.370   6.703   5.415 -0.2530  0.5761 -2.5395
 1117SOL     OW 4249   1.307   4.392   2.725 -0.4100  0.2237 -0.4806
 1117SOL    HW1 4250   1.249   4.322   2.769 -0.8962  0.5852 -0.5354
 1117SOL    HW2 4251   1.266   4.419   2.638 -0.0830  0.3856 -0.5837
 1118SOL     OW 4252   3.406   5.215   0.048  0.7531  0.2710  0.5043
 1118SOL    HW1 4253   3.317   5.226   0.092 -0.1123 -1.1758 -0.7841
 1118SOL    HW2 4254   3.393   5.185  -0.046  2.6376 -1.2774  0.6864
 1119SOL     OW 4255   4.244   4.450   1.500 -0.4453 -0.0500  1.0026
 1119SOL    HW1 4256   4.185   4.456   1.581  1.0831  0.8576  2.1119
 1119SOL    HW2 4257   4.278   4.541   1.476 -1.9891 -0.0722 -1.6026
 1120SOL     OW 4258   3.385   0.739   2.932  0.1859  0.2794 -0.0668
 1120SOL    HW1 4259   3.381   0.643   2.960  1.4741  0.6323  1.4764
 1120SOL    HW2 4260   3.353   0.797   3.006 -2.6461  1.0372 -1.7188
 1121SOL     OW 4261   6.817   3.151   2.392  0.1031 -0.5860 -0.6263
 1121SOL    HW1 4262   6.913   3.172   2.412 -0.0935 -0.0594 -0.2162
 1121SOL    HW2 4263   6.807   3.053   2.376  0.9203 -0.4949 -1.8802
 1122SOL     OW 4264   6.508   3.547   1.164 -0.5747  0.2676 -0.4213
 1122SOL    HW1 4265   6.538   3.486   1.237  0.4879  0.4037 -0.7182
 1122SOL    HW2 4266   6.447   3.498   1.103 -0.3093 -0.2886 -0.2464
 1123SOL     OW 4267   4.332   2.337   4.788 -0.2589  0.5045  0.2574
 1123SOL    HW1 4268   4.284   2.355   4.874  0.3592 -1.5646  1.0917
 1123SOL    HW2 4269   4.389   2.416   4.765 -0.9854  1.3832  1.3461
 1124SOL     OW 4270   6.990   3.873   6.827  0.1283  0.0534  0.5963
 1124SOL    HW1 4271   7.061   3.890   6.895 -0.5873  0.8808  1.1554
 1124SOL    HW2 4272   6.959   3.778   6.834  0.3325  0.0266  1.1759
 1125SOL     OW 4273   1.784   4.088   4.371 -0.9333 -0.0501  0.2751
 1125SOL    HW1 4274   1.786   3.993   4.399 -1.3386 -0.3172 -0.5498
 1125SOL    HW2 4275   1.711   4.102   4.304 -1.0413  0.8909  0.5693
 1126SOL     OW 4276   6.661   4.831   5.207  0.7328 -0.0939  0.2233
 1126SOL    HW1 4277   6.746   4.884   5.202 -0.3012  1.5551 -0.6283
 1126SOL    HW2 4278   6.583   4.891   5.193 -0.6890 -1.3496  2.2799
 1127SOL     OW 4279   5.346   6.620   4.375 -0.5862  0.2296 -0.6691
 1127SOL    HW1 4280   5.381   6.527   4.362 -1.1832  0.0743 -1.2196
 1127SOL    HW2 4281   5.402   6.684   4.323  1.2417  0.5058  1.4894
 1128SOL     OW 4282   4.976   1.879   5.606  1.0316 -0.7976  0.0176
 1128SOL    HW1 4283   4.987   1.845   5.513  1.9355 -0.0134 -0.1789
 1128SOL    HW2 4284   5.062   1.918   5.638  0.3020  0.4726  0.5445
 1129SOL     OW 4285   2.834   5.464   0.873 -0.3813  0.3301  0.2658
 1129SOL    HW1 4286   2.899   5.534   0.901  0.6519 -0.9892  1.3579
 1129SOL    HW2 4287   2.859   5.428   0.784  0.4102 -0.1589  0.6746
 1130SOL     OW 4288   2.516   5.065   0.989  0.0696 -0.2507 -0.3229
 1130SOL    HW1 4289   2.449   5.093   0.920 -0.4222  0.9351  0.6012
 1130SOL    HW2 4290   2.547   4.972   0.969 -3.2005 -1.5969  0.2214
 1131SOL     OW 4291   2.752   0.171   6.087  0.1562 -0.2427  0.6828
 1131SOL    HW1 4292   2.820   0.174   6.013  0.0443  0.6810  0.6142
 1131SOL    HW2 4293   2.693   0.251   6.082 -1.9967 -1.7738 -0.2356
 1132SOL     OW 4294   4.806   0.704   3.580  0.2302  0.4907  0.1040
 1132SOL    HW1 4295   4.784   0.617   3.537  1.8771  0.5252 -0.9177
 1132SOL    HW2 4296   4.750   0.776   3.540 -1.2001 -0.0745  1.0127
 1133SOL     OW 4297   1.456   3.421   6.503  0.6242 -0.1547  0.5451
 1133SOL    HW1 4298   1.433   3.457   6.413 -0.1112  0.5033  0.9850
 1133SOL    HW2 4299   1.549   3.385   6.502  0.2688 -1.1066 -0.7606
 1134SOL     OW 4300   6.640   6.674   1.972 -0.6155 -0.3215 -0.2219
 1134SOL    HW1 4301   6.691   6.757   1.949 -1.4549  0.0016 -0.9355
 1134SOL    HW2 4302   6.671   6.641   2.061  0.1916  0.3821 -0.2212
 1135SOL     OW 4303   2.292   6.198   4.058  0.8455 -0.4959  0.3179
 1135SOL    HW1 4304   2.314   6.115   4.109  1.1289 -1.1380 -0.8144
 1135SOL    HW2 4305   2.199   6.228   4.081  0.3887 -1.6592  0.0539
 1136SOL     OW 4306   1.723   4.656   3.342 -0.4327  0.0219  0.0583
 1136SOL    HW1 4307   1.707   4.593   3.418  0.2482  0.4782  0.5877
 1136SOL    HW2 4308   1.637   4.702   3.319 -0.8727 -0.8540 -0.1384
 1137SOL     OW 4309   0.667   6.207   6.359  0.3082 -0.3455 -0.2886
 1137SOL    HW1 4310   0.648   6.158   6.275 -2.3635  0.4501 -0.2419
 1137SOL    HW2 4311   0.595   6.275   6.376  1.8206  0.9236  1.6094
 1138SOL     OW 4312   1.256   1.707   5.090 -0.0628  0.0807 -0.0709
 1138SOL    HW1 4313   1.271   1.666   5.180  1.9469  0.1794 -0.3270
 1138SOL    HW2 4314   1.234   1.636   5.023 -2.2603  0.0734  0.5868
 1139SOL     OW 4315   6.582   3.990   5.514  0.6617 -0.8422 -0.3303
 1139SOL    HW1 4316   6.559   4.022   5.422 -3.0739  0.6507  0.8912
 1139SOL    HW2 4317   6.555   3.895   5.524 -2.2059 -0.0866  0.0361
 1140SOL     OW 4318   1.237   1.498   2.316  0.5864  0.6396 -0.3227
 1140SOL    HW1 4319   1.287   1.527   2.234  0.8562 -2.3236 -1.3489
 1140SOL    HW2 4320   1.303   1.464   2.384  0.2217  1.1096  0.2738
 1141SOL     OW 4321   0.109   4.631   4.991  0.2508  0.3025 -0.2466
 1141SOL    HW1 4322   0.147   4.709   5.041  1.2129 -0.7237  0.6846
 1141SOL    HW2 4323   0.103   4.552   5.052 -1.1243 -0.2556 -1.0491
 1142SOL     OW 4324   3.393   0.979   3.803  0.2042  0.1122 -0.0191
 1142SOL    HW1 4325   3.376   1.000   3.707 -0.1455 -1.5980 -0.3666
 1142SOL    HW2 4326   3.442   1.055   3.845  2.4992 -0.0113 -2.1589
 1143SOL     OW 4327   0.833   3.323   3.029 -0.1073  0.1339 -0.6457
 1143SOL    HW1 4328   0.860   3.314   3.125  3.5372 -0.6541 -1.5569
 1143SOL    HW2 4329   0.881   3.401   2.988 -1.6429  0.4938 -1.8337
 1144SOL     OW 4330   5.449   4.739   3.088 -0.0897  0.6094 -0.0088
 1144SOL    HW1 4331   5.390   4.741   3.007  1.6802 -0.9791 -1.4344
 1144SOL    HW2 4332   5.413   4.803   3.156 -2.0598  1.4863 -1.7273
 1145SOL     OW 4333   0.219   3.592   6.427 -0.5241 -0.9358 -0.3814
 1145SOL    HW1 4334   0.282   3.560   6.357 -0.3081  0.0016 -0.6257
 1145SOL    HW2 4335   0.130   3.548   6.415 -0.7219 -0.2061 -1.7263
 1146SOL     OW 4336   0.718   2.787   1.627  0.2723 -0.2520 -0.4332
 1146SOL    HW1 4337   0.739   2.711   1.566  0.5926 -0.1624 -0.4358
 1146SOL    HW2 4338   0.756   2.872   1.589 -0.1546 -0.0747 -0.4734
 1147SOL     OW 4339   5.761   5.644   0.111 -0.2683 -0.2154  0.0214
 1147SOL    HW1 4340   5.707   5.587   0.173  0.4689 -2.1695 -1.0541
 1147SOL    HW2 4341   5.830   5.694   0.164  0.5532 -2.0821  0.8032
 1148SOL     OW 4342   4.669   6.295   2.184  0.0182 -0.5100  0.2948
 1148SOL    HW1 4343   4.750   6.266   2.133 -0.3780 -1.0447 -0.0349
 1148SOL    HW2 4344   4.695   6.365   2.251  0.7985 -0.8720  0.3790
 1149SOL     OW 4345   6.907   2.310   0.177 -0.0248 -0.3757 -0.3071
 1149SOL    HW1 4346   6.814   2.276   0.169  0.6387 -2.0962 -1.3110
 1149SOL    HW2 4347   6.932   2.319   0.273 -1.1366 -0.1175 -0.0343
 1150SOL     OW 4348   0.037   5.896   6.550 -0.0382  0.1407  0.7488
 1150SOL    HW1 4349   0.017   5.925   6.643  0.1301 -2.1562  1.5621
 1150SOL    HW2 4350   0.091   5.966   6.504  0.6802  0.9094  2.6864
 1151SOL     OW 4351   5.947   4.804   4.553  0.3932 -0.1777  0.6850
 1151SOL    HW1 4352   6.025   4.863   4.574  0.5845 -0.4950  0.8720
 1151SOL    HW2 4353   5.952   4.720   4.607 -1.6356  1.0452  2.9603
 1152SOL     OW 4354   4.997   4.993   6.416 -0.1212  0.2283  0.1965
 1152SOL    HW1 4355   5.014   4.935   6.496  1.3089 -0.7416 -0.7564
 1152SOL    HW2 4356   5.065   5.066   6.412 -1.1196  1.2101  0.6726
 1153SOL     OW 4357   6.549   1.824   1.881  0.4836 -0.1877  0.1446
 1153SOL    HW1 4358   6.492   1.776   1.814 -0.3520  0.5128  0.3264
 1153SOL    HW2 4359   6.579   1.911   1.842 -0.5569  0.5320  0.8777
 1154SOL     OW 4360   0.370   4.123   1.165  0.1725  0.0074  0.4079
 1154SOL    HW1 4361   0.291   4.063   1.150  1.5096 -2.0646  1.1963
 1154SOL    HW2 4362   0.420   4.135   1.079 -0.1805  0.1129  0.2174
 1155SOL     OW 4363   2.037   5.283   4.717  0.2437 -0.1331  0.5386
 1155SOL    HW1 4364   2.056   5.380   4.702  2.1756 -0.6292 -0.4412
 1155SOL    HW2 4365   1.941   5.264   4.693 -0.3860  1.6476  1.4945
 1156SOL     OW 4366   4.816   1.003   5.067 -0.4388 -0.0602 -0.4164
 1156SOL    HW1 4367   4.748   1.012   4.994 -0.6790 -1.5658 -0.4140
 1156SOL    HW2 4368   4.870   0.920   5.052  0.4314  0.3455  0.3749
 1157SOL     OW 4369   5.931   6.353   5.949 -0.4706 -0.0542 -0.3630
 1157SOL    HW1 4370   5.992   6.409   5.893  1.0076  1.0107  2.1557
 1157SOL    HW2 4371   5.922   6.393   6.040 -1.9702 -2.2154  0.5441
 1158SOL     OW 4372   0.632   4.964   4.235 -0.2306  0.8626  0.3076
 1158SOL    HW1 4373   0.589   4.883   4.274  0.6407  1.1535  1.9886
 1158SOL    HW2 4374   0.688   4.938   4.156 -0.5169 -0.0698  0.4088
 1159SOL     OW 4375   6.557   0.922   4.059  0.0572  0.6761 -0.1955
 1159SOL    HW1 4376   6.520   1.014   4.046 -0.4539  0.3264 -1.4303
 1159SOL    HW2 4377   6.629   0.905   3.993 -0.0683  0.0809 -0.1873
 1160SOL     OW 4378   1.667   6.045   2.113  0.1574  0.0012  0.1620
 1160SOL    HW1 4379   1.691   5.995   2.196  0.8314 -0.7175 -0.4585
 1160SOL    HW2 4380   1.683   5.988   2.033 -1.4336  0.3206 -0.4309
 1161SOL     OW 4381   4.853   5.660   6.412 -0.3509 -0.1797  0.4618
 1161SOL    HW1 4382   4.794   5.674   6.332 -3.8334  0.9414  2.9508
 1161SOL    HW2 4383   4.858   5.562   6.432 -0.5999 -0.3714 -0.3593
 1162SOL     OW 4384   2.194   1.014   0.247 -0.4483 -0.1526  0.4973
 1162SOL    HW1 4385   2.217   1.104   0.210  0.7010 -0.8453 -0.5413
 1162SOL    HW2 4386   2.138   1.026   0.329  0.2439  1.5267  0.7810
 1163SOL     OW 4387   5.885   5.737   2.635  0.3014  0.3177  0.1059
 1163SOL    HW1 4388   5.973   5.765   2.673  0.3393  0.0614  0.2078
 1163SOL    HW2 4389   5.896   5.713   2.538  0.2587  0.6974  0.0045
 1164SOL     OW 4390   6.243   2.514   0.472  0.2284  0.1111  0.8543
 1164SOL    HW1 4391   6.251   2.608   0.440  1.5682 -0.2136  0.1363
 1164SOL    HW2 4392   6.152   2.479   0.450  0.5026  0.4959 -1.0651
 1165SOL     OW 4393   4.750   5.950   1.618  0.2529 -0.2812  0.0486
 1165SOL    HW1 4394   4.714   5.858   1.601  1.8831 -0.5134 -2.8844
 1165SOL    HW2 4395   4.850   5.945   1.622  0.5690  1.6242 -2.9256
 1166SOL     OW 4396   1.974   6.283   0.591 -0.1529 -0.1860  0.1419
 1166SOL    HW1 4397   1.985   6.379   0.566  1.2485 -0.5729 -0.8511
 1166SOL    HW2 4398   2.027   6.264   0.673  1.3277 -0.5340 -0.8402
 1167SOL     OW 4399   7.018   5.333   1.746  0.1162  0.2074  0.5965
 1167SOL    HW1 4400   6.926   5.352   1.782  0.4307  2.2476  0.4261
 1167SOL    HW2 4401   7.064   5.268   1.806 -1.3860 -0.7932  0.7401
 1168SOL     OW 4402   5.928   2.910   1.922  0.0713 -0.4542 -0.1195
 1168SOL    HW1 4403   5.974   2.877   1.839  1.0210 -0.2063  0.2985
 1168SOL    HW2 4404   5.960   3.003   1.942 -0.2952 -0.4465  0.4285
 1169SOL     OW 4405   0.431   0.244   5.860 -0.6235 -0.4494  0.1267
 1169SOL    HW1 4406   0.493   0.184   5.910  2.2621  2.0113 -0.2365
 1169SOL    HW2 4407   0.369   0.288   5.925 -0.7813 -1.5435  0.7499
 1170SOL     OW 4408   5.043   0.108   2.002  0.3077  0.1035 -0.1294
 1170SOL    HW1 4409   5.116   0.150   1.949  1.2571  0.3557  1.3219
 1170SOL    HW2 4410   5.058   0.010   2.007  0.7366  0.1868  0.4013
 1171SOL     OW 4411   2.957   0.129   0.009  0.0061  0.0697 -0.3026
 1171SOL    HW1 4412   2.865   0.154  -0.020  0.1327  0.0822 -0.6941
 1171SOL    HW2 4413   2.965   0.141   0.108 -1.0483 -1.8284  0.0652
 1172SOL     OW 4414   5.337   3.416   2.155  0.3074  0.3147  0.0245
 1172SOL    HW1 4415   5.285   3.373   2.081  1.8269 -0.9928 -0.3428
 1172SOL    HW2 4416   5.330   3.360   2.238  0.2342  0.7072  0.2841
 1173SOL     OW 4417   2.848   1.844   3.589  0.0620 -0.3006  0.7462
 1173SOL    HW1 4418   2.944   1.821   3.600  0.7825  0.5886 -2.6387
 1173SOL    HW2 4419   2.798   1.764   3.554  0.4065  0.1975 -0.9998
 1174SOL     OW 4420   3.260   4.436   1.127 -0.6364  0.1470 -0.2006
 1174SOL    HW1 4421   3.212   4.513   1.169 -1.0469 -0.0370 -0.3226
 1174SOL    HW2 4422   3.274   4.455   1.030 -0.2272  0.3124 -0.1112
 1175SOL     OW 4423   4.486   3.498   6.255 -0.2172  0.4937 -0.7059
 1175SOL    HW1 4424   4.387   3.512   6.261 -0.4730 -0.2227 -2.4800
 1175SOL    HW2 4425   4.533   3.586   6.266 -0.9521  0.6946  1.1850
 1176SOL     OW 4426   5.023   2.893   6.872  0.3509 -0.1196  0.0237
 1176SOL    HW1 4427   4.991   2.987   6.882  3.5815  1.0385  0.7780
 1176SOL    HW2 4428   5.038   2.873   6.775 -1.4936 -0.3428 -0.2480
 1177SOL     OW 4429   5.154   4.221   5.138  0.0237 -0.0143  0.1017
 1177SOL    HW1 4430   5.093   4.285   5.183  0.8573  1.0396 -0.2287
 1177SOL    HW2 4431   5.242   4.218   5.186  1.1758  1.6475 -1.7395
 1178SOL     OW 4432   3.730   2.009   1.827  0.5183 -0.1074  0.1305
 1178SOL    HW1 4433   3.677   1.940   1.877  1.2197 -0.4458  0.4107
 1178SOL    HW2 4434   3.732   2.093   1.880 -0.1705  0.0806 -0.1207
 1179SOL     OW 4435   1.828   5.653   2.128 -0.0278 -0.0353  0.1864
 1179SOL    HW1 4436   1.884   5.729   2.161  0.5227 -0.6577  0.7132
 1179SOL    HW2 4437   1.733   5.667   2.157 -0.4435  1.6561 -1.7617
 1180SOL     OW 4438   1.728   6.653   1.218 -0.3606  0.0835 -0.5024
 1180SOL    HW1 4439   1.822   6.628   1.239 -0.4856  1.2321  1.8153
 1180SOL    HW2 4440   1.666   6.602   1.278 -0.9109  2.0646  0.7323
 1181SOL     OW 4441   6.645   6.150   0.273 -0.1338  0.2785 -0.1983
 1181SOL    HW1 4442   6.727   6.192   0.311 -1.2054 -1.2826  4.5439
 1181SOL    HW2 4443   6.668   6.061   0.234  0.7781  1.1813 -1.8187
 1182SOL     OW 4444   2.300   4.450   3.531 -0.7119 -0.7117  0.5052
 1182SOL    HW1 4445   2.299   4.370   3.591  0.8825  0.7872  2.7193
 1182SOL    HW2 4446   2.387   4.453   3.481  1.0398  1.4402  3.3326
 1183SOL     OW 4447   2.997   3.722   6.336 -0.1211  0.5306 -0.0212
 1183SOL    HW1 4448   3.046   3.767   6.410 -1.8573  1.7194  0.4742
 1183SOL    HW2 4449   2.903   3.702   6.366 -1.3845  2.4855 -2.3461
 1184SOL     OW 4450   5.975   2.808   4.554 -0.1173  0.0393 -0.0908
 1184SOL    HW1 4451   6.034   2.728   4.566 -0.3478 -0.7465 -3.3770
 1184SOL    HW2 4452   6.012   2.865   4.481 -2.7068  0.1702 -1.4024
 1185SOL     OW 4453   5.767   1.440   0.854  0.1681  0.3968 -0.3446
 1185SOL    HW1 4454   5.767   1.380   0.934 -0.0774 -0.3245 -0.8718
 1185SOL    HW2 4455   5.769   1.535   0.884 -0.9943  0.1648  0.5349
 1186SOL     OW 4456   6.480   6.625   4.765  0.2283  0.2438 -0.4604
 1186SOL    HW1 4457   6.526   6.542   4.736  1.6816  1.0021 -0.4285
 1186SOL    HW2 4458   6.483   6.693   4.691  1.3013  1.1308  0.3635
 1187SOL     OW 4459   6.486   5.820   1.051 -0.5161  0.1946  0.9027
 1187SOL    HW1 4460   6.400   5.828   0.999 -0.2787 -0.7584  0.3431
 1187SOL    HW2 4461   6.514   5.910   1.082 -1.1373  0.6665  0.1337
 1188SOL     OW 4462   3.424   6.345   4.572  0.2110 -0.5267  0.0793
 1188SOL    HW1 4463   3.387   6.351   4.479 -2.1205 -0.4138  0.9339
 1188SOL    HW2 4464   3.426   6.436   4.613 -3.1120 -0.9846  1.5977
 1189SOL     OW 4465   1.031   2.050   1.252  0.4559  0.3212 -0.1144
 1189SOL    HW1 4466   1.103   2.002   1.203  1.6162  2.3154 -0.4722
 1189SOL    HW2 4467   1.060   2.065   1.347  1.3874  2.6774 -0.6974
 1190SOL     OW 4468   1.760   4.255   4.738  0.5821 -0.2854 -0.2395
 1190SOL    HW1 4469   1.854   4.237   4.766  0.6483 -0.2552 -0.4389
 1190SOL    HW2 4470   1.742   4.210   4.650  0.3177 -0.5449 -0.0532
 1191SOL     OW 4471   3.068   5.487   3.169  0.1940  0.0676 -0.2308
 1191SOL    HW1 4472   2.978   5.502   3.128 -0.4865 -1.5523  0.5624
 1191SOL    HW2 4473   3.112   5.408   3.126  0.0982 -0.7423  1.0974
 1192SOL     OW 4474   2.577   5.382   3.722 -0.1488  0.5868 -0.1645
 1192SOL    HW1 4475   2.594   5.317   3.649 -2.7763 -0.1367 -0.2161
 1192SOL    HW2 4476   2.564   5.474   3.683 -1.2884  0.2479 -0.6393
 1193SOL     OW 4477   6.471   3.648   1.972  0.1802 -0.0680 -0.2097
 1193SOL    HW1 4478   6.384   3.666   2.019 -0.3534 -0.3349 -1.0710
 1193SOL    HW2 4479   6.511   3.563   2.006 -1.1628 -1.2897 -1.5452
 1194SOL     OW 4480   6.239   6.425   3.064  0.0514 -0.1881  0.4455
 1194SOL    HW1 4481   6.179   6.346   3.054 -0.2109  0.0385  0.2325
 1194SOL    HW2 4482   6.316   6.416   3.000 -2.0093  1.6226 -2.5076
 1195SOL     OW 4483   0.356   4.493   0.770  0.9776  0.1769 -0.1893
 1195SOL    HW1 4484   0.319   4.586   0.780 -0.1779 -0.4032  1.1827
 1195SOL    HW2 4485   0.338   4.461   0.677 -3.0050 -0.4132  0.6135
 1196SOL     OW 4486   2.504   5.665   4.422 -0.1297  0.6754 -0.0009
 1196SOL    HW1 4487   2.479   5.583   4.370  1.9953 -0.4704  0.6335
 1196SOL    HW2 4488   2.527   5.639   4.515 -0.1130  2.1187  0.4184
 1197SOL     OW 4489   4.331   2.160   5.628  0.0598  0.4029 -0.4894
 1197SOL    HW1 4490   4.361   2.090   5.693 -0.9015 -0.0598 -0.5186
 1197SOL    HW2 4491   4.400   2.231   5.621  1.6191 -1.1397 -1.3854
 1198SOL     OW 4492   0.669   4.067   3.640  0.4175  0.2926 -0.3366
 1198SOL    HW1 4493   0.674   3.968   3.653 -1.6324  0.2728  0.6574
 1198SOL    HW2 4494   0.744   4.111   3.691  0.6838 -0.6735  0.1247
 1199SOL     OW 4495   4.454   5.291   0.473  0.4090 -0.2704  0.4404
 1199SOL    HW1 4496   4.542   5.324   0.439  0.3659 -1.5052 -0.9482
 1199SOL    HW2 4497   4.457   5.192   0.482 -1.8021 -0.7519 -2.6885
 1200SOL     OW 4498   2.930   3.431   3.496 -0.5084  0.1320 -0.1437
 1200SOL    HW1 4499   2.921   3.506   3.430  0.6180  0.7874  0.4173
 1200SOL    HW2 4500   2.878   3.453   3.579 -0.1952  0.3000  0.0126
 1201SOL     OW 4501   1.343   1.682   4.418  0.1024  0.1054  0.4699
 1201SOL    HW1 4502   1.340   1.736   4.502 -0.3008  0.6942  0.0860
 1201SOL    HW2 4503   1.372   1.740   4.342 -0.2776 -0.2255  0.0627
 1202SOL     OW 4504   1.552   5.560   4.458 -0.1098 -0.5399 -0.9062
 1202SOL    HW1 4505   1.455   5.566   4.480  0.2845 -0.3670  0.9775
 1202SOL    HW2 4506   1.595   5.650   4.469  0.3238 -0.6683 -1.4722
 1203SOL     OW 4507   0.067   0.469   3.018  0.1382 -0.0875 -0.1429
 1203SOL    HW1 4508  -0.002   0.399   3.000  0.4907 -0.7454  0.9026
 1203SOL    HW2 4509   0.122   0.485   2.936 -1.9571  1.2902 -1.3503
 1204SOL     OW 4510   2.289   4.458   2.723 -0.3207 -0.4015  0.2147
 1204SOL    HW1 4511   2.207   4.508   2.698  1.2857  0.7953 -3.1477
 1204SOL    HW2 4512   2.320   4.402   2.646  2.7315  0.2116  0.8589
 1205SOL     OW 4513   6.191   2.102   0.605 -0.3201 -0.1713  0.2284
 1205SOL    HW1 4514   6.095   2.127   0.598 -0.2149  0.1129 -0.2543
 1205SOL    HW2 4515   6.235   2.155   0.677 -0.6839 -0.8096  0.9342
 1206SOL     OW 4516   4.834   3.040   6.688 -0.6878 -0.0441 -0.5341
 1206SOL    HW1 4517   4.805   2.946   6.675  1.0978 -0.4517 -1.9162
 1206SOL    HW2 4518   4.766   3.102   6.647 -0.9012 -0.8207 -1.3697
 1207SOL     OW 4519   0.185   6.907   1.062  0.0760 -0.2579 -0.2595
 1207SOL    HW1 4520   0.190   6.815   1.023  0.2702 -0.2180 -0.3340
 1207SOL    HW2 4521   0.189   6.901   1.162 -0.5844 -0.3692 -0.2409
 1208SOL     OW 4522   1.074   4.153   6.423 -0.3125 -0.1155 -0.7348
 1208SOL    HW1 4523   1.006   4.226   6.412  1.2792  1.4592 -0.5215
 1208SOL    HW2 4524   1.087   4.108   6.335 -0.4104  0.7027 -1.1855
 1209SOL     OW 4525   4.069   0.706   5.702 -0.6725 -0.1621 -0.7506
 1209SOL    HW1 4526   4.102   0.787   5.751  0.3970 -0.2375 -1.3004
 1209SOL    HW2 4527   4.014   0.735   5.623 -1.2995 -0.0098 -0.2615
 1210SOL     OW 4528   2.850   1.005   4.326 -0.1446 -0.2522  0.7140
 1210SOL    HW1 4529   2.773   1.021   4.388  0.4159 -0.2460  1.4136
 1210SOL    HW2 4530   2.814   0.977   4.237 -1.0628  2.2227  0.2185
 1211SOL     OW 4531   0.099   5.454   3.036 -0.1642  0.1419  0.5493
 1211SOL    HW1 4532   0.086   5.357   3.016  1.2361 -0.2075  1.2693
 1211SOL    HW2 4533   0.093   5.506   2.950 -2.4054 -0.3592  0.3207
 1212SOL     OW 4534   4.499   0.942   5.407  0.2054  0.5799  0.2660
 1212SOL    HW1 4535   4.544   0.888   5.336 -0.0983  1.1571 -0.3738
 1212SOL    HW2 4536   4.405   0.961   5.381  0.5439  2.1518  0.0531
 1213SOL     OW 4537   1.344   2.700   6.921 -0.1027  0.3185  0.0645
 1213SOL    HW1 4538   1.254   2.659   6.907 -0.4650  0.9662  0.4277
 1213SOL    HW2 4539   1.373   2.686   7.015  1.7241 -2.8452 -0.8414
 1214SOL     OW 4540   1.411   3.910   6.928  0.0231  0.7519  0.5401
 1214SOL    HW1 4541   1.426   3.812   6.916 -1.0241  0.7079 -0.5735
 1214SOL    HW2 4542   1.376   3.926   7.020 -0.1256  0.0335  0.6189
 1215SOL     OW 4543   0.908   4.453   4.010 -0.1778  0.1216  0.0409
 1215SOL    HW1 4544   0.844   4.404   4.068 -0.2919 -1.1780 -1.1249
 1215SOL    HW2 4545   0.987   4.482   4.064 -0.1446 -1.2987  0.7952
 1216SOL     OW 4546   4.255   6.040   2.893  0.0437 -0.1068  0.2911
 1216SOL    HW1 4547   4.170   6.091   2.882 -0.4315 -0.4595  2.0242
 1216SOL    HW2 4548   4.325   6.099   2.931  1.0157  0.5196 -2.2460
 1217SOL     OW 4549   1.896   3.063   6.357 -0.5104  0.0602  0.0653
 1217SOL    HW1 4550   1.973   3.115   6.393 -0.5003 -0.9222  1.5821
 1217SOL    HW2 4551   1.926   2.970   6.334 -0.4783  0.6832 -2.7860
 1218SOL     OW 4552   0.577   5.126   4.746  0.1500  0.2474  0.0309
 1218SOL    HW1 4553   0.568   5.224   4.730 -2.5621  0.2109  0.8758
 1218SOL    HW2 4554   0.571   5.078   4.659  2.5284  0.8114 -0.5154
 1219SOL     OW 4555   6.890   4.118   1.991  0.0827 -0.4123  0.5228
 1219SOL    HW1 4556   6.873   4.043   2.055  1.9202 -0.1327  1.4060
 1219SOL    HW2 4557   6.960   4.090   1.925 -0.2518  0.0529 -0.0450
 1220SOL     OW 4558   1.342   5.274   4.221  0.3086 -0.8376 -0.1288
 1220SOL    HW1 4559   1.427   5.249   4.175  0.5352  1.1074 -0.8602
 1220SOL    HW2 4560   1.308   5.195   4.272  2.6021 -1.6414  0.2988
 1221SOL     OW 4561   5.725   2.860   6.973  0.7475 -0.3339 -0.2691
 1221SOL    HW1 4562   5.787   2.872   7.051 -0.2395 -0.4569  0.5623
 1221SOL    HW2 4563   5.697   2.764   6.967 -2.9275  0.3650  2.2756
 1222SOL     OW 4564   6.819   0.003   6.426 -0.1883  0.1947  0.7643
 1222SOL    HW1 4565   6.892   0.069   6.442 -0.3324  0.7259 -0.6375
 1222SOL    HW2 4566   6.846  -0.061   6.355 -0.8303 -0.0253  0.7105
 1223SOL     OW 4567   3.258   0.062   0.501  0.2170  0.7865  0.6794
 1223SOL    HW1 4568   3.346   0.024   0.473 -0.8395 -0.6703 -0.8737
 1223SOL    HW2 4569   3.222   0.010   0.578 -0.2312 -0.0288 -0.0586
 1224SOL     OW 4570   3.514   6.676   5.579  0.0642  0.6673  0.4256
 1224SOL    HW1 4571   3.528   6.706   5.673 -0.2099 -0.6253  0.8996
 1224SOL    HW2 4572   3.423   6.704   5.549 -0.0499  0.6272  0.7294
 1225SOL     OW 4573   1.394   3.203   5.070  0.0786 -0.2350  0.0496
 1225SOL    HW1 4574   1.408   3.287   5.018 -0.7256 -0.7683 -1.0693
 1225SOL    HW2 4575   1.328   3.220   5.144 -0.5742 -0.0264 -0.5700
 1226SOL     OW 4576   2.450   4.604   1.423  0.0534 -0.3593 -0.2486
 1226SOL    HW1 4577   2.511   4.616   1.502 -1.6656  1.0551  0.9547
 1226SOL    HW2 4578   2.499   4.559   1.349  2.5166  0.6286  0.6808
 1227SOL     OW 4579   6.612   3.397   6.838  0.2873  0.1477  0.1249
 1227SOL    HW1 4580   6.696   3.450   6.827  0.3480 -0.3580 -2.4121
 1227SOL    HW2 4581   6.627   3.304   6.804 -0.7907 -0.5219  1.3952
 1228SOL     OW 4582   3.278   2.289   1.345 -0.5542 -0.3948  0.1678
 1228SOL    HW1 4583   3.205   2.252   1.403 -1.9841  0.7897 -0.7894
 1228SOL    HW2 4584   3.279   2.240   1.258  0.1505 -0.7544  0.3780
 1229SOL     OW 4585   3.717   4.536   6.979  0.2692 -0.1947  0.0981
 1229SOL    HW1 4586   3.655   4.518   6.902  0.0032  1.5515 -0.1319
 1229SOL    HW2 4587   3.761   4.625   6.966  0.0459  0.2416  2.0831
 1230SOL     OW 4588   3.971   6.852   2.600 -0.2589  1.0347  0.1378
 1230SOL    HW1 4589   3.903   6.810   2.659  0.3100  1.2700  0.9808
 1230SOL    HW2 4590   4.052   6.876   2.654  0.1835  1.4655 -0.6938
 1231SOL     OW 4591   0.287   5.725   4.897 -0.0290  0.2587 -0.1439
 1231SOL    HW1 4592   0.286   5.816   4.939  0.5489 -0.3969  1.3264
 1231SOL    HW2 4593   0.248   5.658   4.959  2.2607 -1.0033  0.0468
 1232SOL     OW 4594   0.420   4.233   5.214 -0.2969 -0.1956 -0.0002
 1232SOL    HW1 4595   0.413   4.328   5.183  0.9731  0.2198  0.9267
 1232SOL    HW2 4596   0.513   4.199   5.200 -0.6565 -1.2178 -0.0421
 1233SOL     OW 4597   6.924   5.012   4.138 -0.6647  0.1310 -0.1361
 1233SOL    HW1 4598   6.959   4.956   4.063  0.1347  0.8489 -0.3146
 1233SOL    HW2 4599   6.933   4.962   4.224 -1.5004 -0.6591 -0.4884
 1234SOL     OW 4600   5.144   4.035   6.247  0.1498  0.3978  0.6886
 1234SOL    HW1 4601   5.073   4.004   6.184 -0.8255 -0.2106  2.0218
 1234SOL    HW2 4602   5.217   3.968   6.251  1.1764  1.3404 -1.1985
 1235SOL     OW 4603   6.276   6.121   2.333 -0.4222  0.0681 -0.8091
 1235SOL    HW1 4604   6.263   6.207   2.382 -2.0356 -0.1494 -0.8022
 1235SOL    HW2 4605   6.192   6.067   2.337  0.9570 -2.1765  0.4617
 1236SOL     OW 4606   3.655   0.000   3.375  0.0256  0.1052 -0.0844
 1236SOL    HW1 4607   3.587   0.009   3.448 -0.6981  0.7766 -0.8265
 1236SOL    HW2 4608   3.733   0.060   3.396 -0.7979  1.3886 -0.5206
 1237SOL     OW 4609   3.211   4.625   6.718  0.0124  0.3242  0.0747
 1237SOL    HW1 4610   3.143   4.576   6.773 -0.6646  1.1791  0.0379
 1237SOL    HW2 4611   3.239   4.708   6.766  2.4060 -0.8953  0.9002
 1238SOL     OW 4612   3.927   1.670   0.024 -0.1196 -0.1057  0.0716
 1238SOL    HW1 4613   3.967   1.661   0.115 -1.0935 -2.8629  0.3165
 1238SOL    HW2 4614   3.996   1.649  -0.045  0.2646  0.6971  0.1906
 1239SOL     OW 4615   0.291   4.677   6.989  0.1137  0.4039  0.2989
 1239SOL    HW1 4616   0.271   4.773   7.009  0.2569  0.2744  1.0656
 1239SOL    HW2 4617   0.214   4.637   6.939 -0.6048  0.5027  1.3089
 1240SOL     OW 4618   5.283   6.224   2.973 -0.1607  0.2870 -0.2594
 1240SOL    HW1 4619   5.306   6.175   2.889 -1.1818  1.4520 -1.2488
 1240SOL    HW2 4620   5.218   6.169   3.027 -0.7335  0.2225 -0.9994
 1241SOL     OW 4621   6.195   4.383   3.399 -0.5731 -0.2034  0.0830
 1241SOL    HW1 4622   6.223   4.442   3.476  0.4864  0.6752 -0.9311
 1241SOL    HW2 4623   6.097   4.363   3.406 -0.4037 -0.5597  1.9179
 1242SOL     OW 4624   6.026   5.568   6.754  0.0795 -0.0982 -0.0034
 1242SOL    HW1 4625   6.045   5.665   6.766  1.0949 -0.3568  0.5599
 1242SOL    HW2 4626   5.976   5.533   6.833  1.5094 -0.4650  0.7820
 1243SOL     OW 4627   1.120   0.856   4.824 -0.0117 -0.5092 -0.2818
 1243SOL    HW1 4628   1.103   0.873   4.921 -2.6797  1.1556 -0.9308
 1243SOL    HW2 4629   1.214   0.824   4.812  0.8267  0.4814  2.6800
 1244SOL     OW 4630   2.798   0.285   3.403  0.5084 -0.6080  0.0437
 1244SOL    HW1 4631   2.710   0.330   3.390  0.8834  0.9540  2.4541
 1244SOL    HW2 4632   2.788   0.187   3.383 -1.0379 -0.0347 -2.4269
 1245SOL     OW 4633   5.047   4.148   6.506 -0.1106  0.3991  1.0079
 1245SOL    HW1 4634   5.066   4.239   6.471  1.6748  0.3087  1.6800
 1245SOL    HW2 4635   5.082   4.079   6.442  0.3273  0.2034  1.4554
 1246SOL     OW 4636   3.239   6.271   0.357 -0.1875  0.3436 -0.2121
 1246SOL    HW1 4637   3.174   6.334   0.314  0.0774  1.5372  1.0837
 1246SOL    HW2 4638   3.320   6.321   0.387  1.5708 -1.1871 -2.1332
 1247SOL     OW 4639   2.692   0.614   6.666 -0.1195 -0.0633  0.1903
 1247SOL    HW1 4640   2.779   0.568   6.682 -0.1455 -0.7451 -1.3695
 1247SOL    HW2 4641   2.680   0.688   6.732  1.3439 -0.3576  0.8221
 1248SOL     OW 4642   1.252   1.607   5.354 -0.2632 -0.1607 -0.2113
 1248SOL    HW1 4643   1.269   1.596   5.452  2.6813 -0.1676 -0.6347
 1248SOL    HW2 4644   1.200   1.529   5.320  2.6092 -2.5889  0.5850
 1249SOL     OW 4645   3.918   2.594   1.540  0.5160  0.3521 -0.2349
 1249SOL    HW1 4646   3.971   2.582   1.457 -0.5008  0.9574 -0.9971
 1249SOL    HW2 4647   3.902   2.505   1.583 -0.5478 -0.2147 -1.7248
 1250SOL     OW 4648   6.197   3.965   4.942 -0.2089  0.0559 -0.2071
 1250SOL    HW1 4649   6.297   3.967   4.948 -0.2160 -1.3050  0.8736
 1250SOL    HW2 4650   6.161   3.899   5.008 -1.8387  0.5818 -0.5210
 1251SOL     OW 4651   3.353   1.837   3.227  0.2052 -0.2807  0.0070
 1251SOL    HW1 4652   3.280   1.868   3.166  0.6525 -1.2703 -1.0816
 1251SOL    HW2 4653   3.418   1.911   3.241 -0.3580  0.2241 -0.0200
 1252SOL     OW 4654   3.365   5.670   1.153 -0.5306 -0.5072 -0.0500
 1252SOL    HW1 4655   3.436   5.623   1.204 -1.1461  0.2539  1.5610
 1252SOL    HW2 4656   3.343   5.617   1.070  0.0252 -2.1288  0.7991
 1253SOL     OW 4657   4.752   0.915   1.753 -0.0047 -0.5215  0.8111
 1253SOL    HW1 4658   4.765   0.998   1.699  2.8612 -1.0955  0.4426
 1253SOL    HW2 4659   4.666   0.871   1.728 -0.5050  1.1668 -0.5846
 1254SOL     OW 4660   0.305   4.509   2.839 -0.7110  0.2892  0.0285
 1254SOL    HW1 4661   0.215   4.498   2.797 -1.1583  0.2384  0.9884
 1254SOL    HW2 4662   0.319   4.438   2.909  0.7162 -0.6959 -1.1736
 1255SOL     OW 4663   6.388   6.843   3.775 -0.0860 -0.2894  0.3798
 1255SOL    HW1 4664   6.365   6.847   3.678 -0.4112 -1.7868  0.3734
 1255SOL    HW2 4665   6.487   6.832   3.785  0.0079  0.3909  0.2428
 1256SOL     OW 4666   6.267   6.758   4.163 -0.0836 -0.4064 -0.0449
 1256SOL    HW1 4667   6.288   6.661   4.154  2.8320 -0.1999  2.9010
 1256SOL    HW2 4668   6.188   6.770   4.223 -0.1283 -0.9089  0.0007
 1257SOL     OW 4669   0.097   6.298   4.250  0.5926 -0.3147  0.5539
 1257SOL    HW1 4670   0.185   6.334   4.281  0.5354 -0.2625  0.6575
 1257SOL    HW2 4671   0.083   6.206   4.286  0.3864 -0.1351  0.9514
 1258SOL     OW 4672   1.565   4.351   2.646  0.4312  0.8733 -0.5032
 1258SOL    HW1 4673   1.628   4.327   2.719  0.7049  0.0551 -0.9915
 1258SOL    HW2 4674   1.472   4.352   2.681  0.5878  0.7444 -0.0781
 1259SOL     OW 4675   4.629   0.659   4.929 -0.0229  0.4584 -0.1583
 1259SOL    HW1 4676   4.550   0.638   4.986  1.3205  0.5782  1.8504
 1259SOL    HW2 4677   4.608   0.737   4.870 -1.3834  0.5230  0.3776
 1260SOL     OW 4678   3.602   0.835   0.554 -0.0167  0.5067  0.2177
 1260SOL    HW1 4679   3.511   0.795   0.541 -0.0267  0.7940 -0.6478
 1260SOL    HW2 4680   3.594   0.916   0.612  0.0953 -1.0843  2.5894
 1261SOL     OW 4681   0.374   5.060   0.352 -0.0640 -0.2422  0.0073
 1261SOL    HW1 4682   0.441   5.117   0.400  0.3692 -2.3008  2.0189
 1261SOL    HW2 4683   0.282   5.088   0.379  0.1704 -1.4656  2.3221
 1262SOL     OW 4684   6.492   6.089   3.061 -0.1575  0.0137  0.0652
 1262SOL    HW1 4685   6.529   6.047   2.979 -0.7824  0.4418 -0.4506
 1262SOL    HW2 4686   6.557   6.079   3.136  1.5522  1.7496 -1.0802
 1263SOL     OW 4687   6.309   6.698   5.014  0.2385  0.2226 -0.1049
 1263SOL    HW1 4688   6.388   6.710   4.954  0.1118  0.5830 -0.2009
 1263SOL    HW2 4689   6.286   6.786   5.056  0.4104 -0.0506  0.5777
 1264SOL     OW 4690   4.962   4.659   6.816 -0.7525 -0.8042  0.4269
 1264SOL    HW1 4691   4.900   4.609   6.756  1.9009 -2.9759 -0.6990
 1264SOL    HW2 4692   5.033   4.704   6.761 -2.1466  3.2096  1.5148
 1265SOL     OW 4693   6.254   6.545   4.610 -0.4583  0.3866  0.3908
 1265SOL    HW1 4694   6.180   6.592   4.660  0.0331  1.4757  0.1302
 1265SOL    HW2 4695   6.342   6.568   4.652 -0.1106  0.6281 -0.4511
 1266SOL     OW 4696   2.607   6.246   3.262 -0.1754 -0.0212 -0.3980
 1266SOL    HW1 4697   2.548   6.326   3.273 -2.4710 -1.4724 -1.2976
 1266SOL    HW2 4698   2.613   6.222   3.165  0.8237 -0.7041 -0.1852
 1267SOL     OW 4699   3.778   0.575   1.558  0.2032 -0.5035 -0.2561
 1267SOL    HW1 4700   3.839   0.608   1.630 -0.3632 -1.4988  0.7242
 1267SOL    HW2 4701   3.688   0.619   1.567  0.4374  0.1644 -1.0358
 1268SOL     OW 4702   2.578   2.922   0.492  0.0377  0.3404 -0.3165
 1268SOL    HW1 4703   2.638   2.915   0.413 -2.0320 -0.3313 -1.9099
 1268SOL    HW2 4704   2.616   2.870   0.568  1.8016  0.5423 -1.0299
 1269SOL     OW 4705   6.280   2.891   4.258  0.3230 -0.0909 -0.4357
 1269SOL    HW1 4706   6.319   2.966   4.203 -0.5125 -0.4571 -1.5662
 1269SOL    HW2 4707   6.195   2.922   4.300  1.4981  0.5551  1.6547
 1270SOL     OW 4708   2.921   5.185   1.773  0.6988  0.1148  0.2771
 1270SOL    HW1 4709   2.840   5.131   1.753 -0.4920  2.1407 -0.6150
 1270SOL    HW2 4710   2.957   5.160   1.863 -0.9715 -0.7408  0.7312
 1271SOL     OW 4711   3.475   0.353   1.458  0.1085  0.6454  0.4515
 1271SOL    HW1 4712   3.413   0.373   1.534  0.2623 -0.8321  1.0013
 1271SOL    HW2 4713   3.568   0.375   1.484  0.3098 -0.8840  1.1475
 1272SOL     OW 4714   5.992   4.086   6.289  0.1523 -0.2737  0.2909
 1272SOL    HW1 4715   5.944   4.000   6.272  0.3671 -0.6045  1.2696
 1272SOL    HW2 4716   5.932   4.147   6.341  0.4236 -0.3073  0.6519
 1273SOL     OW 4717   1.928   2.789   3.719  0.0398 -0.2281 -0.2580
 1273SOL    HW1 4718   1.998   2.752   3.780 -0.2635 -1.3646 -0.5747
 1273SOL    HW2 4719   1.849   2.727   3.716 -1.2403  1.2678  0.5008
 1274SOL     OW 4720   0.270   6.582   2.374  0.3074 -0.0279  0.2268
 1274SOL    HW1 4721   0.275   6.484   2.396 -0.8198  0.0002  0.6999
 1274SOL    HW2 4722   0.174   6.611   2.375  0.4703  0.7023 -1.6923
 1275SOL     OW 4723   4.126   1.651   3.519 -0.7044 -0.1621  0.0541
 1275SOL    HW1 4724   4.219   1.617   3.536 -0.2341  0.6748 -0.8073
 1275SOL    HW2 4725   4.105   1.724   3.584 -0.3547  0.3800 -0.4370
 1276SOL     OW 4726   4.911   4.800   4.474  0.0660  0.1907  0.1921
 1276SOL    HW1 4727   4.850   4.868   4.516  0.3107  0.4570  0.1146
 1276SOL    HW2 4728   4.874   4.773   4.385  1.5719  2.5788 -1.2541
 1277SOL     OW 4729   2.287   6.408   0.216 -0.3387  0.5929  0.3106
 1277SOL    HW1 4730   2.307   6.360   0.302  0.3275  1.5839  0.7185
 1277SOL    HW2 4731   2.238   6.346   0.155  0.1378 -0.4813  0.9846
 1278SOL     OW 4732   1.840   5.366   6.515 -0.3872  0.2419  0.5634
 1278SOL    HW1 4733   1.788   5.399   6.594  0.7300 -0.1131  1.4647
 1278SOL    HW2 4734   1.862   5.443   6.456 -1.4532  0.4745  0.4431
 1279SOL     OW 4735   1.471   4.120   5.025  0.2766  0.0949  0.0732
 1279SOL    HW1 4736   1.551   4.179   5.011  1.2960 -0.8123  1.7256
 1279SOL    HW2 4737   1.479   4.039   4.967 -0.0447  0.5451 -0.6133
 1280SOL     OW 4738   2.868   1.337   4.021 -0.1860 -0.3009  0.3509
 1280SOL    HW1 4739   2.861   1.399   3.942 -0.3639 -2.1442 -1.1501
 1280SOL    HW2 4740   2.961   1.301   4.026 -0.4539 -1.0042  0.3343
 1281SOL     OW 4741   2.025   6.292   1.701 -0.1216  0.4343 -0.1836
 1281SOL    HW1 4742   1.936   6.249   1.688  0.5201 -0.7910 -0.6350
 1281SOL    HW2 4743   2.012   6.388   1.727 -1.5585  0.3496 -0.5156
 1282SOL     OW 4744   0.041   2.610   6.326  0.0682  0.7748 -0.5525
 1282SOL    HW1 4745   0.026   2.517   6.362  1.3347  0.1934 -1.4538
 1282SOL    HW2 4746   0.065   2.604   6.229  1.5010  1.9362 -0.2990
 1283SOL     OW 4747   6.973   3.860   4.788  0.3702  0.5260  0.5683
 1283SOL    HW1 4748   6.911   3.880   4.712  0.9912  0.5540  0.0580
 1283SOL    HW2 4749   6.971   3.935   4.853 -1.9402 -0.5007  1.8176
 1284SOL     OW 4750   5.044   6.112   1.298 -0.5454 -0.4485 -0.2803
 1284SOL    HW1 4751   5.044   6.176   1.375 -0.2012 -0.6083 -0.1472
 1284SOL    HW2 4752   5.058   6.019   1.331 -2.4735 -0.8008 -0.3158
 1285SOL     OW 4753   3.682   2.287   5.826  0.2472  0.4643  0.4906
 1285SOL    HW1 4754   3.647   2.194   5.837  0.0668  0.6730  1.9137
 1285SOL    HW2 4755   3.609   2.348   5.796  0.6532 -0.0588 -1.6956
 1286SOL     OW 4756   5.339   1.783   6.414  0.2537  0.1996 -0.5621
 1286SOL    HW1 4757   5.423   1.771   6.467 -0.5541 -0.5121  0.6022
 1286SOL    HW2 4758   5.322   1.701   6.359 -0.1259 -0.0159 -0.1295
 1287SOL     OW 4759   5.634   4.071   5.055 -0.1194 -0.1945  0.4352
 1287SOL    HW1 4760   5.614   4.074   5.152  1.0683 -0.1103  0.6945
 1287SOL    HW2 4761   5.561   4.023   5.007 -0.4535 -0.6998  1.4307
 1288SOL     OW 4762   5.490   4.886   6.555  0.5621 -0.4145 -0.0527
 1288SOL    HW1 4763   5.588   4.900   6.571  0.3001  2.9958 -0.7300
 1288SOL    HW2 4764   5.440   4.892   6.641  0.7173  0.8433 -0.0349
 1289SOL     OW 4765   0.702   1.036   2.936  0.0103 -0.0846 -0.4962
 1289SOL    HW1 4766   0.737   1.108   2.876 -0.1296 -1.1004 -1.8284
 1289SOL    HW2 4767   0.731   1.055   3.030  2.6872  0.0342 -1.2600
 1290SOL     OW 4768   0.543   6.302   0.443  0.0369 -0.1252  0.2397
 1290SOL    HW1 4769   0.464   6.296   0.382  0.6637 -1.1224 -0.4939
 1290SOL    HW2 4770   0.544   6.392   0.486 -0.5082  0.5519 -1.0995
 1291SOL     OW 4771   6.744   5.454   5.097 -0.5517  0.3256  0.3394
 1291SOL    HW1 4772   6.726   5.519   5.172 -1.9396 -0.6797  0.9288
 1291SOL    HW2 4773   6.706   5.365   5.121 -0.5174 -0.1757 -1.3455
 1292SOL     OW 4774   2.565   1.162   1.191 -0.2362 -0.3099 -0.0807
 1292SOL    HW1 4775   2.575   1.258   1.218 -2.2909 -0.2286  0.5413
 1292SOL    HW2 4776   2.489   1.121   1.241  0.4008 -2.1942 -0.5815
 1293SOL     OW 4777   2.531   2.565   1.574  0.2818  0.4656 -0.4767
 1293SOL    HW1 4778   2.445   2.614   1.589 -0.1272 -0.3219 -0.1934
 1293SOL    HW2 4779   2.601   2.603   1.634  0.3996  1.7662 -1.4117
 1294SOL     OW 4780   1.365   5.301   5.999 -0.3202  0.1473  0.3635
 1294SOL    HW1 4781   1.380   5.276   6.094 -0.7745 -2.7768 -0.2519
 1294SOL    HW2 4782   1.267   5.312   5.982 -0.3582 -0.7771 -0.0664
 1295SOL     OW 4783   1.264   4.207   7.016 -0.0046 -0.1401  0.5568
 1295SOL    HW1 4784   1.301   4.115   7.031  1.6564  0.3349 -0.4605
 1295SOL    HW2 4785   1.334   4.275   7.036 -0.7250  0.8544 -0.2140
 1296SOL     OW 4786   3.849   0.633   6.144  0.2327  0.6496 -1.2405
 1296SOL    HW1 4787   3.807   0.624   6.054 -1.1752 -0.3872 -0.5099
 1296SOL    HW2 4788   3.778   0.639   6.214  1.2821 -0.8601  0.0146
 1297SOL     OW 4789   0.091   0.683   1.646 -0.1293  0.2886 -0.3309
 1297SOL    HW1 4790   0.151   0.641   1.578 -0.5698 -1.1778  0.1467
 1297SOL    HW2 4791   0.108   0.782   1.649  3.3697 -0.1946  0.8499
 1298SOL     OW 4792   4.424   6.659   2.915  0.2590  0.1501  0.3873
 1298SOL    HW1 4793   4.473   6.740   2.950  1.1357 -0.3739  0.3961
 1298SOL    HW2 4794   4.331   6.659   2.951  0.0471  1.4842 -0.1088
 1299SOL     OW 4795   1.832   5.559   2.552 -0.4529  0.2806 -0.1048
 1299SOL    HW1 4796   1.878   5.537   2.466 -1.3724 -0.2728 -0.4725
 1299SOL    HW2 4797   1.900   5.581   2.622  0.2744  2.5892 -1.4461
 1300SOL     OW 4798   2.808   4.050   1.690 -0.1483 -0.3625 -0.6371
 1300SOL    HW1 4799   2.711   4.067   1.710  0.5160  0.1692  2.7766
 1300SOL    HW2 4800   2.843   4.123   1.631 -1.5972 -0.1278 -1.2633
 1301SOL     OW 4801   1.383   2.201   0.290  0.7404 -0.2100 -0.3191
 1301SOL    HW1 4802   1.351   2.248   0.373 -1.0009  0.6798 -1.4277
 1301SOL    HW2 4803   1.448   2.260   0.242  3.0852 -1.4110  1.1793
 1302SOL     OW 4804   4.227   6.781   4.060 -0.3289  0.0113  0.0475
 1302SOL    HW1 4805   4.177   6.701   4.027  1.0694 -1.0252  0.3161
 1302SOL    HW2 4806   4.163   6.850   4.093 -1.6276 -0.2835 -1.7404
 1303SOL     OW 4807   4.267   1.537   2.222 -0.9920  0.3397  0.0856
 1303SOL    HW1 4808   4.191   1.543   2.157 -0.3715  0.6864 -0.6314
 1303SOL    HW2 4809   4.343   1.488   2.179 -0.6160  0.4723  0.5970
 1304SOL     OW 4810   1.728   0.027   3.574  0.2733  0.0580  0.3491
 1304SOL    HW1 4811   1.754   0.107   3.520  1.2491  0.0907  0.8564
 1304SOL    HW2 4812   1.809  -0.029   3.593 -0.0645 -0.0142  1.6788
 1305SOL     OW 4813   5.985   3.344   5.811  0.4175  0.0220 -0.0971
 1305SOL    HW1 4814   5.904   3.371   5.863  0.0636  0.1499 -0.7076
 1305SOL    HW2 4815   5.968   3.354   5.713 -0.2209 -3.5751 -0.5183
 1306SOL     OW 4816   1.547   6.365   4.230 -0.1463  0.2694 -0.0944
 1306SOL    HW1 4817   1.638   6.352   4.190  0.1254  0.0961  0.5697
 1306SOL    HW2 4818   1.507   6.276   4.251 -0.6400  0.3302 -0.7473
 1307SOL     OW 4819   2.100   3.659   2.434  0.1401 -0.0290  0.4669
 1307SOL    HW1 4820   2.074   3.754   2.450 -0.5501 -0.0810 -0.2633
 1307SOL    HW2 4821   2.120   3.646   2.337 -0.0384 -0.6905  0.5130
 1308SOL     OW 4822   6.107   0.415   0.343  0.3592 -0.2203  0.0094
 1308SOL    HW1 4823   6.184   0.437   0.283  1.1964 -0.8411  0.8243
 1308SOL    HW2 4824   6.137   0.349   0.412 -0.6465  0.3222  0.9832
 1309SOL     OW 4825   5.345   5.323   6.688  0.4001 -0.1335 -0.6297
 1309SOL    HW1 4826   5.423   5.369   6.732  0.0803 -0.3174  0.1341
 1309SOL    HW2 4827   5.263   5.378   6.699  0.0628 -0.7696  0.0871
 1310SOL     OW 4828   0.665   4.104   5.234 -0.1280  0.0413  0.5905
 1310SOL    HW1 4829   0.613   4.021   5.254  0.1752 -0.0708  0.9133
 1310SOL    HW2 4830   0.698   4.145   5.319  0.0360  0.2932  0.4099
 1311SOL     OW 4831   6.165   4.911   6.290  0.4818 -0.1415  0.1296
 1311SOL    HW1 4832   6.244   4.850   6.297  0.5934 -0.1709 -1.1860
 1311SOL    HW2 4833   6.082   4.861   6.315  0.8664 -0.0478  1.7636
 1312SOL     OW 4834   1.048   0.829   0.431  0.3496  0.0281 -0.7436
 1312SOL    HW1 4835   1.044   0.876   0.519 -1.0906 -1.3570 -0.0144
 1312SOL    HW2 4836   1.025   0.893   0.358  0.1283  0.8581  0.0387
 1313SOL     OW 4837   0.471   4.429   3.600  0.4462  0.4625  0.5991
 1313SOL    HW1 4838   0.570   4.442   3.601  0.9382 -1.8802 -2.6204
 1313SOL    HW2 4839   0.449   4.335   3.625 -0.9815  0.8678  0.9829
 1314SOL     OW 4840   1.954   1.672   3.432  0.4320  0.1762 -0.0631
 1314SOL    HW1 4841   1.892   1.684   3.354  0.5187 -0.2955 -0.2126
 1314SOL    HW2 4842   2.027   1.608   3.406  0.6410  0.2658  0.3027
 1315SOL     OW 4843   1.522   6.783   3.594  0.0094  0.1490  0.3026
 1315SOL    HW1 4844   1.594   6.769   3.662  1.0093 -0.8960 -0.9139
 1315SOL    HW2 4845   1.554   6.847   3.524 -0.9173  1.0309  0.6695
 1316SOL     OW 4846   2.500   0.858   5.643  0.0964 -0.1316  0.0104
 1316SOL    HW1 4847   2.498   0.877   5.741  2.1134  1.0003 -0.1153
 1316SOL    HW2 4848   2.548   0.772   5.626 -1.6970 -1.1955  0.0655
 1317SOL     OW 4849   0.588   5.237   5.159  0.4803  0.4609  0.0433
 1317SOL    HW1 4850   0.522   5.163   5.173 -0.8732  1.3159 -1.4569
 1317SOL    HW2 4851   0.680   5.200   5.161 -0.1771 -1.4463 -1.5120
 1318SOL     OW 4852   1.783   1.759   0.184 -0.0757 -0.1407  0.5139
 1318SOL    HW1 4853   1.689   1.745   0.213  0.2258 -0.3553  1.4353
 1318SOL    HW2 4854   1.841   1.774   0.264  0.7733 -0.5956  0.0094
 1319SOL     OW 4855   1.432   5.767   1.089 -0.8124  0.6722  0.1395
 1319SOL    HW1 4856   1.486   5.851   1.088  1.0126 -0.4223  0.4508
 1319SOL    HW2 4857   1.464   5.706   1.016 -0.3679 -0.7179  1.4242
 1320SOL     OW 4858   2.258   1.262   0.125  0.6588  0.3263 -0.4844
 1320SOL    HW1 4859   2.276   1.306   0.213  0.7139  0.6600 -0.6607
 1320SOL    HW2 4860   2.187   1.313   0.076 -0.9181 -1.0439  0.2581
 1321SOL     OW 4861   3.744   1.406   6.773  0.4979  0.3753 -0.1749
 1321SOL    HW1 4862   3.776   1.335   6.836 -1.9068  1.0520  1.9510
 1321SOL    HW2 4863   3.816   1.474   6.760  1.9996 -1.1775 -0.3752
 1322SOL     OW 4864   1.648   1.382   4.958  0.0749 -0.0046  0.9875
 1322SOL    HW1 4865   1.617   1.323   4.884  0.8032  0.2808  0.4367
 1322SOL    HW2 4866   1.660   1.329   5.041  0.4946 -0.5833  0.5610
 1323SOL     OW 4867   2.514   4.087   1.253  0.0670 -0.0080  0.1312
 1323SOL    HW1 4868   2.486   4.143   1.175  0.1890 -0.3408 -0.1506
 1323SOL    HW2 4869   2.438   4.080   1.318  0.0360  0.4483  0.1532
 1324SOL     OW 4870   0.060   2.067   0.148 -0.7818 -0.5415 -0.1331
 1324SOL    HW1 4871  -0.020   2.127   0.159 -1.0013 -1.0844  1.5863
 1324SOL    HW2 4872   0.052   1.990   0.211  2.2721  0.6615  1.9494
 1325SOL     OW 4873   3.556   0.229   4.461  0.2133  0.5168  0.0864
 1325SOL    HW1 4874   3.648   0.193   4.444 -0.1359  0.1939 -1.1769
 1325SOL    HW2 4875   3.516   0.263   4.376 -0.6692  1.0720  0.7048
 1326SOL     OW 4876   4.168   3.565   5.364 -0.2173 -0.0260  0.2087
 1326SOL    HW1 4877   4.218   3.569   5.450  0.2879 -0.4597 -0.0560
 1326SOL    HW2 4878   4.195   3.482   5.314 -0.5796  0.1695 -0.3156
 1327SOL     OW 4879   0.954   6.193   0.003 -0.0915 -0.5419 -0.2488
 1327SOL    HW1 4880   1.015   6.269  -0.021  0.0809  0.0626  1.8828
 1327SOL    HW2 4881   0.884   6.182  -0.067  0.2562  1.1886 -0.9099
 1328SOL     OW 4882   0.293   4.572   5.226  0.7193 -0.0883 -0.0382
 1328SOL    HW1 4883   0.278   4.667   5.197 -2.6357 -0.7648 -1.0095
 1328SOL    HW2 4884   0.353   4.526   5.161  2.0974  1.2261  0.2519
 1329SOL     OW 4885   5.567   3.079   4.772  0.8264 -0.7532  0.3062
 1329SOL    HW1 4886   5.652   3.095   4.723  0.8971 -0.2560  0.5781
 1329SOL    HW2 4887   5.550   3.155   4.835 -0.9416  0.2905 -1.3372
 1330SOL     OW 4888   0.743   1.210   1.430 -0.0807  0.0740  0.2618
 1330SOL    HW1 4889   0.808   1.143   1.464  0.1511 -0.3361 -0.9516
 1330SOL    HW2 4890   0.653   1.192   1.469  0.5009  0.6361  1.9359
 1331SOL     OW 4891   5.012   0.951   0.508  0.4172 -0.8926 -0.1513
 1331SOL    HW1 4892   4.987   1.045   0.484  2.0827 -0.9098 -2.2337
 1331SOL    HW2 4893   4.935   0.890   0.488 -0.2945 -0.1245  0.1876
 1332SOL     OW 4894   1.678   1.353   1.019 -0.2284 -0.3499 -0.1025
 1332SOL    HW1 4895   1.708   1.321   0.929  1.9317  2.3556 -0.4821
 1332SOL    HW2 4896   1.578   1.361   1.019 -0.5734 -3.4052 -1.0927
 1333SOL     OW 4897   3.359   3.995   4.995 -0.6629  0.4123 -0.1331
 1333SOL    HW1 4898   3.430   4.061   5.022 -0.5421 -0.1717  1.0413
 1333SOL    HW2 4899   3.400   3.927   4.934 -0.1807  0.0319  0.6010
 1334SOL     OW 4900   0.476   1.507   2.979 -0.5232  0.6911 -0.2282
 1334SOL    HW1 4901   0.475   1.529   3.077 -0.3481 -0.2602  0.0082
 1334SOL    HW2 4902   0.411   1.564   2.931 -1.6969  0.1704  0.6882
 1335SOL     OW 4903   2.524   2.107   3.672  0.3816  0.7966 -0.1902
 1335SOL    HW1 4904   2.462   2.132   3.598  1.0219 -0.8455 -1.3420
 1335SOL    HW2 4905   2.617   2.136   3.649  1.0348 -1.8455 -1.2820
 1336SOL     OW 4906   4.772   2.036   5.080 -0.0988 -0.0898 -0.6021
 1336SOL    HW1 4907   4.860   2.084   5.083 -0.5041  0.6303  0.1624
 1336SOL    HW2 4908   4.698   2.103   5.077 -0.6220 -0.6943 -1.6048
 1337SOL     OW 4909   5.780   2.168   3.191 -0.0201 -0.0637  0.2230
 1337SOL    HW1 4910   5.781   2.132   3.284 -0.9753 -2.6559 -0.6647
 1337SOL    HW2 4911   5.868   2.148   3.147 -0.3055 -0.7862 -0.0487
 1338SOL     OW 4912   6.662   3.918   3.664 -0.1432  0.1284  0.6103
 1338SOL    HW1 4913   6.609   3.961   3.591  0.5372  1.4408  0.8595
 1338SOL    HW2 4914   6.745   3.970   3.680  1.8394 -2.4321 -0.5040
 1339SOL     OW 4915   5.605   0.752   6.377  0.1436 -0.3953 -0.0680
 1339SOL    HW1 4916   5.549   0.811   6.435  3.0084  0.4461  2.0630
 1339SOL    HW2 4917   5.582   0.767   6.281 -0.0591  3.3886  0.4298
 1340SOL     OW 4918   6.673   2.516   2.684  0.5796 -0.2925  0.6731
 1340SOL    HW1 4919   6.731   2.558   2.614  1.3976 -2.0418  0.2424
 1340SOL    HW2 4920   6.627   2.587   2.736  2.7837  1.1679  0.7567
 1341SOL     OW 4921   3.886   6.166   0.431  0.0663 -0.0796  0.0530
 1341SOL    HW1 4922   3.892   6.107   0.351 -1.0996  1.6581 -1.4189
 1341SOL    HW2 4923   3.950   6.242   0.421  0.9544 -0.5856  1.5170
 1342SOL     OW 4924   4.883   6.252   5.446  0.3990  0.5704  0.3125
 1342SOL    HW1 4925   4.838   6.308   5.377 -0.5664 -0.2680  0.2304
 1342SOL    HW2 4926   4.968   6.213   5.408 -1.1188 -1.5262 -1.1845
 1343SOL     OW 4927   4.743   4.664   1.131  0.0795  0.6089 -0.2059
 1343SOL    HW1 4928   4.703   4.645   1.041 -0.6644  1.4516 -0.0748
 1343SOL    HW2 4929   4.782   4.756   1.131  3.2993 -0.6304 -0.7295
 1344SOL     OW 4930   0.685   6.099   3.352 -0.3337 -0.6936 -0.2890
 1344SOL    HW1 4931   0.607   6.161   3.354 -0.2998 -0.2636 -3.9334
 1344SOL    HW2 4932   0.758   6.141   3.296  1.2457 -2.4286  0.3697
 1345SOL     OW 4933   2.529   5.286   1.680  0.2983  0.5535  0.3992
 1345SOL    HW1 4934   2.612   5.259   1.631  0.6580 -0.6695  1.6028
 1345SOL    HW2 4935   2.452   5.287   1.617  1.0461  0.7447 -0.5392
 1346SOL     OW 4936   1.206   6.266   1.877  0.6713 -0.3143  0.7705
 1346SOL    HW1 4937   1.153   6.337   1.923 -2.5940 -1.5968 -0.6250
 1346SOL    HW2 4938   1.298   6.299   1.858 -0.1542  2.8671  1.6898
 1347SOL     OW 4939   1.695   0.443   6.783 -0.3776 -0.2399 -0.0690
 1347SOL    HW1 4940   1.719   0.348   6.764 -2.6864 -0.6746 -1.2068
 1347SOL    HW2 4941   1.657   0.451   6.875  2.0149  0.0867  0.9572
 1348SOL     OW 4942   6.149   5.711   0.003 -0.3801 -0.0184  0.5398
 1348SOL    HW1 4943   6.210   5.649  -0.048  0.6865  0.8584  0.7057
 1348SOL    HW2 4944   6.195   5.742   0.086 -2.1862 -1.6078  2.2313
 1349SOL     OW 4945   4.323   3.791   6.511 -0.1305 -0.0873 -0.5023
 1349SOL    HW1 4946   4.400   3.745   6.555 -0.0746  1.1665  0.7811
 1349SOL    HW2 4947   4.239   3.742   6.531  0.3528 -1.9391 -2.5896
 1350SOL     OW 4948   5.253   6.175   0.939  0.0967 -0.3841 -0.0673
 1350SOL    HW1 4949   5.188   6.250   0.954 -0.6887 -1.0533  0.0057
 1350SOL    HW2 4950   5.338   6.211   0.902  0.3781  0.7718  1.5774
 1351SOL     OW 4951   5.774   3.206   5.022  0.4059  0.5480 -0.1371
 1351SOL    HW1 4952   5.816   3.180   4.935 -0.2528  0.1638 -0.3421
 1351SOL    HW2 4953   5.677   3.223   5.008  0.3396  0.6873  0.4870
 1352SOL     OW 4954   0.343   5.348   4.751 -0.5286 -0.4100 -0.2622
 1352SOL    HW1 4955   0.381   5.353   4.843  0.9381  0.5082 -0.8876
 1352SOL    HW2 4956   0.271   5.416   4.741  0.1161  0.3022 -0.1416
 1353SOL     OW 4957   1.642   1.471   2.259  0.0528  0.2547 -0.1542
 1353SOL    HW1 4958   1.545   1.454   2.277  0.2386 -0.1993  0.4768
 1353SOL    HW2 4959   1.662   1.453   2.163 -0.2025 -1.0795  0.0197
 1354SOL     OW 4960   6.139   3.172   0.489  0.3037 -0.1199  0.0494
 1354SOL    HW1 4961   6.046   3.207   0.493  0.5735  0.6449 -0.3553
 1354SOL    HW2 4962   6.203   3.244   0.517  0.7513 -0.7545  0.7046
 1355SOL     OW 4963   6.414   4.095   3.745 -0.3819 -0.6849  0.0186
 1355SOL    HW1 4964   6.460   4.095   3.656  1.5879  0.1927  0.9746
 1355SOL    HW2 4965   6.415   4.187   3.783  1.5782 -1.5359  2.2618
 1356SOL     OW 4966   4.713   2.304   0.695 -0.4938 -0.3079 -0.4414
 1356SOL    HW1 4967   4.739   2.233   0.631  1.8828  1.6715 -1.8161
 1356SOL    HW2 4968   4.771   2.384   0.683 -1.0751  0.8394  3.0357
 1357SOL     OW 4969   6.815   3.710   5.685 -0.0937  0.1781 -0.0278
 1357SOL    HW1 4970   6.855   3.796   5.656  0.1243  0.1962  0.3203
 1357SOL    HW2 4971   6.829   3.698   5.783 -0.2291 -0.1961 -0.0514
 1358SOL     OW 4972   0.635   6.326   2.962 -0.1457  0.6949  0.5276
 1358SOL    HW1 4973   0.698   6.339   3.039  0.4340 -0.9451  0.3666
 1358SOL    HW2 4974   0.582   6.243   2.976 -0.2072  0.5003 -0.7200
 1359SOL     OW 4975   5.153   4.151   2.084 -0.1235 -0.5103 -0.3735
 1359SOL    HW1 4976   5.192   4.077   2.029 -0.1057  0.1042 -1.2103
 1359SOL    HW2 4977   5.089   4.113   2.151  1.2538 -1.4488  0.4476
 1360SOL     OW 4978   3.656   1.700   6.956 -0.5156 -0.1768 -0.2413
 1360SOL    HW1 4979   3.753   1.682   6.973 -0.2444  1.6207  0.2801
 1360SOL    HW2 4980   3.645   1.733   6.862 -0.7380 -1.0324 -0.5276
 1361SOL     OW 4981   0.267   6.272   5.792  0.4759  0.2046  0.8057
 1361SOL    HW1 4982   0.297   6.187   5.748  1.3033  0.1626  1.4331
 1361SOL    HW2 4983   0.285   6.348   5.730 -1.0784 -0.1435 -0.1253
 1362SOL     OW 4984   3.588   4.032   2.929  0.1242 -0.5053  0.3377
 1362SOL    HW1 4985   3.541   4.056   2.843 -2.0922 -1.7667  1.1141
 1362SOL    HW2 4986   3.685   4.020   2.911 -0.1140  0.2645 -1.7906
 1363SOL     OW 4987   0.632   6.447   1.608 -0.5478  0.5113 -0.0534
 1363SOL    HW1 4988   0.727   6.475   1.619 -0.7087  1.1250 -0.2060
 1363SOL    HW2 4989   0.629   6.349   1.589  0.0796  0.5472 -0.3887
 1364SOL     OW 4990   4.055   2.533   0.106  0.1590 -0.0608 -0.1126
 1364SOL    HW1 4991   4.111   2.456   0.077 -0.5514  0.5743 -3.5813
 1364SOL    HW2 4992   3.962   2.503   0.123  0.2902 -0.2439  0.2871
 1365SOL     OW 4993   7.004   2.845   6.211  0.4772  0.4744 -0.9649
 1365SOL    HW1 4994   7.043   2.774   6.269  3.3903  0.0219 -3.2556
 1365SOL    HW2 4995   6.927   2.809   6.159  0.0314 -0.0910  0.0741
 1366SOL     OW 4996   5.679   6.106   6.956  0.3939  0.2832  0.4910
 1366SOL    HW1 4997   5.779   6.098   6.956  0.3714 -0.2435  1.8021
 1366SOL    HW2 4998   5.639   6.016   6.974 -0.2996  0.6335  0.7007
 1367SOL     OW 4999   1.165   6.353   2.617 -0.4248 -0.1024 -0.0337
 1367SOL    HW1 5000   1.099   6.417   2.579 -0.7482  1.2823  2.6428
 1367SOL    HW2 5001   1.117   6.284   2.672  0.1602 -0.7915 -0.3703
 1368SOL     OW 5002   3.443   5.352   5.848  0.4951  0.0155  0.3469
 1368SOL    HW1 5003   3.366   5.327   5.789  1.0720 -0.2030 -0.3252
 1368SOL    HW2 5004   3.438   5.300   5.934  0.6124 -0.9732 -0.2336
 1369SOL     OW 5005   1.021   5.352   2.688  0.0613  0.2799  0.0689
 1369SOL    HW1 5006   0.964   5.295   2.629  0.3229 -0.9433  0.9645
 1369SOL    HW2 5007   1.114   5.314   2.692  0.8707  1.9945 -1.0212
 1370SOL     OW 5008   3.232   1.773   0.505 -0.4041 -0.2264  0.1945
 1370SOL    HW1 5009   3.148   1.810   0.464  0.3106  0.6150 -0.5759
 1370SOL    HW2 5010   3.301   1.764   0.433  1.8516  3.9590  1.5149
 1371SOL     OW 5011   4.750   0.616   4.429 -0.6926 -0.0131 -0.5317
 1371SOL    HW1 5012   4.686   0.692   4.444  0.8892  0.8439  2.7495
 1371SOL    HW2 5013   4.711   0.532   4.465 -1.0955 -0.1180 -1.1830
 1372SOL     OW 5014   1.066   4.143   1.152  0.0984  0.1892  0.0546
 1372SOL    HW1 5015   1.027   4.106   1.236 -0.1708  1.4355  0.5027
 1372SOL    HW2 5016   1.153   4.187   1.172  0.1344  0.3088 -0.3588
 1373SOL     OW 5017   1.452   4.945   1.898  0.6348 -0.0142 -0.1026
 1373SOL    HW1 5018   1.377   4.958   1.833  1.3646  2.6873 -0.5249
 1373SOL    HW2 5019   1.414   4.934   1.990 -0.3080  0.2258 -0.4480
 1374SOL     OW 5020   4.979   1.408   1.213  0.4447  0.1285  0.6394
 1374SOL    HW1 5021   4.917   1.433   1.138 -0.6001  2.2138  2.1032
 1374SOL    HW2 5022   5.003   1.312   1.205 -0.4065  0.0378 -1.8028
 1375SOL     OW 5023   5.948   4.938   5.655 -0.5093  0.2656  0.6942
 1375SOL    HW1 5024   5.968   4.939   5.753 -0.7219  2.0109  0.7597
 1375SOL    HW2 5025   5.944   5.032   5.622  1.0874 -0.3115 -1.3237
 1376SOL     OW 5026   4.822   2.839   4.054 -0.3089 -0.4887  0.4383
 1376SOL    HW1 5027   4.841   2.909   3.986  0.1105  1.3626  2.3640
 1376SOL    HW2 5028   4.726   2.846   4.084 -0.7805 -1.9380 -0.5995
 1377SOL     OW 5029   6.768   4.758   6.197  0.5430 -0.4439 -0.6284
 1377SOL    HW1 5030   6.717   4.732   6.115  0.0296  0.2352 -0.5415
 1377SOL    HW2 5031   6.751   4.855   6.217 -0.6050 -0.9556  1.1497
 1378SOL     OW 5032   0.436   2.048   5.946  0.2955  0.4535 -0.0774
 1378SOL    HW1 5033   0.415   2.049   5.848  0.6284 -2.6580 -0.2918
 1378SOL    HW2 5034   0.351   2.042   5.999  0.0884  2.6079 -0.0866
 1379SOL     OW 5035   1.830   0.126   1.929  0.4247  0.0425  0.0538
 1379SOL    HW1 5036   1.845   0.046   1.872  0.4407  0.3637 -0.4012
 1379SOL    HW2 5037   1.826   0.208   1.872  0.0474  0.3285  0.4725
 1380SOL     OW 5038   5.889   0.737   3.545 -0.3915 -0.5929  0.0353
 1380SOL    HW1 5039   5.839   0.659   3.583 -0.4456 -0.8474 -0.5368
 1380SOL    HW2 5040   5.831   0.784   3.479  0.3196 -1.2528 -1.0896
 1381SOL     OW 5041   5.998   4.086   0.033  0.1132  0.4100 -0.0486
 1381SOL    HW1 5042   5.942   4.005   0.046 -0.8037  0.8510 -1.0856
 1381SOL    HW2 5043   6.093   4.065   0.054 -0.3439 -0.4890  1.2520
 1382SOL     OW 5044   5.931   6.465   6.453 -0.0769 -0.0656 -0.1774
 1382SOL    HW1 5045   5.938   6.512   6.365 -1.2471  1.4316  0.4954
 1382SOL    HW2 5046   5.841   6.481   6.492  0.7301  0.0340  1.7267
 1383SOL     OW 5047   1.362   1.421   0.211 -0.3029 -0.2917  0.3742
 1383SOL    HW1 5048   1.316   1.439   0.299  0.2012 -1.7900  0.9695
 1383SOL    HW2 5049   1.456   1.392   0.228  1.3440  3.6571 -0.8526
 1384SOL     OW 5050   3.711   6.440   2.628 -0.1027  0.4005  0.1917
 1384SOL    HW1 5051   3.782   6.420   2.560  1.0657 -0.0776  1.5056
 1384SOL    HW2 5052   3.696   6.539   2.631 -0.0489  0.4407 -0.6424
 1385SOL     OW 5053   5.936   3.441   4.182 -0.5758  0.3103 -0.7872
 1385SOL    HW1 5054   5.885   3.515   4.226  1.0553  1.1773 -0.2927
 1385SOL    HW2 5055   5.995   3.396   4.249 -1.3494 -1.3074 -1.1405
 1386SOL     OW 5056   2.691   4.104   6.517 -0.2956  0.6839  0.0649
 1386SOL    HW1 5057   2.670   4.143   6.607 -1.7135 -2.1666  1.0660
 1386SOL    HW2 5058   2.610   4.109   6.459 -0.4283 -0.5094  0.1335
 1387SOL     OW 5059   4.553   1.055   2.429 -0.0244  0.2990 -0.3858
 1387SOL    HW1 5060   4.629   1.092   2.376 -0.8305  0.1865 -1.6742
 1387SOL    HW2 5061   4.581   0.970   2.473  0.4815  0.0491 -1.1645
 1388SOL     OW 5062   0.965   6.560   4.805  0.3271  0.2272 -0.2402
 1388SOL    HW1 5063   1.004   6.524   4.720  1.0698 -0.3334  0.3317
 1388SOL    HW2 5064   0.978   6.659   4.808  1.3461  0.0958 -0.2424
 1389SOL     OW 5065   5.342   0.954   4.059  0.1220  0.1582 -0.1065
 1389SOL    HW1 5066   5.395   0.888   4.112  0.7829  1.4632  0.9002
 1389SOL    HW2 5067   5.342   0.926   3.963  2.6638  0.0988 -0.1550
 1390SOL     OW 5068   5.016   0.431   1.701  0.1291 -0.2473 -0.2680
 1390SOL    HW1 5069   4.948   0.504   1.695  0.2587 -0.1843 -1.0209
 1390SOL    HW2 5070   4.998   0.364   1.629  0.6174 -0.4420 -0.2081
 1391SOL     OW 5071   0.414   6.713   3.705 -0.1147  0.6867  0.3165
 1391SOL    HW1 5072   0.508   6.726   3.737  0.0445  0.1220  0.0839
 1391SOL    HW2 5073   0.392   6.785   3.638 -0.7275  2.3755  2.2384
 1392SOL     OW 5074   3.564   5.400   0.147 -0.4686 -0.1730  0.3238
 1392SOL    HW1 5075   3.643   5.414   0.086  0.3364 -0.6746  1.2156
 1392SOL    HW2 5076   3.492   5.353   0.097  0.2751 -0.8069 -0.1877
 1393SOL     OW 5077   6.374   2.744   6.863 -0.4676  0.1869  0.0521
 1393SOL    HW1 5078   6.400   2.840   6.853  0.5878 -0.1051 -0.0764
 1393SOL    HW2 5079   6.278   2.739   6.891 -0.4300  1.2911  0.4480
 1394SOL     OW 5080   4.156   0.317   2.559 -0.1021 -0.0719 -0.1097
 1394SOL    HW1 5081   4.127   0.409   2.584  1.1251  0.0057  1.1464
 1394SOL    HW2 5082   4.113   0.250   2.620 -0.1387 -0.2401 -0.3159
 1395SOL     OW 5083   0.320   4.844   2.549 -0.8439  0.2071 -0.2014
 1395SOL    HW1 5084   0.405   4.859   2.599 -0.1768 -1.5285 -0.7455
 1395SOL    HW2 5085   0.289   4.931   2.509  0.9582  0.7691 -0.4499
 1396SOL     OW 5086   1.974   1.857   3.637  0.3511  0.0914  0.2916
 1396SOL    HW1 5087   1.979   1.779   3.575 -0.2676  0.5260 -0.3191
 1396SOL    HW2 5088   2.064   1.899   3.644  0.9129 -1.1950  1.3347
 1397SOL     OW 5089   5.379   4.393   3.554 -0.0150  0.3528  0.3093
 1397SOL    HW1 5090   5.280   4.385   3.562 -0.2809 -0.3698 -2.6149
 1397SOL    HW2 5091   5.403   4.482   3.514  0.4093 -0.0167 -0.2704
 1398SOL     OW 5092   1.638   2.096   0.696 -0.3461  0.0904 -0.1565
 1398SOL    HW1 5093   1.646   2.112   0.795  0.5423  1.6086 -0.4456
 1398SOL    HW2 5094   1.574   2.021   0.680 -3.0585  1.8641  1.4554
 1399SOL     OW 5095   6.280   1.212   0.876 -0.0486 -0.0864 -0.1761
 1399SOL    HW1 5096   6.248   1.306   0.867  0.2914  0.0160 -0.3235
 1399SOL    HW2 5097   6.205   1.149   0.856 -1.0265  0.1200  2.3807
 1400SOL     OW 5098   0.919   6.704   5.519 -0.3829  0.1755  0.3051
 1400SOL    HW1 5099   0.857   6.728   5.445 -1.4040  2.5688  1.8026
 1400SOL    HW2 5100   0.866   6.689   5.603  0.8220 -1.3752  0.8483
 1401SOL     OW 5101   3.978   6.779   3.281 -0.1360  0.1322 -0.8657
 1401SOL    HW1 5102   3.953   6.786   3.378  2.3095  3.4110 -0.3089
 1401SOL    HW2 5103   4.076   6.760   3.273 -0.3180 -0.1790 -2.7165
 1402SOL     OW 5104   6.537   4.548   6.422 -0.0140  0.6274  0.6021
 1402SOL    HW1 5105   6.604   4.539   6.495  0.9952  1.7402 -0.1529
 1402SOL    HW2 5106   6.499   4.458   6.400  1.5243 -0.0918  0.7772
 1403SOL     OW 5107   4.113   3.036   1.805  0.3137  0.0395  0.9156
 1403SOL    HW1 5108   4.085   3.092   1.884  0.2370  2.3312 -0.6479
 1403SOL    HW2 5109   4.204   3.063   1.775 -0.5171  0.7884 -1.0947
 1404SOL     OW 5110   4.123   0.300   1.526  0.3977  0.6072  0.2627
 1404SOL    HW1 5111   4.147   0.281   1.430  1.0169  0.0886  0.5085
 1404SOL    HW2 5112   4.053   0.235   1.556 -1.3991  2.1211 -0.4549
 1405SOL     OW 5113   1.125   3.564   0.019  0.1557 -0.2787 -0.1750
 1405SOL    HW1 5114   1.183   3.484   0.009  1.4244  0.4461  1.0887
 1405SOL    HW2 5115   1.085   3.587  -0.070  2.1539 -0.5377 -1.1888
 1406SOL     OW 5116   2.504   3.565   1.126 -0.2219 -0.3843 -0.0455
 1406SOL    HW1 5117   2.555   3.650   1.140  0.4838 -0.4758 -1.8118
 1406SOL    HW2 5118   2.429   3.560   1.192  0.5907  0.9100  1.0266
 1407SOL     OW 5119   6.440   5.295   2.510 -0.5977 -0.4911  0.8630
 1407SOL    HW1 5120   6.376   5.356   2.462  0.3978  0.5204  0.7717
 1407SOL    HW2 5121   6.459   5.215   2.452 -0.5374 -0.0013  0.1898
 1408SOL     OW 5122   0.102   6.372   0.199 -0.2074  0.3693 -0.3514
 1408SOL    HW1 5123   0.111   6.405   0.105  0.9877  0.7139 -0.1377
 1408SOL    HW2 5124   0.008   6.382   0.229 -0.5676  0.4341 -1.4479
 1409SOL     OW 5125   5.968   1.261   5.209  0.2774 -0.0561  0.0024
 1409SOL    HW1 5126   5.962   1.165   5.236  0.5945  0.0188  0.3554
 1409SOL    HW2 5127   5.909   1.277   5.130  0.8377 -0.7295 -0.5752
 1410SOL     OW 5128   0.691   3.170   6.960  0.0077 -0.6106  0.1154
 1410SOL    HW1 5129   0.715   3.251   6.907 -0.1902  0.8140  2.0697
 1410SOL    HW2 5130   0.607   3.130   6.923  1.6876 -1.7744 -2.7244
 1411SOL     OW 5131   5.663   4.784   0.394  0.2179  0.4090 -0.0439
 1411SOL    HW1 5132   5.721   4.861   0.368  2.1277  0.4952  3.7017
 1411SOL    HW2 5133   5.715   4.699   0.389 -0.8059 -0.1933 -0.8999
 1412SOL     OW 5134   1.574   2.685   1.161  0.0737  0.5081  0.5375
 1412SOL    HW1 5135   1.664   2.727   1.148 -1.1355  2.5276 -2.1636
 1412SOL    HW2 5136   1.504   2.740   1.115 -2.2599 -2.2931  0.4324
 1413SOL     OW 5137   2.902   1.619   5.639  0.0976  0.2064  0.0009
 1413SOL    HW1 5138   2.893   1.667   5.552  0.9621  1.8808  0.8015
 1413SOL    HW2 5139   2.914   1.521   5.622 -0.8617  0.3526 -1.6960
 1414SOL     OW 5140   1.438   3.505   2.699  0.3621  0.2902  0.2084
 1414SOL    HW1 5141   1.503   3.573   2.666  1.3090 -0.0995  1.2055
 1414SOL    HW2 5142   1.475   3.460   2.780 -0.1461 -1.5879 -0.5688
 1415SOL     OW 5143   1.629   1.991   4.335  0.3676 -0.1511  0.3713
 1415SOL    HW1 5144   1.684   2.062   4.291  0.3371 -0.3717 -0.0235
 1415SOL    HW2 5145   1.681   1.950   4.410  1.5076 -1.6751 -1.1763
 1416SOL     OW 5146   2.652   6.633   5.966 -0.2891 -0.3211 -0.4753
 1416SOL    HW1 5147   2.736   6.580   5.960 -1.3053 -1.9690 -0.8328
 1416SOL    HW2 5148   2.672   6.723   6.005  1.6106 -0.6797 -0.5180
 1417SOL     OW 5149   3.515   3.235   6.065  0.0170 -0.0908  0.1521
 1417SOL    HW1 5150   3.508   3.313   6.126  0.0493 -0.5034  0.6844
 1417SOL    HW2 5151   3.486   3.262   5.973  0.7043  0.7368  0.1656
 1418SOL     OW 5152   2.780   4.580   6.571  0.1230 -0.7699  0.1839
 1418SOL    HW1 5153   2.764   4.597   6.669 -0.8713  0.0733 -0.1063
 1418SOL    HW2 5154   2.808   4.665   6.527 -2.6449 -0.2861 -0.8655
 1419SOL     OW 5155   1.655   4.452   4.386  0.3015 -0.1541 -0.1486
 1419SOL    HW1 5156   1.741   4.408   4.413  0.5077 -0.2206 -0.9023
 1419SOL    HW2 5157   1.673   4.519   4.314 -0.4003 -0.8148 -0.9566
 1420SOL     OW 5158   3.115   4.839   3.355 -0.6234 -0.5718  0.1454
 1420SOL    HW1 5159   3.035   4.850   3.414 -1.1437  2.4349 -0.9664
 1420SOL    HW2 5160   3.086   4.836   3.259  0.5443  4.1685 -0.6066
 1421SOL     OW 5161   0.171   4.832   4.497 -0.1950  0.5239 -0.4191
 1421SOL    HW1 5162   0.198   4.928   4.503  0.6217  0.3182 -0.5833
 1421SOL    HW2 5163   0.183   4.787   4.585  1.9394 -0.0345 -0.9366
 1422SOL     OW 5164   3.815   3.426   5.417  1.0493 -0.5786 -0.3353
 1422SOL    HW1 5165   3.844   3.457   5.508 -0.1480  0.4278 -0.2705
 1422SOL    HW2 5166   3.878   3.461   5.348  1.6918 -0.9479  0.0538
 1423SOL     OW 5167   4.114   0.736   4.548 -0.3066  0.0905 -0.0134
 1423SOL    HW1 5168   4.040   0.730   4.481 -0.2073 -1.8986  0.0024
 1423SOL    HW2 5169   4.086   0.692   4.633  0.4656  0.3977  0.4117
 1424SOL     OW 5170   1.209   3.727   6.259  0.3613  0.0512  0.1734
 1424SOL    HW1 5171   1.149   3.724   6.339  0.5367 -1.2704  0.2801
 1424SOL    HW2 5172   1.170   3.788   6.190 -0.2132  0.5572  0.9355
 1425SOL     OW 5173   3.724   0.578   5.894  0.6245  0.4549 -0.7138
 1425SOL    HW1 5174   3.633   0.616   5.912  0.5980 -0.8909  3.0661
 1425SOL    HW2 5175   3.744   0.582   5.797 -3.2374  1.3295 -1.6259
 1426SOL     OW 5176   2.590   1.402   6.751 -0.9409 -0.1730 -0.0604
 1426SOL    HW1 5177   2.496   1.387   6.721 -1.4812  2.2192  0.2085
 1426SOL    HW2 5178   2.620   1.326   6.807 -2.0599 -1.8452 -1.6008
 1427SOL     OW 5179   0.886   1.557   3.014 -0.4181  0.9824  0.2705
 1427SOL    HW1 5180   0.933   1.470   2.999 -2.0699  0.4524 -2.3763
 1427SOL    HW2 5181   0.836   1.552   3.100  0.6860 -0.0974  0.9001
 1428SOL     OW 5182   4.885   3.016   3.882 -0.4493  0.6303 -0.0740
 1428SOL    HW1 5183   4.962   2.952   3.873  0.1984  1.4422 -0.5648
 1428SOL    HW2 5184   4.845   3.032   3.792  0.6638  2.3815 -0.3277
 1429SOL     OW 5185   6.306   1.913   0.183 -0.2335  0.2387  0.3658
 1429SOL    HW1 5186   6.294   1.853   0.262  1.0532 -1.3835 -0.6060
 1429SOL    HW2 5187   6.356   1.995   0.211  0.2161 -0.3191  1.2435
 1430SOL     OW 5188   1.750   4.010   4.008  0.5940 -0.3406  0.7719
 1430SOL    HW1 5189   1.745   3.928   4.066 -0.2141 -1.5065 -0.8673
 1430SOL    HW2 5190   1.732   3.984   3.913  1.5730  1.5614  0.0261
 1431SOL     OW 5191   2.394   1.172   0.582  0.2555  0.1067 -0.1438
 1431SOL    HW1 5192   2.458   1.138   0.512 -1.5499 -0.3159 -1.6735
 1431SOL    HW2 5193   2.446   1.213   0.657  2.2960  1.7509 -2.3053
 1432SOL     OW 5194   2.703   1.919   0.796  0.3693  0.3037  0.2075
 1432SOL    HW1 5195   2.616   1.896   0.752  0.9405  0.0992 -0.8227
 1432SOL    HW2 5196   2.685   1.947   0.891 -0.6439 -1.5318  0.6048
 1433SOL     OW 5197   2.335   6.259   4.480 -0.0291  0.4576  0.1749
 1433SOL    HW1 5198   2.260   6.323   4.497 -0.8956 -0.9138  1.9247
 1433SOL    HW2 5199   2.359   6.212   4.565  0.6862 -1.4073 -0.9768
 1434SOL     OW 5200   0.633   2.732   0.150  0.1835  0.3922  0.1629
 1434SOL    HW1 5201   0.673   2.705   0.237  0.3479  2.8265  0.9251
 1434SOL    HW2 5202   0.541   2.767   0.164 -1.2404 -2.4464 -1.2031
 1435SOL     OW 5203   2.234   6.876   6.347 -0.2499  0.1124 -0.6277
 1435SOL    HW1 5204   2.277   6.939   6.412  1.4490  1.8387 -3.2120
 1435SOL    HW2 5205   2.303   6.839   6.285 -1.7721 -1.3713 -1.5239
 1436SOL     OW 5206   6.289   2.258   0.815 -0.5084 -0.3626  0.0184
 1436SOL    HW1 5207   6.282   2.187   0.885  0.0329 -2.3567 -1.8135
 1436SOL    HW2 5208   6.338   2.337   0.852 -1.0662 -0.9408  2.1231
 1437SOL     OW 5209   5.686   0.614   6.630  0.0337 -0.3479 -0.2079
 1437SOL    HW1 5210   5.593   0.598   6.663 -0.2633 -1.4197 -1.4989
 1437SOL    HW2 5211   5.683   0.673   6.549  0.4501 -0.6739 -0.4667
 1438SOL     OW 5212   2.877   1.666   1.717 -0.3905 -0.8358  0.2953
 1438SOL    HW1 5213   2.938   1.599   1.673  0.9842  0.5695 -0.0521
 1438SOL    HW2 5214   2.921   1.756   1.716 -2.0460  0.0227  1.0377
 1439SOL     OW 5215   6.292   6.837   0.326 -0.0729 -0.3171 -0.0909
 1439SOL    HW1 5216   6.279   6.821   0.229  2.2629 -0.0992 -0.5041
 1439SOL    HW2 5217   6.390   6.843   0.346 -0.3888 -1.8883  2.5104
 1440SOL     OW 5218   3.784   3.722   2.664  0.2002 -0.2689 -0.0529
 1440SOL    HW1 5219   3.711   3.761   2.608  1.3292  0.5613 -0.9909
 1440SOL    HW2 5220   3.753   3.635   2.703 -1.0625 -0.2399 -0.9223
 1441SOL     OW 5221   0.324   2.633   4.879 -0.6442  0.4786  0.4085
 1441SOL    HW1 5222   0.357   2.649   4.786 -0.8195  0.1533  0.2885
 1441SOL    HW2 5223   0.230   2.664   4.887 -0.1512  1.9242  0.9057
 1442SOL     OW 5224   4.918   1.414   5.774  0.2287 -0.4571  0.4822
 1442SOL    HW1 5225   4.891   1.325   5.738 -1.9956  0.8051 -1.2486
 1442SOL    HW2 5226   4.991   1.452   5.717  0.1112 -0.5241  0.2853
 1443SOL     OW 5227   1.842   1.115   3.618 -0.1154  0.2702 -0.0349
 1443SOL    HW1 5228   1.770   1.064   3.571 -1.5779  0.8684  1.4404
 1443SOL    HW2 5229   1.867   1.195   3.563 -0.9543  0.3414 -0.3226
 1444SOL     OW 5230   5.059   2.864   3.258  0.2292 -0.0700 -0.0616
 1444SOL    HW1 5231   5.027   2.901   3.171  0.5386 -0.5144 -0.3698
 1444SOL    HW2 5232   5.118   2.785   3.241  0.5215  0.0129  0.5404
 1445SOL     OW 5233   6.705   2.265   1.215  0.6100 -0.0962 -0.6891
 1445SOL    HW1 5234   6.646   2.273   1.295  1.2432  1.0807 -0.3037
 1445SOL    HW2 5235   6.787   2.213   1.239  1.1256  0.8444 -0.3508
 1446SOL     OW 5236   3.891   2.105   2.760  0.7154  0.3749  0.2756
 1446SOL    HW1 5237   3.864   2.133   2.852 -0.3723 -0.8176  0.3374
 1446SOL    HW2 5238   3.812   2.109   2.699  0.7927 -1.2828  0.0079
 1447SOL     OW 5239   5.919   2.209   5.731 -0.3937  0.4171  0.5237
 1447SOL    HW1 5240   5.893   2.227   5.826  0.5924  2.5611  0.4273
 1447SOL    HW2 5241   6.002   2.152   5.730  0.0744  1.0674  0.9944
 1448SOL     OW 5242   4.307   0.921   1.852 -0.2501 -0.3663 -0.3535
 1448SOL    HW1 5243   4.376   0.856   1.820  0.3272 -0.1460  0.4321
 1448SOL    HW2 5244   4.335   1.014   1.828  0.6849 -0.1061  1.6333
 1449SOL     OW 5245   0.495   5.352   0.208  0.3596  0.0079 -0.0882
 1449SOL    HW1 5246   0.465   5.271   0.158  1.6742 -0.2758 -0.4586
 1449SOL    HW2 5247   0.488   5.335   0.306 -0.4682 -0.1151 -0.1624
 1450SOL     OW 5248   5.522   2.505   1.757 -0.0071 -0.5927 -0.2900
 1450SOL    HW1 5249   5.455   2.554   1.812  0.2760 -0.3555 -0.1521
 1450SOL    HW2 5250   5.518   2.407   1.778  0.3148 -0.4640  0.3846
 1451SOL     OW 5251   3.130   1.812   2.539 -0.2800  1.1558 -0.4301
 1451SOL    HW1 5252   3.198   1.877   2.507 -0.5798  1.6364 -0.1156
 1451SOL    HW2 5253   3.069   1.857   2.604 -0.7267  0.6601 -0.4943
 1452SOL     OW 5254   4.455   6.569   4.318  0.1845  0.3963  0.1431
 1452SOL    HW1 5255   4.385   6.517   4.368  0.3031  1.1434  1.1080
 1452SOL    HW2 5256   4.546   6.535   4.343  0.2181  0.2549 -0.1662
 1453SOL     OW 5257   5.314   4.569   4.436 -0.2222  0.3938  0.0029
 1453SOL    HW1 5258   5.293   4.626   4.357  0.1077  0.1730 -0.2492
 1453SOL    HW2 5259   5.289   4.474   4.416 -0.0646  0.3245  0.1315
 1454SOL     OW 5260   6.065   2.101   2.112  0.1573 -0.1939 -0.0294
 1454SOL    HW1 5261   6.040   2.144   2.198  0.0446  1.5374 -0.9012
 1454SOL    HW2 5262   6.152   2.138   2.080  0.5690 -1.3506 -0.3316
 1455SOL     OW 5263   2.064   2.752   3.237 -0.2053 -0.0617  0.6917
 1455SOL    HW1 5264   2.065   2.715   3.330 -0.1563 -0.5508  0.5010
 1455SOL    HW2 5265   2.132   2.825   3.229 -2.2139  2.0688  1.8545
 1456SOL     OW 5266   4.710   0.037   2.864 -0.2175 -0.1121 -0.2883
 1456SOL    HW1 5267   4.768  -0.012   2.929  0.7486  0.8039 -0.4438
 1456SOL    HW2 5268   4.740   0.132   2.857 -2.0281  0.5231 -0.0200
 1457SOL     OW 5269   3.031   0.526   5.127 -0.3249  0.0789  0.0918
 1457SOL    HW1 5270   3.107   0.474   5.165 -0.3095 -1.2178 -1.6018
 1457SOL    HW2 5271   2.955   0.465   5.108 -1.3464  1.1607  0.6157
 1458SOL     OW 5272   4.922   6.732   4.676  0.1403  0.1344 -0.1489
 1458SOL    HW1 5273   4.878   6.646   4.647 -0.8377  0.8291 -0.7910
 1458SOL    HW2 5274   4.987   6.760   4.606  1.8230 -0.9999  0.8951
 1459SOL     OW 5275   4.266   5.933   6.357 -0.0487 -0.6482  0.0012
 1459SOL    HW1 5276   4.342   5.904   6.299 -0.6082 -2.2660  0.0209
 1459SOL    HW2 5277   4.269   5.883   6.444 -1.3513 -1.0884 -0.1755
 1460SOL     OW 5278   2.397   6.756   6.169  0.4345 -0.5088 -0.0853
 1460SOL    HW1 5279   2.491   6.734   6.196  0.6260 -1.0296 -1.1193
 1460SOL    HW2 5280   2.356   6.677   6.124 -0.1544  0.0468 -0.5424
 1461SOL     OW 5281   6.040   3.945   3.160  0.3724 -0.2188 -0.6958
 1461SOL    HW1 5282   6.125   3.948   3.107  0.3882 -0.1397 -0.6649
 1461SOL    HW2 5283   6.049   3.879   3.234  0.8548  0.7031  0.0879
 1462SOL     OW 5284   0.093   1.935   0.976 -0.4688  0.1241 -0.4911
 1462SOL    HW1 5285   0.186   1.902   0.994 -0.2236  1.0827  0.0569
 1462SOL    HW2 5286   0.086   1.967   0.882 -0.2981 -0.1386 -0.5924
 1463SOL     OW 5287   1.381   6.834   5.011  0.0764  0.1496  1.1003
 1463SOL    HW1 5288   1.304   6.778   4.980 -0.5435  0.4744  1.9966
 1463SOL    HW2 5289   1.392   6.824   5.110  1.7574 -0.5584  0.8698
 1464SOL     OW 5290   6.834   5.242   0.852 -0.1405 -0.1968  0.0584
 1464SOL    HW1 5291   6.805   5.328   0.893  1.1030  0.4999 -0.4645
 1464SOL    HW2 5292   6.844   5.254   0.754  1.8124 -0.3920  0.2015
 1465SOL     OW 5293   1.457   0.392   4.531 -0.7442 -0.1344 -0.2251
 1465SOL    HW1 5294   1.439   0.303   4.571 -1.8361  0.4751  0.7065
 1465SOL    HW2 5295   1.548   0.392   4.488 -1.0755 -1.9386 -1.0362
 1466SOL     OW 5296   6.841   6.436   3.278  0.4655  0.1556  0.0131
 1466SOL    HW1 5297   6.927   6.428   3.329 -0.5714  2.4973  2.4073
 1466SOL    HW2 5298   6.764   6.416   3.339 -0.8760  3.6494 -0.3097
 1467SOL     OW 5299   0.248   6.564   3.552 -0.7881 -0.2239  0.1587
 1467SOL    HW1 5300   0.201   6.617   3.482 -0.0419  0.7690  0.3867
 1467SOL    HW2 5301   0.316   6.621   3.598  0.1567 -1.4190  0.3140
 1468SOL     OW 5302   4.412   5.068   4.108 -0.7335  0.2998  0.4699
 1468SOL    HW1 5303   4.362   5.016   4.178  2.0236 -1.4935  1.2599
 1468SOL    HW2 5304   4.410   5.018   4.021 -2.7453  1.7193 -0.3804
 1469SOL     OW 5305   6.688   0.343   0.682  0.1159 -0.1694 -0.2123
 1469SOL    HW1 5306   6.700   0.301   0.592  1.3470  0.2143 -0.2468
 1469SOL    HW2 5307   6.681   0.272   0.752  0.3381 -0.4588 -0.4814
 1470SOL     OW 5308   1.901   6.857   4.919  0.2271  0.4861  0.6285
 1470SOL    HW1 5309   1.874   6.769   4.882  0.6238  0.7562 -0.3306
 1470SOL    HW2 5310   1.968   6.900   4.858  0.5632  1.1414  1.4334
 1471SOL     OW 5311   7.015   0.193   6.496  0.2936  0.1579 -0.6476
 1471SOL    HW1 5312   6.941   0.239   6.544  0.0514 -2.0493  1.2884
 1471SOL    HW2 5313   7.087   0.169   6.561  1.8920  0.6424 -2.1635
 1472SOL     OW 5314   5.989   6.724   5.055  0.2952  0.1880  0.1711
 1472SOL    HW1 5315   5.957   6.634   5.084 -0.8293  0.1618 -1.0316
 1472SOL    HW2 5316   5.949   6.746   4.966  2.1962  0.9929 -0.5433
 1473SOL     OW 5317   0.144   6.090   3.144  0.3006 -0.0026 -0.4188
 1473SOL    HW1 5318   0.169   6.026   3.072  0.6209 -0.2348 -0.1032
 1473SOL    HW2 5319   0.077   6.047   3.205 -0.4930  0.4376 -0.9698
 1474SOL     OW 5320   6.710   3.355   4.249  0.0636 -0.0498 -0.5857
 1474SOL    HW1 5321   6.777   3.341   4.322  0.6323  0.6631 -0.9584
 1474SOL    HW2 5322   6.641   3.421   4.280 -0.3234 -0.5780 -0.3016
 1475SOL     OW 5323   0.523   0.393   3.886  0.4556 -0.2607  0.0217
 1475SOL    HW1 5324   0.612   0.408   3.843  0.4697 -1.9970 -0.6361
 1475SOL    HW2 5325   0.494   0.477   3.933  0.9408  1.4014 -2.4487
 1476SOL     OW 5326   1.748   2.279   2.721  0.2181 -0.3509  0.1938
 1476SOL    HW1 5327   1.783   2.372   2.733  0.8106 -0.8480  3.0489
 1476SOL    HW2 5328   1.651   2.277   2.747 -0.5263 -0.0932 -2.3259
 1477SOL     OW 5329   2.705   0.440   5.439 -0.2379  0.3293 -0.2193
 1477SOL    HW1 5330   2.782   0.499   5.458 -0.4839  0.3701  0.6642
 1477SOL    HW2 5331   2.738   0.351   5.407  0.1241  1.0694 -2.0107
 1478SOL     OW 5332   5.727   5.954   2.596 -0.0882  0.4400  0.1985
 1478SOL    HW1 5333   5.767   5.866   2.622 -3.3524 -1.1751  0.2951
 1478SOL    HW2 5334   5.688   5.998   2.677  0.3124  1.3294 -0.0815
 1479SOL     OW 5335   3.467   4.959   7.013  0.6278 -0.1638  0.0927
 1479SOL    HW1 5336   3.414   4.933   7.094 -0.5137  0.5017 -0.4106
 1479SOL    HW2 5337   3.543   5.017   7.040  1.0899 -1.0758  0.8258
 1480SOL     OW 5338   1.547   2.494   0.413  0.0011 -0.7374  0.1871
 1480SOL    HW1 5339   1.528   2.435   0.491  0.5939 -1.6740 -0.3504
 1480SOL    HW2 5340   1.461   2.526   0.374 -0.3358 -1.1845  0.5459
 1481SOL     OW 5341   5.028   1.048   5.252  0.1973 -0.0267 -0.1747
 1481SOL    HW1 5342   4.933   1.040   5.222 -0.5208 -0.6257  2.0211
 1481SOL    HW2 5343   5.089   1.027   5.176 -1.4754 -2.1934 -1.0462
 1482SOL     OW 5344   6.299   0.058   0.001  0.1273  0.2040  0.0153
 1482SOL    HW1 5345   6.302  -0.034   0.040  1.7730  0.0197 -0.4840
 1482SOL    HW2 5346   6.230   0.112   0.049 -0.9942 -1.3308  0.1881
 1483SOL     OW 5347   2.024   2.032   6.105  0.2993  0.0355 -0.1641
 1483SOL    HW1 5348   1.965   2.037   6.185  0.4706 -1.0853  0.0537
 1483SOL    HW2 5349   2.103   1.973   6.125  0.5249  0.0232 -1.0349
 1484SOL     OW 5350   2.422   5.919   2.278 -0.0730  0.5156 -0.5198
 1484SOL    HW1 5351   2.418   5.836   2.333  0.6975  1.0142  0.3243
 1484SOL    HW2 5352   2.334   5.965   2.279  0.2497  1.1885  1.4116
 1485SOL     OW 5353   4.915   3.782   4.819 -0.2526 -0.0594  0.3445
 1485SOL    HW1 5354   4.864   3.868   4.830  0.4195  0.4792 -0.6359
 1485SOL    HW2 5355   4.888   3.719   4.891 -1.2953  0.7101  0.6611
 1486SOL     OW 5356   3.907   1.909   3.348  0.2264  0.2954  0.0580
 1486SOL    HW1 5357   3.982   1.920   3.283  1.5605 -0.2257  1.4498
 1486SOL    HW2 5358   3.931   1.837   3.413 -0.6910  1.3881  1.6506
 1487SOL     OW 5359   5.507   3.397   6.283  0.1879 -0.0200 -0.3669
 1487SOL    HW1 5360   5.564   3.359   6.356  0.4232  0.0816 -0.4963
 1487SOL    HW2 5361   5.417   3.353   6.284  0.7103 -1.1513 -0.9961
 1488SOL     OW 5362   4.741   6.913   3.420 -0.0275 -0.2422  0.2015
 1488SOL    HW1 5363   4.728   6.820   3.456  0.2968 -0.1833  0.4761
 1488SOL    HW2 5364   4.817   6.956   3.468 -1.0227  0.6561  1.0099
 1489SOL     OW 5365   3.538   5.226   3.037 -0.6228 -0.1228  0.2857
 1489SOL    HW1 5366   3.494   5.300   2.986 -0.4588  0.1174  0.4893
 1489SOL    HW2 5367   3.530   5.245   3.135 -2.0494 -1.1988  0.4199
 1490SOL     OW 5368   6.685   2.878   6.445 -0.3261 -0.0444 -0.1902
 1490SOL    HW1 5369   6.611   2.945   6.457 -1.4837 -0.7824 -2.4741
 1490SOL    HW2 5370   6.755   2.917   6.385  0.1984 -0.0348  0.4245
 1491SOL     OW 5371   0.669   4.334   4.120 -0.4478  0.0794 -0.1803
 1491SOL    HW1 5372   0.624   4.345   4.209 -2.3161 -1.0319 -0.9261
 1491SOL    HW2 5373   0.603   4.298   4.054  0.8448  1.0309 -2.0857
 1492SOL     OW 5374   0.126   1.686   1.400 -0.3111  0.1562 -0.0109
 1492SOL    HW1 5375   0.217   1.653   1.374 -0.1241  1.5082 -1.1876
 1492SOL    HW2 5376   0.059   1.658   1.331 -1.1924 -2.3920  1.7384
 1493SOL     OW 5377   4.606   1.301   5.261 -0.0096  0.2097 -0.1518
 1493SOL    HW1 5378   4.517   1.333   5.296 -1.5739  0.2034 -3.6921
 1493SOL    HW2 5379   4.594   1.211   5.218  1.3507  0.8463 -1.9797
 1494SOL     OW 5380   3.151   2.014   5.008 -0.1466 -0.1650 -0.0457
 1494SOL    HW1 5381   3.156   2.114   5.010  0.1767 -0.1864  0.8993
 1494SOL    HW2 5382   3.235   1.978   4.967 -1.1877 -0.0217 -2.4921
 1495SOL     OW 5383   7.001   3.463   2.971 -0.1902  0.3068  0.2676
 1495SOL    HW1 5384   6.940   3.515   3.030 -0.0641  1.3324 -0.4738
 1495SOL    HW2 5385   7.079   3.430   3.024 -0.3147  0.8166  0.7754
 1496SOL     OW 5386   1.123   2.218   2.386 -0.2136  0.3833  0.7438
 1496SOL    HW1 5387   1.064   2.160   2.331 -0.8596  1.4600  0.2700
 1496SOL    HW2 5388   1.215   2.221   2.346 -0.6896  1.1876 -0.3251
 1497SOL     OW 5389   1.003   5.473   6.514 -0.2254  0.6444 -0.4799
 1497SOL    HW1 5390   0.936   5.402   6.490  0.6286 -1.2799  2.3660
 1497SOL    HW2 5391   0.968   5.529   6.589  1.3036 -0.5141  1.1896
 1498SOL     OW 5392   1.689   3.919   6.827  0.0277  0.1033 -0.0131
 1498SOL    HW1 5393   1.675   3.919   6.728  0.9850  0.3587 -0.1568
 1498SOL    HW2 5394   1.601   3.934   6.873 -0.3603  0.3926 -0.8302
 1499SOL     OW 5395   1.773   3.704   3.841  0.5624 -0.1799 -0.1982
 1499SOL    HW1 5396   1.762   3.754   3.926  0.5388  0.9076 -0.8293
 1499SOL    HW2 5397   1.828   3.758   3.777  1.4769 -1.4245 -0.5123
 1500SOL     OW 5398   4.697   0.656   5.628  0.3432 -0.0233 -0.7529
 1500SOL    HW1 5399   4.703   0.565   5.669 -1.2604  1.0892  2.2337
 1500SOL    HW2 5400   4.768   0.715   5.666 -0.4117  0.7165 -0.4680
 1501SOL     OW 5401   4.487   5.985   6.857  0.0971 -0.0105 -0.2650
 1501SOL    HW1 5402   4.523   6.061   6.803  0.1879 -0.6948 -1.1945
 1501SOL    HW2 5403   4.388   5.995   6.866  0.2867  1.0397  0.9667
 1502SOL     OW 5404   6.402   4.514   1.092 -0.1742 -0.3252  0.2835
 1502SOL    HW1 5405   6.486   4.523   1.147  0.6410  0.5603 -1.0444
 1502SOL    HW2 5406   6.340   4.589   1.113 -0.7847 -1.1278  1.4632
 1503SOL     OW 5407   4.003   2.144   6.388  0.1713 -0.2985 -0.4896
 1503SOL    HW1 5408   3.947   2.137   6.305 -0.3660 -0.7800 -0.0985
 1503SOL    HW2 5409   4.025   2.240   6.405 -1.0798 -0.0225 -0.3086
 1504SOL     OW 5410   3.617   6.841   5.847 -0.9935  0.2265 -0.6237
 1504SOL    HW1 5411   3.691   6.776   5.864 -0.3504  1.0437 -0.1833
 1504SOL    HW2 5412   3.540   6.822   5.908 -1.7374 -1.4850 -2.0268
 1505SOL     OW 5413   4.397   0.552   5.062  0.1961 -0.3894 -0.4863
 1505SOL    HW1 5414   4.317   0.574   5.007  0.6047 -1.1137 -1.3960
 1505SOL    HW2 5415   4.375   0.476   5.124  0.8972 -2.5508 -2.7055
 1506SOL     OW 5416   6.876   4.633   4.136 -0.2019  0.1060  0.2196
 1506SOL    HW1 5417   6.929   4.639   4.220  0.2146 -1.7157  0.1225
 1506SOL    HW2 5418   6.915   4.696   4.068 -1.6208  2.9313  1.8558
 1507SOL     OW 5419   2.677   1.184   0.157  0.3830  0.3202 -0.2332
 1507SOL    HW1 5420   2.666   1.283   0.161  1.0983  0.4919 -1.7511
 1507SOL    HW2 5421   2.700   1.157   0.063 -0.1197 -1.3190  0.0916
 1508SOL     OW 5422   6.207   6.593   1.158  0.1014 -0.0475  0.2352
 1508SOL    HW1 5423   6.118   6.567   1.196 -0.7351 -0.3043 -1.7578
 1508SOL    HW2 5424   6.265   6.512   1.152 -0.7131 -0.5600 -1.3708
 1509SOL     OW 5425   4.540   1.812   1.370  0.1327 -0.0357 -0.4770
 1509SOL    HW1 5426   4.569   1.907   1.386  0.4086 -0.3160  0.8326
 1509SOL    HW2 5427   4.441   1.808   1.362  0.0437  0.2621  0.3840
 1510SOL     OW 5428   1.495   2.438   3.579  0.0350 -0.5388  0.2385
 1510SOL    HW1 5429   1.450   2.386   3.507 -1.5630  0.8632  0.1641
 1510SOL    HW2 5430   1.558   2.378   3.629 -0.9865 -2.2604 -0.4517
 1511SOL     OW 5431   3.986   2.626   1.250 -0.0431  0.5215  0.3045
 1511SOL    HW1 5432   4.006   2.723   1.262  1.4685  0.1189  1.2638
 1511SOL    HW2 5433   4.058   2.571   1.293 -0.3017 -1.0367 -1.1679
 1512SOL     OW 5434   5.509   0.760   2.443  0.5362 -0.1045 -0.0586
 1512SOL    HW1 5435   5.515   0.859   2.453 -2.0274  0.1518 -0.4486
 1512SOL    HW2 5436   5.434   0.736   2.381  1.7242 -2.2842 -0.7853
 1513SOL     OW 5437   3.312   0.871   4.443  0.0906  0.1023  0.2278
 1513SOL    HW1 5438   3.364   0.875   4.358 -1.2931  0.2176 -0.6504
 1513SOL    HW2 5439   3.337   0.948   4.502  0.7477  0.2701 -0.2643
 1514SOL     OW 5440   4.526   0.483   6.641  0.4584  0.1815  0.2127
 1514SOL    HW1 5441   4.468   0.542   6.585 -0.6311 -0.4061  0.6803
 1514SOL    HW2 5442   4.622   0.500   6.619  0.0911  0.3357 -1.4490
 1515SOL     OW 5443   6.435   3.679   4.843 -0.0966 -0.4368 -0.1578
 1515SOL    HW1 5444   6.440   3.778   4.856  1.2463 -0.0583 -2.8452
 1515SOL    HW2 5445   6.470   3.633   4.924 -2.0782  1.1696  1.7411
 1516SOL     OW 5446   1.576   3.289   2.340 -0.3272  0.2833  0.5948
 1516SOL    HW1 5447   1.607   3.380   2.315  1.1221 -0.2386  0.4047
 1516SOL    HW2 5448   1.566   3.284   2.440  3.3558 -0.3712  1.0871
 1517SOL     OW 5449   4.530   0.394   2.527 -0.2201  0.0327 -0.0175
 1517SOL    HW1 5450   4.521   0.295   2.536  1.7763 -0.2689 -0.8378
 1517SOL    HW2 5451   4.602   0.416   2.460 -1.9130  2.0499 -1.3271
 1518SOL     OW 5452   0.504   4.291   1.342  0.5883  0.0445  0.5448
 1518SOL    HW1 5453   0.460   4.223   1.283  2.7377 -1.0127  0.0395
 1518SOL    HW2 5454   0.455   4.378   1.335 -2.0563 -1.3060  0.9653
 1519SOL     OW 5455   4.202   3.734   1.202  0.4047 -0.1038 -0.3371
 1519SOL    HW1 5456   4.217   3.745   1.300 -0.5873  2.7357 -0.4317
 1519SOL    HW2 5457   4.138   3.658   1.186 -0.8148  0.5201  1.3499
 1520SOL     OW 5458   1.574   4.837   1.445 -0.8004  0.0069  0.5011
 1520SOL    HW1 5459   1.610   4.803   1.358 -1.3131 -0.9917  0.6568
 1520SOL    HW2 5460   1.650   4.863   1.505 -0.3627 -0.9789  0.4028
 1521SOL     OW 5461   0.709   3.288   0.179 -0.1123 -0.5424  0.0716
 1521SOL    HW1 5462   0.696   3.240   0.092  1.3112  1.4760 -1.3638
 1521SOL    HW2 5463   0.771   3.236   0.237 -0.8169 -1.7669 -0.2362
 1522SOL     OW 5464   5.532   1.106   0.405 -0.5455 -0.0019 -0.0909
 1522SOL    HW1 5465   5.511   1.051   0.486 -2.4442  0.5323 -0.1707
 1522SOL    HW2 5466   5.524   1.203   0.427 -1.1921  0.1476 -0.9402
 1523SOL     OW 5467   5.132   3.207   2.316  0.2750 -0.2210  0.4138
 1523SOL    HW1 5468   5.178   3.129   2.360  0.7913  0.6899  1.5623
 1523SOL    HW2 5469   5.100   3.180   2.226  1.2022 -1.5209  0.4357
 1524SOL     OW 5470   6.905   2.060   2.170  0.3924 -0.4358  0.6244
 1524SOL    HW1 5471   6.936   2.153   2.152  1.4959 -0.9088 -0.0455
 1524SOL    HW2 5472   6.897   2.045   2.268 -0.1069  0.4592  0.7252
 1525SOL     OW 5473   5.275   2.182   4.770  0.0191  0.2170  0.0991
 1525SOL    HW1 5474   5.177   2.197   4.775  0.1301  0.9388  0.3456
 1525SOL    HW2 5475   5.296   2.120   4.694 -0.7173 -0.9466  0.8214
 1526SOL     OW 5476   6.590   2.215   0.971  0.2443 -0.2904  0.1526
 1526SOL    HW1 5477   6.657   2.211   1.045 -0.2793  0.3537  0.6649
 1526SOL    HW2 5478   6.535   2.298   0.979  0.1892 -0.2021 -0.9679
 1527SOL     OW 5479   2.319   0.170   5.290 -0.6925  0.3828  1.3334
 1527SOL    HW1 5480   2.281   0.130   5.374  0.6180  1.5980  2.5350
 1527SOL    HW2 5481   2.416   0.190   5.303  0.0937 -1.2934 -1.1849
 1528SOL     OW 5482   3.429   0.493   3.007  0.4238 -0.0420 -0.5133
 1528SOL    HW1 5483   3.434   0.421   2.938  2.2685  0.3723 -0.8574
 1528SOL    HW2 5484   3.415   0.451   3.097 -1.2355 -0.6315 -1.0031
 1529SOL     OW 5485   3.418   1.207   6.786 -0.9725 -0.7549  0.5747
 1529SOL    HW1 5486   3.509   1.179   6.815 -0.3205 -0.0532 -0.7186
 1529SOL    HW2 5487   3.397   1.298   6.822 -0.4698 -0.2054 -0.4944
 1530SOL     OW 5488   2.001   6.558   0.511 -0.1574 -0.3498  0.5434
 1530SOL    HW1 5489   2.013   6.609   0.597  1.4164 -2.3241  1.5836
 1530SOL    HW2 5490   2.038   6.612   0.435  2.3454 -0.2495  1.7299
 1531SOL     OW 5491   0.409   0.048   3.782  0.4394 -0.3941 -0.2455
 1531SOL    HW1 5492   0.452  -0.007   3.853  1.9303 -0.0677 -0.8653
 1531SOL    HW2 5493   0.418   0.002   3.694  0.7894  0.3428 -0.6042
 1532SOL     OW 5494   3.576   2.714   5.587  0.2784 -0.2461 -0.0730
 1532SOL    HW1 5495   3.557   2.759   5.674 -0.0794  0.4391 -0.4989
 1532SOL    HW2 5496   3.511   2.746   5.518  0.2167 -1.1836 -0.4651
 1533SOL     OW 5497   0.770   3.585   0.810 -0.4621  0.1930 -0.4313
 1533SOL    HW1 5498   0.748   3.640   0.890  0.2408  0.3183 -0.3197
 1533SOL    HW2 5499   0.864   3.604   0.780  0.1315 -1.5604  0.1458
 1534SOL     OW 5500   1.488   5.547   0.894  0.6582  0.1358  0.1811
 1534SOL    HW1 5501   1.485   5.448   0.903 -0.6964  0.0004 -1.2675
 1534SOL    HW2 5502   1.573   5.574   0.849  0.5615 -0.4805 -0.3907
 1535SOL     OW 5503   4.383   5.292   3.611 -0.0212 -0.0445 -0.9916
 1535SOL    HW1 5504   4.357   5.283   3.515 -1.5388  1.4594 -0.7536
 1535SOL    HW2 5505   4.305   5.322   3.665  0.9038 -0.4661  0.6709
 1536SOL     OW 5506   2.728   5.384   5.668 -0.0836  0.2584 -0.1556
 1536SOL    HW1 5507   2.825   5.407   5.658  0.1002 -1.1344 -2.0251
 1536SOL    HW2 5508   2.686   5.371   5.578 -1.6646 -0.5022  0.6383
 1537SOL     OW 5509   1.530   4.564   2.145 -0.2681  0.0463 -0.1442
 1537SOL    HW1 5510   1.517   4.492   2.214 -0.5535 -0.0205 -0.2654
 1537SOL    HW2 5511   1.599   4.629   2.177 -0.0231 -0.2715 -0.0260
 1538SOL     OW 5512   3.145   5.145   0.627 -0.2057 -0.0017  0.0197
 1538SOL    HW1 5513   3.234   5.106   0.604 -1.3564 -3.4913  0.8560
 1538SOL    HW2 5514   3.154   5.198   0.712  1.1287  0.1527 -0.1833
 1539SOL     OW 5515   3.549   4.152   2.038  0.2229  0.1643 -0.4051
 1539SOL    HW1 5516   3.645   4.127   2.054 -0.0886 -0.8726 -0.1127
 1539SOL    HW2 5517   3.546   4.238   1.987  1.2953  1.9351  2.2831
 1540SOL     OW 5518   0.929   1.401   5.616  0.4892 -0.7558  0.4211
 1540SOL    HW1 5519   0.894   1.492   5.593  1.3284 -0.7286 -0.8466
 1540SOL    HW2 5520   0.863   1.354   5.674  0.2792  0.8489  1.5492
 1541SOL     OW 5521   2.904   2.306   0.843  0.0296 -0.0105 -0.0818
 1541SOL    HW1 5522   2.809   2.326   0.868 -0.1287  0.1407 -0.7902
 1541SOL    HW2 5523   2.910   2.211   0.810 -0.1979  0.4879 -1.6080
 1542SOL     OW 5524   6.404   5.874   1.966  0.0949  0.0092 -0.2755
 1542SOL    HW1 5525   6.425   5.854   1.870 -0.0554 -0.5625 -0.1931
 1542SOL    HW2 5526   6.489   5.883   2.017  0.1644 -0.7202 -0.2569
 1543SOL     OW 5527   3.063   3.874   4.441  0.0876  0.1482 -0.3683
 1543SOL    HW1 5528   3.142   3.815   4.447  0.5275  0.8124  0.5892
 1543SOL    HW2 5529   2.983   3.828   4.479 -0.3223 -1.0182 -2.4909
 1544SOL     OW 5530   4.127   3.533   3.085  0.2502  0.1938 -0.1244
 1544SOL    HW1 5531   4.226   3.519   3.086  0.0567 -1.3062 -0.6046
 1544SOL    HW2 5532   4.095   3.547   3.179  0.7900 -0.2489  0.1321
 1545SOL     OW 5533   6.221   0.491   6.270 -0.1807 -0.2077 -0.0962
 1545SOL    HW1 5534   6.194   0.442   6.354  1.8803 -1.3766 -0.0395
 1545SOL    HW2 5535   6.301   0.548   6.289  0.5920 -0.8302 -1.3442
 1546SOL     OW 5536   6.325   6.298   5.738  0.2822  0.2965  0.0088
 1546SOL    HW1 5537   6.352   6.393   5.749 -1.0469  0.7720 -0.6335
 1546SOL    HW2 5538   6.291   6.263   5.826 -1.3232  1.1285 -0.2448
 1547SOL     OW 5539   2.084   4.860   3.628 -0.5767  0.6002  0.0666
 1547SOL    HW1 5540   2.110   4.764   3.642 -0.5387  0.6100  0.0653
 1547SOL    HW2 5541   2.026   4.890   3.703  0.5272  0.9785  0.7958
 1548SOL     OW 5542   4.355   4.795   5.272 -0.3143  0.0859  0.4430
 1548SOL    HW1 5543   4.257   4.788   5.293 -0.1344  0.6798  1.5988
 1548SOL    HW2 5544   4.400   4.848   5.345  0.6090  1.0923 -0.8152
 1549SOL     OW 5545   6.833   2.704   1.076 -0.1978  0.0715 -0.8775
 1549SOL    HW1 5546   6.917   2.758   1.073  0.1776 -0.4367  0.0390
 1549SOL    HW2 5547   6.856   2.609   1.099 -1.1122  0.1692  0.5375
 1550SOL     OW 5548   3.413   6.145   4.028 -0.1788 -0.1636 -0.2781
 1550SOL    HW1 5549   3.460   6.124   3.942  0.5551  1.9453 -0.4720
 1550SOL    HW2 5550   3.330   6.198   4.008  0.8068  1.7082  0.3033
 1551SOL     OW 5551   2.166   3.827   1.064  0.2379 -0.5325 -0.0273
 1551SOL    HW1 5552   2.245   3.865   1.016  0.0301  0.8228  0.6525
 1551SOL    HW2 5553   2.172   3.851   1.161 -1.6119  0.6260 -0.1639
 1552SOL     OW 5554   2.736   0.922   0.482  0.0402  0.0044 -0.3785
 1552SOL    HW1 5555   2.809   0.987   0.504  0.1126  0.7766 -2.6354
 1552SOL    HW2 5556   2.654   0.972   0.453 -0.6283 -0.8930 -0.0795
 1553SOL     OW 5557   4.826   0.793   6.176 -0.9044 -0.5614  0.3105
 1553SOL    HW1 5558   4.743   0.752   6.214 -1.0507 -1.6741 -1.1303
 1553SOL    HW2 5559   4.802   0.859   6.106 -0.6051  0.8082  1.4462
 1554SOL     OW 5560   5.775   1.815   2.312 -0.1366 -0.0190  0.4190
 1554SOL    HW1 5561   5.764   1.754   2.233  0.4549 -0.0614  0.3671
 1554SOL    HW2 5562   5.713   1.892   2.303  0.5679  0.4532 -0.5543
 1555SOL     OW 5563   5.190   3.141   6.507 -0.7042  0.2675  0.5404
 1555SOL    HW1 5564   5.192   3.045   6.534 -1.6694 -0.0682 -0.4973
 1555SOL    HW2 5565   5.107   3.184   6.544 -0.5471  0.5667  0.5494
 1556SOL     OW 5566   4.173   6.635   7.010 -0.8376 -1.1453 -0.1451
 1556SOL    HW1 5567   4.250   6.604   6.953 -1.2304 -0.8045 -0.8859
 1556SOL    HW2 5568   4.129   6.713   6.965 -0.1345  0.2260  1.4553
 1557SOL     OW 5569   1.439   1.139   2.565 -0.0240  0.1545 -0.0231
 1557SOL    HW1 5570   1.411   1.043   2.571  0.7797 -0.0381  0.8220
 1557SOL    HW2 5571   1.538   1.145   2.564 -0.0364  0.8495 -2.7298
 1558SOL     OW 5572   6.205   3.895   6.579  0.1628 -0.3057  1.1012
 1558SOL    HW1 5573   6.139   3.828   6.544  1.2590 -0.6665 -0.3660
 1558SOL    HW2 5574   6.156   3.965   6.631 -1.6164  0.3555 -1.3086
 1559SOL     OW 5575   1.311   5.021   2.576 -0.3606 -0.1392 -0.6273
 1559SOL    HW1 5576   1.274   5.055   2.490  0.6908  0.6697 -0.7805
 1559SOL    HW2 5577   1.357   4.934   2.562  1.9712  1.1258 -1.4452
 1560SOL     OW 5578   3.842   0.980   1.924  0.0997 -0.5140 -0.5373
 1560SOL    HW1 5579   3.935   0.984   1.960  0.3629  1.2188 -1.3400
 1560SOL    HW2 5580   3.776   0.992   1.999  0.4645 -2.0528  0.0809
 1561SOL     OW 5581   5.755   0.337   1.881 -0.0427 -0.1564  0.2691
 1561SOL    HW1 5582   5.762   0.306   1.976  1.0553 -0.0872  0.2219
 1561SOL    HW2 5583   5.845   0.365   1.848 -0.3248 -0.6052 -0.9467
 1562SOL     OW 5584   2.625   1.986   1.030  0.0461 -0.2505  0.1670
 1562SOL    HW1 5585   2.678   2.016   1.109 -2.6234  0.5625  1.7675
 1562SOL    HW2 5586   2.535   1.955   1.060 -0.0838 -2.6477 -2.2994
 1563SOL     OW 5587   2.263   1.541   5.689 -0.2791 -0.4122 -0.0093
 1563SOL    HW1 5588   2.315   1.621   5.660 -1.2576 -0.2560 -1.4125
 1563SOL    HW2 5589   2.237   1.552   5.785 -0.1412  0.8179 -0.0919
 1564SOL     OW 5590   1.318   2.156   3.744 -0.0522  0.2062 -0.2160
 1564SOL    HW1 5591   1.284   2.066   3.773  1.9599 -0.6558 -0.3668
 1564SOL    HW2 5592   1.247   2.225   3.760 -2.8560 -1.7693 -2.8082
 1565SOL     OW 5593   4.868   0.126   4.735 -0.1336  0.3704 -0.0709
 1565SOL    HW1 5594   4.901   0.168   4.650 -0.6004  1.9626  0.4973
 1565SOL    HW2 5595   4.879   0.191   4.810 -0.3232 -0.7836  0.9665
 1566SOL     OW 5596   5.785   4.653   3.789 -0.6597  0.0132 -0.0989
 1566SOL    HW1 5597   5.755   4.646   3.884  0.0959 -1.2716  0.0761
 1566SOL    HW2 5598   5.799   4.749   3.764 -1.2322  0.3803  0.9612
 1567SOL     OW 5599   5.101   6.130   5.345 -0.6631  0.0196  0.1306
 1567SOL    HW1 5600   5.201   6.134   5.353 -0.5773 -1.1571 -0.1679
 1567SOL    HW2 5601   5.075   6.155   5.251 -0.5289 -1.0154 -0.1981
 1568SOL     OW 5602   1.897   6.643   4.144 -0.2334  0.1620  0.0365
 1568SOL    HW1 5603   1.818   6.669   4.199 -0.1363  0.9692 -0.2033
 1568SOL    HW2 5604   1.932   6.723   4.095  1.5750  0.1107  1.1993
 1569SOL     OW 5605   0.822   1.845   2.740  0.2822  0.1981  0.3265
 1569SOL    HW1 5606   0.850   1.830   2.645 -1.5587  1.1773 -0.4232
 1569SOL    HW2 5607   0.799   1.941   2.753 -2.2975 -0.4333  0.9288
 1570SOL     OW 5608   3.184   0.255   1.995 -0.4840 -0.2218 -0.0442
 1570SOL    HW1 5609   3.207   0.301   2.081 -0.5212 -0.8251  0.2949
 1570SOL    HW2 5610   3.192   0.156   2.007 -1.9528 -0.3930 -0.2944
 1571SOL     OW 5611   1.436   2.336   4.325  0.2866  0.7979  0.0755
 1571SOL    HW1 5612   1.363   2.308   4.263  0.0017  3.6573 -1.0212
 1571SOL    HW2 5613   1.524   2.314   4.285  0.1098 -0.8292  0.4875
 1572SOL     OW 5614   2.318   4.842   1.417 -0.2313 -0.0733 -0.0057
 1572SOL    HW1 5615   2.260   4.890   1.350  0.4559 -0.5722 -0.9834
 1572SOL    HW2 5616   2.395   4.799   1.370  1.3477  1.1472  1.3581
 1573SOL     OW 5617   5.412   5.335   1.249  0.4590  0.2751 -0.7362
 1573SOL    HW1 5618   5.448   5.319   1.341  0.2264  1.7425 -0.3657
 1573SOL    HW2 5619   5.395   5.433   1.237  0.9120  0.1646 -2.5056
 1574SOL     OW 5620   6.166   4.226   0.592  0.0944  0.1928 -0.1395
 1574SOL    HW1 5621   6.189   4.318   0.622  1.0369 -0.2031  0.3739
 1574SOL    HW2 5622   6.089   4.191   0.647 -0.3095  0.6870 -0.3824
 1575SOL     OW 5623   2.306   0.696   2.884  0.2134 -0.0144  0.0248
 1575SOL    HW1 5624   2.385   0.646   2.850  2.5714  3.5438 -0.3450
 1575SOL    HW2 5625   2.246   0.722   2.808 -0.4411 -1.2714  0.0919
 1576SOL     OW 5626   0.859   6.246   3.638  0.0036  0.2111 -0.3274
 1576SOL    HW1 5627   0.827   6.177   3.573 -0.2556 -0.0160  0.0322
 1576SOL    HW2 5628   0.784   6.271   3.699  0.3590  0.0794  0.1775
 1577SOL     OW 5629   4.429   1.195   5.872  0.0705  0.2358 -0.1525
 1577SOL    HW1 5630   4.377   1.154   5.947 -0.5043  0.0273 -0.6546
 1577SOL    HW2 5631   4.495   1.128   5.837 -0.6737 -0.2000 -0.7850
 1578SOL     OW 5632   6.564   0.457   1.469  0.0925  0.9125  0.3875
 1578SOL    HW1 5633   6.531   0.367   1.440  0.6632 -0.1283  2.6690
 1578SOL    HW2 5634   6.646   0.480   1.418 -0.6019  0.6207 -0.9144
 1579SOL     OW 5635   0.841   3.272   0.475 -0.5441 -0.1030  0.4161
 1579SOL    HW1 5636   0.750   3.238   0.454 -1.2041  1.1592  1.1035
 1579SOL    HW2 5637   0.862   3.253   0.571 -0.7681  1.0398  0.7047
 1580SOL     OW 5638   3.603   2.878   4.207 -1.0665  0.1406 -0.3295
 1580SOL    HW1 5639   3.687   2.934   4.206  0.1376 -1.5972 -0.4380
 1580SOL    HW2 5640   3.564   2.879   4.299 -0.5084  0.3598 -0.0863
 1581SOL     OW 5641   0.140   4.924   7.011  0.3822 -0.7724  0.3037
 1581SOL    HW1 5642   0.048   4.961   6.996 -0.1620 -1.5726  1.5577
 1581SOL    HW2 5643   0.208   4.991   6.981 -0.5820 -0.6629 -1.8120
 1582SOL     OW 5644   4.269   0.171   4.226 -0.3277 -0.2215 -0.2126
 1582SOL    HW1 5645   4.300   0.145   4.135  2.3090 -2.1480  1.1015
 1582SOL    HW2 5646   4.334   0.236   4.266 -0.5209 -0.6962  0.9041
 1583SOL     OW 5647   6.903   4.983   5.872  0.3695 -0.0799  0.1359
 1583SOL    HW1 5648   6.959   5.023   5.799  0.2150 -0.0688  0.0232
 1583SOL    HW2 5649   6.893   5.049   5.946 -0.1669  0.2247 -0.1949
 1584SOL     OW 5650   2.368   5.497   6.238  0.0156 -0.4455 -0.2871
 1584SOL    HW1 5651   2.447   5.550   6.207  1.9773 -3.0943 -0.1089
 1584SOL    HW2 5652   2.391   5.446   6.321 -2.8624  0.8767  1.4833
 1585SOL     OW 5653   4.014   0.176   2.754  0.0952  0.0092  0.4412
 1585SOL    HW1 5654   3.917   0.154   2.753  0.4586 -1.7381  0.5307
 1585SOL    HW2 5655   4.062   0.111   2.813  1.6492 -0.7023 -1.5155
 1586SOL     OW 5656   4.045   5.227   5.580  0.0608  0.1980 -0.4727
 1586SOL    HW1 5657   4.075   5.243   5.674  2.1279 -0.9169 -0.8851
 1586SOL    HW2 5658   4.047   5.314   5.530 -1.3134  0.8439  0.5562
 1587SOL     OW 5659   3.234   4.224   6.432 -0.8073  0.0407  0.1773
 1587SOL    HW1 5660   3.307   4.190   6.373  0.6022  1.9466  0.7170
 1587SOL    HW2 5661   3.158   4.257   6.375  0.4655  1.7164 -0.6420
 1588SOL     OW 5662   6.338   6.162   2.037 -0.2533 -0.0365  0.0690
 1588SOL    HW1 5663   6.278   6.141   2.113 -1.7206 -0.8159 -1.2498
 1588SOL    HW2 5664   6.411   6.094   2.032  0.9671  1.0555  1.8253
 1589SOL     OW 5665   6.953   5.680   1.365 -0.1204  0.2510  0.0339
 1589SOL    HW1 5666   6.930   5.593   1.322  0.6851 -0.5368  1.1444
 1589SOL    HW2 5667   6.872   5.715   1.413 -0.7634  0.6906 -1.3268
 1590SOL     OW 5668   5.176   3.165   4.227 -0.1756  0.3315  0.6502
 1590SOL    HW1 5669   5.223   3.117   4.153 -0.0195  1.1185  0.2251
 1590SOL    HW2 5670   5.131   3.099   4.287 -0.8383 -0.2945 -0.5073
 1591SOL     OW 5671   0.520   5.806   1.926 -0.2693 -0.1026  0.1983
 1591SOL    HW1 5672   0.441   5.744   1.926 -0.4360  0.0384  2.2350
 1591SOL    HW2 5673   0.499   5.887   1.981  1.4651 -0.3188  1.2596
 1592SOL     OW 5674   2.631   4.723   4.624  0.0659  0.1780 -0.5283
 1592SOL    HW1 5675   2.564   4.666   4.671  0.8528  0.1219  0.5732
 1592SOL    HW2 5676   2.655   4.681   4.536  2.6838 -2.8345  1.3730
 1593SOL     OW 5677   0.321   6.857   0.515  0.5299  0.4330 -0.1430
 1593SOL    HW1 5678   0.240   6.803   0.491  0.8147 -0.6590  1.2302
 1593SOL    HW2 5679   0.311   6.949   0.478 -1.3120  0.3013 -0.0844
 1594SOL     OW 5680   5.496   1.095   3.100 -0.2302  0.0419 -0.1140
 1594SOL    HW1 5681   5.448   1.183   3.099  0.0245  0.1781 -0.2252
 1594SOL    HW2 5682   5.513   1.067   3.195 -1.9498 -0.7797 -0.0041
 1595SOL     OW 5683   0.878   5.620   6.696  0.3472 -0.4065  0.0606
 1595SOL    HW1 5684   0.955   5.684   6.699  0.9181 -0.9936 -1.1131
 1595SOL    HW2 5685   0.795   5.665   6.728  1.0981  0.3586  0.9758
 1596SOL     OW 5686   6.392   4.367   2.610 -0.1209  0.0776 -0.4466
 1596SOL    HW1 5687   6.490   4.350   2.600 -0.1838 -0.7954  0.2913
 1596SOL    HW2 5688   6.362   4.338   2.701 -0.7541  1.9423 -0.0318
 1597SOL     OW 5689   3.253   3.491   0.404  0.5266 -0.1324 -0.3866
 1597SOL    HW1 5690   3.252   3.397   0.438 -0.2431  0.3003  0.8106
 1597SOL    HW2 5691   3.198   3.497   0.321 -0.5927 -0.4535  0.3216
 1598SOL     OW 5692   2.992   5.099   0.102  0.5107  0.1661 -0.5818
 1598SOL    HW1 5693   3.086   5.093   0.137 -0.1826 -0.2245  1.3453
 1598SOL    HW2 5694   2.947   5.011   0.114 -0.2999  0.5378 -0.8723
 1599SOL     OW 5695   4.515   5.717   3.771 -0.5367 -0.1375  0.6108
 1599SOL    HW1 5696   4.596   5.659   3.766 -0.3174  0.1389  0.9634
 1599SOL    HW2 5697   4.542   5.811   3.788 -0.9599 -0.1314  1.2795
 1600SOL     OW 5698   3.172   0.040   3.418  0.2677 -0.3062 -0.5326
 1600SOL    HW1 5699   3.098   0.019   3.482  0.8905 -0.9047  0.0091
 1600SOL    HW2 5700   3.246   0.086   3.467 -0.1214  1.1616 -1.2566
 1601SOL     OW 5701   6.973   6.682   6.676  0.5864  0.9358 -0.6707
 1601SOL    HW1 5702   6.928   6.660   6.589  1.7307  0.7474 -1.2287
 1601SOL    HW2 5703   6.953   6.777   6.700 -1.9042  0.2661  0.2344
 1602SOL     OW 5704   5.711   5.728   3.786 -0.2899 -0.3382  0.4804
 1602SOL    HW1 5705   5.679   5.634   3.777 -0.7974  0.0203 -2.2153
 1602SOL    HW2 5706   5.779   5.747   3.716 -0.0320  1.2594  1.1186
 1603SOL     OW 5707   4.136   5.249   2.577  0.3063  0.0745  0.2503
 1603SOL    HW1 5708   4.101   5.160   2.609  1.5961 -0.9007 -0.9022
 1603SOL    HW2 5709   4.220   5.234   2.524 -0.4789  1.7985 -1.6080
 1604SOL     OW 5710   3.823   4.464   1.156 -0.2952 -0.4548  0.1743
 1604SOL    HW1 5711   3.830   4.559   1.185 -2.1497 -0.3319  0.3341
 1604SOL    HW2 5712   3.732   4.429   1.177 -0.1964 -1.7746 -1.3738
 1605SOL     OW 5713   5.212   4.632   2.010  0.0410 -0.6076 -0.4051
 1605SOL    HW1 5714   5.259   4.624   2.098 -0.5413 -0.1029 -0.0399
 1605SOL    HW2 5715   5.246   4.562   1.948  0.3037 -1.1086  0.2922
 1606SOL     OW 5716   4.730   5.694   2.547 -0.3424  0.1325 -0.6176
 1606SOL    HW1 5717   4.746   5.669   2.452 -0.3418 -2.1704 -0.0625
 1606SOL    HW2 5718   4.765   5.623   2.607 -1.9919  0.6291  1.0511
 1607SOL     OW 5719   5.986   0.556   2.247 -0.0491  0.0527 -0.6172
 1607SOL    HW1 5720   5.888   0.571   2.241 -0.0798  0.0735 -0.1527
 1607SOL    HW2 5721   6.026   0.622   2.311  0.0260 -0.9249  0.3765
 1608SOL     OW 5722   2.331   6.666   4.728 -0.2416 -0.6795 -0.7529
 1608SOL    HW1 5723   2.375   6.709   4.806 -0.3268  0.0103 -1.0752
 1608SOL    HW2 5724   2.383   6.687   4.645 -1.0009 -0.1022 -1.0954
 1609SOL     OW 5725   5.575   5.621   0.573 -0.1005 -0.3305 -0.0198
 1609SOL    HW1 5726   5.532   5.543   0.619  0.4505 -0.4455  0.3135
 1609SOL    HW2 5727   5.674   5.616   0.586 -0.0560  0.3806 -0.0737
 1610SOL     OW 5728   3.251   0.477   5.921 -0.1765 -0.0368  0.1105
 1610SOL    HW1 5729   3.199   0.458   6.005  0.9808 -1.8238  0.4677
 1610SOL    HW2 5730   3.219   0.417   5.848  1.4591 -1.2939  0.3838
 1611SOL     OW 5731   1.292   4.017   1.413 -0.2758 -0.1826  0.2404
 1611SOL    HW1 5732   1.215   4.016   1.476  0.0614 -1.7725  0.6502
 1611SOL    HW2 5733   1.284   4.097   1.353 -1.5289  0.3899  1.1286
 1612SOL     OW 5734   4.435   5.173   6.819  0.3952 -0.2162  0.5996
 1612SOL    HW1 5735   4.530   5.167   6.789  0.1805  1.1304 -0.4705
 1612SOL    HW2 5736   4.411   5.091   6.871  1.8574 -1.0101  0.0824
 1613SOL     OW 5737   1.782   4.875   1.134 -0.5181  0.0120 -0.6475
 1613SOL    HW1 5738   1.716   4.824   1.190 -1.0732  2.4991  1.1472
 1613SOL    HW2 5739   1.871   4.832   1.141 -0.8735 -0.5331  1.1412
 1614SOL     OW 5740   4.106   2.384   6.500  0.1793 -0.3022 -0.3755
 1614SOL    HW1 5741   4.026   2.424   6.545 -0.3700  0.3411 -1.8839
 1614SOL    HW2 5742   4.185   2.444   6.514  0.1044 -0.2961  0.0423
 1615SOL     OW 5743   1.997   5.271   6.950 -0.3030 -0.2204 -0.3466
 1615SOL    HW1 5744   1.963   5.178   6.964 -1.2477  0.0685 -0.6593
 1615SOL    HW2 5745   2.052   5.274   6.866 -0.6208 -0.4063 -0.5631
 1616SOL     OW 5746   3.079   0.085   5.645 -0.3082  0.0529 -0.2639
 1616SOL    HW1 5747   3.130   0.044   5.720  1.8872  1.5571 -0.8392
 1616SOL    HW2 5748   2.997   0.130   5.681 -1.1234 -2.0855  0.7296
 1617SOL     OW 5749   7.012   0.695   3.745 -0.3980  0.3831 -0.4951
 1617SOL    HW1 5750   7.098   0.677   3.793 -0.2095  1.9632 -0.1735
 1617SOL    HW2 5751   6.936   0.661   3.800 -0.0132 -0.8693 -0.6994
 1618SOL     OW 5752   0.810   6.167   1.948  0.2392  0.1391  0.1795
 1618SOL    HW1 5753   0.747   6.234   1.990  0.8486 -0.6260  2.4753
 1618SOL    HW2 5754   0.849   6.206   1.865  0.5800  2.6916  1.4202
 1619SOL     OW 5755   0.477   4.015   6.634 -0.2927 -0.8228  0.2942
 1619SOL    HW1 5756   0.435   4.085   6.576  1.8421 -0.0848 -0.4592
 1619SOL    HW2 5757   0.444   3.924   6.606  1.2495 -0.5688 -2.7098
 1620SOL     OW 5758   4.562   4.009   0.002  0.3340  0.2364 -0.6402
 1620SOL    HW1 5759   4.508   3.951  -0.060 -1.0759 -0.4480  1.1592
 1620SOL    HW2 5760   4.626   3.951   0.054  0.0495  0.5062  0.0175
 1621SOL     OW 5761   5.408   6.597   2.278 -0.3506  0.2823  0.3644
 1621SOL    HW1 5762   5.350   6.666   2.322 -0.5064 -0.7454  1.8407
 1621SOL    HW2 5763   5.501   6.604   2.314 -0.4095 -0.3809  0.6614
 1622SOL     OW 5764   5.619   4.989   4.521  0.3681  0.5738  0.3994
 1622SOL    HW1 5765   5.610   4.961   4.617 -0.5446 -1.0515 -0.1214
 1622SOL    HW2 5766   5.715   4.985   4.494  0.5773  0.6349  1.1223
 1623SOL     OW 5767   0.613   2.164   5.652  0.1358  0.1226  0.0389
 1623SOL    HW1 5768   0.520   2.201   5.650 -0.0346 -0.2579  0.6700
 1623SOL    HW2 5769   0.645   2.151   5.558  0.6224  2.8274 -0.2300
 1624SOL     OW 5770   3.627   0.057   1.224 -0.1989  0.0285  0.6460
 1624SOL    HW1 5771   3.617   0.121   1.148 -0.9641  1.7653  2.1328
 1624SOL    HW2 5772   3.672   0.104   1.300  1.1367 -1.8545  1.0881
 1625SOL     OW 5773   3.606   5.341   0.921  0.4939 -0.2750  0.2806
 1625SOL    HW1 5774   3.632   5.373   1.013 -0.0004  1.2460 -0.0913
 1625SOL    HW2 5775   3.508   5.324   0.919  0.7347 -1.8117  0.4471
 1626SOL     OW 5776   2.459   1.034   3.958 -0.3000  0.2175  0.4905
 1626SOL    HW1 5777   2.552   1.012   3.987  0.5558  0.8268 -1.5550
 1626SOL    HW2 5778   2.462   1.107   3.890 -2.2741  0.1183  0.2286
 1627SOL     OW 5779   6.185   0.678   3.884 -0.7213 -0.6185  0.2436
 1627SOL    HW1 5780   6.141   0.744   3.823 -2.1120  0.1559  2.0045
 1627SOL    HW2 5781   6.238   0.726   3.953  1.9774 -1.5220 -1.0493
 1628SOL     OW 5782   5.893   5.773   0.297 -0.7392  0.3604 -0.3435
 1628SOL    HW1 5783   5.948   5.841   0.248 -0.9038  0.8349  0.1214
 1628SOL    HW2 5784   5.953   5.711   0.347 -0.5727 -0.0690 -1.0569
 1629SOL     OW 5785   1.409   0.976   4.697  0.1517 -0.0009  0.1480
 1629SOL    HW1 5786   1.327   1.033   4.701  1.4880  1.9764  0.9026
 1629SOL    HW2 5787   1.383   0.883   4.671 -2.4050  0.3683  1.0534
 1630SOL     OW 5788   6.053   3.113   5.937 -0.1003 -0.5946 -0.2665
 1630SOL    HW1 5789   6.024   3.184   5.873  0.3514 -1.0888 -1.0360
 1630SOL    HW2 5790   5.981   3.099   6.005 -0.6560 -0.1559 -0.7504
 1631SOL     OW 5791   0.750   2.513   1.477  0.1817 -0.8482  0.4911
 1631SOL    HW1 5792   0.692   2.432   1.485  0.0561 -0.8649 -0.4593
 1631SOL    HW2 5793   0.765   2.534   1.380 -0.4112  0.7027  0.7046
 1632SOL     OW 5794   5.772   4.552   4.088 -0.6441 -0.2007 -0.8022
 1632SOL    HW1 5795   5.739   4.485   4.154 -0.6511 -0.6518 -1.2588
 1632SOL    HW2 5796   5.757   4.645   4.124  1.3675 -0.4326  0.8267
 1633SOL     OW 5797   4.973   3.298   3.893  0.0446 -0.7072 -0.0083
 1633SOL    HW1 5798   4.953   3.201   3.900 -0.5001 -0.6186 -0.2442
 1633SOL    HW2 5799   4.992   3.335   3.983 -0.4999 -0.8805  0.1804
 1634SOL     OW 5800   3.555   1.715   3.862 -0.1080  0.3572 -0.2230
 1634SOL    HW1 5801   3.551   1.754   3.954  0.2772 -1.3133  0.5422
 1634SOL    HW2 5802   3.650   1.696   3.838 -0.0483  2.2675 -1.6569
 1635SOL     OW 5803   4.577   3.967   5.990  0.3035  0.0394 -0.0215
 1635SOL    HW1 5804   4.605   4.062   5.984  0.9557 -0.2374 -2.4910
 1635SOL    HW2 5805   4.630   3.912   5.924 -1.7631 -1.5914 -0.4406
 1636SOL     OW 5806   4.324   6.049   0.703  0.3827  0.1591  0.1360
 1636SOL    HW1 5807   4.400   6.051   0.638  0.6012  1.8008  0.3970
 1636SOL    HW2 5808   4.349   6.102   0.784 -0.1977 -1.1767  1.2259
 1637SOL     OW 5809   5.906   6.465   5.381 -0.3520 -0.2990 -0.0811
 1637SOL    HW1 5810   5.910   6.563   5.399 -0.6947 -0.6282  2.1804
 1637SOL    HW2 5811   5.979   6.419   5.431 -1.2711 -1.3497  0.3562
 1638SOL     OW 5812   1.405   4.036   0.682 -0.1539  0.3185  0.1906
 1638SOL    HW1 5813   1.503   4.033   0.701 -0.0541 -0.5540 -0.4119
 1638SOL    HW2 5814   1.354   4.008   0.764  0.2311 -2.1933 -0.3471
 1639SOL     OW 5815   6.847   4.144   2.354 -0.4307  0.1408 -0.0183
 1639SOL    HW1 5816   6.847   4.085   2.435 -0.8433  0.0328 -0.0920
 1639SOL    HW2 5817   6.911   4.107   2.287 -0.9692 -0.4640 -0.2218
 1640SOL     OW 5818   4.742   0.037   1.943 -0.1590 -0.5083  0.0951
 1640SOL    HW1 5819   4.760   0.121   1.892 -0.8933  1.5184  2.9246
 1640SOL    HW2 5820   4.643   0.027   1.958  0.0421 -0.8636  1.3249
 1641SOL     OW 5821   6.882   3.523   2.412  0.8422 -0.4253  0.0962
 1641SOL    HW1 5822   6.853   3.504   2.505 -1.1064 -1.1770 -0.6253
 1641SOL    HW2 5823   6.864   3.619   2.390 -0.8257 -0.7887 -0.2143
 1642SOL     OW 5824   5.947   1.928   6.746  0.0490  0.2511 -0.5902
 1642SOL    HW1 5825   5.877   1.935   6.675 -0.4642 -0.1791 -0.1378
 1642SOL    HW2 5826   5.905   1.899   6.832  0.7559  0.1501 -0.2678
 1643SOL     OW 5827   1.468   5.006   2.910  0.2576  0.2216  0.1472
 1643SOL    HW1 5828   1.377   4.996   2.951  0.5675  1.4109  1.1875
 1643SOL    HW2 5829   1.460   4.994   2.811 -1.0206  0.1830  0.2275
 1644SOL     OW 5830   6.592   2.076   2.173  0.0655 -0.4800  0.1345
 1644SOL    HW1 5831   6.680   2.115   2.199 -0.5554 -0.1372  1.8834
 1644SOL    HW2 5832   6.601   1.977   2.162  0.3623 -0.6688  1.8655
 1645SOL     OW 5833   1.937   1.053   5.626 -0.4665 -0.2972 -0.6210
 1645SOL    HW1 5834   1.938   1.085   5.720 -1.4874  0.7002 -0.9276
 1645SOL    HW2 5835   2.027   1.016   5.602  0.0796  0.3076  0.4422
 1646SOL     OW 5836   2.676   5.013   7.013  0.5139 -0.5387  0.4378
 1646SOL    HW1 5837   2.590   5.045   7.052  0.9055 -0.5925  1.3829
 1646SOL    HW2 5838   2.669   5.011   6.913  0.0338  1.1786  0.4053
 1647SOL     OW 5839   6.666   1.504   4.183 -0.4504 -0.5660  0.1841
 1647SOL    HW1 5840   6.584   1.553   4.212  0.5324  0.4074  1.4336
 1647SOL    HW2 5841   6.705   1.549   4.102  0.5017  0.8729  1.3792
 1648SOL     OW 5842   6.277   3.237   2.300  0.0588 -0.2691  0.2319
 1648SOL    HW1 5843   6.190   3.255   2.345  1.0683 -0.1462  2.2735
 1648SOL    HW2 5844   6.261   3.199   2.209 -2.0991  0.2962  0.3328
 1649SOL     OW 5845   3.949   0.008   2.344  0.4509  0.7973 -0.4723
 1649SOL    HW1 5846   3.918  -0.065   2.406 -0.7434  1.1176 -0.6687
 1649SOL    HW2 5847   4.049   0.015   2.348  0.3793  1.2486  1.9117
 1650SOL     OW 5848   1.228   4.991   5.594  0.3643 -0.1985  0.2128
 1650SOL    HW1 5849   1.140   5.015   5.555  0.2063 -0.0173  0.6663
 1650SOL    HW2 5850   1.280   4.935   5.530 -1.3001 -2.9586  1.0766
 1651SOL     OW 5851   6.965   3.851   3.695 -0.3165  0.1903  0.3660
 1651SOL    HW1 5852   6.912   3.781   3.646 -0.5875  0.5202  0.1797
 1651SOL    HW2 5853   7.014   3.908   3.629 -0.6899  0.6436  0.4736
 1652SOL     OW 5854   1.549   2.503   3.137  0.2164 -0.8884  0.2591
 1652SOL    HW1 5855   1.519   2.559   3.060 -2.4385 -1.5186  0.7488
 1652SOL    HW2 5856   1.647   2.519   3.154  0.2130  1.3609 -1.4270
 1653SOL     OW 5857   5.689   4.827   2.406  0.2700  0.3688 -0.2574
 1653SOL    HW1 5858   5.777   4.808   2.364  0.8403  0.7636  0.7147
 1653SOL    HW2 5859   5.687   4.921   2.440 -0.6316  0.4516 -0.5113
 1654SOL     OW 5860   1.332   3.233   1.510 -0.1760  0.6086  0.3278
 1654SOL    HW1 5861   1.424   3.216   1.476 -0.2292  0.2124  0.3847
 1654SOL    HW2 5862   1.280   3.284   1.440 -0.1220  0.2481  0.0220
 1655SOL     OW 5863   1.894   0.286   6.167 -0.7509  0.1131 -0.2156
 1655SOL    HW1 5864   1.946   0.250   6.244  1.9650  2.7929 -0.5837
 1655SOL    HW2 5865   1.835   0.360   6.198 -3.1203 -1.6970 -0.1193
 1656SOL     OW 5866   0.642   6.056   5.635 -0.4133  0.1478  0.4088
 1656SOL    HW1 5867   0.674   5.992   5.706 -0.4956  2.1277  2.3317
 1656SOL    HW2 5868   0.660   6.017   5.545 -1.5928 -3.1248  1.4400
 1657SOL     OW 5869   6.482   1.492   6.549 -0.1844 -0.6275 -0.0654
 1657SOL    HW1 5870   6.407   1.535   6.498  1.5448  0.4776 -1.8363
 1657SOL    HW2 5871   6.446   1.418   6.605 -2.8150  0.8507  0.3976
 1658SOL     OW 5872   0.165   6.074   1.606 -0.6612  0.0235  0.0677
 1658SOL    HW1 5873   0.243   6.030   1.562  0.8823  1.1253  1.6151
 1658SOL    HW2 5874   0.081   6.045   1.560  0.6387 -1.0460 -1.7599
 1659SOL     OW 5875   6.344   5.723   0.728 -0.5841  0.9757 -0.8016
 1659SOL    HW1 5876   6.323   5.739   0.631 -1.9357  3.0272 -0.2231
 1659SOL    HW2 5877   6.280   5.773   0.785 -0.4069 -0.9508  1.2235
 1660SOL     OW 5878   0.825   6.395   2.801  0.5604 -0.1378 -0.4183
 1660SOL    HW1 5879   0.789   6.394   2.894 -0.2086 -1.1505 -0.7130
 1660SOL    HW2 5880   0.876   6.311   2.784 -1.1321 -0.9880 -1.5844
 1661SOL     OW 5881   2.046   4.085   1.623 -0.2250  0.1108 -0.0196
 1661SOL    HW1 5882   2.026   3.993   1.656 -0.0457 -0.3194 -1.0631
 1661SOL    HW2 5883   2.010   4.096   1.530 -1.0561  1.4064  0.4239
 1662SOL     OW 5884   5.380   2.581   7.009  0.2354  0.0048 -0.0181
 1662SOL    HW1 5885   5.475   2.574   6.979  0.7158 -0.1992  1.4794
 1662SOL    HW2 5886   5.358   2.677   7.028  0.2469  0.0110 -0.0366
 1663SOL     OW 5887   4.581   5.953   2.417 -0.1251 -0.4329  0.1836
 1663SOL    HW1 5888   4.575   5.853   2.416 -0.0240 -0.4393 -0.1934
 1663SOL    HW2 5889   4.544   5.988   2.502 -0.8890 -0.7471 -0.0102
 1664SOL     OW 5890   1.181   0.649   5.171 -0.4595 -0.7012 -0.6255
 1664SOL    HW1 5891   1.129   0.639   5.255  0.2062 -1.1369 -0.2537
 1664SOL    HW2 5892   1.267   0.598   5.179  0.9399  1.5460 -0.4597
 1665SOL     OW 5893   1.300   2.840   0.505 -0.0567 -0.1016  0.0299
 1665SOL    HW1 5894   1.235   2.897   0.556  1.0244 -0.0908  1.4526
 1665SOL    HW2 5895   1.319   2.883   0.417  0.4464  1.5957  0.9172
 1666SOL     OW 5896   5.848   6.416   6.790  0.0984  0.1483  0.2307
 1666SOL    HW1 5897   5.790   6.441   6.712  0.9648  0.3399 -0.3739
 1666SOL    HW2 5898   5.918   6.351   6.759  1.3832  1.3598  0.4819
 1667SOL     OW 5899   0.334   0.380   1.715  0.1076  0.2580  0.1116
 1667SOL    HW1 5900   0.400   0.316   1.676  1.4202  1.2751  0.6077
 1667SOL    HW2 5901   0.363   0.474   1.695 -1.1809  0.7250  0.3638
 1668SOL     OW 5902   5.491   4.937   1.729  0.0595  0.6083 -0.6602
 1668SOL    HW1 5903   5.513   4.924   1.826 -2.4791  3.3613  0.4556
 1668SOL    HW2 5904   5.458   4.851   1.690 -1.0711 -0.0438  1.5945
 1669SOL     OW 5905   0.398   5.163   7.020  0.1894  0.7344  0.1953
 1669SOL    HW1 5906   0.435   5.239   6.967 -0.0359  1.4442  1.0280
 1669SOL    HW2 5907   0.419   5.077   6.974  0.5195  1.2881 -0.7232
 1670SOL     OW 5908   1.089   5.534   4.674  0.6150  0.1904  0.3747
 1670SOL    HW1 5909   1.012   5.569   4.621 -0.2734 -0.5899  1.1359
 1670SOL    HW2 5910   1.104   5.593   4.753 -0.8513 -1.0507  1.6303
 1671SOL     OW 5911   5.302   0.156   2.307 -0.1424  0.1874 -0.2554
 1671SOL    HW1 5912   5.239   0.090   2.348 -2.0611  2.3224  0.4318
 1671SOL    HW2 5913   5.251   0.223   2.253  1.6579  1.4281 -0.5269
 1672SOL     OW 5914   4.085   5.181   5.972 -0.1918 -0.2277 -0.5219
 1672SOL    HW1 5915   3.999   5.135   5.949 -2.0716  1.9843  1.5042
 1672SOL    HW2 5916   4.149   5.115   6.010 -2.4037 -1.4153  1.3513
 1673SOL     OW 5917   1.769   1.712   3.198  0.6247 -0.3952 -0.3361
 1673SOL    HW1 5918   1.769   1.812   3.206 -2.4026 -0.4757  2.7195
 1673SOL    HW2 5919   1.728   1.685   3.111 -1.3025  1.0964  0.0489
 1674SOL     OW 5920   4.718   3.546   1.698  0.5361 -0.1427 -0.3552
 1674SOL    HW1 5921   4.682   3.492   1.622  0.5177 -0.2443 -0.2730
 1674SOL    HW2 5922   4.703   3.643   1.679 -1.3473 -0.2419  0.4667
 1675SOL     OW 5923   4.608   6.636   2.520  0.2455  0.2771  0.5787
 1675SOL    HW1 5924   4.635   6.547   2.556 -0.0430  0.8008  2.1551
 1675SOL    HW2 5925   4.525   6.668   2.566  1.0553  1.9272  0.9556
 1676SOL     OW 5926   2.078   3.500   3.693 -0.3257  0.1103  0.0604
 1676SOL    HW1 5927   2.005   3.434   3.711 -0.4657  0.6306  1.4971
 1676SOL    HW2 5928   2.142   3.502   3.770  0.1798  0.9966 -0.3581
 1677SOL     OW 5929   3.787   2.891   2.093  0.5085  0.2289  0.4594
 1677SOL    HW1 5930   3.784   2.928   2.186 -1.4716 -2.6049  1.6880
 1677SOL    HW2 5931   3.852   2.816   2.089 -0.3907 -0.5386 -0.0496
 1678SOL     OW 5932   0.212   0.524   0.989  0.5435 -0.0616  0.3066
 1678SOL    HW1 5933   0.269   0.606   0.996  1.1645 -0.4657  0.1162
 1678SOL    HW2 5934   0.116   0.550   0.978  0.7412  0.6352  0.1953
 1679SOL     OW 5935   2.761   1.720   5.305  0.2041 -0.2677  1.1657
 1679SOL    HW1 5936   2.680   1.737   5.249 -0.2350 -1.3241  1.4573
 1679SOL    HW2 5937   2.795   1.807   5.341 -0.2233  0.2870  0.2528
 1680SOL     OW 5938   5.504   2.311   4.396  0.1956  1.2695 -0.0998
 1680SOL    HW1 5939   5.531   2.224   4.437  0.5779  1.8373  0.9123
 1680SOL    HW2 5940   5.405   2.320   4.400 -0.0406  0.0362 -2.0289
 1681SOL     OW 5941   1.957   6.572   5.901  0.4729 -0.7832 -0.2751
 1681SOL    HW1 5942   1.971   6.480   5.865  0.0938 -0.3597 -1.5459
 1681SOL    HW2 5943   1.862   6.583   5.930  0.4299 -0.6839 -0.4521
 1682SOL     OW 5944   3.816   6.513   3.772  0.4496 -0.4299 -0.8305
 1682SOL    HW1 5945   3.774   6.432   3.814 -0.4533 -0.1060 -1.0780
 1682SOL    HW2 5946   3.885   6.484   3.706  2.2389 -0.9462  1.1667
 1683SOL     OW 5947   5.043   5.487   1.967 -0.2257  0.2668 -0.7108
 1683SOL    HW1 5948   4.962   5.453   2.015 -0.4519  0.9403 -0.6001
 1683SOL    HW2 5949   5.026   5.580   1.936  0.4500  0.3529 -0.8326
 1684SOL     OW 5950   1.394   3.701   0.678 -0.1388 -0.2593  0.3636
 1684SOL    HW1 5951   1.387   3.659   0.769  2.1691  1.0390  1.2477
 1684SOL    HW2 5952   1.376   3.799   0.685 -1.4989 -0.3870 -0.9118
 1685SOL     OW 5953   0.928   1.005   6.337 -0.3313 -0.4322 -0.7104
 1685SOL    HW1 5954   0.872   0.945   6.393 -1.3779  0.7029 -0.4783
 1685SOL    HW2 5955   0.968   0.953   6.261  0.1245 -1.7225  0.3853
 1686SOL     OW 5956   3.028   6.937   2.753 -0.0634 -0.0440  0.5514
 1686SOL    HW1 5957   2.943   6.890   2.775  0.9271 -2.1100  0.1894
 1686SOL    HW2 5958   3.080   6.952   2.837  0.3887 -1.2112  0.4996
 1687SOL     OW 5959   6.233   4.889   3.505  0.3106  0.1250 -0.0804
 1687SOL    HW1 5960   6.269   4.982   3.512 -1.3273  0.9292 -1.4335
 1687SOL    HW2 5961   6.215   4.853   3.596  0.3819  1.3919  0.4547
 1688SOL     OW 5962   1.396   3.141   4.621  0.3372  0.2614 -0.5227
 1688SOL    HW1 5963   1.310   3.139   4.672 -0.3722  1.4129 -1.6351
 1688SOL    HW2 5964   1.411   3.052   4.578  0.6876 -0.5630  1.2051
 1689SOL     OW 5965   0.698   1.733   2.368 -0.1982 -0.2583  0.1125
 1689SOL    HW1 5966   0.797   1.742   2.369 -0.2817  0.8336  1.1225
 1689SOL    HW2 5967   0.670   1.670   2.441 -0.1649 -2.0736 -1.3678
 1690SOL     OW 5968   6.902   4.083   3.378  0.1512  0.1153 -0.5741
 1690SOL    HW1 5969   6.870   4.177   3.387 -0.5647 -0.1498 -0.2768
 1690SOL    HW2 5970   6.824   4.021   3.382  0.8589 -0.7325  2.7647
 1691SOL     OW 5971   4.886   2.351   5.071 -0.1618 -0.6241  0.0528
 1691SOL    HW1 5972   4.895   2.450   5.064  0.5685 -0.7613 -1.2259
 1691SOL    HW2 5973   4.971   2.312   5.106 -0.0616 -0.8838 -0.4695
 1692SOL     OW 5974   5.763   6.268   1.985  0.1326  0.1584 -0.1408
 1692SOL    HW1 5975   5.685   6.287   1.925  0.2654 -1.0266 -0.7173
 1692SOL    HW2 5976   5.780   6.347   2.043 -2.7895 -0.2312  1.4749
 1693SOL     OW 5977   0.121   1.516   4.755 -0.1434 -0.5447  0.7337
 1693SOL    HW1 5978   0.025   1.533   4.732 -0.3845 -2.4497  0.1541
 1693SOL    HW2 5979   0.128   1.491   4.851 -0.4330 -1.6776  0.4752
 1694SOL     OW 5980   6.191   3.293   4.660 -0.2588  0.1361  0.0667
 1694SOL    HW1 5981   6.205   3.384   4.700 -2.1214  0.4029  0.2041
 1694SOL    HW2 5982   6.280   3.248   4.648  0.6357  1.6050  0.8276
 1695SOL     OW 5983   4.035   1.147   5.673  0.1626  0.2292 -0.3108
 1695SOL    HW1 5984   3.992   1.183   5.756 -1.4605  0.1696 -1.1026
 1695SOL    HW2 5985   4.072   1.223   5.619 -1.1120  0.5186 -0.7989
 1696SOL     OW 5986   4.433   3.688   0.779 -0.7118 -0.2382  0.0654
 1696SOL    HW1 5987   4.485   3.745   0.716  1.0864 -2.6967 -0.7747
 1696SOL    HW2 5988   4.432   3.732   0.869 -0.7953  1.8683 -0.8982
 1697SOL     OW 5989   0.312   2.093   0.682 -0.2731 -0.0324  0.0226
 1697SOL    HW1 5990   0.392   2.119   0.737  0.6555 -0.1746 -1.2354
 1697SOL    HW2 5991   0.303   1.993   0.681  1.0376 -0.1798 -1.8470
 1698SOL     OW 5992   3.825   0.875   1.273 -0.0448  0.7883  0.3089
 1698SOL    HW1 5993   3.768   0.877   1.356 -1.9721  1.4224 -0.9570
 1698SOL    HW2 5994   3.913   0.832   1.294 -0.0448  1.8920  2.9163
 1699SOL     OW 5995   3.905   6.799   6.465 -0.1501  0.3696  0.2098
 1699SOL    HW1 5996   3.854   6.860   6.525  0.0972  1.6562 -0.8407
 1699SOL    HW2 5997   3.943   6.851   6.388 -0.7289 -1.2594 -1.2515
 1700SOL     OW 5998   4.799   3.055   3.612 -0.4368 -0.2496  0.1337
 1700SOL    HW1 5999   4.716   3.094   3.572 -0.6230  1.3270  1.9066
 1700SOL    HW2 6000   4.874   3.120   3.604  0.1712 -0.9443  0.1190
 1701SOL     OW 6001   5.344   5.616   3.533  0.4543 -0.1185 -0.1578
 1701SOL    HW1 6002   5.336   5.574   3.624 -1.5314 -2.2640 -1.2148
 1701SOL    HW2 6003   5.325   5.714   3.540  0.4648 -0.2181  1.7638
 1702SOL     OW 6004   1.807   1.792   6.788  0.1372 -0.1998 -0.1102
 1702SOL    HW1 6005   1.799   1.714   6.849  0.9915  0.8521  1.4116
 1702SOL    HW2 6006   1.747   1.779   6.709 -0.9798 -1.6118  0.9259
 1703SOL     OW 6007   2.169   2.221   5.188  0.1996  0.1758 -0.2586
 1703SOL    HW1 6008   2.259   2.240   5.148  1.3592 -0.1507  2.0304
 1703SOL    HW2 6009   2.181   2.169   5.273 -2.0606  1.1590  0.7326
 1704SOL     OW 6010   2.461   1.838   0.683 -0.5632  0.0715  0.0171
 1704SOL    HW1 6011   2.391   1.842   0.755  0.1444  1.9562  0.6519
 1704SOL    HW2 6012   2.427   1.882   0.601 -0.6548 -0.3517 -0.1759
 1705SOL     OW 6013   5.121   2.202   6.641  0.1697 -0.1598 -0.8914
 1705SOL    HW1 6014   5.220   2.214   6.641  0.1788 -0.0754 -2.1258
 1705SOL    HW2 6015   5.081   2.243   6.723  1.4861 -3.2950  1.5305
 1706SOL     OW 6016   3.693   5.435   1.525 -0.2406  0.3289  0.1880
 1706SOL    HW1 6017   3.630   5.446   1.602  0.3401  2.0561  0.4731
 1706SOL    HW2 6018   3.784   5.468   1.551  1.1768 -3.1227  0.1562
 1707SOL     OW 6019   5.178   0.598   3.965  0.1819 -0.0172  0.2453
 1707SOL    HW1 6020   5.151   0.693   3.955 -0.0889 -0.0458  0.6935
 1707SOL    HW2 6021   5.195   0.578   4.061 -0.0893 -0.5078  0.1956
 1708SOL     OW 6022   3.418   6.283   1.420  0.5193  0.2967  0.0539
 1708SOL    HW1 6023   3.490   6.218   1.398 -0.2918 -0.3469 -0.8225
 1708SOL    HW2 6024   3.407   6.290   1.519 -1.4802 -3.3673  0.2504
 1709SOL     OW 6025   5.650   0.085   1.184 -0.0096 -0.3653  0.0516
 1709SOL    HW1 6026   5.679  -0.005   1.151  0.6623 -1.0088  2.1885
 1709SOL    HW2 6027   5.727   0.131   1.229 -0.9734  0.1221  1.2893
 1710SOL     OW 6028   3.947   6.590   2.785 -0.1343 -0.3536  0.2426
 1710SOL    HW1 6029   3.895   6.505   2.796  1.1534 -1.0072  1.5573
 1710SOL    HW2 6030   3.934   6.648   2.866 -0.8243  0.6285 -0.5437
 1711SOL     OW 6031   1.883   4.778   5.426 -0.2851 -0.0864  0.3091
 1711SOL    HW1 6032   1.872   4.869   5.386  0.8231 -0.7558 -1.6536
 1711SOL    HW2 6033   1.833   4.773   5.512  0.2629  2.6181  0.8715
 1712SOL     OW 6034   6.784   2.272   3.233 -0.5521 -0.4544 -0.3390
 1712SOL    HW1 6035   6.715   2.281   3.305 -1.2266  1.2651 -1.1322
 1712SOL    HW2 6036   6.763   2.337   3.160  0.5988 -1.5586 -1.6928
 1713SOL     OW 6037   3.501   0.055   2.962 -0.4643  0.6760  0.5736
 1713SOL    HW1 6038   3.526  -0.031   2.918 -0.0364 -0.0303  2.1373
 1713SOL    HW2 6039   3.567   0.076   3.034 -2.3075  0.6448  2.3744
 1714SOL     OW 6040   4.410   4.632   0.429  0.4310 -0.0299  0.3300
 1714SOL    HW1 6041   4.470   4.709   0.408 -0.1256 -0.2239 -2.4489
 1714SOL    HW2 6042   4.438   4.552   0.376 -2.1729 -0.1380 -1.0660
 1715SOL     OW 6043   0.024   5.942   1.878  0.1877  0.4445  0.0200
 1715SOL    HW1 6044   0.088   6.015   1.857  2.3447 -1.4418 -0.4420
 1715SOL    HW2 6045   0.034   5.915   1.974  1.3824 -0.9706 -0.4685
 1716SOL     OW 6046   4.193   1.674   3.884 -0.6517  0.5163 -0.4388
 1716SOL    HW1 6047   4.287   1.679   3.849  0.9906 -0.9852  3.2061
 1716SOL    HW2 6048   4.162   1.579   3.883 -1.5373  0.7954 -0.2089
 1717SOL     OW 6049   2.985   6.306   4.726 -0.1930  0.4096 -0.3297
 1717SOL    HW1 6050   2.943   6.239   4.664 -1.1846 -0.6493  1.4097
 1717SOL    HW2 6051   3.079   6.279   4.746 -0.8399 -1.0293  1.0275
 1718SOL     OW 6052   3.543   1.366   3.066 -0.0156 -0.0510 -0.1564
 1718SOL    HW1 6053   3.520   1.277   3.105 -0.9873 -0.1340 -0.8737
 1718SOL    HW2 6054   3.521   1.438   3.132 -0.8467 -0.2446 -0.2054
 1719SOL     OW 6055   1.050   4.647   0.982  0.2293 -0.2062  0.2605
 1719SOL    HW1 6056   1.057   4.556   0.941  1.4766 -1.3129  2.7595
 1719SOL    HW2 6057   1.140   4.691   0.980 -0.1781  0.6485 -0.1092
 1720SOL     OW 6058   6.527   3.641   5.705  0.3725  0.0905  0.4234
 1720SOL    HW1 6059   6.624   3.662   5.695  0.3917  0.4647  1.2973
 1720SOL    HW2 6060   6.515   3.572   5.777  0.0455 -0.4946 -0.1839
 1721SOL     OW 6061   0.960   6.374   0.368  0.3917 -0.0223 -0.3793
 1721SOL    HW1 6062   0.951   6.429   0.451  1.1030 -0.3120 -0.1015
 1721SOL    HW2 6063   0.899   6.295   0.374  2.3627 -1.5442  1.1317
 1722SOL     OW 6064   2.629   1.671   2.331  0.3004  0.2327 -0.0273
 1722SOL    HW1 6065   2.702   1.605   2.347  0.9624  0.3326 -2.2987
 1722SOL    HW2 6066   2.668   1.757   2.296 -0.8380  0.3696 -1.0428
 1723SOL     OW 6067   6.531   1.331   2.197  0.2548 -0.1267  0.1833
 1723SOL    HW1 6068   6.432   1.328   2.210  0.1956  0.3388 -0.1545
 1723SOL    HW2 6069   6.567   1.238   2.198  0.2184 -0.2016  3.2453
 1724SOL     OW 6070   0.525   2.593   1.686  0.2733 -0.3883 -0.2823
 1724SOL    HW1 6071   0.615   2.631   1.665  0.2900 -1.4634 -2.3485
 1724SOL    HW2 6072   0.536   2.501   1.725  0.0766 -0.9301 -1.4653
 1725SOL     OW 6073   2.335   5.327   0.750  0.4297 -0.3657  0.2517
 1725SOL    HW1 6074   2.308   5.233   0.770  2.1827 -0.7941  0.7462
 1725SOL    HW2 6075   2.429   5.342   0.781  0.6967  1.1193 -1.1689
 1726SOL     OW 6076   6.436   4.505   4.876  0.1369 -0.0769  0.0822
 1726SOL    HW1 6077   6.391   4.579   4.825  0.1891  0.3176  0.5958
 1726SOL    HW2 6078   6.389   4.419   4.856 -1.0375  0.3628  0.8029
 1727SOL     OW 6079   3.361   3.616   3.244  0.0770  0.0801  0.4737
 1727SOL    HW1 6080   3.425   3.678   3.199 -1.2317 -0.9745 -3.2139
 1727SOL    HW2 6081   3.410   3.536   3.278  1.1584  0.9870  1.1109
 1728SOL     OW 6082   4.926   3.317   3.610  0.2618 -0.1097 -0.1249
 1728SOL    HW1 6083   4.906   3.407   3.573  2.2015  0.3323 -0.1762
 1728SOL    HW2 6084   4.949   3.325   3.707 -1.0602 -0.7790  0.2725
 1729SOL     OW 6085   0.842   2.443   6.853 -0.3159 -0.2436 -0.1208
 1729SOL    HW1 6086   0.844   2.360   6.909  0.9786 -0.4559 -0.4664
 1729SOL    HW2 6087   0.842   2.419   6.756  1.1386  0.1416 -0.2439
 1730SOL     OW 6088   2.810   6.102   4.632  0.2658 -0.2450  0.3907
 1730SOL    HW1 6089   2.829   6.118   4.536 -1.6109  0.1846  0.0384
 1730SOL    HW2 6090   2.836   6.009   4.656 -0.7274 -0.9093 -0.9781
 1731SOL     OW 6091   3.897   4.864   4.004 -0.0548 -0.3436  0.3113
 1731SOL    HW1 6092   3.935   4.957   4.004 -2.4331  0.7175  1.8377
 1731SOL    HW2 6093   3.967   4.800   4.035  1.4632  0.9842 -0.1757
 1732SOL     OW 6094   2.204   2.284   6.816  0.0301 -0.1666 -0.2783
 1732SOL    HW1 6095   2.104   2.289   6.816  0.0168  0.2359  1.6332
 1732SOL    HW2 6096   2.234   2.205   6.869  0.7248  0.8511  0.8909
 1733SOL     OW 6097   2.352   3.792   6.888  0.0534  0.1527 -0.1808
 1733SOL    HW1 6098   2.369   3.720   6.956 -2.1768  0.5555  0.9025
 1733SOL    HW2 6099   2.380   3.759   6.797 -0.0511 -1.7292  0.4160
 1734SOL     OW 6100   0.027   4.159   2.954 -0.1407  0.3616 -0.2519
 1734SOL    HW1 6101   0.023   4.239   2.894  1.0630  0.4310 -0.2558
 1734SOL    HW2 6102   0.043   4.188   3.048 -1.8189  0.2377  0.1149
 1735SOL     OW 6103   5.821   4.053   1.467 -0.6368 -0.1579  0.0503
 1735SOL    HW1 6104   5.735   4.085   1.505  1.1376  1.6529  2.9590
 1735SOL    HW2 6105   5.847   4.110   1.388 -1.4624  0.0904 -0.0453
 1736SOL     OW 6106   4.099   3.409   1.733  0.1201 -0.0361  0.3850
 1736SOL    HW1 6107   4.082   3.354   1.815  2.1933 -0.9782  0.2422
 1736SOL    HW2 6108   4.111   3.504   1.758 -2.1071  0.1896  0.7998
 1737SOL     OW 6109   3.494   0.486   5.556  0.0798  0.1233 -0.1036
 1737SOL    HW1 6110   3.528   0.405   5.604 -1.1621  0.0009  0.6276
 1737SOL    HW2 6111   3.485   0.466   5.458 -1.8061 -1.2441  0.2771
 1738SOL     OW 6112   0.818   5.802   3.787  0.1906  0.2939  0.1810
 1738SOL    HW1 6113   0.911   5.836   3.800  0.0635  0.4082  0.8798
 1738SOL    HW2 6114   0.770   5.859   3.721  0.8184 -0.1655 -0.6794
 1739SOL     OW 6115   6.053   2.227   4.150 -0.1797  0.5267  0.7817
 1739SOL    HW1 6116   5.981   2.158   4.155 -0.4525  0.8083  0.8177
 1739SOL    HW2 6117   6.055   2.265   4.057  0.0887  0.3443  0.7132
 1740SOL     OW 6118   0.384   1.544   4.944  0.2572  0.3881 -0.4123
 1740SOL    HW1 6119   0.356   1.639   4.936 -0.2890  0.1857 -0.9446
 1740SOL    HW2 6120   0.306   1.488   4.971  0.4670  0.0193 -0.5630
 1741SOL     OW 6121   1.302   0.600   4.252 -0.2358 -0.0527  0.0612
 1741SOL    HW1 6122   1.331   0.673   4.314 -0.6252 -0.5321  0.8298
 1741SOL    HW2 6123   1.266   0.523   4.306  0.0977 -0.7794 -0.7353
 1742SOL     OW 6124   6.577   0.511   5.370 -0.2586 -0.1822  0.2678
 1742SOL    HW1 6125   6.572   0.564   5.286  0.1359 -0.0523  0.3262
 1742SOL    HW2 6126   6.614   0.420   5.350  0.9031  0.2364  0.4798
 1743SOL     OW 6127   2.093   1.531   2.337  0.0004  0.0358  0.0738
 1743SOL    HW1 6128   2.130   1.482   2.416  0.6649 -0.7326 -0.6880
 1743SOL    HW2 6129   2.158   1.600   2.307  0.9106 -1.3340 -1.2841
 1744SOL     OW 6130   5.724   1.637   2.512 -0.6202 -0.1023 -0.2908
 1744SOL    HW1 6131   5.752   1.694   2.434 -1.7308  1.0282  0.0932
 1744SOL    HW2 6132   5.684   1.696   2.583 -1.7657 -1.3737  0.1506
 1745SOL     OW 6133   0.530   6.530   0.593 -0.4046  0.1863  0.0522
 1745SOL    HW1 6134   0.589   6.539   0.673  0.4202 -0.2921 -0.4807
 1745SOL    HW2 6135   0.549   6.605   0.529  0.1443 -0.3353 -0.4232
 1746SOL     OW 6136   1.994   4.481   4.468  0.1909  0.2219 -0.2971
 1746SOL    HW1 6137   2.002   4.385   4.441  1.1829  0.7034 -1.8471
 1746SOL    HW2 6138   1.990   4.538   4.387 -0.1528  1.5218  0.6083
 1747SOL     OW 6139   2.395   2.367   2.755 -0.3694 -0.2084  0.2799
 1747SOL    HW1 6140   2.433   2.456   2.781 -1.3744  0.3441 -0.0749
 1747SOL    HW2 6141   2.295   2.373   2.756 -0.4408 -1.0242 -0.8086
 1748SOL     OW 6142   6.553   1.774   4.442  0.1794  0.6670  0.0038
 1748SOL    HW1 6143   6.529   1.766   4.345 -1.9094  0.6921  0.4597
 1748SOL    HW2 6144   6.543   1.870   4.471 -0.4955  0.4527  0.5199
 1749SOL     OW 6145   2.155   5.818   3.058 -0.3879  0.1433  0.1463
 1749SOL    HW1 6146   2.122   5.746   3.119  1.9969 -0.7319  0.5071
 1749SOL    HW2 6147   2.225   5.782   2.997  0.8519  2.1069  0.2981
 1750SOL     OW 6148   4.057   1.084   4.138  0.2655  0.0299 -0.6777
 1750SOL    HW1 6149   4.025   0.995   4.170 -0.9523  0.1740 -1.4550
 1750SOL    HW2 6150   4.078   1.142   4.217  0.2856 -0.6665 -0.1626
 1751SOL     OW 6151   5.514   3.787   5.113  0.1280  0.1788  0.4775
 1751SOL    HW1 6152   5.496   3.697   5.153  2.2431 -0.4006  0.2349
 1751SOL    HW2 6153   5.461   3.797   5.028 -0.2475 -0.7591  0.5893
 1752SOL     OW 6154   6.648   2.257   0.224  0.6149 -0.2574 -0.1844
 1752SOL    HW1 6155   6.632   2.221   0.316  1.1974  0.4400  0.1969
 1752SOL    HW2 6156   6.572   2.316   0.198  1.0171  0.4931  0.3324
 1753SOL     OW 6157   0.134   1.520   0.776  0.0085  0.4825  0.4097
 1753SOL    HW1 6158   0.195   1.478   0.843 -0.0823  0.7472  0.6602
 1753SOL    HW2 6159   0.165   1.496   0.684  1.0280  1.3240  0.5037
 1754SOL     OW 6160   3.623   5.533   5.956  0.3564  0.5688  0.3900
 1754SOL    HW1 6161   3.545   5.477   5.929 -0.0036  1.8762 -1.4944
 1754SOL    HW2 6162   3.694   5.528   5.886  1.8127 -0.2094  1.8409
 1755SOL     OW 6163   6.958   6.559   5.980 -0.3453  0.6399  0.4084
 1755SOL    HW1 6164   6.932   6.653   5.960  0.8375  1.0796  0.8578
 1755SOL    HW2 6165   6.896   6.497   5.933 -0.4598  1.6361 -0.8305
 1756SOL     OW 6166   5.302   1.315   6.471 -0.0633 -0.2767 -0.5492
 1756SOL    HW1 6167   5.214   1.311   6.424  0.8212  0.7477 -2.4144
 1756SOL    HW2 6168   5.360   1.239   6.439  0.3020  0.0240 -0.6067
 1757SOL     OW 6169   2.533   5.511   4.944 -0.4425  0.4602 -0.5307
 1757SOL    HW1 6170   2.454   5.552   4.990 -0.1521  0.6812 -0.2251
 1757SOL    HW2 6171   2.587   5.459   5.010 -0.7029 -0.2706 -0.8760
 1758SOL     OW 6172   2.056   6.951   5.119  0.3549  0.1637 -0.5895
 1758SOL    HW1 6173   1.988   6.909   5.059 -0.0636  0.3362 -0.2459
 1758SOL    HW2 6174   2.088   7.037   5.078 -1.1824  1.1653  0.1804
 1759SOL     OW 6175   3.230   1.019   0.205  0.5504 -0.3634  0.5497
 1759SOL    HW1 6176   3.320   0.978   0.187  0.1697 -0.4625 -1.3690
 1759SOL    HW2 6177   3.216   1.097   0.145 -0.3103  0.2179  1.4675
 1760SOL     OW 6178   5.872   6.143   3.196  0.2587  0.4112  0.3592
 1760SOL    HW1 6179   5.878   6.050   3.231  0.3150  1.5581  3.7139
 1760SOL    HW2 6180   5.917   6.148   3.107 -1.5739 -3.1393 -0.9635
 1761SOL     OW 6181   5.618   1.037   6.907  0.2100  0.0016 -0.4510
 1761SOL    HW1 6182   5.593   1.058   7.001  0.1275  0.6830 -0.6238
 1761SOL    HW2 6183   5.718   1.030   6.899  0.1916 -0.5976 -0.2057
 1762SOL     OW 6184   0.968   3.133   5.986 -0.1649  0.1125 -0.6811
 1762SOL    HW1 6185   0.945   3.195   6.061  1.6827  0.3623 -0.2799
 1762SOL    HW2 6186   1.067   3.123   5.981 -0.3601 -1.4717 -1.8405
 1763SOL     OW 6187   0.676   5.797   6.728  0.1933 -0.2597 -0.1052
 1763SOL    HW1 6188   0.699   5.894   6.736 -1.7418  0.1200  2.1982
 1763SOL    HW2 6189   0.578   5.787   6.715  0.5158 -1.9198 -1.5504
 1764SOL     OW 6190   1.172   4.395   1.784 -0.0500  0.0610  0.1141
 1764SOL    HW1 6191   1.164   4.342   1.868  2.5077  0.4812  0.6984
 1764SOL    HW2 6192   1.183   4.492   1.807  2.6525 -0.0257 -0.5269
 1765SOL     OW 6193   6.487   1.585   2.505 -0.0751  0.5839 -0.4599
 1765SOL    HW1 6194   6.530   1.644   2.574 -0.9343 -1.1163  1.6046
 1765SOL    HW2 6195   6.552   1.569   2.430  1.3873  1.3628  0.5962
 1766SOL     OW 6196   3.589   5.124   4.611 -0.2501  0.1728  0.1514
 1766SOL    HW1 6197   3.573   5.080   4.523  0.9121  1.7013 -0.8735
 1766SOL    HW2 6198   3.521   5.197   4.625  2.1945  3.0173 -1.6960
 1767SOL     OW 6199   0.626   6.159   1.585  0.0087  0.3273 -0.1160
 1767SOL    HW1 6200   0.668   6.073   1.613 -0.5630 -0.0864 -0.5093
 1767SOL    HW2 6201   0.595   6.152   1.490  1.5744  1.5774 -0.7683
 1768SOL     OW 6202   4.525   5.786   0.422  0.0981  0.1140 -0.1806
 1768SOL    HW1 6203   4.495   5.708   0.368  0.4560 -0.5919  0.6221
 1768SOL    HW2 6204   4.559   5.754   0.510  1.3845  1.0778 -0.3079
 1769SOL     OW 6205   6.375   6.030   6.562 -0.1979 -0.2518 -0.0303
 1769SOL    HW1 6206   6.364   6.034   6.462 -0.8145  2.2329  0.0897
 1769SOL    HW2 6207   6.472   6.040   6.585 -0.0858 -0.5257 -0.3639
 1770SOL     OW 6208   2.570   4.428   6.511 -0.1209 -0.0586  0.6847
 1770SOL    HW1 6209   2.627   4.510   6.512  0.6302 -0.5448  2.5353
 1770SOL    HW2 6210   2.607   4.362   6.446  0.1966  0.4395  0.3494
 1771SOL     OW 6211   6.445   3.457   6.328 -0.0156 -0.1791 -0.4594
 1771SOL    HW1 6212   6.413   3.505   6.247 -2.5048 -0.1450  0.4579
 1771SOL    HW2 6213   6.382   3.474   6.404  2.6421  0.4776  1.7638
 1772SOL     OW 6214   0.935   5.352   3.278  0.0484  0.0691 -0.6475
 1772SOL    HW1 6215   0.908   5.413   3.353 -1.0794 -0.1271 -0.8684
 1772SOL    HW2 6216   0.941   5.405   3.194  0.5999  0.1570 -0.5536
 1773SOL     OW 6217   0.878   1.199   6.618  0.4599 -0.4577 -0.4415
 1773SOL    HW1 6218   0.838   1.281   6.577 -0.1515  0.0379  1.1007
 1773SOL    HW2 6219   0.812   1.124   6.615  0.3893 -0.4008 -0.2796
 1774SOL     OW 6220   6.524   6.174   2.542  0.1854  0.3175 -0.1361
 1774SOL    HW1 6221   6.428   6.188   2.520  0.3366  1.1634 -0.3125
 1774SOL    HW2 6222   6.548   6.078   2.529 -0.7275  0.0159  0.2941
 1775SOL     OW 6223   3.276   5.043   1.416 -0.0390  0.3018 -0.2825
 1775SOL    HW1 6224   3.262   4.959   1.468  0.9418 -0.4197 -1.1424
 1775SOL    HW2 6225   3.305   5.116   1.478  0.7827 -0.4559  0.2532
 1776SOL     OW 6226   2.767   2.511   5.768 -0.2429  0.5363 -0.7740
 1776SOL    HW1 6227   2.717   2.434   5.727 -0.6641  0.4503 -0.1089
 1776SOL    HW2 6228   2.719   2.596   5.746  0.1753  0.6079 -1.4365
 1777SOL     OW 6229   4.333   6.340   0.060  0.3426 -0.3604  0.9081
 1777SOL    HW1 6230   4.377   6.289   0.133  0.0377  1.1059  2.1668
 1777SOL    HW2 6231   4.403   6.372  -0.005  0.4588 -3.0668 -0.4603
 1778SOL     OW 6232   5.704   1.758   5.539  0.1925  0.0599  0.5364
 1778SOL    HW1 6233   5.673   1.847   5.506 -1.9432  0.0650  2.3273
 1778SOL    HW2 6234   5.720   1.762   5.638  0.4701 -1.4386  0.5831
 1779SOL     OW 6235   4.489   6.788   3.658 -0.0367 -0.6799  0.6420
 1779SOL    HW1 6236   4.493   6.880   3.620 -0.6094 -0.3913  1.2526
 1779SOL    HW2 6237   4.485   6.721   3.584  1.1226 -0.2632  0.1802
 1780SOL     OW 6238   0.809   4.673   4.526  0.1427  0.1585  0.1215
 1780SOL    HW1 6239   0.718   4.635   4.512  0.7535 -1.9438  1.2959
 1780SOL    HW2 6240   0.872   4.634   4.459  0.4738  0.3938  0.2932
 1781SOL     OW 6241   5.458   0.040   3.809 -0.1977  0.6236  0.0650
 1781SOL    HW1 6242   5.537   0.008   3.862 -0.4664  1.0540  0.7425
 1781SOL    HW2 6243   5.383  -0.026   3.818 -0.0137  0.3560 -0.3459
 1782SOL     OW 6244   0.476   1.929   2.159 -0.3328  0.4602  0.3410
 1782SOL    HW1 6245   0.561   1.918   2.106 -0.6559  1.4857 -0.4110
 1782SOL    HW2 6246   0.468   1.854   2.224  0.4336 -0.4508 -0.5776
 1783SOL     OW 6247   0.998   3.872   6.529 -0.7423 -0.2913 -0.1178
 1783SOL    HW1 6248   1.020   3.969   6.532 -0.1672 -0.4198 -0.0893
 1783SOL    HW2 6249   0.925   3.852   6.594 -1.0120  0.1578 -0.2815
 1784SOL     OW 6250   2.911   1.427   7.002  0.0679 -0.2447  0.0156
 1784SOL    HW1 6251   2.958   1.418   7.089  0.0187 -1.4541 -0.0682
 1784SOL    HW2 6252   2.926   1.345   6.947  0.8723  0.8749 -1.5076
 1785SOL     OW 6253   2.497   0.179   3.584  0.2806  0.2898 -0.4197
 1785SOL    HW1 6254   2.401   0.205   3.587  0.6395  1.9506 -1.8138
 1785SOL    HW2 6255   2.542   0.205   3.669 -0.3912 -0.1249  0.0725
 1786SOL     OW 6256   1.276   4.838   6.485  0.4874  0.3139 -0.0959
 1786SOL    HW1 6257   1.340   4.781   6.434  1.4361 -0.6879  2.0537
 1786SOL    HW2 6258   1.308   4.933   6.486 -0.3322  0.6714 -2.4885
 1787SOL     OW 6259   1.298   3.305   0.010  0.0953 -0.2932 -0.5993
 1787SOL    HW1 6260   1.274   3.240  -0.062 -1.8765  2.4513 -2.6387
 1787SOL    HW2 6261   1.387   3.347  -0.012 -0.3636  0.3239 -1.3719
 1788SOL     OW 6262   3.738   6.340   6.888 -0.9128 -0.1243 -0.2876
 1788SOL    HW1 6263   3.718   6.366   6.793 -0.8784 -1.7635 -0.7764
 1788SOL    HW2 6264   3.652   6.333   6.939 -1.1138 -1.0768 -0.7244
 1789SOL     OW 6265   5.924   4.579   2.663  0.7299 -0.1931  0.1621
 1789SOL    HW1 6266   6.015   4.619   2.674  1.2824 -1.3652 -0.0368
 1789SOL    HW2 6267   5.932   4.481   2.645 -0.6175 -0.7874  2.3614
 1790SOL     OW 6268   1.680   3.833   4.466 -0.7016 -0.2112  0.0245
 1790SOL    HW1 6269   1.629   3.912   4.430 -0.4845  0.0498  0.2871
 1790SOL    HW2 6270   1.639   3.805   4.553  0.2606  0.6817  0.7864
 1791SOL     OW 6271   7.013   2.388   4.756 -0.3106  0.0464  0.2986
 1791SOL    HW1 6272   7.072   2.334   4.696  1.2547  1.8613  0.1240
 1791SOL    HW2 6273   6.929   2.414   4.706  0.3277  0.3436 -0.6515
 1792SOL     OW 6274   4.972   3.372   4.858 -0.2766 -0.0511 -0.0035
 1792SOL    HW1 6275   4.893   3.404   4.910 -0.5488  0.4714 -0.7204
 1792SOL    HW2 6276   5.034   3.449   4.840  0.4270 -0.4590  0.5792
 1793SOL     OW 6277   6.830   1.839   4.493  0.7144 -0.6000 -0.4730
 1793SOL    HW1 6278   6.847   1.862   4.398  2.4023  0.2987  0.0183
 1793SOL    HW2 6279   6.733   1.817   4.505 -0.4394  3.1239 -1.6465
 1794SOL     OW 6280   1.590   6.454   6.625  1.1782 -0.6897  0.4243
 1794SOL    HW1 6281   1.615   6.547   6.650 -2.1660  0.8818 -1.4970
 1794SOL    HW2 6282   1.536   6.412   6.698 -1.3184  0.7365 -0.4859
 1795SOL     OW 6283   1.289   3.928   0.905 -0.2427  0.1736  0.3784
 1795SOL    HW1 6284   1.332   3.888   0.985  0.2614  1.3873  0.7352
 1795SOL    HW2 6285   1.190   3.914   0.910 -0.2901  0.7959  1.5532
 1796SOL     OW 6286   0.217   5.322   5.622 -0.1678 -0.2275 -0.5621
 1796SOL    HW1 6287   0.170   5.388   5.681  0.3902  0.3887 -0.7917
 1796SOL    HW2 6288   0.236   5.364   5.533  0.0804 -0.7418 -0.7573
 1797SOL     OW 6289   2.483   4.789   5.557  0.0335 -0.1526  0.4247
 1797SOL    HW1 6290   2.491   4.887   5.575  2.0387  0.1926 -1.8106
 1797SOL    HW2 6291   2.422   4.774   5.479  0.2713 -0.6346  0.3290
 1798SOL     OW 6292   2.868   3.476   2.781 -0.0975  0.0643 -0.4194
 1798SOL    HW1 6293   2.882   3.425   2.697  0.1780 -0.8912  0.1868
 1798SOL    HW2 6294   2.829   3.565   2.760  0.5685  0.0991 -1.6020
 1799SOL     OW 6295   3.000   1.031   6.464  0.7755 -1.2783 -0.0855
 1799SOL    HW1 6296   3.080   1.080   6.427 -0.2998  1.1682  0.6405
 1799SOL    HW2 6297   3.025   0.988   6.551  0.7827  1.5368  1.4093
 1800SOL     OW 6298   5.608   2.180   4.836 -0.0038  0.3022 -0.5934
 1800SOL    HW1 6299   5.682   2.217   4.780  0.8694 -1.1037 -0.4072
 1800SOL    HW2 6300   5.520   2.204   4.794  0.5442  1.6567 -1.0268
 1801SOL     OW 6301   0.136   1.801   1.656  0.0286  0.4194  0.2532
 1801SOL    HW1 6302   0.136   1.742   1.575  2.2830  0.4014  0.2024
 1801SOL    HW2 6303   0.066   1.872   1.645 -0.8427 -0.5738 -0.9399
 1802SOL     OW 6304   0.750   4.350   3.809 -0.1502  0.2761 -0.3692
 1802SOL    HW1 6305   0.799   4.400   3.880 -0.8468  0.5981 -0.1021
 1802SOL    HW2 6306   0.809   4.278   3.772  0.6960  0.9895 -0.4315
 1803SOL     OW 6307   0.919   0.157   2.751 -0.7375  0.4078  0.2110
 1803SOL    HW1 6308   0.965   0.069   2.740 -1.5862 -0.1885  1.2804
 1803SOL    HW2 6309   0.987   0.230   2.755  0.0746 -0.3624  0.9456
 1804SOL     OW 6310   2.814   2.473   6.567 -0.3183 -0.0351  0.2577
 1804SOL    HW1 6311   2.890   2.419   6.532  0.1093  0.0516  1.0344
 1804SOL    HW2 6312   2.740   2.474   6.499  0.2266 -0.4084 -0.3542
 1805SOL     OW 6313   1.580   6.137   5.795  0.0671 -0.8304 -0.5931
 1805SOL    HW1 6314   1.676   6.157   5.817 -0.6403  0.3489  1.7111
 1805SOL    HW2 6315   1.543   6.211   5.739  0.6619 -1.6714 -2.1669
 1806SOL     OW 6316   0.498   4.923   1.656 -0.6290 -0.1393  0.0009
 1806SOL    HW1 6317   0.408   4.898   1.621 -0.9816 -0.8996  1.3858
 1806SOL    HW2 6318   0.490   4.953   1.751  0.6940 -1.2122  0.4908
 1807SOL     OW 6319   6.037   5.360   2.331  0.4266 -0.3388 -0.4982
 1807SOL    HW1 6320   5.944   5.378   2.363  0.5624 -0.6679  0.1145
 1807SOL    HW2 6321   6.039   5.274   2.281  0.5451 -0.7514  0.2007
 1808SOL     OW 6322   4.124   4.483   5.334  0.1033  0.4291 -0.0757
 1808SOL    HW1 6323   4.186   4.455   5.260  0.0337  0.7053 -0.2428
 1808SOL    HW2 6324   4.036   4.436   5.324  0.7149 -0.9826  0.9302
 1809SOL     OW 6325   4.577   1.419   6.256  0.1301  0.6704  0.0420
 1809SOL    HW1 6326   4.608   1.358   6.330  0.6506  2.6229  1.4991
 1809SOL    HW2 6327   4.506   1.479   6.290 -1.7518 -0.3106 -1.9092
 1810SOL     OW 6328   1.227   6.415   4.373 -0.1991  0.4601  0.2765
 1810SOL    HW1 6329   1.203   6.320   4.354  3.1369 -0.5570  0.4909
 1810SOL    HW2 6330   1.225   6.468   4.288  1.6125 -0.7785 -0.5925
 1811SOL     OW 6331   3.242   4.792   1.003  0.3396  0.1651  0.1120
 1811SOL    HW1 6332   3.144   4.814   1.002  0.6001  1.4912 -1.1077
 1811SOL    HW2 6333   3.277   4.797   1.097 -0.7884 -0.5519  0.5896
 1812SOL     OW 6334   6.562   0.188   5.609 -0.2895  0.0501  0.6840
 1812SOL    HW1 6335   6.599   0.242   5.534 -1.2858 -1.5648 -1.0722
 1812SOL    HW2 6336   6.636   0.148   5.662  0.4759 -0.4908 -0.7544
 1813SOL     OW 6337   3.623   5.069   2.563  0.4748  0.1799  0.2721
 1813SOL    HW1 6338   3.638   5.144   2.627 -0.1837 -1.0541  1.9451
 1813SOL    HW2 6339   3.594   4.987   2.613 -1.2357 -0.5255 -1.7050
 1814SOL     OW 6340   0.396   4.750   6.631 -0.2670 -0.0742 -0.7768
 1814SOL    HW1 6341   0.461   4.823   6.609 -0.6056  0.0800 -1.2825
 1814SOL    HW2 6342   0.309   4.791   6.659  0.1376 -0.2623  0.8562
 1815SOL     OW 6343   0.488   5.597   3.378 -0.1475 -0.2441  0.4699
 1815SOL    HW1 6344   0.502   5.562   3.285 -0.6297 -0.9434  0.6517
 1815SOL    HW2 6345   0.552   5.672   3.395  0.3032 -0.4523 -0.2433
 1816SOL     OW 6346   4.310   5.729   5.991 -0.2472  0.3142 -0.3527
 1816SOL    HW1 6347   4.225   5.720   6.042 -0.8037 -0.6523 -1.4213
 1816SOL    HW2 6348   4.334   5.642   5.949  1.0917  0.6617 -0.3744
 1817SOL     OW 6349   2.450   0.117   5.042 -0.0507  0.2167 -0.4052
 1817SOL    HW1 6350   2.367   0.166   5.067 -0.5652 -0.8377  0.0434
 1817SOL    HW2 6351   2.464   0.123   4.943 -0.6031  0.4908 -0.4682
 1818SOL     OW 6352   2.007   0.014   6.255  0.4386  0.1761  0.4392
 1818SOL    HW1 6353   1.976  -0.017   6.165  0.1858 -1.1889  0.9856
 1818SOL    HW2 6354   2.087  -0.039   6.284  0.7236  0.8279  0.8912
 1819SOL     OW 6355   1.754   0.166   3.982 -0.2061  0.7744  0.2379
 1819SOL    HW1 6356   1.757   0.256   3.939  0.4544  1.7322  2.1772
 1819SOL    HW2 6357   1.846   0.137   4.006 -0.4593 -0.2254  0.0453
 1820SOL     OW 6358   3.225   5.525   3.588 -0.2775  0.1117  0.2572
 1820SOL    HW1 6359   3.295   5.578   3.541  1.0702  0.0358  2.0616
 1820SOL    HW2 6360   3.236   5.428   3.567 -1.4822  0.2819 -1.4370
 1821SOL     OW 6361   4.274   6.072   3.777 -0.5010  0.0833 -0.3040
 1821SOL    HW1 6362   4.215   6.090   3.856 -0.1623 -0.3276  0.0542
 1821SOL    HW2 6363   4.360   6.123   3.788 -0.5989  0.3088 -0.5874
 1822SOL     OW 6364   1.517   5.474   1.507  0.7518 -0.4227  0.5316
 1822SOL    HW1 6365   1.488   5.460   1.412  1.8894  0.8233 -0.0455
 1822SOL    HW2 6366   1.607   5.432   1.520  1.2336  0.6074  0.6338
 1823SOL     OW 6367   2.858   5.586   2.383  0.0233  0.0684 -0.0231
 1823SOL    HW1 6368   2.885   5.615   2.475  0.1156 -1.2798  0.3957
 1823SOL    HW2 6369   2.928   5.616   2.318 -0.6535  2.1492  0.1218
 1824SOL     OW 6370   5.371   3.440   1.246 -0.2335 -0.5991  0.4142
 1824SOL    HW1 6371   5.468   3.464   1.240 -0.7304  1.4157 -0.4697
 1824SOL    HW2 6372   5.348   3.418   1.341  0.8089  0.2369  0.8874
 1825SOL     OW 6373   1.991   1.932   6.629 -0.0501 -0.3366  0.8074
 1825SOL    HW1 6374   1.954   1.873   6.701 -0.0540 -1.1135  0.1820
 1825SOL    HW2 6375   1.942   2.020   6.630 -0.2051 -0.4184  1.5942
 1826SOL     OW 6376   4.678   2.347   2.345 -0.5557  0.4851 -0.4343
 1826SOL    HW1 6377   4.769   2.373   2.310 -0.3979  1.7683  0.8560
 1826SOL    HW2 6378   4.608   2.394   2.291 -0.5302 -1.0597 -1.9005
 1827SOL     OW 6379   5.277   2.322   0.051 -0.6144 -0.3449 -0.3087
 1827SOL    HW1 6380   5.314   2.239   0.011  1.1349 -0.4040  1.2402
 1827SOL    HW2 6381   5.337   2.399   0.028  0.9571 -0.5237  2.6735
 1828SOL     OW 6382   2.096   5.450   5.155  0.2074  0.1603  0.0562
 1828SOL    HW1 6383   2.149   5.534   5.145 -1.3692  1.0364 -1.3160
 1828SOL    HW2 6384   2.149   5.373   5.118  0.9795  0.8199 -0.2264
 1829SOL     OW 6385   2.904   2.291   4.587  0.0758 -0.4601 -0.5182
 1829SOL    HW1 6386   2.915   2.330   4.496 -2.6665 -2.1828 -1.7101
 1829SOL    HW2 6387   2.986   2.238   4.611  0.8327  0.0091 -1.9475
 1830SOL     OW 6388   6.568   0.184   4.775  0.3529 -0.4782  0.0228
 1830SOL    HW1 6389   6.666   0.172   4.759  0.5335  0.6680  0.1677
 1830SOL    HW2 6390   6.546   0.160   4.869  0.2952 -1.7809 -0.3144
 1831SOL     OW 6391   3.670   6.186   4.409  0.6142  0.4823 -0.1592
 1831SOL    HW1 6392   3.744   6.121   4.391 -0.3572 -0.4344 -0.9500
 1831SOL    HW2 6393   3.620   6.158   4.490  2.3117  2.2175  1.5995
 1832SOL     OW 6394   4.151   3.182   1.083 -0.5031 -0.9925 -0.2136
 1832SOL    HW1 6395   4.061   3.172   1.041 -1.1263 -0.5518  0.9848
 1832SOL    HW2 6396   4.194   3.265   1.049 -0.5875 -1.1518 -0.7164
 1833SOL     OW 6397   2.873   6.526   2.035  0.2390 -0.2748  0.0631
 1833SOL    HW1 6398   2.774   6.536   2.034  0.2648  0.0624 -0.9745
 1833SOL    HW2 6399   2.914   6.601   1.982  1.0621 -0.2676  0.6898
 1834SOL     OW 6400   1.695   3.864   5.890  0.4931 -0.1579  0.0561
 1834SOL    HW1 6401   1.609   3.915   5.892  0.2870 -0.5145  1.4631
 1834SOL    HW2 6402   1.695   3.803   5.810 -0.9556 -0.8014  0.5096
 1835SOL     OW 6403   0.496   5.026   1.910 -0.3914 -0.4767 -0.1958
 1835SOL    HW1 6404   0.498   5.112   1.860 -1.8358 -1.5045 -2.2005
 1835SOL    HW2 6405   0.448   5.039   1.997 -1.8265  0.5102 -1.0810
 1836SOL     OW 6406   5.337   6.959   1.418 -0.2774 -0.4383  0.3529
 1836SOL    HW1 6407   5.395   7.039   1.429 -2.1115  1.0158  0.0958
 1836SOL    HW2 6408   5.334   6.907   1.504 -0.3371  0.6988  1.0541
 1837SOL     OW 6409   2.105   2.221   6.493  0.3076  0.1854  0.0549
 1837SOL    HW1 6410   2.167   2.252   6.565  3.7770 -0.1707 -2.5396
 1837SOL    HW2 6411   2.124   2.125   6.472 -0.9862  0.1328 -1.0294
 1838SOL     OW 6412   5.407   6.460   0.456 -0.4706 -0.6052 -0.0454
 1838SOL    HW1 6413   5.424   6.551   0.493  0.6460 -0.5546 -0.6122
 1838SOL    HW2 6414   5.344   6.410   0.516  0.2011 -0.0516  1.1659
 1839SOL     OW 6415   5.575   1.343   1.816  0.2470  0.0957  0.2470
 1839SOL    HW1 6416   5.592   1.245   1.823 -1.4055 -0.2375  0.1201
 1839SOL    HW2 6417   5.489   1.365   1.863  0.1119  1.3191 -0.5353
 1840SOL     OW 6418   5.572   5.999   3.369 -0.6886 -0.1247 -0.4547
 1840SOL    HW1 6419   5.649   5.936   3.357 -0.1079  0.7926 -1.9155
 1840SOL    HW2 6420   5.591   6.062   3.445 -0.0063  0.0479 -0.7576
 1841SOL     OW 6421   1.854   0.204   3.400  0.0150 -0.1725  0.7959
 1841SOL    HW1 6422   1.930   0.143   3.378 -0.2130  0.4214 -2.0580
 1841SOL    HW2 6423   1.885   0.299   3.394 -0.5650  0.0508  1.2462
 1842SOL     OW 6424   1.694   3.596   3.045  0.1140 -0.6172  0.5576
 1842SOL    HW1 6425   1.745   3.608   3.130  0.9025  1.0149 -0.0982
 1842SOL    HW2 6426   1.724   3.512   2.999  1.9897  0.1276  0.3589
 1843SOL     OW 6427   3.045   1.459   5.961  0.6249  0.1179 -0.1066
 1843SOL    HW1 6428   3.033   1.436   5.864 -0.9193  1.3811 -0.2785
 1843SOL    HW2 6429   2.971   1.521   5.989  2.7026  2.2173  1.0854
 1844SOL     OW 6430   3.461   1.072   0.396  0.1293  0.2910 -0.1169
 1844SOL    HW1 6431   3.363   1.080   0.409  0.2619  1.7684  0.1645
 1844SOL    HW2 6432   3.480   1.005   0.324 -1.0379 -0.5249  0.3104
 1845SOL     OW 6433   2.400   2.388   4.562  0.2276 -0.1536 -0.0290
 1845SOL    HW1 6434   2.377   2.344   4.649  1.4266 -0.8217 -0.0270
 1845SOL    HW2 6435   2.328   2.452   4.537 -0.6873 -0.8017  0.8786
 1846SOL     OW 6436   4.757   1.901   3.318  0.3598  0.4979 -0.3863
 1846SOL    HW1 6437   4.770   1.863   3.409 -1.5382  2.5188  0.8198
 1846SOL    HW2 6438   4.711   1.833   3.260  2.0405 -0.9868 -0.0578
 1847SOL     OW 6439   2.818   0.121   6.669 -0.0141 -0.1749  0.2985
 1847SOL    HW1 6440   2.800   0.045   6.606  1.0153  1.1372 -1.6898
 1847SOL    HW2 6441   2.733   0.170   6.688 -0.5525 -1.3383  0.9894
 1848SOL     OW 6442   4.347   4.824   5.631 -0.1046  0.2877 -0.6745
 1848SOL    HW1 6443   4.330   4.881   5.711  0.6697 -0.0642 -0.2533
 1848SOL    HW2 6444   4.270   4.763   5.616 -0.0546  0.0418  0.0663
 1849SOL     OW 6445   5.193   1.518   2.525 -0.0261  0.1705 -0.7402
 1849SOL    HW1 6446   5.157   1.457   2.454 -1.8363 -0.9583  1.0591
 1849SOL    HW2 6447   5.292   1.524   2.516  0.1886 -2.6675 -1.3028
 1850SOL     OW 6448   4.056   0.547   2.309 -0.1828 -0.5145 -0.0892
 1850SOL    HW1 6449   3.972   0.602   2.308  0.4274  0.4506 -1.0676
 1850SOL    HW2 6450   4.034   0.452   2.291 -1.0438 -0.2361 -0.5614
 1851SOL     OW 6451   0.591   0.888   5.748 -0.6006 -0.1036 -0.4946
 1851SOL    HW1 6452   0.583   0.916   5.843  0.9095  2.5851 -1.0854
 1851SOL    HW2 6453   0.500   0.883   5.707 -1.1373  0.5218  0.5911
 1852SOL     OW 6454   1.950   5.578   6.718 -0.0044  0.9589  0.2288
 1852SOL    HW1 6455   1.965   5.655   6.780 -1.2728  1.9663 -0.6684
 1852SOL    HW2 6456   1.878   5.519   6.754  2.6670 -1.3336  2.2238
 1853SOL     OW 6457   6.985   1.508   3.786  0.0539  0.3412  0.2916
 1853SOL    HW1 6458   6.960   1.458   3.704 -1.6850  0.5342  0.6606
 1853SOL    HW2 6459   6.993   1.445   3.863  0.4758  0.3096  0.2223
 1854SOL     OW 6460   6.388   4.607   1.551  0.0189 -0.3047  0.1575
 1854SOL    HW1 6461   6.329   4.686   1.566  0.9291  0.2086  1.2276
 1854SOL    HW2 6462   6.484   4.638   1.548  0.2937 -1.1867 -0.9355
 1855SOL     OW 6463   3.908   1.518   5.218  0.1106  0.1502 -0.4344
 1855SOL    HW1 6464   4.008   1.519   5.220  0.1141  0.6704 -0.5937
 1855SOL    HW2 6465   3.874   1.580   5.288 -0.1159 -0.7173  0.2299
 1856SOL     OW 6466   4.384   2.007   5.885  0.1904  0.0496 -0.1327
 1856SOL    HW1 6467   4.440   2.027   5.966 -0.2547 -0.7999  0.3992
 1856SOL    HW2 6468   4.400   1.912   5.857  0.4449  0.3785 -1.1349
 1857SOL     OW 6469   5.427   6.478   6.473  0.0983  0.5122  0.3616
 1857SOL    HW1 6470   5.364   6.504   6.400  0.0729 -0.3953  0.0535
 1857SOL    HW2 6471   5.375   6.443   6.551  0.1824  0.5282  0.4254
 1858SOL     OW 6472   2.577   1.105   4.430 -0.0240 -0.3630 -0.0839
 1858SOL    HW1 6473   2.580   1.128   4.528 -0.4833 -2.9934  0.6335
 1858SOL    HW2 6474   2.483   1.083   4.405 -0.4264  2.8573 -1.8725
 1859SOL     OW 6475   4.590   1.264   4.744 -0.0842 -0.4262  0.1371
 1859SOL    HW1 6476   4.522   1.335   4.725 -0.4853 -0.3271  1.7232
 1859SOL    HW2 6477   4.660   1.301   4.805  1.1280 -0.6844 -1.0536
 1860SOL     OW 6478   0.132   0.633   6.526  0.7597  0.1754 -0.5794
 1860SOL    HW1 6479   0.165   0.597   6.439  0.6843  2.0904 -1.4456
 1860SOL    HW2 6480   0.079   0.716   6.510 -1.0681 -0.5955  1.1329
 1861SOL     OW 6481   6.389   0.438   3.909 -0.4283 -0.0616  0.2310
 1861SOL    HW1 6482   6.392   0.370   3.982  0.2050  0.8500  1.0806
 1861SOL    HW2 6483   6.358   0.525   3.947 -0.2364  0.3863 -0.6314
 1862SOL     OW 6484   2.242   6.667   0.187  0.1267  0.3290  0.5854
 1862SOL    HW1 6485   2.146   6.687   0.208  0.4772  1.3660  1.3028
 1862SOL    HW2 6486   2.257   6.568   0.190 -1.2324  0.0298 -1.0208
 1863SOL     OW 6487   1.605   3.310   1.671  0.1632  0.5141  0.1018
 1863SOL    HW1 6488   1.623   3.307   1.573 -1.6479  2.2232 -0.3512
 1863SOL    HW2 6489   1.597   3.217   1.706  2.1467 -0.1565 -1.0510
 1864SOL     OW 6490   2.210   6.174   1.871  0.4058  0.7264  0.3761
 1864SOL    HW1 6491   2.268   6.111   1.819 -0.5103 -1.2458  1.6110
 1864SOL    HW2 6492   2.143   6.215   1.810  0.9161  0.3778 -0.4440
 1865SOL     OW 6493   4.095   0.048   0.744 -0.4906  0.4176 -0.3381
 1865SOL    HW1 6494   4.017  -0.015   0.736 -1.2010  1.3291 -0.8099
 1865SOL    HW2 6495   4.069   0.138   0.708 -0.2859  1.6742  2.4049
 1866SOL     OW 6496   6.843   5.348   2.695  0.1408 -0.1333  0.6290
 1866SOL    HW1 6497   6.937   5.347   2.729 -0.2009  2.0518  1.8946
 1866SOL    HW2 6498   6.785   5.293   2.756  0.3308 -0.1067  0.8363
 1867SOL     OW 6499   3.705   1.853   0.861  0.5494  0.2719  0.3889
 1867SOL    HW1 6500   3.747   1.838   0.772 -0.7448  2.2551 -0.6329
 1867SOL    HW2 6501   3.697   1.765   0.909  1.1127 -0.8868 -1.5094
 1868SOL     OW 6502   4.633   4.706   6.368  0.3876 -0.1497 -0.9455
 1868SOL    HW1 6503   4.676   4.637   6.310  1.8131 -0.4772  0.4383
 1868SOL    HW2 6504   4.548   4.669   6.406 -0.3507 -0.0750 -2.4388
 1869SOL     OW 6505   6.093   2.113   4.620  0.2120 -0.8676  0.1535
 1869SOL    HW1 6506   6.006   2.075   4.650  0.1384  0.6891  2.1182
 1869SOL    HW2 6507   6.168   2.058   4.656  0.0772 -1.2596 -0.1539
 1870SOL     OW 6508   1.129   5.789   5.523  0.0307 -0.4400  0.3385
 1870SOL    HW1 6509   1.157   5.728   5.450 -1.1655 -0.9868  0.3187
 1870SOL    HW2 6510   1.207   5.846   5.551  0.5805 -0.4290 -1.1401
 1871SOL     OW 6511   1.474   6.159   6.370  0.1011 -0.6238  0.4227
 1871SOL    HW1 6512   1.432   6.237   6.416  2.0654  0.0321  1.1947
 1871SOL    HW2 6513   1.564   6.185   6.334  0.4119 -2.2947 -0.1112
 1872SOL     OW 6514   2.591   2.565   0.871  0.6886 -0.0517  0.8569
 1872SOL    HW1 6515   2.501   2.540   0.836  0.7417  0.0756  0.6261
 1872SOL    HW2 6516   2.645   2.483   0.886  0.3890 -0.1540  1.3905
 1873SOL     OW 6517   6.267   5.917   0.911 -0.3252  0.3202 -0.8732
 1873SOL    HW1 6518   6.172   5.887   0.902 -0.5414  0.8095 -0.3108
 1873SOL    HW2 6519   6.271   6.017   0.905  0.3783  0.2265 -2.7312
 1874SOL     OW 6520   1.833   5.721   5.848  1.0527  0.6847  0.1869
 1874SOL    HW1 6521   1.851   5.816   5.875 -1.7047  1.3395 -0.0051
 1874SOL    HW2 6522   1.795   5.671   5.926  0.9717  0.1920 -0.1635
 1875SOL     OW 6523   0.190   6.055   0.568 -0.2741 -0.2489 -0.5736
 1875SOL    HW1 6524   0.161   5.987   0.636 -0.4553  0.2940 -0.0965
 1875SOL    HW2 6525   0.290   6.061   0.567 -0.2318 -1.0241 -1.1210
 1876SOL     OW 6526   0.964   6.073   5.319  0.1253 -0.9809 -0.2101
 1876SOL    HW1 6527   0.949   6.021   5.403  1.3244 -0.9945  0.0123
 1876SOL    HW2 6528   0.951   6.171   5.339  1.2773 -0.9003  0.2287
 1877SOL     OW 6529   1.693   0.694   2.089  0.1008 -0.0973  0.2677
 1877SOL    HW1 6530   1.606   0.662   2.052  0.9356 -1.7657 -0.3514
 1877SOL    HW2 6531   1.704   0.661   2.183 -0.3042  0.8552  0.6602
 1878SOL     OW 6532   0.459   4.746   1.940  0.0214 -0.6967 -0.2185
 1878SOL    HW1 6533   0.480   4.838   1.908 -2.2015 -0.5549 -1.4709
 1878SOL    HW2 6534   0.475   4.680   1.866  0.8311 -1.2252  0.4114
 1879SOL     OW 6535   3.865   4.961   0.580  0.1374 -0.3073 -0.7323
 1879SOL    HW1 6536   3.922   5.043   0.582 -0.8841  0.4102 -0.3786
 1879SOL    HW2 6537   3.773   4.983   0.611 -0.7253 -1.1543 -2.5016
 1880SOL     OW 6538   0.239   2.578   3.081  0.0900 -0.4046  0.3018
 1880SOL    HW1 6539   0.227   2.667   3.126 -0.6179 -0.6819  0.6765
 1880SOL    HW2 6540   0.149   2.539   3.061  0.3669 -1.6576  1.3876
 1881SOL     OW 6541   0.835   1.700   4.040 -0.2593 -0.2899  0.3919
 1881SOL    HW1 6542   0.880   1.761   4.105 -1.1172 -0.4851  1.1986
 1881SOL    HW2 6543   0.895   1.683   3.962  1.3274 -1.0852  1.7332
 1882SOL     OW 6544   3.092   3.593   0.631  0.9843 -0.2733  0.0057
 1882SOL    HW1 6545   3.039   3.554   0.555 -2.4010  0.1594  1.9744
 1882SOL    HW2 6546   3.176   3.635   0.594 -0.1069 -0.7269 -3.3644
 1883SOL     OW 6547   0.961   3.582   1.787 -0.4011 -0.1451 -0.2007
 1883SOL    HW1 6548   1.029   3.531   1.839  0.0317  0.6043 -0.0182
 1883SOL    HW2 6549   0.936   3.665   1.836 -0.6367  0.1365 -0.7784
 1884SOL     OW 6550   2.263   0.620   1.390 -0.0163  0.9386 -0.2948
 1884SOL    HW1 6551   2.305   0.529   1.394  1.6989  1.7108  0.8157
 1884SOL    HW2 6552   2.300   0.671   1.312 -0.3598  0.9713 -0.4390
 1885SOL     OW 6553   0.080   3.994   5.893 -0.0771 -0.5066 -0.1616
 1885SOL    HW1 6554   0.048   4.037   5.977 -1.4522 -0.3201 -0.7432
 1885SOL    HW2 6555   0.174   4.021   5.875 -0.1614  0.4164  0.6956
 1886SOL     OW 6556   1.840   1.986   1.723 -0.1769 -0.2798  0.9322
 1886SOL    HW1 6557   1.825   2.064   1.784 -0.8740  1.2683 -1.1222
 1886SOL    HW2 6558   1.937   1.962   1.724  0.2805  1.4214  0.7127
 1887SOL     OW 6559   1.193   4.674   4.915  0.5879 -0.3545  0.1167
 1887SOL    HW1 6560   1.278   4.721   4.939 -0.2163  1.6479 -0.7178
 1887SOL    HW2 6561   1.131   4.676   4.993  0.5966 -0.0910  0.1184
 1888SOL     OW 6562   6.448   2.681   5.970 -0.4780  0.1853  0.5390
 1888SOL    HW1 6563   6.468   2.712   6.063  0.2610 -0.7205  0.6970
 1888SOL    HW2 6564   6.352   2.655   5.964 -0.4464 -0.0896  1.1532
 1889SOL     OW 6565   4.350   1.466   5.873  0.0650 -0.0655 -0.0994
 1889SOL    HW1 6566   4.357   1.373   5.835 -0.3257 -0.0829 -0.1417
 1889SOL    HW2 6567   4.412   1.527   5.824  0.3565 -0.3150 -0.0428
 1890SOL     OW 6568   0.546   5.327   1.250 -0.5667  0.4851 -0.3222
 1890SOL    HW1 6569   0.484   5.381   1.193 -0.5444  1.0674  0.1907
 1890SOL    HW2 6570   0.544   5.362   1.344  0.0471  0.0932 -0.1553
 1891SOL     OW 6571   6.563   2.435   5.862 -0.4932  0.1736 -0.0557
 1891SOL    HW1 6572   6.491   2.501   5.884  0.1885  0.8388  0.2358
 1891SOL    HW2 6573   6.527   2.342   5.872 -0.9690  0.4786  1.3152
 1892SOL     OW 6574   4.461   4.295   0.754 -0.3902  0.1868  0.0521
 1892SOL    HW1 6575   4.480   4.214   0.810 -0.6006  0.0299 -0.1026
 1892SOL    HW2 6576   4.441   4.373   0.814 -0.2185  0.1176  0.2001
 1893SOL     OW 6577   5.019   2.718   4.174  0.0395 -0.4750 -0.3498
 1893SOL    HW1 6578   4.946   2.759   4.120  0.1723 -1.8538 -1.6100
 1893SOL    HW2 6579   5.018   2.758   4.266 -1.5858  0.3094 -0.6771
 1894SOL     OW 6580   4.889   2.757   1.374 -0.1275  0.2169 -0.4538
 1894SOL    HW1 6581   4.934   2.840   1.341  0.7788 -0.5286 -1.1641
 1894SOL    HW2 6582   4.953   2.680   1.370 -0.8764 -0.4776  0.4074
 1895SOL     OW 6583   6.551   0.121   3.113  0.7292  0.0090 -0.0545
 1895SOL    HW1 6584   6.595   0.142   3.025  1.9617 -0.3947  0.4546
 1895SOL    HW2 6585   6.552   0.022   3.128 -2.7200 -0.3439 -1.2238
 1896SOL     OW 6586   0.981   1.690   3.794  0.0283  0.3487  0.1896
 1896SOL    HW1 6587   1.037   1.631   3.852 -0.1321 -0.8408 -0.8313
 1896SOL    HW2 6588   1.004   1.786   3.813 -0.1513  0.0273  2.3316
 1897SOL     OW 6589   5.248   6.387   4.006  0.6144 -0.6875  0.0025
 1897SOL    HW1 6590   5.242   6.312   3.939  0.3385 -0.3991 -0.2998
 1897SOL    HW2 6591   5.186   6.369   4.082  0.7738 -0.9174  0.0769
 1898SOL     OW 6592   4.727   5.412   1.617  0.4887  0.3714 -0.6454
 1898SOL    HW1 6593   4.813   5.361   1.619  1.5135  2.0542  0.7311
 1898SOL    HW2 6594   4.704   5.442   1.710 -1.9780 -0.5962 -0.8583
 1899SOL     OW 6595   6.778   4.722   2.724  0.5884  0.2572  0.3259
 1899SOL    HW1 6596   6.791   4.780   2.644  1.3056  1.7004  1.4561
 1899SOL    HW2 6597   6.843   4.747   2.795 -0.9141 -0.0719  1.8767
 1900SOL     OW 6598   1.736   0.394   5.701 -0.1834  0.1811 -0.1949
 1900SOL    HW1 6599   1.793   0.429   5.626  1.6343  0.4587  1.2365
 1900SOL    HW2 6600   1.713   0.469   5.762 -0.6737 -0.2443  0.1464
 1901SOL     OW 6601   2.407   5.862   5.828 -0.2541 -0.6590 -0.0028
 1901SOL    HW1 6602   2.389   5.882   5.924  0.1130  1.5518 -0.3416
 1901SOL    HW2 6603   2.490   5.806   5.821 -0.7152 -1.4974  0.9830
 1902SOL     OW 6604   0.061   3.465   4.371 -0.2423 -0.3364  0.4273
 1902SOL    HW1 6605   0.125   3.403   4.325 -0.0338  0.2800 -0.1232
 1902SOL    HW2 6606   0.030   3.536   4.307 -0.3339  0.2402  1.0932
 1903SOL     OW 6607   5.514   4.982   4.020 -0.7991 -0.5577 -0.3047
 1903SOL    HW1 6608   5.430   4.995   3.968 -0.8345  0.6843  0.0350
 1903SOL    HW2 6609   5.504   5.023   4.110  0.5669  0.6419 -0.6712
 1904SOL     OW 6610   6.291   5.993   5.090 -0.6345  0.1676 -0.3446
 1904SOL    HW1 6611   6.276   5.894   5.087 -2.4355  0.4218 -1.2379
 1904SOL    HW2 6612   6.388   6.012   5.079 -0.3188 -1.4850 -0.7143
 1905SOL     OW 6613   0.999   2.995   4.710 -0.1606  0.1561  0.2669
 1905SOL    HW1 6614   0.901   3.007   4.727 -0.6694  0.6752 -2.5346
 1905SOL    HW2 6615   1.047   3.080   4.731 -0.3440  0.0096  1.3251
 1906SOL     OW 6616   2.664   6.901   6.015  0.3284  0.1882 -0.0818
 1906SOL    HW1 6617   2.569   6.930   6.003 -0.2242 -1.7457 -0.7953
 1906SOL    HW2 6618   2.718   6.977   6.051 -1.9276  0.7295  2.5399
 1907SOL     OW 6619   3.181   6.106   2.038  0.1170  0.5247 -0.5602
 1907SOL    HW1 6620   3.131   6.182   2.079  2.3021  2.1075 -0.6708
 1907SOL    HW2 6621   3.220   6.135   1.950  1.4780 -0.5245 -0.3375
 1908SOL     OW 6622   4.755   1.401   4.920  0.3456  0.1348 -0.0747
 1908SOL    HW1 6623   4.761   1.456   5.004 -0.6011 -0.6490  0.5330
 1908SOL    HW2 6624   4.840   1.349   4.908  0.6110  0.4981  0.2260
 1909SOL     OW 6625   1.126   5.249   4.604  0.0093 -0.6765 -0.0679
 1909SOL    HW1 6626   1.217   5.235   4.643 -0.1525 -0.6206  0.3369
 1909SOL    HW2 6627   1.103   5.347   4.605  1.3151 -0.2021 -3.2882
 1910SOL     OW 6628   4.297   3.214   0.248  0.0464  0.5661 -0.6691
 1910SOL    HW1 6629   4.294   3.198   0.150 -0.3212  2.3638 -0.9719
 1910SOL    HW2 6630   4.223   3.164   0.293 -2.3290  2.8535 -1.8111
 1911SOL     OW 6631   5.698   2.086   0.189  0.3584  1.0498 -0.1638
 1911SOL    HW1 6632   5.686   2.127   0.279  1.0073 -0.7422  0.7833
 1911SOL    HW2 6633   5.671   1.990   0.192  1.4183  0.6752 -1.5900
 1912SOL     OW 6634   1.035   6.668   0.985 -0.3347  0.2804  0.2819
 1912SOL    HW1 6635   1.134   6.675   0.995 -0.3502 -0.3519  1.0692
 1912SOL    HW2 6636   1.004   6.722   0.907  0.7304 -0.1909 -0.4828
 1913SOL     OW 6637   0.762   5.922   5.871 -0.2320  0.7211 -0.0952
 1913SOL    HW1 6638   0.703   5.914   5.951  0.9335  1.0170  0.8083
 1913SOL    HW2 6639   0.821   6.001   5.880 -0.3987  1.0365 -1.4818
 1914SOL     OW 6640   7.007   2.788   0.214  0.1053  0.2704  0.3300
 1914SOL    HW1 6641   7.028   2.732   0.294 -2.1594  0.5882  1.2203
 1914SOL    HW2 6642   7.001   2.884   0.241 -1.3379  0.3094 -0.0498
 1915SOL     OW 6643   3.971   1.130   3.368 -0.0334  0.7685 -0.3089
 1915SOL    HW1 6644   4.012   1.194   3.432  0.5635  1.3952 -1.2998
 1915SOL    HW2 6645   3.905   1.178   3.310  0.6996  0.5949 -1.3151
 1916SOL     OW 6646   2.199   5.588   1.098 -0.2022  0.1924  0.1326
 1916SOL    HW1 6647   2.177   5.500   1.055  0.3328 -0.1908  0.6331
 1916SOL    HW2 6648   2.117   5.645   1.100 -0.6690 -0.4681  0.2008
 1917SOL     OW 6649   3.073   3.578   4.071  0.2502 -0.4362 -0.4143
 1917SOL    HW1 6650   3.038   3.485   4.068 -2.3601  0.4083  0.9385
 1917SOL    HW2 6651   3.167   3.578   4.107 -0.2418 -2.4163  0.9895
 1918SOL     OW 6652   4.520   6.964   4.818 -0.2427 -0.0913  0.3203
 1918SOL    HW1 6653   4.441   7.014   4.785  0.8879  1.7064  0.2176
 1918SOL    HW2 6654   4.589   6.959   4.745  0.6349  0.3341  1.1126
 1919SOL     OW 6655   0.595   6.948   2.000  1.0215  0.2533  0.6210
 1919SOL    HW1 6656   0.642   7.010   2.063  1.6346 -0.7340  1.1542
 1919SOL    HW2 6657   0.528   6.894   2.050  1.0182 -0.0412  0.3028
 1920SOL     OW 6658   0.432   0.636   3.946  0.3424 -0.0141 -0.9203
 1920SOL    HW1 6659   0.493   0.707   3.910  2.8329  0.1118  2.9851
 1920SOL    HW2 6660   0.340   0.674   3.956  0.9611  1.7589 -1.4690
 1921SOL     OW 6661   3.496   6.210   6.694  0.3249 -0.1681  0.1231
 1921SOL    HW1 6662   3.450   6.186   6.609  1.6698  2.2515 -1.3854
 1921SOL    HW2 6663   3.429   6.213   6.768 -1.2875 -0.1159 -1.2798
 1922SOL     OW 6664   3.888   3.065   0.113 -0.6077 -0.1779  0.0017
 1922SOL    HW1 6665   3.797   3.026   0.105  0.2006 -2.2041 -0.0109
 1922SOL    HW2 6666   3.947   3.028   0.040  0.6155 -0.1393  0.9300
 1923SOL     OW 6667   1.192   1.708   1.397 -0.1967 -0.1075  0.7846
 1923SOL    HW1 6668   1.173   1.749   1.486  0.2032  0.4743  0.6062
 1923SOL    HW2 6669   1.281   1.740   1.364 -0.5113 -0.0269  0.0036
 1924SOL     OW 6670   0.060   5.246   3.302  0.3068 -0.8358  0.3851
 1924SOL    HW1 6671  -0.036   5.226   3.326 -0.6416  0.5601 -1.8944
 1924SOL    HW2 6672   0.076   5.218   3.207  1.8942 -0.1580  0.4334
 1925SOL     OW 6673   3.201   3.903   1.069 -0.3112 -0.1101 -0.3964
 1925SOL    HW1 6674   3.197   3.907   1.169 -1.7082  0.2761 -0.4461
 1925SOL    HW2 6675   3.116   3.865   1.034  0.0510  0.0301 -1.4557
 1926SOL     OW 6676   1.575   0.523   4.189 -0.7093  0.0928  0.4016
 1926SOL    HW1 6677   1.634   0.599   4.159  0.2628  0.1651  2.3463
 1926SOL    HW2 6678   1.485   0.559   4.212 -1.0674  0.2282 -1.1044
 1927SOL     OW 6679   4.212   2.221   5.921 -0.1239  0.3027 -0.0945
 1927SOL    HW1 6680   4.261   2.134   5.927  0.4576  0.7007  1.2434
 1927SOL    HW2 6681   4.264   2.284   5.863  1.0096  0.7254  1.3191
 1928SOL     OW 6682   4.869   2.952   5.929 -0.0956  0.2339  0.0705
 1928SOL    HW1 6683   4.953   2.900   5.913 -0.0796  0.2009  0.2685
 1928SOL    HW2 6684   4.861   3.023   5.859 -0.5625 -0.5848 -0.7213
 1929SOL     OW 6685   1.809   5.734   1.556  0.5896 -0.1160  0.2469
 1929SOL    HW1 6686   1.819   5.683   1.642  1.0697 -0.0807  0.2177
 1929SOL    HW2 6687   1.734   5.799   1.564  0.0044 -0.7841  0.3077
 1930SOL     OW 6688   5.764   4.063   0.402  0.2495 -0.5958  0.7452
 1930SOL    HW1 6689   5.711   4.133   0.451 -0.8680 -0.5305 -0.4827
 1930SOL    HW2 6690   5.714   3.977   0.403  1.1557 -1.1260  1.3999
 1931SOL     OW 6691   5.977   5.388   3.737 -0.1406  0.0933 -0.1297
 1931SOL    HW1 6692   6.018   5.330   3.667  0.1558  0.2853 -0.1198
 1931SOL    HW2 6693   6.028   5.474   3.742 -1.3182  0.8633 -0.9917
 1932SOL     OW 6694   6.171   2.337   1.603 -0.1885  0.6401  0.2804
 1932SOL    HW1 6695   6.147   2.312   1.510 -0.6625  1.4417  0.1841
 1932SOL    HW2 6696   6.121   2.279   1.667  1.1069 -0.7933  0.0418
 1933SOL     OW 6697   4.070   3.095   0.351  0.0118  0.1482 -0.2897
 1933SOL    HW1 6698   4.107   3.031   0.418  0.2421  1.0438  0.4512
 1933SOL    HW2 6699   4.002   3.048   0.294 -0.5395 -0.5090  0.8738
 1934SOL     OW 6700   1.784   6.103   3.749  0.5813 -0.2212  0.4901
 1934SOL    HW1 6701   1.749   6.097   3.843  0.4140 -1.0162  0.3905
 1934SOL    HW2 6702   1.871   6.053   3.743  0.7207  0.0474  0.2809
 1935SOL     OW 6703   3.125   6.388   3.255 -0.1618 -0.3707 -0.1156
 1935SOL    HW1 6704   3.163   6.425   3.170  0.2347  1.3189  0.7519
 1935SOL    HW2 6705   3.160   6.441   3.333  0.5220 -2.6900  1.2437
 1936SOL     OW 6706   5.559   6.708   5.237  0.2208  0.2920 -0.0661
 1936SOL    HW1 6707   5.567   6.807   5.249  1.1784  0.1929  0.1804
 1936SOL    HW2 6708   5.649   6.666   5.242 -0.2822 -0.7354  1.1775
 1937SOL     OW 6709   3.673   0.038   2.332 -0.1394 -0.5071 -0.1866
 1937SOL    HW1 6710   3.644   0.003   2.244  0.5848  1.9896 -1.5293
 1937SOL    HW2 6711   3.773   0.046   2.334  0.0378 -2.3929  1.6706
 1938SOL     OW 6712   2.314   0.299   2.766 -0.3361  0.5872 -0.0062
 1938SOL    HW1 6713   2.273   0.363   2.830 -1.0363  1.1335 -0.9686
 1938SOL    HW2 6714   2.250   0.225   2.747 -1.2271  1.7887 -2.0165
 1939SOL     OW 6715   0.602   1.852   4.774 -0.0400 -0.7467  0.3776
 1939SOL    HW1 6716   0.682   1.911   4.763  0.3744 -1.4591 -0.5385
 1939SOL    HW2 6717   0.628   1.757   4.759 -1.4292 -0.8345 -1.9687
 1940SOL     OW 6718   5.327   3.413   5.795 -0.2310  0.0059 -0.2516
 1940SOL    HW1 6719   5.400   3.372   5.740 -0.5467 -1.9684  0.6976
 1940SOL    HW2 6720   5.318   3.363   5.881 -0.2040  2.5756  1.3613
 1941SOL     OW 6721   0.786   5.159   2.087  0.2234  0.3999  0.6802
 1941SOL    HW1 6722   0.865   5.169   2.027 -1.1350  0.5194 -1.1737
 1941SOL    HW2 6723   0.717   5.228   2.064 -1.4216 -1.2029  0.5712
 1942SOL     OW 6724   6.845   6.183   3.117  0.0701  0.2503 -0.4274
 1942SOL    HW1 6725   6.847   6.229   3.028 -0.8256  1.6381  0.2298
 1942SOL    HW2 6726   6.851   6.252   3.190 -0.9026 -0.7101  0.5925
 1943SOL     OW 6727   2.394   6.487   1.013 -0.0821 -1.4965  0.2966
 1943SOL    HW1 6728   2.345   6.504   0.927  1.2939  1.7337  0.0322
 1943SOL    HW2 6729   2.483   6.445   0.993  0.2529 -0.7114  0.1361
 1944SOL     OW 6730   6.659   2.415   1.626 -0.5967 -0.2777  0.3186
 1944SOL    HW1 6731   6.606   2.388   1.545  1.1389 -0.5058 -0.8035
 1944SOL    HW2 6732   6.750   2.444   1.597  0.2969 -0.9876  2.2739
 1945SOL     OW 6733   3.689   6.304   3.912  0.0522  0.3141  0.0003
 1945SOL    HW1 6734   3.751   6.246   3.861 -1.6616 -0.2149 -1.5800
 1945SOL    HW2 6735   3.692   6.279   4.009  1.1835 -0.6766 -0.2653
 1946SOL     OW 6736   2.310   1.829   1.488  0.0162 -0.4885  0.4130
 1946SOL    HW1 6737   2.380   1.866   1.549  1.4588 -0.7029 -1.0300
 1946SOL    HW2 6738   2.343   1.834   1.393 -1.7619 -1.0098 -0.2712
 1947SOL     OW 6739   0.005   6.045   3.376  0.2116  0.0495  0.0699
 1947SOL    HW1 6740   0.040   6.136   3.356  1.9382 -0.8027 -1.0355
 1947SOL    HW2 6741  -0.012   6.037   3.474  3.2457  0.5773  0.7555
 1948SOL     OW 6742   6.535   6.037   4.437  0.0082 -0.7031 -0.0189
 1948SOL    HW1 6743   6.615   6.012   4.383  3.0083  2.5071  2.4822
 1948SOL    HW2 6744   6.513   5.962   4.500  3.5202 -0.5265  1.7051
 1949SOL     OW 6745   4.401   4.341   5.373 -0.7447  0.4926 -0.4249
 1949SOL    HW1 6746   4.352   4.335   5.460  0.7297  2.2897  0.6022
 1949SOL    HW2 6747   4.336   4.338   5.297 -2.2620  0.9657  0.8072
 1950SOL     OW 6748   3.379   5.676   5.481  0.3740 -0.4308 -0.2586
 1950SOL    HW1 6749   3.309   5.697   5.549 -0.0974 -0.0388 -0.8459
 1950SOL    HW2 6750   3.405   5.580   5.487 -0.4328 -0.6481 -0.2284
 1951SOL     OW 6751   5.239   5.553   2.136  0.3267 -0.1127 -0.1471
 1951SOL    HW1 6752   5.182   5.514   2.064 -1.1353  2.2948 -0.3853
 1951SOL    HW2 6753   5.260   5.482   2.203 -0.7711 -1.6933 -1.3849
 1952SOL     OW 6754   5.179   1.262   2.365  0.5491  0.0644 -0.0242
 1952SOL    HW1 6755   5.199   1.175   2.320  2.3256  0.3121  0.1897
 1952SOL    HW2 6756   5.101   1.306   2.321 -1.1476 -2.1336  0.5896
 1953SOL     OW 6757   6.419   1.271   6.692 -0.2080 -0.0656  0.4932
 1953SOL    HW1 6758   6.378   1.275   6.784 -0.8272 -2.8466  0.4299
 1953SOL    HW2 6759   6.361   1.216   6.632  0.8303  0.6609 -1.2599
 1954SOL     OW 6760   5.490   2.506   2.470  0.0130 -0.6325  0.0928
 1954SOL    HW1 6761   5.570   2.473   2.520  1.2411 -1.5854 -2.3083
 1954SOL    HW2 6762   5.472   2.601   2.494  1.7582 -0.4550  0.8314
 1955SOL     OW 6763   1.277   0.982   1.821 -1.2910 -0.5307 -0.4189
 1955SOL    HW1 6764   1.325   1.008   1.737 -3.0606 -1.1076 -1.6769
 1955SOL    HW2 6765   1.244   1.064   1.867 -1.2771 -0.2466 -0.9034
 1956SOL     OW 6766   5.194   5.678   2.871  0.2437 -0.5293 -0.5305
 1956SOL    HW1 6767   5.181   5.777   2.869  2.2840 -0.2114 -0.6746
 1956SOL    HW2 6768   5.177   5.641   2.780 -2.0380 -0.5800 -0.1300
 1957SOL     OW 6769   0.010   4.764   5.379 -0.2686 -0.2157 -0.4562
 1957SOL    HW1 6770   0.047   4.854   5.357 -1.5890  0.5081  0.1812
 1957SOL    HW2 6771   0.080   4.709   5.424  0.3349  0.7443 -0.1978
 1958SOL     OW 6772   4.954   3.284   6.595 -0.5985  0.3903 -0.7137
 1958SOL    HW1 6773   4.968   3.239   6.683  1.5983  1.2207 -0.5757
 1958SOL    HW2 6774   4.869   3.252   6.554 -0.6965 -1.4567  0.8087
 1959SOL     OW 6775   0.558   3.567   4.846 -0.6406  0.5040  0.1643
 1959SOL    HW1 6776   0.626   3.624   4.892  2.0648 -1.1409 -1.5629
 1959SOL    HW2 6777   0.533   3.491   4.906  1.4662 -0.6043 -0.2766
 1960SOL     OW 6778   6.140   5.262   1.668  0.5815  0.1007  0.6782
 1960SOL    HW1 6779   6.124   5.339   1.730 -0.4449 -0.9468  1.7478
 1960SOL    HW2 6780   6.075   5.189   1.687 -0.5273  0.1535 -2.3762
 1961SOL     OW 6781   5.919   5.967   3.606  0.3509 -0.4137  0.2446
 1961SOL    HW1 6782   5.909   6.012   3.517 -0.6283 -1.8802 -0.4342
 1961SOL    HW2 6783   5.906   6.034   3.679  0.9947  0.7840 -0.7026
 1962SOL     OW 6784   3.240   6.503   3.042 -0.2201 -0.4232 -0.3880
 1962SOL    HW1 6785   3.288   6.452   2.971 -1.8623 -0.2508 -1.6820
 1962SOL    HW2 6786   3.154   6.539   3.005 -0.5335  0.7306  1.3462
 1963SOL     OW 6787   2.198   0.887   3.076 -0.2846  0.6269 -0.4344
 1963SOL    HW1 6788   2.140   0.859   3.152  1.1849  1.8538  1.2261
 1963SOL    HW2 6789   2.212   0.810   3.014  1.3780 -1.5920  2.4395
 1964SOL     OW 6790   3.537   2.880   2.361  0.5824 -0.5029 -0.2378
 1964SOL    HW1 6791   3.527   2.860   2.264 -0.3773  0.9798 -0.4809
 1964SOL    HW2 6792   3.631   2.906   2.381  0.4292  0.7998 -1.1177
 1965SOL     OW 6793   0.317   2.377   1.446 -0.8320  0.8616  0.4133
 1965SOL    HW1 6794   0.352   2.468   1.469  0.2547  0.5738 -0.0637
 1965SOL    HW2 6795   0.366   2.341   1.367 -2.7705  0.7759 -0.8073
 1966SOL     OW 6796   0.311   5.856   3.238  0.1613 -0.0865 -0.7889
 1966SOL    HW1 6797   0.226   5.825   3.281 -0.6204  1.6953 -0.9781
 1966SOL    HW2 6798   0.301   5.857   3.139  0.0133  1.1171 -0.7780
 1967SOL     OW 6799   5.370   1.814   5.054  0.1321  0.1314 -0.2762
 1967SOL    HW1 6800   5.278   1.782   5.077  0.6309 -1.3298 -0.2186
 1967SOL    HW2 6801   5.421   1.739   5.012  1.5251  0.7245  0.3142
 1968SOL     OW 6802   2.268   6.394   1.413  0.2128  0.3200  0.1862
 1968SOL    HW1 6803   2.250   6.479   1.464 -1.1668  0.3826 -0.3409
 1968SOL    HW2 6804   2.351   6.405   1.358 -1.1101  2.2272 -1.6342
 1969SOL     OW 6805   0.325   1.815   1.061 -0.1245  0.5284  0.0321
 1969SOL    HW1 6806   0.284   1.790   1.148 -3.4953 -1.2968 -1.8924
 1969SOL    HW2 6807   0.420   1.845   1.076 -0.8233  1.2014  4.3240
 1970SOL     OW 6808   1.613   2.219   6.814  0.2156  0.0381  0.1117
 1970SOL    HW1 6809   1.651   2.295   6.762 -2.6148  0.4243 -1.6385
 1970SOL    HW2 6810   1.585   2.250   6.905 -2.0458  1.5627 -1.0014
 1971SOL     OW 6811   0.910   6.955   6.691 -0.1083  0.3580  0.4105
 1971SOL    HW1 6812   0.824   7.005   6.684 -1.5164 -1.7569  1.3834
 1971SOL    HW2 6813   0.971   6.982   6.617 -1.5922  1.9166 -0.3049
 1972SOL     OW 6814   0.123   4.526   3.174  0.1857  0.1922  0.6870
 1972SOL    HW1 6815   0.109   4.455   3.244  2.1212 -0.4916  0.4293
 1972SOL    HW2 6816   0.220   4.534   3.153 -0.3770 -0.3944 -2.7345
 1973SOL     OW 6817   4.028   2.083   0.943  0.1152 -0.3123  0.3182
 1973SOL    HW1 6818   4.019   2.124   0.853  1.3625 -1.8504 -0.5581
 1973SOL    HW2 6819   4.095   2.133   0.997  0.7832 -0.5015 -0.3225
 1974SOL     OW 6820   0.373   6.401   4.288 -0.5118 -0.3061 -0.4980
 1974SOL    HW1 6821   0.420   6.329   4.340 -0.3138  0.1138 -0.0900
 1974SOL    HW2 6822   0.410   6.404   4.195  3.2075  2.6133  0.8420
 1975SOL     OW 6823   2.063   0.413   5.057  0.1988 -0.2878 -0.1173
 1975SOL    HW1 6824   2.075   0.341   5.124  0.3234  0.7433  1.0075
 1975SOL    HW2 6825   2.150   0.461   5.044 -0.4928  1.4837  1.3344
 1976SOL     OW 6826   0.190   5.378   0.583  0.0768 -0.2713 -0.0085
 1976SOL    HW1 6827   0.167   5.347   0.675  0.8071 -0.4037  0.1387
 1976SOL    HW2 6828   0.214   5.299   0.526  1.5722 -0.0490  0.2629
 1977SOL     OW 6829   1.066   4.287   2.847  0.1727  0.4737 -0.3650
 1977SOL    HW1 6830   1.054   4.386   2.856 -0.0187  0.3005  2.2998
 1977SOL    HW2 6831   0.991   4.249   2.794 -1.9860  1.3948  1.8199
 1978SOL     OW 6832   0.506   1.904   3.095 -0.3604 -0.4265  0.1949
 1978SOL    HW1 6833   0.590   1.872   3.050 -0.9600 -0.1054 -1.2145
 1978SOL    HW2 6834   0.505   2.004   3.094 -1.2083 -0.4294 -0.7027
 1979SOL     OW 6835   4.984   4.237   4.380  0.0446 -0.2965 -0.2421
 1979SOL    HW1 6836   5.029   4.164   4.328  0.5978 -0.5413  0.5662
 1979SOL    HW2 6837   5.041   4.263   4.458  0.4249  1.8053 -1.1279
 1980SOL     OW 6838   3.967   6.917   6.228 -0.0423 -0.2026 -0.0811
 1980SOL    HW1 6839   4.010   6.893   6.141  0.8910 -1.1261  0.6024
 1980SOL    HW2 6840   3.902   6.991   6.214 -0.1912 -0.5928 -1.6233
 1981SOL     OW 6841   6.318   2.273   3.151 -0.2640 -0.5440  0.3409
 1981SOL    HW1 6842   6.398   2.238   3.103 -1.0919 -0.2806 -1.2992
 1981SOL    HW2 6843   6.292   2.361   3.113 -0.4579  0.0970  1.8791
 1982SOL     OW 6844   5.608   4.638   4.985  0.0996 -0.0811  0.3502
 1982SOL    HW1 6845   5.541   4.638   5.059  0.1475  1.7416  0.4370
 1982SOL    HW2 6846   5.562   4.618   4.898 -0.4985  0.7224  0.4681
 1983SOL     OW 6847   0.026   3.275   2.762  0.2381  0.2414 -0.5097
 1983SOL    HW1 6848   0.044   3.270   2.663  0.5690 -0.1751 -0.4295
 1983SOL    HW2 6849   0.001   3.369   2.786  0.0456  0.3259 -1.0073
 1984SOL     OW 6850   4.595   6.195   6.719  0.1980 -0.2459  0.5811
 1984SOL    HW1 6851   4.615   6.244   6.633  1.1671 -1.0505  0.3285
 1984SOL    HW2 6852   4.679   6.152   6.753 -0.6148 -1.7525  0.7760
 1985SOL     OW 6853   0.035   1.071   2.699 -0.6202  0.1502  0.0201
 1985SOL    HW1 6854   0.083   1.151   2.735 -0.7023 -0.4339  1.4822
 1985SOL    HW2 6855  -0.049   1.102   2.652  0.0498  1.0012 -0.6591
 1986SOL     OW 6856   0.937   1.758   6.269 -0.6868  0.2850  0.0064
 1986SOL    HW1 6857   0.873   1.799   6.204  0.6306  3.2825  0.4467
 1986SOL    HW2 6858   1.006   1.705   6.220 -1.8731 -0.6959 -0.6655
 1987SOL     OW 6859   2.634   2.905   1.536 -0.1385  0.1031  0.1677
 1987SOL    HW1 6860   2.669   2.818   1.569 -1.1609 -0.0159  0.9654
 1987SOL    HW2 6861   2.535   2.899   1.523  0.1855  0.0650 -3.1515
 1988SOL     OW 6862   3.426   4.498   0.423 -0.5099  0.1753 -0.0484
 1988SOL    HW1 6863   3.460   4.409   0.454 -0.8673  0.8235  2.4663
 1988SOL    HW2 6864   3.504   4.558   0.404 -0.2721 -0.4899 -1.2512
 1989SOL     OW 6865   2.581   5.389   4.512  0.1138  0.2623  0.0717
 1989SOL    HW1 6866   2.584   5.372   4.413 -1.8117  0.5910 -0.0790
 1989SOL    HW2 6867   2.589   5.302   4.561 -3.6387 -0.6248 -0.5472
 1990SOL     OW 6868   1.056   1.271   1.432 -0.0012 -0.3234  0.0560
 1990SOL    HW1 6869   1.139   1.217   1.416 -0.3121 -0.9369  0.4982
 1990SOL    HW2 6870   0.975   1.215   1.413 -0.3315  0.6573 -1.6720
 1991SOL     OW 6871   3.575   4.460   6.765  0.2899 -1.0290 -0.0786
 1991SOL    HW1 6872   3.507   4.406   6.715 -1.2928  0.2333  0.6298
 1991SOL    HW2 6873   3.628   4.515   6.700 -0.1242 -1.1998 -0.5702
 1992SOL     OW 6874   2.982   0.847   5.258  0.0587  0.0312  0.0394
 1992SOL    HW1 6875   3.024   0.788   5.188 -1.0135 -0.6357 -0.0724
 1992SOL    HW2 6876   2.891   0.812   5.280  1.3335 -1.4417  3.7549
 1993SOL     OW 6877   4.485   2.301   5.424 -0.1810  0.0453  0.2180
 1993SOL    HW1 6878   4.582   2.296   5.447 -0.3509 -1.5560  0.7285
 1993SOL    HW2 6879   4.453   2.211   5.396 -1.7898  0.2628  1.2163
 1994SOL     OW 6880   1.937   3.250   3.764 -0.4061  0.1456 -0.2669
 1994SOL    HW1 6881   1.844   3.253   3.727 -0.6328 -1.1661  0.1331
 1994SOL    HW2 6882   1.989   3.179   3.716  0.4315  0.9227 -0.5440
 1995SOL     OW 6883   6.860   3.249   5.244  0.0855 -0.2020 -0.1852
 1995SOL    HW1 6884   6.838   3.218   5.337 -1.4014  2.6410  0.5362
 1995SOL    HW2 6885   6.779   3.241   5.187  0.7344 -1.0291 -1.0238
 1996SOL     OW 6886   5.790   4.652   6.816 -0.0697  0.5234 -0.7922
 1996SOL    HW1 6887   5.819   4.702   6.897 -1.4115 -0.8411  0.5917
 1996SOL    HW2 6888   5.862   4.588   6.788  0.6337  1.4137 -1.0775
 1997SOL     OW 6889   0.843   3.086   2.874 -0.0490  0.0891 -0.4852
 1997SOL    HW1 6890   0.766   3.068   2.813  0.0685  0.2099 -0.6698
 1997SOL    HW2 6891   0.823   3.167   2.930 -0.9228 -1.0282  0.9167
 1998SOL     OW 6892   4.011   4.585   6.402  0.4281 -0.4100  0.4184
 1998SOL    HW1 6893   4.055   4.628   6.322  4.5212 -0.7503  2.2172
 1998SOL    HW2 6894   4.028   4.487   6.400 -0.0468 -0.5143  1.3561
 1999SOL     OW 6895   0.722   0.932   1.248 -0.2090 -0.0327  0.2157
 1999SOL    HW1 6896   0.706   0.970   1.156  1.8935 -1.1650 -0.6627
 1999SOL    HW2 6897   0.791   0.987   1.295  0.5943 -0.9513  0.1211
 2000SOL     OW 6898   3.922   1.615   6.737  0.2310  0.2621  0.7157
 2000SOL    HW1 6899   3.944   1.623   6.640  0.8673 -1.4127  0.6926
 2000SOL    HW2 6900   4.005   1.623   6.791  0.6858 -3.4297  0.7859
 2001SOL     OW 6901   5.424   2.008   6.848 -0.1294 -0.4866 -0.1339
 2001SOL    HW1 6902   5.504   2.060   6.878 -1.1895  0.2455  1.5265
 2001SOL    HW2 6903   5.378   2.058   6.775 -1.9427  1.8073  2.3657
 2002SOL     OW 6904   3.709   0.708   6.844  0.6134 -0.1348  0.1589
 2002SOL    HW1 6905   3.744   0.667   6.759  0.8799 -1.5327  0.9238
 2002SOL    HW2 6906   3.611   0.727   6.834  0.6921 -0.0434 -0.5369
 2003SOL     OW 6907   6.646   0.451   3.740  0.1483  0.5125  0.0355
 2003SOL    HW1 6908   6.586   0.458   3.820 -1.0514  0.7203 -0.8586
 2003SOL    HW2 6909   6.654   0.541   3.697  1.2824  0.5291  0.2582
 2004SOL     OW 6910   4.761   1.989   2.916 -0.3749  0.2358  0.1329
 2004SOL    HW1 6911   4.834   1.939   2.962 -1.7823 -0.9493  1.1657
 2004SOL    HW2 6912   4.789   2.084   2.903  0.4971  0.3658  2.5153
 2005SOL     OW 6913   2.049   6.756   1.664 -0.1569  0.3476 -0.0882
 2005SOL    HW1 6914   2.076   6.846   1.698  1.7084 -0.7660  1.5234
 2005SOL    HW2 6915   2.091   6.741   1.574 -1.0435  1.3032 -0.7005
 2006SOL     OW 6916   5.342   4.615   2.870 -0.1267 -0.6307 -0.6779
 2006SOL    HW1 6917   5.244   4.597   2.881 -0.1639 -1.4213 -2.1270
 2006SOL    HW2 6918   5.361   4.639   2.775  1.0850 -0.3995 -0.3947
 2007SOL     OW 6919   5.979   3.694   0.267  0.5660 -0.3955  0.2838
 2007SOL    HW1 6920   6.072   3.719   0.242  0.0014  1.3612 -0.1803
 2007SOL    HW2 6921   5.965   3.709   0.365  0.3370  0.8362  0.0732
 2008SOL     OW 6922   5.610   0.176   3.642 -0.6147  0.2324  0.6527
 2008SOL    HW1 6923   5.543   0.113   3.682  0.0219 -1.0191 -0.1786
 2008SOL    HW2 6924   5.697   0.129   3.631 -0.0522  1.3499  0.2292
 2009SOL     OW 6925   0.732   1.817   1.537 -0.1018 -0.2348 -0.7396
 2009SOL    HW1 6926   0.643   1.863   1.536  1.0937  2.3284  0.3911
 2009SOL    HW2 6927   0.752   1.780   1.446 -3.1042 -2.6713 -0.5432
 2010SOL     OW 6928   6.835   4.465   1.002  0.0527 -0.0993  0.2393
 2010SOL    HW1 6929   6.788   4.424   0.923  0.6308 -1.7906  0.7145
 2010SOL    HW2 6930   6.776   4.533   1.045 -0.1635  1.0868 -1.8079
 2011SOL     OW 6931   6.632   1.672   6.149  0.3420 -0.0450 -0.1564
 2011SOL    HW1 6932   6.676   1.589   6.113  2.4834  1.5287 -1.4350
 2011SOL    HW2 6933   6.570   1.648   6.223  1.5716 -2.6957  0.1169
 2012SOL     OW 6934   1.504   4.161   2.105  0.1490  0.1827  0.2559
 2012SOL    HW1 6935   1.566   4.092   2.143  0.5875  1.0253  1.0901
 2012SOL    HW2 6936   1.552   4.215   2.036  0.0603  0.2293  0.2301
 2013SOL     OW 6937   6.037   0.121   1.050  0.3751  0.1722 -0.0681
 2013SOL    HW1 6938   6.000   0.207   1.086 -0.4239  0.0811 -0.6514
 2013SOL    HW2 6939   5.992   0.044   1.096  1.3842  0.0547  0.7503
 2014SOL     OW 6940   0.093   6.975   3.744  0.2754 -0.3705 -0.4243
 2014SOL    HW1 6941  -0.006   6.974   3.727  0.4395  0.2890 -1.4736
 2014SOL    HW2 6942   0.119   7.062   3.785  0.9663  1.1585 -3.8359
 2015SOL     OW 6943   3.840   0.676   0.489 -0.2415  0.3436  0.2719
 2015SOL    HW1 6944   3.759   0.703   0.541 -0.5931 -0.1270 -0.0250
 2015SOL    HW2 6945   3.921   0.691   0.545 -0.3971  2.1278  0.0793
 2016SOL     OW 6946   1.164   5.392   5.318 -0.1865  0.0544 -0.0716
 2016SOL    HW1 6947   1.158   5.489   5.293 -1.5964  0.2052  0.7342
 2016SOL    HW2 6948   1.162   5.384   5.418  2.0592 -0.7094 -0.0342
 2017SOL     OW 6949   2.916   0.770   2.788  0.6836 -0.2323  0.0500
 2017SOL    HW1 6950   2.991   0.746   2.849 -1.3564  0.0730  2.8464
 2017SOL    HW2 6951   2.837   0.711   2.806 -0.5703  1.0204 -1.0795
 2018SOL     OW 6952   5.313   5.447   4.833  0.2356 -0.5390 -0.1609
 2018SOL    HW1 6953   5.228   5.396   4.839  0.7294 -1.6571 -1.8842
 2018SOL    HW2 6954   5.308   5.512   4.756  0.8682 -0.5073 -0.1860
 2019SOL     OW 6955   4.480   1.264   1.104 -0.8282  0.6835 -0.0705
 2019SOL    HW1 6956   4.504   1.181   1.054 -0.4854  0.4570  0.4708
 2019SOL    HW2 6957   4.443   1.331   1.040  1.2078  1.0357 -0.9516
 2020SOL     OW 6958   2.015   6.221   4.315 -0.4454 -0.8990 -0.5188
 2020SOL    HW1 6959   2.079   6.145   4.308  0.6183 -0.0605 -0.0903
 2020SOL    HW2 6960   2.063   6.306   4.295 -0.6799  0.0894  2.6854
 2021SOL     OW 6961   1.526   1.052   1.216  0.7890 -0.7163  0.1688
 2021SOL    HW1 6962   1.619   1.073   1.246  0.0432  1.9135  0.8718
 2021SOL    HW2 6963   1.509   1.096   1.128 -0.2581  0.1265  0.7788
 2022SOL     OW 6964   1.813   2.806   1.059  0.0781 -0.4426 -0.3421
 2022SOL    HW1 6965   1.898   2.779   1.015 -0.3211 -1.4657 -0.5090
 2022SOL    HW2 6966   1.768   2.877   1.004  1.6397  1.4088  0.6395
 2023SOL     OW 6967   1.168   6.959   5.830  0.1976 -0.0563 -0.2711
 2023SOL    HW1 6968   1.225   6.948   5.912 -0.4963 -1.9666  0.0068
 2023SOL    HW2 6969   1.137   6.869   5.799 -1.2179  0.7986 -1.4539
 2024SOL     OW 6970   6.065   1.990   1.489  0.0496 -0.1406  0.2748
 2024SOL    HW1 6971   6.028   2.080   1.513 -0.7101 -0.4317  0.2178
 2024SOL    HW2 6972   6.080   1.937   1.573 -2.3403 -1.0550  0.1773
 2025SOL     OW 6973   2.952   0.910   1.602  0.1857  0.5087 -0.2491
 2025SOL    HW1 6974   2.962   0.880   1.697  0.5634  0.4991 -0.2899
 2025SOL    HW2 6975   2.980   0.837   1.541  0.7492  0.8102 -0.3553
 2026SOL     OW 6976   1.364   3.688   5.429  0.3127  0.4542 -0.3144
 2026SOL    HW1 6977   1.454   3.723   5.457 -0.7150  2.9031  0.1863
 2026SOL    HW2 6978   1.345   3.719   5.336  0.3558 -0.9019 -0.7979
 2027SOL     OW 6979   4.784   1.278   0.739  0.2113  0.3261  0.1151
 2027SOL    HW1 6980   4.822   1.292   0.648  2.7773  1.2709  1.2252
 2027SOL    HW2 6981   4.759   1.182   0.751 -0.1546  0.1906 -1.5529
 2028SOL     OW 6982   2.525   6.587   1.615  0.0143  0.0803 -0.1998
 2028SOL    HW1 6983   2.547   6.678   1.579 -2.1822  0.4128 -0.8283
 2028SOL    HW2 6984   2.540   6.586   1.714 -0.0664  1.1671 -0.1659
 2029SOL     OW 6985   0.832   1.489   6.948  0.0467 -0.1767 -0.0483
 2029SOL    HW1 6986   0.782   1.485   7.035 -1.9081 -1.7695 -1.1650
 2029SOL    HW2 6987   0.795   1.563   6.892  0.4094  0.0091 -0.0429
 2030SOL     OW 6988   2.415   2.727   3.127 -0.1686  0.4112 -0.0857
 2030SOL    HW1 6989   2.441   2.676   3.209  1.0312  1.1250 -0.0111
 2030SOL    HW2 6990   2.368   2.665   3.063 -2.3209  0.1263  1.6491
 2031SOL     OW 6991   5.579   4.588   2.474  0.2109 -0.1665  0.5878
 2031SOL    HW1 6992   5.632   4.665   2.437  0.0100 -0.6047 -0.6707
 2031SOL    HW2 6993   5.636   4.505   2.471  0.3390 -0.1259  1.6956
 2032SOL     OW 6994   6.354   6.831   0.816 -0.2275 -0.3442 -0.6625
 2032SOL    HW1 6995   6.316   6.779   0.740 -0.9490  0.8046 -1.1259
 2032SOL    HW2 6996   6.280   6.855   0.880 -0.5608  2.6025 -1.9785
 2033SOL     OW 6997   4.685   3.169   0.050 -0.1461 -0.7648 -0.2141
 2033SOL    HW1 6998   4.646   3.232   0.118  2.8866  0.1123  0.9132
 2033SOL    HW2 6999   4.623   3.092   0.036 -1.0625 -0.9192  3.4930
 2034SOL     OW 7000   1.720   0.475   6.268 -0.3730  0.2116  0.5711
 2034SOL    HW1 7001   1.757   0.567   6.260  1.0996 -0.2568  1.5816
 2034SOL    HW2 7002   1.722   0.447   6.364 -0.4503 -0.9998  0.2331
 2035SOL     OW 7003   0.947   1.882   2.469  0.4241  0.1457 -0.0457
 2035SOL    HW1 7004   0.891   1.933   2.403  2.3445  0.3735 -1.6078
 2035SOL    HW2 7005   1.009   1.945   2.516  0.3863 -0.2873  0.5934
 2036SOL     OW 7006   0.674   0.320   1.881  0.1534  0.2504  0.2700
 2036SOL    HW1 7007   0.695   0.235   1.930  0.7501 -0.6155 -1.4069
 2036SOL    HW2 7008   0.600   0.368   1.928  0.0094 -1.0329  1.4332
 2037SOL     OW 7009   6.472   2.654   0.077 -0.3216 -0.8512 -0.6939
 2037SOL    HW1 7010   6.443   2.720   0.009 -0.1565 -1.7441 -1.6515
 2037SOL    HW2 7011   6.480   2.564   0.035 -1.8495 -1.7714  0.8692
 2038SOL     OW 7012   6.327   0.665   1.142  0.1220 -0.0672 -0.2866
 2038SOL    HW1 7013   6.348   0.685   1.238 -0.1911  0.7788 -0.3899
 2038SOL    HW2 7014   6.250   0.720   1.112  1.4633  1.2013 -1.5952
 2039SOL     OW 7015   1.256   5.298   3.518  0.1021 -0.1789  1.0156
 2039SOL    HW1 7016   1.333   5.247   3.478 -0.0493  0.6884 -0.4307
 2039SOL    HW2 7017   1.207   5.238   3.582  0.5569 -1.5097  0.1603
 2040SOL     OW 7018   4.013   3.522   3.639  0.7865 -0.4720 -0.1174
 2040SOL    HW1 7019   3.916   3.510   3.661  0.4676  0.1988 -1.0581
 2040SOL    HW2 7020   4.069   3.472   3.704 -0.2133 -1.2552  0.1577
 2041SOL     OW 7021   6.899   6.209   6.147  0.5890  0.3547  0.5605
 2041SOL    HW1 7022   6.936   6.128   6.103  1.3529  0.2144  1.4282
 2041SOL    HW2 7023   6.816   6.185   6.198  0.9875  0.0362  1.0739
 2042SOL     OW 7024   6.412   4.655   0.786 -0.0137  0.2328 -0.1288
 2042SOL    HW1 7025   6.491   4.598   0.808  0.3718  0.0936 -1.7839
 2042SOL    HW2 7026   6.328   4.604   0.806  0.2792 -1.7158 -3.1593
 2043SOL     OW 7027   6.399   5.728   3.150  0.1464  0.3735  0.6715
 2043SOL    HW1 7028   6.311   5.748   3.193 -0.0028  0.5635  0.2771
 2043SOL    HW2 7029   6.461   5.806   3.163 -0.4247  1.1116 -0.8384
 2044SOL     OW 7030   6.221   6.547   3.457 -0.3376 -0.7529 -0.2477
 2044SOL    HW1 7031   6.259   6.637   3.435 -1.0340 -0.7072 -1.3295
 2044SOL    HW2 7032   6.131   6.559   3.498 -0.2772 -0.9538 -0.0554
 2045SOL     OW 7033   1.335   4.381   4.878  0.2258 -0.2466  0.5715
 2045SOL    HW1 7034   1.239   4.356   4.890 -0.7506  2.7958 -0.0398
 2045SOL    HW2 7035   1.365   4.355   4.786 -0.8032  0.9016 -0.1208
 2046SOL     OW 7036   0.102   0.470   6.767  0.4021  0.1410  0.2227
 2046SOL    HW1 7037   0.110   0.518   6.680  1.1090  0.4806  0.4632
 2046SOL    HW2 7038   0.011   0.486   6.806  1.0527  2.4915  0.9660
 2047SOL     OW 7039   4.264   1.394   0.050  0.0306  0.2807 -0.3028
 2047SOL    HW1 7040   4.267   1.341   0.135 -0.0676  0.5621 -0.1208
 2047SOL    HW2 7041   4.351   1.383   0.001  0.3479  0.6522  0.1669
 2048SOL     OW 7042   3.636   0.278   5.682  0.0343 -0.1541  0.4377
 2048SOL    HW1 7043   3.637   0.223   5.766 -0.6153 -0.2307  0.4038
 2048SOL    HW2 7044   3.682   0.365   5.699 -1.0684  0.3012  1.2258
 2049SOL     OW 7045   4.570   0.181   1.623 -0.4029  0.2159  0.5908
 2049SOL    HW1 7046   4.508   0.257   1.601 -0.6052 -0.0695  0.1697
 2049SOL    HW2 7047   4.652   0.188   1.567 -0.4810  0.0479  0.4558
 2050SOL     OW 7048   0.233   2.169   3.775  0.4364  0.2023  0.2904
 2050SOL    HW1 7049   0.308   2.222   3.816  2.4402 -0.8042 -1.8304
 2050SOL    HW2 7050   0.269   2.081   3.742 -1.8230 -0.5260 -0.4192
 2051SOL     OW 7051   0.211   5.975   6.218  0.3436  0.1405 -0.2626
 2051SOL    HW1 7052   0.227   5.969   6.317  0.5146 -2.5254 -0.3844
 2051SOL    HW2 7053   0.291   5.940   6.170  0.5199  2.0001 -1.4237
 2052SOL     OW 7054   5.007   4.499   6.351 -0.2838 -0.3485 -0.3586
 2052SOL    HW1 7055   5.076   4.430   6.330  0.7994  0.1747  1.2708
 2052SOL    HW2 7056   5.047   4.590   6.339 -0.3195 -0.0361  1.5880
 2053SOL     OW 7057   6.124   5.544   1.150  0.0635 -0.1195 -0.0305
 2053SOL    HW1 7058   6.188   5.475   1.184 -1.0989 -0.2531  2.0404
 2053SOL    HW2 7059   6.162   5.635   1.168 -1.1513 -0.1096  3.3909
 2054SOL     OW 7060   5.804   1.268   6.034 -0.1141 -0.2823  0.0147
 2054SOL    HW1 7061   5.745   1.256   6.114 -2.1767  0.9296 -1.2208
 2054SOL    HW2 7062   5.750   1.253   5.950  1.6235 -0.1362 -1.1893
 2055SOL     OW 7063   5.603   2.459   2.819  0.2748  0.1518 -0.1661
 2055SOL    HW1 7064   5.606   2.371   2.866 -0.9605 -0.0527 -0.4360
 2055SOL    HW2 7065   5.520   2.508   2.846  0.3926  0.7495 -0.8683
 2056SOL     OW 7066   1.354   1.873   3.826  0.1008  0.4591  0.6746
 2056SOL    HW1 7067   1.357   1.792   3.768 -0.1738  1.2671 -0.5068
 2056SOL    HW2 7068   1.263   1.880   3.868 -2.0164  2.9685 -3.5521
 2057SOL     OW 7069   5.240   2.860   2.363 -0.5596 -0.0535  0.0783
 2057SOL    HW1 7070   5.183   2.818   2.293  1.4858 -4.0405  0.5173
 2057SOL    HW2 7071   5.317   2.908   2.320 -1.4823  1.0687 -0.3820
 2058SOL     OW 7072   0.090   2.280   1.053 -0.3168 -0.3260 -0.1474
 2058SOL    HW1 7073   0.075   2.253   0.957  1.6399 -1.0418 -0.2898
 2058SOL    HW2 7074   0.053   2.209   1.113  1.0864 -1.3690 -0.4601
 2059SOL     OW 7075   3.510   6.826   0.133  0.1549 -0.2181  0.5273
 2059SOL    HW1 7076   3.563   6.841   0.216  0.0448 -0.9108  0.7238
 2059SOL    HW2 7077   3.546   6.747   0.084 -0.4843 -0.4897  0.4909
 2060SOL     OW 7078   1.787   6.014   2.685 -0.2487  0.4994  0.5307
 2060SOL    HW1 7079   1.773   6.102   2.729 -0.1436  1.0682 -0.5374
 2060SOL    HW2 7080   1.870   6.018   2.629  0.4614 -0.6746  1.4369
 2061SOL     OW 7081   6.429   2.072   2.391 -0.0568 -0.1920  0.3441
 2061SOL    HW1 7082   6.499   2.067   2.462  0.1832  1.0956  0.2202
 2061SOL    HW2 7083   6.470   2.104   2.305 -0.8781  1.1170  0.4177
 2062SOL     OW 7084   3.702   5.760   2.124  0.4723 -0.3059  0.5454
 2062SOL    HW1 7085   3.648   5.749   2.040 -0.8240  0.0512  1.3097
 2062SOL    HW2 7086   3.797   5.739   2.104  0.1384 -0.5733 -0.9400
 2063SOL     OW 7087   3.725   1.170   1.734 -0.4001 -0.3890  0.4262
 2063SOL    HW1 7088   3.776   1.234   1.676 -0.1189 -0.7178  0.3116
 2063SOL    HW2 7089   3.787   1.130   1.802 -0.6386 -0.3269  0.6837
 2064SOL     OW 7090   1.826   2.473   4.123 -0.5568 -0.1664  0.1589
 2064SOL    HW1 7091   1.905   2.527   4.151  1.8066 -1.1025 -3.8534
 2064SOL    HW2 7092   1.751   2.534   4.098  1.3436  1.3520 -2.3324
 2065SOL     OW 7093   0.897   4.327   1.091 -0.1397  0.1581 -0.7481
 2065SOL    HW1 7094   0.832   4.323   1.167 -0.0361  0.2959 -0.6506
 2065SOL    HW2 7095   0.968   4.259   1.104 -0.5120 -0.2982 -1.0867
 2066SOL     OW 7096   0.304   5.482   3.564 -0.3720 -0.2323 -0.0632
 2066SOL    HW1 7097   0.227   5.546   3.568 -1.6406 -1.7425  0.3020
 2066SOL    HW2 7098   0.388   5.533   3.542 -1.3564  1.5197  0.0521
 2067SOL     OW 7099   6.516   5.595   0.173  0.4699 -0.0784  0.2919
 2067SOL    HW1 7100   6.535   5.506   0.131  2.5239 -0.4452  1.8609
 2067SOL    HW2 7101   6.554   5.598   0.265 -0.4021  2.1144  0.6551
 2068SOL     OW 7102   1.963   6.179   6.113  0.6233  0.3290  0.0020
 2068SOL    HW1 7103   2.026   6.230   6.171  1.0004  0.1896 -0.2826
 2068SOL    HW2 7104   1.981   6.081   6.122 -0.4109  0.1959  0.9154
 2069SOL     OW 7105   1.923   5.175   1.301  0.2151 -0.0578 -0.1404
 2069SOL    HW1 7106   1.984   5.252   1.320  0.8870 -0.3129 -1.1353
 2069SOL    HW2 7107   1.840   5.208   1.257  0.4717  0.1233 -0.4990
 2070SOL     OW 7108   1.004   2.260   0.273  0.3502  0.1162 -0.1060
 2070SOL    HW1 7109   1.016   2.194   0.198 -0.6713 -0.3961  0.1753
 2070SOL    HW2 7110   0.931   2.324   0.249 -0.4301 -0.4496  0.7189
 2071SOL     OW 7111   0.818   6.236   4.233  0.2694 -0.0869 -0.1534
 2071SOL    HW1 7112   0.822   6.280   4.144 -2.7123 -0.4155 -0.5505
 2071SOL    HW2 7113   0.846   6.140   4.225 -0.2408 -0.1856 -0.7895
 2072SOL     OW 7114   4.349   6.681   2.632  0.3695  0.3394 -0.2774
 2072SOL    HW1 7115   4.293   6.764   2.629 -1.3031 -0.6891  0.7622
 2072SOL    HW2 7116   4.368   6.658   2.728 -2.1266 -2.2817 -0.2975
 2073SOL     OW 7117   3.924   6.747   3.552  0.2860  0.0054 -0.1137
 2073SOL    HW1 7118   3.829   6.737   3.580 -0.3492  0.2210 -2.0162
 2073SOL    HW2 7119   3.961   6.657   3.526  0.5835 -0.0667  0.5454
 2074SOL     OW 7120   6.003   4.271   5.473 -0.0816  0.2062 -0.5076
 2074SOL    HW1 7121   6.084   4.223   5.504  0.9817  2.2967  0.1460
 2074SOL    HW2 7122   5.972   4.231   5.387  0.5562 -1.7658  0.1292
 2075SOL     OW 7123   4.831   3.939   2.472  0.2488  0.5304  0.2601
 2075SOL    HW1 7124   4.852   3.870   2.541  1.2966  0.1920 -0.3704
 2075SOL    HW2 7125   4.843   3.900   2.381  1.5135  1.7019 -0.1164
 2076SOL     OW 7126   6.376   6.195   1.299 -0.7552  0.4273 -0.1987
 2076SOL    HW1 7127   6.422   6.189   1.388  0.8413  2.2927 -0.8253
 2076SOL    HW2 7128   6.278   6.206   1.313 -0.9611 -2.4185  1.2124
 2077SOL     OW 7129   6.742   0.820   2.807 -0.4292  0.2487 -0.9254
 2077SOL    HW1 7130   6.793   0.869   2.878 -2.3667  0.5024  0.3505
 2077SOL    HW2 7131   6.714   0.730   2.841 -1.9610  0.6392 -1.0609
 2078SOL     OW 7132   2.126   5.365   5.486 -0.1651  0.1647 -0.6172
 2078SOL    HW1 7133   2.127   5.396   5.391 -0.7820  0.1680 -0.6269
 2078SOL    HW2 7134   2.197   5.413   5.537 -0.6705  1.1092 -0.7825
 2079SOL     OW 7135   6.114   0.866   3.326 -0.2091 -0.1125  0.2133
 2079SOL    HW1 7136   6.047   0.792   3.330  2.5034 -2.9330 -1.5779
 2079SOL    HW2 7137   6.096   0.923   3.246 -0.1921 -1.2039 -0.5919
 2080SOL     OW 7138   1.867   2.103   6.335 -0.2853  0.4062  0.1213
 2080SOL    HW1 7139   1.925   2.183   6.327 -0.4705  0.5319  0.0141
 2080SOL    HW2 7140   1.835   2.093   6.429  0.4409 -0.0419  0.3257
 2081SOL     OW 7141   0.558   4.884   4.834  0.4228 -0.1170  0.0724
 2081SOL    HW1 7142   0.628   4.818   4.862  0.6262 -0.3292 -0.8909
 2081SOL    HW2 7143   0.601   4.971   4.812  0.1783  0.2783  1.1299
 2082SOL     OW 7144   6.265   6.819   1.303 -0.0033 -0.1985  0.2427
 2082SOL    HW1 7145   6.310   6.814   1.392  0.7983  2.0384  0.0366
 2082SOL    HW2 7146   6.244   6.727   1.270  1.0770 -1.1270  2.0307
 2083SOL     OW 7147   5.790   2.245   0.775  0.3804 -0.0613 -0.2489
 2083SOL    HW1 7148   5.711   2.301   0.799  0.2615 -0.5080  0.4183
 2083SOL    HW2 7149   5.874   2.294   0.802  0.2547 -0.4835  0.9619
 2084SOL     OW 7150   6.849   3.765   4.263  0.4502  0.1834  0.0231
 2084SOL    HW1 7151   6.910   3.792   4.336  0.8439  1.1516 -0.6422
 2084SOL    HW2 7152   6.900   3.758   4.177  0.1878 -1.8211 -0.0319
 2085SOL     OW 7153   5.111   0.694   0.155  0.3196 -0.2951 -0.6278
 2085SOL    HW1 7154   5.186   0.748   0.194  0.6859  0.7457 -2.6358
 2085SOL    HW2 7155   5.133   0.597   0.161  0.7715 -0.1202  0.8594
 2086SOL     OW 7156   3.569   4.508   0.969  0.4602 -0.2136 -0.1206
 2086SOL    HW1 7157   3.607   4.429   0.921  0.7507  0.4479 -1.0211
 2086SOL    HW2 7158   3.474   4.522   0.942  0.5546  0.0245 -0.3362
 2087SOL     OW 7159   5.105   5.353   1.240  0.3623  0.0335  0.6363
 2087SOL    HW1 7160   5.202   5.331   1.232  0.1186 -0.6314 -0.9736
 2087SOL    HW2 7161   5.093   5.452   1.246  1.1564  0.0873  1.4868
 2088SOL     OW 7162   3.588   5.400   6.420 -0.2070  0.0124 -0.4062
 2088SOL    HW1 7163   3.568   5.307   6.449  0.3879 -0.3976 -1.2653
 2088SOL    HW2 7164   3.509   5.438   6.373 -0.8396  0.3472  0.8657
 2089SOL     OW 7165   4.231   6.855   1.850  0.1880 -0.5174  0.0957
 2089SOL    HW1 7166   4.238   6.915   1.770  2.1968 -0.0147  0.5802
 2089SOL    HW2 7167   4.203   6.908   1.929 -1.3684 -0.9304 -0.1493
 2090SOL     OW 7168   3.946   2.704   5.666  0.2779 -0.4492 -0.7830
 2090SOL    HW1 7169   3.894   2.636   5.614  0.7509 -0.9712 -0.5932
 2090SOL    HW2 7170   3.921   2.796   5.636  0.1027 -0.7246 -1.5035
 2091SOL     OW 7171   5.846   5.096   0.163  0.6999  0.0591  0.1060
 2091SOL    HW1 7172   5.753   5.071   0.137 -0.1478  1.4750  1.5632
 2091SOL    HW2 7173   5.899   5.120   0.082 -1.2786  2.6372 -0.5243
 2092SOL     OW 7174   0.624   4.856   1.103 -0.0358  0.7568 -0.3968
 2092SOL    HW1 7175   0.559   4.892   1.037 -1.2672  0.2060  0.4826
 2092SOL    HW2 7176   0.650   4.928   1.167 -0.7994  0.6561  0.0349
 2093SOL     OW 7177   1.335   0.684   3.071  0.4079  0.4654 -0.9022
 2093SOL    HW1 7178   1.372   0.739   3.147  1.8788 -0.1806 -1.1061
 2093SOL    HW2 7179   1.340   0.587   3.096 -1.9938  0.3708 -0.6202
 2094SOL     OW 7180   5.353   0.727   0.591  0.6034 -0.0074 -0.3385
 2094SOL    HW1 7181   5.432   0.789   0.598  0.1639  0.4517  0.7466
 2094SOL    HW2 7182   5.383   0.633   0.612  0.7039  0.3033  1.0358
 2095SOL     OW 7183   6.468   6.799   4.570  0.5272  0.4952  0.0674
 2095SOL    HW1 7184   6.425   6.885   4.544  1.2809  0.6746 -0.6278
 2095SOL    HW2 7185   6.530   6.769   4.497 -0.5847 -1.2372 -0.2250
 2096SOL     OW 7186   5.329   4.113   2.941 -0.0798  0.0068  0.7208
 2096SOL    HW1 7187   5.262   4.170   2.988 -1.0087 -1.1107  0.7846
 2096SOL    HW2 7188   5.283   4.035   2.899  1.0084 -0.0713 -0.3647
 2097SOL     OW 7189   1.571   1.522   6.741  0.2010  0.2805 -0.7333
 2097SOL    HW1 7190   1.658   1.526   6.790  0.6115 -3.2438 -0.8916
 2097SOL    HW2 7191   1.586   1.542   6.644  1.0745 -1.2325 -0.9361
 2098SOL     OW 7192   2.892   5.941   3.113  0.2268  0.2016 -0.1515
 2098SOL    HW1 7193   2.926   5.914   3.203 -0.8233 -0.6373  0.0203
 2098SOL    HW2 7194   2.946   6.018   3.078  0.9374  0.2420  0.9860
 2099SOL     OW 7195   0.584   2.748   5.076  0.0853  0.5374  0.1154
 2099SOL    HW1 7196   0.597   2.824   5.013  1.2097 -0.5704 -1.0578
 2099SOL    HW2 7197   0.522   2.681   5.036  0.2163  0.1780  0.5066
 2100SOL     OW 7198   4.704   0.543   6.018  0.3069  0.1207  0.4389
 2100SOL    HW1 7199   4.634   0.612   6.001  2.8044  3.5008  2.5959
 2100SOL    HW2 7200   4.716   0.487   5.936 -1.6287  2.4824 -1.6216
 2101SOL     OW 7201   0.760   1.258   1.887 -0.5376  0.5710 -0.2792
 2101SOL    HW1 7202   0.738   1.165   1.918  0.6578  0.4329  0.1965
 2101SOL    HW2 7203   0.850   1.259   1.845 -0.7458  1.4354 -0.7274
 2102SOL     OW 7204   0.040   5.620   2.831  0.1940  0.2271  0.1222
 2102SOL    HW1 7205  -0.036   5.646   2.771  0.5325 -0.6858 -0.7422
 2102SOL    HW2 7206   0.118   5.593   2.775  1.4150  1.7939  0.9924
 2103SOL     OW 7207   3.144   4.025   6.602 -0.0642  0.6107 -0.2159
 2103SOL    HW1 7208   3.108   4.062   6.688 -1.4354  1.0778 -0.9559
 2103SOL    HW2 7209   3.170   4.100   6.542  1.5603  0.2786  0.0395
 2104SOL     OW 7210   2.011   3.024   1.947 -0.3627  0.1594  0.0262
 2104SOL    HW1 7211   2.071   3.077   1.886  1.0356 -1.2244  0.1472
 2104SOL    HW2 7212   2.041   2.929   1.949 -2.6104 -0.6124  0.0921
 2105SOL     OW 7213   6.069   6.777   3.800  0.4711  0.5549  0.3176
 2105SOL    HW1 7214   6.130   6.698   3.791  0.7220  0.7218  0.5578
 2105SOL    HW2 7215   6.008   6.780   3.721  1.9517  1.4048 -0.8502
 2106SOL     OW 7216   4.067   3.814   5.799  0.3756 -0.2092 -0.6142
 2106SOL    HW1 7217   4.112   3.740   5.849 -0.2826 -1.4601 -1.8212
 2106SOL    HW2 7218   4.136   3.879   5.767  0.9922 -0.4636  0.1525
 2107SOL     OW 7219   2.304   3.344   6.854 -1.1069 -0.1684 -0.8847
 2107SOL    HW1 7220   2.325   3.261   6.907  1.5126  1.6426  1.2256
 2107SOL    HW2 7221   2.388   3.398   6.842 -3.0468  3.3771  0.0710
 2108SOL     OW 7222   0.050   6.143   4.747 -0.0605  0.2222  0.0317
 2108SOL    HW1 7223   0.079   6.099   4.661 -0.6644  0.0518 -0.0912
 2108SOL    HW2 7224   0.054   6.242   4.736 -1.0447  0.2197 -0.5306
 2109SOL     OW 7225   4.793   1.095   2.819  0.0923 -0.1161 -0.6909
 2109SOL    HW1 7226   4.831   1.167   2.877  0.5431 -0.9531  0.0879
 2109SOL    HW2 7227   4.699   1.118   2.793 -0.3976 -0.0651  1.0079
 2110SOL     OW 7228   2.848   2.724   0.240 -0.7350 -0.5285 -0.2105
 2110SOL    HW1 7229   2.812   2.812   0.272 -1.2805 -0.4579 -0.9866
 2110SOL    HW2 7230   2.804   2.649   0.289 -0.6255 -0.3862  0.1078
 2111SOL     OW 7231   0.217   1.331   0.354 -0.1091  0.1421  0.2423
 2111SOL    HW1 7232   0.206   1.400   0.426 -2.2961 -1.8801  1.9726
 2111SOL    HW2 7233   0.136   1.273   0.350  2.2436 -3.4178  0.0308
 2112SOL     OW 7234   5.342   1.425   0.705 -0.0955 -0.0383  0.3641
 2112SOL    HW1 7235   5.253   1.399   0.741 -0.3541 -1.0541 -0.9503
 2112SOL    HW2 7236   5.356   1.382   0.616  1.4191  0.6732  0.2302
 2113SOL     OW 7237   1.106   0.310   5.271 -0.2387  0.0044 -0.5250
 2113SOL    HW1 7238   1.020   0.358   5.253  0.6341  2.7137  1.7524
 2113SOL    HW2 7239   1.087   0.219   5.307 -2.0253 -0.7727 -3.1834
 2114SOL     OW 7240   0.922   4.489   6.224 -0.4717  0.1910 -0.1132
 2114SOL    HW1 7241   1.014   4.488   6.185  0.0493 -1.2019  1.0449
 2114SOL    HW2 7242   0.916   4.561   6.293 -0.7336  1.2359 -1.1857
 2115SOL     OW 7243   1.745   3.511   3.518  0.3799 -0.0735 -0.0729
 2115SOL    HW1 7244   1.701   3.542   3.602  0.9446  0.3760  0.0628
 2115SOL    HW2 7245   1.680   3.458   3.464 -0.5564  1.1885 -0.2270
 2116SOL     OW 7246   5.849   3.820   2.426 -0.4489  0.5094  0.0009
 2116SOL    HW1 7247   5.903   3.865   2.355  0.3523  1.0157  0.9111
 2116SOL    HW2 7248   5.865   3.721   2.423 -1.3199  0.3829 -1.2552
 2117SOL     OW 7249   1.273   6.811   1.109  0.5908  0.2516  1.0603
 2117SOL    HW1 7250   1.373   6.816   1.113  0.6352  0.4723 -0.0296
 2117SOL    HW2 7251   1.235   6.901   1.130  0.7276  0.7788 -0.7718
 2118SOL     OW 7252   0.116   4.353   2.080 -0.0884 -0.1769 -0.0125
 2118SOL    HW1 7253   0.095   4.255   2.086  0.2219 -0.3114 -0.9516
 2118SOL    HW2 7254   0.194   4.367   2.019  1.3661  0.4823  1.8911
 2119SOL     OW 7255   2.769   5.966   1.580  0.2819 -0.4108 -0.1688
 2119SOL    HW1 7256   2.853   5.958   1.526  1.2087 -0.1175  1.1688
 2119SOL    HW2 7257   2.793   5.980   1.676 -1.3143 -0.7677  0.3096
 2120SOL     OW 7258   5.831   5.263   3.933  0.2617  0.2186 -0.2305
 2120SOL    HW1 7259   5.915   5.298   3.892  0.0649 -0.5334 -1.3528
 2120SOL    HW2 7260   5.827   5.164   3.920 -1.0575  0.3060 -0.7367
 2121SOL     OW 7261   0.985   5.579   6.192 -0.3288 -0.6939  0.0523
 2121SOL    HW1 7262   0.961   5.534   6.106 -1.6484  0.8127 -0.4298
 2121SOL    HW2 7263   1.064   5.534   6.233  2.4092  0.3653 -3.4783
 2122SOL     OW 7264   6.405   4.794   4.762  0.3553  0.3084 -0.0735
 2122SOL    HW1 7265   6.501   4.777   4.740  0.2602 -2.1280  0.9890
 2122SOL    HW2 7266   6.394   4.803   4.861 -0.6379 -0.9474 -0.0344
 2123SOL     OW 7267   0.426   5.168   4.159 -0.7571  0.4693 -0.0352
 2123SOL    HW1 7268   0.504   5.106   4.158 -0.6154  0.5606  1.7666
 2123SOL    HW2 7269   0.346   5.121   4.121 -0.5295 -0.6727  0.8273
 2124SOL     OW 7270   3.301   3.214   0.675 -0.0632 -0.2966 -0.7940
 2124SOL    HW1 7271   3.347   3.182   0.758  0.8050 -1.4974 -1.6930
 2124SOL    HW2 7272   3.218   3.160   0.660  0.3659 -0.8314 -1.2782
 2125SOL     OW 7273   7.010   6.834   6.259 -0.3054  0.6405 -0.6535
 2125SOL    HW1 7274   7.104   6.861   6.281 -0.6762  1.2796  0.2063
 2125SOL    HW2 7275   6.999   6.832   6.160  0.6257  0.5168 -0.7671
 2126SOL     OW 7276   2.506   1.801   1.242  0.0614 -0.1177 -0.1043
 2126SOL    HW1 7277   2.420   1.772   1.201 -1.7300  1.4388  2.3229
 2126SOL    HW2 7278   2.574   1.728   1.230 -2.1194 -2.2256 -0.4330
 2127SOL     OW 7279   6.369   4.412   5.183  0.0179  0.2181  0.4988
 2127SOL    HW1 7280   6.341   4.395   5.277 -1.8236 -0.5662 -0.1507
 2127SOL    HW2 7281   6.317   4.487   5.144  1.3814  1.1235  0.3400
 2128SOL     OW 7282   0.538   3.923   3.227  0.4377 -0.5299  0.1887
 2128SOL    HW1 7283   0.493   3.835   3.244 -1.0421  0.0711 -0.4813
 2128SOL    HW2 7284   0.637   3.908   3.218  0.5588 -1.7438  2.6726
 2129SOL     OW 7285   3.045   2.275   6.715 -0.2962 -0.1459  0.4166
 2129SOL    HW1 7286   3.031   2.260   6.618 -0.3939  1.3687  0.1742
 2129SOL    HW2 7287   3.138   2.309   6.731 -0.9177  1.5914  0.5781
 2130SOL     OW 7288   5.690   6.809   1.016  0.5824 -0.5342 -0.1336
 2130SOL    HW1 7289   5.641   6.725   0.993 -0.2467  0.0157 -0.4219
 2130SOL    HW2 7290   5.694   6.868   0.935  0.7738 -0.1030  0.1878
 2131SOL     OW 7291   1.757   1.117   0.504  0.5966  0.4121 -0.0931
 2131SOL    HW1 7292   1.674   1.070   0.534  0.2621  0.7525 -0.4740
 2131SOL    HW2 7293   1.732   1.201   0.456  1.1297 -0.0011 -1.1272
 2132SOL     OW 7294   3.494   2.796   1.794  0.6355  0.1119  0.0711
 2132SOL    HW1 7295   3.401   2.765   1.774  0.8669  0.0092 -0.8776
 2132SOL    HW2 7296   3.560   2.734   1.752  1.1083  1.3404 -1.0820
 2133SOL     OW 7297   1.791   3.204   6.168  0.7203 -0.6234  0.0427
 2133SOL    HW1 7298   1.778   3.145   6.088 -1.0923 -2.5166  1.5923
 2133SOL    HW2 7299   1.833   3.151   6.241  1.3526  0.7636  0.7023
 2134SOL     OW 7300   1.509   2.138   6.453 -0.0397  0.7336 -0.4900
 2134SOL    HW1 7301   1.568   2.065   6.420  0.7127  0.7750  0.7100
 2134SOL    HW2 7302   1.413   2.110   6.446  0.2498 -0.4534  0.1384
 2135SOL     OW 7303   6.680   5.004   3.825  0.2444 -0.0238  0.1895
 2135SOL    HW1 7304   6.611   4.986   3.894 -0.3231 -0.9074 -0.5798
 2135SOL    HW2 7305   6.726   5.091   3.845 -1.8111  1.1454  0.1564
 2136SOL     OW 7306   2.844   5.262   2.977  0.7495 -0.6410 -0.1125
 2136SOL    HW1 7307   2.784   5.191   3.015 -1.4264  1.1001 -0.0847
 2136SOL    HW2 7308   2.843   5.342   3.037  1.9772 -0.0236 -0.8835
 2137SOL     OW 7309   2.593   4.045   5.694 -0.0288  0.5467 -0.6582
 2137SOL    HW1 7310   2.633   4.036   5.603 -1.0994  1.3833 -1.2378
 2137SOL    HW2 7311   2.498   4.015   5.692 -0.7054  2.4882 -0.3473
 2138SOL     OW 7312   5.786   1.889   3.325  0.3957 -0.3893 -0.0619
 2138SOL    HW1 7313   5.775   1.791   3.338 -0.8656 -0.5060 -1.7247
 2138SOL    HW2 7314   5.851   1.924   3.393 -2.0659 -1.6537  3.2223
 2139SOL     OW 7315   3.893   0.128   3.860 -0.3093  0.5529 -0.1132
 2139SOL    HW1 7316   3.962   0.131   3.933 -1.7118 -0.5852  1.3119
 2139SOL    HW2 7317   3.927   0.071   3.785 -0.2479 -1.2629  1.2211
 2140SOL     OW 7318   3.052   6.708   4.440 -0.0727 -0.3491  0.2599
 2140SOL    HW1 7319   3.131   6.736   4.496  0.1801  0.6235 -0.5396
 2140SOL    HW2 7320   3.080   6.637   4.376  0.7483  1.4087 -1.4360
 2141SOL     OW 7321   6.919   2.897   2.288  0.0723  0.3290  0.1835
 2141SOL    HW1 7322   6.938   2.898   2.190 -1.1510  3.5439 -0.1524
 2141SOL    HW2 7323   6.869   2.814   2.312  0.0997 -0.3622 -1.9735
 2142SOL     OW 7324   1.029   2.912   3.292  0.0659  0.5896 -0.1703
 2142SOL    HW1 7325   0.973   2.866   3.361  0.5513 -0.7969 -0.6584
 2142SOL    HW2 7326   0.975   2.927   3.209  0.0578  0.3932 -0.2013
 2143SOL     OW 7327   2.166   4.906   6.554 -0.1840 -0.1992 -0.0580
 2143SOL    HW1 7328   2.138   5.002   6.547 -1.1047 -0.5402 -1.3562
 2143SOL    HW2 7329   2.183   4.870   6.462 -2.2204 -1.9637  0.2006
 2144SOL     OW 7330   6.772   6.169   5.416 -0.1919  0.1635 -0.7237
 2144SOL    HW1 7331   6.685   6.216   5.427  0.5270  1.0129  1.8431
 2144SOL    HW2 7332   6.846   6.236   5.413  0.5026 -0.6110 -1.5577
 2145SOL     OW 7333   3.267   5.549   6.011  0.3931 -0.5884  0.0911
 2145SOL    HW1 7334   3.200   5.475   6.016 -0.6583  0.3977  1.2133
 2145SOL    HW2 7335   3.303   5.556   5.918 -0.7388 -1.4036 -0.4244
 2146SOL     OW 7336   2.483   2.437   1.133 -0.8012 -0.7382 -0.6352
 2146SOL    HW1 7337   2.401   2.459   1.080  0.4785 -1.6043 -3.1298
 2146SOL    HW2 7338   2.558   2.417   1.070  1.8710  1.7468  1.5013
 2147SOL     OW 7339   4.670   6.745   4.936 -0.6305 -0.5378  0.7400
 2147SOL    HW1 7340   4.595   6.808   4.912  0.4522  0.0767 -1.1652
 2147SOL    HW2 7341   4.758   6.790   4.918  0.2130 -1.6176  2.0018
 2148SOL     OW 7342   5.340   3.604   4.778  0.2435  0.4331 -0.4885
 2148SOL    HW1 7343   5.376   3.638   4.692  1.5445  0.4808  0.0574
 2148SOL    HW2 7344   5.346   3.504   4.780  2.7773  0.5280  0.5769
 2149SOL     OW 7345   6.936   0.633   2.213 -0.1288 -0.0196  0.4001
 2149SOL    HW1 7346   6.867   0.566   2.185 -1.7437  1.2853  1.0406
 2149SOL    HW2 7347   7.015   0.586   2.251 -1.8137 -1.5740  2.2230
 2150SOL     OW 7348   1.662   2.443   1.871 -0.2497  0.0279  0.4385
 2150SOL    HW1 7349   1.643   2.492   1.956  1.0125 -1.0314  1.3646
 2150SOL    HW2 7350   1.642   2.503   1.793 -2.2801  0.7147  1.4231
 2151SOL     OW 7351   1.867   6.920   5.790 -0.4650 -0.1517  0.3382
 2151SOL    HW1 7352   1.906   6.840   5.746  2.1586  0.7828  0.8025
 2151SOL    HW2 7353   1.790   6.954   5.736  1.1541 -0.4215 -2.2869
 2152SOL     OW 7354   3.650   5.263   2.737  0.0563  0.7827  0.3945
 2152SOL    HW1 7355   3.693   5.344   2.776 -2.9850  2.2991  0.8896
 2152SOL    HW2 7356   3.618   5.204   2.811  0.3028  0.2153  0.0566
 2153SOL     OW 7357   5.328   0.887   1.903  0.0152 -1.1424 -0.0020
 2153SOL    HW1 7358   5.276   0.805   1.923 -1.2319 -0.7169 -1.3329
 2153SOL    HW2 7359   5.381   0.873   1.820 -1.6760 -0.0241 -1.3342
 2154SOL     OW 7360   1.022   0.630   3.811  0.1753 -0.0475 -0.1378
 2154SOL    HW1 7361   1.061   0.608   3.901  1.9036  2.1844 -0.2676
 2154SOL    HW2 7362   0.924   0.608   3.812  0.7882 -3.3240  1.0815
 2155SOL     OW 7363   4.988   0.539   2.099 -0.0998 -0.4654 -0.0850
 2155SOL    HW1 7364   5.045   0.465   2.135  0.2106 -0.5258 -0.6798
 2155SOL    HW2 7365   4.909   0.501   2.052  0.9453 -0.5314 -1.9141
 2156SOL     OW 7366   6.233   2.554   4.900  0.1703 -0.0874 -0.5766
 2156SOL    HW1 7367   6.282   2.489   4.958  0.5502 -0.3841 -1.2220
 2156SOL    HW2 7368   6.176   2.505   4.835 -1.3178  0.2522  0.4137
 2157SOL     OW 7369   4.086   5.537   2.289  0.8017  0.2388  0.0340
 2157SOL    HW1 7370   4.012   5.537   2.357 -0.2098  0.0292 -1.0256
 2157SOL    HW2 7371   4.076   5.457   2.229  2.1558 -0.0232  0.1267
 2158SOL     OW 7372   5.236   5.981   6.614 -0.1634 -0.0089  0.0613
 2158SOL    HW1 7373   5.165   6.018   6.674 -0.5271 -1.0913  0.3052
 2158SOL    HW2 7374   5.205   5.895   6.574  0.7704 -0.1760 -0.3237
 2159SOL     OW 7375   2.589   0.753   4.204  0.0728  0.4896  0.4980
 2159SOL    HW1 7376   2.524   0.697   4.153  2.4169 -1.2412 -0.7828
 2159SOL    HW2 7377   2.615   0.832   4.148  0.7864 -0.0821  0.0004
 2160SOL     OW 7378   5.821   4.269   4.955 -0.5837 -0.6656  0.1108
 2160SOL    HW1 7379   5.854   4.247   4.864 -0.6183 -0.6913  0.1046
 2160SOL    HW2 7380   5.758   4.198   4.987 -1.0724 -0.3339 -0.1051
 2161SOL     OW 7381   6.133   3.059   2.832 -0.3350  0.5644 -0.1417
 2161SOL    HW1 7382   6.153   3.156   2.848 -0.0215  0.3541  0.7989
 2161SOL    HW2 7383   6.068   3.027   2.900  2.6555 -0.8986  2.2657
 2162SOL     OW 7384   3.139   0.484   3.163 -0.2678  0.4966  0.2944
 2162SOL    HW1 7385   3.224   0.433   3.174 -0.6338 -0.2046 -0.0647
 2162SOL    HW2 7386   3.157   0.582   3.176  0.6760  0.4047 -0.2181
 2163SOL     OW 7387   0.071   2.815   6.958  0.4980  0.1090 -0.3369
 2163SOL    HW1 7388   0.104   2.822   7.052  1.3592  0.1789 -0.6312
 2163SOL    HW2 7389  -0.011   2.757   6.956 -0.3664  1.2409  0.6325
 2164SOL     OW 7390   1.222   2.884   0.228 -0.1946 -0.3813  0.5664
 2164SOL    HW1 7391   1.154   2.957   0.230  0.9565  0.7754 -0.9768
 2164SOL    HW2 7392   1.204   2.824   0.150  1.0225  0.4319 -0.3697
 2165SOL     OW 7393   6.993   2.192   4.982 -0.3418  0.3132  0.3166
 2165SOL    HW1 7394   7.075   2.139   4.960 -1.3049 -1.0173 -0.2817
 2165SOL    HW2 7395   6.983   2.268   4.917 -0.7856 -0.9211 -1.1403
 2166SOL     OW 7396   1.454   1.480   2.888  0.0072 -0.0412  0.0643
 2166SOL    HW1 7397   1.369   1.521   2.921 -0.7592 -2.3948  1.2576
 2166SOL    HW2 7398   1.463   1.387   2.925  2.1049 -0.6229 -1.6760
 2167SOL     OW 7399   6.943   4.475   2.985  0.7176 -0.0624 -0.6220
 2167SOL    HW1 7400   6.861   4.533   2.993  0.6910  0.0351 -1.5495
 2167SOL    HW2 7401   7.005   4.496   3.061  1.0163  1.6997 -1.2955
 2168SOL     OW 7402   0.203   1.497   2.407 -0.0373 -0.8031  0.9361
 2168SOL    HW1 7403   0.170   1.566   2.471  2.6362  2.2760 -0.7645
 2168SOL    HW2 7404   0.242   1.421   2.459  1.9557  1.5131  3.1011
 2169SOL     OW 7405   2.265   1.740   1.088  0.2313  0.2104 -0.6248
 2169SOL    HW1 7406   2.241   1.770   0.996 -1.9453  0.4552 -0.0151
 2169SOL    HW2 7407   2.235   1.646   1.102  1.1611 -0.0640 -0.3582
 2170SOL     OW 7408   6.312   4.774   4.503 -0.1327  0.9168 -0.2946
 2170SOL    HW1 7409   6.406   4.788   4.473  0.6304 -1.3815  0.7356
 2170SOL    HW2 7410   6.309   4.773   4.603 -1.3776  1.5689 -0.3046
 2171SOL     OW 7411   1.079   0.206   0.588  0.2318 -0.0725 -0.2983
 2171SOL    HW1 7412   0.996   0.252   0.620 -0.9716 -2.1840 -0.1974
 2171SOL    HW2 7413   1.078   0.200   0.489 -0.7791 -1.8799 -0.2015
 2172SOL     OW 7414   6.991   3.084   5.525  0.3134 -0.1903  0.2190
 2172SOL    HW1 7415   7.029   3.176   5.535  0.4343  0.0365 -1.9092
 2172SOL    HW2 7416   6.986   3.040   5.615 -0.3494  2.1093  1.3792
 2173SOL     OW 7417   6.215   1.267   6.073 -0.1110 -0.3268  0.3111
 2173SOL    HW1 7418   6.163   1.346   6.106  1.3104  0.0148  1.9062
 2173SOL    HW2 7419   6.185   1.185   6.121 -0.2655 -0.4086  0.0739
 2174SOL     OW 7420   0.470   1.152   5.852 -0.1329 -0.2451 -0.5575
 2174SOL    HW1 7421   0.372   1.148   5.871  0.0602  1.6241  1.1773
 2174SOL    HW2 7422   0.514   1.069   5.885 -1.1673 -1.4158 -1.9590
 2175SOL     OW 7423   0.070   2.544   3.600 -0.0650 -0.3317  0.1986
 2175SOL    HW1 7424  -0.016   2.526   3.551 -0.4841 -0.2348  0.8777
 2175SOL    HW2 7425   0.142   2.563   3.534 -1.1135  2.0898 -0.3785
 2176SOL     OW 7426   4.814   1.905   2.650 -0.0325  0.1255  0.3305
 2176SOL    HW1 7427   4.752   1.896   2.728 -0.4603  0.2912  0.0142
 2176SOL    HW2 7428   4.889   1.839   2.658 -0.2255 -0.0421  0.7413
 2177SOL     OW 7429   6.006   6.471   2.056 -0.0863 -0.0714 -0.3656
 2177SOL    HW1 7430   6.067   6.533   2.107 -1.4680  0.5821  0.5643
 2177SOL    HW2 7431   5.926   6.522   2.025 -1.1483 -1.3360  0.2147
 2178SOL     OW 7432   0.429   0.749   3.258 -0.0384 -0.2722 -0.1222
 2178SOL    HW1 7433   0.483   0.822   3.300 -1.7548  0.4399  0.9562
 2178SOL    HW2 7434   0.478   0.713   3.179  0.9949  1.8454 -0.5170
 2179SOL     OW 7435   1.331   2.959   6.792 -0.3843 -0.2293  0.4197
 2179SOL    HW1 7436   1.357   2.869   6.827  1.2354 -0.4668 -1.2046
 2179SOL    HW2 7437   1.350   2.962   6.694  0.4244  2.1581  0.6027
 2180SOL     OW 7438   1.249   3.112   2.590  0.0844  0.4166 -0.2067
 2180SOL    HW1 7439   1.174   3.049   2.609  0.5721  0.1489  0.9593
 2180SOL    HW2 7440   1.218   3.206   2.604 -0.2453  0.3528 -0.5071
 2181SOL     OW 7441   4.725   5.501   3.283 -0.3018 -0.5342  0.3183
 2181SOL    HW1 7442   4.803   5.465   3.335  1.2911  1.0553 -0.8368
 2181SOL    HW2 7443   4.704   5.593   3.314 -0.1301 -0.0418 -0.9712
 2182SOL     OW 7444   1.284   4.018   2.481 -0.0833  0.3898  0.0970
 2182SOL    HW1 7445   1.262   4.087   2.412  0.3787 -0.1642 -0.6177
 2182SOL    HW2 7446   1.315   3.934   2.436  0.1272 -0.0154  0.9740
 2183SOL     OW 7447   2.988   4.082   0.047  0.5962 -0.6818  0.1619
 2183SOL    HW1 7448   3.040   4.017  -0.008  0.7187 -0.3746 -0.0821
 2183SOL    HW2 7449   2.890   4.065   0.034  0.5934  0.1546 -1.0873
 2184SOL     OW 7450   3.170   4.249   5.724 -0.4689 -0.2332 -0.1003
 2184SOL    HW1 7451   3.101   4.306   5.681 -0.2316 -2.0958 -3.2156
 2184SOL    HW2 7452   3.214   4.300   5.798 -3.1347  1.9954  0.1190
 2185SOL     OW 7453   6.811   1.363   0.206 -0.5485 -0.0280 -0.2691
 2185SOL    HW1 7454   6.880   1.298   0.238 -0.3209  0.6238  0.6022
 2185SOL    HW2 7455   6.727   1.314   0.183 -0.5283 -0.5869  0.7952
 2186SOL     OW 7456   6.369   5.257   0.603  0.5480  0.7592  0.6344
 2186SOL    HW1 7457   6.317   5.340   0.623  0.3909  0.9075 -0.3101
 2186SOL    HW2 7458   6.406   5.218   0.687  1.3880  2.2843  0.9943
 2187SOL     OW 7459   0.927   5.406   3.860  0.4683 -0.1784 -0.0102
 2187SOL    HW1 7460   0.844   5.373   3.815 -0.5264  0.3497  1.3829
 2187SOL    HW2 7461   0.983   5.457   3.794  0.4899 -1.8800 -1.3686
 2188SOL     OW 7462   2.614   6.177   4.796  0.4888 -0.7089 -0.2340
 2188SOL    HW1 7463   2.701   6.166   4.747  0.2844 -1.5109 -0.4211
 2188SOL    HW2 7464   2.632   6.192   4.893  0.8307 -1.1466 -0.2284
 2189SOL     OW 7465   1.961   1.241   2.589  0.0466 -0.1870 -0.7034
 2189SOL    HW1 7466   2.012   1.157   2.601 -0.3421 -0.2912  0.3716
 2189SOL    HW2 7467   1.938   1.253   2.493  1.1394 -0.6830 -1.0388
 2190SOL     OW 7468   5.964   3.190   1.948  0.3212  0.7610  0.5563
 2190SOL    HW1 7469   5.908   3.235   1.878  0.9741  2.6580  1.1994
 2190SOL    HW2 7470   5.938   3.223   2.039 -0.1309 -1.2577  1.2295
 2191SOL     OW 7471   3.640   0.371   2.730 -0.3501 -0.3075  0.5636
 2191SOL    HW1 7472   3.630   0.356   2.631 -0.8290 -0.9007  0.6966
 2191SOL    HW2 7473   3.594   0.456   2.755 -0.0808 -0.0659  0.2498
 2192SOL     OW 7474   5.282   5.863   3.357  0.1907 -0.1022 -0.5280
 2192SOL    HW1 7475   5.274   5.857   3.258  0.3308  1.7446 -0.6914
 2192SOL    HW2 7476   5.361   5.920   3.381 -2.3258  3.3157  0.4534
 2193SOL     OW 7477   1.209   5.830   6.424  0.2277  0.5515  0.1485
 2193SOL    HW1 7478   1.301   5.860   6.398  1.2020 -1.0751  1.5656
 2193SOL    HW2 7479   1.206   5.815   6.523 -1.1823 -0.7091 -0.0641
 2194SOL     OW 7480   6.543   4.987   5.439  0.3846 -0.1110 -0.0953
 2194SOL    HW1 7481   6.465   4.963   5.380  0.8971 -0.0161 -0.8303
 2194SOL    HW2 7482   6.563   4.912   5.501 -0.4873 -0.0141  0.3199
 2195SOL     OW 7483   6.488   5.488   6.280  0.2078  0.5980 -0.5914
 2195SOL    HW1 7484   6.423   5.502   6.355  0.9344 -2.1733  0.6891
 2195SOL    HW2 7485   6.458   5.412   6.223  1.0668  0.9227 -1.5133
 2196SOL     OW 7486   3.136   5.118   6.780 -0.0053  0.2949  0.0186
 2196SOL    HW1 7487   3.156   5.201   6.831  0.1788  0.9437 -1.0885
 2196SOL    HW2 7488   3.038   5.100   6.781 -0.1126  0.8515 -0.2205
 2197SOL     OW 7489   1.519   1.734   0.229  0.2061  0.1069 -0.1134
 2197SOL    HW1 7490   1.455   1.811   0.241 -0.2129 -0.3322  0.5237
 2197SOL    HW2 7491   1.467   1.651   0.207  0.6180 -0.1008 -0.3113
 2198SOL     OW 7492   0.255   5.553   5.845 -0.1210  0.2337 -0.3996
 2198SOL    HW1 7493   0.327   5.483   5.841 -0.8067 -0.4940 -0.2033
 2198SOL    HW2 7494   0.267   5.608   5.928 -0.3068 -0.4595  0.0966
 2199SOL     OW 7495   5.714   6.390   5.750  0.4500  0.0394  0.1491
 2199SOL    HW1 7496   5.759   6.333   5.681  1.5005  2.2176 -1.0657
 2199SOL    HW2 7497   5.768   6.389   5.834  0.0539 -1.2941  0.4211
 2200SOL     OW 7498   1.377   2.025   3.287 -0.0249  0.1435  0.2400
 2200SOL    HW1 7499   1.280   2.014   3.265 -0.3370 -1.2388  2.0681
 2200SOL    HW2 7500   1.430   2.026   3.202 -1.5770  0.2942 -0.7680
 2201SOL     OW 7501   0.833   1.858   1.237  0.6494 -0.2070  0.4703
 2201SOL    HW1 7502   0.873   1.767   1.223  1.5970 -0.0483  1.8879
 2201SOL    HW2 7503   0.906   1.925   1.249 -0.0453  0.4927  0.8675
 2202SOL     OW 7504   3.341   5.230   5.201 -0.1040 -0.1230  0.2231
 2202SOL    HW1 7505   3.399   5.169   5.147  0.0731  0.6260 -0.4490
 2202SOL    HW2 7506   3.348   5.323   5.165 -2.0860 -0.0846 -0.2030
 2203SOL     OW 7507   1.401   1.521   0.829 -0.1581  0.2366  0.0738
 2203SOL    HW1 7508   1.392   1.618   0.851 -1.6612  0.0405  0.4632
 2203SOL    HW2 7509   1.364   1.467   0.904 -0.8498 -0.5873 -0.8374
 2204SOL     OW 7510   3.741   2.094   0.984 -0.0198 -0.2483  0.7461
 2204SOL    HW1 7511   3.841   2.092   0.974  0.0880  0.5351  1.5571
 2204SOL    HW2 7512   3.702   2.009   0.947  0.8824 -0.2910 -0.1624
 2205SOL     OW 7513   1.474   1.086   0.925 -0.4717 -0.4849  0.1442
 2205SOL    HW1 7514   1.439   1.179   0.940  0.0773 -0.2715  0.1125
 2205SOL    HW2 7515   1.527   1.084   0.840 -0.8632 -0.9350 -0.0917
 2206SOL     OW 7516   3.284   5.274   5.643 -0.0572 -0.1939  0.0433
 2206SOL    HW1 7517   3.251   5.358   5.601  3.1350  0.2478 -1.9449
 2206SOL    HW2 7518   3.275   5.198   5.578 -1.3258 -1.0780  1.1895
 2207SOL     OW 7519   4.234   3.969   0.784  0.2950  0.2399 -0.0603
 2207SOL    HW1 7520   4.159   4.036   0.782 -0.8293 -0.9805 -0.3319
 2207SOL    HW2 7521   4.200   3.881   0.750  2.6003  0.3402 -2.9658
 2208SOL     OW 7522   2.157   4.974   1.913 -0.0425  0.2948 -0.8575
 2208SOL    HW1 7523   2.128   4.882   1.938 -0.8127 -0.1202 -3.0413
 2208SOL    HW2 7524   2.193   4.973   1.819 -1.6047  2.4672 -1.5553
 2209SOL     OW 7525   4.542   4.994   5.515 -0.4787 -0.2169 -0.0479
 2209SOL    HW1 7526   4.486   4.920   5.552 -1.5249  0.9782  0.8431
 2209SOL    HW2 7527   4.483   5.070   5.487  0.5095 -0.0146 -1.6852
 2210SOL     OW 7528   0.627   1.012   3.829  0.0336 -0.2620 -0.6109
 2210SOL    HW1 7529   0.576   0.947   3.773 -1.8807  1.0538 -0.4921
 2210SOL    HW2 7530   0.617   0.987   3.925  1.1472 -1.0166 -0.6696
 2211SOL     OW 7531   0.041   1.839   0.291  0.0034 -0.2170 -0.8010
 2211SOL    HW1 7532  -0.039   1.784   0.269 -1.3307  0.7893  1.2263
 2211SOL    HW2 7533   0.119   1.778   0.308 -0.0913 -1.1871 -3.3716
 2212SOL     OW 7534   2.453   5.995   6.812 -0.0227 -0.2224 -0.0057
 2212SOL    HW1 7535   2.372   6.052   6.820  0.1281 -0.1176  0.8820
 2212SOL    HW2 7536   2.436   5.907   6.857  0.2257 -0.3378 -0.1395
 2213SOL     OW 7537   4.726   1.415   6.844  0.6387 -0.2818  0.4111
 2213SOL    HW1 7538   4.800   1.350   6.830  0.8673  0.2714 -1.1163
 2213SOL    HW2 7539   4.753   1.505   6.810 -0.5400  0.0584  0.3206
 2214SOL     OW 7540   3.424   4.157   4.362 -0.2200 -0.7260 -0.1120
 2214SOL    HW1 7541   3.458   4.089   4.427  1.7604 -0.5151 -0.8743
 2214SOL    HW2 7542   3.483   4.159   4.281 -1.6416  0.2284 -1.1694
 2215SOL     OW 7543   6.311   0.820   6.424  0.3642  0.1366  0.2633
 2215SOL    HW1 7544   6.235   0.803   6.487  0.0335  0.9905  0.1135
 2215SOL    HW2 7545   6.390   0.855   6.475  0.5442 -0.4186  0.3721
 2216SOL     OW 7546   1.371   0.007   5.443  0.1357  0.5520 -0.0129
 2216SOL    HW1 7547   1.392   0.078   5.376  1.3124  0.6842  0.4790
 2216SOL    HW2 7548   1.406   0.034   5.532  2.3742 -1.4422 -0.1687
 2217SOL     OW 7549   3.585   0.947   2.765 -0.5194  0.0836  0.0563
 2217SOL    HW1 7550   3.639   0.991   2.837  0.1223 -0.4498 -0.0810
 2217SOL    HW2 7551   3.501   0.909   2.803 -0.8796  1.0646  0.2490
 2218SOL     OW 7552   6.314   4.916   0.732 -0.0077 -0.0251 -0.2389
 2218SOL    HW1 7553   6.370   4.986   0.776 -1.5103  0.5828  0.8223
 2218SOL    HW2 7554   6.362   4.828   0.733  0.1549  0.0035  2.4676
 2219SOL     OW 7555   5.961   2.158   1.703 -0.2268 -0.2811 -0.7493
 2219SOL    HW1 7556   5.883   2.210   1.739 -1.1950 -1.8865 -0.4544
 2219SOL    HW2 7557   5.971   2.073   1.754  3.0819  0.7865  0.6738
 2220SOL     OW 7558   1.131   3.980   4.653  0.0445 -0.4171  0.4989
 2220SOL    HW1 7559   1.215   4.016   4.696 -0.4294 -0.3050  1.3620
 2220SOL    HW2 7560   1.052   4.009   4.707 -0.4667 -1.4693  0.3338
 2221SOL     OW 7561   0.916   1.210   4.594 -0.3781 -0.2497  0.3536
 2221SOL    HW1 7562   0.874   1.297   4.571 -0.3849 -0.2151  0.4951
 2221SOL    HW2 7563   0.890   1.141   4.527  3.2766  0.8822 -2.5464
 2222SOL     OW 7564   1.376   0.146   3.629 -0.3150 -0.1611  0.0772
 2222SOL    HW1 7565   1.470   0.150   3.664 -0.2063 -0.9622 -0.1032
 2222SOL    HW2 7566   1.316   0.201   3.687  0.1882 -0.0124  0.4607
 2223SOL     OW 7567   6.797   1.432   6.017  0.1020  0.0050 -0.0355
 2223SOL    HW1 7568   6.841   1.424   6.106 -0.3700  0.3739  0.2329
 2223SOL    HW2 7569   6.709   1.384   6.018  0.0994  0.0011 -0.3036
 2224SOL     OW 7570   0.346   3.320   0.980 -0.0009 -0.4957  0.8418
 2224SOL    HW1 7571   0.440   3.296   1.003  0.2472 -2.4102 -1.7212
 2224SOL    HW2 7572   0.345   3.379   0.899 -1.0229  0.4747  1.5185
 2225SOL     OW 7573   1.044   5.932   3.818  0.1666  0.5009  0.6069
 2225SOL    HW1 7574   1.028   6.012   3.876 -1.5372  1.8471 -1.5184
 2225SOL    HW2 7575   1.123   5.949   3.760  2.6987 -1.3859  3.2435
 2226SOL     OW 7576   3.893   4.865   0.081 -0.5728 -0.3873 -1.0149
 2226SOL    HW1 7577   3.957   4.818   0.143 -2.2690  0.0457  1.1596
 2226SOL    HW2 7578   3.880   4.808  -0.000  1.5139 -1.1148 -0.9151
 2227SOL     OW 7579   5.752   2.419   2.287 -0.1592 -0.8926  0.1528
 2227SOL    HW1 7580   5.772   2.471   2.370 -0.1021 -1.2256  0.3531
 2227SOL    HW2 7581   5.831   2.422   2.226 -0.8857  0.9423 -0.7537
 2228SOL     OW 7582   5.867   6.055   0.949 -0.3716  0.0523 -0.0382
 2228SOL    HW1 7583   5.810   6.004   1.015  0.4366 -0.8933 -0.0469
 2228SOL    HW2 7584   5.841   6.030   0.856  1.8775 -2.6342 -0.0856
 2229SOL     OW 7585   3.164   3.425   5.271 -0.3577 -0.3910 -0.4051
 2229SOL    HW1 7586   3.104   3.353   5.237 -0.5766  0.3582 -1.6579
 2229SOL    HW2 7587   3.114   3.512   5.273 -0.0323 -0.2150  0.8700
 2230SOL     OW 7588   5.042   6.724   0.260  0.2510 -0.0719  0.4212
 2230SOL    HW1 7589   5.006   6.643   0.308  2.3417 -1.2474  0.1148
 2230SOL    HW2 7590   5.004   6.726   0.167 -2.2894  1.1340  1.3993
 2231SOL     OW 7591   0.871   0.838   0.918 -0.3319 -0.2410  0.3145
 2231SOL    HW1 7592   0.832   0.774   0.851 -2.3591  2.1872 -0.9880
 2231SOL    HW2 7593   0.807   0.848   0.994 -0.6604  1.1497 -0.1212
 2232SOL     OW 7594   6.698   1.639   6.618  0.2542 -0.0849 -0.1198
 2232SOL    HW1 7595   6.684   1.735   6.595 -0.3371 -0.0125  0.5352
 2232SOL    HW2 7596   6.614   1.587   6.599  0.5231 -0.4498 -0.3331
 2233SOL     OW 7597   1.585   2.492   2.284 -0.7031 -0.4978 -0.4230
 2233SOL    HW1 7598   1.653   2.494   2.211 -1.0960 -2.4477 -0.9003
 2233SOL    HW2 7599   1.625   2.528   2.368  0.2188  0.4121 -1.2310
 2234SOL     OW 7600   5.049   6.348   0.983  0.4507 -0.3149  0.5644
 2234SOL    HW1 7601   4.987   6.279   1.021 -0.9347  0.9662  0.6983
 2234SOL    HW2 7602   5.055   6.426   1.045  0.4003  0.5723 -0.5170
 2235SOL     OW 7603   2.443   0.880   2.664  0.6009  0.3380  0.5356
 2235SOL    HW1 7604   2.398   0.859   2.750  0.6541 -0.3626  0.3965
 2235SOL    HW2 7605   2.415   0.971   2.633 -1.7391 -0.5525 -0.2018
 2236SOL     OW 7606   1.838   3.481   5.363 -0.5083  0.4742 -0.2888
 2236SOL    HW1 7607   1.827   3.570   5.318  0.7788  1.1180  0.5974
 2236SOL    HW2 7608   1.869   3.495   5.457 -2.3678 -0.8671  0.5965
 2237SOL     OW 7609   0.332   4.633   4.273  0.1474  0.2165 -0.0372
 2237SOL    HW1 7610   0.317   4.545   4.319  0.3344 -0.4197 -1.1386
 2237SOL    HW2 7611   0.245   4.673   4.246  0.0725  0.2439  0.2490
 2238SOL     OW 7612   3.576   4.956   3.025  0.7836  0.2702 -0.0455
 2238SOL    HW1 7613   3.631   4.918   3.100 -1.7772 -1.1686  1.2664
 2238SOL    HW2 7614   3.565   5.054   3.039  0.0811 -0.0151  1.7291
 2239SOL     OW 7615   5.094   5.956   2.796  0.2872 -0.1044 -0.4866
 2239SOL    HW1 7616   5.082   6.014   2.876  1.6876  1.5291 -1.4073
 2239SOL    HW2 7617   5.014   5.963   2.737 -0.4784 -0.8295  0.4419
 2240SOL     OW 7618   5.474   0.776   4.780 -0.2283 -0.3959 -0.1469
 2240SOL    HW1 7619   5.385   0.735   4.759  0.0863  0.0893 -2.8492
 2240SOL    HW2 7620   5.544   0.706   4.779 -0.2447 -0.4093 -0.6528
 2241SOL     OW 7621   5.999   5.885   3.090  0.2726  0.6220 -0.3491
 2241SOL    HW1 7622   5.963   5.913   3.001  0.2113 -0.3682 -0.6512
 2241SOL    HW2 7623   6.037   5.793   3.083 -2.7081 -0.9298  1.3595
 2242SOL     OW 7624   4.260   4.987   0.658  0.1277 -0.1108 -0.0418
 2242SOL    HW1 7625   4.195   4.913   0.671 -0.4717 -0.0045 -2.1010
 2242SOL    HW2 7626   4.211   5.070   0.629  1.1736 -0.2081 -2.2791
 2243SOL     OW 7627   1.410   5.307   6.279 -0.6514 -0.0128  0.8381
 2243SOL    HW1 7628   1.504   5.282   6.301 -0.3880 -1.1204 -1.2996
 2243SOL    HW2 7629   1.379   5.379   6.342  1.9214  1.0667  0.9803
 2244SOL     OW 7630   2.658   0.720   0.953  0.4193  0.8083 -0.1660
 2244SOL    HW1 7631   2.718   0.751   0.879  1.8162  2.2041  1.4570
 2244SOL    HW2 7632   2.616   0.633   0.928  4.2030 -1.0060 -0.9060
 2245SOL     OW 7633   6.441   2.428   6.990 -0.3488 -0.1110  0.4071
 2245SOL    HW1 7634   6.352   2.419   6.944 -0.8840  0.1991  1.3690
 2245SOL    HW2 7635   6.495   2.346   6.972  0.7078  1.2051 -3.3398
 2246SOL     OW 7636   1.769   0.713   4.148 -0.6914 -0.6859 -0.1207
 2246SOL    HW1 7637   1.868   0.730   4.155 -0.5241 -1.2314 -1.0577
 2246SOL    HW2 7638   1.735   0.748   4.062 -0.9153 -2.3126 -0.7308
 2247SOL     OW 7639   3.197   3.366   3.567  0.4531  0.9319  0.2682
 2247SOL    HW1 7640   3.110   3.409   3.543  0.3378  0.7932  0.4377
 2247SOL    HW2 7641   3.229   3.402   3.655 -0.3189 -0.3129  1.0860
 2248SOL     OW 7642   6.448   3.561   2.861  0.4264 -0.3673 -0.3362
 2248SOL    HW1 7643   6.407   3.589   2.775  0.3706  0.2966 -0.0962
 2248SOL    HW2 7644   6.450   3.461   2.866  0.0349 -0.4056 -0.9128
 2249SOL     OW 7645   4.485   0.691   4.201 -0.3204  0.2974 -0.1733
 2249SOL    HW1 7646   4.435   0.751   4.140 -1.7174  0.2138  0.8270
 2249SOL    HW2 7647   4.441   0.692   4.292 -0.4060 -2.1932 -0.1214
 2250SOL     OW 7648   2.021   2.819   5.597  0.4227 -0.4470  0.0394
 2250SOL    HW1 7649   1.963   2.820   5.516  1.6669  1.9800 -0.9231
 2250SOL    HW2 7650   2.106   2.770   5.578  0.0107 -1.3621  0.4742
 2251SOL     OW 7651   5.207   5.712   5.911  0.7191  0.4695  0.1692
 2251SOL    HW1 7652   5.197   5.618   5.878 -0.4849 -0.2560  2.3665
 2251SOL    HW2 7653   5.304   5.738   5.909  0.8504 -0.0224 -2.3924
 2252SOL     OW 7654   4.929   2.583   2.551 -0.0094  0.5942 -0.2562
 2252SOL    HW1 7655   4.921   2.513   2.480 -1.4310 -0.7429  1.1327
 2252SOL    HW2 7656   5.024   2.588   2.582 -0.1628 -2.5175  1.2082
 2253SOL     OW 7657   6.244   3.783   5.831  0.2176  0.8741 -0.0047
 2253SOL    HW1 7658   6.218   3.778   5.927  1.8912  1.7069  0.5393
 2253SOL    HW2 7659   6.344   3.781   5.823  0.1304  1.2596 -1.7046
 2254SOL     OW 7660   3.760   4.131   3.858 -0.1607 -0.1326 -0.1885
 2254SOL    HW1 7661   3.672   4.123   3.812 -0.8337  1.1500  0.7906
 2254SOL    HW2 7662   3.793   4.226   3.851  0.3489 -0.2205  0.8196
 2255SOL     OW 7663   1.297   2.626   5.005  0.2987  0.8787 -0.3647
 2255SOL    HW1 7664   1.347   2.577   5.077 -0.0337  0.9980 -0.0527
 2255SOL    HW2 7665   1.353   2.702   4.972  1.2290 -0.2632 -1.5198
 2256SOL     OW 7666   5.251   0.712   2.956 -0.9322  0.2949  0.1938
 2256SOL    HW1 7667   5.326   0.778   2.961 -0.2909 -0.3112 -0.8264
 2256SOL    HW2 7668   5.165   0.756   2.977 -0.3981  1.2302  0.4601
 2257SOL     OW 7669   0.692   0.741   6.155 -0.5995  0.1849  0.0109
 2257SOL    HW1 7670   0.770   0.761   6.095 -0.8598  0.4966 -0.2313
 2257SOL    HW2 7671   0.659   0.648   6.138  0.4096 -0.3521  0.8990
 2258SOL     OW 7672   0.359   4.733   6.241 -0.3595 -0.3565  0.1485
 2258SOL    HW1 7673   0.319   4.721   6.333  0.6354 -0.7842  0.5421
 2258SOL    HW2 7674   0.286   4.727   6.173 -1.0349 -0.6605  0.8702
 2259SOL     OW 7675   5.121   3.300   5.360  0.6449  0.2191 -0.0295
 2259SOL    HW1 7676   5.129   3.394   5.394  1.1315 -0.8380  3.1035
 2259SOL    HW2 7677   5.120   3.237   5.437 -1.3367 -2.2997 -1.9261
 2260SOL     OW 7678   1.862   5.446   0.592  0.6216 -0.0058 -0.3663
 2260SOL    HW1 7679   1.800   5.422   0.517  0.2549 -0.6989  0.1440
 2260SOL    HW2 7680   1.826   5.409   0.678 -0.4271  3.0395  0.6499
 2261SOL     OW 7681   0.132   5.146   0.426 -0.1634  0.1714  0.0406
 2261SOL    HW1 7682   0.086   5.074   0.479  0.5408 -0.1913  0.1673
 2261SOL    HW2 7683   0.064   5.192   0.368 -0.7650 -0.0748  0.5278
 2262SOL     OW 7684   6.289   2.118   2.665  0.0114  0.0558 -0.1618
 2262SOL    HW1 7685   6.302   2.106   2.567  1.0230 -3.2189  0.2353
 2262SOL    HW2 7686   6.192   2.108   2.687 -0.1881  0.5548 -0.8061
 2263SOL     OW 7687   2.624   6.518   0.039  0.5998 -0.2315 -0.0705
 2263SOL    HW1 7688   2.612   6.571  -0.045 -2.6550 -1.5063 -0.5344
 2263SOL    HW2 7689   2.579   6.430   0.030  1.6742 -1.1467  2.4448
 2264SOL     OW 7690   4.549   5.610   6.383  0.2748 -0.2615 -0.2522
 2264SOL    HW1 7691   4.627   5.657   6.425  1.2736  0.8814 -3.0635
 2264SOL    HW2 7692   4.506   5.672   6.316 -0.5961 -2.1741 -1.5472
 2265SOL     OW 7693   3.675   1.703   4.559 -0.2214 -0.6865  0.3309
 2265SOL    HW1 7694   3.720   1.765   4.623 -1.2117  0.0180  0.3716
 2265SOL    HW2 7695   3.599   1.657   4.605 -0.4834 -0.7279 -0.1376
 2266SOL     OW 7696   5.440   6.160   6.520  0.1261  0.6820  0.5715
 2266SOL    HW1 7697   5.431   6.186   6.424  0.8752  0.4606  0.4314
 2266SOL    HW2 7698   5.379   6.083   6.540 -0.1577  0.8421  0.3171
 2267SOL     OW 7699   4.961   3.183   6.868  0.6658  0.0837 -0.4870
 2267SOL    HW1 7700   4.927   3.125   6.795  0.0585  0.1913 -0.3036
 2267SOL    HW2 7701   4.888   3.198   6.935  0.5371  1.7243 -0.9503
 2268SOL     OW 7702   6.176   5.342   6.565  0.6247 -0.0861 -0.2152
 2268SOL    HW1 7703   6.242   5.417   6.562 -1.0986  1.5084 -0.0577
 2268SOL    HW2 7704   6.086   5.376   6.540 -0.1459 -2.2368 -0.5959
 2269SOL     OW 7705   0.084   3.241   4.076 -0.2655  0.2030 -0.2407
 2269SOL    HW1 7706   0.103   3.257   3.979  0.0939  0.0388 -0.1998
 2269SOL    HW2 7707   0.167   3.208   4.121 -0.8025 -1.1026 -0.1774
 2270SOL     OW 7708   2.593   0.724   6.148  0.2875  0.3014 -0.3696
 2270SOL    HW1 7709   2.495   0.736   6.166  0.3582  0.5498 -0.1392
 2270SOL    HW2 7710   2.643   0.721   6.235  0.1119 -3.4310 -0.2486
 2271SOL     OW 7711   5.630   4.215   0.627  0.1725 -0.4328  0.6154
 2271SOL    HW1 7712   5.666   4.288   0.685  0.2413 -0.9650  1.2528
 2271SOL    HW2 7713   5.562   4.253   0.565  1.2189  0.4316 -0.0310
 2272SOL     OW 7714   6.639   1.154   6.645 -0.2044  0.2154  0.0818
 2272SOL    HW1 7715   6.553   1.204   6.654 -0.6229 -0.6723  1.4283
 2272SOL    HW2 7716   6.713   1.217   6.623 -0.8222  1.3344  1.1181
 2273SOL     OW 7717   1.098   2.440   3.762  0.2706 -0.1599  0.1062
 2273SOL    HW1 7718   1.188   2.475   3.787  0.3588 -0.2592 -0.0717
 2273SOL    HW2 7719   1.027   2.495   3.807  0.4339 -0.7434  1.1182
 2274SOL     OW 7720   0.267   0.037   6.655 -0.1007  0.6683  0.3774
 2274SOL    HW1 7721   0.360   0.020   6.689  1.4557 -1.6247 -4.1677
 2274SOL    HW2 7722   0.208  -0.040   6.679  0.3423  0.1870 -0.0351
 2275SOL     OW 7723   6.137   0.526   2.015 -1.0348  0.0505  0.7950
 2275SOL    HW1 7724   6.227   0.521   2.058 -0.8488 -1.8601  0.3062
 2275SOL    HW2 7725   6.067   0.546   2.083 -0.4162 -0.1097  1.4801
 2276SOL     OW 7726   2.082   0.782   1.764  0.7968  0.4356  0.2031
 2276SOL    HW1 7727   2.084   0.804   1.861  0.6642  0.5546  0.1791
 2276SOL    HW2 7728   2.037   0.856   1.714  0.0932 -0.0197  0.1577
 2277SOL     OW 7729   3.532   2.887   3.255 -0.5136 -0.6746  0.2877
 2277SOL    HW1 7730   3.443   2.883   3.300 -0.2186 -1.2293  0.8402
 2277SOL    HW2 7731   3.520   2.911   3.158 -1.1061  1.3026  0.8093
 2278SOL     OW 7732   6.982   2.526   3.008  0.0448  0.3780 -0.0158
 2278SOL    HW1 7733   6.893   2.530   3.052  0.0148 -1.8907  0.2143
 2278SOL    HW2 7734   7.004   2.432   2.983  2.7380  0.7165  0.6793
 2279SOL     OW 7735   6.225   0.399   6.009  0.1405  0.0895 -0.2369
 2279SOL    HW1 7736   6.221   0.441   6.100  2.0012 -0.6242  0.2212
 2279SOL    HW2 7737   6.150   0.333   5.999 -1.3949  1.7314 -0.0837
 2280SOL     OW 7738   0.350   6.404   4.787  0.1418  0.1944 -0.1955
 2280SOL    HW1 7739   0.401   6.378   4.705 -1.4769  1.2211 -1.6125
 2280SOL    HW2 7740   0.377   6.496   4.815  0.1630  0.1409 -0.0416
 2281SOL     OW 7741   3.382   0.068   1.457 -0.5674  0.1835 -0.2082
 2281SOL    HW1 7742   3.465   0.023   1.425 -0.8332  0.7175 -1.7286
 2281SOL    HW2 7743   3.391   0.167   1.446  0.1185  0.6501  3.3352
 2282SOL     OW 7744   5.343   0.352   4.855 -0.2531 -0.4206  0.1859
 2282SOL    HW1 7745   5.256   0.347   4.905 -0.8089  1.7326 -0.4524
 2282SOL    HW2 7746   5.406   0.412   4.904  1.4240 -2.9557  1.3121
 2283SOL     OW 7747   2.217   0.442   0.951  0.4227 -0.5298  0.1292
 2283SOL    HW1 7748   2.119   0.440   0.932  0.4029 -0.6972  0.2441
 2283SOL    HW2 7749   2.263   0.499   0.882  0.1642  0.0787  0.4450
 2284SOL     OW 7750   0.461   4.029   5.674  0.1450 -0.1028 -0.3714
 2284SOL    HW1 7751   0.424   4.090   5.603  1.5947  0.9598 -0.2700
 2284SOL    HW2 7752   0.496   3.946   5.631  0.3103  0.1883 -0.8111
 2285SOL     OW 7753   2.963   3.792   0.995  0.4965  0.1252 -0.2766
 2285SOL    HW1 7754   2.995   3.714   1.050  0.3665  0.3943  0.1821
 2285SOL    HW2 7755   2.899   3.759   0.926 -1.2748  0.0830  1.2983
 2286SOL     OW 7756   0.060   6.403   4.764  0.2939 -0.0110 -0.4571
 2286SOL    HW1 7757   0.029   6.441   4.676  0.1481  2.5779  0.6080
 2286SOL    HW2 7758   0.160   6.403   4.767  0.3141 -0.9771 -0.9565
 2287SOL     OW 7759   4.001   0.642   3.843  0.5324  0.1621 -0.4152
 2287SOL    HW1 7760   4.054   0.665   3.925  0.7861 -2.4882  0.2612
 2287SOL    HW2 7761   4.064   0.611   3.772  0.1772  0.9875 -1.1038
 2288SOL     OW 7762   2.514   6.368   4.072 -0.5168  0.7062 -0.2216
 2288SOL    HW1 7763   2.587   6.300   4.063  0.2605  1.5503 -0.5877
 2288SOL    HW2 7764   2.429   6.324   4.100  0.0337 -0.3637 -0.2007
 2289SOL     OW 7765   6.062   4.081   6.729  0.1496  0.0041  0.1385
 2289SOL    HW1 7766   6.099   4.149   6.791 -0.0399  0.4497 -0.2276
 2289SOL    HW2 7767   5.962   4.084   6.731  0.0400 -2.1557  2.1908
 2290SOL     OW 7768   0.452   5.456   1.047 -0.0785  0.1341 -0.7265
 2290SOL    HW1 7769   0.460   5.418   0.954  0.0776 -0.9581 -0.2909
 2290SOL    HW2 7770   0.444   5.555   1.042  1.8158  0.2840 -1.8334
 2291SOL     OW 7771   6.852   1.837   4.776  0.3293 -0.9519  0.1503
 2291SOL    HW1 7772   6.845   1.852   4.677  1.6934  1.8777  0.3773
 2291SOL    HW2 7773   6.941   1.869   4.808 -0.9568  0.4468  2.6220
 2292SOL     OW 7774   6.879   3.038   4.026  0.0127  0.0741 -0.6994
 2292SOL    HW1 7775   6.940   3.108   4.063 -1.3006  0.6766  0.4131
 2292SOL    HW2 7776   6.789   3.046   4.069 -0.7856 -0.9692 -2.0908
 2293SOL     OW 7777   5.208   5.752   1.855  0.6298 -0.2113  0.4192
 2293SOL    HW1 7778   5.256   5.676   1.812 -0.8982 -0.8678 -0.2039
 2293SOL    HW2 7779   5.111   5.748   1.831  0.4511  1.7476  0.6444
 2294SOL     OW 7780   1.560   0.479   7.008  0.3169 -0.1407  0.3825
 2294SOL    HW1 7781   1.464   0.450   7.002  0.7919 -1.7782 -0.0381
 2294SOL    HW2 7782   1.583   0.499   7.103 -0.2075 -0.6417  0.6267
 2295SOL     OW 7783   0.079   4.019   1.100  0.3430  0.2495 -0.8619
 2295SOL    HW1 7784   0.052   3.931   1.138  3.3976 -0.0818  0.8220
 2295SOL    HW2 7785   0.011   4.088   1.125 -0.6148 -1.0739  0.3204
 2296SOL     OW 7786   3.000   6.754   0.300  0.1032 -0.1601  0.0288
 2296SOL    HW1 7787   3.068   6.808   0.251 -0.6168  2.3099  1.5471
 2296SOL    HW2 7788   2.911   6.766   0.256 -0.1546  0.3657  0.6744
 2297SOL     OW 7789   3.044   2.514   0.917  0.0284  0.2461 -0.0426
 2297SOL    HW1 7790   3.143   2.498   0.911  0.3597  1.7928  0.8325
 2297SOL    HW2 7791   2.996   2.442   0.867  1.6196 -0.0488 -1.2399
 2298SOL     OW 7792   3.417   2.364   1.706 -0.0796 -0.4284  0.1038
 2298SOL    HW1 7793   3.430   2.398   1.612 -1.7743 -0.4150 -0.1600
 2298SOL    HW2 7794   3.499   2.316   1.736  0.6982  0.0534 -1.1853
 2299SOL     OW 7795   4.399   5.503   5.866 -0.0983  0.4754  0.1715
 2299SOL    HW1 7796   4.437   5.457   5.946 -0.9538  0.6351  0.6839
 2299SOL    HW2 7797   4.474   5.542   5.812  0.4622  1.0435  1.3047
 2300SOL     OW 7798   3.017   4.053   0.905 -0.1019  0.2016 -0.3542
 2300SOL    HW1 7799   3.104   4.018   0.939 -0.5684  0.3828  1.1086
 2300SOL    HW2 7800   2.968   3.980   0.858  0.6077 -0.0393 -0.7357
 2301SOL     OW 7801   3.342   4.149   3.241 -0.5577 -0.0157  0.3229
 2301SOL    HW1 7802   3.434   4.111   3.252 -1.4989 -3.0298 -1.0733
 2301SOL    HW2 7803   3.292   4.143   3.327 -0.1002 -0.3561  0.5670
 2302SOL     OW 7804   1.738   6.824   1.780 -0.2102 -0.1764 -0.0494
 2302SOL    HW1 7805   1.722   6.731   1.745 -0.6433 -0.4961  0.9526
 2302SOL    HW2 7806   1.653   6.876   1.776  0.4279  0.8000 -2.2979
 2303SOL     OW 7807   0.250   4.066   6.284  0.1727  0.0636 -0.0744
 2303SOL    HW1 7808   0.167   4.114   6.313 -0.7183  0.0842 -2.4305
 2303SOL    HW2 7809   0.324   4.131   6.271 -0.4492  0.5492 -1.2862
 2304SOL     OW 7810   3.081   0.509   2.861 -0.3444  0.0260  0.3118
 2304SOL    HW1 7811   3.008   0.456   2.817  0.0102  0.5719 -0.9981
 2304SOL    HW2 7812   3.155   0.448   2.890  0.5579 -0.1493 -2.1540
 2305SOL     OW 7813   3.919   6.757   1.869  1.3029 -0.0324  0.1359
 2305SOL    HW1 7814   3.993   6.811   1.909  0.5916  1.0172  0.0639
 2305SOL    HW2 7815   3.920   6.665   1.909  3.0896 -0.2862 -0.4035
 2306SOL     OW 7816   4.093   4.476   1.726 -0.7497  0.3571  0.4481
 2306SOL    HW1 7817   4.069   4.573   1.731  1.1044  0.8208  2.0825
 2306SOL    HW2 7818   4.012   4.420   1.743 -1.4863  1.6842  1.5332
 2307SOL     OW 7819   1.416   4.335   0.931  0.2033 -0.3245 -0.6993
 2307SOL    HW1 7820   1.482   4.291   0.870  0.9857  0.1135 -0.1853
 2307SOL    HW2 7821   1.351   4.267   0.964  0.7707 -0.8919 -0.7248
 2308SOL     OW 7822   1.642   0.410   5.252  0.1214 -0.1542  0.4211
 2308SOL    HW1 7823   1.656   0.359   5.168 -2.7919  1.2429 -1.0642
 2308SOL    HW2 7824   1.704   0.488   5.255  1.4617 -1.1966  0.4878
 2309SOL     OW 7825   3.406   4.564   7.001 -0.3247  0.3646  0.3249
 2309SOL    HW1 7826   3.410   4.464   7.006 -0.9458  0.0536 -2.8156
 2309SOL    HW2 7827   3.315   4.591   6.969 -0.3548  2.0176  1.7044
 2310SOL     OW 7828   4.949   5.409   2.354 -0.1045  1.1926 -0.0457
 2310SOL    HW1 7829   4.908   5.319   2.334  1.1888  0.7880 -0.9892
 2310SOL    HW2 7830   4.908   5.477   2.294 -0.1904  1.0027 -0.2069
 2311SOL     OW 7831   2.636   6.697   0.931 -0.0319  0.0257 -0.2571
 2311SOL    HW1 7832   2.617   6.602   0.908 -1.0607 -0.2619  1.6178
 2311SOL    HW2 7833   2.588   6.757   0.867  0.1904 -0.6971 -1.1207
 2312SOL     OW 7834   1.173   3.189   3.479 -0.0277  0.3842  0.1969
 2312SOL    HW1 7835   1.177   3.284   3.449 -0.4586 -0.3138 -2.2407
 2312SOL    HW2 7836   1.220   3.130   3.413 -1.4944 -1.3196  0.5731
 2313SOL     OW 7837   4.207   6.419   2.705 -0.8680 -0.3617 -0.2736
 2313SOL    HW1 7838   4.185   6.322   2.703  0.0537 -0.5889 -0.0624
 2313SOL    HW2 7839   4.124   6.473   2.693 -2.0688 -1.1054  3.2923
 2314SOL     OW 7840   5.417   0.727   4.454 -0.5830  0.7344 -0.2221
 2314SOL    HW1 7841   5.452   0.800   4.394 -0.8279  0.9755 -0.0689
 2314SOL    HW2 7842   5.488   0.658   4.465  0.4321  1.9602  1.3263
 2315SOL     OW 7843   4.076   3.033   5.700 -1.0775  0.4147  0.3988
 2315SOL    HW1 7844   4.035   3.123   5.688 -0.9038  0.4027 -0.3557
 2315SOL    HW2 7845   4.171   3.043   5.729 -1.2163  0.4679  0.8303
 2316SOL     OW 7846   3.050   1.778   2.996  0.0516  0.2759 -0.1613
 2316SOL    HW1 7847   3.055   1.769   3.095  1.6270 -1.0596 -0.3252
 2316SOL    HW2 7848   3.142   1.786   2.958 -0.5748  2.2532 -1.4258
 2317SOL     OW 7849   6.926   6.269   2.837  0.4193  0.3920 -0.3468
 2317SOL    HW1 7850   6.932   6.333   2.913  0.2624 -0.6155  0.5265
 2317SOL    HW2 7851   6.837   6.278   2.793  0.6937  1.3199 -0.7420
 2318SOL     OW 7852   2.191   3.385   4.193  0.6271 -0.0297 -0.0050
 2318SOL    HW1 7853   2.210   3.456   4.262  1.3102  1.3530 -1.5478
 2318SOL    HW2 7854   2.100   3.347   4.209 -0.0939  1.7572  0.4480
 2319SOL     OW 7855   2.606   5.133   3.297  0.6702 -0.4468  0.2390
 2319SOL    HW1 7856   2.605   5.196   3.375 -0.7950 -0.4482  0.2546
 2319SOL    HW2 7857   2.559   5.048   3.323  1.4220 -1.0041 -0.2128
 2320SOL     OW 7858   2.672   2.872   7.017 -0.1223  0.4631 -0.4307
 2320SOL    HW1 7859   2.596   2.924   7.055  0.3905  0.7097  0.2657
 2320SOL    HW2 7860   2.755   2.927   7.020  0.3675 -0.2863  0.0298
 2321SOL     OW 7861   1.799   4.703   6.807  0.2266  0.4008 -0.1726
 2321SOL    HW1 7862   1.738   4.739   6.736  0.4514  0.4793 -0.3295
 2321SOL    HW2 7863   1.892   4.734   6.789  0.3199  0.2471  0.0402
 2322SOL     OW 7864   2.301   4.618   1.081 -0.3308  0.4354  0.0503
 2322SOL    HW1 7865   2.267   4.596   1.172  0.2874 -0.4999  0.0581
 2322SOL    HW2 7866   2.230   4.598   1.013 -0.5883  0.6040  0.2679
 2323SOL     OW 7867   4.751   4.923   1.715  0.0570 -0.1043 -0.2899
 2323SOL    HW1 7868   4.730   4.944   1.810 -1.4930  2.2468 -1.0816
 2323SOL    HW2 7869   4.667   4.922   1.661  1.0026 -0.3264 -1.8242
 2324SOL     OW 7870   2.762   5.046   0.310  0.4270 -0.7475 -0.3267
 2324SOL    HW1 7871   2.839   5.091   0.356 -1.0940 -0.2076  1.8574
 2324SOL    HW2 7872   2.745   5.092   0.223  0.8734  0.9417  0.4244
 2325SOL     OW 7873   1.817   6.792   0.467 -0.0701  1.0353  0.0683
 2325SOL    HW1 7874   1.783   6.766   0.557  0.1387 -1.1680 -0.4477
 2325SOL    HW2 7875   1.745   6.780   0.398  0.8199 -0.8927 -0.5892
 2326SOL     OW 7876   2.800   6.415   6.235 -0.4416  0.0318 -0.2638
 2326SOL    HW1 7877   2.703   6.440   6.240 -0.0436  1.4112  1.0956
 2326SOL    HW2 7878   2.809   6.328   6.186 -2.2145  0.6780 -1.8859
 2327SOL     OW 7879   1.303   1.738   3.194  0.1026  0.2987 -0.3041
 2327SOL    HW1 7880   1.378   1.777   3.140  0.6714 -0.4532 -0.0683
 2327SOL    HW2 7881   1.326   1.743   3.291  0.2367 -0.7102 -0.2757
 2328SOL     OW 7882   1.834   2.163   2.465 -0.5648 -0.4128  0.0069
 2328SOL    HW1 7883   1.921   2.202   2.435 -0.5444 -0.5844 -0.1536
 2328SOL    HW2 7884   1.832   2.161   2.565 -0.5764  0.0238  0.0176
 2329SOL     OW 7885   1.725   3.053   5.945  0.4021  0.0438  0.4562
 2329SOL    HW1 7886   1.694   2.958   5.952  0.8147 -0.2143 -0.8322
 2329SOL    HW2 7887   1.775   3.065   5.859  0.6535  1.3504  0.7643
 2330SOL     OW 7888   0.004   5.370   6.919  0.4497 -0.9349  0.2379
 2330SOL    HW1 7889  -0.042   5.291   6.878  1.1633 -1.4804  0.4648
 2330SOL    HW2 7890   0.075   5.338   6.981  3.8864 -0.2571 -2.9874
 2331SOL     OW 7891   2.954   4.518   1.003 -0.1728  0.2249 -0.2320
 2331SOL    HW1 7892   2.988   4.451   0.937 -2.3948 -1.6096  0.3517
 2331SOL    HW2 7893   2.959   4.479   1.095  1.8728  2.3317  0.6360
 2332SOL     OW 7894   0.224   0.035   5.872 -0.8172  0.2567 -0.3594
 2332SOL    HW1 7895   0.299   0.088   5.912 -0.6141  0.9481 -1.6139
 2332SOL    HW2 7896   0.252  -0.059   5.860  0.4531  0.8327 -2.2674
 2333SOL     OW 7897   6.234   3.074   1.480 -0.3424  0.9176 -0.3719
 2333SOL    HW1 7898   6.180   3.111   1.404  0.3255 -0.2057 -1.4412
 2333SOL    HW2 7899   6.238   2.974   1.472  1.5603  0.9378 -0.1146
 2334SOL     OW 7900   0.870   2.286   6.258  0.3019  0.1288  0.1212
 2334SOL    HW1 7901   0.782   2.305   6.302  0.7474 -0.9939  1.5945
 2334SOL    HW2 7902   0.908   2.371   6.221 -0.9311  0.8016  0.3529
 2335SOL     OW 7903   6.504   0.576   4.407  0.0668 -0.6014 -0.6013
 2335SOL    HW1 7904   6.602   0.576   4.386 -0.1816  0.6814 -1.9410
 2335SOL    HW2 7905   6.484   0.652   4.468 -0.0766 -0.9375 -0.2314
 2336SOL     OW 7906   3.078   1.277   5.725  0.3128 -0.4716  0.3478
 2336SOL    HW1 7907   3.127   1.207   5.775 -0.1444 -0.7984  0.3490
 2336SOL    HW2 7908   3.116   1.285   5.633  0.0944 -1.0212  0.2058
 2337SOL     OW 7909   4.191   6.005   1.953 -0.4629 -0.2323 -0.3406
 2337SOL    HW1 7910   4.134   5.924   1.966 -0.0253 -0.3254  1.1288
 2337SOL    HW2 7911   4.277   5.994   2.001 -1.0279  1.7208  1.2841
 2338SOL     OW 7912   7.011   2.485   4.058 -0.1464 -0.0817 -0.0580
 2338SOL    HW1 7913   7.002   2.436   3.971 -0.8744  1.5439 -0.9316
 2338SOL    HW2 7914   6.928   2.538   4.076 -0.9150 -1.9784  2.7063
 2339SOL     OW 7915   3.213   4.083   3.949  0.6027 -0.2304  0.3951
 2339SOL    HW1 7916   3.208   4.135   4.035  0.1913  2.4327 -1.1308
 2339SOL    HW2 7917   3.145   4.010   3.951  1.3854 -0.9901  2.7615
 2340SOL     OW 7918   6.279   2.461   4.010 -0.9224 -0.0281 -0.5714
 2340SOL    HW1 7919   6.353   2.481   3.946  0.0422  1.1466  0.8370
 2340SOL    HW2 7920   6.261   2.543   4.065 -1.1995 -1.2179  1.1520
 2341SOL     OW 7921   2.078   3.764   1.743 -0.0281  0.1633  0.6684
 2341SOL    HW1 7922   2.054   3.683   1.796 -0.5628  0.8248  1.4474
 2341SOL    HW2 7923   2.167   3.798   1.773 -0.8742  1.2462  2.0101
 2342SOL     OW 7924   0.876   1.922   5.645  0.1178  0.0021  0.3885
 2342SOL    HW1 7925   0.843   1.951   5.735  0.7057 -1.0003  0.9459
 2342SOL    HW2 7926   0.918   2.000   5.599  0.9199  0.2681  1.5085
 2343SOL     OW 7927   1.545   6.777   2.549 -0.9223 -0.0646  0.2156
 2343SOL    HW1 7928   1.516   6.724   2.470  0.5587  2.4624 -2.2142
 2343SOL    HW2 7929   1.639   6.754   2.573 -0.6652  0.6148 -0.1131
 2344SOL     OW 7930   2.515   6.110   5.778 -0.7915  0.1187 -0.3914
 2344SOL    HW1 7931   2.466   6.028   5.808  0.4788 -0.6033 -0.2498
 2344SOL    HW2 7932   2.611   6.104   5.804 -0.4843  1.2611 -1.1592
 2345SOL     OW 7933   2.580   6.459   4.789  0.2244  0.2773 -0.2700
 2345SOL    HW1 7934   2.519   6.497   4.859  0.6646 -0.7151  0.6776
 2345SOL    HW2 7935   2.568   6.360   4.785  1.9269  0.0189  0.1093
 2346SOL     OW 7936   3.954   3.817   0.600 -0.4287  0.0548  0.5434
 2346SOL    HW1 7937   3.979   3.721   0.615  0.5713  0.2348  0.1248
 2346SOL    HW2 7938   4.008   3.854   0.524  0.3660  1.3814  1.7067
 2347SOL     OW 7939   3.789   1.154   1.350  0.3663 -0.2471  0.0834
 2347SOL    HW1 7940   3.786   1.070   1.405 -0.0586 -0.2562  0.0534
 2347SOL    HW2 7941   3.743   1.138   1.263 -0.3959  0.2218  0.3825
 2348SOL     OW 7942   1.610   4.675   2.652 -0.3912  0.3997 -0.1060
 2348SOL    HW1 7943   1.632   4.763   2.609 -0.0980 -0.0403 -0.8640
 2348SOL    HW2 7944   1.683   4.609   2.633 -0.7956 -0.1210  0.1327
 2349SOL     OW 7945   0.633   4.930   6.698 -0.0726  0.5927  0.0614
 2349SOL    HW1 7946   0.673   4.939   6.607 -0.2487  1.9816  0.0987
 2349SOL    HW2 7947   0.623   5.021   6.739 -2.3906  0.2574  0.4096
 2350SOL     OW 7948   6.192   6.456   6.543 -0.3174  0.1106  0.0090
 2350SOL    HW1 7949   6.256   6.423   6.474  0.5279 -0.2809  0.9417
 2350SOL    HW2 7950   6.099   6.454   6.507  0.2706  1.6756 -1.7395
 2351SOL     OW 7951   2.592   4.690   5.165  0.4503  0.1764  0.3420
 2351SOL    HW1 7952   2.661   4.640   5.219  1.1062  0.3092 -0.3540
 2351SOL    HW2 7953   2.638   4.743   5.094 -0.1390  2.6037  1.6871
 2352SOL     OW 7954   1.902   6.398   3.043 -0.0232  0.0836 -0.4290
 2352SOL    HW1 7955   1.918   6.381   3.140  2.7378 -2.4933 -1.1540
 2352SOL    HW2 7956   1.983   6.442   3.004 -0.0649 -1.1342 -1.9680
 2353SOL     OW 7957   2.239   4.092   6.038 -0.0084  0.2917 -0.0140
 2353SOL    HW1 7958   2.337   4.094   6.060 -0.1375 -2.0852  1.0248
 2353SOL    HW2 7959   2.220   4.016   5.976 -1.4360 -0.4263  1.2400
 2354SOL     OW 7960   2.535   0.183   5.505  0.1041 -0.2644  0.0276
 2354SOL    HW1 7961   2.491   0.272   5.496  0.3930 -0.0963  0.2706
 2354SOL    HW2 7962   2.576   0.175   5.595  0.8817 -0.2782 -0.3196
 2355SOL     OW 7963   2.138   6.410   6.736  0.3543 -0.7139  0.1419
 2355SOL    HW1 7964   2.065   6.363   6.787  0.0587 -0.0068  0.3969
 2355SOL    HW2 7965   2.170   6.489   6.790  0.1926 -0.0839 -0.6654
 2356SOL     OW 7966   6.984   4.167   5.674 -0.4301 -0.0388 -0.0531
 2356SOL    HW1 7967   6.950   4.080   5.638  1.1043 -0.4006 -0.7126
 2356SOL    HW2 7968   7.009   4.156   5.771  0.2943 -0.5158 -0.2837
 2357SOL     OW 7969   6.161   6.684   1.620 -0.4867 -0.1399  0.5477
 2357SOL    HW1 7970   6.246   6.715   1.576 -1.5275  0.2129 -1.3417
 2357SOL    HW2 7971   6.102   6.763   1.637 -0.2113 -0.3007  2.4605
 2358SOL     OW 7972   3.718   4.898   5.509 -0.1591 -0.0787 -0.5752
 2358SOL    HW1 7973   3.813   4.912   5.534 -0.7615  0.5039  1.6062
 2358SOL    HW2 7974   3.702   4.800   5.492  1.1965  0.0452 -2.8713
 2359SOL     OW 7975   0.850   2.018   4.830  0.0471  0.4546  0.5914
 2359SOL    HW1 7976   0.937   2.031   4.877 -0.5007  0.6681  1.5693
 2359SOL    HW2 7977   0.777   2.003   4.897 -1.0028  2.1879 -0.0836
 2360SOL     OW 7978   5.124   3.525   0.965  0.2976 -0.9197  0.0363
 2360SOL    HW1 7979   5.123   3.453   1.035 -1.7517 -0.4260  0.5829
 2360SOL    HW2 7980   5.032   3.536   0.927  0.0803  2.5080  1.1756
 2361SOL     OW 7981   2.311   2.237   4.770  0.0762  0.2910 -0.2154
 2361SOL    HW1 7982   2.337   2.261   4.863 -0.6474 -0.5012  0.1988
 2361SOL    HW2 7983   2.240   2.166   4.771 -0.0459  0.3637 -1.3614
 2362SOL     OW 7984   3.712   0.906   3.115  0.7201  0.0338 -0.8071
 2362SOL    HW1 7985   3.671   0.826   3.072 -1.0266  0.1228  0.5384
 2362SOL    HW2 7986   3.767   0.877   3.193  0.5176  0.1013 -0.6376
 2363SOL     OW 7987   4.178   1.622   5.205 -0.6600 -0.1139  0.3326
 2363SOL    HW1 7988   4.250   1.640   5.272 -0.5766  1.2869 -0.0918
 2363SOL    HW2 7989   4.132   1.708   5.183 -1.3283 -0.7141 -0.6866
 2364SOL     OW 7990   2.035   1.707   2.071 -0.1380  0.1220 -0.4211
 2364SOL    HW1 7991   2.046   1.624   2.016 -0.8444 -0.7742  0.7360
 2364SOL    HW2 7992   1.980   1.686   2.152  2.5772  0.8627  1.7834
 2365SOL     OW 7993   4.395   2.437   0.017 -0.4407  0.4641  0.2497
 2365SOL    HW1 7994   4.410   2.522   0.068 -1.3728  1.3270 -0.8388
 2365SOL    HW2 7995   4.360   2.367   0.080  2.1829  0.2243  1.5630
 2366SOL     OW 7996   1.523   3.029   6.275  0.4423 -0.2612  0.0005
 2366SOL    HW1 7997   1.498   3.114   6.231 -1.1656 -0.8023 -0.1919
 2366SOL    HW2 7998   1.526   2.955   6.208  2.1997 -0.3129  0.0947
 2367SOL     OW 7999   2.157   3.228   1.831 -0.7556  0.2811 -0.2412
 2367SOL    HW1 8000   2.219   3.292   1.875 -1.0603 -0.0317  0.6614
 2367SOL    HW2 8001   2.184   3.215   1.735 -0.2195  1.1338 -0.2087
 2368SOL     OW 8002   3.604   1.468   4.416 -0.0436  0.2633  0.7997
 2368SOL    HW1 8003   3.530   1.524   4.380 -0.0185  1.2574  2.1849
 2368SOL    HW2 8004   3.682   1.527   4.438  0.6266 -0.5694  0.7085
 2369SOL     OW 8005   2.105   6.704   2.695  0.2259  0.1923  0.3188
 2369SOL    HW1 8006   2.133   6.778   2.635 -0.3505 -1.0790 -1.6064
 2369SOL    HW2 8007   2.179   6.637   2.703  0.4876  0.5827  1.4930
 2370SOL     OW 8008   6.326   1.387   6.935 -0.1982 -0.3445 -0.0562
 2370SOL    HW1 8009   6.302   1.376   7.031 -0.4956 -0.2284 -0.1154
 2370SOL    HW2 8010   6.377   1.472   6.923 -0.3369 -0.2587 -0.0341
 2371SOL     OW 8011   2.293   5.903   2.685  0.2049 -0.7510 -0.3644
 2371SOL    HW1 8012   2.330   5.863   2.769  0.5838  1.1278  0.4085
 2371SOL    HW2 8013   2.309   5.841   2.609  1.2220 -1.8228  0.6766
 2372SOL     OW 8014   0.434   2.606   4.598  0.3902 -0.0483 -0.5049
 2372SOL    HW1 8015   0.481   2.682   4.554  0.2318 -0.7641 -1.9897
 2372SOL    HW2 8016   0.500   2.537   4.627  0.3845 -0.3700 -1.2335
 2373SOL     OW 8017   0.379   1.320   6.145 -0.1921 -0.2207 -0.2893
 2373SOL    HW1 8018   0.331   1.263   6.078 -0.1066 -0.9215  0.2395
 2373SOL    HW2 8019   0.465   1.277   6.170 -0.1139  0.1565  0.0941
 2374SOL     OW 8020   4.955   2.119   4.736  0.9506  0.0563  0.0379
 2374SOL    HW1 8021   4.856   2.119   4.739  0.8700  0.3527 -1.6237
 2374SOL    HW2 8022   4.990   2.036   4.781 -0.1939 -1.5782 -1.9182
 2375SOL     OW 8023   4.818   5.343   4.726 -0.5861  0.3984 -0.2104
 2375SOL    HW1 8024   4.774   5.261   4.764 -1.4350 -0.4647 -2.8036
 2375SOL    HW2 8025   4.755   5.420   4.732 -0.8218  0.2031 -0.1415
 2376SOL     OW 8026   6.396   1.314   4.619  0.4320  0.0308 -0.4459
 2376SOL    HW1 8027   6.454   1.396   4.616  1.7333 -0.8499  0.1215
 2376SOL    HW2 8028   6.380   1.288   4.714  0.6140 -0.7810 -0.6323
 2377SOL     OW 8029   3.783   3.535   3.269 -0.4176  0.0896 -0.2852
 2377SOL    HW1 8030   3.879   3.551   3.292 -0.7326  3.4375 -0.7254
 2377SOL    HW2 8031   3.731   3.521   3.353  0.2025 -0.1156  0.0774
 2378SOL     OW 8032   4.827   0.832   1.379 -0.2290  0.4646  0.3385
 2378SOL    HW1 8033   4.881   0.863   1.457  3.6773 -1.8120 -1.1859
 2378SOL    HW2 8034   4.778   0.748   1.404  1.0576 -0.2908  0.3757
 2379SOL     OW 8035   5.788   0.195   0.887 -0.3823  0.3001 -0.0501
 2379SOL    HW1 8036   5.752   0.102   0.890 -3.2767  1.3228  1.5768
 2379SOL    HW2 8037   5.880   0.197   0.925 -0.1058 -1.9301 -0.4958
 2380SOL     OW 8038   3.316   1.393   1.369  0.0471  0.2922  0.2507
 2380SOL    HW1 8039   3.262   1.417   1.288  1.2290  2.4691  0.0354
 2380SOL    HW2 8040   3.284   1.445   1.447  1.1294  0.8343  0.3548
 2381SOL     OW 8041   2.416   3.721   6.637 -0.6096 -0.1660  0.1584
 2381SOL    HW1 8042   2.457   3.635   6.606 -1.6953 -0.3301 -0.9024
 2381SOL    HW2 8043   2.400   3.780   6.558  0.0904  1.0111  0.8769
 2382SOL     OW 8044   1.658   5.317   4.403  0.4539  0.2159  0.0808
 2382SOL    HW1 8045   1.613   5.261   4.334  0.3387 -0.8683  1.0066
 2382SOL    HW2 8046   1.619   5.409   4.402 -0.0819 -0.0111 -0.7651
 2383SOL     OW 8047   5.662   0.013   2.511 -0.4656 -0.2949  0.0373
 2383SOL    HW1 8048   5.648  -0.006   2.608  1.1682  0.8477  0.5392
 2383SOL    HW2 8049   5.613   0.097   2.486 -0.2176 -0.1363  0.0802
 2384SOL     OW 8050   6.008   1.062   3.149 -0.0062  0.5015 -0.3631
 2384SOL    HW1 8051   6.096   1.039   3.107  1.9017  1.6344  2.6458
 2384SOL    HW2 8052   5.972   1.145   3.108  0.3426  0.0729 -1.5773
 2385SOL     OW 8053   1.452   1.130   1.651 -0.3272 -0.1655  0.8191
 2385SOL    HW1 8054   1.549   1.114   1.637 -0.1905 -0.2437  1.7780
 2385SOL    HW2 8055   1.436   1.228   1.664 -0.3994 -0.1393  0.5497
 2386SOL     OW 8056   5.649   6.790   4.525  0.1710  0.6361 -0.0752
 2386SOL    HW1 8057   5.590   6.870   4.538 -1.8207 -0.9689  1.5533
 2386SOL    HW2 8058   5.649   6.765   4.428 -1.5746  0.9561 -0.2063
 2387SOL     OW 8059   0.518   2.173   4.793 -0.4276  0.3410  0.5726
 2387SOL    HW1 8060   0.509   2.142   4.699 -3.2613 -1.1927  1.2360
 2387SOL    HW2 8061   0.583   2.115   4.841  0.9963  1.1035 -0.3813
 2388SOL     OW 8062   0.190   3.159   3.538 -0.3878  0.1636 -0.1100
 2388SOL    HW1 8063   0.160   3.251   3.510  0.8304  0.2951 -1.0925
 2388SOL    HW2 8064   0.139   3.091   3.486 -0.0724  0.3432 -0.6692
 2389SOL     OW 8065   5.064   3.930   2.249  0.3870 -0.1577  0.3924
 2389SOL    HW1 8066   5.079   3.906   2.345  2.0041 -0.6602  0.0459
 2389SOL    HW2 8067   5.091   3.853   2.191 -3.9630 -1.3402 -0.4160
 2390SOL     OW 8068   3.823   2.971   2.360  0.1319  0.0371 -0.1303
 2390SOL    HW1 8069   3.871   3.054   2.332 -0.5693  0.5682  0.2072
 2390SOL    HW2 8070   3.830   2.961   2.460 -0.9646  0.4471 -0.0078
 2391SOL     OW 8071   4.656   5.231   6.674  0.3892  0.3500  0.0119
 2391SOL    HW1 8072   4.611   5.282   6.601  0.4221  0.7035  0.2378
 2391SOL    HW2 8073   4.728   5.286   6.715 -0.1927  0.4890  0.8901
 2392SOL     OW 8074   4.785   0.475   3.437 -1.0262  0.0158  0.1870
 2392SOL    HW1 8075   4.883   0.482   3.419 -0.9402 -0.4341  0.4657
 2392SOL    HW2 8076   4.741   0.425   3.363 -0.8464 -0.8619  0.6549
 2393SOL     OW 8077   4.017   3.762   6.211 -0.0153 -0.3948 -0.2491
 2393SOL    HW1 8078   4.111   3.779   6.182 -0.0636 -0.0880 -0.2207
 2393SOL    HW2 8079   4.002   3.663   6.215  0.6415 -0.4693  0.8252
 2394SOL     OW 8080   1.007   4.371   5.230 -0.3298  0.5117 -0.4865
 2394SOL    HW1 8081   0.974   4.371   5.136 -0.8743  0.1115 -0.3072
 2394SOL    HW2 8082   1.082   4.436   5.240  1.0555 -0.8626 -1.6433
 2395SOL     OW 8083   6.465   4.773   0.080 -0.2304 -0.7207 -0.2232
 2395SOL    HW1 8084   6.525   4.769   0.160  1.6789  2.1011 -1.3611
 2395SOL    HW2 8085   6.381   4.723   0.099 -0.5539  1.0285  4.1428
 2396SOL     OW 8086   4.464   6.845   2.348  0.4226 -0.3996 -0.1196
 2396SOL    HW1 8087   4.457   6.770   2.283  1.6333 -0.3784 -0.3058
 2396SOL    HW2 8088   4.529   6.821   2.420  1.5182  0.7821 -0.6680
 2397SOL     OW 8089   5.107   5.172   1.010  0.3345 -0.3850  0.4318
 2397SOL    HW1 8090   5.092   5.231   1.089  2.2579  0.0623  0.5016
 2397SOL    HW2 8091   5.052   5.089   1.021 -1.5526  0.8478  0.8675
 2398SOL     OW 8092   3.849   3.629   1.638  0.0258  0.9741 -0.5446
 2398SOL    HW1 8093   3.758   3.671   1.637  0.7782  2.6754 -1.0665
 2398SOL    HW2 8094   3.900   3.658   1.557  0.0288 -2.3728 -1.9013
 2399SOL     OW 8095   4.477   1.923   2.082 -0.4216 -0.3586 -0.2461
 2399SOL    HW1 8096   4.527   1.989   2.137 -0.9946  1.7318 -2.0801
 2399SOL    HW2 8097   4.531   1.839   2.073  1.4413  0.7400  0.1504
 2400SOL     OW 8098   3.433   2.993   6.538  0.0937  0.5067 -0.1313
 2400SOL    HW1 8099   3.399   3.045   6.616  0.2636  0.7478 -0.2151
 2400SOL    HW2 8100   3.358   2.944   6.494  0.2295 -0.9390  1.1465
 2401SOL     OW 8101   4.825   0.202   0.806  0.0086  0.2497  0.0919
 2401SOL    HW1 8102   4.781   0.250   0.729 -0.0514 -1.3853 -0.9444
 2401SOL    HW2 8103   4.918   0.177   0.781  0.0285 -0.2029  0.6000
 2402SOL     OW 8104   0.290   0.522   4.517 -0.3899  0.3143 -0.1956
 2402SOL    HW1 8105   0.210   0.569   4.479  0.1709  2.0238  0.6289
 2402SOL    HW2 8106   0.266   0.427   4.538 -1.5229  0.1282 -2.0719
 2403SOL     OW 8107   1.659   2.652   6.644 -0.6938  0.1959  0.0464
 2403SOL    HW1 8108   1.615   2.634   6.732 -2.9993 -0.9099 -1.2453
 2403SOL    HW2 8109   1.712   2.737   6.650 -3.3636  1.8726  1.6273
 2404SOL     OW 8110   3.559   1.413   5.678  0.0001 -0.2722 -0.6360
 2404SOL    HW1 8111   3.525   1.506   5.667 -0.1974  0.0644  2.0625
 2404SOL    HW2 8112   3.659   1.413   5.676 -0.0095 -0.3512 -2.6262
 2405SOL     OW 8113   3.618   2.878   3.880  0.4234 -0.0940 -0.0605
 2405SOL    HW1 8114   3.663   2.795   3.847 -1.4049 -1.0047 -0.4399
 2405SOL    HW2 8115   3.578   2.860   3.970 -0.0912  0.3364 -0.1976
 2406SOL     OW 8116   1.515   0.342   0.592  0.6417  0.0680 -0.6898
 2406SOL    HW1 8117   1.590   0.367   0.653  1.7920 -2.3983 -0.9656
 2406SOL    HW2 8118   1.546   0.349   0.497  0.0817  0.2945 -0.8595
 2407SOL     OW 8119   4.562   2.288   2.741  0.5238  0.0471 -0.3341
 2407SOL    HW1 8120   4.504   2.215   2.705  0.5246  0.0525 -0.3464
 2407SOL    HW2 8121   4.534   2.376   2.702 -0.2378  0.2203  0.5529
 2408SOL     OW 8122   2.780   5.639   3.753 -0.7718  0.3810  0.3712
 2408SOL    HW1 8123   2.857   5.687   3.711 -1.1312  0.0305 -0.7329
 2408SOL    HW2 8124   2.709   5.625   3.684 -0.9568 -1.1371  0.8431
 2409SOL     OW 8125   3.184   5.828   2.371 -0.3164  0.3495  0.4412
 2409SOL    HW1 8126   3.198   5.815   2.470 -0.2060  3.3697  0.9135
 2409SOL    HW2 8127   3.258   5.886   2.335 -1.6017  1.1941 -0.9204
 2410SOL     OW 8128   3.856   3.032   4.177 -0.5278  0.3100  0.6254
 2410SOL    HW1 8129   3.864   3.030   4.077 -0.8877 -1.8211  0.5865
 2410SOL    HW2 8130   3.941   3.067   4.216  0.7153 -1.4356 -0.3792
 2411SOL     OW 8131   2.537   5.084   3.655 -0.2638 -0.6766 -0.5633
 2411SOL    HW1 8132   2.606   5.133   3.603 -0.4907 -0.2311 -0.4537
 2411SOL    HW2 8133   2.548   4.985   3.642  0.4111 -0.6109 -0.5134
 2412SOL     OW 8134   6.172   4.120   4.084 -0.4053  0.1928  0.2873
 2412SOL    HW1 8135   6.077   4.125   4.115 -0.0066 -0.3566  1.6941
 2412SOL    HW2 8136   6.195   4.025   4.062 -0.4758  0.4757 -1.0943
 2413SOL     OW 8137   6.980   1.073   2.247  0.0812  0.5933 -0.5748
 2413SOL    HW1 8138   6.920   0.998   2.273 -0.6100  2.5877  4.7287
 2413SOL    HW2 8139   7.068   1.036   2.215 -1.0753 -2.3507 -0.6661
 2414SOL     OW 8140   5.292   4.442   1.853 -0.2792 -0.4989 -0.0885
 2414SOL    HW1 8141   5.233   4.387   1.793 -0.6445 -1.7530  1.3673
 2414SOL    HW2 8142   5.371   4.387   1.881  0.3734  0.3913 -0.1595
 2415SOL     OW 8143   0.204   1.272   4.319  0.4667 -0.0070  0.2587
 2415SOL    HW1 8144   0.202   1.319   4.407  0.2178  1.5325 -0.5390
 2415SOL    HW2 8145   0.294   1.285   4.277 -0.8019  3.3560 -1.7776
 2416SOL     OW 8146   5.726   0.636   4.042 -0.1420  0.4539  0.3781
 2416SOL    HW1 8147   5.801   0.681   4.091 -0.0683  0.9977 -0.2069
 2416SOL    HW2 8148   5.748   0.540   4.028  0.5508  0.6578  0.0200
 2417SOL     OW 8149   2.366   3.258   5.295  0.0183 -0.7996  0.0639
 2417SOL    HW1 8150   2.291   3.250   5.229  0.9150 -0.0252 -1.1063
 2417SOL    HW2 8151   2.434   3.187   5.277 -0.6637 -1.8599  1.4847
 2418SOL     OW 8152   3.946   3.713   4.738  0.3381  0.1091  0.1419
 2418SOL    HW1 8153   3.865   3.682   4.786 -0.0590 -1.0277 -1.1858
 2418SOL    HW2 8154   3.983   3.638   4.683  0.0017  1.6292 -2.3272
 2419SOL     OW 8155   6.318   1.469   4.379 -0.4672  0.3538 -0.1215
 2419SOL    HW1 8156   6.395   1.511   4.332 -0.5880  0.4558 -0.2299
 2419SOL    HW2 8157   6.349   1.429   4.466  0.0643 -1.2103 -0.9941
 2420SOL     OW 8158   5.518   0.245   2.444 -0.6622 -0.1574 -0.1776
 2420SOL    HW1 8159   5.429   0.215   2.412 -0.4968 -1.5168  0.5742
 2420SOL    HW2 8160   5.540   0.334   2.403 -2.6170  0.5001  0.1209
 2421SOL     OW 8161   1.629   3.446   5.023 -0.6775  0.3636  0.3845
 2421SOL    HW1 8162   1.625   3.376   4.952  0.7207  1.4049 -0.8083
 2421SOL    HW2 8163   1.721   3.451   5.060 -0.8258  1.3535  0.6624
 2422SOL     OW 8164   4.817   2.470   2.075  0.0973  0.1740 -0.0766
 2422SOL    HW1 8165   4.793   2.565   2.090  1.5208  0.4577  0.6461
 2422SOL    HW2 8166   4.740   2.421   2.034 -0.1848  1.9407 -1.7425
 2423SOL     OW 8167   1.305   5.221   1.840  0.0145  0.0294 -0.1684
 2423SOL    HW1 8168   1.294   5.314   1.875  1.1817  0.9299 -2.0501
 2423SOL    HW2 8169   1.214   5.180   1.826 -0.5086  0.6840  1.0903
 2424SOL     OW 8170   3.854   0.204   4.647  0.2363  0.7634 -0.7535
 2424SOL    HW1 8171   3.852   0.169   4.741 -0.0511  0.3343 -0.9116
 2424SOL    HW2 8172   3.838   0.128   4.583  2.7120  0.6192 -1.2851
 2425SOL     OW 8173   0.010   1.976   3.096 -0.6629 -0.7072 -0.1595
 2425SOL    HW1 8174   0.103   1.941   3.090 -0.7999 -2.2595  3.6833
 2425SOL    HW2 8175  -0.055   1.903   3.075 -0.9694 -0.8401  1.1715
 2426SOL     OW 8176   1.426   0.469   3.725  0.3181  0.4203  0.7996
 2426SOL    HW1 8177   1.492   0.440   3.656 -0.0460  0.2646  0.5187
 2426SOL    HW2 8178   1.352   0.520   3.682  0.6030  1.1908  1.2024
 2427SOL     OW 8179   6.698   6.322   4.463  0.3813 -0.3045 -0.0938
 2427SOL    HW1 8180   6.637   6.258   4.510 -0.6794 -0.3321 -1.4721
 2427SOL    HW2 8181   6.713   6.292   4.369 -0.3604  1.5988 -0.8728
 2428SOL     OW 8182   6.482   0.869   3.200  0.2458 -0.4437 -0.6236
 2428SOL    HW1 8183   6.450   0.899   3.289  1.6374  0.3158 -0.3498
 2428SOL    HW2 8184   6.542   0.790   3.211 -2.0491 -2.3920 -1.1967
 2429SOL     OW 8185   4.176   5.991   4.506  0.4478  0.3181  0.2933
 2429SOL    HW1 8186   4.197   5.893   4.507  3.0170  0.7916  1.0149
 2429SOL    HW2 8187   4.145   6.019   4.597 -1.5476 -0.0035 -0.2430
 2430SOL     OW 8188   5.678   1.946   0.488  0.1727  0.0272 -0.0668
 2430SOL    HW1 8189   5.683   1.909   0.396 -0.7230 -3.0890  1.0215
 2430SOL    HW2 8190   5.590   1.921   0.530  1.2566 -0.1961  2.2286
 2431SOL     OW 8191   4.335   0.577   3.373 -0.1887 -0.1679 -0.1612
 2431SOL    HW1 8192   4.383   0.493   3.344  0.1875  0.2412 -0.7550
 2431SOL    HW2 8193   4.392   0.656   3.351 -1.1391  0.3278 -0.8739
 2432SOL     OW 8194   1.653   6.984   2.361 -0.1617 -0.3811  0.4294
 2432SOL    HW1 8195   1.601   6.939   2.434 -1.4682  0.0762 -0.1958
 2432SOL    HW2 8196   1.622   6.949   2.272 -0.2319  0.7306 -0.0031
 2433SOL     OW 8197   3.387   1.389   0.519 -0.3545 -0.3420 -0.2345
 2433SOL    HW1 8198   3.470   1.357   0.474 -0.0245 -0.2541  0.3070
 2433SOL    HW2 8199   3.410   1.459   0.586 -0.7264 -1.0837  0.6919
 2434SOL     OW 8200   4.018   6.491   5.227 -0.6189 -0.2335 -0.4331
 2434SOL    HW1 8201   3.963   6.411   5.201 -1.3441  0.2318 -0.3361
 2434SOL    HW2 8202   4.016   6.558   5.152 -2.8154  1.1735  0.7663
 2435SOL     OW 8203   5.121   5.129   6.781 -0.5072  0.3812 -0.5727
 2435SOL    HW1 8204   5.152   5.142   6.687 -0.1576 -2.1075 -0.8717
 2435SOL    HW2 8205   5.200   5.121   6.841 -0.6394 -0.9706 -0.5553
 2436SOL     OW 8206   0.723   4.750   0.204 -0.1946  0.0484  0.3517
 2436SOL    HW1 8207   0.684   4.703   0.124  0.4469 -1.9343  1.1372
 2436SOL    HW2 8208   0.775   4.829   0.173 -0.6903 -0.1612 -1.1203
 2437SOL     OW 8209   4.992   6.225   5.115 -0.2780 -0.2766  0.5540
 2437SOL    HW1 8210   4.959   6.192   5.027 -1.7898 -0.0140  1.0025
 2437SOL    HW2 8211   5.056   6.301   5.100 -0.1571 -0.5299 -0.3106
 2438SOL     OW 8212   4.670   1.978   5.958 -0.1759 -0.3857  0.0771
 2438SOL    HW1 8213   4.610   1.898   5.962 -0.6534 -0.0013  0.6810
 2438SOL    HW2 8214   4.697   2.004   6.051  2.5516 -1.7572 -0.2129
 2439SOL     OW 8215   1.034   5.031   6.356  0.1293  0.4202  0.0770
 2439SOL    HW1 8216   1.113   5.048   6.416  0.5961 -2.9928  0.6308
 2439SOL    HW2 8217   1.063   4.974   6.279 -1.4090  0.8983 -0.8940
 2440SOL     OW 8218   4.894   6.727   5.275 -0.1281 -0.7454  0.2048
 2440SOL    HW1 8219   4.879   6.673   5.193  0.8322  1.8869 -1.8657
 2440SOL    HW2 8220   4.993   6.735   5.292 -0.3056 -0.8989  1.3746
 2441SOL     OW 8221   1.400   2.399   6.009 -0.3691  0.1159 -0.2966
 2441SOL    HW1 8222   1.472   2.338   6.042  0.8402  1.6469  0.0118
 2441SOL    HW2 8223   1.394   2.392   5.909  2.5218  2.2469 -0.7680
 2442SOL     OW 8224   0.179   4.116   5.183  0.5230  0.7912  0.7178
 2442SOL    HW1 8225   0.252   4.184   5.188  0.1808  1.1654  0.6650
 2442SOL    HW2 8226   0.216   4.026   5.204  0.5603  1.2811  2.9686
 2443SOL     OW 8227   5.176   5.185   5.255  0.3141  0.0954  0.2460
 2443SOL    HW1 8228   5.105   5.198   5.186  1.0998  0.1078 -0.5755
 2443SOL    HW2 8229   5.140   5.127   5.329  0.1418 -1.7711 -1.2433
 2444SOL     OW 8230   3.295   4.295   0.248  0.3539  0.3280 -0.2454
 2444SOL    HW1 8231   3.364   4.280   0.178 -0.8276  0.2880 -1.4356
 2444SOL    HW2 8232   3.323   4.371   0.307  2.4271 -1.0464  0.6784
 2445SOL     OW 8233   6.028   1.703   2.701 -0.1180 -0.1450  0.5383
 2445SOL    HW1 8234   5.971   1.621   2.709 -0.5709 -0.1433 -2.0700
 2445SOL    HW2 8235   6.122   1.677   2.681  0.4883 -0.0639  2.9063
 2446SOL     OW 8236   6.034   4.035   2.612  1.0608 -0.1461 -0.1044
 2446SOL    HW1 8237   6.019   4.108   2.680  0.8606 -0.4255  0.1567
 2446SOL    HW2 8238   5.971   3.959   2.631 -0.4368  0.5980 -1.7970
 2447SOL     OW 8239   1.009   3.354   6.603 -0.2190  0.0494 -0.1551
 2447SOL    HW1 8240   1.105   3.326   6.603 -0.3375 -0.3730  0.1650
 2447SOL    HW2 8241   0.997   3.432   6.542 -0.0775 -1.2665 -1.9404
 2448SOL     OW 8242   4.851   6.536   5.068 -0.0663  0.6267  0.2035
 2448SOL    HW1 8243   4.772   6.583   5.029 -0.3134  0.5654  0.6160
 2448SOL    HW2 8244   4.915   6.511   4.996 -1.0175 -0.4511 -0.3037
 2449SOL     OW 8245   6.884   6.024   6.385  0.3768 -0.1964 -0.6533
 2449SOL    HW1 8246   6.816   5.977   6.329  0.3471 -0.1189 -0.6819
 2449SOL    HW2 8247   6.928   5.957   6.446  0.4161 -0.2825 -0.7749
 2450SOL     OW 8248   2.183   5.317   3.586  0.9699 -0.2826  0.0315
 2450SOL    HW1 8249   2.126   5.268   3.521 -0.1567  0.2179  0.6106
 2450SOL    HW2 8250   2.231   5.392   3.540 -0.0494  0.2566 -0.1754
 2451SOL     OW 8251   1.163   1.121   4.699  0.1692 -0.0346 -0.1349
 2451SOL    HW1 8252   1.127   1.032   4.724  1.1431 -0.0931  1.1870
 2451SOL    HW2 8253   1.094   1.172   4.648 -0.3188 -1.6061 -1.1167
 2452SOL     OW 8254   1.176   2.567   2.943  0.6432  0.2916 -0.0875
 2452SOL    HW1 8255   1.088   2.604   2.912  0.9338  1.6739  0.6416
 2452SOL    HW2 8256   1.242   2.641   2.950  0.4914  0.2432  4.1916
 2453SOL     OW 8257   1.497   4.975   0.656 -0.0224 -0.3859 -0.0706
 2453SOL    HW1 8258   1.421   4.977   0.591  0.1406  0.1117 -0.2473
 2453SOL    HW2 8259   1.464   5.003   0.747 -0.1784 -0.7634 -0.0078
 2454SOL     OW 8260   2.450   0.755   1.642 -0.1626 -0.2329  0.0859
 2454SOL    HW1 8261   2.389   0.682   1.673 -0.3338 -0.9028 -1.6853
 2454SOL    HW2 8262   2.515   0.718   1.575  1.8180  0.5999  1.4507
 2455SOL     OW 8263   5.266   6.023   1.542 -0.4809 -0.9531 -0.4313
 2455SOL    HW1 8264   5.285   5.936   1.588 -1.9558 -1.5041 -0.7979
 2455SOL    HW2 8265   5.172   6.051   1.562 -1.0853 -1.0673 -2.8395
 2456SOL     OW 8266   4.600   4.835   1.336 -0.6028 -0.1332  0.4395
 2456SOL    HW1 8267   4.677   4.874   1.387  0.2249 -1.3991  0.2002
 2456SOL    HW2 8268   4.624   4.743   1.305 -1.4328  0.2401 -1.4383
 2457SOL     OW 8269   4.844   4.825   0.346 -0.6653  0.0202  0.1499
 2457SOL    HW1 8270   4.896   4.805   0.263  0.8877 -0.0944  1.1312
 2457SOL    HW2 8271   4.887   4.899   0.397 -2.6483  1.3965 -0.0438
 2458SOL     OW 8272   1.175   4.531   4.059 -0.1186 -0.4601  0.4985
 2458SOL    HW1 8273   1.148   4.627   4.053 -2.0062 -0.8596  1.8658
 2458SOL    HW2 8274   1.275   4.525   4.059  0.0504  1.3818 -0.7997
 2459SOL     OW 8275   2.552   5.794   0.325 -0.1068  0.3006 -0.2817
 2459SOL    HW1 8276   2.550   5.742   0.410 -0.3827 -0.4279 -0.7262
 2459SOL    HW2 8277   2.490   5.752   0.258 -2.9504  3.0598  0.3756
 2460SOL     OW 8278   0.087   1.368   2.204 -0.3834 -0.2134  0.1299
 2460SOL    HW1 8279   0.002   1.331   2.243 -0.5058  0.1448  0.2029
 2460SOL    HW2 8280   0.137   1.419   2.274  0.8566 -2.0233  0.6423
 2461SOL     OW 8281   6.635   1.507   1.397 -0.8970 -0.6312 -0.3588
 2461SOL    HW1 8282   6.717   1.450   1.403 -1.2508 -1.1530 -0.4153
 2461SOL    HW2 8283   6.638   1.561   1.312 -0.6322 -0.6743 -0.3772
 2462SOL     OW 8284   3.707   4.597   1.630  0.5601  0.7443  0.5675
 2462SOL    HW1 8285   3.680   4.540   1.553 -0.5331  1.1704  0.6219
 2462SOL    HW2 8286   3.629   4.610   1.691  0.3480  3.4861 -0.1851
 2463SOL     OW 8287   0.681   2.111   3.836 -0.4216  0.0687 -0.4663
 2463SOL    HW1 8288   0.654   2.030   3.889  1.7008 -0.4040 -0.0191
 2463SOL    HW2 8289   0.736   2.171   3.894  0.9745  0.1138 -1.7870
 2464SOL     OW 8290   6.922   4.531   2.110  0.2474  0.4003  0.1681
 2464SOL    HW1 8291   6.874   4.496   2.190  1.0251 -0.7031  0.1741
 2464SOL    HW2 8292   6.994   4.467   2.084 -0.1270  0.6403 -1.5436
 2465SOL     OW 8293   6.317   6.338   0.373  0.0223 -0.6290  0.3145
 2465SOL    HW1 8294   6.375   6.327   0.292  0.9601  0.6308  0.7941
 2465SOL    HW2 8295   6.236   6.279   0.363  0.1326 -0.5503 -1.5209
 2466SOL     OW 8296   4.965   3.380   1.352 -0.2950 -0.5605  0.4557
 2466SOL    HW1 8297   4.913   3.313   1.301  1.2026 -0.9264 -0.6504
 2466SOL    HW2 8298   4.924   3.393   1.442 -2.5897 -0.4064 -0.5485
 2467SOL     OW 8299   0.529   0.222   4.954  0.4844 -0.2405  0.1001
 2467SOL    HW1 8300   0.524   0.287   5.029 -0.5818 -0.8363  0.5719
 2467SOL    HW2 8301   0.540   0.129   4.990  0.7641 -0.4558 -0.5126
 2468SOL     OW 8302   6.893   6.803   2.558 -0.2972  0.9301  0.5839
 2468SOL    HW1 8303   6.855   6.814   2.650 -0.1301  0.7690  0.6734
 2468SOL    HW2 8304   6.821   6.777   2.495 -0.4430  1.2011  0.6373
 2469SOL     OW 8305   1.590   2.690   5.476 -0.0218  0.0449  0.2678
 2469SOL    HW1 8306   1.604   2.776   5.426  0.6055 -0.2727 -0.1043
 2469SOL    HW2 8307   1.605   2.613   5.414  0.5423 -0.3483  0.8877
 2470SOL     OW 8308   2.281   3.451   5.740  0.6615  0.0635 -0.2089
 2470SOL    HW1 8309   2.249   3.533   5.691  1.8207  1.1356  0.7449
 2470SOL    HW2 8310   2.344   3.479   5.812 -1.3812 -1.3666  2.3082
 2471SOL     OW 8311   2.226   5.875   1.195 -0.4353  0.3645  0.4008
 2471SOL    HW1 8312   2.271   5.941   1.256 -1.5138  0.5413  1.0330
 2471SOL    HW2 8313   2.243   5.782   1.229 -1.5029  0.4853  1.3505
 2472SOL     OW 8314   5.403   1.401   5.161 -0.1749 -0.6282  0.4018
 2472SOL    HW1 8315   5.400   1.305   5.188 -1.0600 -0.8316 -0.3734
 2472SOL    HW2 8316   5.477   1.416   5.097 -0.3851 -0.9135  0.0908
 2473SOL     OW 8317   0.126   5.514   4.653  0.0186  0.1041 -0.2553
 2473SOL    HW1 8318   0.057   5.580   4.682  0.3631  1.4775 -2.3310
 2473SOL    HW2 8319   0.190   5.558   4.590  2.2105 -1.3921  0.7659
 2474SOL     OW 8320   6.256   5.816   4.379  1.1208 -0.0505 -0.0069
 2474SOL    HW1 8321   6.264   5.908   4.341  0.5282 -0.8831 -2.3141
 2474SOL    HW2 8322   6.321   5.755   4.333  0.4038 -1.1038  0.3474
 2475SOL     OW 8323   6.150   3.457   2.623  0.0483  0.1808 -0.3687
 2475SOL    HW1 8324   6.243   3.439   2.592 -0.4214 -0.8432 -1.2784
 2475SOL    HW2 8325   6.144   3.550   2.659  1.5423  0.0717  0.2263
 2476SOL     OW 8326   0.015   2.650   4.407  0.3736 -0.4358  0.2262
 2476SOL    HW1 8327  -0.006   2.734   4.357  1.3612  0.2369  0.9051
 2476SOL    HW2 8328  -0.064   2.588   4.404 -0.2139  0.3366 -0.6254
 2477SOL     OW 8329   5.729   6.764   0.509 -0.0664 -0.1372 -0.7021
 2477SOL    HW1 8330   5.660   6.829   0.477 -0.2511  0.8377  1.5150
 2477SOL    HW2 8331   5.814   6.813   0.529  0.7937 -1.0857 -1.8463
 2478SOL     OW 8332   6.061   6.646   3.096 -0.2251  0.2569 -0.1621
 2478SOL    HW1 8333   6.097   6.555   3.078  1.0123  0.8625 -0.8612
 2478SOL    HW2 8334   5.962   6.640   3.110 -0.1541 -1.1905 -0.1261
 2479SOL     OW 8335   6.866   1.128   1.253 -0.2913  0.5057  0.1288
 2479SOL    HW1 8336   6.789   1.073   1.284 -0.5094  0.0467 -1.1587
 2479SOL    HW2 8337   6.909   1.083   1.174 -0.9625  2.5377 -1.4740
 2480SOL     OW 8338   0.292   5.660   2.001  0.1318 -0.1601  0.1950
 2480SOL    HW1 8339   0.258   5.643   1.909 -0.6875  1.0322  0.2529
 2480SOL    HW2 8340   0.301   5.574   2.050  0.3129 -0.7787 -0.9098
 2481SOL     OW 8341   3.180   5.422   2.662 -0.0123 -0.2116  0.3948
 2481SOL    HW1 8342   3.259   5.415   2.600 -0.0035  0.7228  0.2754
 2481SOL    HW2 8343   3.127   5.503   2.637 -0.9051 -0.7325  0.5985
 2482SOL     OW 8344   5.196   3.178   5.599  0.1878  0.4803  0.1494
 2482SOL    HW1 8345   5.268   3.120   5.638  0.7490  2.1316  1.6457
 2482SOL    HW2 8346   5.207   3.272   5.631 -3.9566  0.4306  2.3436
 2483SOL     OW 8347   0.476   0.116   1.307  0.2108  0.2188  0.5755
 2483SOL    HW1 8348   0.388   0.137   1.349 -0.8289 -0.7593 -0.9844
 2483SOL    HW2 8349   0.464   0.111   1.207  1.7083 -1.3455  0.4337
 2484SOL     OW 8350   2.796   1.017   0.883  0.3293  0.2736  0.0189
 2484SOL    HW1 8351   2.788   0.954   0.806  1.9574 -0.3866  0.3470
 2484SOL    HW2 8352   2.811   1.110   0.849  1.0593 -0.0180 -0.4755
 2485SOL     OW 8353   5.484   5.504   1.996  0.5959 -0.4179 -0.1900
 2485SOL    HW1 8354   5.558   5.538   2.053 -0.0178 -0.6535  0.7775
 2485SOL    HW2 8355   5.396   5.527   2.039  0.1122 -0.1677 -1.2988
 2486SOL     OW 8356   2.002   5.408   3.138  0.5330 -0.2763  0.1892
 2486SOL    HW1 8357   2.029   5.356   3.219 -0.9395 -1.7278 -0.2106
 2486SOL    HW2 8358   1.949   5.350   3.077 -1.2820  1.6997 -0.2387
 2487SOL     OW 8359   2.822   6.976   0.664 -0.1834 -0.4115 -0.5576
 2487SOL    HW1 8360   2.795   7.018   0.750 -0.1823 -1.3084 -0.1025
 2487SOL    HW2 8361   2.769   7.015   0.589  0.1911  0.7483 -0.2247
 2488SOL     OW 8362   2.844   4.411   0.136 -0.1018 -0.2526 -0.9104
 2488SOL    HW1 8363   2.820   4.505   0.112 -0.1982  0.0922  0.4395
 2488SOL    HW2 8364   2.942   4.397   0.124  0.5758  1.0983  2.0093
 2489SOL     OW 8365   2.371   5.348   4.799  0.2910  0.2735  0.7248
 2489SOL    HW1 8366   2.431   5.426   4.820  0.9340 -0.2761  0.9543
 2489SOL    HW2 8367   2.427   5.267   4.782 -0.0356  0.6979 -3.6974
 2490SOL     OW 8368   6.984   3.010   1.363 -0.1738  0.1943  0.4145
 2490SOL    HW1 8369   7.045   2.934   1.385 -0.1396  0.7106  2.2123
 2490SOL    HW2 8370   6.905   2.975   1.312  0.0844 -0.9559  0.7792
 2491SOL     OW 8371   4.069   6.091   1.480 -0.0133  0.4003  0.2422
 2491SOL    HW1 8372   4.107   6.090   1.388 -0.4196  0.3521  0.0710
 2491SOL    HW2 8373   3.998   6.020   1.488  0.1778  0.2537  0.6590
 2492SOL     OW 8374   3.564   4.370   5.781 -0.1534 -0.1791 -0.4186
 2492SOL    HW1 8375   3.522   4.280   5.769  3.0739 -1.8058 -0.4455
 2492SOL    HW2 8376   3.505   4.426   5.840 -1.5166 -2.8594  0.9604
 2493SOL     OW 8377   6.863   0.938   3.043  0.2039 -0.4885  0.1835
 2493SOL    HW1 8378   6.891   1.033   3.026 -0.4623 -0.0202  1.5508
 2493SOL    HW2 8379   6.944   0.881   3.052  0.6102 -0.2988 -1.8118
 2494SOL     OW 8380   4.983   3.496   2.145 -0.4053 -0.3584 -0.2222
 2494SOL    HW1 8381   4.942   3.505   2.236 -2.2706 -1.5030 -0.8726
 2494SOL    HW2 8382   4.954   3.409   2.104  0.6061  0.0026 -1.8127
 2495SOL     OW 8383   4.407   1.687   5.372 -0.2206 -0.1938  0.0324
 2495SOL    HW1 8384   4.354   1.764   5.407 -0.2254  0.1194 -0.6535
 2495SOL    HW2 8385   4.476   1.720   5.308  1.5375 -0.4569  1.6640
 2496SOL     OW 8386   6.974   5.314   6.534  0.1832  0.2490  0.1822
 2496SOL    HW1 8387   6.953   5.232   6.588  0.3865  0.5153  0.6743
 2496SOL    HW2 8388   6.892   5.342   6.483  0.3171 -0.6673 -0.5494
 2497SOL     OW 8389   6.539   1.909   6.577 -0.0614 -0.5240  0.2310
 2497SOL    HW1 8390   6.499   1.912   6.485 -0.6446 -3.0991  0.3259
 2497SOL    HW2 8391   6.468   1.928   6.645 -0.1192 -0.6896  0.2189
 2498SOL     OW 8392   1.948   2.449   3.651  0.2117 -0.2239  0.4224
 2498SOL    HW1 8393   1.954   2.419   3.746 -0.9691  0.8563  0.8716
 2498SOL    HW2 8394   1.952   2.369   3.591  0.0288 -1.0126  1.4164
 2499SOL     OW 8395   4.633   0.801   5.222  0.0854 -0.5391 -0.5612
 2499SOL    HW1 8396   4.599   0.715   5.185 -1.0859 -0.2510 -0.2177
 2499SOL    HW2 8397   4.731   0.795   5.239 -0.2856 -2.4265  1.1935
 2500SOL     OW 8398   4.140   1.195   6.926  0.3572  0.4199 -0.7261
 2500SOL    HW1 8399   4.193   1.252   6.989 -1.8955 -0.7775  2.5042
 2500SOL    HW2 8400   4.129   1.103   6.966 -2.7767  0.1613 -1.9189
 2501SOL     OW 8401   0.496   5.601   1.401 -0.0075  0.5471 -0.4301
 2501SOL    HW1 8402   0.489   5.690   1.355 -1.0007  0.2640 -0.8485
 2501SOL    HW2 8403   0.419   5.589   1.463 -0.0244 -0.1273 -0.5718
 2502SOL     OW 8404   2.562   0.198   2.197  0.3994  0.0502  0.6427
 2502SOL    HW1 8405   2.532   0.293   2.189 -0.5040 -0.2423  0.4047
 2502SOL    HW2 8406   2.659   0.191   2.173 -0.1100  0.5447 -1.7568
 2503SOL     OW 8407   1.874   5.211   5.595  0.2515 -0.4904 -0.0456
 2503SOL    HW1 8408   1.810   5.220   5.518  1.6460  1.3036 -1.0851
 2503SOL    HW2 8409   1.948   5.278   5.584  1.4012 -1.3536  2.0005
 2504SOL     OW 8410   1.085   5.054   4.093  0.0519 -0.2166 -0.1167
 2504SOL    HW1 8411   1.003   5.082   4.042  0.0857  1.3534  0.6511
 2504SOL    HW2 8412   1.075   5.079   4.189  2.1034  1.5261 -0.2981
 2505SOL     OW 8413   2.994   5.103   5.093 -0.1519  0.4069  0.0714
 2505SOL    HW1 8414   3.050   5.164   5.037  3.6659 -0.6477  2.4485
 2505SOL    HW2 8415   3.003   5.009   5.060 -0.4344  0.2019  0.5655
 2506SOL     OW 8416   6.736   3.732   6.188  0.0761  0.7817  0.0189
 2506SOL    HW1 8417   6.773   3.670   6.258  1.9916  1.6495 -0.1708
 2506SOL    HW2 8418   6.700   3.814   6.232 -0.9853  0.2799  0.1363
 2507SOL     OW 8419   0.524   5.343   0.537 -0.3847  0.1084 -0.3107
 2507SOL    HW1 8420   0.599   5.276   0.535 -0.4502  0.0414 -1.3819
 2507SOL    HW2 8421   0.559   5.431   0.504 -0.3924  0.5056  0.7289
 2508SOL     OW 8422   2.236   2.724   2.780 -0.2792 -0.7110 -0.5699
 2508SOL    HW1 8423   2.213   2.816   2.812  1.6474 -0.1087 -0.7776
 2508SOL    HW2 8424   2.179   2.657   2.828 -1.7541  0.5634 -0.4415
 2509SOL     OW 8425   6.563   1.383   3.569  0.3742  0.9731 -0.2857
 2509SOL    HW1 8426   6.565   1.287   3.540  1.0442  1.3059 -1.4064
 2509SOL    HW2 8427   6.477   1.425   3.540  0.8208  1.1630 -1.3957
 2510SOL     OW 8428   3.623   6.063   0.264  0.3019  0.3359 -0.0188
 2510SOL    HW1 8429   3.655   5.993   0.200 -0.1269  0.5856 -0.5081
 2510SOL    HW2 8430   3.693   6.134   0.272  1.1220 -0.5473  1.1343
 2511SOL     OW 8431   0.904   1.073   3.897 -0.4578  1.0484 -0.0128
 2511SOL    HW1 8432   0.951   1.158   3.873 -0.1268  0.1415 -3.0616
 2511SOL    HW2 8433   0.810   1.075   3.861  0.0219 -0.3697 -1.5066
 2512SOL     OW 8434   5.029   4.416   5.328  0.3633 -0.0579 -0.6573
 2512SOL    HW1 8435   4.994   4.506   5.355  0.1486 -0.2840 -0.1651
 2512SOL    HW2 8436   5.070   4.371   5.408  0.4970 -0.3821 -0.9061
 2513SOL     OW 8437   1.152   2.478   6.882 -0.0132 -0.3548 -0.1692
 2513SOL    HW1 8438   1.052   2.480   6.874 -0.2568  0.2115  2.4150
 2513SOL    HW2 8439   1.178   2.414   6.954  1.2097  2.5214  2.1090
 2514SOL     OW 8440   6.712   6.630   5.375  0.0873  0.0924 -0.1587
 2514SOL    HW1 8441   6.693   6.728   5.370  0.4536  0.2099  0.5885
 2514SOL    HW2 8442   6.700   6.589   5.285  0.7097  0.9629 -0.6565
 2515SOL     OW 8443   1.489   4.663   0.160  0.1387  0.2622  0.0673
 2515SOL    HW1 8444   1.535   4.752   0.153  0.4294  0.1515  0.4933
 2515SOL    HW2 8445   1.486   4.619   0.071  1.4404 -0.0139  0.1364
 2516SOL     OW 8446   4.971   1.200   4.698  0.0495 -0.2438 -0.4650
 2516SOL    HW1 8447   4.964   1.182   4.796  0.7744  0.7352 -0.2188
 2516SOL    HW2 8448   5.030   1.131   4.656  0.9109  0.1632  0.0530
 2517SOL     OW 8449   4.255   6.122   1.678  0.3001 -0.7195  0.2075
 2517SOL    HW1 8450   4.176   6.115   1.617 -0.7254  1.0756  1.2436
 2517SOL    HW2 8451   4.228   6.093   1.770  0.4124  1.2185  0.8902
 2518SOL     OW 8452   2.374   1.600   6.538 -0.7091  0.1649 -0.2222
 2518SOL    HW1 8453   2.436   1.582   6.461 -0.4245 -0.3409  0.1183
 2518SOL    HW2 8454   2.428   1.627   6.618 -0.7813 -1.8154  0.5319
 2519SOL     OW 8455   5.281   3.871   4.277  0.4111  0.1443 -0.4541
 2519SOL    HW1 8456   5.241   3.779   4.280  0.3646  0.1695 -0.2975
 2519SOL    HW2 8457   5.315   3.896   4.368 -0.5846  0.7239 -0.2243
 2520SOL     OW 8458   2.409   3.572   1.649  0.8513  0.2576 -0.0130
 2520SOL    HW1 8459   2.422   3.667   1.676  1.3641 -0.1290  1.2067
 2520SOL    HW2 8460   2.379   3.519   1.728 -1.2027 -0.2768 -1.1024
 2521SOL     OW 8461   6.622   0.655   5.627 -0.0124  0.3529 -0.2562
 2521SOL    HW1 8462   6.587   0.625   5.538  0.4860  1.0910 -0.7057
 2521SOL    HW2 8463   6.547   0.697   5.678 -0.9247 -2.2211  0.6898
 2522SOL     OW 8464   1.606   5.786   4.813 -0.6447  0.0497 -0.8177
 2522SOL    HW1 8465   1.545   5.846   4.762 -1.1687 -0.6154 -0.9874
 2522SOL    HW2 8466   1.554   5.708   4.849  0.0449 -0.3777 -0.7275
 2523SOL     OW 8467   6.952   2.245   5.811  0.2405  0.0878  0.1588
 2523SOL    HW1 8468   6.895   2.164   5.797 -0.8567  0.7112  0.8182
 2523SOL    HW2 8469   7.015   2.255   5.734  1.0347 -1.8653  0.5002
 2524SOL     OW 8470   1.838   5.320   2.927  0.3704  0.1770 -0.4676
 2524SOL    HW1 8471   1.888   5.385   2.870  2.3293 -1.5834 -0.8639
 2524SOL    HW2 8472   1.786   5.257   2.868  0.6341 -0.2744 -0.2229
 2525SOL     OW 8473   0.319   5.413   5.379  0.0042 -0.3516  0.1229
 2525SOL    HW1 8474   0.402   5.402   5.434 -0.7140 -1.4555  1.0299
 2525SOL    HW2 8475   0.302   5.510   5.364  0.1796  0.0097  1.9610
 2526SOL     OW 8476   6.944   3.959   2.551  0.4259  0.9837  0.3055
 2526SOL    HW1 8477   6.935   3.947   2.650 -3.2949 -0.5517 -0.0593
 2526SOL    HW2 8478   6.960   3.871   2.508  0.3311  1.3873 -0.5768
 2527SOL     OW 8479   6.396   4.356   4.514 -0.4485 -0.0828 -0.6881
 2527SOL    HW1 8480   6.465   4.326   4.448 -0.3622 -0.2588 -0.5190
 2527SOL    HW2 8481   6.341   4.429   4.474  2.9142  3.6323  0.7715
 2528SOL     OW 8482   0.438   5.861   1.312  0.2018  0.9861  0.7671
 2528SOL    HW1 8483   0.509   5.931   1.312  0.7877  0.4476  2.8193
 2528SOL    HW2 8484   0.348   5.904   1.305  0.6207  1.7802 -0.0158
 2529SOL     OW 8485   6.368   5.427   3.599  0.6827  0.1345  0.5096
 2529SOL    HW1 8486   6.445   5.394   3.654  0.2669 -0.0645  0.9819
 2529SOL    HW2 8487   6.401   5.495   3.534  1.4336 -0.6741  0.0201
 2530SOL     OW 8488   1.784   6.801   3.265  0.0561 -0.3880  0.0102
 2530SOL    HW1 8489   1.844   6.807   3.345 -0.2247  1.5711  0.1449
 2530SOL    HW2 8490   1.838   6.817   3.182  0.0029 -0.2252  0.0050
 2531SOL     OW 8491   1.135   1.087   6.534 -0.1359 -0.2553  0.0778
 2531SOL    HW1 8492   1.059   1.137   6.576 -0.8792 -0.5099 -0.9328
 2531SOL    HW2 8493   1.105   1.047   6.447  1.4232  0.4176 -0.8085
 2532SOL     OW 8494   1.109   4.791   6.714 -0.3742 -0.6735  0.0317
 2532SOL    HW1 8495   1.156   4.793   6.802  1.1653  1.0449 -0.7661
 2532SOL    HW2 8496   1.174   4.809   6.640 -1.8416 -0.7895 -1.3527
 2533SOL     OW 8497   4.290   0.432   3.929 -0.1616  0.0046  0.0519
 2533SOL    HW1 8498   4.242   0.503   3.980  0.4517 -0.1036  0.8036
 2533SOL    HW2 8499   4.385   0.427   3.961  0.7436  1.0778 -2.2268
 2534SOL     OW 8500   2.091   1.665   2.825  0.0101 -0.2590 -0.2693
 2534SOL    HW1 8501   2.154   1.588   2.829  0.7986  0.2280 -2.2388
 2534SOL    HW2 8502   2.142   1.750   2.813 -0.8208  0.6645  2.2041
 2535SOL     OW 8503   1.488   1.252   3.624 -0.2968 -0.0993 -0.5966
 2535SOL    HW1 8504   1.430   1.291   3.696 -0.4628 -1.2929 -0.0596
 2535SOL    HW2 8505   1.578   1.231   3.661  0.0832  0.5908 -1.1128
 2536SOL     OW 8506   5.707   1.794   5.798 -0.3011 -0.7724 -0.2254
 2536SOL    HW1 8507   5.804   1.818   5.792  0.0029 -2.0673 -1.0003
 2536SOL    HW2 8508   5.659   1.861   5.856  0.9026  0.2878 -0.4076
 2537SOL     OW 8509   5.081   5.777   2.146  0.0507 -0.3142 -0.4577
 2537SOL    HW1 8510   5.138   5.697   2.163  1.1719  0.7040  0.8660
 2537SOL    HW2 8511   5.079   5.797   2.048 -0.2027 -1.9022 -0.7996
 2538SOL     OW 8512   2.828   0.275   4.528  0.0215 -0.1336 -0.0229
 2538SOL    HW1 8513   2.880   0.286   4.443  0.7268  0.3622  0.4619
 2538SOL    HW2 8514   2.781   0.186   4.527 -1.7743  0.7619 -1.8695
 2539SOL     OW 8515   4.944   5.696   4.497  0.0743 -0.1205 -0.0025
 2539SOL    HW1 8516   5.020   5.731   4.551  0.8324  2.0106 -2.2324
 2539SOL    HW2 8517   4.901   5.772   4.448 -1.0321 -1.7859 -1.7617
 2540SOL     OW 8518   5.680   6.974   1.855 -0.4752  0.0750  0.3921
 2540SOL    HW1 8519   5.739   6.935   1.926  1.4826 -1.6167 -1.9960
 2540SOL    HW2 8520   5.655   7.068   1.880  1.4778  0.0987  2.5282
 2541SOL     OW 8521   3.209   0.404   5.268  0.1138  0.0751  0.7206
 2541SOL    HW1 8522   3.211   0.314   5.310  2.1945 -0.7753 -0.9664
 2541SOL    HW2 8523   3.226   0.474   5.337 -3.1703 -0.5567  2.3729
 2542SOL     OW 8524   2.924   1.325   6.355 -0.6753 -0.5187  0.1442
 2542SOL    HW1 8525   2.975   1.244   6.384 -1.5538 -1.7046 -1.4393
 2542SOL    HW2 8526   2.881   1.307   6.266 -3.6444  0.4758  1.2627
 2543SOL     OW 8527   2.567   1.526   2.979  0.3573  0.1022 -0.3419
 2543SOL    HW1 8528   2.506   1.605   2.968  1.6391  0.9119 -2.0224
 2543SOL    HW2 8529   2.662   1.556   2.970  0.9488 -1.4203  0.4964
 2544SOL     OW 8530   5.756   5.410   2.420  0.1331  0.0157  0.2811
 2544SOL    HW1 8531   5.720   5.496   2.456  3.0148  0.6390  2.0017
 2544SOL    HW2 8532   5.681   5.348   2.401 -1.9118  1.9360  1.5922
 2545SOL     OW 8533   6.675   0.987   0.877 -0.9080  0.5867 -0.1408
 2545SOL    HW1 8534   6.619   1.064   0.906 -3.2248  0.3497 -3.4161
 2545SOL    HW2 8535   6.643   0.904   0.923  1.7569  1.4195  3.5861
 2546SOL     OW 8536   0.328   5.122   0.853 -0.1329  0.0921  0.0652
 2546SOL    HW1 8537   0.375   5.045   0.808 -2.7455 -0.7293 -1.4929
 2546SOL    HW2 8538   0.372   5.208   0.827  0.1315 -0.5798 -1.8698
 2547SOL     OW 8539   6.297   4.166   0.317  0.3427 -0.3948  0.2493
 2547SOL    HW1 8540   6.226   4.205   0.374  1.0975  0.5028  0.5925
 2547SOL    HW2 8541   6.345   4.094   0.368  1.6738  1.0790  1.1578
 2548SOL     OW 8542   2.104   6.749   6.055 -0.2750 -0.3185  0.0845
 2548SOL    HW1 8543   2.072   6.676   5.994  1.2491 -0.0980 -1.0584
 2548SOL    HW2 8544   2.076   6.729   6.149 -1.3760 -1.4665 -0.4526
 2549SOL     OW 8545   2.528   2.009   3.019  0.1343  0.1232 -0.0062
 2549SOL    HW1 8546   2.589   2.007   3.098  1.6579  1.1264 -1.1021
 2549SOL    HW2 8547   2.490   2.101   3.009 -1.1252 -0.3347  0.2997
 2550SOL     OW 8548   5.978   6.971   5.621  0.1250  0.3038  0.1751
 2550SOL    HW1 8549   5.919   6.891   5.630  0.1850  0.4682  2.7679
 2550SOL    HW2 8550   6.067   6.943   5.585  0.2583 -0.8726  1.3525
 2551SOL     OW 8551   4.294   6.453   5.646  0.0756  0.0052 -0.7444
 2551SOL    HW1 8552   4.284   6.360   5.682 -1.1830  0.6509  0.7145
 2551SOL    HW2 8553   4.276   6.453   5.548 -0.5139 -1.1994 -0.6611
 2552SOL     OW 8554   3.670   5.815   1.435 -0.2048 -0.2081 -0.3083
 2552SOL    HW1 8555   3.723   5.755   1.375  0.1183 -1.1280  0.8487
 2552SOL    HW2 8556   3.580   5.773   1.451 -0.1018 -0.2247  0.2361
 2553SOL     OW 8557   3.551   2.801   6.656  0.3799  0.6073 -0.5283
 2553SOL    HW1 8558   3.504   2.873   6.604 -1.4994  0.1124  0.3685
 2553SOL    HW2 8559   3.516   2.712   6.628 -0.1351  0.2890  1.0265
 2554SOL     OW 8560   2.056   5.944   4.094  0.0559 -0.2247 -0.1272
 2554SOL    HW1 8561   2.098   5.969   4.181 -0.7634  0.3116  0.1286
 2554SOL    HW2 8562   2.010   5.856   4.104  0.5567 -0.5028 -0.2254
 2555SOL     OW 8563   5.327   6.425   6.904 -0.1499 -0.3519  0.4403
 2555SOL    HW1 8564   5.297   6.392   6.815 -0.7822  0.5651  0.3025
 2555SOL    HW2 8565   5.419   6.464   6.896 -1.1443  2.0050 -0.3924
 2556SOL     OW 8566   2.922   5.571   1.275  0.0947 -0.0128 -0.2739
 2556SOL    HW1 8567   2.895   5.552   1.181  0.0172 -1.1961 -0.0299
 2556SOL    HW2 8568   2.853   5.535   1.338  0.6663 -0.1998  0.2619
 2557SOL     OW 8569   2.979   1.303   1.550 -0.5741 -0.0653 -0.0601
 2557SOL    HW1 8570   2.892   1.298   1.599 -0.5248  0.3428  0.0727
 2557SOL    HW2 8571   3.000   1.214   1.510 -1.1967 -0.0907 -0.3413
 2558SOL     OW 8572   4.549   6.346   6.931  0.4205 -0.2488  0.4887
 2558SOL    HW1 8573   4.636   6.368   6.974  1.3791  1.4055 -2.0804
 2558SOL    HW2 8574   4.565   6.291   6.849 -1.0578 -0.8318  0.5673
 2559SOL     OW 8575   1.062   4.778   4.028  0.0461  0.4120 -0.0090
 2559SOL    HW1 8576   0.964   4.796   4.042 -0.0491  1.4542 -1.7553
 2559SOL    HW2 8577   1.115   4.857   4.058  0.3148  0.1522  0.2104
 2560SOL     OW 8578   4.735   1.370   3.802  0.0826  0.2815  0.3034
 2560SOL    HW1 8579   4.752   1.287   3.855  0.3822 -0.9947 -1.6993
 2560SOL    HW2 8580   4.682   1.348   3.721  0.1312  2.0813 -0.2665
 2561SOL     OW 8581   3.624   0.852   5.351 -0.1583  0.3223 -0.0918
 2561SOL    HW1 8582   3.648   0.779   5.287 -3.5336 -2.7616  1.8466
 2561SOL    HW2 8583   3.702   0.870   5.411  0.2329 -3.2051  0.6789
 2562SOL     OW 8584   3.862   1.279   4.009  0.3067 -0.6200 -0.2217
 2562SOL    HW1 8585   3.887   1.191   3.969 -0.8824 -1.2369  0.3370
 2562SOL    HW2 8586   3.838   1.266   4.105 -0.9171  0.1223 -0.4007
 2563SOL     OW 8587   1.028   3.037   5.558  0.5288 -0.1754 -0.9828
 2563SOL    HW1 8588   0.976   3.022   5.474 -0.5650 -1.5902 -0.0911
 2563SOL    HW2 8589   1.118   2.994   5.548  0.6113  0.1342 -1.6236
 2564SOL     OW 8590   0.465   2.205   0.871 -0.1940  0.3976 -0.3078
 2564SOL    HW1 8591   0.533   2.131   0.876  0.1317  0.5797 -1.7588
 2564SOL    HW2 8592   0.395   2.190   0.941  0.8288 -0.2990  0.6024
 2565SOL     OW 8593   6.626   6.299   6.860  0.0027 -0.1003 -0.3367
 2565SOL    HW1 8594   6.706   6.356   6.880  0.4585 -0.2352 -1.7163
 2565SOL    HW2 8595   6.549   6.358   6.834 -0.5008  0.0559  1.3391
 2566SOL     OW 8596   1.917   0.144   2.591 -0.0190  0.7844  0.0637
 2566SOL    HW1 8597   1.869   0.204   2.527  1.0776  0.0288 -1.5365
 2566SOL    HW2 8598   1.924   0.052   2.551  0.0297  0.0622  1.6275
 2567SOL     OW 8599   0.839   1.575   0.810  0.5208 -0.3622  0.1064
 2567SOL    HW1 8600   0.889   1.517   0.873  0.5952 -0.6008 -0.1681
 2567SOL    HW2 8601   0.850   1.540   0.716  1.1529  0.4997 -0.1546
 2568SOL     OW 8602   2.124   5.947   1.609 -0.2728  0.4318 -0.1870
 2568SOL    HW1 8603   2.116   5.928   1.707  1.5185 -1.2079 -0.3127
 2568SOL    HW2 8604   2.207   6.000   1.592  0.2486 -0.6131 -0.9583
 2569SOL     OW 8605   3.083   2.100   1.453  0.4188 -0.1533 -0.1215
 2569SOL    HW1 8606   3.142   2.057   1.522 -0.8625 -0.3443  0.9059
 2569SOL    HW2 8607   2.988   2.074   1.470  0.1276 -0.9965 -2.5639
 2570SOL     OW 8608   5.988   5.993   6.405 -0.6040 -0.0915  0.1087
 2570SOL    HW1 8609   5.957   6.084   6.379  0.4544  0.0175 -0.8973
 2570SOL    HW2 8610   5.975   5.930   6.328  0.8127 -0.2270 -0.0503
 2571SOL     OW 8611   4.322   2.432   5.793  0.0388 -0.2298  0.0841
 2571SOL    HW1 8612   4.419   2.434   5.771  0.3854  0.2751  1.5537
 2571SOL    HW2 8613   4.273   2.493   5.732  0.4764 -1.2503 -1.3348
 2572SOL     OW 8614   2.218   5.671   0.663  0.4599  0.2003  0.9236
 2572SOL    HW1 8615   2.186   5.576   0.662  2.0070 -0.3397 -0.1414
 2572SOL    HW2 8616   2.312   5.674   0.695  0.5371  1.3488  0.6213
 2573SOL     OW 8617   5.922   3.471   5.187 -0.2825  0.3396  0.1894
 2573SOL    HW1 8618   5.871   3.386   5.198 -2.3569  1.5705  0.6530
 2573SOL    HW2 8619   5.887   3.521   5.108  1.1144  0.6596 -0.2624
 2574SOL     OW 8620   0.715   4.734   0.494  0.5159 -0.5715 -0.3861
 2574SOL    HW1 8621   0.703   4.645   0.539 -2.1996 -0.8765 -1.5317
 2574SOL    HW2 8622   0.739   4.719   0.398 -0.2515 -0.0691 -0.6552
 2575SOL     OW 8623   5.619   4.612   5.662 -0.2019 -0.4323  0.5755
 2575SOL    HW1 8624   5.610   4.574   5.754  0.8186  1.0816  1.3377
 2575SOL    HW2 8625   5.598   4.709   5.663  0.4980 -0.2441 -0.6512
 2576SOL     OW 8626   2.262   6.956   3.286 -0.6525 -0.0992  0.1777
 2576SOL    HW1 8627   2.345   7.012   3.292 -0.5788 -0.2125  0.2032
 2576SOL    HW2 8628   2.285   6.865   3.254 -0.7536 -0.1633  0.2872
 2577SOL     OW 8629   3.337   0.376   2.447 -0.0305  0.6446 -0.0064
 2577SOL    HW1 8630   3.315   0.390   2.350 -1.2649 -1.3756 -0.0869
 2577SOL    HW2 8631   3.430   0.340   2.455 -0.0024  0.6047 -0.4791
 2578SOL     OW 8632   3.878   2.068   3.900  0.2693  0.0891  0.2699
 2578SOL    HW1 8633   3.835   2.050   3.811 -0.5738 -1.6411  0.9780
 2578SOL    HW2 8634   3.975   2.087   3.887 -0.2086  1.8346 -1.1801
 2579SOL     OW 8635   6.916   1.979   6.681  0.0432  0.1619  0.1737
 2579SOL    HW1 8636   6.910   1.883   6.708 -3.7965  0.3661  0.6586
 2579SOL    HW2 8637   6.866   1.993   6.596 -0.4738  1.9022  0.7225
 2580SOL     OW 8638   1.653   2.464   5.343  1.2425  0.4621  0.5981
 2580SOL    HW1 8639   1.732   2.511   5.304  1.4324 -0.4274 -0.1020
 2580SOL    HW2 8640   1.664   2.365   5.333 -0.3784  0.3497 -0.3272
 2581SOL     OW 8641   5.798   5.707   5.176 -0.3066 -0.3864  0.1679
 2581SOL    HW1 8642   5.834   5.631   5.122  0.1378  0.6155 -1.0088
 2581SOL    HW2 8643   5.875   5.758   5.216 -0.2885  1.5938 -2.1116
 2582SOL     OW 8644   0.785   5.854   2.011  0.6839  0.7712 -0.0876
 2582SOL    HW1 8645   0.691   5.847   1.978  0.3770 -2.0541  1.0934
 2582SOL    HW2 8646   0.846   5.873   1.934 -0.6025  0.2211 -1.2880
 2583SOL     OW 8647   0.567   0.077   6.016  0.3254  0.3133  0.2048
 2583SOL    HW1 8648   0.642   0.128   6.058 -0.0341  1.0095  0.0090
 2583SOL    HW2 8649   0.573  -0.019   6.043  1.2802  0.3664  0.1995
 2584SOL     OW 8650   6.669   0.524   0.890  0.0390 -0.3916 -0.5477
 2584SOL    HW1 8651   6.658   0.445   0.951  0.6655  1.2168  1.7696
 2584SOL    HW2 8652   6.687   0.492   0.797 -0.0616 -2.9654  0.2442
 2585SOL     OW 8653   3.247   6.750   0.162 -0.6771 -0.0628 -0.1233
 2585SOL    HW1 8654   3.259   6.655   0.188 -0.1376 -0.0008 -0.1257
 2585SOL    HW2 8655   3.337   6.791   0.143 -0.6934  0.9958  1.8572
 2586SOL     OW 8656   5.882   0.924   3.770  0.3917  0.1397 -0.5561
 2586SOL    HW1 8657   5.918   0.874   3.691  0.8781  0.8428 -0.7883
 2586SOL    HW2 8658   5.801   0.877   3.805  1.3585 -1.3508 -0.1843
 2587SOL     OW 8659   6.773   4.923   4.541 -0.0893 -0.2845 -0.2905
 2587SOL    HW1 8660   6.742   4.851   4.604 -3.1117  1.6750  0.6819
 2587SOL    HW2 8661   6.800   5.003   4.593 -1.8494  1.0918 -1.3853
 2588SOL     OW 8662   4.888   5.844   0.182  0.0308 -0.0048  0.5177
 2588SOL    HW1 8663   4.852   5.839   0.089 -0.2219  0.2352  0.6020
 2588SOL    HW2 8664   4.957   5.916   0.186 -1.2314  1.2269  0.9324
 2589SOL     OW 8665   6.454   0.958   5.297  0.2696 -0.0215  0.0910
 2589SOL    HW1 8666   6.458   1.010   5.212  1.1173  0.2255  0.2778
 2589SOL    HW2 8667   6.518   0.881   5.293 -0.7160 -0.8610 -0.0434
 2590SOL     OW 8668   3.225   5.126   3.894  0.0822  0.5149  0.7735
 2590SOL    HW1 8669   3.238   5.175   3.808  0.5153 -0.7004  0.1128
 2590SOL    HW2 8670   3.133   5.086   3.895  0.6476 -0.8932  0.0758
 2591SOL     OW 8671   5.589   4.877   0.947 -0.0980 -0.2493 -0.4437
 2591SOL    HW1 8672   5.565   4.904   1.040  0.4702  0.4761 -0.5007
 2591SOL    HW2 8673   5.675   4.921   0.920 -0.3630 -0.2843 -1.3852
 2592SOL     OW 8674   3.647   4.356   1.478 -0.2365  0.4877 -0.7226
 2592SOL    HW1 8675   3.587   4.360   1.398 -0.4404  2.6246 -0.5193
 2592SOL    HW2 8676   3.740   4.335   1.448 -1.0859 -3.8162 -0.9542
 2593SOL     OW 8677   3.833   5.148   3.069  0.3108 -0.2165 -0.0211
 2593SOL    HW1 8678   3.844   5.223   3.004  2.0092  0.8151  1.3811
 2593SOL    HW2 8679   3.760   5.170   3.134 -0.1078 -0.4113 -0.4162
 2594SOL     OW 8680   0.393   3.049   6.935  0.2988  0.2044  0.3101
 2594SOL    HW1 8681   0.441   2.967   6.903  0.2652  0.3893 -0.2333
 2594SOL    HW2 8682   0.299   3.026   6.960  0.2314  0.1119 -0.0243
 2595SOL     OW 8683   5.407   6.683   5.471  0.0954  0.2999 -0.5257
 2595SOL    HW1 8684   5.479   6.663   5.538  0.9950  1.9558 -0.9306
 2595SOL    HW2 8685   5.446   6.680   5.379 -0.0799  2.1682 -0.6978
 2596SOL     OW 8686   4.290   0.834   2.999  0.0374 -0.9071  0.3276
 2596SOL    HW1 8687   4.229   0.755   2.999 -0.1402 -0.7784 -0.7415
 2596SOL    HW2 8688   4.352   0.828   3.077 -0.3970 -1.7730  0.6131
 2597SOL     OW 8689   3.547   3.388   1.371 -0.1331  0.3994 -0.1892
 2597SOL    HW1 8690   3.494   3.405   1.454  0.0089  0.9124 -0.2011
 2597SOL    HW2 8691   3.645   3.402   1.391 -0.0528  0.0158 -0.3101
 2598SOL     OW 8692   0.328   4.012   3.077 -0.0716  0.2986 -0.3010
 2598SOL    HW1 8693   0.261   4.052   3.140  0.4477  0.3928  0.1936
 2598SOL    HW2 8694   0.413   3.992   3.126  0.0196 -0.4989 -0.7590
 2599SOL     OW 8695   3.346   6.049   0.203 -0.3442  0.0027  0.7898
 2599SOL    HW1 8696   3.308   6.125   0.254 -1.1218 -0.3879  0.8084
 2599SOL    HW2 8697   3.438   6.027   0.237 -0.5407  0.2563  1.4773
 2600SOL     OW 8698   5.408   4.373   3.110 -0.2357 -0.1653  0.1243
 2600SOL    HW1 8699   5.325   4.414   3.150 -1.6081 -0.6097 -2.0681
 2600SOL    HW2 8700   5.407   4.274   3.126  1.2947  0.1013  2.3683
 2601SOL     OW 8701   2.144   3.309   5.945  0.2603  0.3272 -0.1629
 2601SOL    HW1 8702   2.091   3.234   5.906  0.4972  0.2516 -0.3386
 2601SOL    HW2 8703   2.196   3.354   5.872 -1.0290  1.6172 -0.3557
 2602SOL     OW 8704   6.990   3.548   4.816 -0.0028  0.0100  0.6814
 2602SOL    HW1 8705   7.069   3.608   4.801 -1.7720  2.3752  0.2231
 2602SOL    HW2 8706   6.988   3.477   4.745  1.0420  0.6745 -0.0356
 2603SOL     OW 8707   1.221   3.418   2.583  0.0933 -0.3461 -0.3803
 2603SOL    HW1 8708   1.307   3.450   2.624  0.1269 -1.6321  0.6359
 2603SOL    HW2 8709   1.205   3.465   2.497  0.4898  1.8309  0.6647
 2604SOL     OW 8710   0.055   0.225   2.266 -0.3277  0.2292 -0.3875
 2604SOL    HW1 8711  -0.013   0.201   2.336 -0.1987  0.8501 -0.0446
 2604SOL    HW2 8712   0.112   0.146   2.246 -0.5091 -0.0131  0.0528
 2605SOL     OW 8713   3.869   5.530   1.912 -0.4715 -0.6091 -0.4516
 2605SOL    HW1 8714   3.925   5.503   1.991 -0.3312 -0.6038 -0.5478
 2605SOL    HW2 8715   3.774   5.501   1.927 -0.5968  0.0504  0.0446
 2606SOL     OW 8716   0.059   5.803   2.117 -0.3158 -0.1488 -0.1255
 2606SOL    HW1 8717   0.125   5.739   2.077 -1.3043 -1.9500  1.0195
 2606SOL    HW2 8718   0.104   5.854   2.191 -0.2001 -1.5468  0.8206
 2607SOL     OW 8719   2.747   2.326   2.321  0.0906  0.6575 -0.1686
 2607SOL    HW1 8720   2.746   2.238   2.370 -1.4633  0.6876 -0.0735
 2607SOL    HW2 8721   2.823   2.328   2.257  0.3323 -0.6499  0.0420
 2608SOL     OW 8722   6.306   0.559   2.264 -0.7979  0.4062  0.0832
 2608SOL    HW1 8723   6.304   0.631   2.333 -1.2000  0.4488  0.0247
 2608SOL    HW2 8724   6.275   0.473   2.304 -2.5578  0.7688 -0.4427
 2609SOL     OW 8725   0.299   4.173   2.402  0.0502  0.0872  0.5931
 2609SOL    HW1 8726   0.241   4.138   2.329 -2.0587  2.1547  1.1569
 2609SOL    HW2 8727   0.273   4.132   2.489  0.8368 -0.4776  0.5727
 2610SOL     OW 8728   0.958   5.555   4.427  0.6770 -0.5744  0.2594
 2610SOL    HW1 8729   0.942   5.630   4.363 -1.0661  0.1444  1.4459
 2610SOL    HW2 8730   0.917   5.471   4.391  0.2069 -0.3079  0.1578
 2611SOL     OW 8731   4.968   4.926   0.636 -0.1816 -0.9044  0.1844
 2611SOL    HW1 8732   5.018   4.947   0.720 -0.5280  3.1352 -0.4010
 2611SOL    HW2 8733   4.872   4.911   0.657 -0.4148  0.8563  0.5333
 2612SOL     OW 8734   6.500   0.138   5.058  0.5017 -0.2651 -0.4935
 2612SOL    HW1 8735   6.565   0.062   5.069  1.2524  0.5953  1.5522
 2612SOL    HW2 8736   6.550   0.225   5.059 -0.6725  0.4892  2.4071
 2613SOL     OW 8737   0.790   0.089   1.504 -0.4222 -0.0046  0.7725
 2613SOL    HW1 8738   0.836   0.101   1.592  1.1290  0.2640 -0.0433
 2613SOL    HW2 8739   0.803   0.171   1.448  1.5174 -1.3777 -0.9602
 2614SOL     OW 8740   0.621   0.776   5.436 -0.1227 -0.4505  0.0269
 2614SOL    HW1 8741   0.630   0.868   5.399  2.1997 -0.8841 -0.6720
 2614SOL    HW2 8742   0.577   0.780   5.526 -0.1382  1.3267 -0.0345
 2615SOL     OW 8743   5.910   0.479   4.426  0.3819  0.1959 -0.1376
 2615SOL    HW1 8744   5.929   0.554   4.363  1.6657 -0.2971 -0.3807
 2615SOL    HW2 8745   5.946   0.502   4.517 -1.0288  0.6997  0.3165
 2616SOL     OW 8746   3.637   3.825   3.324 -0.2074  0.4932  0.3941
 2616SOL    HW1 8747   3.670   3.731   3.320  0.3067  0.6752  0.1791
 2616SOL    HW2 8748   3.594   3.849   3.237 -0.7341  0.3172  0.6058
 2617SOL     OW 8749   3.566   4.680   1.259  0.2841  0.0019  0.0613
 2617SOL    HW1 8750   3.504   4.759   1.260 -1.1689 -1.0998  1.3507
 2617SOL    HW2 8751   3.514   4.598   1.236  1.2368 -0.9684  1.2823
 2618SOL     OW 8752   0.846   1.061   2.550 -0.0674  0.1257 -0.0388
 2618SOL    HW1 8753   0.900   1.075   2.467  0.1035 -1.4150 -0.2264
 2618SOL    HW2 8754   0.904   1.023   2.622 -0.2954  1.1096  0.6942
 2619SOL     OW 8755   5.199   1.077   0.288 -0.0104  0.3246 -0.0842
 2619SOL    HW1 8756   5.213   0.983   0.321  2.6934  0.4710 -0.6160
 2619SOL    HW2 8757   5.205   1.140   0.365  3.0220  0.3903 -0.2648
 2620SOL     OW 8758   2.090   6.485   4.248  0.1226 -0.3521  0.7708
 2620SOL    HW1 8759   2.031   6.541   4.189  1.2226  0.2738  0.2416
 2620SOL    HW2 8760   2.156   6.544   4.295  1.4903 -1.2170 -0.0150
 2621SOL     OW 8761   0.121   4.090   4.434 -0.6985 -0.4761  0.5023
 2621SOL    HW1 8762   0.052   4.160   4.417 -0.2955 -0.1218  0.2985
 2621SOL    HW2 8763   0.143   4.088   4.532 -1.3881 -0.9663  0.6525
 2622SOL     OW 8764   1.403   4.212   3.978  0.3706 -0.2530 -0.0856
 2622SOL    HW1 8765   1.429   4.296   3.932 -0.7422 -0.7690 -1.7964
 2622SOL    HW2 8766   1.304   4.212   3.994  0.7841  0.2335  3.1511
 2623SOL     OW 8767   2.639   1.199   5.232  0.0230  0.3828 -0.3218
 2623SOL    HW1 8768   2.636   1.264   5.308 -0.9882 -0.4384  0.3771
 2623SOL    HW2 8769   2.613   1.245   5.148  2.0642  1.5364 -0.3788
 2624SOL     OW 8770   6.128   3.446   3.264 -0.3821 -0.1621 -0.1664
 2624SOL    HW1 8771   6.060   3.425   3.335  0.1743 -2.2128 -0.1769
 2624SOL    HW2 8772   6.219   3.447   3.305 -0.1360 -0.5220 -0.6935
 2625SOL     OW 8773   0.663   4.834   3.900 -0.1199 -0.1539  0.7559
 2625SOL    HW1 8774   0.597   4.777   3.948 -0.8053  2.1677  2.7794
 2625SOL    HW2 8775   0.702   4.784   3.823 -1.5077 -2.8625  1.7235
 2626SOL     OW 8776   1.285   6.536   2.807  0.0524 -0.4050  0.0042
 2626SOL    HW1 8777   1.378   6.520   2.838  1.0379  0.4509 -2.2898
 2626SOL    HW2 8778   1.254   6.456   2.754 -0.2722 -0.3986  0.1789
 2627SOL     OW 8779   1.422   1.807   6.394  0.2425  0.2842 -0.0540
 2627SOL    HW1 8780   1.431   1.789   6.296  1.1529  0.6351 -0.0449
 2627SOL    HW2 8781   1.335   1.855   6.411  0.1100  0.2826 -0.6994
 2628SOL     OW 8782   4.386   5.967   5.885 -0.6230 -0.3624  0.4010
 2628SOL    HW1 8783   4.384   5.871   5.913 -0.1667 -1.2779 -2.4026
 2628SOL    HW2 8784   4.296   6.008   5.899 -1.5773 -1.9711 -0.7257
 2629SOL     OW 8785   3.523   3.802   2.557 -0.7715 -0.0532  0.0406
 2629SOL    HW1 8786   3.536   3.713   2.512 -0.7666 -1.7700  3.1998
 2629SOL    HW2 8787   3.429   3.833   2.543 -0.5983 -0.1767 -1.6188
 2630SOL     OW 8788   3.751   1.681   3.190 -0.2885 -0.3348 -0.9581
 2630SOL    HW1 8789   3.847   1.696   3.168  0.3006 -2.2122  0.1931
 2630SOL    HW2 8790   3.698   1.677   3.105  0.3824  1.9986 -1.5638
 2631SOL     OW 8791   4.363   6.769   5.960 -0.5485  0.3920  0.0022
 2631SOL    HW1 8792   4.408   6.788   5.873 -0.2952  0.1582  0.0806
 2631SOL    HW2 8793   4.393   6.836   6.028 -1.8707  1.4851 -0.4620
 2632SOL     OW 8794   2.388   2.716   0.509  0.1045 -0.2194  0.3920
 2632SOL    HW1 8795   2.320   2.788   0.493  0.0277  0.0038  1.6272
 2632SOL    HW2 8796   2.479   2.757   0.518  0.2604 -0.4175 -0.2275
 2633SOL     OW 8797   4.860   1.478   0.503  0.1975  0.5518 -0.1416
 2633SOL    HW1 8798   4.794   1.530   0.448 -0.2896  0.9586  0.8021
 2633SOL    HW2 8799   4.952   1.506   0.478 -0.0299  1.0944 -0.3963
 2634SOL     OW 8800   1.305   4.229   2.300 -0.0536 -0.3811  0.6600
 2634SOL    HW1 8801   1.358   4.192   2.223 -0.5331  0.4682 -0.0969
 2634SOL    HW2 8802   1.349   4.312   2.334  0.5895 -1.1727  1.8450
 2635SOL     OW 8803   3.669   1.170   4.734 -0.1509 -0.3355  0.8270
 2635SOL    HW1 8804   3.592   1.231   4.712  0.9786  0.8934  0.1092
 2635SOL    HW2 8805   3.694   1.181   4.830  0.7743  1.2641  0.4458
 2636SOL     OW 8806   5.701   5.395   5.606  0.0869  0.1075 -0.0028
 2636SOL    HW1 8807   5.619   5.444   5.637 -0.0900  0.0892 -0.4442
 2636SOL    HW2 8808   5.676   5.328   5.537  0.4695  0.0607 -0.0980
 2637SOL     OW 8809   6.413   6.799   3.521 -0.0250 -0.4849 -0.1835
 2637SOL    HW1 8810   6.500   6.750   3.515  0.9464  1.1051  0.0701
 2637SOL    HW2 8811   6.401   6.853   3.437  2.3502  4.0581  2.0165
 2638SOL     OW 8812   0.172   0.947   1.757  0.6929 -0.0184 -0.6028
 2638SOL    HW1 8813   0.188   1.039   1.722  1.3699  0.3327  0.5985
 2638SOL    HW2 8814   0.104   0.950   1.830  0.0816 -0.6016 -1.1298
 2639SOL     OW 8815   5.554   0.505   2.248  0.0765  0.4645  0.6576
 2639SOL    HW1 8816   5.491   0.581   2.262  0.8657  0.8838  2.2425
 2639SOL    HW2 8817   5.510   0.434   2.194 -2.0557  0.3520  2.4469
 2640SOL     OW 8818   6.365   5.387   5.190  0.5022  0.1047 -0.2134
 2640SOL    HW1 8819   6.418   5.424   5.266 -0.4586  2.3211 -0.5626
 2640SOL    HW2 8820   6.284   5.340   5.226  2.3113 -2.9431  0.2988
 2641SOL     OW 8821   6.245   2.167   6.544  0.3270 -0.2793 -0.1654
 2641SOL    HW1 8822   6.235   2.078   6.500 -4.3477  0.6523 -1.4464
 2641SOL    HW2 8823   6.189   2.170   6.627  1.3752  1.1453  0.5372
 2642SOL     OW 8824   5.255   6.801   2.390  0.3839  0.4516 -0.5079
 2642SOL    HW1 8825   5.274   6.800   2.488 -1.0664  0.8833 -0.1949
 2642SOL    HW2 8826   5.242   6.896   2.360 -1.1817  0.2021 -0.6820
 2643SOL     OW 8827   4.500   6.032   2.666  0.1733 -0.2352  0.1546
 2643SOL    HW1 8828   4.422   6.092   2.683  0.1719 -0.6912  1.9650
 2643SOL    HW2 8829   4.585   6.083   2.685  0.1545 -0.9644  2.6090
 2644SOL     OW 8830   2.402   4.558   5.021 -0.1103 -0.5049  0.3456
 2644SOL    HW1 8831   2.470   4.605   5.077  0.1613  0.3459 -0.6508
 2644SOL    HW2 8832   2.332   4.623   4.992 -0.2504 -0.9196 -0.2805
 2645SOL     OW 8833   3.939   5.905   4.070  0.2667  0.2930 -0.2908
 2645SOL    HW1 8834   3.868   5.956   4.120  1.1437 -0.3186  1.6682
 2645SOL    HW2 8835   3.900   5.822   4.032 -0.4792  0.8932 -0.8706
 2646SOL     OW 8836   4.248   6.859   3.784  0.2186 -0.1567 -0.2020
 2646SOL    HW1 8837   4.336   6.821   3.756  0.0792 -1.0810  0.5690
 2646SOL    HW2 8838   4.217   6.813   3.867 -1.2889 -0.2796 -0.8135
 2647SOL     OW 8839   5.322   6.599   6.235 -0.5908 -0.2519  0.1728
 2647SOL    HW1 8840   5.411   6.625   6.198 -1.1129  0.9782 -0.2871
 2647SOL    HW2 8841   5.266   6.681   6.247 -2.0217 -1.0852 -0.4995
 2648SOL     OW 8842   5.128   0.972   5.028  0.1344  0.0685 -0.5875
 2648SOL    HW1 8843   5.215   1.000   4.988  0.5180  0.1888  0.3060
 2648SOL    HW2 8844   5.088   0.899   4.972  1.2624 -0.6517 -0.4930
 2649SOL     OW 8845   6.317   1.501   0.641 -0.3015  0.3035 -0.0713
 2649SOL    HW1 8846   6.355   1.439   0.572 -0.0802 -2.3386  2.2552
 2649SOL    HW2 8847   6.385   1.571   0.665 -0.2666  1.0675 -2.1903
 2650SOL     OW 8848   1.863   5.655   3.428  0.3399 -0.0819 -0.4967
 2650SOL    HW1 8849   1.791   5.607   3.377  1.2568 -0.6841 -1.2734
 2650SOL    HW2 8850   1.832   5.672   3.521 -1.0670  0.2796 -1.0010
 2651SOL     OW 8851   0.943   2.108   0.489  0.0033  0.1567 -0.4225
 2651SOL    HW1 8852   0.982   2.152   0.408 -1.0770  1.1209 -0.4514
 2651SOL    HW2 8853   1.011   2.107   0.562  0.8576 -0.3627 -1.2113
 2652SOL     OW 8854   4.017   3.716   2.919  0.1405  0.0151  0.4430
 2652SOL    HW1 8855   4.069   3.704   2.834 -0.9812  0.3830 -0.3064
 2652SOL    HW2 8856   4.049   3.649   2.987 -1.1587 -2.5344 -1.3137
 2653SOL     OW 8857   5.675   5.791   6.118 -0.2960 -0.2756  0.3723
 2653SOL    HW1 8858   5.768   5.805   6.153 -0.7547  0.0171  1.4998
 2653SOL    HW2 8859   5.610   5.792   6.194 -1.4022  1.0612 -0.5336
 2654SOL     OW 8860   5.867   2.663   5.824 -0.2925  0.2901  0.3668
 2654SOL    HW1 8861   5.910   2.618   5.902  0.2850  1.2611  0.6396
 2654SOL    HW2 8862   5.833   2.595   5.759 -1.6003 -0.5671  1.8765
 2655SOL     OW 8863   4.511   5.597   4.358 -0.1759  0.1981  0.4026
 2655SOL    HW1 8864   4.501   5.497   4.354 -0.0327  0.2072 -0.7271
 2655SOL    HW2 8865   4.421   5.639   4.362 -0.3423  0.0499 -1.0219
 2656SOL     OW 8866   4.964   3.656   4.011 -0.7160 -0.0262 -0.1159
 2656SOL    HW1 8867   5.016   3.702   3.939 -0.9788  1.0361  0.3398
 2656SOL    HW2 8868   5.015   3.577   4.044  0.3193  0.6211 -0.1111
 2657SOL     OW 8869   4.085   3.956   0.386  0.1814  0.2847 -0.1052
 2657SOL    HW1 8870   4.144   3.902   0.327 -0.8102 -0.3497 -0.5208
 2657SOL    HW2 8871   4.023   4.012   0.331  0.0072  0.5352  0.3332
 2658SOL     OW 8872   6.668   5.086   4.906  0.4360 -0.0804 -0.2891
 2658SOL    HW1 8873   6.664   5.138   4.992  1.8550  3.0620 -1.9445
 2658SOL    HW2 8874   6.575   5.072   4.871 -0.0469  0.4820  0.7252
 2659SOL     OW 8875   1.350   3.492   4.268 -0.1748 -0.1374 -0.5707
 2659SOL    HW1 8876   1.332   3.517   4.363 -0.1860 -0.1753 -0.5629
 2659SOL    HW2 8877   1.439   3.446   4.262  0.0287  0.2557 -0.6402
 2660SOL     OW 8878   6.366   2.957   3.600 -0.3048 -0.0997  0.4624
 2660SOL    HW1 8879   6.408   2.973   3.689 -0.8431  0.4721  0.6170
 2660SOL    HW2 8880   6.342   3.044   3.558 -1.6129 -0.4140  0.5160
 2661SOL     OW 8881   2.340   5.385   6.520 -0.3687  0.0876  0.2988
 2661SOL    HW1 8882   2.317   5.291   6.494 -1.4002  0.4213 -0.0354
 2661SOL    HW2 8883   2.408   5.383   6.594  1.1972 -0.8853 -1.0997
 2662SOL     OW 8884   3.723   0.693   4.387  0.1795  0.3299  0.1323
 2662SOL    HW1 8885   3.760   0.616   4.440  0.2271  0.3259  0.0932
 2662SOL    HW2 8886   3.710   0.771   4.448  0.1002  0.2807  0.1789
 2663SOL     OW 8887   2.377   2.547   0.708  0.0095 -0.2333 -0.3516
 2663SOL    HW1 8888   2.282   2.519   0.723 -0.9174  2.2364 -1.1821
 2663SOL    HW2 8889   2.381   2.612   0.632  2.4378 -0.5180 -0.5523
 2664SOL     OW 8890   3.247   3.951   2.510  0.5021 -0.3032  0.0288
 2664SOL    HW1 8891   3.303   4.008   2.449  1.2114  0.0454  0.9751
 2664SOL    HW2 8892   3.160   3.930   2.466  0.7460  0.4633 -0.8484
 2665SOL     OW 8893   3.859   0.915   4.508  0.4021 -0.5840  0.0479
 2665SOL    HW1 8894   3.939   0.961   4.546 -0.5414 -0.1029  1.5491
 2665SOL    HW2 8895   3.777   0.944   4.557 -0.8046 -0.5745 -1.8571
 2666SOL     OW 8896   0.166   4.321   1.192 -0.0394 -0.1938  0.3079
 2666SOL    HW1 8897   0.074   4.297   1.162  0.4888 -0.5144 -1.1204
 2666SOL    HW2 8898   0.220   4.238   1.205  0.3866  0.0333  0.0169
 2667SOL     OW 8899   1.586   6.311   5.179 -0.1231 -0.5642  0.1490
 2667SOL    HW1 8900   1.575   6.409   5.161 -1.7593 -0.7580 -0.0552
 2667SOL    HW2 8901   1.659   6.275   5.121  0.4374  0.5000  0.1597
 2668SOL     OW 8902   6.710   3.865   3.369  0.3186 -0.4227 -0.3500
 2668SOL    HW1 8903   6.696   3.829   3.461  1.5038  0.5757  0.2514
 2668SOL    HW2 8904   6.626   3.856   3.317 -0.2056 -1.5410  0.6361
 2669SOL     OW 8905   3.499   5.057   5.063  0.2465  0.2999 -0.0807
 2669SOL    HW1 8906   3.469   5.071   4.969  1.4188 -3.2504 -1.1764
 2669SOL    HW2 8907   3.585   5.005   5.063  1.2434  1.6684  2.9944
 2670SOL     OW 8908   1.160   1.670   6.104  0.2464 -0.5091  0.1381
 2670SOL    HW1 8909   1.232   1.613   6.141 -1.0388 -1.7286  0.8703
 2670SOL    HW2 8910   1.197   1.759   6.076  1.8343 -0.7922  1.2860
 2671SOL     OW 8911   1.941   3.601   0.514  0.8520  0.3923 -0.6591
 2671SOL    HW1 8912   1.881   3.536   0.468 -0.9966  1.4109  0.1895
 2671SOL    HW2 8913   2.035   3.586   0.485  0.3029 -1.7088 -1.5392
 2672SOL     OW 8914   1.815   5.417   5.235  0.3232 -0.6374  0.1213
 2672SOL    HW1 8915   1.914   5.408   5.225  0.4018 -0.3546  0.6045
 2672SOL    HW2 8916   1.786   5.505   5.198  0.7848  0.9777  3.2407
 2673SOL     OW 8917   5.077   3.671   4.322  0.2440  0.3709 -0.1518
 2673SOL    HW1 8918   4.984   3.684   4.287  0.3193  0.7083 -0.2232
 2673SOL    HW2 8919   5.074   3.655   4.420 -0.3362 -4.1536 -0.6886
 2674SOL     OW 8920   0.966   4.116   5.282 -0.1090 -0.0960  0.6354
 2674SOL    HW1 8921   0.991   4.210   5.261  0.6978 -0.7376 -1.5465
 2674SOL    HW2 8922   0.871   4.113   5.314 -0.5780  1.3157 -0.5207
 2675SOL     OW 8923   6.835   4.437   5.163  0.3386  0.0164  0.7907
 2675SOL    HW1 8924   6.765   4.504   5.138  0.8191  0.1428 -0.2492
 2675SOL    HW2 8925   6.793   4.364   5.217 -1.4392 -1.8262 -2.7553
 2676SOL     OW 8926   4.519   1.534   2.687 -0.2540  0.1838  0.3870
 2676SOL    HW1 8927   4.514   1.586   2.602 -1.2407  0.7740  0.7994
 2676SOL    HW2 8928   4.431   1.492   2.706  0.4972 -1.6192  0.0970
 2677SOL     OW 8929   2.602   5.316   0.858 -0.4036  0.1156  0.0546
 2677SOL    HW1 8930   2.604   5.251   0.934  0.1416  0.0444 -0.0206
 2677SOL    HW2 8931   2.689   5.365   0.854  1.1067 -2.4382 -2.7475
 2678SOL     OW 8932   2.815   5.854   1.112  0.3933  0.1492 -0.6879
 2678SOL    HW1 8933   2.759   5.775   1.086  0.4626  0.5128 -2.0167
 2678SOL    HW2 8934   2.911   5.829   1.108  0.4243  0.3692 -1.3655
 2679SOL     OW 8935   3.982   5.897   6.316 -0.6128  0.2314 -0.1839
 2679SOL    HW1 8936   4.080   5.899   6.301 -0.9153 -0.2704 -2.5770
 2679SOL    HW2 8937   3.958   5.819   6.374  0.2600 -0.5897 -0.9091
 2680SOL     OW 8938   1.735   0.929   1.537 -0.4816 -0.0446  0.0972
 2680SOL    HW1 8939   1.822   0.972   1.562 -1.7289  1.4841  2.0745
 2680SOL    HW2 8940   1.718   0.851   1.597 -0.3767 -0.5099 -0.4663
 2681SOL     OW 8941   1.589   2.695   4.347  0.2403  0.4176  0.3794
 2681SOL    HW1 8942   1.538   2.718   4.263 -1.8325  0.5365  1.5956
 2681SOL    HW2 8943   1.680   2.735   4.342 -0.5229  2.1347 -0.9857
 2682SOL     OW 8944   5.693   1.930   1.627 -0.0265 -0.0084  0.0191
 2682SOL    HW1 8945   5.606   1.901   1.667 -0.2510 -1.1446 -1.2147
 2682SOL    HW2 8946   5.686   2.025   1.597 -0.6434  0.0979  0.4821
 2683SOL     OW 8947   1.328   3.940   0.143 -0.5788  0.3474 -0.3021
 2683SOL    HW1 8948   1.260   3.877   0.183  0.8239 -0.8911  0.2423
 2683SOL    HW2 8949   1.368   3.996   0.216  1.7166 -1.6557  0.1033
 2684SOL     OW 8950   3.216   6.127   3.344 -0.1498 -0.2506 -0.4646
 2684SOL    HW1 8951   3.215   6.227   3.337 -0.0518 -0.0499  1.6544
 2684SOL    HW2 8952   3.127   6.095   3.378  0.2847 -0.7429  0.2242
 2685SOL     OW 8953   6.864   1.463   5.045  0.6384  0.1896  0.3674
 2685SOL    HW1 8954   6.861   1.563   5.045 -0.4722  0.1713 -0.5440
 2685SOL    HW2 8955   6.771   1.426   5.051  0.9750 -0.7791 -0.1048
 2686SOL     OW 8956   1.999   4.291   5.500 -0.5731 -0.6701  0.0312
 2686SOL    HW1 8957   1.953   4.374   5.532 -2.6821 -0.9557 -1.9548
 2686SOL    HW2 8958   2.044   4.310   5.412  1.9343 -0.8225  1.1805
 2687SOL     OW 8959   4.614   6.136   1.444 -0.3187  0.4929 -0.9470
 2687SOL    HW1 8960   4.676   6.076   1.495 -1.8371 -0.6421 -0.3806
 2687SOL    HW2 8961   4.665   6.216   1.411  1.3356 -0.1819 -0.1412
 2688SOL     OW 8962   4.004   4.190   5.210  0.0339 -0.3620  0.6283
 2688SOL    HW1 8963   3.948   4.259   5.256  2.7641  1.4241  1.4875
 2688SOL    HW2 8964   4.068   4.150   5.275  0.4293 -1.6649 -0.5133
 2689SOL     OW 8965   0.973   6.769   1.301  0.6085 -0.3552  0.5459
 2689SOL    HW1 8966   0.981   6.670   1.285  0.1302 -0.5170  1.2703
 2689SOL    HW2 8967   0.964   6.816   1.214 -0.9562 -1.1132  0.2656
 2690SOL     OW 8968   2.932   3.711   3.035 -0.0037  0.0845 -0.0108
 2690SOL    HW1 8969   2.988   3.654   2.975 -1.0905  0.5425 -1.5266
 2690SOL    HW2 8970   2.978   3.798   3.050  0.1698  0.0711 -0.4356
 2691SOL     OW 8971   1.883   0.945   0.857 -0.2702  0.2203 -0.0454
 2691SOL    HW1 8972   1.924   1.032   0.884  1.6080 -0.3508 -0.8401
 2691SOL    HW2 8973   1.922   0.872   0.914  1.0754 -0.5437 -1.8574
 2692SOL     OW 8974   0.052   5.954   3.714 -0.1758  0.5799 -0.1536
 2692SOL    HW1 8975  -0.041   5.975   3.745 -0.7603 -2.0464  0.1301
 2692SOL    HW2 8976   0.108   5.927   3.793 -0.0178 -0.5920 -0.6451
 2693SOL     OW 8977   1.695   3.972   2.203  0.2469 -0.2832  0.4003
 2693SOL    HW1 8978   1.782   3.925   2.190  1.1940  1.7541 -1.0925
 2693SOL    HW2 8979   1.689   4.005   2.298  2.8200  2.5986 -0.2762
 2694SOL     OW 8980   2.015   6.451   3.589  0.2387 -0.1879  0.9932
 2694SOL    HW1 8981   1.926   6.419   3.558  0.1763  1.9272 -1.3722
 2694SOL    HW2 8982   2.086   6.386   3.561 -0.1223  0.3843 -1.4401
 2695SOL     OW 8983   5.199   1.877   1.632  0.6760  0.2706 -0.0447
 2695SOL    HW1 8984   5.183   1.915   1.541 -0.8158 -0.0536  0.0592
 2695SOL    HW2 8985   5.159   1.785   1.638  3.6839 -1.1801 -0.1019
 2696SOL     OW 8986   3.288   4.155   6.089 -0.0627  0.5907  0.7452
 2696SOL    HW1 8987   3.307   4.073   6.035 -0.3263  1.2257 -0.3442
 2696SOL    HW2 8988   3.194   4.151   6.125 -0.2975  0.7021  0.1521
 2697SOL     OW 8989   6.192   0.321   4.211 -0.0604 -0.2721 -0.0317
 2697SOL    HW1 8990   6.266   0.256   4.229  1.0473  0.6061 -1.2823
 2697SOL    HW2 8991   6.114   0.273   4.172  1.1010 -0.7653 -1.8569
 2698SOL     OW 8992   1.246   3.940   5.811  0.3573  0.7120  0.5779
 2698SOL    HW1 8993   1.238   3.954   5.712 -1.2810  0.7884  0.6956
 2698SOL    HW2 8994   1.214   4.022   5.859  0.3456  0.3673  1.1712
 2699SOL     OW 8995   4.268   5.159   0.886  0.2372 -0.4112  0.3059
 2699SOL    HW1 8996   4.277   5.076   0.832 -2.3431 -0.0998 -0.7482
 2699SOL    HW2 8997   4.232   5.137   0.976 -0.7385 -0.4403 -0.0797
 2700SOL     OW 8998   0.860   2.059   3.183 -0.2463  0.0607  0.2091
 2700SOL    HW1 8999   0.838   1.985   3.118  1.4219 -1.0671  0.8635
 2700SOL    HW2 9000   0.858   2.147   3.135 -2.5423 -0.3222 -0.5391
 2701SOL     OW 9001   3.443   0.755   5.551 -0.0538  0.0159 -0.6504
 2701SOL    HW1 9002   3.470   0.806   5.469 -1.6478  1.0835 -0.5573
 2701SOL    HW2 9003   3.452   0.657   5.534  3.8868  0.1957 -0.5703
 2702SOL     OW 9004   5.973   1.235   3.639  0.3608  0.9339  0.3676
 2702SOL    HW1 9005   5.893   1.184   3.610  0.2383  1.3426 -0.0343
 2702SOL    HW2 9006   6.051   1.209   3.582  0.5524  0.4335  0.8499
 2703SOL     OW 9007   2.113   1.974   1.590 -0.1487 -0.4349 -0.2172
 2703SOL    HW1 9008   2.166   1.920   1.526  0.8887  0.1312  0.1324
 2703SOL    HW2 9009   2.131   1.942   1.683  1.6983  1.4504  0.1340
 2704SOL     OW 9010   1.776   5.224   0.727  0.2597 -0.5273 -0.4071
 2704SOL    HW1 9011   1.692   5.271   0.701  0.9598  0.5468 -0.8170
 2704SOL    HW2 9012   1.762   5.175   0.813 -1.1109 -1.3383 -1.0631
 2705SOL     OW 9013   0.427   3.554   3.898 -0.1479  0.3123  0.8602
 2705SOL    HW1 9014   0.466   3.481   3.842  0.1258  0.5142  0.7874
 2705SOL    HW2 9015   0.474   3.558   3.986 -1.1750 -0.6040  1.4830
 2706SOL     OW 9016   6.687   2.119   0.710  0.3418  0.5491  0.1763
 2706SOL    HW1 9017   6.750   2.049   0.744  1.2161  1.5417  0.6475
 2706SOL    HW2 9018   6.627   2.149   0.784 -0.0370  0.2952 -0.0261
 2707SOL     OW 9019   2.251   1.035   1.059 -0.4192 -0.2061  0.2417
 2707SOL    HW1 9020   2.198   0.950   1.059  1.7364 -1.6404  0.7003
 2707SOL    HW2 9021   2.332   1.023   1.001 -0.4720  1.8428 -0.3122
 2708SOL     OW 9022   2.687   2.105   2.489 -0.5756  0.0392 -0.4633
 2708SOL    HW1 9023   2.785   2.082   2.494 -0.3990  0.2086 -2.4120
 2708SOL    HW2 9024   2.658   2.145   2.576  1.3660  1.0264 -0.2039
 2709SOL     OW 9025   5.921   4.801   0.688  0.0168  0.4889 -0.0005
 2709SOL    HW1 9026   5.998   4.849   0.646 -0.9597  1.0921 -1.1709
 2709SOL    HW2 9027   5.890   4.728   0.628 -0.9720  0.9242 -0.0398
 2710SOL     OW 9028   6.262   2.135   1.830 -0.2223 -0.5018  0.0835
 2710SOL    HW1 9029   6.212   2.050   1.815  0.6062 -1.5138  2.4505
 2710SOL    HW2 9030   6.316   2.127   1.914  2.1254  1.3536 -1.1123
 2711SOL     OW 9031   1.532   0.145   1.994  0.2765  0.1508  0.1457
 2711SOL    HW1 9032   1.524   0.050   1.964  0.1253 -0.2990  1.5812
 2711SOL    HW2 9033   1.629   0.166   2.010  0.0883 -0.9715  3.4795
 2712SOL     OW 9034   2.670   4.356   1.675 -0.0593 -0.2830 -0.5409
 2712SOL    HW1 9035   2.765   4.374   1.701  0.0490  0.3680 -1.3361
 2712SOL    HW2 9036   2.609   4.392   1.745  0.2963 -2.0177  0.7065
 2713SOL     OW 9037   1.161   3.031   5.183  0.0499 -0.0011 -0.2963
 2713SOL    HW1 9038   1.107   3.069   5.107 -0.4877 -0.1661 -0.0053
 2713SOL    HW2 9039   1.256   3.021   5.155 -0.0952  0.1780 -0.8644
 2714SOL     OW 9040   6.080   0.852   6.596  0.0208  0.0651  0.5645
 2714SOL    HW1 9041   6.053   0.929   6.654 -0.1334 -1.2551  2.3268
 2714SOL    HW2 9042   6.017   0.844   6.519  0.1880  1.8301  0.2077
 2715SOL     OW 9043   0.816   6.849   6.959  0.5706 -0.0313  0.1096
 2715SOL    HW1 9044   0.847   6.887   6.872  1.7850 -2.5571 -0.6428
 2715SOL    HW2 9045   0.754   6.772   6.941 -1.8749  1.4655  1.5690
 2716SOL     OW 9046   5.766   5.522   2.099  0.3070 -0.0343 -0.1810
 2716SOL    HW1 9047   5.847   5.569   2.065  0.7981 -1.7995 -1.5737
 2716SOL    HW2 9048   5.755   5.541   2.196  1.8549  0.9745 -0.1712
 2717SOL     OW 9049   1.618   6.855   2.122  0.2019 -0.0082  0.2147
 2717SOL    HW1 9050   1.570   6.855   2.034 -1.0470 -0.6963  0.8652
 2717SOL    HW2 9051   1.683   6.780   2.125  2.1589  1.5384 -1.0697
 2718SOL     OW 9052   1.714   3.863   3.421 -0.2305  0.1315  0.1928
 2718SOL    HW1 9053   1.759   3.798   3.360 -2.0166 -0.5959 -0.4243
 2718SOL    HW2 9054   1.677   3.939   3.367 -3.8786 -1.6577 -0.1593
 2719SOL     OW 9055   3.272   4.788   2.039 -0.8086 -0.2699 -0.1898
 2719SOL    HW1 9056   3.331   4.717   2.001 -0.9980 -0.6370  0.2008
 2719SOL    HW2 9057   3.236   4.845   1.965 -1.5394 -1.2621 -0.6075
 2720SOL     OW 9058   1.919   6.299   3.284  0.3265  0.1121 -0.3382
 2720SOL    HW1 9059   1.973   6.264   3.361  1.3255  0.5179 -0.8320
 2720SOL    HW2 9060   1.829   6.255   3.283  1.6142 -2.7479 -1.1536
 2721SOL     OW 9061   4.322   6.797   4.550  0.3261  0.5297 -0.1466
 2721SOL    HW1 9062   4.396   6.750   4.597  0.6013  1.6145  0.5345
 2721SOL    HW2 9063   4.341   6.800   4.452  1.4093  1.1753  0.0697
 2722SOL     OW 9064   0.487   0.554   4.824 -0.0243  0.0235  0.3344
 2722SOL    HW1 9065   0.407   0.495   4.812 -0.1407 -0.4078  2.7876
 2722SOL    HW2 9066   0.569   0.497   4.836 -0.2223  0.2537  3.3117
 2723SOL     OW 9067   1.884   1.480   5.804 -0.1095  0.2854  0.0038
 2723SOL    HW1 9068   1.796   1.500   5.761  0.8107 -1.2478 -2.8629
 2723SOL    HW2 9069   1.888   1.383   5.828  1.2021  0.0310 -1.0941
 2724SOL     OW 9070   3.521   4.548   6.200  0.2458  0.0208  0.8520
 2724SOL    HW1 9071   3.548   4.456   6.227  0.1023 -0.6876 -1.2388
 2724SOL    HW2 9072   3.423   4.560   6.216 -0.3924 -1.3118 -1.5737
 2725SOL     OW 9073   2.591   4.819   3.026 -0.2195  0.3969  0.2652
 2725SOL    HW1 9074   2.501   4.782   3.005  0.3386 -0.7134 -0.2431
 2725SOL    HW2 9075   2.647   4.823   2.943  0.3049  0.8001  0.6250
 2726SOL     OW 9076   5.730   4.425   0.777  0.4469 -0.2842  0.0984
 2726SOL    HW1 9077   5.676   4.498   0.818  1.3099  0.0678  0.6516
 2726SOL    HW2 9078   5.793   4.387   0.846  0.7333 -0.8394 -0.4564
 2727SOL     OW 9079   6.800   3.940   1.496 -0.5807  0.1560 -0.1373
 2727SOL    HW1 9080   6.715   3.891   1.475 -0.8132 -0.4884  1.9921
 2727SOL    HW2 9081   6.870   3.873   1.521  0.3195  0.7329 -1.1049
 2728SOL     OW 9082   2.122   0.905   6.069 -0.6915  0.1917  0.0553
 2728SOL    HW1 9083   2.113   1.000   6.097 -0.7278  0.3686 -0.5478
 2728SOL    HW2 9084   2.170   0.900   5.982  2.1412 -0.5039  1.5021
 2729SOL     OW 9085   5.326   6.270   2.116  0.4292 -0.3337 -0.2784
 2729SOL    HW1 9086   5.358   6.213   2.040  1.1064 -0.6690  0.2532
 2729SOL    HW2 9087   5.238   6.235   2.149  1.1890 -1.5600  0.5351
 2730SOL     OW 9088   1.957   5.728   5.363 -0.4118 -0.1956 -0.1363
 2730SOL    HW1 9089   2.003   5.682   5.440 -0.6146  0.0837  0.1563
 2730SOL    HW2 9090   1.920   5.815   5.394  0.8209  0.6293 -0.9367
 2731SOL     OW 9091   1.784   3.623   1.963 -0.0347  0.2824  0.1427
 2731SOL    HW1 9092   1.859   3.583   1.911  0.2163  1.3401 -0.3294
 2731SOL    HW2 9093   1.711   3.555   1.974  0.7680 -0.5898  0.1750
 2732SOL     OW 9094   0.514   3.800   0.427  0.0597 -0.3493  0.6567
 2732SOL    HW1 9095   0.563   3.799   0.340 -2.7176  0.5256 -1.0083
 2732SOL    HW2 9096   0.510   3.708   0.464  0.4615 -0.9004 -0.6267
 2733SOL     OW 9097   1.711   6.664   5.511  0.0999 -0.4511  0.0677
 2733SOL    HW1 9098   1.710   6.564   5.516  0.1438 -0.4443  0.1955
 2733SOL    HW2 9099   1.802   6.698   5.535  0.0675 -0.3762  0.0830
 2734SOL     OW 9100   1.632   4.686   3.752 -0.4080  0.3604  0.2029
 2734SOL    HW1 9101   1.709   4.725   3.701  0.9763 -1.3256  0.8876
 2734SOL    HW2 9102   1.552   4.680   3.693  0.3605  0.9626 -0.9370
 2735SOL     OW 9103   0.636   5.236   2.568  0.7467  0.2413 -0.5944
 2735SOL    HW1 9104   0.731   5.212   2.586  0.0625 -1.9077  0.5035
 2735SOL    HW2 9105   0.626   5.336   2.567  2.8917  0.4964 -0.1864
 2736SOL     OW 9106   3.990   6.761   4.454 -0.2277 -0.2671 -0.5585
 2736SOL    HW1 9107   4.085   6.788   4.437 -0.0684 -1.0050 -0.8977
 2736SOL    HW2 9108   3.977   6.665   4.427 -0.8403 -0.4524  0.3336
 2737SOL     OW 9109   2.930   1.892   5.464  0.3765  0.7538  0.3769
 2737SOL    HW1 9110   2.977   1.884   5.376  0.1094 -1.2019  0.3862
 2737SOL    HW2 9111   2.966   1.972   5.514  2.8950 -0.0123 -0.0987
 2738SOL     OW 9112   5.779   6.775   3.453 -0.7105  0.7127  0.0003
 2738SOL    HW1 9113   5.803   6.856   3.400 -1.3673  0.1625 -1.1719
 2738SOL    HW2 9114   5.690   6.788   3.497 -1.4788  0.1154 -1.3345
 2739SOL     OW 9115   6.655   3.513   0.927  0.6455 -0.4102  0.1286
 2739SOL    HW1 9116   6.599   3.515   1.009 -0.4379 -0.3595 -0.5885
 2739SOL    HW2 9117   6.731   3.449   0.939  0.6636 -0.1843  1.2598
 2740SOL     OW 9118   0.218   2.597   3.388  0.3233  0.6335 -0.2231
 2740SOL    HW1 9119   0.244   2.685   3.347  0.7882  0.0239 -1.2447
 2740SOL    HW2 9120   0.183   2.536   3.317 -0.7762  0.2587  0.6098
 2741SOL     OW 9121   1.101   2.122   4.468  0.2651 -0.0592  0.6223
 2741SOL    HW1 9122   1.141   2.159   4.552  0.2074 -0.8358  0.9980
 2741SOL    HW2 9123   1.012   2.082   4.489 -0.4176  1.0366 -0.0831
 2742SOL     OW 9124   2.836   6.835   6.611 -0.4052  0.5666  0.3146
 2742SOL    HW1 9125   2.888   6.835   6.696 -0.0700 -3.0395  0.2881
 2742SOL    HW2 9126   2.900   6.842   6.534 -0.2442 -0.3748  0.3447
 2743SOL     OW 9127   5.926   5.605   1.773 -0.3817 -0.0725  0.0430
 2743SOL    HW1 9128   5.992   5.540   1.811 -0.5707  0.0353  0.5739
 2743SOL    HW2 9129   5.968   5.696   1.769 -0.0291 -0.2668 -0.9461
 2744SOL     OW 9130   4.085   1.420   6.316 -0.2499  0.1270  0.0045
 2744SOL    HW1 9131   4.151   1.461   6.379 -1.3778  1.9451  0.0344
 2744SOL    HW2 9132   4.088   1.468   6.228 -0.4471 -0.7971 -0.5238
 2745SOL     OW 9133   4.001   1.023   1.502  0.7418 -0.7592 -0.1562
 2745SOL    HW1 9134   3.959   1.050   1.416  0.6702 -0.1824  0.0573
 2745SOL    HW2 9135   4.073   0.956   1.485 -0.8066 -2.4447 -0.4719
 2746SOL     OW 9136   1.172   4.855   5.203 -0.1205 -0.2111  0.0273
 2746SOL    HW1 9137   1.093   4.849   5.142 -0.7839 -1.8140  0.9672
 2746SOL    HW2 9138   1.180   4.947   5.239 -1.1838  0.1268 -0.5719
 2747SOL     OW 9139   4.615   6.885   5.212 -0.5606 -0.0651 -0.0700
 2747SOL    HW1 9140   4.626   6.806   5.271 -0.3069 -0.2531 -0.3636
 2747SOL    HW2 9141   4.702   6.907   5.169 -0.4975  0.7102  0.4270
 2748SOL     OW 9142   2.178   1.020   2.708 -0.8431  0.0162 -0.3221
 2748SOL    HW1 9143   2.142   0.927   2.698  0.1915 -0.2840 -1.4112
 2748SOL    HW2 9144   2.200   1.037   2.804  1.1438 -1.7158 -0.4085
 2749SOL     OW 9145   4.851   3.749   3.540 -0.3521 -0.3057  0.0021
 2749SOL    HW1 9146   4.946   3.754   3.509 -0.1736 -1.2035  0.3729
 2749SOL    HW2 9147   4.842   3.794   3.629  0.0800 -1.5841  0.7239
 2750SOL     OW 9148   0.823   5.716   1.430  0.3556  0.2511  0.4765
 2750SOL    HW1 9149   0.757   5.659   1.381  0.2395 -0.0045  0.9245
 2750SOL    HW2 9150   0.902   5.732   1.371  1.0947 -1.6800  0.8566
 2751SOL     OW 9151   3.488   1.064   0.744 -0.1589  0.3407  0.0948
 2751SOL    HW1 9152   3.393   1.087   0.723 -0.4543 -2.7504 -2.7032
 2751SOL    HW2 9153   3.549   1.107   0.679 -0.0409 -0.6602 -0.4802
 2752SOL     OW 9154   4.097   5.873   5.517 -0.0154  0.0943 -0.0028
 2752SOL    HW1 9155   4.051   5.851   5.603  2.7005 -0.0462  1.5529
 2752SOL    HW2 9156   4.107   5.972   5.509 -0.0841  0.0969 -0.0590
 2753SOL     OW 9157   2.681   4.855   4.953  0.1671  0.4414  0.4245
 2753SOL    HW1 9158   2.764   4.799   4.960  0.8492  1.2028 -1.0618
 2753SOL    HW2 9159   2.704   4.944   4.914 -0.7329  2.1649  3.4464
 2754SOL     OW 9160   0.186   1.446   3.399 -0.1954  0.2864  0.8148
 2754SOL    HW1 9161   0.165   1.530   3.350  0.6008 -0.4309 -0.8451
 2754SOL    HW2 9162   0.248   1.465   3.475  1.6397  0.9744 -0.7772
 2755SOL     OW 9163   1.847   4.488   2.642 -0.9592 -0.6325 -0.0596
 2755SOL    HW1 9164   1.867   4.397   2.679 -2.8769 -1.5551 -1.1533
 2755SOL    HW2 9165   1.826   4.481   2.545 -0.1435  1.1567 -0.4051
 2756SOL     OW 9166   6.612   3.353   5.663  0.0829  0.4326  0.5318
 2756SOL    HW1 9167   6.640   3.400   5.746  0.6754 -0.0992  0.6432
 2756SOL    HW2 9168   6.581   3.420   5.595  1.6074  1.0656  0.4137
 2757SOL     OW 9169   3.374   0.667   0.567 -0.0579 -0.6768 -0.1850
 2757SOL    HW1 9170   3.302   0.664   0.497  0.4820 -3.1138 -0.7252
 2757SOL    HW2 9171   3.350   0.604   0.641  2.0316 -2.5863 -1.0078
 2758SOL     OW 9172   3.746   6.022   3.545 -0.3428 -0.1467  0.0795
 2758SOL    HW1 9173   3.739   6.032   3.644 -1.3690  0.9650 -0.0829
 2758SOL    HW2 9174   3.718   6.107   3.501  2.6167  0.3110 -1.1237
 2759SOL     OW 9175   3.766   4.517   5.660 -0.0031  0.3903  0.1374
 2759SOL    HW1 9176   3.706   4.453   5.709  0.1551 -0.6061 -0.9522
 2759SOL    HW2 9177   3.710   4.588   5.617 -0.2428  0.5042  0.6202
 2760SOL     OW 9178   5.526   6.578   3.289 -0.1352  0.7290  1.0386
 2760SOL    HW1 9179   5.494   6.673   3.283  0.1909  0.8103  0.5859
 2760SOL    HW2 9180   5.481   6.524   3.218 -0.1751  0.5860  1.1738
 2761SOL     OW 9181   2.165   3.039   2.597  0.4130 -0.5415 -0.3004
 2761SOL    HW1 9182   2.150   3.043   2.696  1.4385 -0.1560 -0.1452
 2761SOL    HW2 9183   2.215   2.955   2.574  2.3461  0.5233 -0.1552
 2762SOL     OW 9184   6.687   3.797   0.231 -0.1583 -0.0111  0.4054
 2762SOL    HW1 9185   6.617   3.738   0.272 -2.1104  0.9835 -1.3221
 2762SOL    HW2 9186   6.712   3.869   0.295  0.9726 -1.6204  1.8701
 2763SOL     OW 9187   5.661   6.524   0.662 -0.4781 -0.9264  0.1593
 2763SOL    HW1 9188   5.606   6.575   0.729  0.8369  0.4140  0.2912
 2763SOL    HW2 9189   5.712   6.589   0.606 -0.7276 -2.0683 -1.4450
 2764SOL     OW 9190   1.215   4.914   1.681 -0.3489 -0.1836 -0.7791
 2764SOL    HW1 9191   1.289   4.977   1.658 -0.7498  1.3620  1.7752
 2764SOL    HW2 9192   1.127   4.956   1.660 -0.6089 -0.0414  0.5314
 2765SOL     OW 9193   0.183   6.227   6.888  0.6607  0.2038 -0.1370
 2765SOL    HW1 9194   0.167   6.300   6.954  0.7782 -0.7511  0.9982
 2765SOL    HW2 9195   0.265   6.247   6.834  1.1003  0.5802  0.6516
 2766SOL     OW 9196   4.803   0.506   0.996  0.5631 -0.4972 -0.2083
 2766SOL    HW1 9197   4.878   0.555   0.951 -0.8159  1.2882 -0.6750
 2766SOL    HW2 9198   4.799   0.412   0.961  1.9246 -0.3227 -0.9208
 2767SOL     OW 9199   0.958   5.924   6.425  0.1982  0.5607 -0.1089
 2767SOL    HW1 9200   0.960   6.000   6.360  0.7768  1.0637  0.4720
 2767SOL    HW2 9201   1.051   5.887   6.434 -0.5596 -2.4122 -2.8640
 2768SOL     OW 9202   4.161   6.701   1.559  0.0399 -0.5384 -0.2136
 2768SOL    HW1 9203   4.137   6.688   1.463 -0.0211 -2.4005  0.0189
 2768SOL    HW2 9204   4.152   6.798   1.582  0.0586 -0.0510 -2.0668
 2769SOL     OW 9205   1.289   3.389   5.274 -0.1024  0.5445 -0.3707
 2769SOL    HW1 9206   1.194   3.415   5.291 -0.1060  0.4290 -0.2205
 2769SOL    HW2 9207   1.337   3.466   5.230  0.1336  1.1581  0.9183
 2770SOL     OW 9208   3.552   6.128   5.718  0.6961 -0.3612 -0.4772
 2770SOL    HW1 9209   3.625   6.062   5.699 -0.4408 -1.5775 -0.7722
 2770SOL    HW2 9210   3.496   6.140   5.636 -1.1411 -1.6640  0.5296
 2771SOL     OW 9211   5.374   1.920   3.934 -0.1684  0.1449 -0.1212
 2771SOL    HW1 9212   5.422   1.966   3.859  0.7446 -0.2526  0.2204
 2771SOL    HW2 9213   5.286   1.885   3.900  0.1796  0.0742 -0.9710
 2772SOL     OW 9214   5.111   1.063   4.134 -0.7399 -0.8738  0.0176
 2772SOL    HW1 9215   5.067   1.004   4.202  0.3219 -2.0587 -0.2893
 2772SOL    HW2 9216   5.201   1.026   4.111  0.1730  1.1455  0.1588
 2773SOL     OW 9217   0.727   2.558   3.395  0.1073  0.6452  0.1134
 2773SOL    HW1 9218   0.768   2.499   3.465  0.3613  1.0112  0.2784
 2773SOL    HW2 9219   0.629   2.569   3.413  0.2009  0.8600  0.5025
 2774SOL     OW 9220   5.251   2.716   4.515 -0.3075 -0.2813 -0.2494
 2774SOL    HW1 9221   5.241   2.652   4.591  0.7595 -1.3792 -0.9812
 2774SOL    HW2 9222   5.338   2.764   4.524 -1.6844  2.1893  1.0435
 2775SOL     OW 9223   6.109   3.661   3.707 -0.1452 -0.1061 -0.6179
 2775SOL    HW1 9224   6.090   3.617   3.795  2.8075  0.1933  0.2610
 2775SOL    HW2 9225   6.083   3.757   3.712 -1.1001 -0.3536 -0.5244
 2776SOL     OW 9226   5.550   4.186   6.298 -0.9085  0.7457  0.3348
 2776SOL    HW1 9227   5.599   4.248   6.361  1.0859  0.0409 -0.4369
 2776SOL    HW2 9228   5.501   4.117   6.351  1.5828 -0.4739  1.2120
 2777SOL     OW 9229   2.913   0.480   6.071 -0.3585  0.1878  0.3732
 2777SOL    HW1 9230   2.982   0.415   6.101  1.0742  0.0197 -2.8154
 2777SOL    HW2 9231   2.823   0.438   6.076  0.2440 -1.0950  0.8044
 2778SOL     OW 9232   2.603   5.323   6.995  0.6968  0.2740 -0.5810
 2778SOL    HW1 9233   2.664   5.398   7.022 -0.2577  0.1186  2.2299
 2778SOL    HW2 9234   2.655   5.239   6.987  1.0182  0.2732  1.1652
 2779SOL     OW 9235   2.909   7.004   1.689  0.3197 -0.3291 -0.6821
 2779SOL    HW1 9236   2.858   6.951   1.621  1.7682  0.1707 -2.2467
 2779SOL    HW2 9237   3.004   7.013   1.659  0.5589  1.5523  0.4810
 2780SOL     OW 9238   2.464   2.280   0.439 -0.1477  0.1109  0.2428
 2780SOL    HW1 9239   2.369   2.281   0.407 -0.1021 -0.1950  0.0887
 2780SOL    HW2 9240   2.510   2.199   0.401  0.2730  0.4489  0.0349
 2781SOL     OW 9241   5.546   6.854   2.194 -0.2053 -0.6705 -0.2296
 2781SOL    HW1 9242   5.645   6.865   2.205 -0.2120 -0.5169 -0.3248
 2781SOL    HW2 9243   5.504   6.838   2.284 -0.1697 -0.1329 -0.1149
 2782SOL     OW 9244   3.867   6.831   5.630  0.3505  1.0164  0.1916
 2782SOL    HW1 9245   3.807   6.865   5.702 -0.5853 -1.1061  0.5089
 2782SOL    HW2 9246   3.934   6.769   5.669  1.3905  1.7006 -0.4648
 2783SOL     OW 9247   0.250   3.090   0.850 -0.3988  0.3638 -0.2624
 2783SOL    HW1 9248   0.217   3.133   0.767 -2.3357  0.0072  0.2598
 2783SOL    HW2 9249   0.279   3.160   0.915 -0.4521  0.7170 -0.6180
 2784SOL     OW 9250   2.176   1.497   1.905 -0.4762 -0.4807  0.3634
 2784SOL    HW1 9251   2.154   1.440   1.985  1.1506 -0.4632  0.8721
 2784SOL    HW2 9252   2.239   1.570   1.933  1.9740 -1.8233 -1.3129
 2785SOL     OW 9253   6.488   3.675   2.332 -0.1915  0.2761  0.2904
 2785SOL    HW1 9254   6.547   3.626   2.269  1.1502  1.7090  0.3681
 2785SOL    HW2 9255   6.512   3.772   2.331 -3.7615  1.3002 -1.0486
 2786SOL     OW 9256   1.623   0.810   1.147  0.7883 -0.4897  0.6913
 2786SOL    HW1 9257   1.712   0.802   1.191  0.6616  0.4909  1.1728
 2786SOL    HW2 9258   1.585   0.901   1.166  0.1986 -0.4725 -0.4624
 2787SOL     OW 9259   4.991   3.789   6.486  0.0016  0.4197 -0.2656
 2787SOL    HW1 9260   5.035   3.743   6.563 -0.4416  0.6843  0.1533
 2787SOL    HW2 9261   5.018   3.745   6.400 -0.0916 -0.3505  0.0954
 2788SOL     OW 9262   0.722   4.893   5.130  0.5340 -0.2716  0.2156
 2788SOL    HW1 9263   0.738   4.991   5.133  1.0682 -0.2661 -1.8791
 2788SOL    HW2 9264   0.673   4.869   5.046  0.0470 -1.7669  0.8777
 2789SOL     OW 9265   0.826   5.016   3.542 -0.0549  0.0087  0.8840
 2789SOL    HW1 9266   0.738   4.984   3.578 -0.1202 -0.6519  0.1471
 2789SOL    HW2 9267   0.810   5.081   3.467  0.0891  0.8530  1.5619
 2790SOL     OW 9268   3.227   6.577   0.952  0.2406 -0.1037  0.1886
 2790SOL    HW1 9269   3.309   6.570   1.010  0.3991  1.2233  0.1424
 2790SOL    HW2 9270   3.169   6.651   0.985 -1.0431 -1.1199  0.3052
 2791SOL     OW 9271   6.375   2.935   3.229  0.3084 -0.0443 -0.4181
 2791SOL    HW1 9272   6.314   2.993   3.175  1.0049  0.2049 -0.9581
 2791SOL    HW2 9273   6.324   2.858   3.265 -0.3383  0.1850 -0.8178
 2792SOL     OW 9274   3.419   0.305   4.228 -0.1703 -0.1298 -0.1276
 2792SOL    HW1 9275   3.435   0.289   4.130  1.2214  0.9236 -0.1033
 2792SOL    HW2 9276   3.430   0.402   4.248  0.7972 -0.5002  1.2848
 2793SOL     OW 9277   4.655   5.013   1.979  0.0988  0.6042  0.1980
 2793SOL    HW1 9278   4.609   4.981   2.061  0.4044 -0.3824  0.0029
 2793SOL    HW2 9279   4.745   5.050   2.003 -0.4597  1.8164  0.4859
 2794SOL     OW 9280   0.747   1.720   5.971 -0.2266 -0.0988 -0.4234
 2794SOL    HW1 9281   0.684   1.697   5.896  0.5884 -1.7855 -0.6353
 2794SOL    HW2 9282   0.829   1.663   5.964 -0.2110 -0.4346  1.8610
 2795SOL     OW 9283   2.341   5.838   2.018  0.0850  0.1286  0.3151
 2795SOL    HW1 9284   2.390   5.804   2.098 -1.8712 -1.8397  0.7773
 2795SOL    HW2 9285   2.403   5.836   1.938  1.7307  1.1100  1.4960
 2796SOL     OW 9286   2.054   6.776   3.938  0.1101  0.1475  0.5053
 2796SOL    HW1 9287   2.149   6.756   3.916  0.4658 -1.0515  2.8044
 2796SOL    HW2 9288   1.995   6.705   3.898  0.4722 -0.6026  1.2793
 2797SOL     OW 9289   3.746   0.591   3.913 -0.5986 -0.4278 -0.1621
 2797SOL    HW1 9290   3.737   0.496   3.884  0.5985 -1.4955  2.6790
 2797SOL    HW2 9291   3.839   0.623   3.894 -0.6438 -0.2133 -0.0216
 2798SOL     OW 9292   5.888   6.303   1.704 -0.0435 -0.1078  0.5323
 2798SOL    HW1 9293   5.931   6.224   1.659  0.4952  0.4869 -0.0052
 2798SOL    HW2 9294   5.869   6.280   1.800  2.1852 -0.1411  1.0124
 2799SOL     OW 9295   4.525   5.654   5.223  0.6128 -0.1417  0.2978
 2799SOL    HW1 9296   4.546   5.561   5.192  2.8972 -0.6147  2.8814
 2799SOL    HW2 9297   4.555   5.720   5.155 -0.7998 -1.2247 -1.4585
 2800SOL     OW 9298   4.941   6.357   6.398 -0.0082  0.6380 -0.1234
 2800SOL    HW1 9299   4.936   6.366   6.298 -1.9423 -0.3508 -0.1569
 2800SOL    HW2 9300   4.927   6.262   6.424 -1.2428  1.1312  1.1540
 2801SOL     OW 9301   1.186   5.383   6.721  0.6220  0.6806  0.6748
 2801SOL    HW1 9302   1.141   5.323   6.788  1.3622  0.3949  0.9255
 2801SOL    HW2 9303   1.118   5.417   6.657 -0.1521  1.1730  1.7223
 2802SOL     OW 9304   4.977   0.069   0.080 -0.7369  0.0678  0.0604
 2802SOL    HW1 9305   4.896   0.109   0.123 -1.1000 -1.2044  0.5982
 2802SOL    HW2 9306   4.966  -0.031   0.074 -0.2635  0.0909 -2.0777
 2803SOL     OW 9307   2.360   3.697   5.604  0.5136 -0.2083  0.4849
 2803SOL    HW1 9308   2.329   3.667   5.514  0.8005  1.3021 -0.1504
 2803SOL    HW2 9309   2.460   3.704   5.605  0.4739  0.3590  0.7272
 2804SOL     OW 9310   1.827   3.880   3.096 -0.3485 -0.1602 -0.5938
 2804SOL    HW1 9311   1.834   3.801   3.157  1.8125 -0.3136 -0.9424
 2804SOL    HW2 9312   1.875   3.958   3.136  1.0450 -0.2354 -1.9743
 2805SOL     OW 9313   5.390   2.067   2.581 -0.3357  0.5669 -0.1730
 2805SOL    HW1 9314   5.373   2.030   2.490 -0.7494  1.8440 -0.6387
 2805SOL    HW2 9315   5.481   2.039   2.612 -0.5856 -0.7183 -0.5304
 2806SOL     OW 9316   0.152   4.360   4.126 -0.0246  0.2122  0.0419
 2806SOL    HW1 9317   0.107   4.280   4.086  2.5022 -1.2708 -0.0726
 2806SOL    HW2 9318   0.219   4.397   4.061  0.6844  0.7885  1.0674
 2807SOL     OW 9319   2.118   0.850   1.425  0.1110  0.0755 -0.4227
 2807SOL    HW1 9320   2.154   0.757   1.427  1.5648  0.5286 -2.3776
 2807SOL    HW2 9321   2.029   0.850   1.379 -0.3199 -0.4477  0.3907
 2808SOL     OW 9322   0.900   5.761   0.867  0.1131  0.0271  0.2088
 2808SOL    HW1 9323   0.905   5.832   0.937  0.7276  1.6118 -1.3671
 2808SOL    HW2 9324   0.805   5.737   0.850 -0.1534  1.0355  0.2366
 2809SOL     OW 9325   0.741   4.410   2.764 -0.6154  0.4060  0.1237
 2809SOL    HW1 9326   0.801   4.336   2.734  1.3770  1.9645  0.1270
 2809SOL    HW2 9327   0.668   4.423   2.697  0.4432  0.0682 -1.1205
 2810SOL     OW 9328   1.665   5.036   3.596  0.3044  0.1495  0.7902
 2810SOL    HW1 9329   1.654   5.049   3.694  1.1877  0.5153  0.8496
 2810SOL    HW2 9330   1.707   4.946   3.579 -0.5895 -0.2584  0.6959
 2811SOL     OW 9331   0.292   0.073   0.372  0.1256  0.0288 -0.0800
 2811SOL    HW1 9332   0.279   0.054   0.274 -2.7960  2.1693 -0.2278
 2811SOL    HW2 9333   0.223   0.138   0.403  2.4507  1.3126  2.9106
 2812SOL     OW 9334   2.172   5.817   0.337  0.3830 -0.4931 -0.0691
 2812SOL    HW1 9335   2.213   5.856   0.419  1.3159 -0.1177 -0.7080
 2812SOL    HW2 9336   2.084   5.776   0.361  0.0465  0.7155  0.8835
 2813SOL     OW 9337   1.205   2.201   4.220 -0.0248  0.0022 -0.4187
 2813SOL    HW1 9338   1.184   2.145   4.300 -1.5585  1.0584 -0.0534
 2813SOL    HW2 9339   1.222   2.141   4.141  1.0532 -1.0313  0.5558
 2814SOL     OW 9340   3.305   5.551   6.569 -0.0114  0.4912  0.0503
 2814SOL    HW1 9341   3.396   5.580   6.540  0.6816 -3.0290 -1.8134
 2814SOL    HW2 9342   3.309   5.514   6.662  0.3939  0.5643  0.0626
 2815SOL     OW 9343   6.986   5.097   6.347 -0.6897 -0.2296  0.3521
 2815SOL    HW1 9344   7.016   5.180   6.395 -2.5359  0.1625  0.8935
 2815SOL    HW2 9345   6.911   5.055   6.397 -0.6850 -1.4786 -0.6564
 2816SOL     OW 9346   1.039   4.834   0.443  0.4176  0.2324  0.5452
 2816SOL    HW1 9347   1.047   4.801   0.537 -0.8198 -2.3263 -0.1519
 2816SOL    HW2 9348   1.093   4.775   0.382 -2.5873 -1.3132 -0.8766
 2817SOL     OW 9349   4.435   6.299   1.583  0.1158  0.1119  0.0163
 2817SOL    HW1 9350   4.364   6.230   1.596 -0.5686  1.0704  1.7067
 2817SOL    HW2 9351   4.521   6.254   1.560 -1.1028 -1.0457 -2.7812
 2818SOL     OW 9352   3.505   1.046   1.665 -0.4390  0.0059 -0.1587
 2818SOL    HW1 9353   3.453   1.116   1.616 -1.0322 -0.7309 -0.5910
 2818SOL    HW2 9354   3.596   1.082   1.686  0.0429  0.1709 -2.2686
 2819SOL     OW 9355   0.761   1.517   1.445  0.1643 -0.3062  0.0166
 2819SOL    HW1 9356   0.778   1.418   1.446 -0.1400 -0.5181 -3.3448
 2819SOL    HW2 9357   0.665   1.535   1.466  0.1950 -0.7137  0.5243
 2820SOL     OW 9358   6.941   4.535   2.543 -0.3276  0.5535 -0.2089
 2820SOL    HW1 9359   7.002   4.501   2.472 -0.5487 -0.5099  0.0956
 2820SOL    HW2 9360   6.972   4.625   2.574  2.1448 -0.6663  1.1783
 2821SOL     OW 9361   2.853   3.650   5.978  0.2146  0.0493  0.0070
 2821SOL    HW1 9362   2.900   3.675   6.062  0.9796  0.1922 -0.4600
 2821SOL    HW2 9363   2.908   3.677   5.899 -0.5100 -0.0493 -0.5451
 2822SOL     OW 9364   5.192   3.211   1.994 -0.3968 -0.1296 -0.2153
 2822SOL    HW1 9365   5.105   3.261   1.987 -0.9762 -1.1689 -0.7683
 2822SOL    HW2 9366   5.173   3.113   1.997  0.7184 -0.3230  0.7942
 2823SOL     OW 9367   5.016   0.928   1.551  0.3506 -0.2334  0.2908
 2823SOL    HW1 9368   5.032   1.018   1.592  2.7832  0.0009 -1.0228
 2823SOL    HW2 9369   5.080   0.862   1.590 -0.0502 -0.9394 -0.2293
 2824SOL     OW 9370   0.043   4.413   5.995  0.0175 -0.1540 -0.4857
 2824SOL    HW1 9371  -0.038   4.429   5.939  0.4537 -1.1703 -1.4413
 2824SOL    HW2 9372   0.122   4.394   5.936  0.7621 -0.0491  0.4449
 2825SOL     OW 9373   5.523   0.341   6.963 -0.2638 -0.1359 -0.0539
 2825SOL    HW1 9374   5.503   0.286   7.044 -3.1010 -1.3568 -1.3935
 2825SOL    HW2 9375   5.622   0.347   6.950  0.2312 -1.7246  2.2595
 2826SOL     OW 9376   4.868   3.048   6.200 -0.0744 -0.7184 -0.2018
 2826SOL    HW1 9377   4.884   3.018   6.106 -0.7083  2.9464 -1.6747
 2826SOL    HW2 9378   4.883   2.972   6.263  2.1234 -2.8991 -3.0834
 2827SOL     OW 9379   5.878   6.424   0.115 -0.6289  0.0900 -0.3676
 2827SOL    HW1 9380   5.891   6.449   0.211  0.9131  1.7980 -0.9754
 2827SOL    HW2 9381   5.783   6.395   0.101 -1.1408  0.7440  1.4562
 2828SOL     OW 9382   2.358   3.081   1.210 -0.3613  0.1565  0.0654
 2828SOL    HW1 9383   2.280   3.040   1.255 -0.4193  0.7700  0.5298
 2828SOL    HW2 9384   2.328   3.157   1.153  0.0563  1.5471  1.6224
 2829SOL     OW 9385   4.151   3.393   3.828 -0.8244  0.1141  0.2200
 2829SOL    HW1 9386   4.224   3.341   3.872 -0.0614 -0.0875 -1.2466
 2829SOL    HW2 9387   4.064   3.374   3.875 -0.1162 -0.3983  1.3685
 2830SOL     OW 9388   4.496   5.395   6.511 -0.0397  0.2213  0.2402
 2830SOL    HW1 9389   4.531   5.470   6.455 -0.8219  0.4172 -0.0132
 2830SOL    HW2 9390   4.413   5.426   6.558 -1.4538 -1.0101 -1.3061
 2831SOL     OW 9391   0.215   2.834   0.749  0.5111  0.2458  0.7641
 2831SOL    HW1 9392   0.120   2.801   0.749  0.5918 -0.1340  2.7858
 2831SOL    HW2 9393   0.216   2.932   0.768  0.5277  0.2999  0.4939
 2832SOL     OW 9394   1.711   3.902   1.470 -0.2389 -0.4923 -0.1659
 2832SOL    HW1 9395   1.635   3.844   1.440  0.5579 -1.9603  0.5155
 2832SOL    HW2 9396   1.716   3.901   1.570  0.4813 -0.1524 -0.1901
 2833SOL     OW 9397   1.848   2.000   3.159 -0.4432  0.0005 -0.0084
 2833SOL    HW1 9398   1.817   2.090   3.129  0.8286  0.1588 -0.9605
 2833SOL    HW2 9399   1.929   2.010   3.216 -0.1742 -0.5387 -0.2781
 2834SOL     OW 9400   4.214   4.799   3.663  0.4108 -0.7454 -0.0722
 2834SOL    HW1 9401   4.306   4.826   3.692  0.5382  0.8441 -1.7654
 2834SOL    HW2 9402   4.153   4.802   3.741  1.9089 -2.6107  1.2680
 2835SOL     OW 9403   1.405   1.345   1.034  0.0453  0.1565 -0.5409
 2835SOL    HW1 9404   1.309   1.320   1.018 -0.1333  0.1972  0.4134
 2835SOL    HW2 9405   1.418   1.367   1.131  1.0445  0.0597 -0.6449
 2836SOL     OW 9406   2.170   5.778   2.236  0.2943 -0.1499  0.2263
 2836SOL    HW1 9407   2.095   5.844   2.247 -0.3435 -1.0999  1.8410
 2836SOL    HW2 9408   2.200   5.778   2.140 -1.6883  0.3340 -0.4423
 2837SOL     OW 9409   5.769   1.200   3.044 -0.3158 -0.1217  0.4006
 2837SOL    HW1 9410   5.800   1.244   3.128  2.0740 -0.8652 -0.0113
 2837SOL    HW2 9411   5.729   1.111   3.065 -0.1286 -0.1143  0.7869
 2838SOL     OW 9412   4.916   2.600   6.817 -0.3411 -0.0126 -0.0881
 2838SOL    HW1 9413   4.839   2.644   6.772 -0.5029  0.8759  1.0180
 2838SOL    HW2 9414   4.993   2.663   6.822 -0.1497 -0.2776  0.4030
 2839SOL     OW 9415   6.833   3.134   3.110 -0.0497 -0.1515 -0.1373
 2839SOL    HW1 9416   6.868   3.115   3.018 -2.1806 -0.7392 -0.9050
 2839SOL    HW2 9417   6.788   3.052   3.146  1.6524 -0.2673  1.9292
 2840SOL     OW 9418   0.086   4.629   1.581  0.2949 -0.4641 -0.2011
 2840SOL    HW1 9419   0.152   4.691   1.539 -1.9545  1.3304 -1.2553
 2840SOL    HW2 9420   0.089   4.639   1.680  0.7767  0.4427 -0.3001
 2841SOL     OW 9421   0.246   2.630   0.538 -0.1511 -0.8194 -0.5228
 2841SOL    HW1 9422   0.150   2.620   0.513 -0.2476  1.1238 -1.0163
 2841SOL    HW2 9423   0.254   2.690   0.617  0.7070 -0.1768 -1.0803
 2842SOL     OW 9424   0.285   6.508   5.632  0.4425 -0.1285 -0.0430
 2842SOL    HW1 9425   0.383   6.488   5.625  0.3388 -0.6813  0.0439
 2842SOL    HW2 9426   0.251   6.537   5.543  0.0681 -2.8431 -0.8572
 2843SOL     OW 9427   0.982   3.663   4.362  0.2217  0.1286  0.0443
 2843SOL    HW1 9428   0.983   3.563   4.363 -1.7919  0.0553  1.5237
 2843SOL    HW2 9429   0.947   3.695   4.274  3.3777 -0.2902 -1.5140
 2844SOL     OW 9430   4.116   4.956   6.588  0.4735  0.4607  0.1330
 2844SOL    HW1 9431   4.097   5.006   6.672 -0.0340  0.6276 -0.0778
 2844SOL    HW2 9432   4.058   4.991   6.515  0.3482 -0.2140 -0.0959
 2845SOL     OW 9433   3.899   1.864   2.981  0.1536  0.3871  0.3412
 2845SOL    HW1 9434   3.910   1.787   2.918  0.6695 -0.9906  2.0237
 2845SOL    HW2 9435   3.804   1.892   2.983  0.2023  0.7908 -1.3794
 2846SOL     OW 9436   5.195   5.769   6.431  0.2386  0.2580 -0.3766
 2846SOL    HW1 9437   5.216   5.680   6.472  0.6712  0.4185 -0.2454
 2846SOL    HW2 9438   5.162   5.755   6.338 -0.8375 -0.1159  0.0445
 2847SOL     OW 9439   3.585   3.680   1.559 -0.1265  0.9710 -0.6663
 2847SOL    HW1 9440   3.569   3.777   1.572 -2.3685  0.6105 -0.3985
 2847SOL    HW2 9441   3.503   3.628   1.583  1.0942 -1.0283 -0.5201
 2848SOL     OW 9442   6.484   4.082   4.593  0.2308 -0.0736  0.4888
 2848SOL    HW1 9443   6.452   4.031   4.513 -0.2905 -1.4551  1.5385
 2848SOL    HW2 9444   6.452   4.177   4.587  0.3888 -0.0905 -1.0285
 2849SOL     OW 9445   4.742   6.361   1.383  0.2918  0.2913 -0.4479
 2849SOL    HW1 9446   4.729   6.452   1.423  1.0420  1.0989 -1.9306
 2849SOL    HW2 9447   4.706   6.361   1.290 -0.4349 -1.1929 -0.1824
 2850SOL     OW 9448   2.960   5.991   1.904 -0.1519 -0.0225 -0.2450
 2850SOL    HW1 9449   2.874   5.986   1.956 -0.9897 -0.3599 -1.6056
 2850SOL    HW2 9450   3.035   6.012   1.966 -1.0053 -1.0613  1.2083
 2851SOL     OW 9451   3.299   4.043   2.070  0.0542  0.1332 -0.0766
 2851SOL    HW1 9452   3.304   3.947   2.099  1.3337  0.0603 -0.4690
 2851SOL    HW2 9453   3.391   4.077   2.053 -0.4306  1.2566 -0.5418
 2852SOL     OW 9454   6.209   4.552   4.384 -0.2756 -0.7761  0.7847
 2852SOL    HW1 9455   6.114   4.584   4.378 -0.0004  0.0760  0.7841
 2852SOL    HW2 9456   6.264   4.620   4.432  0.8884  0.0301 -1.5198
 2853SOL     OW 9457   1.434   5.090   1.641 -0.0229 -0.3448 -0.0171
 2853SOL    HW1 9458   1.533   5.095   1.643 -0.0174 -0.5289  0.2271
 2853SOL    HW2 9459   1.395   5.152   1.709 -0.0467 -0.9576  0.5382
 2854SOL     OW 9460   1.855   2.001   6.961 -0.0050  0.8615 -0.8749
 2854SOL    HW1 9461   1.847   1.913   6.915  1.0581  0.6569 -0.7055
 2854SOL    HW2 9462   1.772   2.019   7.014 -0.7095  0.5186 -1.8417
 2855SOL     OW 9463   0.865   1.673   5.395 -0.9655  0.0538  0.3160
 2855SOL    HW1 9464   0.869   1.694   5.492  1.8443  0.8598  0.1040
 2855SOL    HW2 9465   0.863   1.757   5.342  0.0891 -0.3168 -0.3517
 2856SOL     OW 9466   0.672   5.124   3.031  0.0059 -0.1166  0.0583
 2856SOL    HW1 9467   0.572   5.131   3.034 -0.1396 -1.6864 -0.2470
 2856SOL    HW2 9468   0.698   5.031   3.005  1.5677 -0.8833  3.6804
 2857SOL     OW 9469   1.728   4.366   6.893 -0.2358 -0.1669  0.1160
 2857SOL    HW1 9470   1.686   4.403   6.811 -0.8943 -1.3731 -0.1216
 2857SOL    HW2 9471   1.819   4.405   6.905 -1.1211  1.9587  0.2553
 2858SOL     OW 9472   3.762   4.895   1.705  0.0960 -0.0117  0.1617
 2858SOL    HW1 9473   3.848   4.888   1.756  0.1085  1.9707  0.4838
 2858SOL    HW2 9474   3.688   4.857   1.760  0.4775 -0.0268  0.6801
 2859SOL     OW 9475   6.879   6.880   3.328 -0.0780  0.1906 -0.9167
 2859SOL    HW1 9476   6.817   6.951   3.359  1.2131  0.9209  0.0889
 2859SOL    HW2 9477   6.894   6.814   3.401  1.6894  1.0112 -0.4784
 2860SOL     OW 9478   0.009   1.386   1.637 -0.2744 -0.1037 -0.5472
 2860SOL    HW1 9479  -0.083   1.391   1.676 -0.6526  1.3405 -1.5701
 2860SOL    HW2 9480   0.048   1.477   1.632  1.1118 -0.6657 -0.4222
 2861SOL     OW 9481   3.812   3.866   5.870  0.1185  0.8375 -0.5592
 2861SOL    HW1 9482   3.733   3.815   5.836 -0.4008  0.9823  0.3892
 2861SOL    HW2 9483   3.891   3.848   5.812 -0.2968 -0.3090 -0.7941
 2862SOL     OW 9484   5.352   1.400   1.968  0.2482 -0.4067  0.3755
 2862SOL    HW1 9485   5.305   1.315   1.991 -1.0543 -0.6247 -2.6308
 2862SOL    HW2 9486   5.285   1.469   1.941  1.3057  1.5722  2.4977
 2863SOL     OW 9487   4.820   0.104   6.024 -0.3729 -0.2973  0.0654
 2863SOL    HW1 9488   4.746   0.107   5.957 -0.7606 -2.7833  0.2838
 2863SOL    HW2 9489   4.828   0.012   6.061  1.0413  0.5586  2.1148
 2864SOL     OW 9490   4.641   3.740   6.274  0.4082  0.4646 -0.2002
 2864SOL    HW1 9491   4.602   3.825   6.308  0.4012  0.1369  0.6530
 2864SOL    HW2 9492   4.713   3.709   6.336  0.8683  0.1930 -0.8600
 2865SOL     OW 9493   6.434   0.659   4.104  0.0866 -0.1279  0.4365
 2865SOL    HW1 9494   6.439   0.627   4.199 -3.1132  3.3480  2.0160
 2865SOL    HW2 9495   6.491   0.740   4.094 -0.4504  0.1641 -0.3020
 2866SOL     OW 9496   4.336   5.510   5.564  0.2440  0.2464  0.5228
 2866SOL    HW1 9497   4.360   5.603   5.534  1.4051 -0.4133 -0.7273
 2866SOL    HW2 9498   4.368   5.495   5.657  1.0045  0.7760  0.3574
 2867SOL     OW 9499   0.505   6.891   2.753  0.2018 -0.1003 -0.6219
 2867SOL    HW1 9500   0.466   6.869   2.843 -0.8317 -0.6281 -1.1759
 2867SOL    HW2 9501   0.535   6.987   2.752  1.2005 -0.3770  0.6054
 2868SOL     OW 9502   0.633   1.810   5.513  0.0336 -0.0880  0.8389
 2868SOL    HW1 9503   0.667   1.721   5.480 -2.4822 -0.5523 -0.8315
 2868SOL    HW2 9504   0.697   1.882   5.486  0.6160 -1.0710 -0.5624
 2869SOL     OW 9505   4.157   5.389   3.725  1.0454  0.0455  0.1191
 2869SOL    HW1 9506   4.142   5.400   3.823  2.8835  1.8867  0.2600
 2869SOL    HW2 9507   4.186   5.476   3.685  0.7493 -0.7620 -1.9967
 2870SOL     OW 9508   1.898   0.578   1.636 -0.3697 -0.3423  0.2223
 2870SOL    HW1 9509   1.959   0.637   1.689 -0.3515  0.9831 -1.1970
 2870SOL    HW2 9510   1.812   0.565   1.686 -0.0439  0.1908  0.9374
 2871SOL     OW 9511   4.820   1.978   1.720  0.1960 -0.3218  0.2025
 2871SOL    HW1 9512   4.784   2.037   1.792  0.5232 -1.6555  1.5158
 2871SOL    HW2 9513   4.890   2.027   1.668 -0.1337  0.7099  0.7113
 2872SOL     OW 9514   2.097   2.924   1.157 -0.3865 -0.2213 -0.0253
 2872SOL    HW1 9515   2.091   2.883   1.066  0.5919 -0.3650 -0.0322
 2872SOL    HW2 9516   2.100   2.851   1.226  2.4295 -0.2771 -0.0940
 2873SOL     OW 9517   6.897   6.597   1.277  0.7306  0.5655  0.1110
 2873SOL    HW1 9518   6.974   6.565   1.332 -0.2408  0.4085  1.4598
 2873SOL    HW2 9519   6.811   6.574   1.324 -0.1061  1.7882 -0.7492
 2874SOL     OW 9520   3.043   0.899   3.584 -0.3038 -0.7287  0.6547
 2874SOL    HW1 9521   2.982   0.850   3.522  2.9146 -0.8115 -2.7837
 2874SOL    HW2 9522   3.044   0.996   3.561  0.5901 -0.6679  0.8953
 2875SOL     OW 9523   1.164   0.032   1.213  0.1687  0.1102  0.7098
 2875SOL    HW1 9524   1.179   0.049   1.310  0.6170  1.5647  0.4095
 2875SOL    HW2 9525   1.179   0.117   1.161  1.2592 -0.9355 -0.7820
 2876SOL     OW 9526   0.957   4.802   5.046 -0.0949 -0.5781  0.8858
 2876SOL    HW1 9527   0.875   4.810   5.103  0.3291 -0.9616  1.5612
 2876SOL    HW2 9528   0.930   4.780   4.952 -0.7201 -2.9206  1.5285
 2877SOL     OW 9529   2.601   0.932   5.898  0.4567 -0.2158  0.3313
 2877SOL    HW1 9530   2.700   0.927   5.887  0.3769 -0.3012 -0.4066
 2877SOL    HW2 9531   2.574   0.889   5.984  1.0830  0.0371  0.6574
 2878SOL     OW 9532   3.426   4.175   3.605  0.5545 -0.0993  0.1323
 2878SOL    HW1 9533   3.505   4.160   3.546  0.6459  1.9394 -0.3545
 2878SOL    HW2 9534   3.343   4.142   3.559  0.7888  0.2977 -0.5894
 2879SOL     OW 9535   2.352   3.450   6.522 -0.3597  0.3742 -0.5021
 2879SOL    HW1 9536   2.349   3.390   6.442 -1.3069 -0.2564 -0.0128
 2879SOL    HW2 9537   2.260   3.461   6.559  0.1764 -0.1220  1.0761
 2880SOL     OW 9538   1.009   0.714   4.601  0.0590  0.4227  0.4104
 2880SOL    HW1 9539   0.989   0.756   4.513  1.0417 -0.2609 -0.1610
 2880SOL    HW2 9540   1.046   0.782   4.664 -2.7862  1.4538  1.1098
 2881SOL     OW 9541   3.443   6.581   3.676 -0.4435 -0.7679  0.0815
 2881SOL    HW1 9542   3.494   6.569   3.761 -2.1263 -0.0107  1.2466
 2881SOL    HW2 9543   3.481   6.658   3.625 -1.3158  0.7673  1.6713
 2882SOL     OW 9544   7.003   6.158   1.043 -0.0101 -0.1165 -0.3384
 2882SOL    HW1 9545   6.982   6.066   1.076 -1.3702  0.0626 -0.6742
 2882SOL    HW2 9546   7.083   6.193   1.092 -0.8904 -0.5590  1.5032
 2883SOL     OW 9547   4.882   0.852   5.681  0.1277 -0.0599 -0.5372
 2883SOL    HW1 9548   4.966   0.839   5.734  0.0133  0.8984 -0.0887
 2883SOL    HW2 9549   4.834   0.933   5.715 -1.0805 -0.7123 -0.6721
 2884SOL     OW 9550   0.045   6.741   0.504  0.3903 -0.1796  0.1413
 2884SOL    HW1 9551   0.017   6.808   0.573 -1.1149 -0.3735 -0.2533
 2884SOL    HW2 9552   0.027   6.648   0.539 -0.4809 -0.2743 -0.5466
 2885SOL     OW 9553   0.053   2.330   2.492 -0.1981 -0.0518 -0.3641
 2885SOL    HW1 9554   0.088   2.268   2.420 -0.3294 -0.6505  0.0781
 2885SOL    HW2 9555  -0.047   2.326   2.493 -0.2079  0.2039 -0.3583
 2886SOL     OW 9556   2.873   6.044   6.765  0.2378 -0.2182 -0.0805
 2886SOL    HW1 9557   2.857   6.084   6.675 -0.1693 -0.9656 -0.3488
 2886SOL    HW2 9558   2.829   5.954   6.770 -0.1363  0.0138  1.0264
 2887SOL     OW 9559   0.733   6.888   5.380  0.4869  0.4865  0.3024
 2887SOL    HW1 9560   0.795   6.963   5.403 -0.5053  1.4202  0.0402
 2887SOL    HW2 9561   0.683   6.859   5.462  0.6436  0.3252  0.3410
 2888SOL     OW 9562   0.481   6.846   1.406 -0.0442  0.5495  0.0439
 2888SOL    HW1 9563   0.474   6.937   1.364 -0.0316  0.0038 -1.1825
 2888SOL    HW2 9564   0.575   6.829   1.433  0.2202  0.3964 -0.9322
 2889SOL     OW 9565   1.734   1.037   2.499  0.5903  0.0256  0.3404
 2889SOL    HW1 9566   1.793   0.958   2.481 -0.1164 -0.6189  0.7865
 2889SOL    HW2 9567   1.678   1.056   2.418 -0.1274 -0.7247  0.6417
 2890SOL     OW 9568   1.252   0.078   1.471 -0.1795 -0.1901  0.4181
 2890SOL    HW1 9569   1.214  -0.010   1.500 -0.0997  0.1976  1.7907
 2890SOL    HW2 9570   1.340   0.092   1.517  1.0140 -0.4790 -1.6869
 2891SOL     OW 9571   6.565   3.313   1.302 -0.9935  0.4362  0.2680
 2891SOL    HW1 9572   6.623   3.231   1.307  0.7397  1.5895 -0.2507
 2891SOL    HW2 9573   6.499   3.311   1.378 -2.2000 -2.2664 -0.7034
 2892SOL     OW 9574   5.203   4.615   1.215 -0.2509  0.0293  0.7561
 2892SOL    HW1 9575   5.160   4.697   1.178 -1.4321 -0.8046  0.2083
 2892SOL    HW2 9576   5.301   4.631   1.228 -0.4600  1.5048  0.6467
 2893SOL     OW 9577   6.960   4.829   4.366 -0.0886 -0.2960 -0.0269
 2893SOL    HW1 9578   7.046   4.844   4.413  0.0983  0.4932 -0.5936
 2893SOL    HW2 9579   6.884   4.860   4.423 -0.0825 -1.8642  0.8629
 2894SOL     OW 9580   1.510   5.266   0.926 -0.2228  0.1233  0.3141
 2894SOL    HW1 9581   1.434   5.203   0.944  1.1685 -1.9502 -0.6239
 2894SOL    HW2 9582   1.595   5.214   0.925  0.8559  1.8184 -1.9155
 2895SOL     OW 9583   1.780   6.401   5.625 -0.1833  0.3140 -0.1338
 2895SOL    HW1 9584   1.816   6.375   5.714  3.0023  0.9930 -1.0827
 2895SOL    HW2 9585   1.794   6.327   5.560 -1.3299  0.2904 -0.3740
 2896SOL     OW 9586   0.806   0.189   5.425 -0.3946 -0.2925  0.4996
 2896SOL    HW1 9587   0.882   0.138   5.385 -0.6658 -0.1421 -0.2255
 2896SOL    HW2 9588   0.843   0.266   5.477  0.0336 -1.4713  1.9959
 2897SOL     OW 9589   2.029   3.792   3.687  0.4910 -0.2325 -0.2305
 2897SOL    HW1 9590   2.050   3.694   3.676 -0.1964 -0.5449  1.1057
 2897SOL    HW2 9591   2.072   3.843   3.612  2.1127 -1.3807 -0.1418
 2898SOL     OW 9592   5.692   2.565   1.995  0.0859  0.3568 -0.1418
 2898SOL    HW1 9593   5.675   2.657   2.031  0.0707 -0.3134  1.6337
 2898SOL    HW2 9594   5.645   2.498   2.051  0.5172 -0.7981 -1.1191
 2899SOL     OW 9595   6.697   3.656   7.020 -0.5336  0.3968 -0.3566
 2899SOL    HW1 9596   6.717   3.558   7.030 -1.3544  0.0683 -1.7707
 2899SOL    HW2 9597   6.721   3.703   7.105  0.4403 -0.9296  0.1385
 2900SOL     OW 9598   4.276   4.292   5.626  0.2904  0.1215  0.1424
 2900SOL    HW1 9599   4.265   4.351   5.706  0.3578 -1.8130  1.6805
 2900SOL    HW2 9600   4.191   4.241   5.611  0.0241  0.9896 -1.5217
 2901SOL     OW 9601   2.878   5.489   2.069  0.2251 -0.6598 -0.2140
 2901SOL    HW1 9602   2.940   5.562   2.099  1.1980 -1.2519 -0.7226
 2901SOL    HW2 9603   2.784   5.523   2.069  0.6241  0.4946 -0.1336
 2902SOL     OW 9604   6.389   5.068   4.301  0.0058  0.0598  1.0214
 2902SOL    HW1 9605   6.437   5.154   4.322  0.5267  0.3357 -1.0387
 2902SOL    HW2 9606   6.290   5.083   4.304  0.0703  1.2360 -0.9243
 2903SOL     OW 9607   4.207   4.932   1.704  0.3690  0.0911 -0.1248
 2903SOL    HW1 9608   4.139   4.932   1.777 -0.5413 -1.3998 -0.9033
 2903SOL    HW2 9609   4.298   4.926   1.743  0.0250  1.3969  0.9254
 2904SOL     OW 9610   2.713   4.648   4.363 -0.5581 -0.5120  0.2145
 2904SOL    HW1 9611   2.794   4.702   4.339  0.2474 -1.7893 -0.0900
 2904SOL    HW2 9612   2.655   4.637   4.282  1.1918 -3.2010 -0.8530
 2905SOL     OW 9613   1.118   3.482   4.118 -0.5147  0.6320  0.2712
 2905SOL    HW1 9614   1.128   3.470   4.019  1.6096  0.1103  0.5111
 2905SOL    HW2 9615   1.208   3.495   4.160 -1.1785 -0.9957  2.3627
 2906SOL     OW 9616   4.312   5.620   3.616 -0.1268 -0.2740  0.0854
 2906SOL    HW1 9617   4.395   5.639   3.668 -0.8667 -0.9239  1.5708
 2906SOL    HW2 9618   4.335   5.562   3.537  0.9582  0.3681 -0.0912
 2907SOL     OW 9619   0.355   1.665   4.627  0.1224  0.4279  0.4601
 2907SOL    HW1 9620   0.334   1.758   4.596  2.3826  2.7960  4.9947
 2907SOL    HW2 9621   0.275   1.628   4.675 -0.0570  0.9855  0.6017
 2908SOL     OW 9622   5.556   5.250   1.795 -0.1010  0.1572 -0.4941
 2908SOL    HW1 9623   5.508   5.265   1.881  0.5453  3.0972 -0.5365
 2908SOL    HW2 9624   5.518   5.169   1.749 -2.4990  0.2565  1.1341
 2909SOL     OW 9625   0.871   3.255   1.534  0.3875  0.3269 -0.0422
 2909SOL    HW1 9626   0.902   3.213   1.619  0.5304  0.1180 -0.1956
 2909SOL    HW2 9627   0.891   3.353   1.535 -0.4722  0.5079  0.5621
 2910SOL     OW 9628   0.945   1.418   1.047 -0.7728  0.1458 -0.3269
 2910SOL    HW1 9629   0.949   1.473   1.130 -1.4445  0.8292 -0.7385
 2910SOL    HW2 9630   0.867   1.356   1.052 -0.8481  0.2278 -0.4722
 2911SOL     OW 9631   5.659   3.300   3.955  0.5485 -0.0423 -0.2860
 2911SOL    HW1 9632   5.750   3.336   3.934  0.0506  0.8193 -1.0290
 2911SOL    HW2 9633   5.665   3.202   3.974  1.4455 -0.2761 -1.6435
 2912SOL     OW 9634   6.674   6.061   6.946 -0.5334 -0.6685 -0.1627
 2912SOL    HW1 9635   6.649   6.157   6.933 -0.3681 -0.6447 -0.3060
 2912SOL    HW2 9636   6.597   6.012   6.987 -0.1906 -0.2214  1.0462
 2913SOL     OW 9637   1.588   6.515   1.414 -0.6814  0.2304  0.2923
 2913SOL    HW1 9638   1.615   6.442   1.351 -1.8134 -0.3327  0.4488
 2913SOL    HW2 9639   1.530   6.478   1.486 -0.1503  1.0423  1.1620
 2914SOL     OW 9640   6.426   4.993   2.431 -0.1250 -0.0214  0.2052
 2914SOL    HW1 9641   6.504   5.035   2.385 -0.0547 -0.3268  0.0378
 2914SOL    HW2 9642   6.366   4.951   2.362 -0.2675 -0.0656  0.3559
 2915SOL     OW 9643   4.648   1.715   1.989 -0.1494  0.0574 -0.0059
 2915SOL    HW1 9644   4.593   1.683   1.912  0.4060 -0.0542 -0.3665
 2915SOL    HW2 9645   4.650   1.646   2.060 -2.4780  1.0107  1.1033
 2916SOL     OW 9646   3.226   6.197   1.180  0.1316 -0.2878 -0.6960
 2916SOL    HW1 9647   3.171   6.264   1.229 -1.8479 -1.3453 -1.3786
 2916SOL    HW2 9648   3.288   6.151   1.244 -0.4285  0.2735  0.2701
 2917SOL     OW 9649   1.632   0.383   3.070  0.4095  0.6041  0.1619
 2917SOL    HW1 9650   1.657   0.389   2.974 -1.7867  0.1029 -0.5130
 2917SOL    HW2 9651   1.559   0.315   3.081  0.0891  1.1898  2.0755
 2918SOL     OW 9652   6.575   4.955   6.896 -0.4182 -0.8630  0.4262
 2918SOL    HW1 9653   6.508   4.995   6.834 -0.7314  1.2376  2.0023
 2918SOL    HW2 9654   6.530   4.892   6.960 -0.9023  0.3837  1.3460
 2919SOL     OW 9655   0.659   0.777   2.820  0.0131 -0.7206  0.4500
 2919SOL    HW1 9656   0.713   0.860   2.832 -0.2773 -0.4669  0.0339
 2919SOL    HW2 9657   0.702   0.719   2.751 -0.5720 -0.2276 -0.3448
 2920SOL     OW 9658   2.300   1.676   4.205  0.3862  0.4599 -0.0406
 2920SOL    HW1 9659   2.399   1.684   4.218  0.4476 -0.9741  0.5915
 2920SOL    HW2 9660   2.263   1.610   4.271 -0.8359  0.1861 -0.9613
 2921SOL     OW 9661   1.120   0.667   6.690 -0.2135  0.1587  0.3374
 2921SOL    HW1 9662   1.136   0.696   6.784 -0.7819  1.8092 -0.0330
 2921SOL    HW2 9663   1.203   0.684   6.636 -0.2573  0.2846  0.3086
 2922SOL     OW 9664   4.920   2.948   2.997  0.0977 -0.3769  0.5815
 2922SOL    HW1 9665   4.916   3.041   2.959  0.6619 -0.4851  0.2516
 2922SOL    HW2 9666   4.865   2.887   2.940 -0.6629 -0.1619  1.0669
 2923SOL     OW 9667   4.806   4.548   6.186  0.4257 -0.7907  0.1233
 2923SOL    HW1 9668   4.873   4.539   6.259  1.9124 -0.9962 -1.2023
 2923SOL    HW2 9669   4.751   4.465   6.181  1.1605 -1.2903  0.2052
 2924SOL     OW 9670   6.235   3.206   4.978  0.4046  0.5126  0.3004
 2924SOL    HW1 9671   6.167   3.133   4.985 -0.0173  0.7566 -0.9422
 2924SOL    HW2 9672   6.229   3.248   4.888  1.2746  1.4730  0.6713
 2925SOL     OW 9673   0.221   6.968   6.232  0.3659 -0.4766  0.3221
 2925SOL    HW1 9674   0.269   7.018   6.305  1.1317  0.4018 -0.7616
 2925SOL    HW2 9675   0.158   7.030   6.185 -0.0371 -1.0130  0.1393
 2926SOL     OW 9676   6.060   0.944   3.975 -0.1285  0.2493 -0.6037
 2926SOL    HW1 9677   5.993   0.964   3.904 -0.1782 -2.0033 -1.2559
 2926SOL    HW2 9678   6.014   0.906   4.055  0.1727  0.5511 -0.2847
 2927SOL     OW 9679   1.135   3.156   2.311 -0.0226  0.4040 -0.3736
 2927SOL    HW1 9680   1.226   3.189   2.286  0.5557 -1.5274 -0.9817
 2927SOL    HW2 9681   1.085   3.130   2.229 -1.4671  2.1694 -0.1065
 2928SOL     OW 9682   4.926   1.173   0.177 -0.2011 -0.3757 -0.7826
 2928SOL    HW1 9683   5.009   1.176   0.121  1.0720  1.6531  1.0826
 2928SOL    HW2 9684   4.866   1.249   0.152 -0.9268 -1.0583 -1.1977
 2929SOL     OW 9685   0.768   2.286   4.047  0.4869  0.2438  0.0933
 2929SOL    HW1 9686   0.681   2.298   4.094 -0.1032 -0.7305 -0.7186
 2929SOL    HW2 9687   0.836   2.251   4.111  0.1444  0.5135  0.6067
 2930SOL     OW 9688   6.368   5.059   3.806  0.2705 -0.0132  0.0179
 2930SOL    HW1 9689   6.396   5.137   3.751  0.2311  1.5498  2.1143
 2930SOL    HW2 9690   6.444   4.994   3.812  0.8541  0.6135 -0.4635
 2931SOL     OW 9691   1.727   4.691   4.768  0.3164  0.4395 -0.3607
 2931SOL    HW1 9692   1.790   4.752   4.720  0.9758 -1.5928 -2.2315
 2931SOL    HW2 9693   1.770   4.658   4.853  2.5285 -1.9758 -2.2426
 2932SOL     OW 9694   0.897   6.361   1.780 -0.3799 -0.0424 -0.3948
 2932SOL    HW1 9695   0.916   6.413   1.864 -0.4992  1.7823 -1.4370
 2932SOL    HW2 9696   0.977   6.366   1.720 -0.0666 -1.8503 -0.1826
 2933SOL     OW 9697   6.545   1.306   1.592  0.2908  0.7073 -0.6533
 2933SOL    HW1 9698   6.639   1.278   1.615  0.8469  2.0620 -1.1793
 2933SOL    HW2 9699   6.547   1.395   1.547 -1.4142  1.8424  1.3421
 2934SOL     OW 9700   4.483   1.320   6.954  0.0659  0.4095 -0.0599
 2934SOL    HW1 9701   4.563   1.369   6.919 -0.5067  1.9633  0.7011
 2934SOL    HW2 9702   4.512   1.256   7.025  0.6983  0.6679 -0.0788
 2935SOL     OW 9703   0.249   2.412   4.148 -0.0725 -0.0243  0.1335
 2935SOL    HW1 9704   0.263   2.461   4.233 -0.7159 -0.2348  0.3623
 2935SOL    HW2 9705   0.161   2.437   4.108 -0.3188 -0.8294  0.1505
 2936SOL     OW 9706   4.573   5.977   1.151 -0.1738  0.0316 -0.1818
 2936SOL    HW1 9707   4.490   5.922   1.161  0.1496 -0.6527 -1.1535
 2936SOL    HW2 9708   4.652   5.916   1.142  0.2734  0.6655 -0.6147
 2937SOL     OW 9709   3.894   6.119   1.766 -0.0629 -0.2753 -0.2551
 2937SOL    HW1 9710   3.858   6.192   1.708 -0.3975 -0.8703 -0.8149
 2937SOL    HW2 9711   3.970   6.154   1.821  0.2105  0.3300 -0.9999
 2938SOL     OW 9712   2.060   6.008   6.548 -0.5008  0.3296  0.2778
 2938SOL    HW1 9713   1.998   6.070   6.501  0.3542  1.4116  0.5459
 2938SOL    HW2 9714   2.016   5.919   6.559 -1.2782  0.5043 -1.2165
 2939SOL     OW 9715   5.130   0.296   1.490  0.4560  0.2434 -0.8113
 2939SOL    HW1 9716   5.225   0.281   1.520 -0.3043 -1.6337  0.9754
 2939SOL    HW2 9717   5.108   0.231   1.418  0.0582 -0.5232 -0.0184
 2940SOL     OW 9718   4.146   6.368   4.801  0.0140 -0.2760 -0.0898
 2940SOL    HW1 9719   4.123   6.297   4.735 -1.4810  1.0491 -1.0770
 2940SOL    HW2 9720   4.211   6.433   4.761  1.7599 -1.3036  0.9771
 2941SOL     OW 9721   1.133   4.394   3.659  0.1847  0.3748 -0.6979
 2941SOL    HW1 9722   1.127   4.482   3.706 -0.1451  0.4407 -0.8622
 2941SOL    HW2 9723   1.178   4.407   3.570 -2.8579  1.0256 -2.2793
 2942SOL     OW 9724   3.473   1.231   6.453  0.2931 -0.1762 -0.1939
 2942SOL    HW1 9725   3.562   1.276   6.456 -0.9914  2.5952  2.5291
 2942SOL    HW2 9726   3.470   1.160   6.523  0.4754 -0.5208 -0.5353
 2943SOL     OW 9727   6.521   3.572   3.141 -0.0816  0.6061 -0.3830
 2943SOL    HW1 9728   6.559   3.483   3.166  1.3574  1.2016 -0.3294
 2943SOL    HW2 9729   6.481   3.568   3.050  0.5236  0.0601 -0.6271
 2944SOL     OW 9730   2.315   5.809   5.330  0.2595  0.0420  0.0197
 2944SOL    HW1 9731   2.232   5.863   5.318  0.7949  1.2943  1.6495
 2944SOL    HW2 9732   2.334   5.797   5.428  2.7149  0.9543 -0.2670
 2945SOL     OW 9733   5.068   5.084   2.327  0.3963  0.1500 -0.1621
 2945SOL    HW1 9734   5.140   5.014   2.323 -0.2026 -0.4517 -0.7308
 2945SOL    HW2 9735   5.045   5.104   2.422  1.1812  0.2181  0.0211
 2946SOL     OW 9736   2.353   4.807   5.310 -0.1532  0.5178  0.3003
 2946SOL    HW1 9737   2.335   4.905   5.303  2.0163  0.9010 -1.0008
 2946SOL    HW2 9738   2.439   4.786   5.263 -0.5542 -2.0195  0.5684
 2947SOL     OW 9739   1.360   5.717   0.009  0.4918 -0.2127 -0.4890
 2947SOL    HW1 9740   1.364   5.617   0.009 -0.1632 -0.2430 -0.0736
 2947SOL    HW2 9741   1.266   5.747   0.024  1.0310  0.4507  1.9903
 2948SOL     OW 9742   5.923   4.218   4.657  0.3530  0.2111 -0.5993
 2948SOL    HW1 9743   6.003   4.268   4.624  0.5065  1.2894  1.2278
 2948SOL    HW2 9744   5.842   4.275   4.646  0.1539 -0.0858 -0.6593
 2949SOL     OW 9745   1.847   6.335   0.139 -0.3036  0.5834  0.0294
 2949SOL    HW1 9746   1.787   6.265   0.102  1.8273 -0.0341 -2.5607
 2949SOL    HW2 9747   1.804   6.425   0.131 -1.4497  0.0124 -0.3549
 2950SOL     OW 9748   2.326   6.250   2.548 -0.1171 -0.3570 -0.0491
 2950SOL    HW1 9749   2.378   6.166   2.566 -0.4360 -0.5574 -0.0662
 2950SOL    HW2 9750   2.387   6.319   2.508  0.0344 -0.7388 -0.4755
 2951SOL     OW 9751   5.212   0.355   1.049  0.3760 -0.0615 -0.2032
 2951SOL    HW1 9752   5.210   0.450   1.017 -1.0789 -0.3534 -1.1136
 2951SOL    HW2 9753   5.263   0.349   1.135  2.7250  1.1018 -1.4206
 2952SOL     OW 9754   6.111   1.147   4.850  0.4698  0.3632  0.5142
 2952SOL    HW1 9755   6.042   1.212   4.818 -0.9182 -0.6285  1.3400
 2952SOL    HW2 9756   6.071   1.055   4.853  2.0099 -0.3446  0.5207
 2953SOL     OW 9757   6.026   6.904   1.719 -0.1300 -0.0961  0.1068
 2953SOL    HW1 9758   5.933   6.940   1.716  0.1920  0.7751  0.3108
 2953SOL    HW2 9759   6.090   6.974   1.686  0.5426 -0.3608  0.8341
 2954SOL     OW 9760   0.075   4.283   6.393 -0.0967  0.0304  0.2004
 2954SOL    HW1 9761  -0.003   4.345   6.384 -0.3473 -0.3760 -0.4553
 2954SOL    HW2 9762   0.098   4.274   6.490 -0.6216  0.4486  0.3734
 2955SOL     OW 9763   1.134   3.243   0.589 -0.0071 -0.7719 -0.6590
 2955SOL    HW1 9764   1.072   3.278   0.660 -0.1170  0.6822 -1.4405
 2955SOL    HW2 9765   1.122   3.144   0.582 -0.3477 -0.8866  1.0006
 2956SOL     OW 9766   5.139   4.201   4.842 -0.1303  0.2375 -0.6619
 2956SOL    HW1 9767   5.149   4.212   4.941  0.2123  0.8301 -0.7582
 2956SOL    HW2 9768   5.066   4.136   4.823 -1.6646  1.7146 -0.0501
 2957SOL     OW 9769   2.459   3.591   0.088  0.7191 -0.2489 -0.0453
 2957SOL    HW1 9770   2.547   3.557   0.055  0.8777 -0.7448  0.8595
 2957SOL    HW2 9771   2.444   3.558   0.181  0.6286  1.7258  0.6726
 2958SOL     OW 9772   2.581   5.942   3.268 -0.0237  0.1225 -0.6305
 2958SOL    HW1 9773   2.663   5.925   3.212 -0.7835 -1.6819 -1.2798
 2958SOL    HW2 9774   2.561   6.040   3.269  1.9188  0.5596 -0.7702
 2959SOL     OW 9775   4.929   1.828   1.934  0.3870  0.5793 -0.4373
 2959SOL    HW1 9776   4.837   1.790   1.947  1.3141 -1.9181 -0.4471
 2959SOL    HW2 9777   4.938   1.863   1.841 -0.2768 -0.0896 -0.7681
 2960SOL     OW 9778   3.450   0.415   1.189  0.5216  0.2848  0.2036
 2960SOL    HW1 9779   3.362   0.370   1.172 -0.1140  0.1161  3.3227
 2960SOL    HW2 9780   3.468   0.416   1.288  3.8920  0.6330 -0.3141
 2961SOL     OW 9781   4.465   4.458   2.269 -0.0505 -0.7626 -0.2098
 2961SOL    HW1 9782   4.561   4.456   2.242 -0.0915  0.0507 -0.4188
 2961SOL    HW2 9783   4.410   4.409   2.201  0.2564 -1.5944  0.1227
 2962SOL     OW 9784   0.604   6.662   4.093  0.6337 -0.1462  0.0504
 2962SOL    HW1 9785   0.552   6.728   4.039 -0.5757 -0.4367  0.8185
 2962SOL    HW2 9786   0.629   6.703   4.180  0.5954 -0.4211  0.1919
 2963SOL     OW 9787   2.022   0.794   5.001  0.7115 -0.1676  0.3785
 2963SOL    HW1 9788   2.009   0.866   4.934  0.3187 -0.1357  0.4858
 2963SOL    HW2 9789   2.039   0.707   4.955  1.7016  0.0838  0.2538
 2964SOL     OW 9790   6.365   2.007   6.802 -0.1452 -0.1738 -0.1885
 2964SOL    HW1 9791   6.413   2.020   6.890  0.1714 -0.7828 -0.2670
 2964SOL    HW2 9792   6.325   2.094   6.774 -1.8424 -0.3553  1.4720
 2965SOL     OW 9793   0.361   0.920   4.298 -0.0518 -0.3284 -0.3087
 2965SOL    HW1 9794   0.384   0.982   4.373 -0.8981  0.6417 -0.8299
 2965SOL    HW2 9795   0.395   0.829   4.320 -1.9823 -0.5717  2.2051
 2966SOL     OW 9796   3.605   5.846   3.818 -0.1163  0.1321 -0.0795
 2966SOL    HW1 9797   3.552   5.930   3.804 -0.5775 -0.2371 -0.5950
 2966SOL    HW2 9798   3.583   5.780   3.746  0.6571 -0.2273  0.0080
 2967SOL     OW 9799   0.395   0.343   6.274 -0.0101  0.1461 -0.0711
 2967SOL    HW1 9800   0.341   0.340   6.190 -0.2693  0.8155  0.0601
 2967SOL    HW2 9801   0.477   0.398   6.259 -1.0412  1.9707  0.6341
 2968SOL     OW 9802   0.453   0.680   0.993 -0.1505  0.3152  0.1653
 2968SOL    HW1 9803   0.479   0.768   0.954 -2.1377  0.9350  0.1291
 2968SOL    HW2 9804   0.456   0.686   1.093  3.4436 -0.8099  0.2555
 2969SOL     OW 9805   0.139   3.227   4.535 -0.1087  0.5148 -0.5504
 2969SOL    HW1 9806   0.057   3.266   4.494 -0.6214 -1.5276 -1.6060
 2969SOL    HW2 9807   0.118   3.194   4.627 -0.2031  0.8831 -0.4391
 2970SOL     OW 9808   1.565   3.271   6.973 -0.4892 -1.0717  0.2835
 2970SOL    HW1 9809   1.554   3.186   6.921 -0.4525 -0.6106 -0.5015
 2970SOL    HW2 9810   1.602   3.342   6.913 -0.4457 -0.5219  0.9497
 2971SOL     OW 9811   5.481   3.555   0.266 -0.1620 -0.0313  0.1961
 2971SOL    HW1 9812   5.465   3.651   0.243  2.3045  0.0245 -1.6211
 2971SOL    HW2 9813   5.421   3.529   0.341 -1.7920  2.5585 -0.0813
 2972SOL     OW 9814   6.034   5.967   0.181 -0.2382  0.3187 -0.2161
 2972SOL    HW1 9815   6.005   6.030   0.109 -0.7489  0.1675 -0.1406
 2972SOL    HW2 9816   6.133   5.952   0.173  0.0856  1.9144  0.3725
 2973SOL     OW 9817   5.562   0.570   3.763 -0.2680  1.0561  0.3917
 2973SOL    HW1 9818   5.493   0.508   3.802 -0.0984  0.8905  0.4296
 2973SOL    HW2 9819   5.530   0.664   3.770 -0.8412  0.9209 -0.3138
 2974SOL     OW 9820   6.826   5.147   4.688 -0.0861 -0.5960  0.2472
 2974SOL    HW1 9821   6.834   5.246   4.690  0.1947 -0.6290  0.8920
 2974SOL    HW2 9822   6.779   5.115   4.770  0.6496 -1.0608  0.4940
 2975SOL     OW 9823   4.221   4.830   4.958 -0.5428 -0.0046 -0.4641
 2975SOL    HW1 9824   4.223   4.880   5.045 -0.4714 -1.3092  0.3078
 2975SOL    HW2 9825   4.254   4.737   4.972  0.6719  0.1253 -2.1526
 2976SOL     OW 9826   5.205   2.075   3.675  0.1700  0.0405 -0.1470
 2976SOL    HW1 9827   5.301   2.079   3.703  0.2321  2.0163 -0.4988
 2976SOL    HW2 9828   5.199   2.073   3.576 -0.1534 -2.4542 -0.1403
 2977SOL     OW 9829   6.715   1.458   3.225  0.5071  0.0946  0.5693
 2977SOL    HW1 9830   6.643   1.433   3.160  1.0658  0.9616 -0.4067
 2977SOL    HW2 9831   6.765   1.377   3.252  1.6605 -0.0504 -1.7804
 2978SOL     OW 9832   5.545   4.873   5.798 -0.3620  0.2833 -0.0274
 2978SOL    HW1 9833   5.479   4.922   5.741 -1.1452 -2.1792 -1.3922
 2978SOL    HW2 9834   5.497   4.805   5.853  0.8367 -0.0512  0.6520
 2979SOL     OW 9835   2.551   1.930   3.287 -0.1180 -0.3537  0.2280
 2979SOL    HW1 9836   2.471   1.872   3.304 -1.0438  0.0264 -2.4019
 2979SOL    HW2 9837   2.630   1.873   3.265 -0.2282 -0.6833  0.6821
 2980SOL     OW 9838   1.995   3.070   6.700  0.6703  0.3605 -0.3057
 2980SOL    HW1 9839   2.040   3.071   6.611 -0.7185 -0.5192 -1.0517
 2980SOL    HW2 9840   1.991   3.164   6.735  0.6065  0.8361 -1.5095
 2981SOL     OW 9841   0.459   0.454   1.980  0.0220  0.1553  0.2162
 2981SOL    HW1 9842   0.451   0.548   2.012 -0.5343 -0.2258  1.2431
 2981SOL    HW2 9843   0.396   0.439   1.904 -0.3710  0.4436  0.4790
 2982SOL     OW 9844   2.487   1.248   0.847  0.4014  0.3270  0.3313
 2982SOL    HW1 9845   2.579   1.288   0.839 -0.0568  1.5342  0.9005
 2982SOL    HW2 9846   2.424   1.317   0.882 -0.6086 -0.6641  0.5005
 2983SOL     OW 9847   5.194   4.483   6.877 -0.5086  0.0209 -0.2708
 2983SOL    HW1 9848   5.125   4.468   6.807 -1.4996  1.6817  0.2982
 2983SOL    HW2 9849   5.180   4.573   6.920  1.1397 -0.2002  0.8432
 2984SOL     OW 9850   4.729   4.258   6.657  0.1534  0.4613  0.3478
 2984SOL    HW1 9851   4.733   4.184   6.724  1.6265  1.9124  1.9745
 2984SOL    HW2 9852   4.636   4.294   6.652 -0.0785  0.0314  1.3156
 2985SOL     OW 9853   2.480   0.277   5.938 -0.6126  0.7206  0.4836
 2985SOL    HW1 9854   2.388   0.239   5.951 -0.1118 -0.8637 -0.3038
 2985SOL    HW2 9855   2.510   0.322   6.022 -1.7225  0.4197  1.0643
 2986SOL     OW 9856   3.889   3.916   3.166 -0.1145  0.1057  0.4126
 2986SOL    HW1 9857   3.917   3.956   3.079  0.9759 -0.7085  0.3744
 2986SOL    HW2 9858   3.818   3.847   3.149 -0.3855  0.4260  0.2397
 2987SOL     OW 9859   6.436   2.523   6.432 -0.6382 -0.1850  0.5802
 2987SOL    HW1 9860   6.528   2.520   6.473  1.0668  1.5065 -2.7282
 2987SOL    HW2 9861   6.409   2.618   6.418 -2.0255 -0.6876 -0.3730
 2988SOL     OW 9862   0.574   1.389   1.712 -0.0134 -0.1316  0.2374
 2988SOL    HW1 9863   0.638   1.335   1.767 -1.1224 -1.4066  0.3027
 2988SOL    HW2 9864   0.559   1.345   1.624 -1.3229 -0.2114  0.4881
 2989SOL     OW 9865   3.947   3.706   5.312 -0.2332 -0.3851  0.9893
 2989SOL    HW1 9866   3.968   3.771   5.238 -2.1689  0.9704  1.5481
 2989SOL    HW2 9867   4.026   3.647   5.328  1.2843  1.2287 -0.1786
 2990SOL     OW 9868   5.141   0.132   5.121  0.5734 -0.4456 -0.4368
 2990SOL    HW1 9869   5.169   0.085   5.204 -0.1869 -1.1383 -0.5591
 2990SOL    HW2 9870   5.195   0.098   5.044  1.0324 -0.0593 -0.2872
 2991SOL     OW 9871   6.555   3.336   0.466 -0.6030 -0.2416  0.0034
 2991SOL    HW1 9872   6.483   3.375   0.408  0.1115  0.2631 -0.5642
 2991SOL    HW2 9873   6.522   3.330   0.560 -0.0668  3.8881  0.6362
 2992SOL     OW 9874   6.801   2.668   3.792 -0.3699  0.1881 -0.2970
 2992SOL    HW1 9875   6.745   2.693   3.713 -0.8220  1.6210  0.4375
 2992SOL    HW2 9876   6.876   2.733   3.802 -0.6842  0.4099  0.8065
 2993SOL     OW 9877   0.676   4.414   6.249 -0.4242 -0.0919 -0.5438
 2993SOL    HW1 9878   0.668   4.323   6.209  1.5451 -0.7214  0.3532
 2993SOL    HW2 9879   0.771   4.446   6.243 -0.3071  0.3951  2.1745
 2994SOL     OW 9880   5.653   4.856   0.024  0.2787 -0.6124  0.3542
 2994SOL    HW1 9881   5.599   4.940   0.025 -0.0720 -0.8182 -0.5499
 2994SOL    HW2 9882   5.748   4.877   0.005  0.2718 -0.3836  0.5642
 2995SOL     OW 9883   4.113   0.276   1.795  0.7829 -0.3654 -0.0498
 2995SOL    HW1 9884   4.100   0.337   1.717 -0.0961  0.6218  0.8399
 2995SOL    HW2 9885   4.027   0.267   1.846  0.6674 -3.0067 -0.5873
 2996SOL     OW 9886   6.727   3.071   3.665 -0.4733  0.4693 -0.2479
 2996SOL    HW1 9887   6.778   2.994   3.627  0.7180 -0.5288  3.0591
 2996SOL    HW2 9888   6.790   3.129   3.717 -2.0532  1.5393  0.5153
 2997SOL     OW 9889   5.426   0.582   1.907 -0.1367 -0.2191 -0.2025
 2997SOL    HW1 9890   5.504   0.645   1.908 -0.2143 -0.0957  1.7252
 2997SOL    HW2 9891   5.354   0.619   1.848  0.8756  0.1096 -1.2885
 2998SOL     OW 9892   0.650   0.569   3.112  0.3534 -0.3061 -0.3394
 2998SOL    HW1 9893   0.646   0.520   3.199  1.2739 -0.1198 -0.1824
 2998SOL    HW2 9894   0.725   0.635   3.114  0.7604 -0.7091 -1.4806
 2999SOL     OW 9895   3.125   4.233   0.548 -0.2087 -0.4381  0.5401
 2999SOL    HW1 9896   3.215   4.210   0.583 -0.3337  0.7662  1.7377
 2999SOL    HW2 9897   3.105   4.177   0.467  1.0289 -1.6786  1.0552
 3000SOL     OW 9898   1.209   4.392   4.436  0.4059 -0.4527 -0.4995
 3000SOL    HW1 9899   1.145   4.345   4.376 -0.4347  1.1598 -0.9384
 3000SOL    HW2 9900   1.196   4.491   4.427  2.7968 -0.0681 -0.4159
 3001SOL     OW 9901   6.549   0.002   6.900 -0.6473 -0.5410  0.2863
 3001SOL    HW1 9902   6.452   0.023   6.912 -0.6887  0.7702 -1.8121
 3001SOL    HW2 9903   6.560  -0.061   6.824  0.1144 -1.5341  1.1847
 3002SOL     OW 9904   3.513   0.401   6.767 -0.0396  0.0665  0.4873
 3002SOL    HW1 9905   3.442   0.449   6.818  1.8177  1.6173  1.7474
 3002SOL    HW2 9906   3.485   0.393   6.671 -1.2862  1.9268  0.6431
 3003SOL     OW 9907   0.905   5.788   1.161  0.1232 -0.0121 -0.5272
 3003SOL    HW1 9908   0.903   5.688   1.155  0.9800  0.0203 -1.9777
 3003SOL    HW2 9909   0.999   5.820   1.150  0.0379  0.9299  1.1472
 3004SOL     OW 9910   0.242   4.851   5.139 -0.0515  0.5526 -0.2654
 3004SOL    HW1 9911   0.304   4.920   5.102 -1.5932  0.9703 -2.2972
 3004SOL    HW2 9912   0.171   4.897   5.194  1.1161  0.1278  1.6688
 3005SOL     OW 9913   1.397   4.407   5.146 -0.9062  0.2471  0.1238
 3005SOL    HW1 9914   1.413   4.430   5.050  1.9205 -0.4542  0.3081
 3005SOL    HW2 9915   1.357   4.315   5.152  1.2213 -0.7885 -0.4354
 3006SOL     OW 9916   5.353   1.366   5.803 -0.4781  0.6567  0.1818
 3006SOL    HW1 9917   5.350   1.285   5.862  0.1254  0.0368 -0.6037
 3006SOL    HW2 9918   5.268   1.372   5.750 -0.3783  0.3161 -0.0242
 3007SOL     OW 9919   4.881   5.386   6.432  0.2447 -0.4510 -0.1497
 3007SOL    HW1 9920   4.960   5.392   6.370  1.1857  1.4753  1.1491
 3007SOL    HW2 9921   4.908   5.337   6.515  0.9606  2.4248  1.4366
 3008SOL     OW 9922   4.875   3.185   5.776  0.5921 -0.0016 -0.0042
 3008SOL    HW1 9923   4.932   3.265   5.792 -0.8802  1.2538 -0.7585
 3008SOL    HW2 9924   4.786   3.213   5.739 -1.2377 -1.6918  2.6722
 3009SOL     OW 9925   0.825   3.573   2.788 -0.7071 -0.8219 -0.2003
 3009SOL    HW1 9926   0.894   3.501   2.785 -1.1335 -1.2790  0.4990
 3009SOL    HW2 9927   0.844   3.641   2.718  0.3680 -1.0120 -0.1038
 3010SOL     OW 9928   3.889   5.295   0.083 -0.0513  0.1101 -0.2569
 3010SOL    HW1 9929   3.882   5.381   0.134 -0.0719 -0.0823  0.0687
 3010SOL    HW2 9930   3.985   5.272   0.069  0.0225 -0.9076  1.5487
 3011SOL     OW 9931   5.052   0.213   3.299 -0.3519  0.4131 -0.5549
 3011SOL    HW1 9932   5.107   0.271   3.359 -0.6028  1.4922 -1.3425
 3011SOL    HW2 9933   4.978   0.172   3.352 -1.3151  2.3229 -0.3264
 3012SOL     OW 9934   1.304   2.458   6.255  0.1198  0.1261 -0.6257
 3012SOL    HW1 9935   1.363   2.427   6.181  1.3025  4.1450 -1.5951
 3012SOL    HW2 9936   1.352   2.446   6.343 -0.4794 -2.7847 -0.6096
 3013SOL     OW 9937   6.908   6.127   3.999  0.2255  0.2821 -0.2306
 3013SOL    HW1 9938   6.932   6.031   4.011 -0.8091 -0.0415 -0.6069
 3013SOL    HW2 9939   6.991   6.182   3.991  0.8233 -0.6570 -0.6191
 3014SOL     OW 9940   3.711   1.100   3.705  0.2605  0.4561 -0.0149
 3014SOL    HW1 9941   3.689   1.068   3.797 -1.2938  0.4750 -0.3446
 3014SOL    HW2 9942   3.686   1.196   3.696  0.4760  0.4767 -0.4322
 3015SOL     OW 9943   1.654   0.373   1.253 -0.0559 -0.4883 -0.0812
 3015SOL    HW1 9944   1.631   0.277   1.264 -0.9947 -0.3895 -0.9466
 3015SOL    HW2 9945   1.713   0.403   1.328 -0.3004 -1.5614  0.5550
 3016SOL     OW 9946   3.592   6.402   5.070  0.4054 -0.2791  0.0011
 3016SOL    HW1 9947   3.544   6.483   5.104  1.0121 -0.5876  1.6595
 3016SOL    HW2 9948   3.667   6.429   5.010  2.2993  0.5842  2.6372
 3017SOL     OW 9949   2.070   0.766   2.751  0.1192 -0.5422  0.4927
 3017SOL    HW1 9950   2.025   0.678   2.736 -1.4344  0.4102 -0.7281
 3017SOL    HW2 9951   2.008   0.828   2.798 -0.4277  1.1831 -2.2576
 3018SOL     OW 9952   5.351   6.785   5.973 -0.3222 -0.2891 -0.1554
 3018SOL    HW1 9953   5.438   6.834   5.971  0.3242 -1.3927 -0.2060
 3018SOL    HW2 9954   5.276   6.850   5.970  0.5001  0.6889 -0.1244
 3019SOL     OW 9955   1.779   0.724   6.393 -0.2785 -0.6408 -0.2180
 3019SOL    HW1 9956   1.821   0.743   6.304 -0.2713 -1.1197 -0.3223
 3019SOL    HW2 9957   1.687   0.762   6.395 -0.4147 -0.9473 -0.5701
 3020SOL     OW 9958   5.395   1.424   6.106  0.1964 -0.5685 -0.3079
 3020SOL    HW1 9959   5.469   1.444   6.041  0.6168 -1.9963 -0.2965
 3020SOL    HW2 9960   5.374   1.326   6.103 -0.8638 -0.3783  0.5827
 3021SOL     OW 9961   3.672   6.476   5.516  0.8207  0.4505 -0.3547
 3021SOL    HW1 9962   3.766   6.499   5.491  1.4111 -0.0966  1.2545
 3021SOL    HW2 9963   3.621   6.560   5.536  1.1540  0.7082 -0.5772
 3022SOL     OW 9964   4.413   6.563   3.474  0.5008 -0.1603  0.2772
 3022SOL    HW1 9965   4.488   6.522   3.422  0.0942 -0.5130 -0.0356
 3022SOL    HW2 9966   4.361   6.491   3.521  0.8779  0.1500  1.2056
 3023SOL     OW 9967   4.168   6.677   3.037 -1.1851  0.4463 -0.2920
 3023SOL    HW1 9968   4.203   6.719   3.120 -1.6686  0.8298 -0.2792
 3023SOL    HW2 9969   4.083   6.722   3.009 -2.8052 -1.7263  0.8223
 3024SOL     OW 9970   0.668   5.752   0.001  0.4320  0.4294 -0.4868
 3024SOL    HW1 9971   0.680   5.768  -0.097  1.1748  3.0763 -0.0473
 3024SOL    HW2 9972   0.570   5.759   0.024 -0.3271 -4.0164 -1.4913
 3025SOL     OW 9973   4.945   4.960   3.407  0.0727 -0.4231 -0.2423
 3025SOL    HW1 9974   4.909   4.871   3.378 -0.0248 -0.1602 -0.9560
 3025SOL    HW2 9975   4.999   4.949   3.490 -2.3911 -0.7048  1.4298
 3026SOL     OW 9976   5.895   1.040   0.604  0.3977 -0.0965 -0.1263
 3026SOL    HW1 9977   5.918   1.006   0.512 -1.1211 -1.3616 -0.0779
 3026SOL    HW2 9978   5.827   1.113   0.596  1.1699  0.6585 -0.0375
 3027SOL     OW 9979   4.603   1.571   2.281  0.1893 -0.1892 -0.1802
 3027SOL    HW1 9980   4.574   1.482   2.244 -0.2004  0.1927 -0.8123
 3027SOL    HW2 9981   4.529   1.611   2.335 -0.4053  0.6648 -1.5773
 3028SOL     OW 9982   4.118   4.058   6.771 -0.3041  0.6066 -0.0418
 3028SOL    HW1 9983   4.158   4.071   6.680 -1.0756 -0.2479 -0.5231
 3028SOL    HW2 9984   4.034   4.113   6.778  1.1959  2.8830  1.1829
 3029SOL     OW 9985   2.462   2.274   3.001 -0.4239 -0.3094 -0.0324
 3029SOL    HW1 9986   2.510   2.339   3.060  0.9152 -1.0682 -0.2268
 3029SOL    HW2 9987   2.448   2.315   2.911  0.7912 -0.3924 -0.2851
 3030SOL     OW 9988   1.269   3.246   6.596 -0.3370 -0.3600 -0.2491
 3030SOL    HW1 9989   1.298   3.153   6.574  1.1846  0.0450 -0.0708
 3030SOL    HW2 9990   1.343   3.310   6.574 -0.6403  0.5947  1.3740
 3031SOL     OW 9991   0.291   5.610   0.012  0.2121 -0.4154  0.4780
 3031SOL    HW1 9992   0.340   5.690   0.047 -0.4415 -0.2021  0.9458
 3031SOL    HW2 9993   0.354   5.551  -0.037  1.5129 -1.3856  3.1312
 3032SOL     OW 9994   6.117   6.807   4.496  0.4392 -0.4048  0.6203
 3032SOL    HW1 9995   6.150   6.786   4.588 -0.5321 -0.7480  0.9078
 3032SOL    HW2 9996   6.056   6.886   4.500  1.0734  0.1187  0.1289
 3033SOL     OW 9997   0.043   0.277   5.038 -0.4847  0.1499  0.2928
 3033SOL    HW1 9998  -0.019   0.347   5.003 -0.7542  0.3530  1.1691
 3033SOL    HW2 9999   0.131   0.319   5.061  1.3790 -0.6525 -4.3030
 3034SOL     OW10000   1.106   4.665   3.283  0.1515  0.0987  0.7847
 3034SOL    HW110001   1.095   4.750   3.335 -1.4168 -0.4352  1.3791
 3034SOL    HW210002   1.162   4.683   3.202 -1.9477  2.2603 -0.3344
 3035SOL     OW10003   6.395   2.056   4.980 -0.2917  0.1450  0.0649
 3035SOL    HW110004   6.467   2.112   5.020 -0.1929  0.4172 -0.4950
 3035SOL    HW210005   6.390   1.969   5.029  0.1419  0.2875  0.3672
 3036SOL     OW10006   0.504   4.102   3.446  0.2031  0.6101 -0.0588
 3036SOL    HW110007   0.521   4.041   3.368 -1.0135 -0.4713  0.4860
 3036SOL    HW210008   0.569   4.082   3.519 -1.3631 -1.4423  0.8671
 3037SOL     OW10009   1.345   4.983   5.847 -0.2782  0.2264 -0.1412
 3037SOL    HW110010   1.295   4.983   5.760  1.3685 -1.7258 -1.1934
 3037SOL    HW210011   1.414   5.055   5.845  0.7615 -0.7518 -1.1481
 3038SOL     OW10012   6.076   5.650   5.808 -0.2558 -0.7020  0.5292
 3038SOL    HW110013   5.987   5.656   5.762 -0.0390 -0.8974  0.0782
 3038SOL    HW210014   6.087   5.558   5.846  0.0312 -0.8933  0.0005
 3039SOL     OW10015   6.483   3.676   0.392  0.6407 -0.4723 -0.5233
 3039SOL    HW110016   6.420   3.611   0.348  0.2966  0.7545 -1.9167
 3039SOL    HW210017   6.497   3.649   0.488 -1.3529 -1.2376 -0.3983
 3040SOL     OW10018   2.402   4.369   5.896 -0.1853  0.4488  0.2307
 3040SOL    HW110019   2.336   4.353   5.970  1.4262  0.2478  1.6938
 3040SOL    HW210020   2.494   4.350   5.929  0.5833  0.0477 -1.9591
 3041SOL     OW10021   1.035   4.459   6.742  0.2651 -0.2760  0.5525
 3041SOL    HW110022   1.015   4.481   6.647 -1.7824  0.9161  1.1713
 3041SOL    HW210023   0.959   4.491   6.800  0.3211 -3.0366  2.3525
 3042SOL     OW10024   0.559   4.153   1.598  0.0459 -0.0168 -0.2387
 3042SOL    HW110025   0.568   4.203   1.512  1.1077  0.2099 -0.0099
 3042SOL    HW210026   0.646   4.155   1.647 -0.4890 -0.3230  0.7501
 3043SOL     OW10027   3.222   5.082   2.169  0.2789  0.0527  0.8063
 3043SOL    HW110028   3.242   5.163   2.114  1.4449 -0.3984  0.5196
 3043SOL    HW210029   3.265   5.002   2.126 -3.7981 -1.4486 -0.9766
 3044SOL     OW10030   4.156   2.538   5.605 -0.2698 -0.1593 -0.0939
 3044SOL    HW110031   4.101   2.615   5.639 -2.1631 -0.6086 -1.9487
 3044SOL    HW210032   4.111   2.452   5.629  1.6208 -0.7728  1.6094
 3045SOL     OW10033   2.733   2.045   3.461 -0.0611  0.4250  0.7074
 3045SOL    HW110034   2.771   1.970   3.515 -0.1375  0.5558  0.9453
 3045SOL    HW210035   2.692   2.009   3.377 -0.2781  0.1812  0.9160
 3046SOL     OW10036   5.900   3.689   1.992 -0.2008  0.4431 -0.0334
 3046SOL    HW110037   5.924   3.785   2.005 -1.5311  1.2490 -2.7879
 3046SOL    HW210038   5.983   3.636   1.975  0.3240  2.0280 -3.1617
 3047SOL     OW10039   6.255   5.984   6.064  0.4512 -0.1619 -0.6360
 3047SOL    HW110040   6.337   5.945   6.023  0.0645 -1.3572 -0.3030
 3047SOL    HW210041   6.200   6.029   5.994  1.4906  0.8649 -0.8205
 3048SOL     OW10042   4.088   3.222   0.716 -0.0919  0.1913 -0.2361
 3048SOL    HW110043   4.111   3.128   0.692 -0.9406  0.3390 -1.7659
 3048SOL    HW210044   4.021   3.222   0.791 -0.1953 -0.4247 -0.3242
 3049SOL     OW10045   0.836   0.888   4.083 -0.5680  0.5294 -0.1493
 3049SOL    HW110046   0.875   0.953   4.018  0.4160  1.9795  1.7761
 3049SOL    HW210047   0.755   0.928   4.126 -0.3326  0.2474  0.5880
 3050SOL     OW10048   3.848   2.934   0.892 -0.5051 -0.4707  0.0952
 3050SOL    HW110049   3.782   2.861   0.912 -0.4158 -0.2456  1.2876
 3050SOL    HW210050   3.933   2.916   0.941 -0.9410  1.1051  1.5491
 3051SOL     OW10051   2.574   6.025   2.543 -0.2301  0.5517  0.2981
 3051SOL    HW110052   2.596   6.096   2.610 -0.5169  0.2255  0.7495
 3051SOL    HW210053   2.581   5.935   2.587  0.3664  0.2778 -0.3266
 3052SOL     OW10054   4.775   6.333   2.480  0.2874 -0.4563  0.0741
 3052SOL    HW110055   4.740   6.290   2.563  1.0843 -2.4505 -0.5553
 3052SOL    HW210056   4.820   6.420   2.503 -1.6203  0.2341  1.3617
 3053SOL     OW10057   1.952   2.963   6.962 -0.5213 -0.9920 -0.0075
 3053SOL    HW110058   1.943   3.008   6.873  0.5661  1.0425  0.8404
 3053SOL    HW210059   1.871   2.982   7.017 -0.3958 -0.7086  0.0803
 3054SOL     OW10060   0.106   1.797   1.908  1.2308  0.9975 -0.1292
 3054SOL    HW110061   0.103   1.714   1.964 -1.9003  1.0520 -0.0313
 3054SOL    HW210062   0.138   1.774   1.816  2.1387  0.0390  0.4141
 3055SOL     OW10063   0.509   6.909   0.136  0.5455  0.5316  0.1148
 3055SOL    HW110064   0.533   6.970   0.212  1.0696  0.3322  0.1101
 3055SOL    HW210065   0.536   6.815   0.158 -2.4288 -0.2027  1.1796
 3056SOL     OW10066   4.460   0.689   6.004  0.0807 -0.1306 -0.2002
 3056SOL    HW110067   4.368   0.661   5.979 -1.1324  2.8752  0.4115
 3056SOL    HW210068   4.464   0.709   6.102  1.0189  0.8740 -0.4131
 3057SOL     OW10069   2.290   6.665   4.318 -0.0564  0.1235  0.3527
 3057SOL    HW110070   2.348   6.714   4.382  0.7909 -0.4039 -0.0012
 3057SOL    HW210071   2.345   6.630   4.242 -0.8768 -0.1437 -0.1338
 3058SOL     OW10072   6.917   4.271   6.998  0.1161  0.3467  0.4780
 3058SOL    HW110073   7.017   4.268   6.999  0.2560  2.6587  0.0244
 3058SOL    HW210074   6.882   4.252   7.089  0.9636 -0.3416  0.6749
 3059SOL     OW10075   0.950   2.460   3.228  0.1241  0.0543  0.1794
 3059SOL    HW110076   0.871   2.443   3.286  1.2014  1.1852  2.0610
 3059SOL    HW210077   0.947   2.554   3.193 -0.1985 -0.4239 -1.1561
 3060SOL     OW10078   3.422   4.823   6.377  0.4714  0.0520 -0.3163
 3060SOL    HW110079   3.447   4.756   6.447  0.3327 -0.0085 -0.3239
 3060SOL    HW210080   3.363   4.779   6.309 -0.4911  0.4579  0.2505
 3061SOL     OW10081   5.537   5.606   5.958  0.1624  0.2458 -0.1824
 3061SOL    HW110082   5.589   5.521   5.966  0.9552  0.7192 -0.1427
 3061SOL    HW210083   5.584   5.679   6.008 -1.2169  0.4086  0.9525
 3062SOL     OW10084   3.976   4.579   0.439 -0.9826 -0.2383  0.0252
 3062SOL    HW110085   4.045   4.510   0.415 -3.6310 -3.2658  0.4975
 3062SOL    HW210086   4.014   4.670   0.423  2.8779 -1.6969 -0.2758
 3063SOL     OW10087   6.934   4.798   1.034  0.2892  0.0126  0.1849
 3063SOL    HW110088   6.861   4.847   0.987  1.3350  1.9711  0.4938
 3063SOL    HW210089   6.984   4.741   0.968 -1.0531 -0.8246 -0.1481
 3064SOL     OW10090   3.525   2.254   0.744 -0.1179 -0.1040  0.3882
 3064SOL    HW110091   3.545   2.352   0.741  1.1664 -0.2936  1.8489
 3064SOL    HW210092   3.427   2.241   0.761 -0.0022  0.9692  2.1439
 3065SOL     OW10093   6.705   0.545   2.443 -0.4546 -0.6805  0.1066
 3065SOL    HW110094   6.643   0.585   2.375 -1.0102 -1.1367  0.3367
 3065SOL    HW210095   6.759   0.617   2.486  0.0476 -0.4030 -0.9562
 3066SOL     OW10096   4.441   6.519   4.868  0.0483  0.5173 -0.3703
 3066SOL    HW110097   4.463   6.423   4.881  1.6030  0.8192 -0.6581
 3066SOL    HW210098   4.462   6.570   4.951 -2.3743  0.3944  0.4142
 3067SOL     OW10099   2.153   2.685   1.369  0.3050 -0.6997  0.3380
 3067SOL    HW110100   2.252   2.699   1.363  0.3337 -1.5440 -2.3773
 3067SOL    HW210101   2.129   2.599   1.325 -1.6206 -0.7657  1.4283
 3068SOL     OW10102   2.597   1.984   1.394 -0.2688  0.1579 -0.0733
 3068SOL    HW110103   2.570   1.917   1.324 -0.5023 -0.6055  0.7215
 3068SOL    HW210104   2.539   1.971   1.475  0.5237  0.4939  0.5537
 3069SOL     OW10105   6.430   0.118   3.819 -0.2859  0.5409  0.4975
 3069SOL    HW110106   6.419   0.019   3.830  1.2793  0.4034  1.0806
 3069SOL    HW210107   6.410   0.164   3.905 -1.7321  0.8267  0.0333
 3070SOL     OW10108   3.782   1.866   5.200  0.3105 -0.0236  0.2694
 3070SOL    HW110109   3.783   1.828   5.108 -1.8245 -0.6733  0.4527
 3070SOL    HW210110   3.813   1.797   5.266  1.2088  0.2307  0.1313
 3071SOL     OW10111   0.204   3.564   5.423  0.4321 -0.0459 -0.2570
 3071SOL    HW110112   0.125   3.521   5.380 -1.0291  1.8329  0.4044
 3071SOL    HW210113   0.196   3.663   5.415  1.2230  0.2986  2.3685
 3072SOL     OW10114   1.967   6.719   0.251 -0.0293  0.5194 -0.1522
 3072SOL    HW110115   1.913   6.741   0.332 -0.3350 -0.9092  0.0475
 3072SOL    HW210116   1.943   6.782   0.177 -2.9738 -0.8598 -0.4925
 3073SOL     OW10117   1.398   6.354   1.102  0.1852  0.5037  0.2550
 3073SOL    HW110118   1.317   6.297   1.115 -0.8736  1.7480 -0.6457
 3073SOL    HW210119   1.433   6.342   1.009  0.0688  1.1555  0.1215
 3074SOL     OW10120   1.732   3.313   1.085 -0.1490 -0.0277 -0.4218
 3074SOL    HW110121   1.773   3.404   1.099 -1.8454  0.6996  0.0588
 3074SOL    HW210122   1.805   3.247   1.066  1.1314  1.4476 -0.9637
 3075SOL     OW10123   1.434   6.219   5.415  0.0559 -0.2572  0.2744
 3075SOL    HW110124   1.447   6.269   5.501 -0.3107  0.8453 -0.2836
 3075SOL    HW210125   1.497   6.256   5.346 -2.4393  1.7941 -1.0897
 3076SOL     OW10126   6.580   2.497   4.410 -0.1732  0.4942 -0.2731
 3076SOL    HW110127   6.521   2.578   4.420 -0.1879  0.5205 -0.5624
 3076SOL    HW210128   6.595   2.479   4.313  1.6394  1.4757 -0.2176
 3077SOL     OW10129   1.179   6.253   0.250 -0.1303 -0.2954 -0.4498
 3077SOL    HW110130   1.168   6.155   0.240  0.7813 -0.4737  0.1397
 3077SOL    HW210131   1.107   6.290   0.309 -0.2013 -0.6845 -0.2917
 3078SOL     OW10132   5.639   3.527   1.231 -0.1416 -0.2719 -0.3022
 3078SOL    HW110133   5.696   3.592   1.282 -0.9137  0.8194 -0.7991
 3078SOL    HW210134   5.698   3.467   1.176  0.5697  0.2311 -0.0995
 3079SOL     OW10135   1.385   3.248   3.924  0.2325 -0.0911 -0.2132
 3079SOL    HW110136   1.454   3.308   3.966 -0.8172  0.6306  0.5463
 3079SOL    HW210137   1.414   3.153   3.933 -0.1677 -0.0271  2.7218
 3080SOL     OW10138   4.639   5.176   1.019  0.1835  0.0581 -0.0046
 3080SOL    HW110139   4.674   5.258   1.064  2.4754 -0.8848  0.0344
 3080SOL    HW210140   4.711   5.134   0.964 -0.9864 -1.8635 -0.1756
 3081SOL     OW10141   5.866   3.841   6.332 -0.0920 -0.0403  0.4082
 3081SOL    HW110142   5.929   3.803   6.401 -1.3682 -1.2759  0.9614
 3081SOL    HW210143   5.786   3.781   6.324 -0.0595  0.1472 -2.0743
 3082SOL     OW10144   2.806   6.529   4.221 -0.0340 -0.3272  0.1491
 3082SOL    HW110145   2.854   6.617   4.225 -0.0967 -0.3504  2.0871
 3082SOL    HW210146   2.761   6.511   4.308  0.4074 -2.5374 -0.0270
 3083SOL     OW10147   1.738   5.118   2.729 -0.2687  0.1239 -1.1743
 3083SOL    HW110148   1.683   5.189   2.685 -0.9646 -0.2179 -0.8693
 3083SOL    HW210149   1.704   5.028   2.701 -0.6505 -0.1026 -0.0295
 3084SOL     OW10150   2.081   4.590   3.626  0.1541 -0.5150  0.1376
 3084SOL    HW110151   2.145   4.523   3.589  0.8576  0.1212  0.1735
 3084SOL    HW210152   1.987   4.556   3.615  0.4679 -1.2795 -0.2827
 3085SOL     OW10153   4.701   4.330   1.304 -1.0647 -0.2062 -0.3107
 3085SOL    HW110154   4.652   4.414   1.329 -1.2203 -0.0701 -1.0556
 3085SOL    HW210155   4.782   4.354   1.251 -0.6101 -0.4801  0.2524
 3086SOL     OW10156   6.090   1.216   5.555 -0.1517  0.0885  0.1113
 3086SOL    HW110157   6.059   1.310   5.542  1.8486  0.6605 -0.8175
 3086SOL    HW210158   6.087   1.167   5.468 -0.5868 -0.5314  0.4646
 3087SOL     OW10159   3.544   5.970   2.653  0.3153  0.1854 -0.1408
 3087SOL    HW110160   3.570   5.977   2.557 -0.8279  1.3643 -0.3753
 3087SOL    HW210161   3.533   6.061   2.692  0.4691 -0.2826  1.0416
 3088SOL     OW10162   4.871   2.652   5.092  0.0460  0.3589 -0.2304
 3088SOL    HW110163   4.925   2.687   5.168  0.8716  1.6018 -1.3443
 3088SOL    HW210164   4.925   2.655   5.008 -0.7846 -1.1409 -0.8657
 3089SOL     OW10165   4.778   6.404   4.745  0.4421 -0.3996 -0.4633
 3089SOL    HW110166   4.748   6.348   4.668 -2.2151 -1.8338  1.4555
 3089SOL    HW210167   4.709   6.473   4.765  0.6725 -0.5815  1.0981
 3090SOL     OW10168   1.688   1.371   2.637  0.0657 -0.1162 -0.6664
 3090SOL    HW110169   1.756   1.443   2.649 -0.4270  0.4793 -1.3993
 3090SOL    HW210170   1.720   1.306   2.568  0.4985 -0.6048 -0.0231
 3091SOL     OW10171   0.594   1.958   1.175 -0.5827  0.6479 -0.1515
 3091SOL    HW110172   0.672   1.904   1.207 -1.3712  1.1979  3.0105
 3091SOL    HW210173   0.625   2.026   1.109  1.2277 -0.5211 -0.5617
 3092SOL     OW10174   0.372   0.173   3.109  0.2360  0.3746  0.1245
 3092SOL    HW110175   0.307   0.183   3.033 -0.4347 -3.2140  0.0483
 3092SOL    HW210176   0.329   0.203   3.194 -0.5837  0.4401 -0.3017
 3093SOL     OW10177   5.432   3.813   0.611 -0.2618 -0.0683 -0.0584
 3093SOL    HW110178   5.525   3.808   0.574 -0.7837  0.5198 -1.4869
 3093SOL    HW210179   5.423   3.895   0.667  0.3880 -0.7110  1.0304
 3094SOL     OW10180   3.195   0.105   6.087 -0.0417 -0.1148  0.0248
 3094SOL    HW110181   3.221   0.079   6.180  0.6131  0.8402  0.1235
 3094SOL    HW210182   3.228   0.035   6.023 -0.0545 -0.5215  0.4531
 3095SOL     OW10183   3.002   2.110   5.626 -0.6289 -0.5009 -0.5345
 3095SOL    HW110184   3.079   2.135   5.686  0.5759 -2.4882 -1.1346
 3095SOL    HW210185   3.009   2.161   5.540 -1.0177  0.6212  0.0791
 3096SOL     OW10186   1.132   5.776   4.797  0.1379 -0.3587  0.4620
 3096SOL    HW110187   1.096   5.841   4.730 -0.0578  0.2803  1.1698
 3096SOL    HW210188   1.081   5.785   4.882  0.2742 -1.2781  0.6506
 3097SOL     OW10189   5.095   1.508   0.387 -0.7847 -0.0545  0.0294
 3097SOL    HW110190   5.167   1.572   0.414  0.3251 -0.7091 -1.2582
 3097SOL    HW210191   5.106   1.484   0.290 -1.1185 -2.2437  0.4878
 3098SOL     OW10192   3.159   3.242   1.374 -0.0806 -0.2709  0.0228
 3098SOL    HW110193   3.187   3.164   1.317 -0.4366  0.7307 -1.6089
 3098SOL    HW210194   3.232   3.263   1.440  0.6749 -1.0337 -0.5395
 3099SOL     OW10195   0.224   5.991   4.227  0.1903  0.7036  0.1067
 3099SOL    HW110196   0.202   6.018   4.321  0.9950  0.9511  0.2286
 3099SOL    HW210197   0.304   5.932   4.227 -0.0026  0.4371 -0.3999
 3100SOL     OW10198   1.496   6.083   2.783  0.8562  0.1680  0.4965
 3100SOL    HW110199   1.557   6.075   2.862  0.3978  0.3967  0.8835
 3100SOL    HW210200   1.544   6.128   2.708  1.5840 -0.8631  0.3251
 3101SOL     OW10201   3.823   0.342   4.985  1.0820 -0.3183 -0.2489
 3101SOL    HW110202   3.908   0.294   4.965  1.6829  0.6429 -0.1039
 3101SOL    HW210203   3.834   0.395   5.069  0.6929  0.6174 -0.7697
 3102SOL     OW10204   0.835   4.961   0.665  0.2346 -0.2349  0.4550
 3102SOL    HW110205   0.845   4.892   0.594 -2.2575 -0.5382  0.3042
 3102SOL    HW210206   0.815   4.917   0.752 -0.9728  0.2634  0.4430
 3103SOL     OW10207   3.875   2.324   1.634 -0.0116  0.6875 -0.2719
 3103SOL    HW110208   3.858   2.229   1.606  2.0159 -0.0010  0.6420
 3103SOL    HW210209   3.800   2.356   1.692 -0.5609 -0.4673 -0.3113
 3104SOL     OW10210   5.126   0.393   5.047  0.7064 -0.1887  0.2038
 3104SOL    HW110211   5.132   0.486   5.083  2.4008 -0.4131  0.6047
 3104SOL    HW210212   5.141   0.328   5.122 -1.7886 -0.8763  0.2094
 3105SOL     OW10213   4.077   6.623   0.272  0.6363 -0.2613 -0.0343
 3105SOL    HW110214   4.083   6.708   0.324 -1.7809  0.4025 -0.6914
 3105SOL    HW210215   4.089   6.642   0.174 -1.5536 -0.3115 -0.3697
 3106SOL     OW10216   3.018   2.458   5.879 -0.3326 -0.6939 -0.3117
 3106SOL    HW110217   2.930   2.470   5.832 -2.0124 -1.1579  2.4716
 3106SOL    HW210218   3.001   2.435   5.974  2.8469  1.1595  0.8507
 3107SOL     OW10219   3.661   0.496   4.835 -0.5290 -0.8116  0.3850
 3107SOL    HW110220   3.717   0.449   4.903 -1.7496 -0.7285  1.4867
 3107SOL    HW210221   3.583   0.439   4.811 -1.1196 -0.0503  0.4763
 3108SOL     OW10222   0.669   5.902   4.898  0.5172 -0.4157 -0.1586
 3108SOL    HW110223   0.687   5.817   4.848  0.6639 -0.8111  0.5560
 3108SOL    HW210224   0.666   5.979   4.833  0.4635 -0.9492 -0.7990
 3109SOL     OW10225   6.381   6.268   4.337  0.5855  0.5386 -0.1942
 3109SOL    HW110226   6.300   6.250   4.392 -0.0842 -1.3015 -1.6643
 3109SOL    HW210227   6.450   6.198   4.356  0.8806  0.6905 -0.6899
 3110SOL     OW10228   1.682   4.143   3.079  0.2817  0.0214  0.8051
 3110SOL    HW110229   1.654   4.178   3.168 -0.2215  1.3516  0.1487
 3110SOL    HW210230   1.682   4.043   3.081 -1.3100  0.0038  1.8207
 3111SOL     OW10231   5.648   2.123   4.032  0.5527  0.0387 -0.3036
 3111SOL    HW110232   5.718   2.106   3.963  1.0783 -0.7505  0.4164
 3111SOL    HW210233   5.618   2.037   4.071 -0.1377  0.4457  0.0745
 3112SOL     OW10234   2.707   3.117   1.715 -0.2571  0.1345  0.0094
 3112SOL    HW110235   2.622   3.170   1.718  1.2969  2.8237  0.0025
 3112SOL    HW210236   2.698   3.043   1.648 -3.5563 -1.6300  2.1582
 3113SOL     OW10237   2.589   5.371   4.225  0.4780  0.0044 -0.5557
 3113SOL    HW110238   2.648   5.450   4.242 -0.6416  0.6894  0.2362
 3113SOL    HW210239   2.616   5.328   4.139  1.4292  0.9401 -0.7495
 3114SOL     OW10240   4.321   2.792   0.388 -0.1384  0.3030  0.1558
 3114SOL    HW110241   4.244   2.818   0.329 -1.5361  1.6529  2.4216
 3114SOL    HW210242   4.295   2.711   0.442  0.5364 -0.0084  0.0179
 3115SOL     OW10243   3.059   3.499   4.354 -0.5571  1.1769 -0.3740
 3115SOL    HW110244   3.046   3.527   4.259  0.3733  0.8482 -0.6111
 3115SOL    HW210245   3.041   3.576   4.415  0.6490  1.9366 -0.9361
 3116SOL     OW10246   5.857   3.526   0.648 -0.4702  0.2893 -0.1068
 3116SOL    HW110247   5.850   3.616   0.605 -0.8758 -0.1722 -1.0467
 3116SOL    HW210248   5.780   3.512   0.710  0.0073  0.8794  0.6398
 3117SOL     OW10249   5.155   0.664   6.216 -0.1870 -1.1387  0.6329
 3117SOL    HW110250   5.247   0.658   6.176  1.1461 -1.0913  3.4584
 3117SOL    HW210251   5.088   0.631   6.150  2.0729 -3.1924 -0.7990
 3118SOL     OW10252   1.513   1.276   1.919  0.2062 -0.3171 -0.2755
 3118SOL    HW110253   1.577   1.219   1.867  1.3608  0.7681 -0.0781
 3118SOL    HW210254   1.553   1.366   1.935  0.0645 -0.7045  2.8198
 3119SOL     OW10255   3.324   3.521   5.703  0.1434 -0.6461 -0.1080
 3119SOL    HW110256   3.262   3.461   5.652 -1.5697  1.9870 -1.3519
 3119SOL    HW210257   3.327   3.611   5.659  0.9734  0.8487  2.7503
 3120SOL     OW10258   2.102   6.985   4.490  0.2819 -0.0871 -0.3604
 3120SOL    HW110259   2.168   6.953   4.422 -0.4482 -1.3362 -0.5154
 3120SOL    HW210260   2.044   7.055   4.449  0.5401 -0.0628 -0.6890
 3121SOL     OW10261   4.620   6.938   0.057  0.2002  0.5207  0.3454
 3121SOL    HW110262   4.645   7.018   0.110 -1.5875 -0.5024  2.9553
 3121SOL    HW210263   4.641   6.855   0.109 -0.6628 -0.5965 -1.0017
 3122SOL     OW10264   4.908   5.055   2.072  0.2387  0.3946  0.2465
 3122SOL    HW110265   4.900   4.956   2.066  3.1473  0.1196 -1.1741
 3122SOL    HW210266   4.954   5.081   2.157  2.9356  0.0830 -0.9966
 3123SOL     OW10267   3.171   2.015   2.341 -0.1345  0.2906 -0.0292
 3123SOL    HW110268   3.122   2.085   2.392  0.6727 -0.4901  1.9019
 3123SOL    HW210269   3.267   2.042   2.330  0.1607 -0.4432  0.6501
 3124SOL     OW10270   5.144   0.426   3.477  0.4067 -0.1827 -0.4750
 3124SOL    HW110271   5.136   0.525   3.470 -0.2329 -0.2218 -0.3190
 3124SOL    HW210272   5.232   0.403   3.519  0.0610  0.3700  0.5851
 3125SOL     OW10273   0.039   2.350   3.808  0.4542  0.0271  0.7503
 3125SOL    HW110274   0.116   2.290   3.785  0.0381 -0.5419  0.8074
 3125SOL    HW210275   0.037   2.428   3.746  0.2496 -0.6887 -0.1551
 3126SOL     OW10276   4.710   0.350   3.168  0.0045  0.1079  0.0217
 3126SOL    HW110277   4.752   0.262   3.191 -1.0244 -1.0090 -2.0323
 3126SOL    HW210278   4.741   0.379   3.077 -1.2318  0.8019 -0.2064
 3127SOL     OW10279   1.027   1.850   5.188  0.2426  0.1747  0.6057
 3127SOL    HW110280   1.108   1.809   5.146  1.5023  1.5772  1.5738
 3127SOL    HW210281   1.039   1.949   5.196 -1.2821  0.3354  1.3940
 3128SOL     OW10282   4.745   5.960   2.227  0.2026  0.6590  0.3984
 3128SOL    HW110283   4.707   6.000   2.144 -0.8837  0.5247  0.8227
 3128SOL    HW210284   4.676   5.957   2.299  1.1252  0.7682  1.3211
 3129SOL     OW10285   4.415   1.995   0.722  0.0602  0.3160  0.2769
 3129SOL    HW110286   4.342   1.944   0.765 -0.9858  1.4864 -0.0307
 3129SOL    HW210287   4.424   2.084   0.766 -0.4104  1.1722 -1.2586
 3130SOL     OW10288   2.702   3.806   1.149 -0.0665  0.2064 -0.5743
 3130SOL    HW110289   2.801   3.813   1.166  0.2069 -1.5689 -1.2012
 3130SOL    HW210290   2.660   3.895   1.161  1.4893  0.8465  0.5060
 3131SOL     OW10291   0.128   6.347   3.046  0.4703 -0.1849  0.7110
 3131SOL    HW110292   0.041   6.391   3.025  1.5733  0.9140 -1.9713
 3131SOL    HW210293   0.111   6.254   3.079 -1.7083  0.0691  0.4287
 3132SOL     OW10294   5.322   5.741   0.667  0.2123  0.0714 -0.3656
 3132SOL    HW110295   5.388   5.721   0.595  0.1131 -1.8567  0.0258
 3132SOL    HW210296   5.317   5.663   0.731 -1.4750  0.7074  0.3485
 3133SOL     OW10297   3.651   5.684   4.032  0.3156 -0.2937  0.2507
 3133SOL    HW110298   3.564   5.635   4.038 -0.2658  0.7239  0.3409
 3133SOL    HW210299   3.641   5.761   3.969  0.9153  0.3032  0.8715
 3134SOL     OW10300   3.671   6.072   2.900  0.2799  0.2922  0.1398
 3134SOL    HW110301   3.633   6.164   2.898 -0.7440 -0.0978  0.7014
 3134SOL    HW210302   3.719   6.054   2.814 -0.9516  0.7664 -0.6837
 3135SOL     OW10303   4.629   0.262   5.042  0.1619  0.2820 -0.1474
 3135SOL    HW110304   4.711   0.206   5.032  0.0300  0.2495 -1.0650
 3135SOL    HW210305   4.653   0.348   5.088  0.8290  0.5283 -0.9324
 3136SOL     OW10306   6.513   3.642   0.664 -1.2110 -0.0586 -0.0842
 3136SOL    HW110307   6.607   3.676   0.673 -1.4922  0.8151 -0.3250
 3136SOL    HW210308   6.510   3.545   0.689 -0.2421 -0.1043 -0.1055
 3137SOL     OW10309   1.499   5.519   0.351 -0.0955  0.5402 -0.0327
 3137SOL    HW110310   1.501   5.601   0.409 -0.1179 -0.1000  0.8892
 3137SOL    HW210311   1.551   5.446   0.395  0.4264  0.2308 -1.1348
 3138SOL     OW10312   4.652   6.071   3.581 -0.2576 -0.3842  0.0230
 3138SOL    HW110313   4.662   6.170   3.572  0.8027 -0.4523  0.2518
 3138SOL    HW210314   4.711   6.025   3.515  1.0861 -0.8421  1.4569
 3139SOL     OW10315   2.776   3.199   0.618  0.2827  0.4004  0.1654
 3139SOL    HW110316   2.808   3.209   0.712 -0.2725 -1.5382  0.6044
 3139SOL    HW210317   2.813   3.273   0.562  0.7159  1.5325  1.8662
 3140SOL     OW10318   5.158   5.891   5.489 -0.7212 -0.0453  0.0103
 3140SOL    HW110319   5.209   5.975   5.503  0.0176 -0.7554  1.9238
 3140SOL    HW210320   5.067   5.900   5.529 -1.2293  0.3581 -1.1908
 3141SOL     OW10321   0.532   2.814   6.857  0.7378  0.2760 -0.4965
 3141SOL    HW110322   0.474   2.732   6.860  1.9491 -0.6499 -1.2467
 3141SOL    HW210323   0.626   2.788   6.877  1.2716  1.3568 -1.5009
 3142SOL     OW10324   5.273   1.280   2.737  0.3076 -0.3651  0.0572
 3142SOL    HW110325   5.232   1.360   2.692  1.0846 -0.2350 -0.4329
 3142SOL    HW210326   5.372   1.286   2.732  0.4088 -2.5016 -2.0398
 3143SOL     OW10327   4.831   0.397   1.290 -0.4553 -0.4924  0.1239
 3143SOL    HW110328   4.780   0.326   1.242  0.7279  0.0622 -2.1318
 3143SOL    HW210329   4.875   0.457   1.222  1.7662  0.0647  1.9399
 3144SOL     OW10330   2.885   3.962   5.917  0.2414  0.1132  0.2949
 3144SOL    HW110331   2.864   4.047   5.868  0.7510  0.5869  0.8880
 3144SOL    HW210332   2.803   3.929   5.963  0.2003  0.6423  0.6058
 3145SOL     OW10333   1.932   6.024   1.450  0.0473 -0.0347 -0.7125
 3145SOL    HW110334   2.007   6.024   1.516  0.1038 -0.5000 -0.7728
 3145SOL    HW210335   1.894   5.932   1.443  1.6166 -0.5700 -3.1192
 3146SOL     OW10336   0.779   1.721   6.499  0.8432 -0.1682  0.3939
 3146SOL    HW110337   0.681   1.720   6.480  0.6252 -0.7385  1.4872
 3146SOL    HW210338   0.829   1.746   6.416 -0.1548 -0.9800 -0.4646
 3147SOL     OW10339   4.458   4.186   6.483  0.0423  0.1732  0.0245
 3147SOL    HW110340   4.448   4.232   6.571  0.9664  0.0431  0.2130
 3147SOL    HW210341   4.431   4.247   6.410  0.9071  0.9054  0.2947
 3148SOL     OW10342   0.748   1.253   1.151  0.0312 -0.2596 -0.4198
 3148SOL    HW110343   0.735   1.247   1.250  0.2663 -1.4483 -0.4435
 3148SOL    HW210344   0.699   1.179   1.106  0.9547 -0.4917 -1.0820
 3149SOL     OW10345   3.293   1.652   1.156 -0.9610  0.3984  0.1816
 3149SOL    HW110346   3.243   1.625   1.074  0.4546  1.6758 -1.1769
 3149SOL    HW210347   3.391   1.633   1.143 -1.0435 -2.9917  3.1391
 3150SOL     OW10348   4.942   6.566   6.753  0.2948  0.0340  0.5231
 3150SOL    HW110349   4.996   6.526   6.678 -1.2786 -3.3240  1.0054
 3150SOL    HW210350   4.927   6.497   6.824 -1.5338  1.9544  2.1367
 3151SOL     OW10351   6.149   0.264   5.231  0.1570 -0.0007  0.0476
 3151SOL    HW110352   6.234   0.225   5.267  0.9982  3.2014  1.9299
 3151SOL    HW210353   6.076   0.255   5.300  0.3272  1.4727  0.4539
 3152SOL     OW10354   0.999   3.384   5.569 -0.5966  0.3042  0.2345
 3152SOL    HW110355   1.020   3.308   5.506 -1.2912 -0.4231  0.8625
 3152SOL    HW210356   1.033   3.361   5.660  2.9989  2.5343 -0.3275
 3153SOL     OW10357   0.442   4.585   1.464  0.5628  0.5552 -0.2492
 3153SOL    HW110358   0.437   4.600   1.365  2.3368  1.6624 -0.2154
 3153SOL    HW210359   0.404   4.664   1.511 -0.6103 -0.1252 -0.0165
 3154SOL     OW10360   5.941   1.877   3.078 -0.5446 -0.0691 -0.3232
 3154SOL    HW110361   6.018   1.815   3.091 -0.5374  0.0595  0.3080
 3154SOL    HW210362   5.882   1.874   3.159 -0.8583  0.3128 -0.5317
 3155SOL     OW10363   1.534   3.964   6.542  0.7574 -0.5454  0.0642
 3155SOL    HW110364   1.518   3.945   6.445 -0.3659 -0.4237  0.2092
 3155SOL    HW210365   1.455   3.933   6.595  0.5765  0.9927  0.7482
 3156SOL     OW10366   3.908   4.080   1.628  0.7255  0.7809 -0.7908
 3156SOL    HW110367   3.909   4.000   1.567 -0.0357  0.9822 -1.0720
 3156SOL    HW210368   4.002   4.101   1.656  0.9156 -0.3485 -0.5347
 3157SOL     OW10369   0.056   2.609   4.931 -0.3617  0.3324 -0.1209
 3157SOL    HW110370   0.048   2.513   4.906  0.0737  0.0447  0.7797
 3157SOL    HW210371  -0.034   2.652   4.931 -0.4706  0.1322 -1.2758
 3158SOL     OW10372   3.183   2.262   0.715 -0.1303 -0.2962 -0.5003
 3158SOL    HW110373   3.089   2.276   0.747  0.1783  0.7691 -0.0191
 3158SOL    HW210374   3.202   2.164   0.709 -1.4220 -0.5348 -1.0663
 3159SOL     OW10375   5.861   6.293   1.074 -0.2788 -0.0697  0.4043
 3159SOL    HW110376   5.908   6.253   0.995  0.0088  1.3835 -0.1991
 3159SOL    HW210377   5.776   6.335   1.044 -0.2028  0.4350  0.8845
 3160SOL     OW10378   3.192   6.528   5.055 -1.0681 -0.6862  0.2899
 3160SOL    HW110379   3.231   6.436   5.050 -0.6914 -0.5323  0.3829
 3160SOL    HW210380   3.138   6.546   4.972  0.2502 -0.3652 -0.5313
 3161SOL     OW10381   2.172   3.177   3.945  0.7700 -0.0418  0.1415
 3161SOL    HW110382   2.149   3.273   3.963  1.7728  0.1486  0.4569
 3161SOL    HW210383   2.176   3.162   3.846 -2.2638 -0.4858  0.0003
 3162SOL     OW10384   1.802   5.901   0.802 -0.3038  0.1057  0.4540
 3162SOL    HW110385   1.839   5.926   0.891  1.7063 -1.8649  0.2733
 3162SOL    HW210386   1.759   5.811   0.807 -1.1252  0.4401 -0.3388
 3163SOL     OW10387   4.713   4.289   1.019 -0.4141  0.0218 -0.1002
 3163SOL    HW110388   4.654   4.269   1.097  0.3685  1.6582  0.9808
 3163SOL    HW210389   4.686   4.377   0.978  1.0788  0.7066  0.2943
 3164SOL     OW10390   3.490   5.221   1.201  0.2478  0.1687  0.2797
 3164SOL    HW110391   3.476   5.145   1.264 -1.8458  0.7546  0.5901
 3164SOL    HW210392   3.510   5.304   1.252 -0.6929  0.4846  0.1518
 3165SOL     OW10393   1.057   4.579   2.199 -0.3203  0.3907  0.3208
 3165SOL    HW110394   0.989   4.639   2.242 -1.1071 -0.3151  0.0988
 3165SOL    HW210395   1.050   4.488   2.239 -0.0815  0.0961 -0.3034
 3166SOL     OW10396   3.473   0.970   4.223  0.3083 -0.0710  0.1802
 3166SOL    HW110397   3.447   0.971   4.126  0.4330 -0.9939  0.1278
 3166SOL    HW210398   3.573   0.969   4.230  0.3361  1.3891  0.3525
 3167SOL     OW10399   5.010   3.222   0.792 -0.5019 -0.5817 -0.2514
 3167SOL    HW110400   4.978   3.317   0.791  2.7301  0.6426  0.1108
 3167SOL    HW210401   5.021   3.190   0.698 -0.3545 -0.1411 -0.3832
 3168SOL     OW10402   5.275   2.743   1.091  0.0653 -0.4554  0.3564
 3168SOL    HW110403   5.270   2.801   1.172 -0.4935 -1.2249  0.8942
 3168SOL    HW210404   5.269   2.647   1.119 -1.2628 -0.7054 -0.6783
 3169SOL     OW10405   6.164   4.733   6.658 -0.6024  0.3296 -0.0315
 3169SOL    HW110406   6.252   4.745   6.613 -0.7136 -0.8230 -0.5709
 3169SOL    HW210407   6.110   4.665   6.609 -1.1321 -0.2008  1.2464
 3170SOL     OW10408   3.170   5.788   3.227  0.0405  0.2034  0.5530
 3170SOL    HW110409   3.145   5.703   3.179  1.3583  0.2794 -0.2973
 3170SOL    HW210410   3.229   5.843   3.169  1.7935  0.2532  2.3050
 3171SOL     OW10411   5.368   4.210   2.488 -0.3340 -0.3569  0.0661
 3171SOL    HW110412   5.307   4.277   2.530  1.1729 -0.1320  2.0428
 3171SOL    HW210413   5.409   4.249   2.406 -1.5517  0.0903 -0.3547
 3172SOL     OW10414   6.738   5.931   4.269  0.2872 -0.0624  0.1383
 3172SOL    HW110415   6.795   5.894   4.343 -0.0035  0.5648  0.6941
 3172SOL    HW210416   6.686   5.858   4.227 -0.4828 -0.2650  1.3926
 3173SOL     OW10417   2.805   2.677   6.746 -0.3917 -0.1446  0.1775
 3173SOL    HW110418   2.796   2.613   6.671  2.3104  0.9802 -1.2520
 3173SOL    HW210419   2.746   2.757   6.730  1.1921  0.7429 -1.5819
 3174SOL     OW10420   1.940   2.621   5.855 -0.1439 -0.1388 -0.3694
 3174SOL    HW110421   1.876   2.607   5.780 -1.1374  0.3952  0.3515
 3174SOL    HW210422   1.959   2.719   5.864 -2.0418  0.1233  1.6385
 3175SOL     OW10423   6.167   1.552   4.858  0.1690 -0.7529 -0.2879
 3175SOL    HW110424   6.231   1.622   4.824  1.1111 -1.3599  0.1922
 3175SOL    HW210425   6.111   1.591   4.931 -1.2403  0.2934 -1.8418
 3176SOL     OW10426   6.610   4.420   5.963 -0.2120 -0.9536 -0.5662
 3176SOL    HW110427   6.668   4.355   6.011  0.7056 -0.1586 -0.5716
 3176SOL    HW210428   6.657   4.452   5.881 -0.7607 -0.4803 -0.6991
 3177SOL     OW10429   5.195   5.370   3.293  0.1970 -0.0463 -0.0121
 3177SOL    HW110430   5.211   5.379   3.194  1.9894  1.3450  0.3636
 3177SOL    HW210431   5.282   5.366   3.341 -0.5776  1.9256  1.7180
 3178SOL     OW10432   5.408   0.288   0.202  0.2714 -0.1102 -0.1949
 3178SOL    HW110433   5.455   0.359   0.255  1.2754 -0.9358  0.0386
 3178SOL    HW210434   5.309   0.305   0.205  0.4254  0.7475  0.6356
 3179SOL     OW10435   0.978   2.408   1.664  0.3133 -0.1790  0.3585
 3179SOL    HW110436   1.022   2.473   1.726 -0.5587 -0.6120  1.4526
 3179SOL    HW210437   0.897   2.451   1.623  0.5109 -0.1222  0.0208
 3180SOL     OW10438   5.571   6.298   0.112  0.1629 -0.2698  0.4522
 3180SOL    HW110439   5.572   6.244   0.196  2.2663 -0.7167  0.2019
 3180SOL    HW210440   5.598   6.240   0.035  2.7657  1.0871  0.2181
 3181SOL     OW10441   6.896   1.067   4.572 -0.3316  0.4358  0.0639
 3181SOL    HW110442   6.897   1.095   4.476  2.0597  0.9588  0.1722
 3181SOL    HW210443   6.859   1.140   4.628 -2.1079 -0.0183 -0.4536
 3182SOL     OW10444   1.770   1.366   1.741 -0.0382  0.6829  0.2409
 3182SOL    HW110445   1.862   1.373   1.702  0.2629  1.2239  1.0080
 3182SOL    HW210446   1.745   1.270   1.753  1.6446  0.4401  2.7168
 3183SOL     OW10447   4.643   5.267   2.931  0.2238 -0.0982 -0.4039
 3183SOL    HW110448   4.620   5.205   3.006 -0.3913 -1.1661 -1.4293
 3183SOL    HW210449   4.730   5.311   2.950 -0.3268  0.3229  1.3269
 3184SOL     OW10450   1.053   2.791   4.347 -0.4340  0.1689  0.1368
 3184SOL    HW110451   0.987   2.818   4.417 -1.2000 -1.8853  0.2670
 3184SOL    HW210452   1.112   2.719   4.382 -0.4683 -0.5018 -1.1412
 3185SOL     OW10453   1.989   1.641   5.076  0.2040  0.4075 -0.2902
 3185SOL    HW110454   1.980   1.740   5.071  1.1114  0.5364  0.3613
 3185SOL    HW210455   1.962   1.600   4.989 -0.4961  1.1938 -0.4545
 3186SOL     OW10456   1.248   1.356   0.700 -0.1351  0.0526  0.7450
 3186SOL    HW110457   1.299   1.432   0.740  0.0801 -0.5918  1.7327
 3186SOL    HW210458   1.231   1.286   0.770  1.1076 -1.5755 -0.4933
 3187SOL     OW10459   1.483   3.094   3.480  0.2975 -0.2288 -0.0444
 3187SOL    HW110460   1.409   3.034   3.512 -0.7754  0.9777 -0.1948
 3187SOL    HW210461   1.541   3.044   3.416  1.0505 -1.9419  1.8778
 3188SOL     OW10462   2.613   5.677   2.606 -0.1070  0.0792  0.2116
 3188SOL    HW110463   2.520   5.645   2.588  0.6507 -0.9490 -2.1999
 3188SOL    HW210464   2.674   5.598   2.617  0.8218  0.7263 -0.2024
 3189SOL     OW10465   0.924   2.187   5.973 -0.6156  0.4347 -1.0893
 3189SOL    HW110466   0.957   2.281   5.981  1.3321 -0.1830 -1.3557
 3189SOL    HW210467   0.902   2.151   6.063  1.0143  0.3774 -0.6783
 3190SOL     OW10468   0.750   6.295   5.587  0.3873  0.0991 -0.4048
 3190SOL    HW110469   0.716   6.204   5.611 -1.6193  0.9921  0.4266
 3190SOL    HW210470   0.705   6.326   5.503  1.0232  0.3422 -0.6571
 3191SOL     OW10471   4.347   4.673   1.322 -0.3117  0.4743 -0.2100
 3191SOL    HW110472   4.305   4.641   1.237 -0.4986  0.9631 -0.3086
 3191SOL    HW210473   4.428   4.728   1.300 -0.8045  1.2572 -0.1171
 3192SOL     OW10474   5.652   1.818   1.384 -0.1926  0.1563  0.5136
 3192SOL    HW110475   5.706   1.734   1.387  0.3100  0.4153 -0.6835
 3192SOL    HW210476   5.680   1.879   1.458  0.7301  0.0207  0.2828
 3193SOL     OW10477   4.685   2.517   5.266 -0.1733  0.4653  0.2163
 3193SOL    HW110478   4.604   2.499   5.211  0.9233 -3.5316 -0.3701
 3193SOL    HW210479   4.758   2.552   5.207 -0.0650 -0.4990 -0.2442
 3194SOL     OW10480   1.894   1.910   5.164  0.7024 -0.1822  0.2339
 3194SOL    HW110481   1.804   1.873   5.142  0.4983  0.3041  0.2581
 3194SOL    HW210482   1.905   2.001   5.124  0.3039  0.7529  2.1125
 3195SOL     OW10483   6.533   3.354   1.766  0.7573  0.0502 -0.6512
 3195SOL    HW110484   6.487   3.425   1.820  1.0641 -0.9319  0.9846
 3195SOL    HW210485   6.466   3.285   1.738  0.9622 -0.7203  0.6476
 3196SOL     OW10486   6.744   6.945   5.352  0.2932  0.3698  0.3557
 3196SOL    HW110487   6.830   6.895   5.360 -0.7824 -1.4582  0.9195
 3196SOL    HW210488   6.738   7.014   5.424  1.0786  0.2246  0.5673
 3197SOL     OW10489   3.064   4.648   6.460  0.2775 -0.2693  1.0240
 3197SOL    HW110490   3.112   4.662   6.547 -0.5252  2.3819  1.1335
 3197SOL    HW210491   2.973   4.610   6.479  0.6723 -1.1495  1.1928
 3198SOL     OW10492   6.350   2.223   4.136 -0.1811 -0.4546 -0.2032
 3198SOL    HW110493   6.297   2.142   4.110 -0.5483 -0.5806  0.8876
 3198SOL    HW210494   6.313   2.303   4.089 -2.0499 -0.3614  1.3001
 3199SOL     OW10495   5.252   5.886   2.425  0.0150 -0.4231  0.7569
 3199SOL    HW110496   5.286   5.978   2.405  1.4816  0.2673  5.2910
 3199SOL    HW210497   5.152   5.889   2.432 -0.1087  0.3341 -0.8344
 3200SOL     OW10498   6.267   5.433   4.453 -1.1718  0.1897 -0.0129
 3200SOL    HW110499   6.174   5.430   4.490 -1.2000  0.3746 -0.0671
 3200SOL    HW210500   6.265   5.405   4.357 -0.9771 -1.1072  0.3564
 3201SOL     OW10501   0.183   3.635   3.345  0.8236  0.1870 -0.0502
 3201SOL    HW110502   0.139   3.678   3.266 -1.0182 -0.9687  0.2862
 3201SOL    HW210503   0.164   3.688   3.427 -0.8697 -0.8409  0.2560
 3202SOL     OW10504   2.468   0.264   0.157  0.0349 -0.4675  0.3500
 3202SOL    HW110505   2.405   0.324   0.108 -0.0193 -0.7137  0.1159
 3202SOL    HW210506   2.459   0.171   0.122  1.9989 -0.1451 -1.1495
 3203SOL     OW10507   5.068   6.353   0.706  0.2848 -0.1878 -0.7241
 3203SOL    HW110508   5.030   6.352   0.798  1.3604 -1.3124 -0.2631
 3203SOL    HW210509   4.996   6.380   0.641 -0.0953  2.1755  0.5591
 3204SOL     OW10510   2.075   2.657   3.490  0.0937 -0.6589  0.5944
 3204SOL    HW110511   2.025   2.579   3.526 -0.7197  0.6249  2.4352
 3204SOL    HW210512   2.030   2.742   3.521  1.0711  0.5353 -1.1248
 3205SOL     OW10513   4.426   3.342   6.604  0.1200 -0.1451  0.4665
 3205SOL    HW110514   4.418   3.331   6.505 -1.3616  1.3298  0.3799
 3205SOL    HW210515   4.479   3.266   6.641  0.8476 -0.6555 -1.4610
 3206SOL     OW10516   3.023   3.583   1.360  0.9636  0.0326  0.5675
 3206SOL    HW110517   3.074   3.545   1.438  1.5833  0.5197  0.4004
 3206SOL    HW210518   2.972   3.664   1.390 -2.5005 -2.2887  1.6118
 3207SOL     OW10519   2.064   0.217   5.241  0.2732 -0.4913  0.1372
 3207SOL    HW110520   2.027   0.124   5.242 -0.3835 -0.2317  0.3473
 3207SOL    HW210521   2.157   0.216   5.276  0.6941 -1.2441 -0.9583
 3208SOL     OW10522   5.951   5.541   5.013  0.5700  0.5321  0.4314
 3208SOL    HW110523   5.906   5.543   4.924  0.8884 -0.2275  0.2437
 3208SOL    HW210524   5.926   5.456   5.061  0.0949  1.1137  1.2278
 3209SOL     OW10525   5.335   5.083   5.641  0.4428 -0.0984 -0.1354
 3209SOL    HW110526   5.250   5.062   5.689 -0.4643 -0.3105 -1.7407
 3209SOL    HW210527   5.389   5.147   5.695 -0.8780  0.2689  0.8052
 3210SOL     OW10528   6.126   5.962   1.914  0.2788  0.1726 -0.5433
 3210SOL    HW110529   6.116   6.058   1.888 -0.0524  1.1193  2.7057
 3210SOL    HW210530   6.223   5.942   1.928  0.2649  0.3820 -0.1210
 3211SOL     OW10531   0.338   6.015   1.041  0.2603 -0.7099  0.0716
 3211SOL    HW110532   0.316   6.109   1.067  0.0351 -0.6719 -0.2486
 3211SOL    HW210533   0.436   6.005   1.029  0.1884 -0.2212 -1.0195
 3212SOL     OW10534   1.717   6.313   2.464 -0.3251 -0.9260 -0.5003
 3212SOL    HW110535   1.734   6.337   2.369 -0.1559 -0.8939 -0.4622
 3212SOL    HW210536   1.621   6.287   2.476 -1.2216  2.2050 -0.0419
 3213SOL     OW10537   1.837   1.436   0.560 -0.1502  0.0107 -0.1752
 3213SOL    HW110538   1.768   1.412   0.628  1.2252  1.2603  1.7395
 3213SOL    HW210539   1.928   1.417   0.596  0.6236  0.4567 -1.7836
 3214SOL     OW10540   4.926   0.174   3.848  0.2681 -0.0432 -0.0980
 3214SOL    HW110541   4.837   0.137   3.875  0.1872 -0.6275 -1.0929
 3214SOL    HW210542   4.927   0.273   3.863 -0.7287  0.0461 -0.5189
 3215SOL     OW10543   1.253   4.879   4.418 -0.7130 -0.3513  0.4861
 3215SOL    HW110544   1.343   4.901   4.457  1.4094 -2.6587 -2.6476
 3215SOL    HW210545   1.207   4.812   4.476 -0.4266  0.7685  2.0748
 3216SOL     OW10546   6.949   5.384   1.497 -0.0104 -0.2496  0.2487
 3216SOL    HW110547   7.001   5.331   1.429 -1.1482 -2.3374  0.9297
 3216SOL    HW210548   6.993   5.376   1.586 -1.4776 -2.1480  0.8605
 3217SOL     OW10549   0.384   5.432   3.176 -0.0911 -0.1269 -1.0569
 3217SOL    HW110550   0.356   5.381   3.257  1.4812  1.1080  0.3456
 3217SOL    HW210551   0.322   5.510   3.163  0.6462  0.6939  0.0758
 3218SOL     OW10552   0.135   3.429   3.504 -0.3959  0.1135  0.2427
 3218SOL    HW110553   0.117   3.481   3.587 -0.9782  0.3179 -0.0052
 3218SOL    HW210554   0.128   3.490   3.425 -2.6856 -0.6225 -0.1958
 3219SOL     OW10555   5.368   1.252   4.404  0.7203 -0.3859  0.5622
 3219SOL    HW110556   5.360   1.314   4.482 -0.5195 -0.0110  0.1597
 3219SOL    HW210557   5.455   1.268   4.357  0.9008  0.2731  1.1124
 3220SOL     OW10558   5.890   5.220   5.732  0.0765 -0.2841 -0.3544
 3220SOL    HW110559   5.821   5.160   5.773  0.2916  0.6657  1.4911
 3220SOL    HW210560   5.845   5.294   5.682 -0.1887 -1.1794 -1.4965
 3221SOL     OW10561   4.900   1.275   2.287  0.3225  0.3584  0.2599
 3221SOL    HW110562   4.882   1.181   2.316  1.4828  0.6675  2.1196
 3221SOL    HW210563   4.882   1.338   2.363  0.6266  1.5482 -0.6162
 3222SOL     OW10564   2.302   1.049   4.435 -0.8167  1.1382 -0.0014
 3222SOL    HW110565   2.218   1.066   4.487 -2.0291 -2.6311 -0.3611
 3222SOL    HW210566   2.322   0.951   4.438  3.8712  1.8992  0.3537
 3223SOL     OW10567   2.501   0.040   6.985 -0.3720  0.4373  0.3602
 3223SOL    HW110568   2.567  -0.019   6.940 -1.3387  0.1451 -0.7153
 3223SOL    HW210569   2.420  -0.013   7.010 -1.3159  1.3131 -0.7406
 3224SOL     OW10570   3.961   2.047   5.305  0.4271 -0.0566  0.3756
 3224SOL    HW110571   3.886   2.008   5.252  0.2556  0.5705  0.1370
 3224SOL    HW210572   3.935   2.050   5.401  0.7098 -1.1334  0.4961
 3225SOL     OW10573   3.500   1.596   3.249 -0.0846 -0.6428  0.7202
 3225SOL    HW110574   3.592   1.635   3.248 -0.1373 -0.5319 -0.0769
 3225SOL    HW210575   3.432   1.669   3.245 -0.1846 -0.7890 -0.6463
 3226SOL     OW10576   2.218   0.352   4.414  0.1120 -0.1052  0.0551
 3226SOL    HW110577   2.208   0.308   4.324  0.2507 -1.5063  0.7001
 3226SOL    HW210578   2.207   0.451   4.404  1.0457 -0.1280 -1.6604
 3227SOL     OW10579   2.807   3.239   6.156 -0.8761  0.3800 -0.1139
 3227SOL    HW110580   2.790   3.156   6.103 -0.6591  0.2675 -0.0083
 3227SOL    HW210581   2.901   3.270   6.140 -0.6625  0.0851  0.5637
 3228SOL     OW10582   1.785   4.165   0.175 -0.3117 -0.1394  0.0412
 3228SOL    HW110583   1.772   4.086   0.234 -0.6482 -1.2083 -1.4141
 3228SOL    HW210584   1.826   4.137   0.088  0.7889  1.4881 -0.0223
 3229SOL     OW10585   2.591   1.998   5.371  0.2199  0.1729  0.4754
 3229SOL    HW110586   2.604   1.938   5.450 -0.8624 -1.6732 -0.6809
 3229SOL    HW210587   2.529   1.954   5.306  1.0309  1.6594 -1.3824
 3230SOL     OW10588   2.523   5.643   6.637 -0.0115  0.0272 -0.1043
 3230SOL    HW110589   2.542   5.642   6.539 -0.7494 -0.7218 -0.2575
 3230SOL    HW210590   2.427   5.618   6.652 -0.0900  0.8260  0.7725
 3231SOL     OW10591   1.874   0.895   2.861  0.2627  0.0172 -0.0870
 3231SOL    HW110592   1.827   0.979   2.834  0.0839 -0.2447 -0.6022
 3231SOL    HW210593   1.855   0.877   2.958  0.8587  0.9283  0.2103
 3232SOL     OW10594   3.343   0.177   3.975  0.5562 -0.6061  0.5672
 3232SOL    HW110595   3.309   0.120   3.900 -0.8326 -1.3059  1.6798
 3232SOL    HW210596   3.326   0.273   3.955 -0.4121 -0.8306  0.2688
 3233SOL     OW10597   0.054   1.247   6.662  0.0385  0.8580 -0.0102
 3233SOL    HW110598  -0.039   1.271   6.635 -1.6680 -2.7989  1.8881
 3233SOL    HW210599   0.054   1.219   6.758  3.2103  0.9459  0.1092
 3234SOL     OW10600   0.628   0.640   0.339  0.1533  0.0676  0.3658
 3234SOL    HW110601   0.608   0.569   0.273  1.3131  1.2629 -1.3555
 3234SOL    HW210602   0.725   0.636   0.364 -0.2035 -0.2071  1.8646
 3235SOL     OW10603   5.156   4.894   1.775  0.1357  0.3537  0.1498
 3235SOL    HW110604   5.188   4.840   1.852  0.9991 -0.2449 -0.6051
 3235SOL    HW210605   5.065   4.863   1.747  0.5667 -0.6429 -0.1898
 3236SOL     OW10606   5.954   3.528   6.981  0.3366 -0.0856  0.0466
 3236SOL    HW110607   5.996   3.509   7.070  1.8007  0.4706 -0.4960
 3236SOL    HW210608   5.976   3.621   6.953 -1.3106  0.2364 -0.2741
 3237SOL     OW10609   5.499   0.982   5.878 -0.2938  0.0283 -0.0121
 3237SOL    HW110610   5.421   0.939   5.834  1.3656 -2.0559 -1.1407
 3237SOL    HW210611   5.563   1.015   5.807  0.5135  0.4007  0.8645
 3238SOL     OW10612   5.254   6.307   6.673 -0.3113  0.7225 -0.3880
 3238SOL    HW110613   5.301   6.239   6.616 -1.6419 -0.5209 -0.0525
 3238SOL    HW210614   5.212   6.376   6.615 -0.7557  0.0602 -0.8642
 3239SOL     OW10615   5.749   0.672   5.132 -0.4729 -0.4007  0.3083
 3239SOL    HW110616   5.715   0.763   5.108  0.9515 -0.0545 -0.5418
 3239SOL    HW210617   5.707   0.604   5.071 -1.7779 -0.3770  1.1504
 3240SOL     OW10618   6.915   1.041   5.591 -0.2553 -1.0774  0.2431
 3240SOL    HW110619   6.878   1.062   5.500  0.9349 -0.8123 -0.1939
 3240SOL    HW210620   6.960   1.122   5.628 -0.0790 -1.4085  0.7562
 3241SOL     OW10621   6.662   6.478   0.949 -0.6845 -0.6604 -0.2572
 3241SOL    HW110622   6.650   6.577   0.952 -1.9636 -0.8058  0.0854
 3241SOL    HW210623   6.605   6.439   0.876 -1.4171 -1.2786  0.6109
 3242SOL     OW10624   5.424   4.637   5.186 -0.5069 -0.1861 -0.0225
 3242SOL    HW110625   5.367   4.717   5.202 -2.2174 -0.6763 -2.9720
 3242SOL    HW210626   5.422   4.578   5.267 -1.5670  1.3502  1.1184
 3243SOL     OW10627   5.320   3.591   0.744  0.1370  0.0065 -0.1263
 3243SOL    HW110628   5.351   3.546   0.827 -2.0242 -0.3550  0.5262
 3243SOL    HW210629   5.366   3.679   0.735  1.3628 -0.5235  0.7429
 3244SOL     OW10630   6.166   5.421   0.704  0.5818  0.0275  0.4212
 3244SOL    HW110631   6.219   5.415   0.788 -1.1416  1.7303  1.6937
 3244SOL    HW210632   6.069   5.428   0.726  0.0767  0.4745 -1.7322
 3245SOL     OW10633   3.336   0.910   4.730  0.2257 -0.4875  0.0347
 3245SOL    HW110634   3.290   0.833   4.685  0.5634 -0.0353 -1.1231
 3245SOL    HW210635   3.272   0.954   4.793 -1.1081  0.3751 -1.8382
 3246SOL     OW10636   6.509   0.414   3.085 -0.0715 -1.0555  0.7971
 3246SOL    HW110637   6.511   0.443   3.180  1.7301 -0.3439  0.5786
 3246SOL    HW210638   6.473   0.321   3.079 -1.7515 -0.5225  1.9670
 3247SOL     OW10639   6.452   5.583   3.400 -0.1025  0.3098  0.2132
 3247SOL    HW110640   6.541   5.628   3.389  0.7053 -1.2015  0.2091
 3247SOL    HW210641   6.394   5.603   3.322  1.1770 -0.6838 -1.0422
 3248SOL     OW10642   5.344   3.494   3.342  0.3595 -0.0040  0.6262
 3248SOL    HW110643   5.260   3.451   3.309  0.2869 -0.4400  1.3758
 3248SOL    HW210644   5.413   3.491   3.270 -0.2501  0.3355  0.0106
 3249SOL     OW10645   3.144   3.970   2.766 -0.6319 -0.7451 -0.2430
 3249SOL    HW110646   3.194   3.978   2.680  0.2613 -1.4794  0.1936
 3249SOL    HW210647   3.202   3.999   2.841  0.0958 -3.8554  0.5555
 3250SOL     OW10648   5.666   6.154   3.580 -0.4575 -0.7531  0.4992
 3250SOL    HW110649   5.610   6.237   3.584 -1.0113 -1.1110  0.2817
 3250SOL    HW210650   5.763   6.180   3.574 -0.5774 -0.1319  1.1117
 3251SOL     OW10651   2.589   0.711   5.062  0.5510 -0.3178 -0.1578
 3251SOL    HW110652   2.647   0.666   4.994  0.1343 -0.1311 -0.6420
 3251SOL    HW210653   2.565   0.646   5.134  0.0224 -0.8516 -0.8057
 3252SOL     OW10654   1.182   3.661   3.762  0.2519 -0.2353  0.1014
 3252SOL    HW110655   1.195   3.680   3.665 -0.5178  2.0718  0.3898
 3252SOL    HW210656   1.249   3.713   3.816  0.9799 -1.8516  0.8195
 3253SOL     OW10657   3.788   3.078   6.596  0.3904 -0.2900 -0.1543
 3253SOL    HW110658   3.795   2.981   6.574  0.9930 -0.0163 -1.2235
 3253SOL    HW210659   3.852   3.130   6.540  1.6302  0.5118  1.8755
 3254SOL     OW10660   3.717   0.764   4.116  0.1529  0.0031  0.2900
 3254SOL    HW110661   3.709   0.699   4.040 -1.2562  1.1056 -0.5473
 3254SOL    HW210662   3.690   0.719   4.201 -2.0306 -0.2015 -0.4620
 3255SOL     OW10663   5.896   4.101   1.801  0.1974  0.2235 -0.0145
 3255SOL    HW110664   5.945   4.092   1.715 -0.7337  2.2492 -0.8414
 3255SOL    HW210665   5.828   4.175   1.793 -0.0283  0.3662  2.4030
 3256SOL     OW10666   3.601   1.625   1.154 -0.0668 -1.1402 -0.1186
 3256SOL    HW110667   3.680   1.621   1.216 -0.6016  0.2417  0.7145
 3256SOL    HW210668   3.547   1.542   1.164 -0.2652 -0.8571  1.4815
 3257SOL     OW10669   3.546   1.248   3.377  0.0725 -0.1231  0.4292
 3257SOL    HW110670   3.469   1.266   3.438  0.8706 -2.8382  2.4456
 3257SOL    HW210671   3.629   1.289   3.415  0.1708  0.2257 -0.1426
 3258SOL     OW10672   2.855   5.794   4.286 -0.1257  0.9164 -0.4375
 3258SOL    HW110673   2.780   5.808   4.351 -0.2379  1.5841 -0.7126
 3258SOL    HW210674   2.854   5.698   4.256  0.2537  0.4443  0.9364
 3259SOL     OW10675   5.571   4.558   4.527 -0.0248 -0.4396  0.8044
 3259SOL    HW110676   5.488   4.549   4.471 -0.2228 -1.5979  1.2565
 3259SOL    HW210677   5.552   4.616   4.606 -0.1546  0.0250  0.4318
 3260SOL     OW10678   1.218   3.471   1.857  0.2046  0.0839  0.1048
 3260SOL    HW110679   1.271   3.482   1.773 -0.5542  0.6583 -0.3092
 3260SOL    HW210680   1.279   3.476   1.936  0.8920 -0.2163 -0.3943
 3261SOL     OW10681   1.000   0.532   2.876 -0.2424 -0.1927  0.1709
 3261SOL    HW110682   0.973   0.541   2.972 -2.7507  0.0833 -0.4989
 3261SOL    HW210683   1.095   0.500   2.872  0.1860  0.4632  2.7132
 3262SOL     OW10684   4.263   1.451   2.675  0.6594 -0.0790 -0.6452
 3262SOL    HW110685   4.189   1.518   2.685  0.4155 -0.5366  0.9702
 3262SOL    HW210686   4.258   1.409   2.585 -1.0108 -0.0416 -0.6035
 3263SOL     OW10687   2.961   1.263   4.352  0.6887  0.7568 -0.3817
 3263SOL    HW110688   2.883   1.326   4.343 -0.2403  0.2582  2.7539
 3263SOL    HW210689   2.932   1.170   4.329  0.4781  0.6666  0.2146
 3264SOL     OW10690   2.347   5.476   5.599  0.2383 -0.4071 -0.7415
 3264SOL    HW110691   2.434   5.434   5.574  1.3725 -0.7556  3.0876
 3264SOL    HW210692   2.353   5.575   5.590  1.5592 -0.3210  0.6212
 3265SOL     OW10693   4.162   4.936   4.466  0.0239  0.2725  0.2510
 3265SOL    HW110694   4.181   4.916   4.563 -0.9659  1.0003  0.6082
 3265SOL    HW210695   4.113   5.022   4.459 -1.0617 -0.4083 -0.8211
 3266SOL     OW10696   5.535   2.190   1.121 -0.1301  0.5797 -0.0184
 3266SOL    HW110697   5.524   2.145   1.209  0.7607 -1.3464 -0.8511
 3266SOL    HW210698   5.445   2.207   1.080 -0.5129  0.7594  0.8876
 3267SOL     OW10699   5.204   0.992   2.556 -0.3653 -0.2892  0.5563
 3267SOL    HW110700   5.231   1.087   2.576  0.0242 -0.3715  0.4317
 3267SOL    HW210701   5.222   0.972   2.460 -0.1604 -0.5830  0.6554
 3268SOL     OW10702   0.969   6.192   2.419 -0.0534 -0.3352 -0.2067
 3268SOL    HW110703   1.001   6.244   2.498 -0.6685 -0.2727  0.0021
 3268SOL    HW210704   1.037   6.122   2.396  0.6521  0.3568 -0.3131
 3269SOL     OW10705   6.714   5.844   3.672  0.3225  0.0927  0.0673
 3269SOL    HW110706   6.739   5.936   3.701  1.6663  0.0170 -0.7421
 3269SOL    HW210707   6.762   5.777   3.729 -2.5086 -0.2189  2.2837
 3270SOL     OW10708   1.776   4.134   5.954 -0.0039 -0.3481 -0.2140
 3270SOL    HW110709   1.822   4.143   5.865 -0.1993  0.7857 -0.2183
 3270SOL    HW210710   1.724   4.049   5.956 -0.7935  0.0705 -1.5763
 3271SOL     OW10711   6.584   1.997   1.151  0.4265  0.1962  0.4410
 3271SOL    HW110712   6.520   2.067   1.120 -2.1021 -0.9951  2.5680
 3271SOL    HW210713   6.597   1.929   1.079  0.3068  1.1084 -0.4594
 3272SOL     OW10714   3.970   5.629   6.914  0.4988  0.4442 -0.1948
 3272SOL    HW110715   4.036   5.596   6.847 -0.9337 -1.8808 -0.5606
 3272SOL    HW210716   4.007   5.616   7.006  0.1303 -2.0600 -0.3366
 3273SOL     OW10717   5.537   4.631   6.434 -0.2639 -0.0311  0.3832
 3273SOL    HW110718   5.556   4.720   6.475  1.2185  0.5453 -1.3825
 3273SOL    HW210719   5.459   4.639   6.371  1.1391  0.6020 -1.3532
 3274SOL     OW10720   5.737   0.350   5.661 -0.0770  0.1767  0.0323
 3274SOL    HW110721   5.820   0.405   5.673  0.8593 -0.8802 -1.3812
 3274SOL    HW210722   5.657   0.406   5.684  1.0287  1.0318  2.0119
 3275SOL     OW10723   4.727   0.166   1.172 -0.6144  0.0498 -0.1933
 3275SOL    HW110724   4.663   0.169   1.095 -1.0577  0.4920  0.1884
 3275SOL    HW210725   4.802   0.103   1.151  0.3562  1.6313 -1.8415
 3276SOL     OW10726   5.509   6.609   0.932 -0.3205 -0.0953  0.1410
 3276SOL    HW110727   5.534   6.519   0.968  0.7175 -0.3682 -1.2027
 3276SOL    HW210728   5.420   6.636   0.968 -1.6710 -2.6080 -1.0934
 3277SOL     OW10729   1.330   1.938   0.298  0.0873 -0.3142 -0.1102
 3277SOL    HW110730   1.348   2.036   0.302 -0.9579 -0.0920 -0.5526
 3277SOL    HW210731   1.244   1.922   0.249  0.5891 -1.4858 -0.6455
 3278SOL     OW10732   0.565   0.950   6.009 -0.4908 -0.4306  0.3395
 3278SOL    HW110733   0.553   1.020   6.079 -1.4488  0.2199 -0.4565
 3278SOL    HW210734   0.543   0.860   6.048  0.1405 -0.2425  1.1854
 3279SOL     OW10735   4.933   6.961   1.384  0.6030  0.3792  0.5478
 3279SOL    HW110736   4.982   6.912   1.456 -0.8268  0.5682  1.6843
 3279SOL    HW210737   4.855   6.907   1.353  0.6638  0.7078 -0.2067
 3280SOL     OW10738   4.345   4.664   2.126  0.5469  0.5760  0.5152
 3280SOL    HW110739   4.383   4.594   2.187  1.0662  0.1766 -0.2519
 3280SOL    HW210740   4.344   4.629   2.032 -0.3138  1.1534  0.2938
 3281SOL     OW10741   6.452   3.827   3.271 -0.0725 -0.3703 -0.5105
 3281SOL    HW110742   6.497   3.743   3.242 -2.9585 -2.2450 -0.0229
 3281SOL    HW210743   6.395   3.808   3.351 -2.5433  1.4738 -1.6932
 3282SOL     OW10744   0.629   3.905   2.534 -0.0559 -0.4052  0.0770
 3282SOL    HW110745   0.557   3.895   2.465  0.9647  0.8992 -1.2335
 3282SOL    HW210746   0.620   3.994   2.579  1.6928  0.5492 -1.3258
 3283SOL     OW10747   4.078   1.500   1.935 -0.6567 -0.6911 -0.3031
 3283SOL    HW110748   4.031   1.579   1.895 -2.0755 -1.9235 -1.1500
 3283SOL    HW210749   4.018   1.457   2.002 -0.2232 -1.5319 -0.4476
 3284SOL     OW10750   1.687   5.791   4.514 -0.1487 -0.0492  1.3835
 3284SOL    HW110751   1.785   5.810   4.514 -0.4659  1.7197  1.2950
 3284SOL    HW210752   1.658   5.768   4.607  0.0383  1.2253  1.7663
 3285SOL     OW10753   6.052   2.331   3.905  0.6692 -0.2604 -0.0464
 3285SOL    HW110754   6.119   2.397   3.940  0.8579 -0.3519 -0.2362
 3285SOL    HW210755   5.967   2.379   3.885  1.0006  0.0425 -0.7731
 3286SOL     OW10756   3.895   1.821   1.216  0.7293 -0.2418  0.2767
 3286SOL    HW110757   3.821   1.846   1.153 -1.3121  0.4153  2.7818
 3286SOL    HW210758   3.918   1.900   1.273  0.8402 -1.4090  1.9219
 3287SOL     OW10759   0.794   6.917   0.604  0.7231 -0.4037  0.0822
 3287SOL    HW110760   0.749   6.864   0.532  1.5556  0.4765 -1.1141
 3287SOL    HW210761   0.738   6.996   0.629  0.0706 -1.1241  0.9844
 3288SOL     OW10762   2.787   6.579   5.070 -0.3687  0.2463 -0.5796
 3288SOL    HW110763   2.828   6.567   4.980  0.1142  1.2543 -0.4998
 3288SOL    HW210764   2.738   6.666   5.073  0.2087  0.5540  0.3469
 3289SOL     OW10765   3.636   1.055   6.042  0.1523  0.0272  0.1764
 3289SOL    HW110766   3.707   1.009   6.095 -0.3594 -0.4507  0.4603
 3289SOL    HW210767   3.642   1.025   5.947 -0.4899 -1.0544  0.4480
 3290SOL     OW10768   0.770   3.805   3.024  0.2322  0.0318  0.2325
 3290SOL    HW110769   0.756   3.887   2.969  1.5288  0.6873  0.8352
 3290SOL    HW210770   0.695   3.741   3.008  0.7454  0.0206 -2.5843
 3291SOL     OW10771   5.033   7.006   5.538  0.0376 -0.5808  0.0133
 3291SOL    HW110772   5.099   7.002   5.463 -0.7979 -0.7221 -0.7330
 3291SOL    HW210773   5.068   6.956   5.617  1.3986  0.4452  0.1042
 3292SOL     OW10774   4.956   0.782   6.958  0.5032 -0.1896 -0.1115
 3292SOL    HW110775   4.988   0.739   7.043 -0.5656  0.1828  0.5042
 3292SOL    HW210776   4.936   0.711   6.891 -1.9869 -0.8174  1.1556
 3293SOL     OW10777   5.847   5.087   2.406  0.2858 -0.4871  0.2087
 3293SOL    HW110778   5.911   5.018   2.440  2.1145  1.0364 -0.0193
 3293SOL    HW210779   5.862   5.102   2.309 -0.1607  0.1767  0.2368
 3294SOL     OW10780   5.070   1.648   4.337  0.5157  0.1148 -0.5264
 3294SOL    HW110781   5.004   1.665   4.263  2.1337  0.6915 -1.8824
 3294SOL    HW210782   5.044   1.565   4.386 -1.0587  0.1714 -1.1969
 3295SOL     OW10783   1.355   3.125   0.851 -0.1627 -0.7011  0.0142
 3295SOL    HW110784   1.408   3.156   0.931 -2.2339  1.2228  0.7442
 3295SOL    HW210785   1.409   3.140   0.768  1.1341 -0.5058  0.8615
 3296SOL     OW10786   6.465   0.167   0.863 -0.0633  0.2778 -0.7259
 3296SOL    HW110787   6.548   0.118   0.887  1.1530  2.2758 -0.6687
 3296SOL    HW210788   6.418   0.196   0.947 -0.5464 -0.3783 -0.7619
 3297SOL     OW10789   1.189   0.818   5.559 -0.0106 -0.0233 -0.4048
 3297SOL    HW110790   1.214   0.820   5.462 -1.6735  0.3636 -0.8636
 3297SOL    HW210791   1.270   0.836   5.615  0.4429  3.0226 -1.8275
 3298SOL     OW10792   6.223   3.736   4.015 -0.3344  0.8257 -0.2093
 3298SOL    HW110793   6.187   3.788   4.092 -0.6825  0.4881 -0.1409
 3298SOL    HW210794   6.297   3.787   3.971  0.6599  0.5185  1.0555
 3299SOL     OW10795   2.650   5.564   3.980  0.3642 -0.5757 -0.2068
 3299SOL    HW110796   2.703   5.583   3.897  1.0994 -2.5603 -0.2511
 3299SOL    HW210797   2.610   5.472   3.973 -0.5329 -0.3010  1.1498
 3300SOL     OW10798   2.089   0.169   6.917  0.0363  0.0811 -0.5231
 3300SOL    HW110799   2.039   0.106   6.976  1.5775  0.4827  1.3003
 3300SOL    HW210800   2.039   0.182   6.832 -0.4517 -3.4386 -0.9111
 3301SOL     OW10801   1.014   3.914   0.812 -0.1174  0.1318  0.3623
 3301SOL    HW110802   1.042   3.876   0.724 -0.1030 -0.6457  0.6936
 3301SOL    HW210803   0.944   3.856   0.853 -2.3667  2.0676 -0.4749
 3302SOL     OW10804   1.762   5.860   0.366 -0.2883  0.0827  0.5854
 3302SOL    HW110805   1.663   5.860   0.379 -0.5331  0.4589 -1.0541
 3302SOL    HW210806   1.799   5.951   0.384 -0.3696  0.1506  0.4136
 3303SOL     OW10807   4.317   2.528   0.953 -0.5838  0.2893  0.2634
 3303SOL    HW110808   4.362   2.582   0.882 -0.9166  1.0552  0.6237
 3303SOL    HW210809   4.332   2.571   1.042  0.4886 -1.0587  0.7884
 3304SOL     OW10810   1.947   5.979   5.891  0.2954 -0.4954 -0.7121
 3304SOL    HW110811   1.897   5.987   5.978 -0.7246 -1.7094 -1.1646
 3304SOL    HW210812   2.043   6.002   5.906 -0.4856  2.7623  0.0142
 3305SOL     OW10813   4.563   6.606   1.263 -0.6332  0.7719  0.0136
 3305SOL    HW110814   4.541   6.702   1.250  2.7943  2.2507  3.3165
 3305SOL    HW210815   4.509   6.570   1.340  1.1673  1.4917  1.6898
 3306SOL     OW10816   2.123   6.227   0.127 -0.0870  0.3754 -0.0205
 3306SOL    HW110817   2.083   6.156   0.070 -0.5672 -0.0330  0.8046
 3306SOL    HW210818   2.049   6.280   0.170  0.1805 -0.9176  2.1887
 3307SOL     OW10819   6.108   1.991   6.196 -0.4929  0.3592 -0.6715
 3307SOL    HW110820   6.043   1.921   6.165  0.6775 -0.8339 -0.5547
 3307SOL    HW210821   6.128   1.977   6.293 -0.7605  1.2859 -0.4805
 3308SOL     OW10822   4.059   4.382   1.054  0.5546 -0.0002 -1.0131
 3308SOL    HW110823   3.968   4.412   1.082  1.0381  0.5318  0.0819
 3308SOL    HW210824   4.102   4.331   1.129  1.3418  0.1886 -1.3194
 3309SOL     OW10825   4.957   3.658   5.902 -0.0624  0.2039 -0.8392
 3309SOL    HW110826   4.971   3.747   5.944 -0.6559 -1.2344  2.7662
 3309SOL    HW210827   4.859   3.638   5.899  0.1428 -1.3411  0.9516
 3310SOL     OW10828   6.694   4.405   4.801 -0.1597 -0.5664  0.1435
 3310SOL    HW110829   6.706   4.371   4.708  0.7179  0.5413 -0.1826
 3310SOL    HW210830   6.622   4.474   4.803  0.2402 -0.1427  0.1542
 3311SOL     OW10831   4.624   4.103   1.728 -0.4036  0.1942  0.4590
 3311SOL    HW110832   4.560   4.166   1.771  0.0724  0.4029  0.8693
 3311SOL    HW210833   4.715   4.116   1.767 -0.2711 -0.6482  0.4448
 3312SOL     OW10834   4.380   4.388   6.317 -0.2321  0.2128  0.3838
 3312SOL    HW110835   4.420   4.470   6.358 -1.4410  1.0823 -0.1339
 3312SOL    HW210836   4.307   4.414   6.254 -0.2675 -1.2405 -0.2158
 3313SOL     OW10837   2.590   6.219   4.370 -0.2655  0.1678 -0.3251
 3313SOL    HW110838   2.506   6.269   4.391  0.0652  0.5670  0.0656
 3313SOL    HW210839   2.571   6.121   4.372 -0.5448  0.2298  0.5344
 3314SOL     OW10840   2.540   1.406   1.555  0.6084 -0.0912 -0.2644
 3314SOL    HW110841   2.543   1.484   1.619 -0.8629 -0.4573  0.2845
 3314SOL    HW210842   2.533   1.440   1.462 -0.9719  0.4598  0.0316
 3315SOL     OW10843   0.969   2.596   6.160  0.2092  0.2042 -0.1999
 3315SOL    HW110844   0.928   2.679   6.122 -0.7851 -0.6699 -1.1486
 3315SOL    HW210845   0.946   2.589   6.257  0.1291  0.9331 -0.1599
 3316SOL     OW10846   3.473   0.644   5.939  0.1921 -0.4109  0.5672
 3316SOL    HW110847   3.392   0.594   5.909 -0.5315 -0.1264  1.9808
 3316SOL    HW210848   3.447   0.734   5.974  1.5166  1.3185 -2.4502
 3317SOL     OW10849   5.859   1.797   1.807  0.0264 -0.5215  0.2515
 3317SOL    HW110850   5.898   1.706   1.793 -0.5534 -0.7597  0.1792
 3317SOL    HW210851   5.779   1.809   1.749 -0.6662 -0.4489  1.1881
 3318SOL     OW10852   0.123   2.763   6.531  0.0792 -0.4131  0.6711
 3318SOL    HW110853   0.132   2.683   6.472 -0.8192 -1.4588  1.8790
 3318SOL    HW210854   0.027   2.772   6.561  0.3629  0.5178  1.3491
 3319SOL     OW10855   6.794   0.494   3.350 -0.2418 -0.2356 -0.0430
 3319SOL    HW110856   6.858   0.532   3.416 -2.4712 -0.0897  2.1622
 3319SOL    HW210857   6.768   0.565   3.284 -0.1806  0.4598  0.6693
 3320SOL     OW10858   5.463   0.741   0.949  0.1458  0.4008  0.2940
 3320SOL    HW110859   5.458   0.684   0.867 -1.0532  1.0169 -0.0829
 3320SOL    HW210860   5.445   0.836   0.924  1.3414  0.8507  1.0392
 3321SOL     OW10861   0.150   0.599   1.995 -0.2800  0.1578  0.5814
 3321SOL    HW110862   0.076   0.587   1.929  0.6599 -1.8810 -0.1570
 3321SOL    HW210863   0.130   0.546   2.077  0.7612 -1.2159 -0.0099
 3322SOL     OW10864   4.967   4.383   2.654  0.2963 -0.1234  0.0546
 3322SOL    HW110865   4.956   4.286   2.632  0.4721 -0.0184 -0.5361
 3322SOL    HW210866   5.042   4.421   2.600 -0.7890  0.7105 -0.9304
 3323SOL     OW10867   2.978   1.932   1.853  0.2459 -0.0654  0.0923
 3323SOL    HW110868   3.031   1.848   1.854 -1.2364 -1.0457  1.4688
 3323SOL    HW210869   3.003   1.988   1.932 -0.8199 -0.5932  0.8207
 3324SOL     OW10870   5.109   5.484   6.652  0.0918  0.4729  0.8341
 3324SOL    HW110871   5.022   5.435   6.650  0.4593 -0.1723  0.2946
 3324SOL    HW210872   5.100   5.566   6.709 -0.5306 -0.2260  1.7652
 3325SOL     OW10873   0.066   2.852   5.854  0.4238  0.5734 -0.4769
 3325SOL    HW110874   0.140   2.894   5.906  0.9142 -2.8444  1.9291
 3325SOL    HW210875   0.104   2.784   5.791 -0.5532  0.3724 -0.8695
 3326SOL     OW10876   5.872   1.142   2.795 -0.3490 -0.2511 -0.2987
 3326SOL    HW110877   5.854   1.055   2.750 -0.7962 -0.3628  0.0836
 3326SOL    HW210878   5.816   1.149   2.878  1.5193 -0.7179  1.0847
 3327SOL     OW10879   0.323   0.227   2.058  0.1262  0.5005 -0.8736
 3327SOL    HW110880   0.388   0.302   2.049  0.2171  0.7308  1.0874
 3327SOL    HW210881   0.370   0.147   2.096 -0.6296  0.5834  0.3087
 3328SOL     OW10882   2.605   3.248   1.302 -0.8010  0.7015 -0.4423
 3328SOL    HW110883   2.514   3.214   1.278 -1.1766  0.4439  1.2369
 3328SOL    HW210884   2.673   3.176   1.288 -1.4640 -0.5893  2.2138
 3329SOL     OW10885   5.258   0.704   4.659 -0.5169 -0.5010  0.2909
 3329SOL    HW110886   5.223   0.610   4.657  0.4213 -0.8669  0.8489
 3329SOL    HW210887   5.310   0.721   4.575  0.6274 -1.0030  0.8804
 3330SOL     OW10888   5.558   3.494   2.721  0.3721 -0.3904  0.2382
 3330SOL    HW110889   5.526   3.550   2.645 -0.3284  1.6579  1.9391
 3330SOL    HW210890   5.649   3.458   2.700  0.8062  1.3163 -0.9804
 3331SOL     OW10891   6.814   1.178   2.062  0.5763  0.6241  0.3121
 3331SOL    HW110892   6.746   1.167   2.134 -0.9687 -1.7596 -1.3451
 3331SOL    HW210893   6.902   1.145   2.094 -0.1568 -0.7124  1.0182
 3332SOL     OW10894   5.114   5.712   6.155 -0.0934  0.3958  0.3790
 3332SOL    HW110895   5.149   5.749   6.069  1.7518  0.2218  1.0078
 3332SOL    HW210896   5.015   5.704   6.150  0.0066 -0.2168 -1.9762
 3333SOL     OW10897   5.989   5.847   1.255 -0.0358 -0.3787  0.6502
 3333SOL    HW110898   6.074   5.817   1.214  1.1264 -0.7870  3.1544
 3333SOL    HW210899   5.953   5.775   1.315 -0.5386  0.8865  1.9247
 3334SOL     OW10900   4.624   3.707   6.878 -0.1728 -0.0928 -0.1874
 3334SOL    HW110901   4.715   3.747   6.864 -0.3211 -0.5207 -3.0470
 3334SOL    HW210902   4.594   3.663   6.793 -2.9560 -0.2033  0.7570
 3335SOL     OW10903   5.357   6.116   5.484  0.2785  0.0960  0.0075
 3335SOL    HW110904   5.394   6.149   5.571 -1.0436 -0.2000  0.7076
 3335SOL    HW210905   5.425   6.129   5.412  0.6400  2.2540  0.6673
 3336SOL     OW10906   2.667   3.131   6.489 -0.5260  0.2926  0.3314
 3336SOL    HW110907   2.666   3.059   6.420  2.2063 -0.0439  0.5354
 3336SOL    HW210908   2.696   3.217   6.448 -2.4401  1.0068  0.3726
 3337SOL     OW10909   4.202   2.706   0.734  0.1784  0.5690 -0.0391
 3337SOL    HW110910   4.158   2.636   0.791 -0.4993  1.9050  1.1587
 3337SOL    HW210911   4.240   2.664   0.652 -1.2432 -1.0105  0.0690
 3338SOL     OW10912   6.791   5.151   1.629 -0.5046  0.5587  0.6745
 3338SOL    HW110913   6.851   5.215   1.679  1.4260 -0.7434  0.1294
 3338SOL    HW210914   6.796   5.171   1.531 -0.9050  0.3854  0.6198
 3339SOL     OW10915   5.956   3.720   6.549  0.2000 -1.1442 -0.7369
 3339SOL    HW110916   5.888   3.772   6.601  0.1023 -0.5007 -1.4974
 3339SOL    HW210917   5.953   3.624   6.578 -2.3498 -1.5461 -2.0533
 3340SOL     OW10918   4.101   6.229   3.226  0.3641 -0.7261  0.2339
 3340SOL    HW110919   4.162   6.292   3.178  0.1101  0.6286  1.6058
 3340SOL    HW210920   4.027   6.201   3.165  0.5341  0.2490 -0.4443
 3341SOL     OW10921   0.472   0.828   4.889 -0.2916 -0.2145 -0.3444
 3341SOL    HW110922   0.550   0.858   4.944  0.0497  0.4986 -1.1983
 3341SOL    HW210923   0.475   0.728   4.880 -0.0602 -0.2941  0.4772
 3342SOL     OW10924   0.358   1.065   4.848  0.5502 -0.3730 -1.0005
 3342SOL    HW110925   0.263   1.066   4.818  0.1245 -0.5729  0.2828
 3342SOL    HW210926   0.388   0.971   4.862 -0.0335 -0.2599  1.4303
 3343SOL     OW10927   4.973   1.245   6.785  0.3686 -0.0163  0.3861
 3343SOL    HW110928   5.016   1.162   6.819 -3.5368 -2.4988 -0.0879
 3343SOL    HW210929   4.994   1.257   6.688 -0.4166 -1.5191  0.0106
 3344SOL     OW10930   5.425   1.643   5.518  0.3836  0.4947 -0.3956
 3344SOL    HW110931   5.515   1.639   5.562  0.1180  0.9338  0.1978
 3344SOL    HW210932   5.356   1.670   5.585 -0.0834  0.8522 -1.0078
 3345SOL     OW10933   1.298   4.058   6.256 -0.5770 -0.2316  0.0727
 3345SOL    HW110934   1.204   4.029   6.238 -0.5667  0.2192 -0.7896
 3345SOL    HW210935   1.359   3.980   6.248 -0.8781 -0.5338  0.6757
 3346SOL     OW10936   1.755   1.454   1.992 -0.4458  0.7187 -0.0713
 3346SOL    HW110937   1.765   1.425   1.897 -0.5255  0.8408 -0.1172
 3346SOL    HW210938   1.844   1.452   2.038 -0.7436 -1.8129  0.5649
 3347SOL     OW10939   6.854   3.498   3.348  0.1872  0.1964 -0.2791
 3347SOL    HW110940   6.851   3.543   3.437 -0.5989 -2.5480  1.1635
 3347SOL    HW210941   6.912   3.417   3.352  0.0171 -0.0751 -2.2261
 3348SOL     OW10942   3.474   4.133   3.861  0.3968  0.1472  0.0864
 3348SOL    HW110943   3.379   4.115   3.886  0.5212  1.0909  1.3974
 3348SOL    HW210944   3.479   4.159   3.765 -0.8656  1.3086  0.3012
 3349SOL     OW10945   0.544   4.751   4.395  0.3196  0.4661  0.0994
 3349SOL    HW110946   0.520   4.842   4.428 -0.1162 -0.2275  1.8091
 3349SOL    HW210947   0.462   4.706   4.357  0.2052  0.2684  0.5713
 3350SOL     OW10948   2.491   3.026   0.157  0.0803 -0.8231  0.3530
 3350SOL    HW110949   2.394   3.003   0.165 -0.2826  0.3541 -0.3560
 3350SOL    HW210950   2.507   3.075   0.071  1.2501 -0.7289  0.6006
 3351SOL     OW10951   6.785   6.502   1.772  0.3287 -0.0757  0.0360
 3351SOL    HW110952   6.694   6.482   1.737  0.2583 -0.1975  0.2914
 3351SOL    HW210953   6.779   6.525   1.869  0.6112 -0.4078  0.1336
 3352SOL     OW10954   5.847   3.522   6.736 -0.8187 -0.4845  0.7366
 3352SOL    HW110955   5.878   3.527   6.831  1.6649 -0.3713 -0.0019
 3352SOL    HW210956   5.770   3.584   6.722 -0.1940  0.6944  2.3058
 3353SOL     OW10957   0.254   0.569   1.464 -0.3715 -0.4169  0.0327
 3353SOL    HW110958   0.339   0.593   1.510 -1.1168  0.4449  1.0033
 3353SOL    HW210959   0.274   0.509   1.386  1.0798 -0.4624  0.4126
 3354SOL     OW10960   0.656   2.350   1.785 -0.1806  0.0622  0.0274
 3354SOL    HW110961   0.581   2.324   1.846 -0.3662  0.8685  0.1532
 3354SOL    HW210962   0.693   2.268   1.741 -1.0037 -0.3649  0.1131
 3355SOL     OW10963   6.541   2.570   6.742  0.0373  0.5006 -0.2345
 3355SOL    HW110964   6.613   2.546   6.806 -1.1945  0.2450  1.1130
 3355SOL    HW210965   6.462   2.607   6.792 -1.1936 -0.2714 -1.5223
 3356SOL     OW10966   2.786   2.003   0.156  0.3355 -0.2407  0.3484
 3356SOL    HW110967   2.817   2.098   0.157 -0.3146 -0.0285  0.4051
 3356SOL    HW210968   2.759   1.977   0.064  1.6807 -0.7614  0.0786
 3357SOL     OW10969   1.336   4.909   1.164  0.1720  0.2600  0.3810
 3357SOL    HW110970   1.360   4.813   1.179  0.8527  0.5264  1.0269
 3357SOL    HW210971   1.381   4.966   1.232  2.1723  1.3521 -1.7152
 3358SOL     OW10972   5.331   6.081   2.752 -0.3685 -0.3564 -0.0998
 3358SOL    HW110973   5.414   6.034   2.722 -0.8131  0.2710 -2.4633
 3358SOL    HW210974   5.256   6.015   2.756 -0.0870 -0.6494  0.7501
 3359SOL     OW10975   2.773   1.254   2.683  0.8572 -0.1766  0.4943
 3359SOL    HW110976   2.696   1.316   2.672 -1.5508 -2.7720  1.6234
 3359SOL    HW210977   2.794   1.210   2.595  1.2024  0.6822  0.1433
 3360SOL     OW10978   6.326   0.577   1.507 -0.1164  0.3070  0.2191
 3360SOL    HW110979   6.322   0.557   1.605 -0.3662 -1.3443 -0.1038
 3360SOL    HW210980   6.417   0.555   1.472  0.1630  1.4620  0.1716
 3361SOL     OW10981   7.009   5.464   4.318  0.3198  0.0921  0.1967
 3361SOL    HW110982   6.932   5.524   4.341  0.4785  0.3772 -0.0021
 3361SOL    HW210983   7.053   5.433   4.402 -1.3859 -1.9187  0.4246
 3362SOL     OW10984   1.711   1.634   5.027  0.3829 -0.4111 -0.7821
 3362SOL    HW110985   1.810   1.635   5.041  0.0785  0.3396  1.9857
 3362SOL    HW210986   1.681   1.540   5.008  1.4946 -0.8725 -0.3566
 3363SOL     OW10987   6.059   0.604   1.371 -0.4407 -0.3796 -0.5905
 3363SOL    HW110988   6.021   0.677   1.427  0.0174  0.0565 -0.8364
 3363SOL    HW210989   6.151   0.581   1.404  0.5839  1.1226 -2.2214
 3364SOL     OW10990   6.097   5.527   0.233  0.0296  0.3734 -0.1292
 3364SOL    HW110991   6.124   5.580   0.153  0.7752  1.1088  0.5870
 3364SOL    HW210992   6.027   5.460   0.207 -0.4122  1.2180 -1.2007
 3365SOL     OW10993   6.328   1.561   3.448 -0.4109 -0.4847  0.2833
 3365SOL    HW110994   6.271   1.517   3.379 -1.7219  2.5129 -0.6592
 3365SOL    HW210995   6.271   1.595   3.523  0.5449 -0.1903  0.8987
 3366SOL     OW10996   5.122   7.001   3.156 -0.2018 -0.0653 -0.1948
 3366SOL    HW110997   5.103   7.087   3.203 -0.6459 -0.1247 -0.2611
 3366SOL    HW210998   5.215   7.003   3.118 -0.1175  0.2799  0.0264
 3367SOL     OW10999   3.130   1.489   3.297 -0.2857  0.0029 -0.3900
 3367SOL    HW111000   3.083   1.427   3.235 -0.1178 -0.5513  0.0215
 3367SOL    HW211001   3.182   1.436   3.364  1.8719  0.5802 -1.5265
 3368SOL     OW11002   6.136   6.169   5.892 -0.0136 -0.1947  0.3541
 3368SOL    HW111003   6.074   6.099   5.856  0.4875  0.1592 -1.3031
 3368SOL    HW211004   6.083   6.244   5.931 -0.5663 -1.0399  1.2627
 3369SOL     OW11005   5.250   1.124   2.000 -0.6799 -0.1824 -0.6329
 3369SOL    HW111006   5.159   1.129   1.961 -0.0443  0.0279 -2.1542
 3369SOL    HW211007   5.302   1.050   1.956  0.2168  0.3692 -0.5319
 3370SOL     OW11008   1.158   5.606   4.205 -0.0032  0.6417 -0.5991
 3370SOL    HW111009   1.083   5.671   4.212  1.4724  2.2648  1.9418
 3370SOL    HW211010   1.122   5.513   4.199 -2.1729  1.4866 -1.4417
 3371SOL     OW11011   1.343   4.718   1.486 -0.0395  0.2077 -0.8017
 3371SOL    HW111012   1.419   4.781   1.471 -0.2218  0.3740 -1.0250
 3371SOL    HW211013   1.286   4.753   1.561  0.0353  0.1479 -0.7176
 3372SOL     OW11014   2.239   1.891   2.724 -0.3251 -0.1496 -0.0878
 3372SOL    HW111015   2.175   1.856   2.656 -0.1925  0.1180 -0.3498
 3372SOL    HW211016   2.305   1.952   2.680  0.5199 -0.9394  0.0601
 3373SOL     OW11017   6.900   1.995   2.443  0.0575 -0.4405 -0.0510
 3373SOL    HW111018   6.958   2.010   2.523  0.1625 -1.4361  0.0686
 3373SOL    HW211019   6.909   1.900   2.413 -2.7411 -1.1106  0.9591
 3374SOL     OW11020   3.465   1.325   6.142 -0.1134 -0.0727  0.0246
 3374SOL    HW111021   3.467   1.289   6.049 -2.0868 -0.2472  0.0100
 3374SOL    HW211022   3.474   1.250   6.208  1.2899  0.0517  0.0062
 3375SOL     OW11023   3.799   4.967   4.641  0.0042  0.1750 -0.1939
 3375SOL    HW111024   3.810   4.950   4.543  1.5716 -0.2877  0.0239
 3375SOL    HW211025   3.721   5.027   4.656 -2.4143 -2.3887 -1.4651
 3376SOL     OW11026   4.074   3.181   4.228 -0.2144  0.4310  0.2121
 3376SOL    HW111027   4.090   3.264   4.175 -0.6589  1.3474  1.4382
 3376SOL    HW211028   4.095   3.199   4.324 -1.1553 -0.6160  0.6365
 3377SOL     OW11029   6.267   6.784   6.656 -0.2964 -0.2735  0.1448
 3377SOL    HW111030   6.241   6.694   6.623  1.0878  0.0615 -2.0161
 3377SOL    HW211031   6.298   6.841   6.580  1.2184  1.2196  1.7688
 3378SOL     OW11032   6.395   6.777   1.555 -0.0631  0.2993  0.1942
 3378SOL    HW111033   6.463   6.714   1.593  0.4368  0.8975  0.3205
 3378SOL    HW211034   6.408   6.867   1.595 -0.0396  0.7553 -0.8012
 3379SOL     OW11035   1.035   3.988   6.191  0.3619 -0.4073 -0.2137
 3379SOL    HW111036   0.952   3.947   6.231 -1.2595  0.7521 -2.1570
 3379SOL    HW211037   1.008   4.050   6.117  2.9855  0.5418 -0.4512
 3380SOL     OW11038   6.900   4.803   6.969 -0.0487  0.1568 -1.1827
 3380SOL    HW111039   6.961   4.761   6.902 -0.7346  0.3757 -1.9617
 3380SOL    HW211040   6.903   4.751   7.054  2.2723  0.9325 -0.7061
 3381SOL     OW11041   2.437   1.641   7.007  0.0664 -0.8561  0.3671
 3381SOL    HW111042   2.520   1.598   7.044  0.3934  0.3460  1.0888
 3381SOL    HW211043   2.463   1.703   6.933 -0.3509 -1.4914 -0.3277
 3382SOL     OW11044   1.919   6.951   6.667 -0.1155 -0.2277 -0.3633
 3382SOL    HW111045   1.899   7.002   6.584  0.8477 -0.6213 -0.8484
 3382SOL    HW211046   1.880   6.859   6.661  0.5545 -0.4955 -0.6858
 3383SOL     OW11047   6.906   5.584   3.177  0.0909  0.0128  0.0199
 3383SOL    HW111048   6.969   5.509   3.157  0.0285 -0.1615  0.4806
 3383SOL    HW211049   6.826   5.549   3.225  0.2075  0.4223  0.5175
 3384SOL     OW11050   3.091   4.086   5.035 -0.1845  0.4585 -0.1197
 3384SOL    HW111051   3.070   4.144   4.956 -2.2364 -0.4237 -0.2899
 3384SOL    HW211052   3.178   4.040   5.020 -0.8104 -0.1546 -2.1842
 3385SOL     OW11053   0.711   4.150   5.714 -0.0092  0.2707 -0.2035
 3385SOL    HW111054   0.783   4.081   5.722  2.0391  2.3356  0.2886
 3385SOL    HW211055   0.622   4.106   5.715  1.2117 -2.3584 -0.2077
 3386SOL     OW11056   5.638   1.939   4.980 -0.4074  0.7160  0.0412
 3386SOL    HW111057   5.638   2.021   4.923  1.7268  0.9750  0.3430
 3386SOL    HW211058   5.544   1.917   5.005 -1.2526  1.6168 -2.0762
 3387SOL     OW11059   0.089   2.040   2.639  0.2879 -0.5155 -0.5178
 3387SOL    HW111060   0.119   2.070   2.549 -0.0476 -0.5709 -0.6493
 3387SOL    HW211061   0.151   2.077   2.709  0.4884 -0.3889 -0.7613
 3388SOL     OW11062   4.681   3.519   1.206  0.0076  0.2450 -0.5482
 3388SOL    HW111063   4.594   3.522   1.256  0.1127 -0.9416 -0.2659
 3388SOL    HW211064   4.756   3.509   1.271  0.4376  2.0360 -0.7403
 3389SOL     OW11065   4.745   4.665   4.877 -0.3286  0.2173 -0.4807
 3389SOL    HW111066   4.825   4.615   4.843 -0.0315 -1.0710  1.9035
 3389SOL    HW211067   4.677   4.672   4.805  1.4050  0.2288 -2.1926
 3390SOL     OW11068   4.965   3.115   0.200  1.0052  0.1310 -0.3059
 3390SOL    HW111069   5.033   3.183   0.173  0.1349  1.1271 -0.0240
 3390SOL    HW211070   4.874   3.145   0.172  0.5351 -0.6139  0.3844
 3391SOL     OW11071   3.762   2.068   6.224  0.1381  0.2799  0.0055
 3391SOL    HW111072   3.805   2.042   6.137 -0.4278 -0.0837 -0.1772
 3391SOL    HW211073   3.688   2.003   6.244  0.8646 -0.1972  1.2336
 3392SOL     OW11074   4.413   1.144   3.935 -0.3339 -0.1179  0.1165
 3392SOL    HW111075   4.334   1.183   3.983  0.8423  1.9527  0.4999
 3392SOL    HW211076   4.383   1.067   3.879 -2.5718  0.4375  0.4414
 3393SOL     OW11077   0.972   6.397   1.015  0.6990 -0.2405 -0.2984
 3393SOL    HW111078   1.005   6.491   1.009  1.6853 -0.6398 -1.4149
 3393SOL    HW211079   0.997   6.347   0.932 -0.4972 -1.2830 -0.0671
 3394SOL     OW11080   3.812   1.731   0.651 -0.4827 -0.5244 -0.7240
 3394SOL    HW111081   3.773   1.645   0.619  0.3141 -0.4320 -1.9966
 3394SOL    HW211082   3.820   1.795   0.575 -2.2045  1.1682  0.4190
 3395SOL     OW11083   0.301   1.286   2.980  0.5052  0.0486 -0.7287
 3395SOL    HW111084   0.367   1.356   3.007 -1.1468  1.7489 -0.9055
 3395SOL    HW211085   0.227   1.329   2.929 -1.2699 -1.6144  0.3469
 3396SOL     OW11086   0.689   5.280   3.761 -0.0689  0.1808 -0.0577
 3396SOL    HW111087   0.638   5.202   3.725 -1.7890  1.2932 -0.1735
 3396SOL    HW211088   0.663   5.363   3.711  1.7109  0.8537  0.0541
 3397SOL     OW11089   3.271   1.746   6.269  0.3111  0.1328 -0.4525
 3397SOL    HW111090   3.327   1.708   6.342  1.0755  0.7805 -0.6990
 3397SOL    HW211091   3.264   1.679   6.195  1.1326  0.2263 -0.6164
 3398SOL     OW11092   0.396   0.027   4.558 -0.2609  0.3248  0.3444
 3398SOL    HW111093   0.446   0.049   4.474 -0.5986 -0.0018  0.0529
 3398SOL    HW211094   0.460  -0.005   4.627  0.1064  1.2018  0.4308
 3399SOL     OW11095   6.250   4.269   4.914 -0.0460 -0.3842 -0.0984
 3399SOL    HW111096   6.235   4.302   5.007 -0.4191  0.5819 -0.4837
 3399SOL    HW211097   6.234   4.170   4.910  1.3446 -0.6945  1.1473
 3400SOL     OW11098   5.140   0.351   0.146 -0.4963 -0.3370 -0.4223
 3400SOL    HW111099   5.163   0.358   0.049 -0.5435  1.9603 -0.3199
 3400SOL    HW211100   5.045   0.378   0.160  0.1612  1.8035  0.4658
 3401SOL     OW11101   6.678   5.082   0.412  0.2817 -0.5194  0.7767
 3401SOL    HW111102   6.718   5.156   0.358  0.9124 -2.1018 -1.0525
 3401SOL    HW211103   6.578   5.089   0.410  0.3194 -0.1226  0.0125
 3402SOL     OW11104   5.378   5.774   1.607  0.4533 -0.1484  0.2341
 3402SOL    HW111105   5.365   5.689   1.658  0.6348 -0.8951 -0.9263
 3402SOL    HW211106   5.425   5.754   1.521  0.2436  1.0918 -0.1855
 3403SOL     OW11107   3.924   0.866   4.256 -0.3597  0.4577 -0.0736
 3403SOL    HW111108   3.844   0.820   4.217 -0.8029  2.2900 -1.4420
 3403SOL    HW211109   3.900   0.903   4.346 -1.3771  1.7539 -0.8438
 3404SOL     OW11110   3.646   1.274   0.423 -0.3010 -0.3254  0.3252
 3404SOL    HW111111   3.577   1.205   0.402  0.8371 -0.8674 -1.9603
 3404SOL    HW211112   3.729   1.230   0.456 -0.1029  0.0603  0.3513
 3405SOL     OW11113   5.870   4.014   3.942  0.2874 -0.5585 -0.4941
 3405SOL    HW111114   5.865   4.101   3.990 -1.2779 -0.2245 -1.2300
 3405SOL    HW211115   5.925   4.024   3.860  0.6379 -0.4360 -0.2473
 3406SOL     OW11116   0.920   3.233   2.503  0.5539 -0.1128 -0.2065
 3406SOL    HW111117   1.003   3.219   2.448  1.0060 -0.7270  0.5998
 3406SOL    HW211118   0.855   3.159   2.485  1.4851 -1.4045  1.4417
 3407SOL     OW11119   3.015   5.532   1.619  0.9518  0.3342 -0.0407
 3407SOL    HW111120   3.066   5.611   1.651  1.1801  0.0835  0.2133
 3407SOL    HW211121   2.949   5.504   1.689 -1.0369  1.9383 -1.1611
 3408SOL     OW11122   4.375   4.574   3.891 -0.3571 -0.0345 -0.3988
 3408SOL    HW111123   4.460   4.578   3.837 -0.3751  2.1174 -0.3432
 3408SOL    HW211124   4.363   4.481   3.926  2.6396 -0.1533  0.6476
 3409SOL     OW11125   3.785   6.694   0.053  0.0972 -0.2836  0.0722
 3409SOL    HW111126   3.851   6.760   0.088 -0.2617 -0.1281  0.4717
 3409SOL    HW211127   3.832   6.612   0.022  0.5860  0.3239 -0.8237
 3410SOL     OW11128   6.124   6.557   0.175  0.3502  0.7495 -0.2677
 3410SOL    HW111129   6.060   6.518   0.109 -0.5259  1.4743  0.1358
 3410SOL    HW211130   6.134   6.495   0.252  0.3355  0.5192 -0.4483
 3411SOL     OW11131   6.082   2.349   3.575 -0.0088 -0.7807  0.1049
 3411SOL    HW111132   6.147   2.304   3.514  1.3894  0.5939  0.5294
 3411SOL    HW211133   6.060   2.288   3.651  0.8079 -1.2530 -0.0282
 3412SOL     OW11134   3.819   2.861   1.763 -0.4352  0.3753 -0.4185
 3412SOL    HW111135   3.781   2.859   1.855 -2.9847  1.2092 -1.3460
 3412SOL    HW211136   3.786   2.782   1.711 -1.8111  1.6149 -1.5383
 3413SOL     OW11137   5.684   1.672   2.965 -0.2664  0.1086  0.4736
 3413SOL    HW111138   5.781   1.661   2.943 -0.2905 -0.2609  0.5474
 3413SOL    HW211139   5.663   1.769   2.972 -0.1130  0.2222 -0.4887
 3414SOL     OW11140   2.823   0.775   6.888 -0.2478  0.7619  0.3023
 3414SOL    HW111141   2.772   0.753   6.971  1.6695 -0.3913  1.2377
 3414SOL    HW211142   2.900   0.712   6.878  0.4405  1.8186 -1.5695
 3415SOL     OW11143   0.678   4.945   6.423  0.2034 -0.8537 -0.0522
 3415SOL    HW111144   0.622   4.952   6.340 -0.8223  1.1183  0.7511
 3415SOL    HW211145   0.771   4.975   6.403  0.2017 -1.2658 -0.6995
 3416SOL     OW11146   5.362   5.649   4.630 -0.6726  0.5618  0.1492
 3416SOL    HW111147   5.300   5.711   4.582  0.1855  1.0973 -0.3024
 3416SOL    HW211148   5.444   5.699   4.658 -0.3597 -0.1691  0.5748
 3417SOL     OW11149   4.109   6.655   5.660 -0.3179  0.2704  0.5716
 3417SOL    HW111150   4.166   6.589   5.707  0.1506 -0.1748 -0.5795
 3417SOL    HW211151   4.054   6.608   5.590  1.4230  1.2753 -1.5994
 3418SOL     OW11152   4.554   1.665   4.052 -0.7268  0.2387 -0.3958
 3418SOL    HW111153   4.510   1.661   4.142  1.6241 -1.1177  0.8136
 3418SOL    HW211154   4.535   1.581   4.002 -0.1806 -0.0321 -0.1666
 3419SOL     OW11155   4.889   5.156   0.409 -0.5742 -0.2068 -0.1254
 3419SOL    HW111156   4.860   5.173   0.503  1.5438 -0.0724  0.5572
 3419SOL    HW211157   4.811   5.167   0.347 -2.0877 -0.6221  1.6231
 3420SOL     OW11158   4.804   3.071   4.296  0.9161  0.7088  0.5086
 3420SOL    HW111159   4.770   2.981   4.322 -0.0413  0.9550  0.1317
 3420SOL    HW211160   4.783   3.089   4.200  0.7873  1.4724  0.6728
 3421SOL     OW11161   6.292   6.965   5.072  0.3745  1.0384  0.0453
 3421SOL    HW111162   6.222   6.999   5.009  2.3750  0.0008 -2.9917
 3421SOL    HW211163   6.367   7.031   5.077  1.1559  0.1988 -0.3482
 3422SOL     OW11164   4.477   0.407   1.883  0.2109 -0.2635  0.1966
 3422SOL    HW111165   4.469   0.319   1.930 -0.1343 -1.0778 -1.3277
 3422SOL    HW211166   4.415   0.473   1.924  0.1857 -0.8453  1.1090
 3423SOL     OW11167   2.847   1.038   1.808 -0.3185 -0.0391 -0.1760
 3423SOL    HW111168   2.818   1.130   1.782 -0.7332 -0.0983  0.0628
 3423SOL    HW211169   2.880   0.990   1.727  1.2062  0.7750 -0.0599
 3424SOL     OW11170   5.278   0.707   2.287  0.5384 -0.5125  0.8659
 3424SOL    HW111171   5.275   0.775   2.213  0.2942  1.2693  2.4260
 3424SOL    HW211172   5.187   0.697   2.327  0.2884 -2.7498 -0.1118
 3425SOL     OW11173   5.052   4.265   0.534 -1.1663 -1.1350 -0.1338
 3425SOL    HW111174   5.065   4.359   0.502  0.1467 -1.1446  0.2952
 3425SOL    HW211175   5.036   4.205   0.455  2.1570 -1.1873 -0.9327
 3426SOL     OW11176   3.031   3.503   6.656  0.3286  0.2717 -0.0854
 3426SOL    HW111177   3.118   3.552   6.652  0.2157  0.5473  0.5776
 3426SOL    HW211178   3.037   3.418   6.604  1.2802 -0.1494  0.6899
 3427SOL     OW11179   1.275   5.301   0.530 -0.0223 -0.0551  0.2679
 3427SOL    HW111180   1.221   5.359   0.468  0.5861  0.3851  0.1402
 3427SOL    HW211181   1.215   5.233   0.573 -0.1248 -1.8942 -2.5195
 3428SOL     OW11182   4.504   0.106   2.276  0.5310 -0.4447 -0.1209
 3428SOL    HW111183   4.576   0.167   2.242 -0.0597 -0.3768 -1.2909
 3428SOL    HW211184   4.546   0.023   2.313  1.3452  0.6057  1.4611
 3429SOL     OW11185   1.858   1.705   0.744  0.1297 -0.4929  0.1164
 3429SOL    HW111186   1.894   1.778   0.802 -0.3571 -0.9241  0.9870
 3429SOL    HW211187   1.858   1.619   0.795 -0.5847 -0.8204 -0.4167
 3430SOL     OW11188   0.893   0.072   5.832 -0.5730  0.1275 -0.6726
 3430SOL    HW111189   0.853   0.157   5.796 -0.8074  0.1499 -0.3704
 3430SOL    HW211190   0.992   0.081   5.837 -0.6122  0.4559 -0.4597
 3431SOL     OW11191   2.806   0.748   1.197 -0.4751 -0.5256 -0.2070
 3431SOL    HW111192   2.800   0.712   1.104  1.9440 -2.9733  0.4731
 3431SOL    HW211193   2.800   0.848   1.194 -4.0814 -0.6261 -2.5494
 3432SOL     OW11194   2.269   1.239   5.594  0.1597 -0.8561  0.3843
 3432SOL    HW111195   2.230   1.324   5.630  1.1451 -0.7379  1.2097
 3432SOL    HW211196   2.224   1.217   5.508  0.3163  0.8449 -0.1774
 3433SOL     OW11197   1.763   0.483   6.523  0.1330 -0.2789  0.0499
 3433SOL    HW111198   1.753   0.576   6.486 -3.1110  0.0412  1.3386
 3433SOL    HW211199   1.722   0.480   6.614 -1.1363 -3.2805 -0.5206
 3434SOL     OW11200   3.298   3.309   1.609 -0.1789  0.0819  0.4061
 3434SOL    HW111201   3.387   3.312   1.655  0.2426  0.9415 -0.4140
 3434SOL    HW211202   3.241   3.384   1.642 -0.3329 -0.0447  0.4252
 3435SOL     OW11203   6.779   3.981   0.407  0.4466  0.3657 -0.2989
 3435SOL    HW111204   6.737   3.960   0.495 -1.3655  0.9093 -0.9883
 3435SOL    HW211205   6.806   4.077   0.405  1.9940 -0.0319  0.2188
 3436SOL     OW11206   4.417   6.709   5.092  0.3205 -0.9008 -0.0138
 3436SOL    HW111207   4.369   6.687   5.177 -1.5706  0.6770 -0.5928
 3436SOL    HW211208   4.498   6.764   5.113  0.6658 -1.7249  0.8506
 3437SOL     OW11209   3.998   0.944   0.053 -0.1318  0.4176  0.1505
 3437SOL    HW111210   4.038   0.855   0.073  0.4054  0.9743  1.6560
 3437SOL    HW211211   3.901   0.933   0.032 -0.4964 -0.3673  2.0847
 3438SOL     OW11212   2.102   3.620   3.414  0.3398  0.1007 -0.5984
 3438SOL    HW111213   2.137   3.713   3.421  1.6957 -0.4919  1.1754
 3438SOL    HW211214   2.116   3.572   3.501 -2.0463 -1.1977 -0.8419
 3439SOL     OW11215   2.709   6.752   5.665 -0.1401 -0.3917  0.3748
 3439SOL    HW111216   2.728   6.717   5.757  2.3693  1.5874  0.7418
 3439SOL    HW211217   2.630   6.814   5.668 -0.3640 -0.7082  1.1037
 3440SOL     OW11218   0.020   4.964   0.591  0.7556  0.8623  0.0493
 3440SOL    HW111219  -0.049   4.891   0.587  0.3628  1.2796 -1.9104
 3440SOL    HW211220   0.032   4.993   0.685 -0.2311 -0.6534  0.6865
 3441SOL     OW11221   4.965   5.108   2.583  0.6439 -0.0230  0.0027
 3441SOL    HW111222   4.885   5.138   2.635  0.4199  0.8711 -0.8200
 3441SOL    HW211223   5.009   5.031   2.629 -1.6855 -1.7019 -0.4236
 3442SOL     OW11224   2.930   6.242   2.158 -0.0348  0.4544 -0.0614
 3442SOL    HW111225   2.880   6.192   2.087 -0.4085 -1.5124  1.4982
 3442SOL    HW211226   2.929   6.340   2.137 -1.9764  0.1541 -1.6261
 3443SOL     OW11227   0.042   0.746   1.349  0.2437  0.2389 -0.0248
 3443SOL    HW111228   0.097   0.663   1.347 -1.7955 -1.1947 -0.0439
 3443SOL    HW211229   0.062   0.801   1.268 -1.4173 -2.4423 -2.4788
 3444SOL     OW11230   5.324   6.924   6.891  0.0887 -0.0514 -0.3190
 3444SOL    HW111231   5.258   6.851   6.874 -0.2000 -0.3459  1.8530
 3444SOL    HW211232   5.303   6.970   6.977  1.5697  1.1665 -0.5528
 3445SOL     OW11233   6.743   5.453   3.534 -0.4115  0.1415  0.5983
 3445SOL    HW111234   6.843   5.448   3.542 -0.4457 -0.8962  0.4812
 3445SOL    HW211235   6.717   5.444   3.438 -0.6957 -1.3518  0.7985
 3446SOL     OW11236   0.427   1.375   4.217  0.4902 -0.1013 -0.5557
 3446SOL    HW111237   0.435   1.438   4.295 -0.8879 -0.1721 -0.3312
 3446SOL    HW211238   0.359   1.410   4.153  0.6084 -0.7527 -1.0441
 3447SOL     OW11239   4.386   5.154   6.431  0.2874 -0.3988 -0.0025
 3447SOL    HW111240   4.441   5.231   6.463 -0.4268  0.6604 -1.2015
 3447SOL    HW211241   4.446   5.077   6.410  1.1460  0.2097  0.1603
 3448SOL     OW11242   4.054   0.408   0.953  0.0528 -0.4205  0.2939
 3448SOL    HW111243   3.986   0.452   1.012  0.7683 -0.7104  1.3644
 3448SOL    HW211244   4.143   0.452   0.967 -0.0882  0.7252 -1.9280
 3449SOL     OW11245   5.424   0.351   1.564  0.1545 -0.5707  0.6351
 3449SOL    HW111246   5.425   0.450   1.580  1.1042 -0.5871  0.7447
 3449SOL    HW211247   5.458   0.303   1.645  1.9848 -0.8301 -0.2176
 3450SOL     OW11248   2.001   3.511   1.835 -0.4562  0.3341 -0.4102
 3450SOL    HW111249   1.991   3.418   1.800  1.1255  0.1057 -0.3202
 3450SOL    HW211250   2.075   3.513   1.902 -2.1185  1.1567  1.4916
 3451SOL     OW11251   1.051   6.464   2.013 -0.2578  0.0512  0.5510
 3451SOL    HW111252   1.109   6.545   2.000  1.8943 -1.5102 -0.0565
 3451SOL    HW211253   1.030   6.454   2.111 -0.6107  1.3465  0.6320
 3452SOL     OW11254   5.471   1.002   0.144  0.3655 -0.0133  0.1463
 3452SOL    HW111255   5.467   1.061   0.225  0.1487 -0.4434  0.4515
 3452SOL    HW211256   5.418   0.919   0.161  3.0292 -1.6845  0.8496
 3453SOL     OW11257   1.116   5.855   0.459 -0.1864 -0.7646  0.4642
 3453SOL    HW111258   1.017   5.858   0.450 -0.0482  1.3101 -1.2891
 3453SOL    HW211259   1.141   5.856   0.556 -1.8857  1.2454  0.9546
 3454SOL     OW11260   7.004   2.522   0.012  0.0352  0.0149  0.1501
 3454SOL    HW111261   6.986   2.424   0.018 -0.8443 -0.1159 -2.7994
 3454SOL    HW211262   6.921   2.573   0.035 -0.5491 -0.1248 -1.4823
 3455SOL     OW11263   1.502   2.518   4.521 -0.7988  0.0703  0.1572
 3455SOL    HW111264   1.533   2.595   4.464 -3.7320  0.4191 -1.1690
 3455SOL    HW211265   1.464   2.447   4.462 -1.3596 -0.8266  1.5555
 3456SOL     OW11266   6.810   6.891   1.250 -0.0202 -0.9249  0.5622
 3456SOL    HW111267   6.715   6.906   1.277  0.0775 -0.4587  0.6530
 3456SOL    HW211268   6.840   6.801   1.282 -0.9887 -1.8741 -1.0372
 3457SOL     OW11269   2.643   4.961   4.526 -0.1202  0.0168 -0.2989
 3457SOL    HW111270   2.640   4.881   4.586  0.0127  0.1557 -0.1048
 3457SOL    HW211271   2.572   4.953   4.456  0.1846 -0.4911 -0.5576
 3458SOL     OW11272   4.758   5.526   1.245  0.1840 -0.5261 -0.6030
 3458SOL    HW111273   4.847   5.489   1.268  0.1977 -1.4236 -1.9480
 3458SOL    HW211274   4.686   5.475   1.293  0.3835  0.6784  1.0686
 3459SOL     OW11275   0.164   4.165   4.703 -0.2878 -0.5685  0.1557
 3459SOL    HW111276   0.163   4.260   4.734  3.6046 -0.0058 -0.9306
 3459SOL    HW211277   0.121   4.107   4.772 -1.8309  1.8101  1.3373
 3460SOL     OW11278   5.168   1.770   1.327  0.1839  0.3093  0.5485
 3460SOL    HW111279   5.137   1.725   1.243  0.5320  1.4026 -0.1769
 3460SOL    HW211280   5.243   1.718   1.367 -0.3350 -0.5095  0.4786
 3461SOL     OW11281   4.818   4.054   4.904 -0.2486  0.0430  0.0762
 3461SOL    HW111282   4.771   4.109   4.973  1.9949  4.5908 -1.6083
 3461SOL    HW211283   4.905   4.022   4.942  0.5175  1.6750 -0.2004
 3462SOL     OW11284   6.349   3.951   2.659 -0.2906 -0.3735  0.1635
 3462SOL    HW111285   6.252   3.967   2.641 -0.2713  0.8899  1.0205
 3462SOL    HW211286   6.371   3.979   2.752  0.9057 -0.6313 -0.0166
 3463SOL     OW11287   0.355   4.567   2.488  0.4691  0.6123  0.1110
 3463SOL    HW111288   0.346   4.667   2.494  2.0214  0.7673  0.2176
 3463SOL    HW211289   0.276   4.530   2.440  0.3947  2.0149 -0.9144
 3464SOL     OW11290   5.949   0.496   0.585 -0.2048 -0.0774 -0.2649
 3464SOL    HW111291   5.899   0.410   0.588  0.2848 -0.3378  0.6143
 3464SOL    HW211292   6.025   0.488   0.521 -2.1918  0.8571 -2.9656
 3465SOL     OW11293   0.321   3.646   1.196 -0.6726  0.1513 -0.0387
 3465SOL    HW111294   0.256   3.626   1.121 -0.8216 -0.5025  0.2556
 3465SOL    HW211295   0.277   3.628   1.284 -0.3434  0.4640  0.1919
 3466SOL     OW11296   1.043   5.833   5.900  0.4815 -0.6001  0.1191
 3466SOL    HW111297   1.082   5.745   5.875 -0.6852 -1.0456 -0.1828
 3466SOL    HW211298   0.943   5.828   5.898  0.3886  0.7219  0.1125
 3467SOL     OW11299   1.512   3.103   2.939  0.2559 -0.5261 -0.6947
 3467SOL    HW111300   1.479   3.083   2.847  0.3274  0.1014 -0.8578
 3467SOL    HW211301   1.612   3.106   2.939  0.2388  0.6966 -0.8709
 3468SOL     OW11302   6.450   2.133   2.874  1.0073  0.2666 -0.2225
 3468SOL    HW111303   6.390   2.127   2.794  1.5807  0.6367 -0.6889
 3468SOL    HW211304   6.415   2.074   2.946 -1.7679  2.7667  0.7169
 3469SOL     OW11305   4.478   0.483   6.970  0.1268  0.1112 -0.0603
 3469SOL    HW111306   4.398   0.429   6.996  0.5637 -0.9728 -0.8876
 3469SOL    HW211307   4.476   0.500   6.872  0.7208  0.3914 -0.0293
 3470SOL     OW11308   1.647   3.964   0.356 -0.5710  0.5006  0.0576
 3470SOL    HW111309   1.651   3.871   0.320 -1.7747  0.2521  0.5256
 3470SOL    HW211310   1.572   4.014   0.313 -0.8154  0.8007  0.8059
 3471SOL     OW11311   4.874   5.933   2.620 -0.1068 -0.1629 -0.6872
 3471SOL    HW111312   4.906   5.970   2.533  0.4825  0.5715 -0.1657
 3471SOL    HW211313   4.813   5.856   2.602  0.1034 -0.1038 -1.7464
 3472SOL     OW11314   2.364   1.921   2.128 -0.4379  0.0166  0.7245
 3472SOL    HW111315   2.335   2.001   2.074  0.3020 -0.3507 -0.2464
 3472SOL    HW211316   2.429   1.950   2.198 -1.0481  0.4315  1.1286
 3473SOL     OW11317   6.380   2.973   2.663  0.5047  0.0413  0.1378
 3473SOL    HW111318   6.360   2.875   2.661  0.6700  0.0072 -1.9946
 3473SOL    HW211319   6.304   3.022   2.705 -0.0174 -0.8885  0.3041
 3474SOL     OW11320   1.758   5.593   3.703  0.0843 -0.3317 -0.3258
 3474SOL    HW111321   1.664   5.560   3.713  0.1136  0.2123  2.4016
 3474SOL    HW211322   1.822   5.520   3.730  0.5438 -0.8203 -2.4923
 3475SOL     OW11323   1.830   3.012   4.619 -0.3536  0.7569 -0.1070
 3475SOL    HW111324   1.927   3.007   4.645 -0.7180 -0.4520  1.1296
 3475SOL    HW211325   1.773   3.001   4.700 -1.5424 -0.2524 -1.0486
 3476SOL     OW11326   2.392   2.277   5.039  0.0039  0.6008 -0.0382
 3476SOL    HW111327   2.439   2.365   5.036 -1.0282  1.2376  1.4754
 3476SOL    HW211328   2.458   2.204   5.057  0.6115  1.3091  0.6525
 3477SOL     OW11329   2.405   3.950   0.979 -0.2891  0.0880 -0.3421
 3477SOL    HW111330   2.371   4.032   1.025 -2.5170 -1.4985  0.9995
 3477SOL    HW211331   2.500   3.966   0.949 -0.1517  2.5996  1.1414
 3478SOL     OW11332   3.896   6.910   1.202 -0.5875  0.4468  0.0650
 3478SOL    HW111333   3.852   6.992   1.164  0.0117  1.5488  1.6282
 3478SOL    HW211334   3.885   6.909   1.301  1.0808 -0.3375  0.2873
 3479SOL     OW11335   2.406   0.778   4.427 -0.7533 -0.4344  0.1669
 3479SOL    HW111336   2.439   0.800   4.519 -2.1108  0.3320  0.5141
 3479SOL    HW211337   2.483   0.771   4.364  0.2898 -2.0227  1.5547
 3480SOL     OW11338   0.023   6.910   5.629  0.1090  0.4805 -0.0399
 3480SOL    HW111339   0.066   6.846   5.693  1.1526 -0.2632 -1.4457
 3480SOL    HW211340   0.040   7.004   5.660 -0.3286  0.1250  1.3416
 3481SOL     OW11341   5.903   5.494   6.535  0.0598 -0.2887  0.0427
 3481SOL    HW111342   5.807   5.464   6.538 -0.1590  0.3555 -0.3101
 3481SOL    HW211343   5.928   5.533   6.623  0.3881 -1.5881  0.5531
 3482SOL     OW11344   6.180   1.342   2.083  0.0328 -0.5047  1.1912
 3482SOL    HW111345   6.163   1.296   2.170 -1.2151 -0.7569  0.8437
 3482SOL    HW211346   6.151   1.437   2.090 -1.2135 -0.8317  0.7121
 3483SOL     OW11347   5.301   1.994   4.560 -0.2046  0.3507  0.2174
 3483SOL    HW111348   5.345   1.924   4.617  0.0841  0.9055  0.6899
 3483SOL    HW211349   5.223   1.954   4.513  1.8129 -1.2137 -2.1031
 3484SOL     OW11350   0.211   3.197   0.230  0.3515  0.3126 -0.7966
 3484SOL    HW111351   0.253   3.256   0.299 -1.1726  0.7869 -0.2451
 3484SOL    HW211352   0.207   3.246   0.143  3.0840 -0.5971 -1.5393
 3485SOL     OW11353   1.642   2.159   5.321 -0.0555  0.1865  1.2065
 3485SOL    HW111354   1.560   2.107   5.347 -0.2613 -0.2765 -0.2876
 3485SOL    HW211355   1.723   2.108   5.347 -0.2527 -1.0850 -0.4926
 3486SOL     OW11356   1.928   0.152   4.366  0.6506 -0.8465  0.1568
 3486SOL    HW111357   1.857   0.109   4.309  0.1121 -0.1506  0.2861
 3486SOL    HW211358   1.922   0.252   4.356  0.3043 -0.6933  1.7211
 3487SOL     OW11359   6.090   1.081   0.089  0.2792  0.3173 -0.2220
 3487SOL    HW111360   6.156   1.019   0.045 -0.2926 -0.5430  0.1191
 3487SOL    HW211361   6.056   1.040   0.173 -2.8029 -0.5467 -1.7709
 3488SOL     OW11362   6.322   2.017   4.715  0.4267 -0.2432 -0.2913
 3488SOL    HW111363   6.401   2.027   4.655  0.5547 -0.5959 -0.1833
 3488SOL    HW211364   6.345   2.052   4.806  0.2655  0.1965 -0.4171
 3489SOL     OW11365   3.297   6.498   1.272  0.3452  0.3266 -0.2410
 3489SOL    HW111366   3.207   6.462   1.249  0.3712  1.0524 -1.5849
 3489SOL    HW211367   3.352   6.425   1.314 -1.0489  0.0582  1.1841
 3490SOL     OW11368   3.349   3.761   0.592 -0.1844 -0.4056  0.3364
 3490SOL    HW111369   3.382   3.852   0.616 -1.1452  0.1074 -0.2098
 3490SOL    HW211370   3.354   3.702   0.672  0.1779  0.2124  0.7789
 3491SOL     OW11371   3.926   3.212   6.836  0.2435 -0.3481  0.8291
 3491SOL    HW111372   3.994   3.140   6.841 -0.7015 -1.3266  0.0198
 3491SOL    HW211373   3.835   3.172   6.832 -0.2529  0.8266 -0.7152
 3492SOL     OW11374   0.515   4.532   1.730  0.7541  0.3598  0.3506
 3492SOL    HW111375   0.468   4.520   1.643  0.2504  4.0558 -0.0863
 3492SOL    HW211376   0.613   4.516   1.718  0.3505 -2.0586 -0.0938
 3493SOL     OW11377   2.022   4.525   2.237 -0.1598  0.3110 -0.2744
 3493SOL    HW111378   1.926   4.498   2.248 -0.5126  0.4017 -2.5332
 3493SOL    HW211379   2.079   4.443   2.233 -0.0873  0.2621  1.2832
 3494SOL     OW11380   6.577   1.121   2.835 -0.4067  0.4689  0.0182
 3494SOL    HW111381   6.574   1.123   2.935  1.6503 -0.0761  0.1321
 3494SOL    HW211382   6.517   1.049   2.801  0.1925 -0.4980  0.9613
 3495SOL     OW11383   2.306   4.151   1.846 -0.2361 -0.6124  0.1445
 3495SOL    HW111384   2.249   4.089   1.900  0.1653  0.2270  1.5871
 3495SOL    HW211385   2.293   4.245   1.878  1.0614 -0.2620 -0.2914
 3496SOL     OW11386   1.091   5.359   1.620 -0.6112  0.6122 -0.5208
 3496SOL    HW111387   1.089   5.457   1.641  2.0558  0.2461  2.1161
 3496SOL    HW211388   1.181   5.322   1.643 -1.7521 -2.6259 -0.7718
 3497SOL     OW11389   0.212   3.289   3.787  0.1738 -0.0979 -0.0638
 3497SOL    HW111390   0.201   3.230   3.707  1.0322  0.5226 -0.6595
 3497SOL    HW211391   0.309   3.297   3.809  0.0106  0.4948  0.4650
 3498SOL     OW11392   3.514   1.098   3.164  0.0575 -0.7401  0.1501
 3498SOL    HW111393   3.518   1.146   3.252 -0.7669  0.6167 -0.5199
 3498SOL    HW211394   3.597   1.043   3.152  0.4804 -0.4198  1.4731
 3499SOL     OW11395   5.695   5.461   3.734  0.1311 -0.6357  0.0285
 3499SOL    HW111396   5.764   5.391   3.750 -1.3682 -2.2033  0.0196
 3499SOL    HW211397   5.673   5.466   3.637 -0.3166 -0.7146  0.1206
 3500SOL     OW11398   0.901   2.362   3.550  0.3080  0.0635  0.1993
 3500SOL    HW111399   0.952   2.345   3.466  0.7854 -0.1333  0.5234
 3500SOL    HW211400   0.965   2.385   3.623  0.0487 -1.3784  0.9125
 3501SOL     OW11401   3.754   3.802   6.344  0.2954  0.0444  0.0174
 3501SOL    HW111402   3.817   3.784   6.268  1.1104 -0.7202  0.8545
 3501SOL    HW211403   3.792   3.765   6.429 -1.7477 -1.3993  0.3893
 3502SOL     OW11404   0.454   2.477   0.871  0.2831  0.5742  0.0580
 3502SOL    HW111405   0.464   2.378   0.861  0.6261  0.5696  0.3894
 3502SOL    HW211406   0.468   2.522   0.783 -0.5165  0.2815 -0.2210
 3503SOL     OW11407   1.279   5.133   6.493  0.2106  0.2254 -0.4448
 3503SOL    HW111408   1.281   5.158   6.590 -0.2453 -1.1370 -0.0634
 3503SOL    HW211409   1.284   5.216   6.438  0.7491  1.0105  0.7350
 3504SOL     OW11410   0.980   0.826   1.445  0.0640 -0.2481  0.3603
 3504SOL    HW111411   1.000   0.735   1.410  3.2923  0.0629  1.0461
 3504SOL    HW211412   1.020   0.895   1.384  0.1448  0.5544  1.2880
 3505SOL     OW11413   4.923   5.932   5.290  0.0381  0.3073  0.1977
 3505SOL    HW111414   5.002   5.973   5.336 -0.5492 -0.6497  2.1935
 3505SOL    HW211415   4.839   5.971   5.328 -0.4787  0.2160 -0.8231
 3506SOL     OW11416   6.735   3.697   4.509  0.0944 -0.2560 -0.0818
 3506SOL    HW111417   6.771   3.780   4.553 -1.4596  0.2919  0.2268
 3506SOL    HW211418   6.753   3.702   4.411 -0.7193  0.8781 -0.1942
 3507SOL     OW11419   5.111   2.249   3.409  0.1608 -0.2189 -0.0075
 3507SOL    HW111420   5.012   2.239   3.400  0.0903  0.8576 -0.5108
 3507SOL    HW211421   5.155   2.161   3.389 -0.7281 -0.9675  1.1883
 3508SOL     OW11422   2.388   1.468   6.278 -0.4529  0.5374 -0.6465
 3508SOL    HW111423   2.316   1.425   6.332  0.6546 -0.4134  0.1295
 3508SOL    HW211424   2.457   1.400   6.253  0.7151  1.6119 -0.4617
 3509SOL     OW11425   5.175   6.711   6.854  1.0260  0.0212  0.2709
 3509SOL    HW111426   5.090   6.674   6.816  1.5609  0.0876 -1.0631
 3509SOL    HW211427   5.218   6.643   6.914  0.4354 -0.3179  0.3101
 3510SOL     OW11428   1.855   6.332   4.582 -0.0732 -0.0289 -0.0623
 3510SOL    HW111429   1.901   6.267   4.642  0.9490 -0.0307 -0.8155
 3510SOL    HW211430   1.870   6.305   4.486  0.3563  1.3021 -0.3897
 3511SOL     OW11431   2.490   4.487   2.172  0.6272 -0.1140  0.1518
 3511SOL    HW111432   2.572   4.436   2.150  0.3305 -0.5369  0.0101
 3511SOL    HW211433   2.480   4.564   2.109  1.3842  0.4760  0.7320
 3512SOL     OW11434   0.555   6.582   1.983  0.0079 -0.6482 -0.0656
 3512SOL    HW111435   0.503   6.654   2.028  0.8478 -0.1742  0.1686
 3512SOL    HW211436   0.531   6.579   1.886  1.5197  1.4039 -0.5542
 3513SOL     OW11437   6.242   6.456   0.608 -0.4746 -0.1269 -0.8303
 3513SOL    HW111438   6.253   6.430   0.512  0.6368  0.8657 -0.9899
 3513SOL    HW211439   6.147   6.486   0.624 -0.5665  0.0610 -1.7031
 3514SOL     OW11440   6.778   6.806   0.815 -0.2464 -0.3259  0.3662
 3514SOL    HW111441   6.833   6.763   0.887  0.0708  0.1491  0.4183
 3514SOL    HW211442   6.839   6.855   0.752 -0.6223  0.4646  0.5980
 3515SOL     OW11443   5.403   0.371   2.075 -0.1746  0.4013  0.1543
 3515SOL    HW111444   5.327   0.312   2.049  0.5331 -0.4932  0.0504
 3515SOL    HW211445   5.417   0.440   2.004 -1.1849  0.8851  0.4107
 3516SOL     OW11446   6.468   0.158   2.263 -0.5324  0.1188  0.0194
 3516SOL    HW111447   6.414   0.187   2.342 -1.2716 -0.2808 -0.3287
 3516SOL    HW211448   6.563   0.148   2.290 -0.2928  2.4615  0.2503
 3517SOL     OW11449   6.554   0.749   0.941 -0.3002  0.4366 -0.1854
 3517SOL    HW111450   6.509   0.744   1.029 -1.0658 -1.3908 -0.6379
 3517SOL    HW211451   6.597   0.661   0.920  1.0501  1.2621 -1.0316
 3518SOL     OW11452   5.712   3.827   4.099  0.0872  0.2953  0.3125
 3518SOL    HW111453   5.653   3.778   4.034 -0.3722 -0.8512  1.5529
 3518SOL    HW211454   5.786   3.871   4.049 -0.3454 -0.4080 -1.0124
 3519SOL     OW11455   1.730   5.807   6.311 -0.2438  0.7477 -0.1005
 3519SOL    HW111456   1.767   5.839   6.399  0.7575  0.5857 -0.4488
 3519SOL    HW211457   1.735   5.707   6.308  1.4488  0.8345 -1.0577
 3520SOL     OW11458   4.859   6.098   6.431 -0.1717  0.1720 -0.6423
 3520SOL    HW111459   4.852   6.020   6.493 -0.6747  0.0977 -0.7856
 3520SOL    HW211460   4.922   6.077   6.357  0.9575  0.5032  0.1883
 3521SOL     OW11461   6.327   3.165   1.169  0.0482  0.2451  0.1882
 3521SOL    HW111462   6.392   3.213   1.227 -1.2295 -0.3234  2.1641
 3521SOL    HW211463   6.306   3.221   1.088  1.4960  1.2639  0.4913
 3522SOL     OW11464   1.043   5.102   0.578 -0.1466 -0.2900 -0.7863
 3522SOL    HW111465   0.973   5.045   0.621  0.3374 -0.4470 -0.1999
 3522SOL    HW211466   1.125   5.048   0.561  0.0442  0.0390 -0.9212
 3523SOL     OW11467   2.333   5.103   6.903  0.0654  0.1738 -0.8454
 3523SOL    HW111468   2.326   5.143   6.994 -0.0184  1.5332 -1.4154
 3523SOL    HW211469   2.335   5.003   6.909 -0.2763  0.2444  0.6075
 3524SOL     OW11470   6.018   3.144   1.291  0.0895 -0.0836 -0.2170
 3524SOL    HW111471   6.003   3.168   1.195 -2.4989 -1.8829 -0.3506
 3524SOL    HW211472   6.000   3.047   1.305  1.7517 -0.1650  1.8856
 3525SOL     OW11473   6.615   3.021   2.827  0.2537  0.3959  0.3731
 3525SOL    HW111474   6.531   3.007   2.774  0.6204 -0.4626 -0.0066
 3525SOL    HW211475   6.689   2.966   2.787  0.5619 -0.2108  1.7194
 3526SOL     OW11476   3.620   6.630   3.917 -0.0234 -0.1811  0.0997
 3526SOL    HW111477   3.645   6.719   3.956  0.1762  1.2235 -2.9382
 3526SOL    HW211478   3.696   6.596   3.861 -0.9064 -1.1860 -0.5220
 3527SOL     OW11479   4.969   1.818   0.538 -0.5858 -0.0380 -0.0085
 3527SOL    HW111480   5.058   1.773   0.529 -0.8563 -0.7442  0.7642
 3527SOL    HW211481   4.918   1.809   0.452  0.4641  1.2423 -0.7998
 3528SOL     OW11482   3.211   5.310   6.305 -0.2135 -0.3506 -0.1667
 3528SOL    HW111483   3.272   5.310   6.385 -0.8484 -2.8309  0.4187
 3528SOL    HW211484   3.137   5.376   6.320  0.3230  0.0678  0.7603
 3529SOL     OW11485   5.386   4.895   0.753 -0.0668 -0.3474 -0.6566
 3529SOL    HW111486   5.462   4.894   0.818 -0.8290  1.9757  0.3758
 3529SOL    HW211487   5.319   4.826   0.779 -0.0462  0.1044  0.6878
 3530SOL     OW11488   0.226   5.415   1.587 -0.1801 -0.5756 -0.0814
 3530SOL    HW111489   0.223   5.504   1.540  0.9444 -1.4806 -1.9725
 3530SOL    HW211490   0.161   5.416   1.664 -0.8648  1.5519 -0.6117
 3531SOL     OW11491   4.336   1.100   0.510 -0.0903 -0.0551  0.8172
 3531SOL    HW111492   4.332   1.139   0.417 -1.5327  2.7252  1.9212
 3531SOL    HW211493   4.259   1.038   0.524  0.6174 -1.1796 -0.0674
 3532SOL     OW11494   1.122   0.566   1.728 -0.3353  0.4262  0.3946
 3532SOL    HW111495   1.082   0.475   1.740 -0.2767  0.2078 -0.9467
 3532SOL    HW211496   1.186   0.565   1.651 -1.0282  1.8182 -0.2438
 3533SOL     OW11497   6.384   1.661   1.717  0.2134  0.8585 -0.6757
 3533SOL    HW111498   6.404   1.600   1.794  0.4602  0.6417 -0.9088
 3533SOL    HW211499   6.317   1.618   1.657 -2.5898  2.3854  1.1296
 3534SOL     OW11500   6.514   4.030   6.996  0.6020 -0.0070 -0.2118
 3534SOL    HW111501   6.531   3.946   6.944  1.7383  0.3270 -0.3909
 3534SOL    HW211502   6.522   4.109   6.935 -0.7617  0.2418 -0.1135
 3535SOL     OW11503   3.028   4.337   0.836 -0.0814  0.7487 -0.0915
 3535SOL    HW111504   3.040   4.344   0.737 -2.7068  0.7109 -0.5016
 3535SOL    HW211505   3.020   4.240   0.861  0.7167  0.7523  0.1913
 3536SOL     OW11506   5.959   2.722   4.020  0.3822  0.6286  0.2032
 3536SOL    HW111507   5.882   2.665   4.049  0.9986 -1.9217 -2.6125
 3536SOL    HW211508   6.043   2.688   4.061  0.7855 -0.8422 -1.6703
 3537SOL     OW11509   2.646   6.332   1.584 -0.5955  0.0937 -0.2547
 3537SOL    HW111510   2.600   6.419   1.566 -3.2923 -0.9350  1.0116
 3537SOL    HW211511   2.599   6.259   1.535  1.6558 -0.7049 -1.3307
 3538SOL     OW11512   3.463   6.021   5.967  0.3386  0.9141 -0.2863
 3538SOL    HW111513   3.492   5.932   6.003 -0.5708  0.5750 -0.3669
 3538SOL    HW211514   3.505   6.035   5.877  0.7880  0.7443 -0.1103
 3539SOL     OW11515   3.182   2.838   5.357 -0.2703  0.4376  0.0398
 3539SOL    HW111516   3.186   2.741   5.379  1.2121  0.1827 -1.2241
 3539SOL    HW211517   3.090   2.860   5.323 -0.6704 -0.4598  0.5033
 3540SOL     OW11518   1.344   3.480   0.446 -0.5671 -0.3407 -0.1878
 3540SOL    HW111519   1.345   3.388   0.485 -0.5253 -0.2310  0.0703
 3540SOL    HW211520   1.421   3.532   0.481  0.0161 -0.5348 -1.1471
 3541SOL     OW11521   1.578   2.352   0.931  0.1087  0.0022  0.1656
 3541SOL    HW111522   1.510   2.387   0.995  0.6057 -0.9894  1.2737
 3541SOL    HW211523   1.597   2.256   0.951  2.2799  0.4053  0.3060
 3542SOL     OW11524   2.527   4.539   1.877  0.1963  0.5733 -0.3987
 3542SOL    HW111525   2.484   4.611   1.931  1.8085 -0.2535  2.1797
 3542SOL    HW211526   2.625   4.538   1.895  0.2313 -2.2153 -0.3461
 3543SOL     OW11527   6.437   3.776   5.487  0.5360  0.0504  0.2657
 3543SOL    HW111528   6.455   3.731   5.575  1.0208  1.0583  0.6900
 3543SOL    HW211529   6.338   3.784   5.474  0.4641  0.3429  0.9515
 3544SOL     OW11530   6.823   5.444   6.157 -0.2365  0.3144 -0.2309
 3544SOL    HW111531   6.849   5.378   6.087 -0.4104 -1.8210  1.6017
 3544SOL    HW211532   6.763   5.400   6.224  0.0960  2.1759  1.4022
 3545SOL     OW11533   3.556   5.457   0.478 -0.2110 -0.3198 -0.5737
 3545SOL    HW111534   3.587   5.548   0.454  1.1515 -1.1329 -2.1052
 3545SOL    HW211535   3.627   5.390   0.457 -1.7869 -1.9286 -1.1124
 3546SOL     OW11536   0.074   5.782   3.314  0.2725 -0.5942  0.1528
 3546SOL    HW111537   0.026   5.863   3.347  0.8026  0.0752 -0.7079
 3546SOL    HW211538   0.014   5.729   3.254  1.0372  1.0176 -2.1283
 3547SOL     OW11539   4.916   5.852   3.792  0.5285 -0.2837 -0.1473
 3547SOL    HW111540   4.942   5.948   3.779 -0.1993 -0.0388  0.1667
 3547SOL    HW211541   4.836   5.831   3.736 -2.4951  0.7056  3.4610
 3548SOL     OW11542   6.177   1.008   6.221  0.0774 -0.0103  0.7710
 3548SOL    HW111543   6.215   0.921   6.251  0.9496  0.6988  1.8210
 3548SOL    HW211544   6.078   1.007   6.231  0.0567 -0.9469  0.5603
 3549SOL     OW11545   5.627   6.278   4.520 -0.1406 -0.0603 -0.0102
 3549SOL    HW111546   5.665   6.369   4.538 -1.0480  0.2174  0.5488
 3549SOL    HW211547   5.701   6.216   4.495  0.4910  0.8323 -0.4237
 3550SOL     OW11548   5.934   3.061   3.110  0.2671  0.1397  0.7953
 3550SOL    HW111549   5.876   3.103   3.040  0.9535  0.5467  0.4594
 3550SOL    HW211550   5.878   3.033   3.187 -0.3022  1.0898  0.7423
 3551SOL     OW11551   4.373   5.253   3.326  0.1776 -0.4228 -0.0731
 3551SOL    HW111552   4.444   5.194   3.288  0.7996  0.6345 -0.5961
 3551SOL    HW211553   4.284   5.228   3.289  0.3473 -1.4062  0.1691
 3552SOL     OW11554   3.427   6.945   1.961 -0.2678 -0.6418  0.1331
 3552SOL    HW111555   3.447   6.849   1.979 -2.4459 -0.9791  0.9882
 3552SOL    HW211556   3.415   6.959   1.862 -0.9962 -1.4800  0.0919
 3553SOL     OW11557   6.486   3.365   0.748 -0.3296 -0.0182  0.0906
 3553SOL    HW111558   6.542   3.391   0.826  0.1951  1.7060 -0.8237
 3553SOL    HW211559   6.412   3.305   0.779 -2.0917  3.1370  2.4977
 3554SOL     OW11560   3.566   3.296   1.685 -0.5584 -0.1018  0.2278
 3554SOL    HW111561   3.560   3.204   1.723  2.2581 -0.8110 -0.8524
 3554SOL    HW211562   3.654   3.309   1.639 -0.8294  3.1511  0.3422
 3555SOL     OW11563   6.516   2.675   2.879 -0.0557 -0.4886 -0.0024
 3555SOL    HW111564   6.545   2.745   2.945  0.0039 -0.3784 -0.1449
 3555SOL    HW211565   6.420   2.688   2.856 -0.1739 -0.7449  0.3332
 3556SOL     OW11566   5.613   1.127   4.862  0.3495  0.2179  0.0769
 3556SOL    HW111567   5.583   1.193   4.793  1.2963  0.4137 -0.1600
 3556SOL    HW211568   5.661   1.051   4.818 -1.0196 -0.8252  0.3159
 3557SOL     OW11569   5.932   0.751   4.169  0.8655 -0.8677  0.6899
 3557SOL    HW111570   5.917   0.767   4.267 -0.4090 -1.2113  0.5646
 3557SOL    HW211571   6.020   0.705   4.157  1.4963  0.0521  1.5842
 3558SOL     OW11572   1.767   0.196   6.761  0.2299  0.0451 -0.8023
 3558SOL    HW111573   1.755   0.134   6.839 -0.0779  0.3923 -0.5746
 3558SOL    HW211574   1.853   0.174   6.715  0.9783  0.5589  0.3048
 3559SOL     OW11575   1.819   1.917   4.539  0.3072 -0.3642 -0.1560
 3559SOL    HW111576   1.846   2.009   4.565 -0.8488  0.0987 -0.5316
 3559SOL    HW211577   1.757   1.880   4.608  0.9609 -0.9662  0.1203
 3560SOL     OW11578   0.624   3.119   0.410  0.0372  0.1665  0.7141
 3560SOL    HW111579   0.560   3.108   0.335 -0.2480 -0.7148  1.0729
 3560SOL    HW211580   0.574   3.112   0.497  0.7736 -1.8544  1.0247
 3561SOL     OW11581   4.735   4.715   5.515  0.6021  0.3583  0.1555
 3561SOL    HW111582   4.645   4.678   5.491  1.1003 -0.3563 -0.6723
 3561SOL    HW211583   4.729   4.763   5.602 -0.3194 -0.6767  0.6831
 3562SOL     OW11584   4.402   0.746   4.780 -0.0054 -0.0906 -0.2661
 3562SOL    HW111585   4.319   0.692   4.769 -0.5971  0.9552 -1.1980
 3562SOL    HW211586   4.378   0.839   4.810  0.8107  0.2365 -0.5788
 3563SOL     OW11587   5.362   6.765   1.982 -0.4850  0.8529  0.3742
 3563SOL    HW111588   5.275   6.813   1.971 -0.1099  0.9875 -2.6678
 3563SOL    HW211589   5.417   6.812   2.052 -0.9557  3.6944 -1.0382
 3564SOL     OW11590   1.807   4.356   2.235 -0.2455  0.3104  0.7117
 3564SOL    HW111591   1.772   4.328   2.145 -1.7866  0.5291  1.2068
 3564SOL    HW211592   1.764   4.300   2.306  2.5427 -1.3333  1.2325
 3565SOL     OW11593   3.194   6.874   5.976  0.3092 -0.1818 -0.3536
 3565SOL    HW111594   3.188   6.844   5.881  0.1544  0.7718 -0.6543
 3565SOL    HW211595   3.165   6.799   6.036 -0.0974 -0.6206 -1.0761
 3566SOL     OW11596   0.662   2.468   4.676 -0.2528 -0.1317 -0.2619
 3566SOL    HW111597   0.719   2.543   4.642 -1.2959  0.0641 -1.6407
 3566SOL    HW211598   0.681   2.455   4.774 -1.0184  2.8638  0.4026
 3567SOL     OW11599   1.789   2.137   6.603 -0.4326 -0.5643 -0.2671
 3567SOL    HW111600   1.803   2.236   6.611  0.1932 -0.6357 -0.4364
 3567SOL    HW211601   1.736   2.104   6.681  1.1267 -0.4192  0.9059
 3568SOL     OW11602   5.567   4.921   3.747  0.1407  0.4037 -0.2422
 3568SOL    HW111603   5.544   5.013   3.715  1.6994  0.8867 -0.0593
 3568SOL    HW211604   5.583   4.923   3.846 -3.8339 -0.9166  0.5863
 3569SOL     OW11605   4.109   4.102   5.465  0.4190  0.1314 -0.1027
 3569SOL    HW111606   4.201   4.070   5.442  0.4608  0.4243 -0.3442
 3569SOL    HW211607   4.059   4.028   5.511  1.3751  0.5146  1.6832
 3570SOL     OW11608   4.668   1.269   3.257 -0.5649 -0.3505  0.0734
 3570SOL    HW111609   4.705   1.194   3.203 -1.4589 -1.0432  0.3903
 3570SOL    HW211610   4.601   1.319   3.203 -1.5335 -1.1049  0.5381
 3571SOL     OW11611   1.726   6.720   6.324 -0.3556 -0.3212  0.2555
 3571SOL    HW111612   1.711   6.817   6.310 -0.5058 -0.4032 -0.1582
 3571SOL    HW211613   1.823   6.698   6.311 -0.2106 -0.1280  0.9580
 3572SOL     OW11614   0.219   3.989   2.595  0.5921 -0.4577 -0.2148
 3572SOL    HW111615   0.179   3.908   2.551 -0.6243 -0.1266  0.2430
 3572SOL    HW211616   0.199   3.987   2.693 -1.6943  1.6097 -0.5282
 3573SOL     OW11617   4.963   4.779   2.076  0.4041 -0.0142 -0.3206
 3573SOL    HW111618   4.916   4.750   2.160 -0.2177  0.2023 -0.5872
 3573SOL    HW211619   5.047   4.726   2.065  0.0973 -0.5876  0.0364
 3574SOL     OW11620   1.258   4.817   0.717 -0.2027  0.1079 -0.6757
 3574SOL    HW111621   1.302   4.873   0.787 -3.5238 -0.3165  2.0549
 3574SOL    HW211622   1.322   4.747   0.685  1.6404  0.5719  1.7143
 3575SOL     OW11623   5.183   6.802   3.547 -0.4598 -0.1960 -0.2851
 3575SOL    HW111624   5.193   6.892   3.504  0.4131 -0.1396  0.0124
 3575SOL    HW211625   5.101   6.757   3.512 -1.2594  0.9777  0.0379
 3576SOL     OW11626   6.886   0.637   6.740 -0.0226 -0.0645  0.0447
 3576SOL    HW111627   6.918   0.626   6.645  0.4380  0.2486  0.1563
 3576SOL    HW211628   6.952   0.693   6.790 -0.1679 -0.3937  0.6065
 3577SOL     OW11629   2.064   2.030   5.649 -0.1181 -0.2157 -0.4334
 3577SOL    HW111630   2.159   2.056   5.662  0.0365 -1.3261  0.9748
 3577SOL    HW211631   2.024   2.006   5.737 -0.5156 -3.6095 -1.3902
 3578SOL     OW11632   4.370   2.756   1.537 -0.1356  0.0757 -0.4599
 3578SOL    HW111633   4.416   2.687   1.593  2.5665  2.1740  0.1479
 3578SOL    HW211634   4.275   2.766   1.567  0.5220 -0.6177  2.0941
 3579SOL     OW11635   6.259   5.466   2.425  0.4855 -0.2342 -0.2895
 3579SOL    HW111636   6.170   5.442   2.385  0.1774  0.1567  0.1505
 3579SOL    HW211637   6.299   5.541   2.372  1.1814 -1.2913 -1.3078
 3580SOL     OW11638   5.306   3.256   0.869  0.2294  0.0574  0.5549
 3580SOL    HW111639   5.215   3.216   0.867  0.3341 -0.1837 -1.9138
 3580SOL    HW211640   5.300   3.355   0.851  0.3907  0.2318  1.4172
 3581SOL     OW11641   0.208   6.593   6.615 -0.4406  0.1023  0.0012
 3581SOL    HW111642   0.243   6.670   6.562  0.3818 -0.5194 -0.3789
 3581SOL    HW211643   0.118   6.617   6.653  0.3490  1.6909  0.9534
 3582SOL     OW11644   2.820   4.611   6.086 -0.0437  0.6015  0.4997
 3582SOL    HW111645   2.777   4.701   6.092 -0.1207  0.7957 -2.0063
 3582SOL    HW211646   2.913   4.621   6.050 -0.7541 -0.4090 -1.7863
 3583SOL     OW11647   6.272   4.593   0.198  0.0082  0.3631 -0.3946
 3583SOL    HW111648   6.223   4.654   0.260 -0.6885 -0.8930  0.3360
 3583SOL    HW211649   6.333   4.534   0.252  0.0506 -0.1431 -0.9907
 3584SOL     OW11650   5.359   3.897   4.578 -0.3550 -0.0086 -0.4997
 3584SOL    HW111651   5.267   3.905   4.618  0.1363  0.6683  0.5242
 3584SOL    HW211652   5.403   3.986   4.578  0.4052 -0.3770 -0.7492
 3585SOL     OW11653   2.878   2.019   4.326 -0.6934 -0.1749  0.4328
 3585SOL    HW111654   2.856   2.045   4.232 -0.2106  0.7130  0.5619
 3585SOL    HW211655   2.894   1.920   4.330  3.0058  0.2169 -1.1699
 3586SOL     OW11656   6.494   2.728   3.440 -0.5392  0.8335 -0.0971
 3586SOL    HW111657   6.474   2.801   3.505 -0.0348  1.2315 -0.3814
 3586SOL    HW211658   6.447   2.644   3.468  2.2839  0.0034  2.7060
 3587SOL     OW11659   4.630   5.569   5.710  0.4877 -0.2415 -0.6207
 3587SOL    HW111660   4.662   5.561   5.804 -0.1899 -0.4609 -0.4019
 3587SOL    HW211661   4.683   5.639   5.662  2.4912 -1.7767 -0.8025
 3588SOL     OW11662   4.759   4.347   4.768 -0.2075  0.3415  0.1953
 3588SOL    HW111663   4.705   4.396   4.837  0.7880  2.3381 -0.3556
 3588SOL    HW211664   4.853   4.379   4.772 -0.1574  0.6094 -2.1899
 3589SOL     OW11665   5.458   6.250   5.717  0.5457  0.2928  0.2006
 3589SOL    HW111666   5.547   6.292   5.700  0.9232 -0.8211 -0.7611
 3589SOL    HW211667   5.387   6.320   5.712  1.1281  0.8203 -1.5075
 3590SOL     OW11668   1.732   4.089   0.569  0.0458  0.1165  0.3945
 3590SOL    HW111669   1.704   4.045   0.483  1.7685 -0.9773  0.3311
 3590SOL    HW211670   1.763   4.182   0.550  0.2031 -0.0416 -0.1441
 3591SOL     OW11671   4.999   3.636   1.305  0.2880  0.7210 -0.1227
 3591SOL    HW111672   5.097   3.655   1.296  0.3870 -0.0822 -0.8919
 3591SOL    HW211673   4.985   3.537   1.310 -0.5344  0.7914 -0.8695
 3592SOL     OW11674   6.706   6.742   2.369  0.0613 -0.0563  0.2782
 3592SOL    HW111675   6.720   6.805   2.293  2.6196 -1.1271 -0.2504
 3592SOL    HW211676   6.738   6.651   2.344 -1.3642 -1.0443  1.8211
 3593SOL     OW11677   0.741   3.884   6.729  0.1927  0.2768 -0.3972
 3593SOL    HW111678   0.692   3.941   6.663 -0.9042 -0.5802 -0.3436
 3593SOL    HW211679   0.703   3.896   6.820 -1.3924 -1.9275 -0.6754
 3594SOL     OW11680   6.382   0.528   5.843  0.6831  0.3659 -0.0059
 3594SOL    HW111681   6.315   0.489   5.906 -1.2191  1.5036 -1.2293
 3594SOL    HW211682   6.468   0.546   5.893 -0.3340  0.1225  1.9395
 3595SOL     OW11683   5.894   5.359   0.749 -0.5786 -0.1948  0.1767
 3595SOL    HW111684   5.859   5.287   0.690  0.6632 -0.9487  0.3154
 3595SOL    HW211685   5.854   5.351   0.840 -0.8793 -0.3522  0.0308
 3596SOL     OW11686   5.503   1.830   3.384 -0.5441  0.4496  0.0289
 3596SOL    HW111687   5.524   1.815   3.287 -0.1645  3.2990 -0.4376
 3596SOL    HW211688   5.573   1.890   3.423 -0.1237 -1.4674  2.3961
 3597SOL     OW11689   1.951   1.468   0.893  0.4148 -0.8170  0.1923
 3597SOL    HW111690   2.030   1.524   0.866  0.3349 -0.6277  0.3512
 3597SOL    HW211691   1.919   1.497   0.984  0.7654 -1.5361  0.5555
 3598SOL     OW11692   3.259   7.013   5.241  0.7133  0.4055  0.2064
 3598SOL    HW111693   3.189   6.965   5.189 -0.7870  1.5112  1.1382
 3598SOL    HW211694   3.344   7.017   5.188 -0.3271  0.2397 -1.5108
 3599SOL     OW11695   3.650   1.181   1.020 -0.2163 -0.4082  0.0520
 3599SOL    HW111696   3.592   1.245   1.070 -2.1180 -0.2125 -2.2282
 3599SOL    HW211697   3.598   1.098   1.000  0.2566 -0.2383 -2.0593
 3600SOL     OW11698   6.274   4.313   2.861  0.0127  0.5664 -0.1152
 3600SOL    HW111699   6.225   4.232   2.891 -0.0539  0.6256 -0.0665
 3600SOL    HW211700   6.239   4.393   2.908 -0.3839  0.7193 -0.6551
 3601SOL     OW11701   5.178   1.875   0.110  0.3498  0.0894 -0.2575
 3601SOL    HW111702   5.226   1.841   0.029  2.0710  0.4646  0.5710
 3601SOL    HW211703   5.110   1.943   0.082 -0.9137 -1.6267 -1.6082
 3602SOL     OW11704   1.879   2.841   5.349  0.2794  0.3634  0.2223
 3602SOL    HW111705   1.817   2.818   5.273 -0.2975 -2.2009  1.3810
 3602SOL    HW211706   1.900   2.939   5.346 -2.8205  1.1004 -0.9679
 3603SOL     OW11707   3.036   5.805   5.751 -0.3016 -0.1592  0.3221
 3603SOL    HW111708   2.989   5.844   5.672  0.7757  1.0367  0.2362
 3603SOL    HW211709   3.131   5.836   5.752 -0.0220 -0.9764  1.5368
 3604SOL     OW11710   1.099   0.874   2.736 -0.1556  0.9269 -0.3983
 3604SOL    HW111711   1.146   0.960   2.757  0.4850  0.0557  2.2093
 3604SOL    HW211712   1.153   0.797   2.772 -1.5788 -0.4465 -1.0548
 3605SOL     OW11713   1.490   4.831   3.330  0.1668 -0.1615 -0.0843
 3605SOL    HW111714   1.483   4.928   3.352 -2.2232 -0.3895  0.4799
 3605SOL    HW211715   1.529   4.820   3.238 -0.6002  1.4081 -0.6326
 3606SOL     OW11716   0.728   0.526   1.649 -0.0976 -0.1395  0.0421
 3606SOL    HW111717   0.770   0.606   1.690  0.0657 -0.4312  0.4494
 3606SOL    HW211718   0.648   0.499   1.703  0.7883 -1.2186  0.8653
 3607SOL     OW11719   5.447   2.577   4.054 -0.3226 -0.2308 -0.5306
 3607SOL    HW111720   5.376   2.601   4.120 -0.3798 -0.5376 -0.4794
 3607SOL    HW211721   5.449   2.478   4.042  2.3120 -0.6266  2.0142
 3608SOL     OW11722   3.457   2.070   3.606  0.3812  0.5585  0.2423
 3608SOL    HW111723   3.380   2.094   3.546  0.8287 -0.7333 -0.8946
 3608SOL    HW211724   3.450   2.122   3.691  0.0413  2.9072 -1.1236
 3609SOL     OW11725   2.041   0.286   5.536  0.1981  0.5491 -0.8459
 3609SOL    HW111726   2.032   0.191   5.505 -1.6949  0.3533  0.1298
 3609SOL    HW211727   2.111   0.292   5.607 -0.8596 -0.5022  0.3416
 3610SOL     OW11728   1.237   1.518   4.885 -0.7684  0.3443 -0.1897
 3610SOL    HW111729   1.256   1.568   4.800 -0.1901  0.2393 -0.1234
 3610SOL    HW211730   1.259   1.421   4.873  1.4911  0.6683  0.7368
 3611SOL     OW11731   2.757   6.307   2.702 -0.7429  0.1478  0.8798
 3611SOL    HW111732   2.669   6.355   2.706 -1.9651 -1.9164  0.1691
 3611SOL    HW211733   2.802   6.329   2.615 -0.9083  0.6366  0.9154
 3612SOL     OW11734   0.753   1.724   0.276  0.5665 -0.0957 -1.0046
 3612SOL    HW111735   0.767   1.776   0.361  0.6624 -0.7086 -0.6382
 3612SOL    HW211736   0.726   1.786   0.203 -1.1484  0.2391 -0.1244
 3613SOL     OW11737   2.786   5.842   2.477  0.1246 -0.5340 -0.5309
 3613SOL    HW111738   2.736   5.766   2.519  0.6516  0.1414  1.4521
 3613SOL    HW211739   2.730   5.925   2.479  0.0314 -0.5576 -1.5263
 3614SOL     OW11740   2.478   3.130   6.918 -0.2606 -0.5519  0.0935
 3614SOL    HW111741   2.564   3.157   6.875 -0.2321 -0.8416 -0.0366
 3614SOL    HW211742   2.418   3.089   6.850 -0.9518  0.6592 -0.0569
 3615SOL     OW11743   5.629   2.210   0.445  0.0126 -0.5522  0.4529
 3615SOL    HW111744   5.662   2.123   0.481 -2.1268 -0.7066  2.2671
 3615SOL    HW211745   5.537   2.227   0.479 -0.5877  1.2857 -1.8657
 3616SOL     OW11746   1.078   1.897   0.204 -0.0857  0.4956 -0.2294
 3616SOL    HW111747   1.049   1.895   0.300 -0.4106  1.1287 -0.3122
 3616SOL    HW211748   1.031   1.971   0.157 -0.2561 -0.0881 -0.9862
 3617SOL     OW11749   4.176   0.514   4.322  0.4592  0.1287 -0.4878
 3617SOL    HW111750   4.177   0.414   4.325  1.2140  0.0832 -1.4735
 3617SOL    HW211751   4.220   0.551   4.403 -1.2756 -0.2782  0.7007
 3618SOL     OW11752   3.427   3.474   4.901 -0.2257  0.6615  0.0132
 3618SOL    HW111753   3.328   3.461   4.900 -0.2786  1.0195 -2.0622
 3618SOL    HW211754   3.462   3.484   4.808  1.4288  3.1591  0.7754
 3619SOL     OW11755   5.767   2.342   1.160 -0.4238  0.2752  0.5978
 3619SOL    HW111756   5.785   2.408   1.234  0.1399 -0.0585  0.7627
 3619SOL    HW211757   5.680   2.296   1.177  0.5843 -1.1763  2.0877
 3620SOL     OW11758   6.012   4.798   4.867 -0.5086 -0.1095 -0.4510
 3620SOL    HW111759   6.063   4.850   4.799  2.0258 -0.3421  1.1394
 3620SOL    HW211760   5.987   4.709   4.830 -0.6993  0.4195 -1.6189
 3621SOL     OW11761   3.737   3.716   3.033  0.1557 -0.3332  0.0264
 3621SOL    HW111762   3.763   3.636   3.088 -0.7548 -0.3205  0.4915
 3621SOL    HW211763   3.805   3.730   2.961  0.1080 -1.7706 -0.3169
 3622SOL     OW11764   0.289   7.005   2.389 -0.0318  0.2365  0.3996
 3622SOL    HW111765   0.370   7.034   2.337  0.7226  0.9333  1.9083
 3622SOL    HW211766   0.282   7.059   2.472 -2.3754  0.5483  0.0671
 3623SOL     OW11767   0.018   5.899   5.151 -0.1701  0.1421 -0.4898
 3623SOL    HW111768   0.084   5.974   5.141  0.2070 -0.2364 -0.9118
 3623SOL    HW211769  -0.006   5.888   5.247  2.1293 -1.1871  0.0105
 3624SOL     OW11770   1.268   6.763   2.162  0.9725  0.1749 -0.3695
 3624SOL    HW111771   1.238   6.709   2.241 -0.1162  0.6132 -0.4532
 3624SOL    HW211772   1.220   6.730   2.080 -0.5244  1.8787 -0.2502
 3625SOL     OW11773   4.966   2.328   6.835  0.4547 -0.0758 -0.0188
 3625SOL    HW111774   4.996   2.314   6.929 -2.5640  0.0740  1.0630
 3625SOL    HW211775   4.951   2.425   6.819  1.9922  0.0305 -1.0713
 3626SOL     OW11776   6.996   3.710   4.023  0.0442 -0.0636 -0.3180
 3626SOL    HW111777   6.964   3.617   4.006  1.5534 -0.7248  0.3005
 3626SOL    HW211778   6.971   3.769   3.946 -2.5201 -0.5053  0.0697
 3627SOL     OW11779   5.532   5.158   0.786 -0.2208  0.2329 -0.1316
 3627SOL    HW111780   5.559   5.078   0.731  0.4594 -0.6612  1.4405
 3627SOL    HW211781   5.448   5.137   0.836 -1.8747  1.6870 -2.1358
 3628SOL     OW11782   1.297   0.552   1.243  0.0063  0.1868 -0.0476
 3628SOL    HW111783   1.328   0.477   1.183 -0.1717  1.9652 -2.5159
 3628SOL    HW211784   1.263   0.627   1.187 -1.3373  1.5117  2.4005
 3629SOL     OW11785   1.112   1.507   4.246 -0.2997  0.2746 -0.5069
 3629SOL    HW111786   1.177   1.467   4.311  0.3263  0.5337 -0.9686
 3629SOL    HW211787   1.030   1.538   4.295 -0.7122 -1.3533 -0.1015
 3630SOL     OW11788   6.743   1.335   2.877  0.3576  0.1567  0.0396
 3630SOL    HW111789   6.690   1.253   2.855 -0.2541  0.5371  0.0616
 3630SOL    HW211790   6.800   1.318   2.957  0.3877 -0.3107 -0.0813
 3631SOL     OW11791   1.517   6.908   3.253  0.0207  0.2320 -0.7897
 3631SOL    HW111792   1.613   6.896   3.278  0.5124  0.2782 -2.5038
 3631SOL    HW211793   1.493   6.842   3.181 -1.4367 -0.2233  0.0585
 3632SOL     OW11794   4.244   3.912   1.727 -0.6856 -0.0068 -0.1605
 3632SOL    HW111795   4.192   3.998   1.725  0.3885  0.6454 -0.6386
 3632SOL    HW211796   4.330   3.927   1.776 -0.7612 -0.9746  0.2794
 3633SOL     OW11797   3.450   2.861   5.385 -0.3478  0.4222  0.2065
 3633SOL    HW111798   3.502   2.914   5.318  0.2771 -1.0643 -0.5338
 3633SOL    HW211799   3.361   2.837   5.346  0.6199 -1.8401 -0.8762
 3634SOL     OW11800   3.358   5.675   5.768  0.6756  0.2996 -0.4246
 3634SOL    HW111801   3.455   5.657   5.753  0.9948  0.7547  0.9925
 3634SOL    HW211802   3.337   5.769   5.740 -0.3222 -0.9937 -4.7914
 3635SOL     OW11803   2.860   0.230   0.835  0.0109 -0.4989 -0.3210
 3635SOL    HW111804   2.780   0.174   0.859  0.7908 -1.7557 -0.5656
 3635SOL    HW211805   2.941   0.194   0.880  0.4207  0.9520  0.1727
 3636SOL     OW11806   6.569   6.823   0.318  0.1649 -0.4536 -0.1186
 3636SOL    HW111807   6.618   6.768   0.385  1.6050  0.7534 -0.1002
 3636SOL    HW211808   6.627   6.836   0.237  0.1808  1.5487  0.1556
 3637SOL     OW11809   0.951   1.823   0.727  0.2396 -0.3118 -0.5503
 3637SOL    HW111810   0.966   1.895   0.795  0.1817 -0.3901 -0.4529
 3637SOL    HW211811   0.893   1.752   0.767  1.6424 -1.2367 -0.0555
 3638SOL     OW11812   0.967   4.644   1.947 -0.6253 -0.1551  0.5868
 3638SOL    HW111813   1.044   4.673   1.889 -1.3338  0.7884  0.0915
 3638SOL    HW211814   1.001   4.585   2.019  0.7207  0.9142  0.8829
 3639SOL     OW11815   3.693   5.247   5.761  0.7027  0.4645  0.1409
 3639SOL    HW111816   3.598   5.273   5.781  0.8189  1.1566 -0.1862
 3639SOL    HW211817   3.718   5.282   5.671  1.6525  1.3117  0.7148
 3640SOL     OW11818   4.209   1.510   6.554 -0.3346 -0.7749  0.4178
 3640SOL    HW111819   4.263   1.553   6.626 -2.3547  2.0480  0.4380
 3640SOL    HW211820   4.163   1.429   6.591  0.1669 -0.4850  1.7465
 3641SOL     OW11821   4.227   5.302   0.654  0.1385 -0.0156  0.5264
 3641SOL    HW111822   4.267   5.269   0.739 -0.4770 -1.9466  0.1110
 3641SOL    HW211823   4.299   5.311   0.584  0.3719 -0.1386  0.7503
 3642SOL     OW11824   4.668   2.667   5.552  0.2893 -0.2645  0.0319
 3642SOL    HW111825   4.613   2.742   5.516 -0.3636  0.8569  3.0656
 3642SOL    HW211826   4.738   2.642   5.485  0.2020  2.6697 -1.3185
 3643SOL     OW11827   1.989   4.841   6.052 -0.7344  0.0825 -0.0999
 3643SOL    HW111828   2.060   4.835   5.982 -1.4631  0.6078 -0.9122
 3643SOL    HW211829   1.902   4.810   6.013 -1.0967  0.1393  0.6544
 3644SOL     OW11830   2.654   2.302   0.960 -0.2199  0.1125 -0.0180
 3644SOL    HW111831   2.607   2.261   0.881  1.5200 -1.3989 -0.3303
 3644SOL    HW211832   2.697   2.231   1.014  2.4474  1.4171 -0.2344
 3645SOL     OW11833   1.445   3.040   0.123  0.6274  0.0422  1.1925
 3645SOL    HW111834   1.380   2.972   0.158  0.1965  1.1849  2.7164
 3645SOL    HW211835   1.396   3.105   0.065  0.8676 -0.4083  0.4741
 3646SOL     OW11836   2.876   5.126   4.481  0.1798  0.2868 -0.0882
 3646SOL    HW111837   2.943   5.122   4.555 -0.2762  1.4389  0.4099
 3646SOL    HW211838   2.791   5.082   4.510  0.8690 -1.7420 -0.9415
 3647SOL     OW11839   3.562   1.566   5.086  0.0674  0.1843  0.0668
 3647SOL    HW111840   3.466   1.544   5.072 -0.0573  1.0848 -0.6243
 3647SOL    HW211841   3.573   1.616   5.171  0.0061 -0.3871  0.4144
 3648SOL     OW11842   6.195   5.577   3.754 -0.4064 -0.2090  0.2365
 3648SOL    HW111843   6.267   5.579   3.824 -2.6161 -0.9204  2.6948
 3648SOL    HW211844   6.232   5.543   3.668  2.3306  0.1944  1.1709
 3649SOL     OW11845   5.918   5.572   1.472 -0.1518  0.1034  0.1912
 3649SOL    HW111846   5.940   5.560   1.568  1.6786 -0.9784 -0.3107
 3649SOL    HW211847   5.854   5.501   1.443  2.1534 -1.9904 -0.1771
 3650SOL     OW11848   5.176   4.073   5.769 -0.7513  0.1927  0.3138
 3650SOL    HW111849   5.123   4.154   5.793  2.5097  2.3998  0.7222
 3650SOL    HW211850   5.267   4.100   5.740 -0.8830 -3.0701 -4.1848
 3651SOL     OW11851   1.151   2.132   0.701 -0.4846  0.4168 -0.0729
 3651SOL    HW111852   1.186   2.196   0.632 -1.9142 -1.7204 -2.9981
 3651SOL    HW211853   1.203   2.047   0.696 -1.9559 -0.5175 -0.0011
 3652SOL     OW11854   5.538   1.568   1.665  0.1451  0.7234  0.3542
 3652SOL    HW111855   5.566   1.496   1.728 -0.5564 -0.8739 -1.0692
 3652SOL    HW211856   5.478   1.632   1.713  0.6789  0.3028  1.6338
 3653SOL     OW11857   0.644   1.393   2.101  0.1228 -0.3071 -0.1024
 3653SOL    HW111858   0.690   1.355   2.021 -1.5724 -1.3361 -0.6458
 3653SOL    HW211859   0.564   1.445   2.072  1.1089  1.8346  0.7845
 3654SOL     OW11860   4.818   6.060   6.819  0.6358 -0.4734 -0.0282
 3654SOL    HW111861   4.820   5.962   6.841 -0.8714 -0.7775 -1.0755
 3654SOL    HW211862   4.911   6.092   6.802  1.1252 -1.8167 -0.0254
 3655SOL     OW11863   2.523   1.847   3.772 -0.2185  0.1801  0.4353
 3655SOL    HW111864   2.535   1.936   3.728 -0.1738 -0.2847 -0.5120
 3655SOL    HW211865   2.425   1.826   3.779 -0.2242  0.2381  0.5378
 3656SOL     OW11866   6.168   5.406   2.709  0.0267  0.6760  0.2702
 3656SOL    HW111867   6.228   5.410   2.629 -0.4420  2.3291 -0.0368
 3656SOL    HW211868   6.086   5.354   2.687 -0.5894  2.0119 -0.7015
 3657SOL     OW11869   4.524   4.290   6.991 -0.7847  0.0582  0.1707
 3657SOL    HW111870   4.562   4.197   6.988 -0.1050  0.3547 -1.4719
 3657SOL    HW211871   4.576   4.345   7.057  0.4160 -0.0801 -0.6240
 3658SOL     OW11872   1.767   5.950   6.084 -0.0498  0.0774 -0.0643
 3658SOL    HW111873   1.768   5.901   6.171  0.1177 -0.3224 -0.2909
 3658SOL    HW211874   1.673   5.978   6.063  0.0607  1.1677  0.7956
 3659SOL     OW11875   0.377   0.741   6.762  0.0120 -0.7308  0.1282
 3659SOL    HW111876   0.382   0.830   6.716  0.1968 -0.8606 -0.1061
 3659SOL    HW211877   0.397   0.668   6.696  1.1197 -0.8694  0.6054
 3660SOL     OW11878   6.320   0.166   4.609 -0.3474 -0.4950 -0.0875
 3660SOL    HW111879   6.411   0.178   4.649  0.4362 -1.7176 -1.4088
 3660SOL    HW211880   6.322   0.092   4.542 -2.5472 -1.1594  0.4828
 3661SOL     OW11881   0.094   1.585   5.286 -0.0236 -0.2833  0.0338
 3661SOL    HW111882   0.171   1.575   5.349 -1.3137  2.5157  2.3162
 3661SOL    HW211883   0.027   1.513   5.304  0.4576 -0.5892  0.6425
 3662SOL     OW11884   4.552   6.734   3.932  0.0625 -0.1950  0.3703
 3662SOL    HW111885   4.559   6.732   3.832 -1.0055 -1.7410  0.2870
 3662SOL    HW211886   4.488   6.663   3.962  0.6671 -0.0200  2.1874
 3663SOL     OW11887   1.135   2.046   6.708 -0.0090  0.8098 -0.2767
 3663SOL    HW111888   1.102   1.959   6.746  0.5655  1.4024  1.6828
 3663SOL    HW211889   1.225   2.067   6.746 -0.0618  2.1969 -0.8579
 3664SOL     OW11890   4.830   1.500   3.170 -0.2959  0.4582 -0.2978
 3664SOL    HW111891   4.779   1.433   3.224  0.8616  0.0695  0.3392
 3664SOL    HW211892   4.771   1.578   3.149 -1.6242 -0.6878 -0.9486
 3665SOL     OW11893   0.351   6.077   5.637  0.3110  0.4431  0.4895
 3665SOL    HW111894   0.434   6.117   5.599  0.5330 -0.0354  0.4690
 3665SOL    HW211895   0.370   5.984   5.669 -0.0845  0.5223  0.9704
 3666SOL     OW11896   0.938   3.403   4.599 -0.0927  0.3446 -0.3363
 3666SOL    HW111897   0.857   3.444   4.556 -0.9622  0.1066  1.0181
 3666SOL    HW211898   0.991   3.354   4.530 -1.6787 -0.4062 -1.0806
 3667SOL     OW11899   0.279   0.696   3.620 -0.1796  0.0496  0.2004
 3667SOL    HW111900   0.240   0.684   3.529  2.9204 -0.2541 -1.2316
 3667SOL    HW211901   0.292   0.793   3.638  0.3031  0.0761 -0.2443
 3668SOL     OW11902   1.005   0.736   2.163  0.3165  0.4084 -0.3123
 3668SOL    HW111903   0.971   0.829   2.168  0.5868  0.4729  0.5641
 3668SOL    HW211904   1.051   0.722   2.075  1.9973  1.7230  0.3033
 3669SOL     OW11905   6.296   2.165   3.411  0.0179 -0.2922  0.3948
 3669SOL    HW111906   6.296   2.209   3.322 -1.4076  0.8097  0.9021
 3669SOL    HW211907   6.336   2.073   3.403  0.5819  0.0622 -1.2071
 3670SOL     OW11908   2.527   4.504   0.978  0.7492  0.3440 -0.0176
 3670SOL    HW111909   2.454   4.559   1.020 -0.3446 -0.0126 -1.3585
 3670SOL    HW211910   2.535   4.527   0.881  0.6750 -1.3983 -0.4793
 3671SOL     OW11911   0.800   1.575   3.282 -0.1742  0.6951 -0.8104
 3671SOL    HW111912   0.878   1.638   3.281  0.1932  0.2962 -2.8928
 3671SOL    HW211913   0.833   1.481   3.279 -0.7159  0.2694  2.4794
 3672SOL     OW11914   4.500   0.096   1.357  0.3100  0.0880 -0.0046
 3672SOL    HW111915   4.520  -0.002   1.362  1.2327  0.2888  0.5113
 3672SOL    HW211916   4.564   0.140   1.294  0.3412  0.4653  0.2858
 3673SOL     OW11917   4.626   6.132   0.752 -0.1868  0.0520 -0.4706
 3673SOL    HW111918   4.626   6.227   0.719  0.2497  1.1359  2.3633
 3673SOL    HW211919   4.717   6.109   0.787 -1.1516 -0.0690  2.2140
 3674SOL     OW11920   1.808   5.418   0.084  0.2348 -0.0919  0.8178
 3674SOL    HW111921   1.734   5.366   0.042 -0.7858  1.0872  1.0680
 3674SOL    HW211922   1.896   5.390   0.045 -0.4306 -0.8514 -0.1846
 3675SOL     OW11923   2.560   1.794   2.710 -0.6651 -0.7467  0.1734
 3675SOL    HW111924   2.493   1.785   2.636 -0.9704  0.2022  0.3230
 3675SOL    HW211925   2.550   1.883   2.754 -0.0815 -1.0567  0.9692
 3676SOL     OW11926   5.807   3.422   2.652  0.3885 -0.5666  0.9355
 3676SOL    HW111927   5.869   3.485   2.698  1.0285 -0.8533  0.4740
 3676SOL    HW211928   5.817   3.431   2.553 -1.9230  0.9958  0.7559
 3677SOL     OW11929   2.482   0.146   3.289 -0.1235  0.2917  0.0448
 3677SOL    HW111930   2.519   0.180   3.375 -1.3484  2.5313 -0.2271
 3677SOL    HW211931   2.529   0.190   3.212 -0.2532 -0.3236 -0.3983
 3678SOL     OW11932   0.670   1.296   5.383 -0.2410  0.0861  0.6689
 3678SOL    HW111933   0.710   1.209   5.415 -1.1993 -1.0987 -1.1796
 3678SOL    HW211934   0.665   1.295   5.283 -1.4988  1.7390  0.6801
 3679SOL     OW11935   6.131   0.657   4.920 -0.4382  0.3133  0.3936
 3679SOL    HW111936   6.100   0.564   4.938 -1.5778  0.7777  0.9363
 3679SOL    HW211937   6.194   0.686   4.991  0.1887 -0.1579  0.0369
 3680SOL     OW11938   5.755   2.473   2.567  0.2612 -0.2996 -0.4935
 3680SOL    HW111939   5.735   2.471   2.665  1.1550  0.2174 -0.2918
 3680SOL    HW211940   5.804   2.557   2.545 -1.0702  0.2152 -1.6196
 3681SOL     OW11941   1.592   1.236   4.744 -0.0835 -0.1780  0.0951
 3681SOL    HW111942   1.496   1.242   4.772  0.0603  0.0316  0.5598
 3681SOL    HW211943   1.627   1.145   4.766 -0.1829 -0.2632 -0.0984
 3682SOL     OW11944   5.292   3.353   1.483  0.2956 -0.5002  0.5985
 3682SOL    HW111945   5.202   3.348   1.439  0.0166  0.2417  1.0679
 3682SOL    HW211946   5.326   3.260   1.499 -0.1501 -0.7871 -0.0472
 3683SOL     OW11947   6.275   0.941   4.350 -0.2184  0.1896  0.1777
 3683SOL    HW111948   6.225   0.862   4.384  0.4024 -0.0604  0.5350
 3683SOL    HW211949   6.364   0.946   4.396 -0.4398  1.3690  0.5288
 3684SOL     OW11950   0.268   1.644   5.501  0.4327 -0.3980 -0.9139
 3684SOL    HW111951   0.322   1.722   5.468  0.4792 -0.1364 -0.2330
 3684SOL    HW211952   0.200   1.676   5.566  0.7025 -0.9743 -0.3349
 3685SOL     OW11953   3.937   6.632   6.720  0.5249  0.3438  0.1444
 3685SOL    HW111954   3.976   6.718   6.754  3.4370  0.1742 -2.2980
 3685SOL    HW211955   3.879   6.651   6.641  3.6584  0.0816 -2.4325
 3686SOL     OW11956   6.192   4.395   2.381 -0.2637 -0.2096 -0.5566
 3686SOL    HW111957   6.159   4.301   2.395 -1.4537 -0.2084 -2.9431
 3686SOL    HW211958   6.292   4.395   2.385 -0.2142 -1.6986 -1.0893
 3687SOL     OW11959   6.890   0.155   4.165  0.0830 -0.5390  0.2730
 3687SOL    HW111960   6.825   0.094   4.210 -0.8595 -0.4220 -0.8872
 3687SOL    HW211961   6.972   0.103   4.139  0.2741 -0.7863  1.3350
 3688SOL     OW11962   5.971   2.483   0.359  0.4483  0.1440  0.4937
 3688SOL    HW111963   5.872   2.487   0.374  0.5276 -0.2222  1.1613
 3688SOL    HW211964   5.994   2.529   0.273 -0.4037 -0.6408 -0.1638
 3689SOL     OW11965   2.328   0.681   5.328  0.3810 -0.0871 -0.2729
 3689SOL    HW111966   2.230   0.669   5.311  0.2359  0.1506  0.3780
 3689SOL    HW211967   2.343   0.769   5.374  0.9882  0.2718 -1.1298
 3690SOL     OW11968   5.432   4.706   7.011  0.2341 -0.3227  0.4092
 3690SOL    HW111969   5.464   4.613   6.995  1.8879  0.3007 -0.1094
 3690SOL    HW211970   5.504   4.759   7.056 -0.6540  0.7237  0.6454
 3691SOL     OW11971   0.910   2.856   5.995 -0.3244 -0.0506 -0.4023
 3691SOL    HW111972   0.968   2.790   5.947  0.8189 -0.2729  1.2106
 3691SOL    HW211973   0.956   2.945   5.997 -0.0017 -0.2226  0.8649
 3692SOL     OW11974   5.096   3.369   6.099  0.5046 -0.2327 -0.2990
 3692SOL    HW111975   5.038   3.344   6.021 -0.5483 -1.1208  0.7443
 3692SOL    HW211976   5.112   3.468   6.098  0.6674 -0.2519 -1.7296
 3693SOL     OW11977   1.713   0.732   2.666 -0.5777  0.0308  0.2324
 3693SOL    HW111978   1.746   0.764   2.578 -3.7112  2.9567 -0.0717
 3693SOL    HW211979   1.773   0.765   2.739  0.2302  0.4103 -0.5952
 3694SOL     OW11980   6.881   0.350   3.982  0.5294  0.6765  0.5476
 3694SOL    HW111981   6.902   0.333   3.885 -0.3204  2.1030  0.0790
 3694SOL    HW211982   6.896   0.267   4.034 -0.9436 -0.7270 -1.1397
 3695SOL     OW11983   5.969   1.986   2.375  0.2697 -0.2483 -0.1749
 3695SOL    HW111984   5.898   1.929   2.334  1.3103 -0.8287 -1.2126
 3695SOL    HW211985   6.049   1.930   2.397  1.6221  0.8981 -1.9414
 3696SOL     OW11986   5.282   0.678   5.809  0.1734 -0.4519  0.0653
 3696SOL    HW111987   5.326   0.736   5.741  0.7045 -0.8675  0.0476
 3696SOL    HW211988   5.193   0.717   5.834  1.0335  1.0182  0.9729
 3697SOL     OW11989   0.413   6.699   3.208 -0.6329 -0.0764  0.0694
 3697SOL    HW111990   0.476   6.666   3.137 -2.0713 -0.2839 -1.1492
 3697SOL    HW211991   0.466   6.728   3.288  1.1168  1.0601 -1.4203
 3698SOL     OW11992   1.532   5.762   3.243  0.4675  0.2604  0.1531
 3698SOL    HW111993   1.481   5.679   3.219  0.1435  0.0327  1.5432
 3698SOL    HW211994   1.536   5.771   3.343 -0.2096  2.3467  0.0401
 3699SOL     OW11995   1.270   2.648   2.589  0.5685  0.0996  0.2338
 3699SOL    HW111996   1.204   2.575   2.606  0.6062  0.8089  4.4002
 3699SOL    HW211997   1.223   2.736   2.586  1.0108  0.3345  0.0365
 3700SOL     OW11998   2.066   4.721   6.764  0.6055 -0.3282 -0.5221
 3700SOL    HW111999   2.073   4.627   6.731 -2.1591 -0.3608 -1.2483
 3700SOL    HW212000   2.129   4.779   6.713  3.4181 -1.9048  0.8839
 3701SOL     OW12001   1.195   0.762   6.930 -0.0477 -0.1802  0.9501
 3701SOL    HW112002   1.186   0.842   6.990  1.2328  1.0484 -0.4260
 3701SOL    HW212003   1.288   0.759   6.892 -0.9478 -0.5962 -1.3810
 3702SOL     OW12004   5.805   6.426   3.664 -0.1255 -0.1029  0.1872
 3702SOL    HW112005   5.715   6.471   3.663  0.7220  1.6921  0.4875
 3702SOL    HW212006   5.821   6.389   3.755  0.1089  1.0860  0.6573
 3703SOL     OW12007   0.937   0.974   0.249  0.3690  0.2247  0.3600
 3703SOL    HW112008   0.887   0.897   0.210  0.5928 -0.2594  1.0069
 3703SOL    HW212009   0.877   1.055   0.251  0.5329  0.4328 -1.4884
 3704SOL     OW12010   4.602   2.747   1.825 -0.4164  0.0811  0.5901
 3704SOL    HW112011   4.613   2.718   1.920 -0.1733  0.4928  0.6844
 3704SOL    HW212012   4.620   2.845   1.817  2.9370 -0.4943 -0.4392
 3705SOL     OW12013   6.639   4.292   4.319 -0.5148  0.1255  0.7508
 3705SOL    HW112014   6.562   4.236   4.289 -0.6600  1.1259 -0.9144
 3705SOL    HW212015   6.687   4.329   4.239  0.6143  0.9770  1.7673
 3706SOL     OW12016   1.256   3.522   2.329  0.1214  0.2348  0.5308
 3706SOL    HW112017   1.330   3.475   2.280 -0.3106  0.5659 -0.4666
 3706SOL    HW212018   1.168   3.497   2.289 -0.1510  1.5217  0.2713
 3707SOL     OW12019   3.292   5.002   4.533  0.8052  0.0957  0.3136
 3707SOL    HW112020   3.287   5.098   4.561 -2.9148 -0.0828  0.7380
 3707SOL    HW212021   3.204   4.958   4.549  2.3394 -3.4163  0.0100
 3708SOL     OW12022   3.401   4.709   0.808  0.3081  0.2568  0.3921
 3708SOL    HW112023   3.342   4.739   0.882 -0.0974 -0.0068  0.1779
 3708SOL    HW212024   3.485   4.765   0.807  1.3084 -1.1224  2.3769
 3709SOL     OW12025   1.222   2.420   1.513 -0.2514 -0.1698  0.2629
 3709SOL    HW112026   1.188   2.498   1.460  0.2120  0.9670  1.5805
 3709SOL    HW212027   1.145   2.374   1.557 -0.4791 -0.2140 -0.1677
 3710SOL     OW12028   0.368   5.549   6.310  0.2044 -0.5451 -0.2346
 3710SOL    HW112029   0.301   5.584   6.375 -1.1158 -1.1514 -1.2277
 3710SOL    HW212030   0.368   5.449   6.314  0.8737 -0.5588 -0.4446
 3711SOL     OW12031   3.975   0.031   5.924  0.4453  0.0593  0.8869
 3711SOL    HW112032   3.984   0.032   5.825  0.8607 -1.3276  0.8824
 3711SOL    HW212033   4.023  -0.049   5.961 -0.9797 -0.3203  2.0492
 3712SOL     OW12034   3.323   0.501   6.971  0.2909  0.3108 -0.3218
 3712SOL    HW112035   3.325   0.511   7.071 -0.9814 -2.2702  0.0476
 3712SOL    HW212036   3.233   0.530   6.938  0.5391  0.6877 -0.6694
 3713SOL     OW12037   0.340   5.901   5.982  0.4982 -0.3449 -0.4863
 3713SOL    HW112038   0.337   5.901   5.882 -3.8028  1.0405 -0.5867
 3713SOL    HW212039   0.277   5.832   6.017  1.0660 -0.0363  1.2105
 3714SOL     OW12040   6.337   4.487   5.999 -0.9455 -0.5083  0.0885
 3714SOL    HW112041   6.435   4.474   5.982 -0.4344  1.8963  0.8137
 3714SOL    HW212042   6.295   4.398   6.019  1.4505 -1.4229  1.5677
 3715SOL     OW12043   0.266   0.411   4.778 -0.1799 -0.4292  0.2712
 3715SOL    HW112044   0.264   0.312   4.792  0.7045 -0.4637  0.1606
 3715SOL    HW212045   0.174   0.448   4.794 -0.9457 -1.4930 -1.3538
 3716SOL     OW12046   4.899   3.801   5.199 -0.0476  0.1885  0.3179
 3716SOL    HW112047   4.943   3.862   5.134  0.5032 -0.1035  0.4042
 3716SOL    HW212048   4.871   3.717   5.153 -1.2246  0.6795  0.0992
 3717SOL     OW12049   4.059   0.777   0.749  0.7449 -0.3939 -0.4533
 3717SOL    HW112050   4.126   0.702   0.746  2.4151  1.0616 -1.3402
 3717SOL    HW212051   4.022   0.784   0.842  2.5222 -0.6833  0.3266
 3718SOL     OW12052   6.997   5.950   6.062  0.3915 -0.4316  0.3291
 3718SOL    HW112053   7.086   5.970   6.102  0.6362 -0.7222 -0.0631
 3718SOL    HW212054   6.957   5.871   6.107  0.7629 -0.8922 -0.1346
 3719SOL     OW12055   4.519   3.476   5.322  0.2195  0.1447 -0.1910
 3719SOL    HW112056   4.607   3.491   5.278  0.5217 -1.0515 -0.0269
 3719SOL    HW212057   4.488   3.383   5.306  0.7295 -0.6379  2.7319
 3720SOL     OW12058   6.243   4.305   0.990  0.2223  0.1560  0.1850
 3720SOL    HW112059   6.295   4.351   1.062 -2.1823  0.7913  1.6421
 3720SOL    HW212060   6.226   4.368   0.915  1.2103  0.0513 -0.1346
 3721SOL     OW12061   6.208   6.179   0.775  0.5283  0.2073  0.0841
 3721SOL    HW112062   6.163   6.268   0.773  1.3118  0.6201 -2.0002
 3721SOL    HW212063   6.294   6.185   0.825 -0.3373  0.0892  1.6589
 3722SOL     OW12064   5.915   6.248   3.479  0.2851 -0.0020  0.8015
 3722SOL    HW112065   5.912   6.254   3.380  2.6383 -1.2983  0.5693
 3722SOL    HW212066   5.876   6.331   3.519  0.0101  0.8872 -1.1989
 3723SOL     OW12067   3.687   4.963   1.357 -0.4879 -0.4677  0.7014
 3723SOL    HW112068   3.698   4.991   1.262  1.3530  0.7387  1.2156
 3723SOL    HW212069   3.660   5.041   1.412  1.7864 -0.2621  1.6731
 3724SOL     OW12070   2.527   4.799   1.198  0.4734  0.0856 -0.0871
 3724SOL    HW112071   2.479   4.789   1.110 -0.4494  1.8632  0.1546
 3724SOL    HW212072   2.531   4.711   1.244 -1.4942 -0.3763 -0.6943
 3725SOL     OW12073   0.705   6.603   6.898  0.0454  0.2521 -0.3877
 3725SOL    HW112074   0.611   6.595   6.931 -0.0527  1.2853 -0.3876
 3725SOL    HW212075   0.748   6.513   6.898 -0.3550  0.0243  1.3416
 3726SOL     OW12076   5.293   4.238   4.121  0.1947  0.1538 -0.5046
 3726SOL    HW112077   5.207   4.187   4.120  0.9994 -1.2480 -0.3948
 3726SOL    HW212078   5.293   4.305   4.046 -0.6733 -0.3760 -0.9941
 3727SOL     OW12079   0.507   1.440   4.725  0.2019 -0.0239  0.0187
 3727SOL    HW112080   0.585   1.502   4.725  0.7298 -0.6828  0.4167
 3727SOL    HW212081   0.436   1.476   4.787 -0.1616  0.9812 -0.9367
 3728SOL     OW12082   2.396   2.074   6.473 -0.0218 -0.4318  0.4134
 3728SOL    HW112083   2.372   2.040   6.383 -1.0745  0.5822  0.2927
 3728SOL    HW212084   2.398   2.174   6.472 -1.7832 -0.3274  1.9116
 3729SOL     OW12085   0.775   1.979   5.376 -0.5174 -0.0060  0.0639
 3729SOL    HW112086   0.870   2.003   5.399 -0.1759 -0.8911 -0.3839
 3729SOL    HW212087   0.726   2.061   5.347  0.6397  0.1808 -1.5076
 3730SOL     OW12088   5.606   6.371   5.006  0.2987 -0.5201 -0.1143
 3730SOL    HW112089   5.631   6.282   4.969 -0.3252 -1.0971  0.7992
 3730SOL    HW212090   5.524   6.405   4.961 -0.1149 -0.9453  0.2996
 3731SOL     OW12091   0.638   0.175   0.061 -0.0288  0.0213 -0.4814
 3731SOL    HW112092   0.673   0.111   0.131 -0.7791 -1.1633 -1.1605
 3731SOL    HW212093   0.622   0.125  -0.024 -0.2632  1.2198 -1.1553
 3732SOL     OW12094   1.089   2.069   2.661 -0.5056 -0.1257  0.3509
 3732SOL    HW112095   1.039   2.147   2.698 -0.4832  0.3719 -0.6389
 3732SOL    HW212096   1.168   2.102   2.608 -0.6308 -0.7995 -0.2736
 3733SOL     OW12097   2.478   1.492   2.185 -0.0764 -0.2374 -0.5231
 3733SOL    HW112098   2.534   1.552   2.243 -1.4823  2.3819 -1.7412
 3733SOL    HW212099   2.454   1.410   2.237  1.7701  0.2625  1.2804
 3734SOL     OW12100   4.519   1.627   0.481 -0.1745 -0.4737  0.4372
 3734SOL    HW112101   4.528   1.536   0.521 -0.8219 -0.9356 -0.4189
 3734SOL    HW212102   4.439   1.672   0.520 -0.3026 -0.5837  0.3052
 3735SOL     OW12103   4.377   6.367   1.901  0.4709 -0.1190 -0.4476
 3735SOL    HW112104   4.353   6.456   1.940 -1.6245 -0.6489 -0.4394
 3735SOL    HW212105   4.356   6.366   1.804  0.8356 -0.5025 -0.5284
 3736SOL     OW12106   5.533   6.936   0.407 -0.0441 -0.5423 -0.1123
 3736SOL    HW112107   5.580   7.017   0.373 -1.5848  0.8074  0.8330
 3736SOL    HW212108   5.449   6.921   0.355  0.0870 -1.3937 -0.1075
 3737SOL     OW12109   4.710   4.259   4.326 -0.3192 -0.2430 -0.0360
 3737SOL    HW112110   4.805   4.231   4.342  0.2066  1.0270 -0.7936
 3737SOL    HW212111   4.660   4.184   4.283  1.0757 -0.0270 -2.1638
 3738SOL     OW12112   6.118   5.442   1.896  0.4774  0.4292  0.1982
 3738SOL    HW112113   6.153   5.505   1.966  0.3681  1.4832 -0.6760
 3738SOL    HW212114   6.124   5.348   1.931  0.5744  0.9096  1.5590
 3739SOL     OW12115   3.348   4.191   1.573 -0.3159  0.3751  0.3708
 3739SOL    HW112116   3.359   4.289   1.593 -1.0869  0.2164  1.6872
 3739SOL    HW212117   3.310   4.145   1.653  0.1872 -1.0463 -0.1824
 3740SOL     OW12118   5.698   6.053   5.751  0.3293  0.9279 -0.0243
 3740SOL    HW112119   5.626   6.052   5.820  0.6445  1.0771  0.3069
 3740SOL    HW212120   5.687   5.974   5.690  0.4000  0.4671  0.5539
 3741SOL     OW12121   4.437   1.662   1.760  0.1394  0.2326 -0.2429
 3741SOL    HW112122   4.416   1.759   1.778  3.0675  1.1273 -1.0038
 3741SOL    HW212123   4.438   1.646   1.662 -2.2951 -1.1631 -0.1073
 3742SOL     OW12124   6.348   5.551   6.545 -1.2057  0.0179 -0.2255
 3742SOL    HW112125   6.278   5.618   6.521 -0.3475  0.9670 -0.1765
 3742SOL    HW212126   6.430   5.599   6.579 -0.8688 -1.0910  0.6092
 3743SOL     OW12127   4.295   3.835   1.453 -0.5127 -0.2910 -0.0225
 3743SOL    HW112128   4.290   3.851   1.551  1.3841  3.2816 -0.3370
 3743SOL    HW212129   4.388   3.852   1.420 -1.1899 -0.8649 -2.5075
 3744SOL     OW12130   0.913   6.836   2.902 -0.2055  0.0490  0.6415
 3744SOL    HW112131   1.006   6.810   2.926  0.8333  0.8761 -2.1214
 3744SOL    HW212132   0.853   6.824   2.981  2.2256 -0.4751  2.4995
 3745SOL     OW12133   4.947   2.988   1.844 -0.0624  0.4395  0.2510
 3745SOL    HW112134   4.872   3.014   1.906 -2.8869 -1.3016 -2.1592
 3745SOL    HW212135   4.944   2.889   1.829  1.4411  0.6151 -1.5111
 3746SOL     OW12136   0.451   6.420   4.002 -0.7686  0.0352  0.0621
 3746SOL    HW112137   0.375   6.455   3.947 -0.4841 -0.0200 -0.3630
 3746SOL    HW212138   0.516   6.494   4.020 -0.3406 -0.1846 -0.5483
 3747SOL     OW12139   4.268   0.346   5.174  0.0177 -0.5559 -0.0898
 3747SOL    HW112140   4.316   0.259   5.169  0.1984 -0.4211 -0.7060
 3747SOL    HW212141   4.182   0.334   5.225 -1.0059 -1.5809 -1.9666
 3748SOL     OW12142   6.903   2.513   1.530 -0.6709  0.1442 -0.2667
 3748SOL    HW112143   6.917   2.592   1.590  1.4429 -0.4236  0.0961
 3748SOL    HW212144   6.958   2.524   1.447 -1.5758 -0.2513 -0.9356
 3749SOL     OW12145   0.599   3.538   4.111  0.1724 -0.5791  0.1907
 3749SOL    HW112146   0.562   3.558   4.201  0.6846 -0.9717  0.4978
 3749SOL    HW212147   0.678   3.477   4.120  0.1060 -0.7901 -0.5363
 3750SOL     OW12148   0.024   3.761   1.142  0.4807 -0.2234  0.4384
 3750SOL    HW112149  -0.059   3.780   1.090  0.0832 -1.0324  0.7609
 3750SOL    HW212150   0.100   3.746   1.079  0.3942  0.5420  0.1437
 3751SOL     OW12151   1.937   3.876   0.423  0.0710  0.6143  0.1242
 3751SOL    HW112152   1.934   3.807   0.496  2.2916 -1.1855 -1.3341
 3751SOL    HW212153   1.942   3.830   0.334  4.0087  2.4812 -0.8318
 3752SOL     OW12154   0.492   6.251   0.033 -0.4431 -0.1964 -0.2941
 3752SOL    HW112155   0.464   6.203  -0.051 -0.5654  0.7974 -0.8431
 3752SOL    HW212156   0.496   6.349   0.015  1.7672 -0.1370  0.2317
 3753SOL     OW12157   6.800   6.106   3.740  0.5514 -0.1647  0.4887
 3753SOL    HW112158   6.872   6.169   3.711  1.2831 -1.5141 -0.8231
 3753SOL    HW212159   6.788   6.112   3.839  1.6881  0.8862  0.5918
 3754SOL     OW12160   6.546   6.756   1.250 -0.5810 -0.0440  0.0356
 3754SOL    HW112161   6.458   6.803   1.257 -1.2599 -1.3544  0.5761
 3754SOL    HW212162   6.570   6.745   1.154 -0.5771  1.0516 -0.1109
 3755SOL     OW12163   5.441   5.373   3.416  0.0214  0.2957  0.2724
 3755SOL    HW112164   5.397   5.457   3.450  0.6416 -0.0588  2.0885
 3755SOL    HW212165   5.536   5.371   3.448  0.8143  0.1401 -1.9801
 3756SOL     OW12166   1.220   2.015   6.447  0.0897  0.1408 -0.2729
 3756SOL    HW112167   1.173   2.084   6.392 -0.3284  0.0409 -0.0421
 3756SOL    HW212168   1.180   2.011   6.538 -2.3473 -2.8654 -1.2920
 3757SOL     OW12169   3.793   0.113   4.213 -0.2598 -0.3277 -0.3286
 3757SOL    HW112170   3.729   0.119   4.136  0.3645 -1.2037 -0.9326
 3757SOL    HW212171   3.874   0.169   4.195  0.0701 -0.8548 -0.4921
 3758SOL     OW12172   7.017   2.027   5.547  0.2324  0.5740  0.1117
 3758SOL    HW112173   7.041   2.077   5.464  1.1137  0.2606  0.1701
 3758SOL    HW212174   6.933   1.975   5.531  0.4201  0.4775 -0.6008
 3759SOL     OW12175   5.248   5.060   3.892 -0.0094 -0.1690  0.0190
 3759SOL    HW112176   5.273   5.144   3.843 -0.5463  0.0933  0.1780
 3759SOL    HW212177   5.205   5.085   3.979  0.4408 -0.6246  0.3724
 3760SOL     OW12178   0.768   3.476   5.487  0.3865  0.5519  0.5512
 3760SOL    HW112179   0.730   3.515   5.570  0.2405 -0.0287  0.7635
 3760SOL    HW212180   0.859   3.438   5.506 -0.2679 -0.9394  0.8251
 3761SOL     OW12181   0.327   2.007   5.651  0.2186 -0.0819 -0.2741
 3761SOL    HW112182   0.346   1.969   5.561  2.1721 -1.8528  0.7914
 3761SOL    HW212183   0.258   1.952   5.697 -0.1611  0.3232 -0.3460
 3762SOL     OW12184   5.855   4.124   5.903 -0.2648 -0.1770 -0.2934
 3762SOL    HW112185   5.824   4.184   5.829 -0.2506  0.1328 -0.0480
 3762SOL    HW212186   5.782   4.114   5.971  0.6015  1.6922  1.0098
 3763SOL     OW12187   6.701   4.986   6.515 -0.1743 -0.1968 -0.4040
 3763SOL    HW112188   6.698   4.899   6.566 -2.4183  0.6792  1.1379
 3763SOL    HW212189   6.641   4.980   6.436 -0.7504  0.0995  0.0044
 3764SOL     OW12190   3.047   1.145   4.602 -0.2695  0.0748 -0.0156
 3764SOL    HW112191   2.982   1.123   4.676  0.0271 -0.7399  0.0039
 3764SOL    HW212192   3.001   1.202   4.534 -0.9999 -0.4614  0.0187
 3765SOL     OW12193   4.514   0.747   2.314 -0.2248  0.3490 -0.7279
 3765SOL    HW112194   4.525   0.771   2.410  1.3117  1.0576 -1.0489
 3765SOL    HW212195   4.417   0.747   2.290 -0.6321  0.0144  0.8473
 3766SOL     OW12196   2.091   0.053   3.461  0.2224 -0.0687 -0.1654
 3766SOL    HW112197   2.152   0.090   3.531 -0.1821 -0.7527  0.5699
 3766SOL    HW212198   2.145   0.019   3.384  0.9367 -2.2172  1.2070
 3767SOL     OW12199   2.137   3.127   0.345  0.0860 -0.9648 -0.0564
 3767SOL    HW112200   2.040   3.126   0.370  0.4915 -2.2255  1.6875
 3767SOL    HW212201   2.188   3.068   0.408  2.2097  0.7397 -0.0696
 3768SOL     OW12202   3.487   6.802   4.853  0.2554  0.1372  0.2203
 3768SOL    HW112203   3.436   6.716   4.865  0.2238  0.3142  1.4433
 3768SOL    HW212204   3.476   6.859   4.934  2.5908  0.0920  0.6247
 3769SOL     OW12205   5.320   5.733   0.982 -0.2549  0.2099 -0.0477
 3769SOL    HW112206   5.272   5.701   0.900 -0.7056 -0.3146  0.4102
 3769SOL    HW212207   5.276   5.815   1.017 -2.6053 -1.6993  1.9038
 3770SOL     OW12208   2.327   0.909   0.555  0.1749 -0.9353  0.3421
 3770SOL    HW112209   2.356   1.000   0.586 -0.6157 -0.8527  0.8584
 3770SOL    HW212210   2.232   0.912   0.525 -0.0417 -1.7050  0.9023
 3771SOL     OW12211   5.818   1.710   0.740 -0.0028 -0.7297  0.7379
 3771SOL    HW112212   5.914   1.738   0.748 -0.1230  0.4459 -1.3418
 3771SOL    HW212213   5.760   1.775   0.790  0.1851 -0.7172  0.9411
 3772SOL     OW12214   6.248   0.461   0.974 -0.6925 -0.6784 -0.6137
 3772SOL    HW112215   6.151   0.457   0.999 -1.1985  0.2030 -2.2307
 3772SOL    HW212216   6.292   0.538   1.021 -0.3488 -2.0249  1.3504
 3773SOL     OW12217   4.908   4.623   0.063 -0.4850 -0.3981 -0.1204
 3773SOL    HW112218   4.915   4.645  -0.034  0.1181  0.5882  0.1340
 3773SOL    HW212219   4.999   4.628   0.105 -0.9511  0.7028  0.7999
 3774SOL     OW12220   0.915   0.662   6.914  0.5019  0.0808  0.1070
 3774SOL    HW112221   1.004   0.707   6.914  0.9314 -0.7494  0.2094
 3774SOL    HW212222   0.849   0.718   6.964  1.3612 -0.0228  1.4137
 3775SOL     OW12223   6.584   3.788   1.457 -0.4330 -0.5384  0.1330
 3775SOL    HW112224   6.535   3.784   1.545 -1.6038 -0.5808 -0.5033
 3775SOL    HW212225   6.518   3.793   1.383  0.5025  2.1896 -0.6390
 3776SOL     OW12226   2.494   0.957   0.936 -0.1339  0.1919 -0.0133
 3776SOL    HW112227   2.514   1.055   0.932 -3.5444  1.1110  1.6833
 3776SOL    HW212228   2.579   0.906   0.945  1.7158  3.0247 -0.2256
 3777SOL     OW12229   1.500   4.614   4.932  0.0249  0.2206  0.7475
 3777SOL    HW112230   1.571   4.642   4.868  0.4582 -0.6472  0.8472
 3777SOL    HW212231   1.450   4.536   4.895  1.5820 -1.6240  2.2956
 3778SOL     OW12232   1.865   0.339   1.781  0.1841 -0.0856 -0.3281
 3778SOL    HW112233   1.799   0.353   1.708 -1.0946 -0.1953  0.7730
 3778SOL    HW212234   1.957   0.357   1.746 -0.4015  0.0535 -1.8942
 3779SOL     OW12235   3.768   4.011   0.700 -0.3704 -0.0523  0.2504
 3779SOL    HW112236   3.836   3.957   0.650 -0.2219 -0.7667  1.2113
 3779SOL    HW212237   3.807   4.100   0.722 -0.6051  0.4715 -1.3120
 3780SOL     OW12238   5.554   5.360   4.760 -0.3176  0.1290 -0.1012
 3780SOL    HW112239   5.548   5.314   4.671  0.2052 -0.3468  0.1019
 3780SOL    HW212240   5.463   5.388   4.789 -0.5923 -0.4112 -0.4267
 3781SOL     OW12241   0.954   6.926   3.639  0.2044  0.5539  0.4467
 3781SOL    HW112242   0.960   6.920   3.739 -2.5604  2.2393  0.8166
 3781SOL    HW212243   1.043   6.905   3.599  1.3693 -0.2763  3.2407
 3782SOL     OW12244   1.145   3.183   4.069  0.5010  0.2118  0.3045
 3782SOL    HW112245   1.155   3.280   4.090 -1.8011  0.8519 -1.2355
 3782SOL    HW212246   1.190   3.163   3.982  1.0231 -0.1276  0.6486
 3783SOL     OW12247   0.005   5.898   4.105  0.7214  0.5781 -0.1467
 3783SOL    HW112248  -0.074   5.922   4.162  0.3807 -1.9392  0.5663
 3783SOL    HW212249   0.087   5.940   4.142  0.3529 -0.2285  1.6563
 3784SOL     OW12250   4.755   1.638   4.563  0.1951 -0.5176  0.2320
 3784SOL    HW112251   4.795   1.729   4.553  0.5942 -0.3006  3.0244
 3784SOL    HW212252   4.773   1.585   4.480  0.3715  1.7552 -1.2624
 3785SOL     OW12253   1.582   1.787   0.697  0.0611 -0.0664  0.4452
 3785SOL    HW112254   1.532   1.729   0.632 -0.1382  0.9672 -0.3503
 3785SOL    HW212255   1.672   1.747   0.714 -0.1574 -0.7370  0.1081
 3786SOL     OW12256   1.646   5.354   2.595 -0.3516 -0.0471 -0.1123
 3786SOL    HW112257   1.558   5.402   2.592  0.3019  1.1646 -0.1161
 3786SOL    HW212258   1.719   5.416   2.567  0.2792 -1.6047 -2.1642
 3787SOL     OW12259   6.174   0.594   4.193  0.5888 -0.5925 -0.1370
 3787SOL    HW112260   6.163   0.495   4.186  0.4793 -0.6494  0.7842
 3787SOL    HW212261   6.264   0.620   4.159  0.4933 -0.9681 -0.6911
 3788SOL     OW12262   6.521   6.160   3.675 -0.2022  0.1331 -0.7175
 3788SOL    HW112263   6.498   6.083   3.615 -0.3445  0.0279 -0.5326
 3788SOL    HW212264   6.616   6.152   3.704  0.1398  0.6754 -1.6415
 3789SOL     OW12265   2.849   4.965   5.562 -0.3724 -0.4166 -0.4368
 3789SOL    HW112266   2.844   4.868   5.587 -1.9503 -0.1275  0.4744
 3789SOL    HW212267   2.786   5.018   5.619  1.4127  1.3666 -0.0226
 3790SOL     OW12268   2.591   5.719   5.533  0.0212  0.3185  0.1909
 3790SOL    HW112269   2.575   5.816   5.517 -0.6115  0.8280  3.2784
 3790SOL    HW212270   2.589   5.700   5.631  3.9385 -2.1770  0.0049
 3791SOL     OW12271   5.102   5.882   0.792  0.1217  0.1945  0.5011
 3791SOL    HW112272   5.164   5.840   0.726  0.1216 -0.9420  1.1931
 3791SOL    HW212273   5.154   5.921   0.867  0.1802  2.2660 -0.5430
 3792SOL     OW12274   1.045   6.157   3.966  0.1444 -0.3412 -0.1172
 3792SOL    HW112275   0.979   6.231   3.954  0.6682 -0.0211 -1.1259
 3792SOL    HW212276   1.116   6.186   4.030 -0.5187 -0.5770  0.7387
 3793SOL     OW12277   2.683   0.769   3.007 -0.4120 -0.5373 -0.4159
 3793SOL    HW112278   2.648   0.735   2.920  0.9400 -1.6907 -0.5560
 3793SOL    HW212279   2.774   0.730   3.023  0.1447  1.1139  0.6434
 3794SOL     OW12280   3.805   6.734   0.847  0.3600 -0.0234  0.3184
 3794SOL    HW112281   3.807   6.713   0.945  0.2975 -2.0535 -0.0729
 3794SOL    HW212282   3.873   6.679   0.800 -0.0424  0.4637 -0.8713
 3795SOL     OW12283   4.502   6.936   6.110  0.2456 -0.4614 -0.3796
 3795SOL    HW112284   4.542   6.887   6.188 -0.5492  0.5577  0.7047
 3795SOL    HW212285   4.446   7.011   6.144  0.7315  0.6638 -1.9820
 3796SOL     OW12286   1.107   3.057   3.701 -0.0428  0.3896 -0.6116
 3796SOL    HW112287   1.178   3.044   3.770  0.4663 -0.8908 -1.3335
 3796SOL    HW212288   1.143   3.115   3.628 -0.4703  1.4692  0.0099
 3797SOL     OW12289   5.916   5.611   4.465 -0.2813 -0.3422 -0.2262
 3797SOL    HW112290   5.832   5.558   4.463 -0.9934  0.5655  2.3236
 3797SOL    HW212291   5.983   5.566   4.524  0.4232 -0.1568 -0.8502
 3798SOL     OW12292   2.287   5.218   1.531 -0.5737 -0.4510  0.1081
 3798SOL    HW112293   2.285   5.123   1.562 -1.4556 -0.1668  0.9716
 3798SOL    HW212294   2.195   5.248   1.507 -0.3904  0.3331  0.3260
 3799SOL     OW12295   0.184   3.707   4.223 -0.0491 -1.1233 -0.2797
 3799SOL    HW112296   0.107   3.709   4.159  0.0998 -1.0333 -0.4560
 3799SOL    HW212297   0.246   3.783   4.204  1.3334 -2.5456 -1.6912
 3800SOL     OW12298   4.303   2.311   6.800 -0.3872  0.0010  0.2094
 3800SOL    HW112299   4.349   2.336   6.885 -1.2550 -1.4213  1.1564
 3800SOL    HW212300   4.311   2.385   6.733  1.4555  0.6088  1.0572
 3801SOL     OW12301   4.675   4.313   5.347  0.0510 -0.7696  0.0701
 3801SOL    HW112302   4.722   4.337   5.433  1.0597  1.2374 -0.9695
 3801SOL    HW212303   4.576   4.318   5.362  0.1774 -1.6631  1.4156
 3802SOL     OW12304   2.170   2.522   4.525 -0.4855 -0.2631 -0.5815
 3802SOL    HW112305   2.088   2.537   4.579  0.1465 -4.1099  1.8321
 3802SOL    HW212306   2.150   2.459   4.449  0.1849 -1.2855  0.0659
 3803SOL     OW12307   4.137   1.589   3.221 -0.2781  0.0906 -0.2203
 3803SOL    HW112308   4.176   1.607   3.131  1.9579 -1.5300  0.3259
 3803SOL    HW212309   4.144   1.671   3.278 -1.1030  0.9190 -1.2932
 3804SOL     OW12310   5.024   2.264   4.027 -0.2162  0.5667  0.0956
 3804SOL    HW112311   4.954   2.192   4.028 -0.9459  1.2592 -0.2372
 3804SOL    HW212312   5.041   2.291   3.933 -1.4046  2.2061  0.3092
 3805SOL     OW12313   2.574   3.755   0.529  0.4461  0.3354  0.6616
 3805SOL    HW112314   2.650   3.778   0.589  0.6729  1.1033  0.0961
 3805SOL    HW212315   2.572   3.818   0.452 -1.0550  0.6216  0.9030
 3806SOL     OW12316   1.837   1.169   6.282 -0.0401 -0.0955  0.5768
 3806SOL    HW112317   1.823   1.237   6.354  1.0304  0.4533  0.2813
 3806SOL    HW212318   1.880   1.212   6.203  0.7693 -1.1296  0.4257
 3807SOL     OW12319   2.510   1.362   4.609 -0.0656 -0.1449 -0.3884
 3807SOL    HW112320   2.549   1.447   4.645  0.2291 -0.6724  0.5881
 3807SOL    HW212321   2.549   1.284   4.659 -0.4773 -0.8417 -1.1361
 3808SOL     OW12322   4.119   2.050   1.835  0.0100  0.0106 -0.7962
 3808SOL    HW112323   4.064   2.032   1.916  0.2268  0.0469 -0.6432
 3808SOL    HW212324   4.110   2.146   1.809  3.1585  1.1316  1.6007
 3809SOL     OW12325   5.092   1.018   6.913 -0.5069 -0.4592 -0.0692
 3809SOL    HW112326   5.044   0.932   6.932 -3.2760  0.9592 -0.1594
 3809SOL    HW212327   5.167   1.000   6.849 -1.5310 -2.7001 -0.7710
 3810SOL     OW12328   4.591   2.593   6.130 -0.2264  0.4448  0.5750
 3810SOL    HW112329   4.521   2.538   6.085  2.5867 -1.4086 -1.9773
 3810SOL    HW212330   4.594   2.684   6.089  0.2385 -0.2014 -0.8967
 3811SOL     OW12331   6.878   5.269   4.146  0.4687  0.4138 -0.3429
 3811SOL    HW112332   6.960   5.320   4.171  0.1247  1.0873 -0.5594
 3811SOL    HW212333   6.896   5.171   4.152  1.9154  0.4944 -2.2466
 3812SOL     OW12334   5.823   0.209   4.371  0.0644 -0.3205  0.4003
 3812SOL    HW112335   5.854   0.303   4.382  1.7957 -0.9488  1.1581
 3812SOL    HW212336   5.763   0.203   4.290  1.0455  1.1547 -0.4876
 3813SOL     OW12337   4.407   4.666   3.140 -0.7029 -0.4676 -0.0771
 3813SOL    HW112338   4.399   4.745   3.080  2.2312  0.8654  1.0940
 3813SOL    HW212339   4.317   4.643   3.177 -1.5350  3.2663  0.6651
 3814SOL     OW12340   0.760   6.752   6.531 -0.0095  0.4089 -0.3143
 3814SOL    HW112341   0.802   6.814   6.598  0.1857  1.7233 -1.5787
 3814SOL    HW212342   0.722   6.806   6.456 -0.8684 -0.9746 -0.9114
 3815SOL     OW12343   5.702   1.626   0.525 -0.1941  0.2042  0.1302
 3815SOL    HW112344   5.742   1.650   0.613  1.1781 -1.5825  0.0374
 3815SOL    HW212345   5.765   1.650   0.451  1.0584 -2.9649  0.0052
 3816SOL     OW12346   0.128   6.922   2.787 -0.1369  0.3204  0.6124
 3816SOL    HW112347   0.201   6.870   2.831 -0.1587  0.1741  0.4781
 3816SOL    HW212348   0.061   6.859   2.748  0.4878  0.4016 -0.6659
 3817SOL     OW12349   4.650   2.521   2.567 -0.3839 -0.1325  0.8824
 3817SOL    HW112350   4.741   2.551   2.598 -0.7110  0.6672  1.1064
 3817SOL    HW212351   4.658   2.432   2.523  0.9688  1.1224 -1.6022
 3818SOL     OW12352   4.245   5.768   2.529 -0.4199  0.2607 -0.1008
 3818SOL    HW112353   4.236   5.681   2.482 -0.2664  0.0187  0.3130
 3818SOL    HW212354   4.325   5.765   2.590 -1.1482  0.2409  0.8808
 3819SOL     OW12355   5.482   5.586   5.690 -0.1570  0.2561 -0.8261
 3819SOL    HW112356   5.538   5.652   5.640  2.2445 -1.5276 -0.6842
 3819SOL    HW212357   5.504   5.592   5.788 -0.0750 -0.5477 -0.7861
 3820SOL     OW12358   5.893   6.393   3.936 -0.1016  0.2048  0.1769
 3820SOL    HW112359   5.856   6.351   4.019 -0.1660 -0.9902 -0.4274
 3820SOL    HW212360   5.993   6.395   3.942 -0.1337  0.7958  0.5873
 3821SOL     OW12361   0.868   3.734   2.004 -0.9458 -0.2187  0.6547
 3821SOL    HW112362   0.946   3.753   2.063 -0.7608 -0.4403  0.4826
 3821SOL    HW212363   0.788   3.784   2.038 -0.3059  1.4679 -0.2290
 3822SOL     OW12364   2.800   6.795   0.118 -0.0461 -0.0249 -0.9627
 3822SOL    HW112365   2.844   6.736   0.050 -1.9764 -1.7678 -0.8267
 3822SOL    HW212366   2.707   6.816   0.087  0.3757  2.4808 -0.6820
 3823SOL     OW12367   2.770   1.141   6.611  0.1494  0.0193 -0.2011
 3823SOL    HW112368   2.671   1.145   6.597  0.1876  4.8321 -0.6720
 3823SOL    HW212369   2.814   1.105   6.528 -1.1019  0.7899 -1.2358
 3824SOL     OW12370   0.042   0.585   4.869  0.0344 -0.3971  0.3646
 3824SOL    HW112371   0.052   0.649   4.792 -0.6676 -1.5173 -0.6854
 3824SOL    HW212372   0.126   0.585   4.923  0.1311  1.2495  0.2860
 3825SOL     OW12373   4.658   6.785   1.657  0.0155  0.0007 -0.0361
 3825SOL    HW112374   4.606   6.869   1.672  1.7311  0.9816  0.6409
 3825SOL    HW212375   4.614   6.709   1.705 -0.7689  0.8085  0.5446
 3826SOL     OW12376   0.443   2.264   1.996  0.3521 -0.1344  1.3696
 3826SOL    HW112377   0.373   2.192   1.985  0.2998 -0.0075  0.8503
 3826SOL    HW212378   0.412   2.347   1.951  1.1242 -0.2683  0.5713
 3827SOL     OW12379   4.689   5.390   0.317  0.2574  0.2203  0.2842
 3827SOL    HW112380   4.721   5.477   0.279 -0.5984  1.1966  1.6747
 3827SOL    HW212381   4.613   5.356   0.262  0.0442  0.8016  0.2089
 3828SOL     OW12382   4.935   1.983   0.036  0.2722 -0.6323 -0.7410
 3828SOL    HW112383   4.895   1.984  -0.056 -1.5423  0.1715  0.0066
 3828SOL    HW212384   4.905   2.064   0.086  1.3322 -0.9915  0.5450
 3829SOL     OW12385   1.403   4.648   2.840 -0.5351 -0.4179  0.8905
 3829SOL    HW112386   1.345   4.577   2.802 -0.0976 -0.2726 -0.0922
 3829SOL    HW212387   1.485   4.657   2.784 -1.7603  2.6361 -0.6562
 3830SOL     OW12388   0.565   6.496   5.651 -0.0517  0.6081 -0.4802
 3830SOL    HW112389   0.644   6.437   5.669  0.4326  0.8049 -1.8693
 3830SOL    HW212390   0.594   6.592   5.652 -0.9341  0.9250  2.2830
 3831SOL     OW12391   4.199   2.332   4.079 -0.4290  0.4814  0.6033
 3831SOL    HW112392   4.225   2.339   3.983  2.2938 -0.2358  1.2109
 3831SOL    HW212393   4.242   2.406   4.131  1.5731 -1.4164  1.8406
 3832SOL     OW12394   5.406   2.711   1.942 -0.4307 -0.4402  0.1113
 3832SOL    HW112395   5.408   2.619   1.981 -0.1942 -1.5745 -2.3595
 3832SOL    HW212396   5.500   2.745   1.932 -0.4259 -0.6221 -0.4746
 3833SOL     OW12397   0.074   4.560   0.946  0.2458  0.6470  0.1447
 3833SOL    HW112398  -0.017   4.521   0.956 -0.3422  1.6463 -1.0281
 3833SOL    HW212399   0.122   4.556   1.034  0.0998 -2.2833  0.1817
 3834SOL     OW12400   6.530   0.906   6.578 -0.4375  0.5764 -0.0673
 3834SOL    HW112401   6.574   0.992   6.605  2.6528 -0.8986  0.1020
 3834SOL    HW212402   6.511   0.851   6.659 -0.7149  0.3676 -0.2705
 3835SOL     OW12403   3.719   5.680   6.568  0.1737 -0.8871  0.2522
 3835SOL    HW112404   3.631   5.712   6.603  0.3810 -0.1874  0.1389
 3835SOL    HW212405   3.742   5.592   6.610 -0.2671 -0.7523  0.7772
 3836SOL     OW12406   2.140   4.562   6.365  0.2052 -0.1423  0.6109
 3836SOL    HW112407   2.146   4.651   6.321  0.7068  0.1433  1.2339
 3836SOL    HW212408   2.217   4.551   6.429  0.4129 -1.2099  0.2032
 3837SOL     OW12409   4.430   1.433   5.493  0.8037 -0.2826  0.4798
 3837SOL    HW112410   4.489   1.448   5.572  1.4824 -3.0129  0.5759
 3837SOL    HW212411   4.424   1.518   5.440  4.6005  0.2596  0.6003
 3838SOL     OW12412   6.129   2.804   3.551  0.5817  1.0315  0.4096
 3838SOL    HW112413   6.051   2.812   3.613 -1.9492  0.5340 -2.4936
 3838SOL    HW212414   6.200   2.868   3.579 -1.3232  2.4062  2.4748
 3839SOL     OW12415   4.552   5.975   4.381  0.2519 -0.8526 -0.0414
 3839SOL    HW112416   4.464   6.013   4.355  0.1085 -0.1265  1.4115
 3839SOL    HW212417   4.616   5.982   4.304 -0.8608 -1.1700 -1.0288
 3840SOL     OW12418   1.349   2.548   3.817 -0.2928  0.4356  0.1181
 3840SOL    HW112419   1.422   2.508   3.761 -1.5833 -0.9945 -0.6232
 3840SOL    HW212420   1.389   2.612   3.882  1.9278 -1.9466  1.3055
 3841SOL     OW12421   0.331   3.090   3.170  0.2053 -0.0227  0.3834
 3841SOL    HW112422   0.271   3.170   3.169  1.9195  1.3343 -1.4668
 3841SOL    HW212423   0.399   3.099   3.241  0.8630  0.5604 -0.3079
 3842SOL     OW12424   2.168   6.206   0.776  0.3365  0.1274 -0.3371
 3842SOL    HW112425   2.183   6.250   0.865 -3.0730  0.9614 -0.0296
 3842SOL    HW212426   2.145   6.110   0.790 -0.8890  0.4201 -0.1826
 3843SOL     OW12427   6.725   4.126   0.157  0.0777  0.0889  0.7201
 3843SOL    HW112428   6.649   4.079   0.113  1.1320  0.4692 -1.6782
 3843SOL    HW212429   6.785   4.058   0.200 -0.2725 -0.4370  0.3979
 3844SOL     OW12430   6.945   6.119   5.644 -0.0816  0.0476 -0.0257
 3844SOL    HW112431   6.868   6.105   5.582  0.7443 -0.6946 -0.9303
 3844SOL    HW212432   6.936   6.207   5.691 -0.7030  0.6605 -1.2573
 3845SOL     OW12433   2.652   3.473   0.814 -0.3785  0.4372 -0.9930
 3845SOL    HW112434   2.674   3.416   0.894 -1.3842 -1.0302 -1.7027
 3845SOL    HW212435   2.564   3.518   0.829 -0.5303  0.2218 -1.2205
 3846SOL     OW12436   3.691   5.213   3.299 -0.4009  0.5542 -0.1862
 3846SOL    HW112437   3.704   5.300   3.346  1.3977  0.5322 -0.5787
 3846SOL    HW212438   3.622   5.159   3.347 -1.8036  2.3071 -0.1341
 3847SOL     OW12439   6.484   0.697   6.229  0.0532  0.3223 -0.5986
 3847SOL    HW112440   6.416   0.728   6.295 -0.9236 -1.9557 -0.4297
 3847SOL    HW212441   6.477   0.752   6.146 -2.5646 -0.2896 -0.8805
 3848SOL     OW12442   1.724   5.130   0.986 -0.1743  0.0398 -0.1928
 3848SOL    HW112443   1.777   5.199   1.035  0.5212 -0.2386 -0.5373
 3848SOL    HW212444   1.726   5.044   1.036 -1.0578  0.2570  0.2466
 3849SOL     OW12445   1.251   1.089   5.724  0.2500 -0.1854  0.2541
 3849SOL    HW112446   1.247   1.160   5.794 -0.5454  1.8718 -1.7429
 3849SOL    HW212447   1.346   1.067   5.704  0.4915 -1.2705  2.3305
 3850SOL     OW12448   5.447   1.668   0.637 -0.5569  0.0607 -0.1871
 3850SOL    HW112449   5.422   1.582   0.680 -0.2784  0.6772  1.2396
 3850SOL    HW212450   5.544   1.665   0.611 -0.2642  0.3328  0.8483
 3851SOL     OW12451   2.251   4.235   3.677 -0.3075  0.5787 -0.4929
 3851SOL    HW112452   2.167   4.183   3.661  0.3349 -0.4338 -0.6729
 3851SOL    HW212453   2.265   4.244   3.775  0.8255 -1.7689 -0.3600
 3852SOL     OW12454   4.605   0.094   5.858  0.4592  0.8478  0.2860
 3852SOL    HW112455   4.593  -0.001   5.828 -2.4754  1.2095  0.0403
 3852SOL    HW212456   4.573   0.156   5.787  2.6762  2.1190  0.2860
 3853SOL     OW12457   6.987   4.798   3.416  0.1825  0.1514 -0.4703
 3853SOL    HW112458   7.075   4.818   3.459 -0.4495 -0.1717  1.0745
 3853SOL    HW212459   6.963   4.702   3.431 -0.5425  0.2981 -0.6332
 3854SOL     OW12460   1.415   6.102   4.204 -0.4609 -0.0585 -0.5475
 3854SOL    HW112461   1.347   6.122   4.274  0.5240  4.6181 -0.5681
 3854SOL    HW212462   1.441   6.006   4.209 -3.2936 -0.8677  2.7878
 3855SOL     OW12463   5.317   4.195   0.303 -0.5345 -0.1669  0.1529
 3855SOL    HW112464   5.388   4.191   0.232  0.1527 -2.9154  0.8830
 3855SOL    HW212465   5.347   4.256   0.376  0.1619  0.2393 -0.4546
 3856SOL     OW12466   0.108   0.819   6.821 -0.3832  0.1017 -0.1445
 3856SOL    HW112467   0.104   0.796   6.919 -1.4921  0.8166  0.0051
 3856SOL    HW212468   0.182   0.769   6.778  0.1137 -0.2490  1.0644
 3857SOL     OW12469   6.672   5.895   4.870 -0.1297 -0.1542  0.1024
 3857SOL    HW112470   6.650   5.802   4.839  0.1592  0.0675 -0.8167
 3857SOL    HW212471   6.734   5.938   4.804  1.8736 -0.2214  1.8467
 3858SOL     OW12472   1.392   6.564   4.132 -0.2132  0.2302 -0.6088
 3858SOL    HW112473   1.396   6.650   4.182 -1.5921  1.2341 -2.1006
 3858SOL    HW212474   1.459   6.500   4.169  1.4035  2.2070  0.0503
 3859SOL     OW12475   6.614   2.284   3.448 -0.1318  0.3290 -0.3682
 3859SOL    HW112476   6.639   2.200   3.497  0.7095  0.5917 -0.3387
 3859SOL    HW212477   6.657   2.362   3.491 -0.3761  0.7081 -0.8013
 3860SOL     OW12478   1.298   4.166   5.605 -0.0766  0.3675  0.2949
 3860SOL    HW112479   1.393   4.156   5.634  0.2113  0.6595 -0.5023
 3860SOL    HW212480   1.267   4.259   5.623 -0.1258  0.3478  0.3133
 3861SOL     OW12481   0.106   4.625   1.869 -0.6524 -0.1711  0.7971
 3861SOL    HW112482   0.162   4.587   1.942  0.1723 -0.0829  0.2237
 3861SOL    HW212483   0.034   4.682   1.908  2.5219  3.7419  1.5095
 3862SOL     OW12484   1.398   6.331   0.128  0.6115  0.5312  0.2622
 3862SOL    HW112485   1.326   6.306   0.193  1.2732 -1.0738  0.3952
 3862SOL    HW212486   1.481   6.280   0.148  0.5301 -0.8078 -2.4742
 3863SOL     OW12487   3.254   1.944   1.601  0.2123  0.4247 -0.5531
 3863SOL    HW112488   3.323   1.880   1.568 -0.3256 -0.7722  0.5909
 3863SOL    HW212489   3.293   2.000   1.675  0.3783  0.7685 -0.8919
 3864SOL     OW12490   3.944   3.335   0.390 -0.4429 -0.3564 -0.4284
 3864SOL    HW112491   3.953   3.308   0.294  2.1505 -1.3484  0.0180
 3864SOL    HW212492   3.996   3.272   0.448 -2.4999 -0.2113  1.7567
 3865SOL     OW12493   5.903   6.109   3.862  0.3944  0.2411 -0.2164
 3865SOL    HW112494   5.855   6.193   3.887  0.2800  0.1301 -0.0602
 3865SOL    HW212495   5.904   6.046   3.940  0.4003  0.0605 -0.3604
 3866SOL     OW12496   3.748   0.406   0.839 -0.1889 -0.3687 -0.3033
 3866SOL    HW112497   3.817   0.365   0.779  1.6734  0.5545  1.1224
 3866SOL    HW212498   3.708   0.485   0.793  1.5162  0.5810 -0.2400
 3867SOL     OW12499   1.424   3.366   3.542  0.3811  0.2499  0.0839
 3867SOL    HW112500   1.480   3.404   3.615 -0.6818 -1.5605  1.9757
 3867SOL    HW212501   1.441   3.267   3.535 -0.7227  0.1063 -1.0256
 3868SOL     OW12502   0.731   5.551   0.208  0.1438 -0.0153  0.7449
 3868SOL    HW112503   0.750   5.623   0.140  2.3092 -1.0125  0.1993
 3868SOL    HW212504   0.646   5.504   0.184  0.1959  0.4924 -0.5614
 3869SOL     OW12505   6.214   3.326   2.858  0.2304 -0.3924  0.2358
 3869SOL    HW112506   6.178   3.356   2.769  0.0942  4.2612  1.5501
 3869SOL    HW212507   6.311   3.305   2.850 -0.0707 -1.3878 -1.1983
 3870SOL     OW12508   3.685   0.133   5.921 -0.3164  0.2043 -0.3384
 3870SOL    HW112509   3.766   0.076   5.936  0.2348  0.4511 -2.0653
 3870SOL    HW212510   3.619   0.116   5.993  0.4254 -1.5525  0.0026
 3871SOL     OW12511   3.926   2.109   2.110 -0.1367  0.0919 -0.0283
 3871SOL    HW112512   3.860   2.141   2.042  0.5064  0.0944 -0.6665
 3871SOL    HW212513   3.910   2.012   2.128 -0.4534  0.1450 -0.0099
 3872SOL     OW12514   5.091   1.636   1.671  0.0239 -0.3337 -0.0113
 3872SOL    HW112515   5.127   1.580   1.746  1.3070 -0.7664 -0.9223
 3872SOL    HW212516   4.991   1.637   1.677  0.0938  0.9423  2.6131
 3873SOL     OW12517   6.246   5.781   1.180  0.0733 -0.8169 -0.5399
 3873SOL    HW112518   6.269   5.826   1.266 -0.0515 -1.6789 -0.0377
 3873SOL    HW212519   6.289   5.830   1.104 -0.9819  0.7980 -0.1379
 3874SOL     OW12520   4.173   6.174   6.452 -0.1315  0.2872  0.0669
 3874SOL    HW112521   4.240   6.202   6.521  0.2433 -0.5276  0.0505
 3874SOL    HW212522   4.214   6.104   6.392 -1.6171 -1.7836  1.3307
 3875SOL     OW12523   1.020   4.519   1.244  0.2926  0.3554 -0.3513
 3875SOL    HW112524   0.972   4.472   1.170  0.0679  2.5853 -1.7284
 3875SOL    HW212525   0.957   4.533   1.321  0.1968 -0.9851 -0.1629
 3876SOL     OW12526   6.822   4.576   3.805  0.6960  0.5156 -0.0058
 3876SOL    HW112527   6.810   4.669   3.773  1.0747  0.4044 -0.4841
 3876SOL    HW212528   6.733   4.535   3.826  0.4386  0.5961 -0.9077
 3877SOL     OW12529   5.652   2.829   1.872 -0.5041  0.7089 -0.0245
 3877SOL    HW112530   5.731   2.890   1.879  0.7825 -0.9040 -0.0372
 3877SOL    HW212531   5.662   2.771   1.792 -2.0058  0.8494 -0.3446
 3878SOL     OW12532   6.320   6.492   7.018 -0.3010 -0.2231 -0.4594
 3878SOL    HW112533   6.357   6.407   7.054  0.3206 -0.1121 -0.8143
 3878SOL    HW212534   6.266   6.539   7.088  0.6739 -0.1335  0.2379
 3879SOL     OW12535   4.045   4.143   0.852  0.4466 -0.3323  0.1730
 3879SOL    HW112536   4.050   4.149   0.752  0.0384  0.0327  0.1690
 3879SOL    HW212537   4.027   4.234   0.890  0.5354 -0.4798  0.5748
 3880SOL     OW12538   5.130   3.469   2.582  0.4653  0.1333 -0.4665
 3880SOL    HW112539   5.164   3.400   2.646  0.8100  1.7872  1.2065
 3880SOL    HW212540   5.088   3.423   2.503  0.1390 -1.9768  0.8557
 3881SOL     OW12541   2.095   3.661   6.892  0.2781  0.4375 -0.2594
 3881SOL    HW112542   2.083   3.657   6.991 -2.1391 -0.0491 -0.5024
 3881SOL    HW212543   2.163   3.731   6.869 -0.2724  1.6746  1.6604
 3882SOL     OW12544   6.279   1.718   5.965 -0.2275 -0.5938 -0.1758
 3882SOL    HW112545   6.296   1.814   5.986 -0.4827 -0.6834  0.4673
 3882SOL    HW212546   6.362   1.677   5.929 -0.4182  0.1351 -1.5000
 3883SOL     OW12547   3.142   1.311   2.600  0.3623 -0.3609 -0.3739
 3883SOL    HW112548   3.073   1.254   2.555  0.2597 -0.4429 -0.1168
 3883SOL    HW212549   3.193   1.256   2.666 -0.0984 -0.0396  0.2659
 3884SOL     OW12550   0.661   5.198   6.654 -0.0006  0.0631 -0.9050
 3884SOL    HW112551   0.742   5.180   6.598  0.0179  0.1121 -0.8939
 3884SOL    HW212552   0.639   5.295   6.651  0.2747  0.1457 -0.4552
 3885SOL     OW12553   1.647   1.134   2.228 -0.4666  0.0017 -0.6617
 3885SOL    HW112554   1.679   1.141   2.133 -0.4523  0.3142 -0.6356
 3885SOL    HW212555   1.583   1.058   2.236 -0.8278  0.2568 -1.0289
 3886SOL     OW12556   7.014   6.832   5.366  0.2683 -0.3087 -0.3255
 3886SOL    HW112557   7.016   6.864   5.461  0.0058  1.0417 -0.7549
 3886SOL    HW212558   7.054   6.901   5.307  1.3080 -1.5436 -1.1199
 3887SOL     OW12559   2.198   2.983   0.130 -0.8032 -1.0583  0.4842
 3887SOL    HW112560   2.110   2.977   0.082  0.0129 -0.6725 -1.1116
 3887SOL    HW212561   2.188   3.041   0.210 -1.6808  0.1637 -0.4734
 3888SOL     OW12562   5.599   0.760   1.207 -0.4748 -0.0578  0.5617
 3888SOL    HW112563   5.538   0.809   1.269  0.0704  0.7496  0.4871
 3888SOL    HW212564   5.565   0.768   1.113 -0.2135  0.4883  0.5056
 3889SOL     OW12565   0.569   6.423   1.311 -0.5139  0.1916  0.3579
 3889SOL    HW112566   0.550   6.499   1.249  0.2543 -0.0072 -0.1345
 3889SOL    HW212567   0.609   6.458   1.395 -1.3680  0.4437  0.6646
 3890SOL     OW12568   4.046   4.881   2.999  0.1104 -0.3618  0.2023
 3890SOL    HW112569   3.967   4.906   2.943  0.4739  0.2385 -0.0554
 3890SOL    HW212570   4.068   4.956   3.061  0.0668 -0.7955  0.7445
 3891SOL     OW12571   6.703   6.760   4.920 -0.5645  0.0153  0.3735
 3891SOL    HW112572   6.797   6.740   4.948 -0.4233  0.2697  0.0931
 3891SOL    HW212573   6.657   6.675   4.894 -0.1514 -0.0246 -0.2713
 3892SOL     OW12574   5.072   6.167   2.254 -0.7333  0.6923  0.0892
 3892SOL    HW112575   5.141   6.157   2.326  1.1964 -3.3071 -1.9558
 3892SOL    HW212576   5.017   6.084   2.250 -1.9734  1.5482 -1.8932
 3893SOL     OW12577   4.911   5.204   7.013 -0.3027  0.1733 -0.2458
 3893SOL    HW112578   4.965   5.130   6.974 -1.6892 -1.8711  1.4690
 3893SOL    HW212579   4.814   5.185   7.000 -0.7134  1.1201  1.2057
 3894SOL     OW12580   3.716   3.765   0.883  0.6223  0.6534  0.1640
 3894SOL    HW112581   3.733   3.858   0.850  0.2935  0.5190 -0.4063
 3894SOL    HW212582   3.711   3.766   0.982  0.6039  1.2499  0.1651
 3895SOL     OW12583   1.173   2.103   5.236  0.4855  0.0019  0.1007
 3895SOL    HW112584   1.140   2.104   5.141  0.3785 -2.6954  0.0178
 3895SOL    HW212585   1.265   2.064   5.238  0.7929  0.7602  1.0526
 3896SOL     OW12586   0.075   0.878   2.503 -0.2780 -0.3934 -0.7081
 3896SOL    HW112587   0.049   0.951   2.566  0.8704 -0.6281  0.0784
 3896SOL    HW212588   0.162   0.900   2.460 -0.8713 -0.4100 -1.9606
 3897SOL     OW12589   3.848   6.851   1.637  0.1101  0.2649  0.6939
 3897SOL    HW112590   3.750   6.834   1.621 -0.0556 -0.8598  2.6544
 3897SOL    HW212591   3.876   6.809   1.723  2.8421 -1.3441 -0.8374
 3898SOL     OW12592   3.753   4.092   4.720 -0.2338  0.4066  0.3088
 3898SOL    HW112593   3.665   4.135   4.699 -0.6798 -0.9368 -0.6692
 3898SOL    HW212594   3.785   4.124   4.809 -1.7058  0.9104  0.6788
 3899SOL     OW12595   4.067   0.478   6.108 -0.7052  0.7138 -0.0590
 3899SOL    HW112596   4.000   0.552   6.108  0.3440  1.7262 -1.2876
 3899SOL    HW212597   4.022   0.392   6.082 -1.3374  1.6128 -2.1527
 3900SOL     OW12598   5.470   2.058   3.721  0.0835 -1.0767 -0.0865
 3900SOL    HW112599   5.521   1.989   3.669  0.8879 -2.3336  2.2409
 3900SOL    HW212600   5.528   2.138   3.738  0.3233 -1.2973  0.1340
 3901SOL     OW12601   0.178   1.128   3.870  0.2685  0.9024  0.4977
 3901SOL    HW112602   0.252   1.183   3.830  1.5522 -1.3922 -0.4779
 3901SOL    HW212603   0.197   1.114   3.967  0.2564  1.6473  0.6142
 3902SOL     OW12604   4.056   5.022   2.689 -0.2230 -0.1244  0.2829
 3902SOL    HW112605   4.117   5.034   2.768 -0.4822  0.6656  0.3634
 3902SOL    HW212606   3.961   5.035   2.718 -0.2770  0.8332 -0.2891
 3903SOL     OW12607   4.483   2.634   0.754 -0.3378  0.0866  0.2726
 3903SOL    HW112608   4.493   2.733   0.766 -1.6121  0.3781 -0.8263
 3903SOL    HW212609   4.451   2.615   0.662 -0.1133 -1.3628  0.4793
 3904SOL     OW12610   0.256   6.112   1.858  0.0010 -0.0241  0.0161
 3904SOL    HW112611   0.351   6.145   1.862  0.3014 -0.8574 -0.1217
 3904SOL    HW212612   0.219   6.129   1.767  0.2530 -0.3163 -0.1445
 3905SOL     OW12613   1.448   0.575   5.167  0.4811 -0.5419 -0.3487
 3905SOL    HW112614   1.505   0.499   5.198  1.9992  0.1405 -1.3047
 3905SOL    HW212615   1.495   0.622   5.092 -0.2294  1.5596  0.4687
 3906SOL     OW12616   1.422   0.817   5.346 -0.3891  0.7660 -0.0111
 3906SOL    HW112617   1.421   0.738   5.285  0.1545  0.0403  0.8818
 3906SOL    HW212618   1.406   0.901   5.293  0.2058  0.1776 -1.1608
 3907SOL     OW12619   1.753   1.018   4.789  0.6898  0.0908 -0.1525
 3907SOL    HW112620   1.720   0.929   4.759 -0.7541  0.8218 -0.8180
 3907SOL    HW212621   1.852   1.022   4.781  0.5534 -0.3823 -3.1882
 3908SOL     OW12622   0.261   0.675   5.014  0.2375  0.1230  0.2379
 3908SOL    HW112623   0.308   0.728   5.085  1.5474  1.5329 -1.5767
 3908SOL    HW212624   0.267   0.723   4.927 -1.1048 -1.6582 -0.9164
 3909SOL     OW12625   5.097   3.036   0.611  0.6255  0.3090  0.2313
 3909SOL    HW112626   5.013   2.999   0.571  0.5417 -0.0702  0.7525
 3909SOL    HW212627   5.166   3.046   0.539 -0.0284  1.1280 -0.3027
 3910SOL     OW12628   2.915   3.340   6.859 -0.0586  0.0227 -0.2599
 3910SOL    HW112629   2.948   3.403   6.789 -1.2853  2.0011  0.8483
 3910SOL    HW212630   2.988   3.324   6.926 -0.4620  2.5158  0.9146
 3911SOL     OW12631   4.593   6.997   2.605 -0.4426 -0.2145  0.0651
 3911SOL    HW112632   4.508   7.044   2.581 -1.3362  0.1089  3.3497
 3911SOL    HW212633   4.621   7.024   2.697  2.1976 -1.7964 -0.1745
 3912SOL     OW12634   5.289   1.973   5.742  0.3683 -0.1510 -0.2968
 3912SOL    HW112635   5.316   2.031   5.665  1.3547  0.7977  0.7444
 3912SOL    HW212636   5.274   2.029   5.823  2.5568 -1.4229  1.0790
 3913SOL     OW12637   6.237   3.592   1.433  0.6334 -0.1963 -0.3384
 3913SOL    HW112638   6.263   3.605   1.529  1.6633  1.9099 -0.8384
 3913SOL    HW212639   6.307   3.632   1.374 -0.0903 -1.2617 -1.9824
 3914SOL     OW12640   5.341   6.494   1.837  0.0658 -0.2239  0.2593
 3914SOL    HW112641   5.381   6.574   1.791 -0.0814 -0.3922 -0.1647
 3914SOL    HW212642   5.351   6.414   1.778 -0.5348 -0.3504  0.3245
 3915SOL     OW12643   6.107   3.950   1.353 -0.0990 -0.0707  0.5902
 3915SOL    HW112644   6.100   3.858   1.316  0.0462 -0.3795  1.3315
 3915SOL    HW212645   6.197   3.964   1.394 -1.0474 -0.5552  2.9879
 3916SOL     OW12646   1.117   1.497   2.666 -0.4804 -0.5630  0.0938
 3916SOL    HW112647   1.027   1.490   2.622  0.4481 -1.6422 -1.7570
 3916SOL    HW212648   1.189   1.483   2.598  1.2818  3.5456  0.8218
 3917SOL     OW12649   3.776   5.072   6.781  0.7735 -0.0224  0.0149
 3917SOL    HW112650   3.834   5.133   6.728  2.0281 -0.2784  1.0562
 3917SOL    HW212651   3.830   5.026   6.851 -0.5532 -0.7934  0.5784
 3918SOL     OW12652   4.701   0.485   0.388 -0.6425 -0.6630  0.2615
 3918SOL    HW112653   4.689   0.452   0.482 -0.2083  0.5268  0.7539
 3918SOL    HW212654   4.730   0.581   0.390  0.3564 -0.9109 -1.0608
 3919SOL     OW12655   1.185   0.929   3.029 -0.1340  0.2474  0.0160
 3919SOL    HW112656   1.221   0.836   3.026  1.6475  0.9295 -1.4305
 3919SOL    HW212657   1.222   0.982   2.953  0.1830  2.6094  1.7096
 3920SOL     OW12658   1.884   1.741   5.901 -0.0126 -0.1576  0.3631
 3920SOL    HW112659   1.896   1.713   5.806 -2.1408  0.1836 -0.0621
 3920SOL    HW212660   1.856   1.837   5.904 -1.5491 -0.5884  1.1795
 3921SOL     OW12661   0.609   2.097   6.692  0.1922 -0.5881  0.2418
 3921SOL    HW112662   0.707   2.082   6.682 -0.1482 -1.6707 -1.9901
 3921SOL    HW212663   0.561   2.061   6.612 -1.9392  0.9793  0.7172
 3922SOL     OW12664   4.445   5.519   3.346  0.1549 -0.4061 -0.0372
 3922SOL    HW112665   4.409   5.427   3.326 -0.1612 -0.3685  0.3289
 3922SOL    HW212666   4.544   5.520   3.335  0.2406 -0.9723  0.5819
 3923SOL     OW12667   5.529   0.225   1.786 -0.4424 -0.0132 -0.0143
 3923SOL    HW112668   5.607   0.284   1.803 -1.1549  1.2569 -1.0479
 3923SOL    HW212669   5.483   0.205   1.873 -0.8695  1.9187  0.2373
 3924SOL     OW12670   5.209   6.168   4.586  0.5546 -0.2494 -0.7461
 3924SOL    HW112671   5.287   6.205   4.636  1.2330 -1.0036 -1.2212
 3924SOL    HW212672   5.241   6.126   4.501 -0.3038 -0.9839 -0.7257
 3925SOL     OW12673   3.609   4.713   0.392  0.3067  0.3457 -0.1070
 3925SOL    HW112674   3.576   4.688   0.301 -3.1887 -1.7142  1.5113
 3925SOL    HW212675   3.663   4.797   0.386  0.3770  0.2012 -4.0330
 3926SOL     OW12676   1.007   6.155   6.258 -0.0755  0.3630  0.4089
 3926SOL    HW112677   1.106   6.146   6.264  0.0739  0.5628 -1.3453
 3926SOL    HW212678   0.979   6.241   6.300  0.5473  0.5404  0.4709
 3927SOL     OW12679   4.493   0.283   4.359 -0.3845 -0.9232 -0.4061
 3927SOL    HW112680   4.559   0.208   4.359  0.4063 -0.2544 -1.1113
 3927SOL    HW212681   4.512   0.343   4.282  0.3590  1.1545  1.2750
 3928SOL     OW12682   2.107   6.213   2.414  0.3789  0.3106 -0.1260
 3928SOL    HW112683   2.116   6.236   2.317  1.6405 -0.0036 -0.1013
 3928SOL    HW212684   2.198   6.213   2.456 -0.1420  0.2359  1.0060
 3929SOL     OW12685   2.608   1.225   5.917 -0.0285  0.2982  0.2247
 3929SOL    HW112686   2.668   1.219   5.837 -0.0644  1.8202  0.0501
 3929SOL    HW212687   2.534   1.158   5.908 -0.5362  1.0280 -1.4795
 3930SOL     OW12688   1.746   5.300   4.018 -0.7401  0.4377  0.1198
 3930SOL    HW112689   1.786   5.309   3.927 -0.4136 -1.4749  0.0339
 3930SOL    HW212690   1.804   5.347   4.085  0.0206  0.2506 -0.4041
 3931SOL     OW12691   1.406   4.613   1.900  0.1936 -0.2882 -0.2694
 3931SOL    HW112692   1.449   4.592   1.987  2.5240 -3.0737 -1.8914
 3931SOL    HW212693   1.475   4.608   1.827 -1.7806  1.2507 -2.3731
 3932SOL     OW12694   0.029   4.867   3.922  0.3184 -0.1190  0.2660
 3932SOL    HW112695   0.117   4.840   3.884  0.2986  0.5314 -0.2486
 3932SOL    HW212696  -0.044   4.846   3.856  0.2675  0.8635  0.0064
 3933SOL     OW12697   2.689   4.424   0.394  0.0685 -0.6836  0.2890
 3933SOL    HW112698   2.723   4.360   0.462  0.7742  0.4377  1.0250
 3933SOL    HW212699   2.752   4.427   0.316  0.0772 -0.8295  0.2912
 3934SOL     OW12700   6.821   0.799   0.717 -0.1336  0.1458 -0.0234
 3934SOL    HW112701   6.772   0.779   0.632 -0.0257  1.6882 -0.4869
 3934SOL    HW212702   6.764   0.857   0.775  0.1176 -0.2315  0.6111
 3935SOL     OW12703   0.445   3.609   0.091 -0.1606  0.0986 -0.0149
 3935SOL    HW112704   0.533   3.613   0.044  0.1831  0.8602  0.6751
 3935SOL    HW212705   0.377   3.570   0.029  0.7231 -0.8291 -0.4434
 3936SOL     OW12706   6.543   5.449   5.464 -0.3738 -0.0737 -0.1804
 3936SOL    HW112707   6.548   5.383   5.540 -0.7123  0.6288  0.4711
 3936SOL    HW212708   6.631   5.495   5.454 -0.7104  0.8150  0.7142
 3937SOL     OW12709   0.477   0.591   2.928 -0.1260 -0.2416  0.0194
 3937SOL    HW112710   0.523   0.657   2.868 -0.1849  0.5259  0.7883
 3937SOL    HW212711   0.536   0.569   3.005  0.1509 -1.6148 -0.5686
 3938SOL     OW12712   0.748   4.452   3.040 -0.4783 -0.3216 -0.2738
 3938SOL    HW112713   0.715   4.359   3.057 -1.3936 -0.1030 -0.8039
 3938SOL    HW212714   0.707   4.488   2.956 -0.6276  0.7946  0.2530
 3939SOL     OW12715   6.937   0.436   2.574  0.5533 -0.2845  0.6472
 3939SOL    HW112716   7.011   0.503   2.569  1.5840 -1.3324  1.3562
 3939SOL    HW212717   6.865   0.461   2.509  0.8688  1.5339  0.9463
 3940SOL     OW12718   2.456   5.514   1.137  0.2553  0.0830 -0.1448
 3940SOL    HW112719   2.458   5.427   1.187 -0.5605  0.9269  1.4342
 3940SOL    HW212720   2.361   5.540   1.120  0.5049  0.2937 -1.3515
 3941SOL     OW12721   0.016   0.875   4.153 -0.2956 -0.0819 -0.7873
 3941SOL    HW112722   0.103   0.892   4.107  0.8449 -1.0008  0.9177
 3941SOL    HW212723  -0.003   0.950   4.217  0.2256 -0.7975  0.2247
 3942SOL     OW12724   0.961   5.361   6.014 -0.1529  0.1946 -0.2040
 3942SOL    HW112725   0.907   5.391   5.936  0.5921  0.0042 -0.8111
 3942SOL    HW212726   0.979   5.263   6.006  2.2488  0.6381 -1.2984
 3943SOL     OW12727   6.434   3.167   6.372 -0.6712 -0.0323 -0.9965
 3943SOL    HW112728   6.479   3.121   6.295 -0.2066 -0.6363 -0.3723
 3943SOL    HW212729   6.448   3.266   6.363  2.1751 -0.2496 -0.0209
 3944SOL     OW12730   4.757   2.144   6.860  0.4798 -0.3476 -0.0884
 3944SOL    HW112731   4.825   2.201   6.814  1.1960 -1.1617 -0.0820
 3944SOL    HW212732   4.743   2.178   6.953  1.7168 -0.7938  0.2919
 3945SOL     OW12733   6.122   1.208   4.445 -0.7153  0.6213 -0.2397
 3945SOL    HW112734   6.147   1.113   4.463 -0.3320  0.6951 -0.3799
 3945SOL    HW212735   6.205   1.262   4.432 -0.9085  1.0989  0.4510
 3946SOL     OW12736   1.352   2.573   6.706 -0.1161 -0.5801 -0.8237
 3946SOL    HW112737   1.404   2.646   6.749 -1.3717  0.8510 -1.6444
 3946SOL    HW212738   1.298   2.524   6.775  0.1473 -0.2448 -0.3804
 3947SOL     OW12739   6.935   4.250   1.164 -0.2777 -0.1839  0.2081
 3947SOL    HW112740   6.895   4.286   1.079 -1.4041 -1.3908  0.1912
 3947SOL    HW212741   6.869   4.261   1.239 -0.8750 -2.5433  0.1067
 3948SOL     OW12742   1.699   5.113   1.562  0.1536 -0.3266 -0.2144
 3948SOL    HW112743   1.713   5.207   1.592  0.0971  0.1106 -1.4954
 3948SOL    HW212744   1.675   5.112   1.465  0.7153 -1.6988 -0.3657
 3949SOL     OW12745   4.663   0.297   2.175 -0.2707  0.7199  0.4878
 3949SOL    HW112746   4.727   0.319   2.101 -0.4007 -0.9736 -0.1686
 3949SOL    HW212747   4.686   0.352   2.255  0.7709  1.5658 -0.3537
 3950SOL     OW12748   4.225   3.573   0.517  0.4156  0.0421  0.0297
 3950SOL    HW112749   4.308   3.610   0.476 -0.2246  0.2346 -1.1306
 3950SOL    HW212750   4.229   3.473   0.516  0.0541  0.0250 -1.2998
 3951SOL     OW12751   6.139   2.478   4.378  0.1591  0.9820  0.2843
 3951SOL    HW112752   6.198   2.454   4.455 -0.2840  1.9118  0.9336
 3951SOL    HW212753   6.152   2.412   4.304  1.2721  0.6044  0.7940
 3952SOL     OW12754   5.072   4.870   4.078 -0.1458  0.2632 -0.5957
 3952SOL    HW112755   5.075   4.969   4.092 -0.9448  0.1197  0.7080
 3952SOL    HW212756   4.978   4.838   4.088  0.2513 -0.7546 -0.0253
 3953SOL     OW12757   3.170   3.637   6.134  0.5530  0.3285  0.9176
 3953SOL    HW112758   3.129   3.673   6.218 -0.2515  1.5073  0.0423
 3953SOL    HW212759   3.161   3.704   6.061 -1.9593 -1.9916 -1.1052
 3954SOL     OW12760   1.433   3.504   5.968 -0.0351  0.4084 -0.7169
 3954SOL    HW112761   1.522   3.539   5.997 -1.8700  3.5581  1.8125
 3954SOL    HW212762   1.419   3.525   5.871  0.9132  2.5602 -0.4611
 3955SOL     OW12763   4.861   3.590   2.414  0.1389  0.2322  0.0471
 3955SOL    HW112764   4.903   3.654   2.478  1.6782  0.3153 -0.9945
 3955SOL    HW212765   4.897   3.498   2.429 -0.4801  0.0003  0.1551
 3956SOL     OW12766   6.169   3.772   5.428  0.7074  0.1996  0.0769
 3956SOL    HW112767   6.173   3.681   5.385  1.0571 -0.0910  0.7078
 3956SOL    HW212768   6.153   3.761   5.526  1.6336  0.7882  0.3004
 3957SOL     OW12769   2.889   0.411   2.281  0.8866  0.2954 -0.1100
 3957SOL    HW112770   2.860   0.334   2.224 -0.4196  1.0778 -0.5601
 3957SOL    HW212771   2.820   0.483   2.277  2.6836  2.0697 -0.7620
 3958SOL     OW12772   6.698   5.936   5.264  0.0689 -0.1780  0.0285
 3958SOL    HW112773   6.797   5.922   5.264 -0.1397 -1.8799 -0.2613
 3958SOL    HW212774   6.670   5.973   5.352  0.8327 -0.7654  0.5288
 3959SOL     OW12775   3.607   5.301   1.806  0.6901 -0.6546 -0.6914
 3959SOL    HW112776   3.677   5.298   1.734  0.0237 -0.7643 -1.3517
 3959SOL    HW212777   3.572   5.209   1.821 -0.3730 -0.3942 -1.4493
 3960SOL     OW12778   3.945   2.435   1.059 -0.0594  0.1645 -0.3103
 3960SOL    HW112779   3.852   2.414   1.090 -0.2582  0.5956 -0.6028
 3960SOL    HW212780   3.975   2.522   1.100 -0.7488  1.3302 -2.1313
 3961SOL     OW12781   5.669   0.485   1.251 -0.5612 -0.3202  0.4091
 3961SOL    HW112782   5.586   0.434   1.276 -1.0561  0.0755 -0.3965
 3961SOL    HW212783   5.643   0.576   1.218  0.0591 -0.7793 -1.4493
 3962SOL     OW12784   1.018   6.823   5.155 -0.4794  0.4562 -0.0583
 3962SOL    HW112785   1.092   6.756   5.146 -0.8561  0.2276 -1.6897
 3962SOL    HW212786   0.930   6.777   5.153 -0.7269  0.9408 -0.5390
 3963SOL     OW12787   4.268   5.811   5.023  0.1884  0.5131  0.3617
 3963SOL    HW112788   4.222   5.854   5.102 -0.2520  1.6763 -0.4867
 3963SOL    HW212789   4.365   5.799   5.044  0.1988  1.3518  0.8815
 3964SOL     OW12790   6.333   6.476   4.194 -1.0136 -0.4656 -0.3718
 3964SOL    HW112791   6.256   6.449   4.136  0.0134 -2.1949 -1.0088
 3964SOL    HW212792   6.367   6.395   4.243  0.6532  0.1787 -0.4213
 3965SOL     OW12793   5.450   3.462   0.948 -0.0322 -0.0836  0.0376
 3965SOL    HW112794   5.441   3.456   1.047  0.5009 -2.1576  0.0242
 3965SOL    HW212795   5.464   3.370   0.910  1.5029  0.8088 -1.7757
 3966SOL     OW12796   6.678   2.685   3.239 -0.2875 -0.0290 -0.5252
 3966SOL    HW112797   6.627   2.701   3.324  1.0778  0.6885  0.1741
 3966SOL    HW212798   6.667   2.763   3.178 -2.1341 -0.9814 -1.5043
 3967SOL     OW12799   1.195   6.065   0.035  0.0574 -0.5823 -0.0771
 3967SOL    HW112800   1.250   6.123  -0.025  0.9268 -0.1142  1.1321
 3967SOL    HW212801   1.102   6.102   0.043  0.8964  1.3591  1.5684
 3968SOL     OW12802   5.771   0.932   3.090  0.3580  0.6097 -0.4105
 3968SOL    HW112803   5.748   0.893   3.001 -0.0530 -0.5719  0.1930
 3968SOL    HW212804   5.870   0.947   3.095  0.8802 -2.2870  0.0124
 3969SOL     OW12805   1.752   5.354   1.637 -0.2942  0.4774 -0.2680
 3969SOL    HW112806   1.727   5.448   1.661  0.6220  1.2781 -2.2152
 3969SOL    HW212807   1.836   5.329   1.686  0.5141  1.4012 -1.1187
 3970SOL     OW12808   4.152   4.709   3.218  0.7149  0.5529 -0.2747
 3970SOL    HW112809   4.104   4.741   3.300  0.5020 -1.4616  0.4468
 3970SOL    HW212810   4.106   4.744   3.136 -0.2522  1.0209  0.4491
 3971SOL     OW12811   1.929   2.118   1.442  0.0217 -0.0268  0.1710
 3971SOL    HW112812   1.900   2.200   1.490 -0.2482  0.1610 -0.3020
 3971SOL    HW212813   1.971   2.054   1.506 -0.1051  0.3237  0.6044
 3972SOL     OW12814   3.051   0.221   6.765 -0.3857 -0.2740  0.3991
 3972SOL    HW112815   2.969   0.176   6.730 -1.5595  1.0849  1.2854
 3972SOL    HW212816   3.064   0.196   6.861  0.2384 -0.4594  0.2703
 3973SOL     OW12817   3.564   2.859   2.691  0.7181  0.0166 -0.1846
 3973SOL    HW112818   3.654   2.840   2.731  0.5446  0.4077  0.3978
 3973SOL    HW212819   3.562   2.825   2.596  1.0865 -1.0488  0.1691
 3974SOL     OW12820   4.610   1.180   0.430 -1.0849 -0.0690 -0.2587
 3974SOL    HW112821   4.610   1.081   0.445  0.3458 -0.2885 -1.4475
 3974SOL    HW212822   4.705   1.211   0.420 -1.5118  1.4486  0.1988
 3975SOL     OW12823   5.465   6.922   4.947 -0.2882 -0.2496  0.4365
 3975SOL    HW112824   5.451   6.990   5.019 -1.2208 -0.0033  0.0419
 3975SOL    HW212825   5.377   6.885   4.919  0.1628 -1.1890  0.2154
 3976SOL     OW12826   0.707   2.137   0.621 -0.0345  0.1070  0.0116
 3976SOL    HW112827   0.805   2.139   0.599  0.3307 -0.8748  1.4165
 3976SOL    HW212828   0.663   2.218   0.583  1.3140  0.5459 -0.6849
 3977SOL     OW12829   4.323   5.094   5.744  0.3860 -0.3593 -0.1974
 3977SOL    HW112830   4.333   5.138   5.654 -0.4689  1.1630  0.4127
 3977SOL    HW212831   4.333   5.163   5.816 -0.1029 -1.3498  0.8552
 3978SOL     OW12832   4.798   1.608   5.971  0.3853  0.1025 -0.3212
 3978SOL    HW112833   4.856   1.683   5.940  1.0039 -0.4273 -0.4612
 3978SOL    HW212834   4.822   1.524   5.922 -0.6797 -0.0722 -0.5756
 3979SOL     OW12835   0.656   0.127   2.712  0.1001  0.0884  0.1195
 3979SOL    HW112836   0.735   0.138   2.773  1.5672  0.2379 -1.7143
 3979SOL    HW212837   0.685   0.139   2.617 -1.9773 -0.7930 -0.6898
 3980SOL     OW12838   5.650   0.518   5.428 -0.4927 -0.2507  0.3429
 3980SOL    HW112839   5.618   0.424   5.442 -1.8453  0.3241  1.2797
 3980SOL    HW212840   5.716   0.520   5.353 -1.9162 -1.6486 -1.0077
 3981SOL     OW12841   5.784   0.373   6.349 -0.6822  0.4784  0.2180
 3981SOL    HW112842   5.781   0.366   6.250  1.0933 -2.6604  0.2416
 3981SOL    HW212843   5.691   0.366   6.386 -1.1530 -1.9519 -1.1988
 3982SOL     OW12844   1.706   3.762   4.108  0.3253  0.6855 -0.0242
 3982SOL    HW112845   1.609   3.739   4.112  0.2060  1.1369 -0.1972
 3982SOL    HW212846   1.759   3.695   4.160 -0.1511  0.8246  0.6467
 3983SOL     OW12847   2.848   0.262   2.529  0.0230  0.7157 -0.5513
 3983SOL    HW112848   2.876   0.293   2.439  2.7643 -0.4037 -0.1985
 3983SOL    HW212849   2.892   0.174   2.549 -2.0939 -0.0503  1.1037
 3984SOL     OW12850   2.683   1.045   2.967  0.6493  0.0101  0.1749
 3984SOL    HW112851   2.679   0.946   2.982  0.3886  0.1279  0.9227
 3984SOL    HW212852   2.708   1.063   2.872 -0.6239 -0.7660 -0.3287
 3985SOL     OW12853   1.565   2.904   2.401 -0.0890  0.9425  0.1231
 3985SOL    HW112854   1.581   2.847   2.481 -1.4136 -0.1274 -0.3459
 3985SOL    HW212855   1.467   2.914   2.386  0.1306  2.2616 -0.5854
 3986SOL     OW12856   1.558   3.091   1.295  0.0628 -0.1039  0.7523
 3986SOL    HW112857   1.513   3.102   1.207  0.5041 -1.7701  0.2824
 3986SOL    HW212858   1.531   3.004   1.336  0.8439  0.0618  1.6748
 3987SOL     OW12859   3.089   4.325   0.057  0.2208 -0.7998 -0.7567
 3987SOL    HW112860   3.056   4.231   0.068 -0.1357 -0.6766 -0.7563
 3987SOL    HW212861   3.154   4.347   0.130 -0.9556 -0.4972  0.2371
 3988SOL     OW12862   4.255   3.319   0.526 -0.1742 -0.6165  0.3998
 3988SOL    HW112863   4.185   3.271   0.579 -1.8327 -1.2089 -2.1382
 3988SOL    HW212864   4.328   3.254   0.501  0.2305 -0.5092  1.2452
 3989SOL     OW12865   5.790   1.047   4.428  0.1676 -0.5947 -0.2982
 3989SOL    HW112866   5.746   1.058   4.338 -1.6493  0.1694  0.6292
 3989SOL    HW212867   5.813   1.138   4.464 -2.0265 -0.6080  1.3282
 3990SOL     OW12868   0.427   1.713   2.714  0.2673  0.0810  0.1294
 3990SOL    HW112869   0.513   1.741   2.757  0.6809 -0.8108 -0.0974
 3990SOL    HW212870   0.389   1.790   2.663  0.0466  0.9950  1.6147
 3991SOL     OW12871   6.006   2.061   2.745  0.2322 -0.4094  0.2236
 3991SOL    HW112872   5.973   2.029   2.834 -1.8702 -1.2806 -0.8002
 3991SOL    HW212873   6.006   1.984   2.681 -0.4333  0.6523 -1.0985
 3992SOL     OW12874   4.094   3.757   6.682 -0.2747 -0.0388 -0.1034
 3992SOL    HW112875   4.151   3.714   6.752 -0.4295 -0.7571 -0.4071
 3992SOL    HW212876   4.093   3.856   6.695 -0.2263 -0.1614  0.8520
 3993SOL     OW12877   2.745   2.415   3.591  0.3537  0.0659 -0.0776
 3993SOL    HW112878   2.746   2.392   3.689  1.5446 -0.5863 -0.2326
 3993SOL    HW212879   2.652   2.441   3.565 -0.3504 -1.3449  0.8615
 3994SOL     OW12880   1.486   4.442   3.821 -0.4157 -0.6048  0.3222
 3994SOL    HW112881   1.546   4.521   3.806  0.6349 -1.3284  0.6719
 3994SOL    HW212882   1.471   4.394   3.734 -0.3530 -0.5298  0.2700
 3995SOL     OW12883   1.369   2.228   2.245  0.5066 -0.1037  0.3184
 3995SOL    HW112884   1.374   2.327   2.258 -1.0990  0.4514 -2.5140
 3995SOL    HW212885   1.457   2.187   2.270  1.2006  2.0080  1.5603
 3996SOL     OW12886   1.502   0.847   3.228  0.0984  0.4808  0.6589
 3996SOL    HW112887   1.514   0.897   3.142  1.4020  1.1034  1.1747
 3996SOL    HW212888   1.473   0.910   3.300 -1.1631 -0.0675  0.6624
 3997SOL     OW12889   6.199   3.114   3.103 -0.3263 -0.3602 -0.9376
 3997SOL    HW112890   6.106   3.089   3.130 -0.9892 -0.7905 -3.3846
 3997SOL    HW212891   6.200   3.207   3.067  0.4198  0.0288  0.0454
 3998SOL     OW12892   0.722   1.616   2.796 -0.0151  0.0066  0.0092
 3998SOL    HW112893   0.770   1.698   2.765 -1.6794  1.5919  1.4004
 3998SOL    HW212894   0.742   1.600   2.893 -0.8048 -0.3992  0.1170
 3999SOL     OW12895   3.647   2.588   1.693 -0.4827 -0.1111  0.1157
 3999SOL    HW112896   3.661   2.508   1.751  0.9649  0.1665  0.1736
 3999SOL    HW212897   3.684   2.571   1.602  0.6893  0.8059  0.3960
 4000SOL     OW12898   1.674   5.783   2.589  0.6200  0.0874 -0.5519
 4000SOL    HW112899   1.706   5.858   2.648 -1.0991 -0.6374  1.4197
 4000SOL    HW212900   1.744   5.711   2.587  0.3526 -0.2900  1.4526
 4001SOL     OW12901   0.805   2.704   5.598 -0.4334  0.1428 -0.1018
 4001SOL    HW112902   0.801   2.654   5.512 -0.4550  0.0664 -0.0570
 4001SOL    HW212903   0.839   2.797   5.582 -0.0039 -0.0177 -0.1243
 4002SOL     OW12904   2.885   3.630   3.319 -0.3990 -0.2025 -0.4299
 4002SOL    HW112905   2.850   3.656   3.229 -1.1602 -0.4680 -0.2173
 4002SOL    HW212906   2.954   3.696   3.348 -0.4647  0.1322 -1.0173
 4003SOL     OW12907   1.816   2.206   4.521 -0.1476 -0.2193 -0.3352
 4003SOL    HW112908   1.748   2.215   4.448  0.9411  0.7714 -1.2382
 4003SOL    HW212909   1.775   2.236   4.607 -1.5224 -1.6245 -0.4325
 4004SOL     OW12910   0.927   3.835   3.800  0.1106  0.2641 -0.4489
 4004SOL    HW112911   0.834   3.818   3.766  1.1519 -0.0407 -3.4085
 4004SOL    HW212912   0.986   3.758   3.776  1.2336  0.5548  1.1874
 4005SOL     OW12913   4.936   3.764   2.694  0.5944  0.7857 -0.4021
 4005SOL    HW112914   4.926   3.832   2.766 -0.4546 -0.0321  0.2449
 4005SOL    HW212915   4.945   3.673   2.735  0.1628  0.3285 -1.3003
 4006SOL     OW12916   5.626   5.884   4.142 -0.1382 -0.1402  0.3755
 4006SOL    HW112917   5.713   5.922   4.111  0.0771  0.2573  1.4143
 4006SOL    HW212918   5.610   5.795   4.099  1.4034 -0.8187  1.1237
 4007SOL     OW12919   0.625   3.025   2.719  0.5631  1.0149 -0.2782
 4007SOL    HW112920   0.589   2.972   2.796 -0.8824  0.0579 -1.5542
 4007SOL    HW212921   0.550   3.070   2.671  0.9442 -1.0067 -3.0072
 4008SOL     OW12922   3.054   6.339   6.113 -0.2608 -0.4272  0.7330
 4008SOL    HW112923   2.993   6.410   6.078 -0.1751 -0.0011  1.4292
 4008SOL    HW212924   3.104   6.374   6.192 -0.2075 -1.2581  1.0797
 4009SOL     OW12925   4.551   0.089   0.644 -0.1806 -0.1658  0.0368
 4009SOL    HW112926   4.458   0.080   0.678  0.0442  0.3688  0.8174
 4009SOL    HW212927   4.616   0.069   0.718  0.3203  0.9177 -0.0948
 4010SOL     OW12928   2.735   4.341   0.799 -0.0526  0.2630 -0.5029
 4010SOL    HW112929   2.697   4.273   0.862  0.2232  1.3970  0.9366
 4010SOL    HW212930   2.793   4.404   0.850  1.0176  0.6018 -2.1000
 4011SOL     OW12931   0.437   5.386   0.798 -0.0071 -0.8729 -0.0636
 4011SOL    HW112932   0.484   5.376   0.711  1.1713 -0.2565  0.4870
 4011SOL    HW212933   0.370   5.460   0.792  0.2534 -0.6633 -0.3561
 4012SOL     OW12934   2.137   0.049   2.697 -0.3521  0.2475 -0.2852
 4012SOL    HW112935   2.145  -0.043   2.659  0.2608  1.3704 -3.1719
 4012SOL    HW212936   2.047   0.086   2.676 -0.2191  0.6811 -0.1047
 4013SOL     OW12937   6.985   2.000   1.561  0.4692 -0.7201 -0.1543
 4013SOL    HW112938   6.889   2.007   1.535 -0.3033 -0.8987  2.3304
 4013SOL    HW212939   7.038   2.071   1.515 -1.1684  0.4678 -0.2944
 4014SOL     OW12940   2.085   0.089   2.963  0.0632  0.3552  0.0829
 4014SOL    HW112941   2.021   0.022   3.001 -0.9067  0.0764 -1.9369
 4014SOL    HW212942   2.126   0.053   2.879  1.2571  1.4081  0.1834
 4015SOL     OW12943   3.709   5.709   0.549 -0.0225  0.0908  0.4896
 4015SOL    HW112944   3.755   5.733   0.464 -0.5393 -1.5598 -0.3064
 4015SOL    HW212945   3.668   5.790   0.589  0.3480  0.9243 -0.7581
 4016SOL     OW12946   5.078   5.141   4.110  1.1885 -0.0029 -0.2660
 4016SOL    HW112947   4.995   5.177   4.068  0.8995  0.0392  0.3294
 4016SOL    HW212948   5.095   5.188   4.196  1.2741 -0.6882  0.1041
 4017SOL     OW12949   1.215   5.130   5.212 -0.2331 -0.5351 -0.0711
 4017SOL    HW112950   1.197   5.125   5.114  0.2815 -0.8890 -0.1499
 4017SOL    HW212951   1.219   5.226   5.241 -1.1038 -0.4339 -0.2544
 4018SOL     OW12952   5.347   4.357   1.042 -0.5894  0.2433 -0.1500
 4018SOL    HW112953   5.403   4.416   1.100  0.7100 -0.7539 -0.3235
 4018SOL    HW212954   5.382   4.263   1.048 -2.4993 -0.4913  0.0075
 4019SOL     OW12955   5.647   5.005   3.259  0.0817  0.2905 -0.2436
 4019SOL    HW112956   5.636   5.053   3.346 -0.5685  1.0978 -0.7444
 4019SOL    HW212957   5.647   4.906   3.274 -0.3936  0.4155  0.6357
 4020SOL     OW12958   0.476   4.383   2.647  0.1071  0.9768  0.7724
 4020SOL    HW112959   0.441   4.455   2.588 -0.2106 -0.0954 -0.3992
 4020SOL    HW212960   0.424   4.379   2.732  0.2714  2.2479  0.9397
 4021SOL     OW12961   2.304   3.302   6.308 -0.4022  0.4447  0.1645
 4021SOL    HW112962   2.236   3.351   6.255  0.6394  1.5933 -0.1529
 4021SOL    HW212963   2.385   3.285   6.252 -0.0326 -0.0151  0.8179
 4022SOL     OW12964   3.374   6.863   6.842  0.1669 -0.3357 -0.4466
 4022SOL    HW112965   3.474   6.856   6.844  0.0984 -1.6070 -0.4983
 4022SOL    HW212966   3.340   6.883   6.934  0.3509 -2.3060  0.0985
 4023SOL     OW12967   2.033   3.717   0.124  0.2805  0.6785 -0.1115
 4023SOL    HW112968   2.041   3.815   0.107 -2.1611  1.1038  0.7992
 4023SOL    HW212969   2.117   3.684   0.168  2.2613  1.7196 -2.7695
 4024SOL     OW12970   0.696   5.993   4.035  0.2643  0.1189 -0.0811
 4024SOL    HW112971   0.726   5.979   3.940 -1.4807 -0.9263 -0.5326
 4024SOL    HW212972   0.650   5.910   4.067  1.0038  0.3862  1.7773
 4025SOL     OW12973   0.817   0.213   5.071 -0.3796  0.3523  0.0296
 4025SOL    HW112974   0.738   0.208   5.132  0.4693 -0.6503  1.0719
 4025SOL    HW212975   0.868   0.297   5.088 -2.1041  1.9174 -1.8424
 4026SOL     OW12976   0.293   5.186   6.492 -0.0559 -0.3985  0.5813
 4026SOL    HW112977   0.352   5.112   6.524  1.2206  0.3395  0.0276
 4026SOL    HW212978   0.296   5.190   6.392 -0.9227 -0.2439  0.5576
 4027SOL     OW12979   2.262   2.061   6.958 -0.0925  0.4804  0.2406
 4027SOL    HW112980   2.274   2.012   6.872 -1.5049  0.3829  0.0638
 4027SOL    HW212981   2.197   2.012   7.016 -1.3788  1.9562  0.1496
 4028SOL     OW12982   4.578   0.810   2.564  0.4527  0.2312  0.1591
 4028SOL    HW112983   4.657   0.750   2.575  0.0254 -0.5130 -0.6805
 4028SOL    HW212984   4.535   0.826   2.652  1.0492 -0.0360  0.5033
 4029SOL     OW12985   1.868   4.754   6.317 -0.1223 -0.1943  0.4612
 4029SOL    HW112986   1.804   4.680   6.337  0.9218 -1.7521 -1.5793
 4029SOL    HW212987   1.960   4.728   6.348 -0.1315  1.3254  1.8976
 4030SOL     OW12988   5.553   0.160   4.850 -0.1327 -0.2586  0.3859
 4030SOL    HW112989   5.532   0.064   4.869  0.1275 -0.2108  0.9303
 4030SOL    HW212990   5.560   0.174   4.751 -1.1333 -0.5957  0.2513
 4031SOL     OW12991   5.637   0.166   0.327  0.6849  0.3398 -0.2414
 4031SOL    HW112992   5.584   0.194   0.247  1.5261 -0.1050 -0.9723
 4031SOL    HW212993   5.734   0.178   0.308  0.9123 -0.1545  0.5780
 4032SOL     OW12994   5.571   5.184   0.404 -0.1750 -0.3498  1.1750
 4032SOL    HW112995   5.495   5.247   0.390  0.1972  0.2721  1.9122
 4032SOL    HW212996   5.537   5.101   0.449 -0.5577 -0.4292  0.7454
 4033SOL     OW12997   2.321   2.152   3.876 -0.1130  0.8314  0.0598
 4033SOL    HW112998   2.417   2.146   3.846 -0.0192  0.3982  0.4485
 4033SOL    HW212999   2.293   2.248   3.874 -0.1331  0.8208 -1.4724
 4034SOL     OW13000   0.152   2.947   3.003  0.5968  0.1727 -0.1667
 4034SOL    HW113001   0.081   3.017   2.992  1.1298  1.3163  2.9191
 4034SOL    HW213002   0.228   2.983   3.055  1.4882 -2.3431  0.4332
 4035SOL     OW13003   5.934   3.276   6.608  0.4541 -0.1040  0.0231
 4035SOL    HW113004   5.887   3.362   6.629  1.7272  0.7640 -0.5124
 4035SOL    HW213005   5.989   3.248   6.688  2.3102  1.1674 -0.7385
 4036SOL     OW13006   3.530   5.548   1.733  0.2021 -0.2439 -0.1466
 4036SOL    HW113007   3.546   5.618   1.802  2.8435 -1.3276  0.4643
 4036SOL    HW213008   3.528   5.458   1.776  0.3049 -0.8261 -1.3002
 4037SOL     OW13009   3.409   1.252   5.852 -0.0440 -0.5468 -0.0007
 4037SOL    HW113010   3.376   1.182   5.789 -0.7468  0.9431 -1.3584
 4037SOL    HW213011   3.483   1.304   5.810 -2.7170  2.6921 -1.1613
 4038SOL     OW13012   3.046   2.631   6.304  0.0382 -0.0801 -0.9305
 4038SOL    HW113013   3.073   2.688   6.226  1.1151 -1.1778 -1.3869
 4038SOL    HW213014   2.977   2.679   6.358 -1.1402  0.5198 -2.8396
 4039SOL     OW13015   6.025   6.017   2.367  0.2455  0.6181 -0.0138
 4039SOL    HW113016   5.991   6.066   2.286 -1.0008  2.8423  1.7643
 4039SOL    HW213017   5.957   5.949   2.395  0.1156  0.6994 -0.1272
 4040SOL     OW13018   4.998   4.670   5.446 -0.0911  0.5553 -0.0788
 4040SOL    HW113019   4.899   4.676   5.459  0.0282  0.0656  1.2100
 4040SOL    HW213020   5.044   4.715   5.522  0.6693 -0.5605  0.1543
 4041SOL     OW13021   1.644   0.141   0.893  0.0641  0.3788 -0.2741
 4041SOL    HW113022   1.545   0.154   0.901  0.1939  1.2591 -0.0348
 4041SOL    HW213023   1.692   0.215   0.940  0.8460 -0.3276  0.0804
 4042SOL     OW13024   0.445   5.950   3.453  0.0459 -0.2191 -0.1543
 4042SOL    HW113025   0.544   5.954   3.435 -0.1283  0.3956 -1.0329
 4042SOL    HW213026   0.396   5.941   3.366 -0.7704  1.4745  0.0918
 4043SOL     OW13027   3.389   1.572   4.243 -0.7315  0.1473 -0.3726
 4043SOL    HW113028   3.378   1.670   4.259 -1.0692 -0.0444  0.7045
 4043SOL    HW213029   3.311   1.524   4.283  0.4513 -0.7155  0.9880
 4044SOL     OW13030   3.715   5.273   2.351  0.1492  0.3645  0.1713
 4044SOL    HW113031   3.654   5.296   2.275 -1.3451  2.3244  1.8701
 4044SOL    HW213032   3.689   5.184   2.389 -1.0172  0.7172  0.2279
 4045SOL     OW13033   4.632   5.147   5.947  0.1476 -0.3148 -0.4389
 4045SOL    HW113034   4.650   5.091   5.866 -0.3243  1.9071 -2.1682
 4045SOL    HW213035   4.697   5.222   5.950  0.6072 -0.7512  1.6946
 4046SOL     OW13036   0.680   6.803   3.710  0.1746 -0.1582  0.4618
 4046SOL    HW113037   0.668   6.886   3.657  0.4849  0.3474  1.1626
 4046SOL    HW213038   0.764   6.810   3.763  0.5124 -1.1665  0.0881
 4047SOL     OW13039   1.921   3.679   1.518  0.7957 -0.1045 -0.0141
 4047SOL    HW113040   1.979   3.696   1.598  0.0704  0.0987  0.4768
 4047SOL    HW213041   1.843   3.740   1.520  0.8380 -0.0130 -0.9583
 4048SOL     OW13042   5.494   0.620   1.530 -0.0835  0.0754  0.1824
 4048SOL    HW113043   5.441   0.689   1.481  0.5475  0.3028 -0.2000
 4048SOL    HW213044   5.541   0.663   1.608 -0.0660 -0.0159  0.2217
 4049SOL     OW13045   3.491   5.552   4.869 -0.4619 -0.0617  0.2026
 4049SOL    HW113046   3.556   5.520   4.800 -1.2145 -0.9072 -0.1366
 4049SOL    HW213047   3.455   5.641   4.842 -1.0494 -0.5605 -0.7240
 4050SOL     OW13048   0.691   4.198   3.136  0.5145 -0.3673 -0.1099
 4050SOL    HW113049   0.602   4.213   3.179  0.2272  1.7338 -1.2492
 4050SOL    HW213050   0.746   4.137   3.192 -0.3520  1.0437  2.4546
 4051SOL     OW13051   3.043   0.586   6.920  0.7702  0.3732  0.7070
 4051SOL    HW113052   3.006   0.524   6.851  0.9438  0.7441  0.2760
 4051SOL    HW213053   2.998   0.569   7.008 -0.3763  0.7832  0.2092
 4052SOL     OW13054   0.170   2.511   2.693 -0.1005 -0.3844  0.6674
 4052SOL    HW113055   0.150   2.462   2.778 -1.0247 -1.4539 -0.1252
 4052SOL    HW213056   0.137   2.456   2.616  1.6944  0.0520 -0.4491
 4053SOL     OW13057   1.165   6.703   5.419  0.5697 -0.1106  0.8196
 4053SOL    HW113058   1.070   6.710   5.450  1.3490  1.3171  3.0988
 4053SOL    HW213059   1.206   6.620   5.457  0.3588 -0.5339  0.1381
 4054SOL     OW13060   5.774   4.184   2.281 -0.0930 -0.0037 -0.6742
 4054SOL    HW113061   5.784   4.215   2.187 -0.6641  0.1952 -0.6701
 4054SOL    HW213062   5.733   4.093   2.282  1.7840 -0.8870 -0.6962
 4055SOL     OW13063   6.895   3.842   2.124 -0.1232  0.5013  0.2409
 4055SOL    HW113064   6.828   3.816   2.054 -0.0550  1.2067 -0.1022
 4055SOL    HW213065   6.957   3.765   2.141 -0.3207  0.2203 -0.2685
 4056SOL     OW13066   4.264   4.552   1.050  0.3636 -0.7337  0.4353
 4056SOL    HW113067   4.208   4.470   1.064  0.6683 -0.7123  1.9857
 4056SOL    HW213068   4.361   4.527   1.059  0.5656 -0.5588 -1.0843
 4057SOL     OW13069   6.932   5.698   5.716 -0.5913  0.0351 -0.6075
 4057SOL    HW113070   6.840   5.736   5.703 -0.0311  1.5048 -0.4931
 4057SOL    HW213071   6.991   5.767   5.758  0.2817 -1.2607  0.3616
 4058SOL     OW13072   3.296   5.790   4.548  0.3139 -0.1738  0.5763
 4058SOL    HW113073   3.342   5.817   4.464 -1.8332  0.2467 -0.5419
 4058SOL    HW213074   3.216   5.733   4.526 -0.4807  0.1997  2.2927
 4059SOL     OW13075   6.887   3.393   6.053  0.5796 -0.5786  0.4737
 4059SOL    HW113076   6.913   3.367   5.960  5.8630 -0.2237  1.5132
 4059SOL    HW213077   6.861   3.311   6.104  0.6685 -1.2516 -0.5214
 4060SOL     OW13078   6.958   6.322   4.512 -0.0341  0.2448  0.3573
 4060SOL    HW113079   6.994   6.237   4.474  1.4794  0.4461  1.2851
 4060SOL    HW213080   6.858   6.323   4.502  0.1744 -0.0459 -2.8832
 4061SOL     OW13081   2.262   4.972   2.455 -0.2548  0.1032 -0.7794
 4061SOL    HW113082   2.167   4.976   2.487  0.0707  0.0993  0.2496
 4061SOL    HW213083   2.271   5.021   2.369 -0.5156  3.3896  0.9020
 4062SOL     OW13084   4.509   6.882   1.238 -0.6097 -0.2271 -0.2273
 4062SOL    HW113085   4.513   6.894   1.139 -1.3926  0.2072 -0.2146
 4062SOL    HW213086   4.416   6.900   1.270  0.1635  2.2165  0.8928
 4063SOL     OW13087   6.405   6.425   1.144 -0.0050  0.0792  0.1398
 4063SOL    HW113088   6.384   6.359   1.215 -0.1219  1.6218  1.6093
 4063SOL    HW213089   6.501   6.416   1.118  0.2913  0.0857  1.1796
 4064SOL     OW13090   2.017   2.580   5.433 -0.4854  0.2830  0.9091
 4064SOL    HW113091   1.976   2.668   5.410 -0.8705  0.6116  2.6568
 4064SOL    HW213092   2.056   2.539   5.351 -2.2773  1.0235 -0.3928
 4065SOL     OW13093   2.140   0.804   0.996  0.3294 -0.8490  0.2970
 4065SOL    HW113094   2.129   0.754   0.910 -1.0007 -1.4888  0.8080
 4065SOL    HW213095   2.234   0.791   1.030  0.6475 -1.1983 -0.6772
 4066SOL     OW13096   5.234   3.595   2.819 -0.0485 -0.0348  0.1384
 4066SOL    HW113097   5.182   3.554   2.743  1.9380 -1.1464 -0.7026
 4066SOL    HW213098   5.287   3.524   2.865  1.5565  1.1954  0.2634
 4067SOL     OW13099   5.257   3.277   3.507 -0.1423 -0.1470  0.2513
 4067SOL    HW113100   5.285   3.355   3.451  1.7217 -1.7434 -1.2060
 4067SOL    HW213101   5.159   3.280   3.522 -0.3348  1.6470 -1.0459
 4068SOL     OW13102   1.506   4.042   4.453  0.0638  0.1612 -0.7449
 4068SOL    HW113103   1.420   4.017   4.407  0.1552  1.0798 -1.4453
 4068SOL    HW213104   1.551   4.115   4.401  0.1450  1.2866  0.8240
 4069SOL     OW13105   3.065   5.874   6.643  0.7589  0.2331  0.1841
 4069SOL    HW113106   3.021   5.943   6.700 -0.4181 -0.7821  0.5462
 4069SOL    HW213107   3.005   5.795   6.633  2.3824 -1.0922  0.4152
 4070SOL     OW13108   1.563   2.702   3.503  0.3181 -0.3816  0.2704
 4070SOL    HW113109   1.503   2.773   3.541  0.8784  0.1306  0.1992
 4070SOL    HW213110   1.535   2.613   3.539 -1.1759 -0.2964 -0.5885
 4071SOL     OW13111   1.660   1.499   5.627  0.1138 -0.2918 -0.2715
 4071SOL    HW113112   1.632   1.555   5.550 -0.6938  1.7272  1.3882
 4071SOL    HW213113   1.686   1.408   5.595 -1.6556 -0.0301 -2.7125
 4072SOL     OW13114   1.558   5.012   4.831 -0.6653  0.2294  0.9455
 4072SOL    HW113115   1.653   5.014   4.800 -0.9152  0.5338  0.1765
 4072SOL    HW213116   1.551   4.957   4.915 -0.0060 -0.8000  0.3411
 4073SOL     OW13117   5.181   0.135   6.286 -0.5354 -0.3058 -0.1589
 4073SOL    HW113118   5.104   0.168   6.341 -0.6557 -0.0261 -0.4865
 4073SOL    HW213119   5.239   0.213   6.261 -0.5378 -0.4150 -0.5081
 4074SOL     OW13120   1.071   5.022   0.949  0.6500  0.1947 -0.2337
 4074SOL    HW113121   1.015   5.069   0.881  1.4838  0.8925 -0.4513
 4074SOL    HW213122   1.011   4.972   1.012 -0.1365 -0.6195 -1.5731
 4075SOL     OW13123   5.566   3.043   1.378  0.2308 -0.3831 -0.1125
 4075SOL    HW113124   5.643   3.080   1.430  0.2429 -1.8418  0.9640
 4075SOL    HW213125   5.536   2.957   1.419 -2.6285  0.6269  0.1109
 4076SOL     OW13126   2.894   2.903   5.301  0.2443  0.0193  0.5115
 4076SOL    HW113127   2.914   2.988   5.349 -0.8410  0.5281  0.0897
 4076SOL    HW213128   2.798   2.879   5.315  0.5212 -1.1088  0.5763
 4077SOL     OW13129   4.754   6.939   0.924 -0.1570  0.6495 -0.3498
 4077SOL    HW113130   4.790   7.000   0.853 -0.4175  2.0356  0.6553
 4077SOL    HW213131   4.809   6.950   1.007  0.7005 -1.6073 -0.5643
 4078SOL     OW13132   0.639   5.783   2.263  0.0440 -0.3598 -0.1655
 4078SOL    HW113133   0.640   5.881   2.282 -1.7230 -0.3869  0.2927
 4078SOL    HW213134   0.695   5.763   2.183  1.0464  0.9039  0.1989
 4079SOL     OW13135   3.585   1.846   3.537  0.1342 -0.0942  0.1152
 4079SOL    HW113136   3.546   1.931   3.570  0.5203 -0.2123  0.9002
 4079SOL    HW213137   3.534   1.769   3.576  0.9445 -0.2431  0.9133
 4080SOL     OW13138   4.063   2.251   4.658  0.6936 -0.1101 -0.2335
 4080SOL    HW113139   4.144   2.270   4.713  0.8993 -0.9329 -0.2339
 4080SOL    HW213140   4.088   2.244   4.562  0.6847 -0.6626 -0.2020
 4081SOL     OW13141   2.483   5.506   3.048 -0.0202 -0.5208  0.1410
 4081SOL    HW113142   2.436   5.476   3.131 -3.3604  1.6313 -0.7640
 4081SOL    HW213143   2.520   5.426   3.000  0.9266 -1.9178  3.0076
 4082SOL     OW13144   6.974   5.333   0.381 -0.0537 -0.1453 -0.0268
 4082SOL    HW113145   7.040   5.397   0.342 -0.1825 -0.3668 -0.6154
 4082SOL    HW213146   6.910   5.303   0.310  1.8408 -3.3032 -0.5803
 4083SOL     OW13147   5.579   3.768   3.854 -0.0511  0.4472 -0.5989
 4083SOL    HW113148   5.481   3.749   3.855  0.0465 -0.0743  0.3135
 4083SOL    HW213149   5.627   3.693   3.808  0.1857 -0.8457  1.6301
 4084SOL     OW13150   0.479   2.242   3.080  0.1133 -0.6237  0.0824
 4084SOL    HW113151   0.501   2.198   3.168  2.8664 -1.7063 -1.0069
 4084SOL    HW213152   0.505   2.339   3.084  0.3400 -0.6959  0.4398
 4085SOL     OW13153   3.942   0.778   2.154  0.0679 -0.2896  0.8783
 4085SOL    HW113154   3.988   0.844   2.095  0.6554 -1.1254  0.3906
 4085SOL    HW213155   3.948   0.809   2.249  0.5825  0.2117  0.6878
 4086SOL     OW13156   3.012   0.720   1.408 -0.1088 -0.1013 -0.3327
 4086SOL    HW113157   3.063   0.635   1.410 -1.1335 -0.7332  1.1179
 4086SOL    HW213158   2.984   0.741   1.314  0.6996 -1.0114 -0.7875
 4087SOL     OW13159   2.151   3.006   2.880  0.7199 -0.3176 -0.1605
 4087SOL    HW113160   2.188   3.082   2.934  0.8201 -0.5084  0.0388
 4087SOL    HW213161   2.081   2.958   2.933  2.1958 -1.7219  0.5762
 4088SOL     OW13162   0.190   1.989   1.384 -0.1109  0.4997  0.2421
 4088SOL    HW113163   0.104   2.014   1.340 -0.4362 -0.0305  0.5546
 4088SOL    HW213164   0.184   1.894   1.416  0.9262  0.1445 -0.5549
 4089SOL     OW13165   1.567   5.005   2.261 -0.2513  0.3481 -0.6139
 4089SOL    HW113166   1.613   4.939   2.202 -1.7577 -0.7823 -0.5624
 4089SOL    HW213167   1.472   5.016   2.232 -0.5756  0.9783  0.6225
 4090SOL     OW13168   1.706   3.460   6.017  0.1321 -0.1830 -0.4109
 4090SOL    HW113169   1.764   3.408   6.080  0.1148  0.5956  0.2618
 4090SOL    HW213170   1.704   3.414   5.928  0.2715 -1.2301  0.1034
 4091SOL     OW13171   4.803   5.015   1.439  0.4981 -0.3569 -0.7840
 4091SOL    HW113172   4.765   5.046   1.526 -0.6037 -0.6111 -1.1506
 4091SOL    HW213173   4.903   5.015   1.444  0.4511 -0.5352  0.5262
 4092SOL     OW13174   5.156   2.459   5.697 -0.0183 -0.2245  0.1928
 4092SOL    HW113175   5.221   2.506   5.638 -0.5255 -0.4355 -0.5578
 4092SOL    HW213176   5.081   2.422   5.641 -0.3739 -0.6625  0.9394
 4093SOL     OW13177   4.478   6.223   2.353 -0.2800 -0.1596 -0.2278
 4093SOL    HW113178   4.466   6.124   2.356 -0.3333 -0.1769 -0.8678
 4093SOL    HW213179   4.555   6.245   2.293  1.0035  0.0986  1.4678
 4094SOL     OW13180   3.765   6.164   4.905  0.5260  0.0251 -0.6868
 4094SOL    HW113181   3.808   6.077   4.879  0.9772 -0.2495  0.8872
 4094SOL    HW213182   3.823   6.240   4.876  0.3527 -0.1936 -1.6616
 4095SOL     OW13183   0.274   4.460   6.483  0.2861  0.0658  0.0543
 4095SOL    HW113184   0.236   4.386   6.428  1.6587 -1.3369  0.8925
 4095SOL    HW213185   0.210   4.537   6.485 -0.2470 -0.2041 -2.6147
 4096SOL     OW13186   5.887   5.535   1.024 -0.8064 -0.3634  0.5098
 4096SOL    HW113187   5.974   5.537   1.074 -0.7636  0.5741  0.4089
 4096SOL    HW213188   5.861   5.440   1.006 -0.0530 -0.6640  0.9747
 4097SOL     OW13189   3.229   2.210   6.404 -0.4853 -0.3137 -0.0936
 4097SOL    HW113190   3.291   2.226   6.481  0.8783 -1.8912 -0.7940
 4097SOL    HW213191   3.258   2.266   6.326 -0.4312 -0.4443 -0.1677
 4098SOL     OW13192   6.455   5.158   1.273 -0.1984 -0.2502 -0.4573
 4098SOL    HW113193   6.365   5.167   1.315  0.5405 -0.7476  1.2921
 4098SOL    HW213194   6.465   5.067   1.233 -0.4917 -0.1606 -0.7404
 4099SOL     OW13195   4.418   5.534   0.331 -0.2801 -0.1140 -0.3134
 4099SOL    HW113196   4.318   5.544   0.329 -0.3133 -0.4062 -2.2347
 4099SOL    HW213197   4.443   5.466   0.399 -1.4399 -0.4048 -0.1556
 4100SOL     OW13198   6.738   4.712   5.436 -0.3162  0.1154  0.3330
 4100SOL    HW113199   6.836   4.732   5.439 -0.5671  1.5169  0.0401
 4100SOL    HW213200   6.702   4.736   5.346 -1.0726  0.3521  0.6906
 4101SOL     OW13201   0.755   0.222   6.122  0.1235 -0.2257 -0.7070
 4101SOL    HW113202   0.814   0.167   6.181  0.1199  0.3484 -0.1615
 4101SOL    HW213203   0.809   0.259   6.046  0.6072  0.7398  0.0836
 4102SOL     OW13204   4.562   0.410   0.655 -0.3829 -0.4447  0.2873
 4102SOL    HW113205   4.481   0.460   0.684 -0.3301 -0.0556 -0.2243
 4102SOL    HW213206   4.542   0.312   0.652 -0.9241 -0.3271 -0.1287
 4103SOL     OW13207   0.825   0.373   0.173  0.2665 -0.1150 -0.5724
 4103SOL    HW113208   0.750   0.307   0.158 -0.0595 -0.2477  1.4088
 4103SOL    HW213209   0.881   0.378   0.090 -1.0413 -1.1535 -1.5778
 4104SOL     OW13210   0.730   6.062   2.260 -0.1147 -0.0000 -0.5726
 4104SOL    HW113211   0.649   6.121   2.258  0.5147  0.9179  0.1690
 4104SOL    HW213212   0.751   6.039   2.355 -0.2189 -1.2547 -0.8383
 4105SOL     OW13213   4.581   3.813   1.376 -0.0177  0.7164 -0.1603
 4105SOL    HW113214   4.586   3.910   1.398 -1.2535  0.9071 -0.6623
 4105SOL    HW213215   4.630   3.796   1.290  2.5477  0.4018  1.2589
 4106SOL     OW13216   0.036   2.917   5.037  0.7500  0.1074 -0.6510
 4106SOL    HW113217   0.029   2.986   5.109 -2.0912 -0.9583  0.2628
 4106SOL    HW213218   0.116   2.860   5.053 -0.8488 -1.4452  3.1118
 4107SOL     OW13219   1.638   6.960   6.293 -0.4178  0.3723 -1.1928
 4107SOL    HW113220   1.667   7.046   6.250 -0.1232  0.7110 -0.3311
 4107SOL    HW213221   1.578   6.980   6.370 -0.6067 -0.2193 -1.1796
 4108SOL     OW13222   0.634   5.473   6.429 -0.1929  0.3346 -0.1118
 4108SOL    HW113223   0.684   5.559   6.438 -0.2690  0.2560  1.2645
 4108SOL    HW213224   0.536   5.490   6.432 -0.2547  0.0363  2.8933
 4109SOL     OW13225   3.397   6.034   3.515  0.4243  0.1283 -0.0425
 4109SOL    HW113226   3.337   6.084   3.453  0.6754 -1.4083 -1.6357
 4109SOL    HW213227   3.438   5.957   3.466  2.3055  0.0720  1.4907
 4110SOL     OW13228   4.956   2.711   1.821 -0.7813 -0.2159 -0.2589
 4110SOL    HW113229   4.880   2.658   1.785 -0.8650  0.0391 -0.4581
 4110SOL    HW213230   5.042   2.668   1.794 -0.8290 -1.7419  1.7606
 4111SOL     OW13231   4.170   0.979   1.203 -0.0402 -0.4608 -0.4860
 4111SOL    HW113232   4.247   0.932   1.246  0.7899 -0.0084 -1.4218
 4111SOL    HW213233   4.135   0.923   1.128  1.7413  0.8249 -2.4124
 4112SOL     OW13234   1.857   1.053   5.354  0.5007  0.0586 -0.3760
 4112SOL    HW113235   1.788   0.986   5.325  1.1157 -0.7432 -0.0529
 4112SOL    HW213236   1.869   1.047   5.453 -1.5646  2.7505  0.1467
 4113SOL     OW13237   3.931   6.574   5.467 -0.5083  0.1404  0.3041
 4113SOL    HW113238   3.962   6.563   5.372 -5.0958  1.3915 -1.5760
 4113SOL    HW213239   3.900   6.668   5.482 -2.0855 -0.6178  2.2947
 4114SOL     OW13240   3.515   2.062   4.270  0.6876  0.4985  0.1679
 4114SOL    HW113241   3.564   2.069   4.183  1.1577  3.3248  0.5651
 4114SOL    HW213242   3.581   2.071   4.345 -0.1305  2.2839  0.7277
 4115SOL     OW13243   6.092   5.216   3.534  0.0321  0.1607 -0.2849
 4115SOL    HW113244   6.073   5.220   3.436 -1.6549  0.6410  0.0370
 4115SOL    HW213245   6.190   5.226   3.549  0.3686 -0.3850 -1.9456
 4116SOL     OW13246   5.458   1.551   2.507  0.4200  0.2672 -0.1977
 4116SOL    HW113247   5.518   1.475   2.482  0.3757  0.3436 -0.5514
 4116SOL    HW213248   5.512   1.626   2.545  0.1402 -1.4246  4.0851
 4117SOL     OW13249   1.042   5.142   1.913 -0.7436 -0.0408 -0.1462
 4117SOL    HW113250   0.986   5.127   1.831 -0.3732  0.4054 -0.4886
 4117SOL    HW213251   1.051   5.057   1.964 -1.2823 -0.2390 -0.3755
 4118SOL     OW13252   2.390   6.919   5.956 -1.1233 -0.2314 -0.8631
 4118SOL    HW113253   2.352   7.008   5.980  3.5574  1.3712  2.1220
 4118SOL    HW213254   2.372   6.853   6.030  0.8139  0.3010  0.1639
 4119SOL     OW13255   4.526   2.199   3.709  0.2234  0.1337  0.2084
 4119SOL    HW113256   4.525   2.178   3.611 -0.7999  2.2430 -0.2882
 4119SOL    HW213257   4.495   2.119   3.760 -0.7443 -0.5226 -1.3136
 4120SOL     OW13258   6.718   6.063   1.726  0.3017  0.4518  0.4103
 4120SOL    HW113259   6.776   6.075   1.807  0.5802  0.1800  0.2552
 4120SOL    HW213260   6.705   6.151   1.681 -1.9769  1.1044  2.1648
 4121SOL     OW13261   5.326   1.717   2.300 -0.2669  0.1143 -0.2438
 4121SOL    HW113262   5.247   1.659   2.277  0.8336 -1.5069 -0.1295
 4121SOL    HW213263   5.409   1.676   2.262  0.9122  0.1444  2.1347
 4122SOL     OW13264   0.650   5.808   0.624  0.5666 -0.0916  0.2739
 4122SOL    HW113265   0.643   5.889   0.683  1.8373 -0.2291  0.6254
 4122SOL    HW213266   0.625   5.726   0.676 -0.1563 -0.0025  0.0785
 4123SOL     OW13267   5.149   4.927   4.363  0.3754 -0.5315  0.0670
 4123SOL    HW113268   5.069   4.888   4.410  1.0700 -0.5169  1.3192
 4123SOL    HW213269   5.172   4.870   4.285 -1.5256  0.0784 -1.0119
 4124SOL     OW13270   1.173   5.938   5.181  0.5637 -0.5434  0.0534
 4124SOL    HW113271   1.111   6.013   5.204 -0.4297 -1.2441 -0.2979
 4124SOL    HW213272   1.128   5.875   5.118  0.6864 -2.4101  1.7209
 4125SOL     OW13273   5.196   6.466   1.513 -0.0895 -0.1849  0.2650
 4125SOL    HW113274   5.190   6.532   1.439 -0.3744  1.6071  1.8217
 4125SOL    HW213275   5.286   6.422   1.511  0.2539  0.5345 -0.5762
 4126SOL     OW13276   1.008   4.196   6.764 -0.0591 -0.3153  0.4368
 4126SOL    HW113277   1.098   4.156   6.781  0.1360  0.4446  1.2959
 4126SOL    HW213278   1.016   4.296   6.762 -1.2912 -0.0353  3.5817
 4127SOL     OW13279   5.062   5.378   3.696  0.0758 -0.3931  0.0038
 4127SOL    HW113280   5.158   5.348   3.702  0.3134  0.1417 -0.9216
 4127SOL    HW213281   5.042   5.437   3.774  0.7008  0.0170 -0.1352
 4128SOL     OW13282   2.154   3.968   1.973 -0.0080 -0.1545 -0.0731
 4128SOL    HW113283   2.155   3.988   2.071  0.5401 -0.7426  0.0506
 4128SOL    HW213284   2.070   3.920   1.949  0.5164 -1.3493  0.3994
 4129SOL     OW13285   5.578   1.742   6.574  0.3991 -0.3049  0.3964
 4129SOL    HW113286   5.547   1.757   6.668  0.3642 -0.5440  0.4254
 4129SOL    HW213287   5.641   1.664   6.572  0.5998 -0.1384  0.2605
 4130SOL     OW13288   5.749   3.258   5.482 -0.0131  0.4254 -0.8140
 4130SOL    HW113289   5.811   3.331   5.454  2.2638 -0.5097  1.3653
 4130SOL    HW213290   5.731   3.198   5.404 -0.0975  2.0347 -2.0788
 4131SOL     OW13291   1.264   6.658   3.837 -0.6570  0.2126  0.1326
 4131SOL    HW113292   1.308   6.605   3.909 -0.6469  0.5287  0.3608
 4131SOL    HW213293   1.301   6.750   3.836 -0.5732  0.1740 -0.3569
 4132SOL     OW13294   6.288   2.579   3.649 -0.3759  0.5471 -0.5298
 4132SOL    HW113295   6.221   2.651   3.669  0.0567  1.2264 -1.4733
 4132SOL    HW213296   6.247   2.511   3.589 -0.4744  0.5265 -0.4402
 4133SOL     OW13297   2.045   6.318   2.060  0.4183 -0.6804 -0.0316
 4133SOL    HW113298   2.081   6.327   1.968 -0.1411  0.7063 -0.1394
 4133SOL    HW213299   1.955   6.362   2.066  0.2580 -1.1108  1.0606
 4134SOL     OW13300   1.423   2.053   2.050 -0.4261 -0.0013 -0.7156
 4134SOL    HW113301   1.369   2.096   2.122 -1.0777 -0.1607 -1.1035
 4134SOL    HW213302   1.409   1.955   2.051 -0.2867 -0.0250 -0.9364
 4135SOL     OW13303   2.911   1.573   3.448  0.1620  0.0399  0.2943
 4135SOL    HW113304   2.983   1.521   3.403  0.7798 -0.0917  1.4128
 4135SOL    HW213305   2.926   1.573   3.546  1.2848  3.9156  0.2803
 4136SOL     OW13306   0.396   4.414   5.015  0.1957  0.1142 -0.3158
 4136SOL    HW113307   0.377   4.327   4.968  0.8839  0.5659 -1.4833
 4136SOL    HW213308   0.474   4.459   4.971  0.6235  0.7504  1.0565
 4137SOL     OW13309   1.595   1.829   1.673  0.4791  0.4533  0.1363
 4137SOL    HW113310   1.508   1.867   1.641  1.2504  1.1268 -1.2847
 4137SOL    HW213311   1.656   1.904   1.700 -0.0447 -0.0743  3.1388
 4138SOL     OW13312   4.450   5.953   4.780 -0.5032  0.0574 -0.0905
 4138SOL    HW113313   4.460   5.881   4.711 -0.9847 -1.1331  1.0431
 4138SOL    HW213314   4.461   5.914   4.871  1.7227  1.8712  0.5118
 4139SOL     OW13315   2.864   2.089   4.776  0.3986  0.3787  0.3609
 4139SOL    HW113316   2.960   2.099   4.748  0.5001 -0.7891  0.2529
 4139SOL    HW213317   2.810   2.164   4.738  1.1252  0.6110 -0.2300
 4140SOL     OW13318   4.138   0.332   5.609 -0.0077 -0.1900  0.6234
 4140SOL    HW113319   4.165   0.241   5.639 -1.6657 -1.0891 -0.4292
 4140SOL    HW213320   4.049   0.356   5.649  0.2711  0.8593  0.6651
 4141SOL     OW13321   5.650   4.881   1.227  0.0564 -0.7609 -0.6302
 4141SOL    HW113322   5.647   4.877   1.327 -1.2660  1.2374 -0.5232
 4141SOL    HW213323   5.734   4.926   1.198 -0.3774  0.3017 -0.2915
 4142SOL     OW13324   0.764   4.202   0.618 -0.2784  0.2176 -0.0755
 4142SOL    HW113325   0.825   4.277   0.592 -1.2694  0.4915 -1.7137
 4142SOL    HW213326   0.799   4.159   0.702  1.4633  1.1479 -0.2660
 4143SOL     OW13327   0.254   4.375   1.867  0.4052  0.2095  0.6137
 4143SOL    HW113328   0.189   4.358   1.793  0.8035 -1.6884  0.6554
 4143SOL    HW213329   0.313   4.452   1.842 -0.5497  0.6689 -0.3011
 4144SOL     OW13330   5.540   0.832   1.733  0.2196 -0.1566 -0.0146
 4144SOL    HW113331   5.614   0.867   1.791 -1.9818  2.4225  1.4109
 4144SOL    HW213332   5.514   0.901   1.665 -1.6611 -0.5089  0.2965
 4145SOL     OW13333   0.140   6.629   0.986  0.0582  0.2026 -0.4238
 4145SOL    HW113334   0.041   6.642   0.980  0.0940  0.3594 -0.7108
 4145SOL    HW213335   0.176   6.599   0.897  0.0942 -1.1357  0.0337
 4146SOL     OW13336   5.616   1.330   4.350 -0.0233  0.4275  0.2095
 4146SOL    HW113337   5.711   1.310   4.374  0.6818  2.6386 -0.5476
 4146SOL    HW213338   5.580   1.402   4.410 -0.7709  0.5691 -0.3880
 4147SOL     OW13339   4.433   0.143   5.180  0.2968  0.4568 -0.1120
 4147SOL    HW113340   4.493   0.070   5.215  0.8791  1.9112  2.1484
 4147SOL    HW213341   4.473   0.181   5.096  0.4904 -1.1402 -0.7776
 4148SOL     OW13342   0.863   1.476   2.591  0.2916  0.2054 -0.1321
 4148SOL    HW113343   0.796   1.486   2.663 -1.9667  0.6117 -2.1571
 4148SOL    HW213344   0.818   1.445   2.507  3.0372 -1.9187 -0.9902
 4149SOL     OW13345   1.440   5.731   1.346 -0.3186 -1.0846 -0.0640
 4149SOL    HW113346   1.434   5.737   1.246  0.6454  0.1718 -0.0713
 4149SOL    HW213347   1.348   5.737   1.385 -0.7260 -1.8367 -0.8691
 4150SOL     OW13348   5.705   6.095   6.655 -0.3594 -0.6252 -0.0721
 4150SOL    HW113349   5.620   6.132   6.618  0.1002 -0.0925 -0.6055
 4150SOL    HW213350   5.708   6.111   6.754  0.3878  1.9586 -0.4444
 4151SOL     OW13351   6.331   0.255   6.791 -0.6989 -0.7607 -0.1402
 4151SOL    HW113352   6.300   0.182   6.853  2.3212 -1.2066  1.0528
 4151SOL    HW213353   6.388   0.214   6.719  1.1867  0.3219  0.6492
 4152SOL     OW13354   2.138   5.251   2.731 -0.6265  0.4258 -0.1134
 4152SOL    HW113355   2.138   5.317   2.806 -1.7798 -0.0001  0.2943
 4152SOL    HW213356   2.218   5.265   2.674  0.8255  0.1471  1.7545
 4153SOL     OW13357   5.057   5.172   6.089 -0.1758 -0.3772  0.3613
 4153SOL    HW113358   5.147   5.128   6.096 -0.2610 -0.3707  1.8862
 4153SOL    HW213359   4.989   5.118   6.139 -0.3654  1.1833  1.9102
 4154SOL     OW13360   6.026   2.898   5.067 -0.2998 -0.2194  0.0418
 4154SOL    HW113361   5.970   2.865   5.143 -0.4425  0.8715  0.4254
 4154SOL    HW213362   6.115   2.853   5.070  0.5139  1.3585  2.1816
 4155SOL     OW13363   6.705   2.475   3.092 -0.4521  0.1643 -0.6766
 4155SOL    HW113364   6.650   2.484   3.009 -0.3543  3.4078 -0.5401
 4155SOL    HW213365   6.688   2.554   3.151 -0.0085 -1.6912  2.1284
 4156SOL     OW13366   0.953   0.056   6.236 -0.0052 -0.6481 -0.3815
 4156SOL    HW113367   1.031   0.090   6.184 -0.0194  2.4053  1.3658
 4156SOL    HW213368   0.980   0.042   6.331 -1.1089 -1.6533 -0.1906
 4157SOL     OW13369   4.336   0.227   3.742  0.0548  0.0276 -0.3506
 4157SOL    HW113370   4.314   0.255   3.648  0.6903  2.1686  0.0992
 4157SOL    HW213371   4.312   0.300   3.805  0.9871 -0.8026  1.0109
 4158SOL     OW13372   1.030   2.720   3.673  0.5534 -0.2156 -0.0533
 4158SOL    HW113373   1.087   2.648   3.634 -0.3615 -1.1237  0.2378
 4158SOL    HW213374   1.025   2.708   3.772 -2.3129 -1.8765 -0.2793
 4159SOL     OW13375   2.644   2.868   5.337 -0.4626  0.6005 -0.2346
 4159SOL    HW113376   2.599   2.949   5.299 -1.2785 -0.3329 -1.3588
 4159SOL    HW213377   2.581   2.790   5.332  1.0480 -0.6199 -1.2893
 4160SOL     OW13378   0.765   6.813   3.135 -0.7845  0.2235 -0.2091
 4160SOL    HW113379   0.706   6.795   3.214  0.2475  0.3384  0.6165
 4160SOL    HW213380   0.790   6.910   3.134  1.5729 -0.2943  1.0778
 4161SOL     OW13381   2.241   5.590   6.676 -0.3080  0.3158 -0.3587
 4161SOL    HW113382   2.143   5.580   6.696  0.1664 -0.6803  1.7470
 4161SOL    HW213383   2.263   5.538   6.593 -1.7092  1.4225 -1.4928
 4162SOL     OW13384   3.650   6.594   4.248  0.0568 -0.7191  0.4409
 4162SOL    HW113385   3.737   6.633   4.217  0.4454 -0.9401  1.2245
 4162SOL    HW213386   3.581   6.666   4.254 -0.3411 -0.8009 -1.8707
 4163SOL     OW13387   5.671   2.942   3.788 -0.1909  0.5483  0.0198
 4163SOL    HW113388   5.593   2.903   3.837  0.3005  0.2319  0.5711
 4163SOL    HW213389   5.639   3.004   3.717 -0.9819 -0.4923 -0.5512
 4164SOL     OW13390   1.235   5.518   6.382 -0.0234 -0.3795 -0.0177
 4164SOL    HW113391   1.260   5.613   6.404 -0.8300 -0.1148 -0.1832
 4164SOL    HW213392   1.151   5.494   6.430 -0.7966 -0.4109 -1.3200
 4165SOL     OW13393   5.566   1.298   2.106 -0.4261 -0.0809 -0.1749
 4165SOL    HW113394   5.565   1.198   2.106 -0.7808 -0.0822  0.8941
 4165SOL    HW213395   5.477   1.331   2.075 -1.1098 -0.1157  1.6568
 4166SOL     OW13396   3.506   0.085   0.613  0.7729 -0.4064 -0.2693
 4166SOL    HW113397   3.443   0.159   0.634  1.9179  1.2646 -2.3235
 4166SOL    HW213398   3.531   0.037   0.697 -0.8574  0.8069  0.9641
 4167SOL     OW13399   3.597   1.929   1.571 -0.5530 -0.6147 -0.0620
 4167SOL    HW113400   3.601   2.013   1.517 -0.0400 -0.4565  0.2220
 4167SOL    HW213401   3.667   1.931   1.642  0.0484 -1.6617 -0.5975
 4168SOL     OW13402   1.268   4.525   0.509 -0.1086  0.3804  0.2710
 4168SOL    HW113403   1.293   4.431   0.486  0.2089  0.6931 -0.7358
 4168SOL    HW213404   1.230   4.570   0.428 -0.8501  0.9285  0.9093
 4169SOL     OW13405   5.182   3.287   2.763  0.3102  0.5909  0.3149
 4169SOL    HW113406   5.245   3.287   2.841 -0.4427 -1.2021  0.9872
 4169SOL    HW213407   5.167   3.193   2.733  0.5628  1.2389 -2.0232
 4170SOL     OW13408   2.788   3.480   5.247  0.1118 -0.3969 -0.1826
 4170SOL    HW113409   2.758   3.385   5.242  0.6344 -0.5601 -0.2868
 4170SOL    HW213410   2.716   3.536   5.288 -1.1166 -0.4267 -2.1687
 4171SOL     OW13411   6.539   5.519   1.661  0.0511 -0.5665 -0.4830
 4171SOL    HW113412   6.477   5.441   1.672 -0.3244 -0.0671  1.1544
 4171SOL    HW213413   6.591   5.508   1.576  1.0826 -3.3643  0.3977
 4172SOL     OW13414   4.787   1.087   5.839  0.1950 -0.2194  0.2058
 4172SOL    HW113415   4.749   1.173   5.875 -0.3462  0.4495 -1.8428
 4172SOL    HW213416   4.763   1.012   5.900  0.8931  1.0814  2.2042
 4173SOL     OW13417   4.907   3.494   5.303  0.5436 -0.0860  0.2168
 4173SOL    HW113418   4.922   3.395   5.301 -0.1006 -0.2016  0.8667
 4173SOL    HW213419   4.825   3.517   5.251 -0.6471 -0.1693  1.9656
 4174SOL     OW13420   5.675   0.598   4.778  0.3293  0.4931  0.3595
 4174SOL    HW113421   5.653   0.522   4.839  1.4941  1.2812  1.8184
 4174SOL    HW213422   5.770   0.626   4.791  1.0064 -0.0206 -2.6653
 4175SOL     OW13423   3.632   0.395   3.245 -0.1214 -0.1959 -0.0527
 4175SOL    HW113424   3.534   0.375   3.236 -0.2606  0.3371  0.2422
 4175SOL    HW213425   3.685   0.324   3.199 -0.6861  0.1795 -1.3171
 4176SOL     OW13426   3.280   0.767   2.650 -0.7390 -0.3755 -0.2724
 4176SOL    HW113427   3.306   0.772   2.746 -0.0176 -0.3995 -0.4665
 4176SOL    HW213428   3.259   0.859   2.616  4.4760  0.6501 -1.5882
 4177SOL     OW13429   6.947   4.354   4.928 -0.1794 -0.6075 -0.3231
 4177SOL    HW113430   6.939   4.377   5.025  0.5178  0.1189 -0.4321
 4177SOL    HW213431   6.858   4.366   4.884 -0.2912 -0.0343  0.0428
 4178SOL     OW13432   4.316   2.549   6.108  0.4473  0.5739 -0.7096
 4178SOL    HW113433   4.333   2.484   6.182  1.0336  1.3726 -0.1400
 4178SOL    HW213434   4.308   2.499   6.022  1.1909 -0.2314 -0.3271
 4179SOL     OW13435   5.060   2.168   5.752 -0.1552  0.3762 -0.0253
 4179SOL    HW113436   5.109   2.193   5.668 -0.6848 -2.2359 -1.2263
 4179SOL    HW213437   4.962   2.178   5.738 -0.2071  0.8209  0.6223
 4180SOL     OW13438   6.333   5.359   0.082  0.6795  0.7168  0.3120
 4180SOL    HW113439   6.429   5.349   0.107  0.1895  0.8697  2.4264
 4180SOL    HW213440   6.325   5.424   0.006  2.2574  0.2549 -0.2996
 4181SOL     OW13441   0.826   1.207   0.164  0.7653  0.1880 -0.5584
 4181SOL    HW113442   0.769   1.290   0.170  2.2742  1.3803 -1.9085
 4181SOL    HW213443   0.859   1.197   0.070  0.8575 -1.8138 -0.3385
 4182SOL     OW13444   6.613   1.797   3.236  0.4508 -0.4039 -0.6827
 4182SOL    HW113445   6.636   1.702   3.219  0.2405 -0.7029  0.6333
 4182SOL    HW213446   6.548   1.804   3.311  0.9076  0.8092 -0.3626
 4183SOL     OW13447   4.279   0.593   0.997 -0.1960 -0.1502 -0.0690
 4183SOL    HW113448   4.275   0.687   1.033 -0.9149 -0.9594  2.1257
 4183SOL    HW213449   4.365   0.551   1.027 -1.3131 -1.2144  1.8778
 4184SOL     OW13450   4.054   4.842   0.721 -0.9997 -0.3587 -0.1061
 4184SOL    HW113451   4.049   4.742   0.722  0.0735 -0.4322 -0.5073
 4184SOL    HW213452   3.975   4.879   0.672 -0.5030 -1.1016 -1.5137
 4185SOL     OW13453   1.607   5.991   3.038  0.1614  0.6264 -0.1676
 4185SOL    HW113454   1.574   5.980   3.131 -0.9078  0.2152 -0.5863
 4185SOL    HW213455   1.705   6.011   3.040  0.1504  0.6315  1.0351
 4186SOL     OW13456   2.213   4.557   1.322 -0.2842 -0.4317 -0.5291
 4186SOL    HW113457   2.300   4.546   1.371  0.4400  0.3566 -1.5919
 4186SOL    HW213458   2.145   4.596   1.383  0.0269 -1.2981  0.3964
 4187SOL     OW13459   2.924   3.697   5.654 -0.3841 -0.4703 -0.9325
 4187SOL    HW113460   3.021   3.720   5.659 -0.8074  1.2336  0.0991
 4187SOL    HW213461   2.914   3.600   5.632  1.5624 -1.1445  0.8508
 4188SOL     OW13462   4.876   0.456   4.002 -0.1027  0.7002 -0.6517
 4188SOL    HW113463   4.892   0.531   3.938  0.7513  3.2090  2.2777
 4188SOL    HW213464   4.959   0.439   4.055  0.2144 -3.4251 -2.1278
 4189SOL     OW13465   2.127   3.061   3.695 -0.1737  0.0146  0.2105
 4189SOL    HW113466   2.123   2.968   3.732 -1.9476 -0.6244 -1.3801
 4189SOL    HW213467   2.154   3.057   3.599 -1.2916  1.0304 -0.1683
 4190SOL     OW13468   3.194   6.807   5.715 -0.2783 -0.3110 -0.3494
 4190SOL    HW113469   3.130   6.779   5.643  0.7044  0.4439 -1.5623
 4190SOL    HW213470   3.283   6.827   5.674  0.6654 -1.0066  1.2500
 4191SOL     OW13471   5.561   2.578   3.314 -0.2618 -0.1449  0.4652
 4191SOL    HW113472   5.539   2.641   3.388  1.6296  0.0751  0.8715
 4191SOL    HW213473   5.522   2.488   3.335  0.2119 -0.0758  1.7040
 4192SOL     OW13474   0.883   2.557   4.230 -0.4084  0.4533  0.2238
 4192SOL    HW113475   0.908   2.612   4.150  2.0711  0.3344  0.8137
 4192SOL    HW213476   0.931   2.593   4.311 -1.6823 -0.3255  1.3661
 4193SOL     OW13477   1.526   5.188   3.105 -0.1713  0.1583  0.2063
 4193SOL    HW113478   1.495   5.142   3.022 -0.6325  0.5778  0.1401
 4193SOL    HW213479   1.571   5.274   3.080  2.7483 -1.2540  0.1526
 4194SOL     OW13480   4.792   2.785   3.254 -0.0941  0.5384  0.2206
 4194SOL    HW113481   4.875   2.753   3.300 -0.0601  2.5228  1.6565
 4194SOL    HW213482   4.815   2.862   3.194 -0.6914  0.1566 -0.5091
 4195SOL     OW13483   2.642   5.207   2.416 -0.0932  0.1722  0.5071
 4195SOL    HW113484   2.741   5.204   2.427 -0.0656  0.2714  0.2899
 4195SOL    HW213485   2.603   5.119   2.444  0.3378 -0.9491 -2.1064
 4196SOL     OW13486   5.827   2.201   6.001 -0.6748  0.5395  0.3702
 4196SOL    HW113487   5.821   2.190   6.100  0.6296  0.4584  0.4569
 4196SOL    HW213488   5.763   2.138   5.956 -0.2891 -0.4130  1.1283
 4197SOL     OW13489   0.231   3.088   2.376 -0.8032 -0.5089  0.0692
 4197SOL    HW113490   0.280   3.155   2.319 -2.6765  0.2145 -0.7712
 4197SOL    HW213491   0.258   2.995   2.347  0.1844 -0.1459 -0.2431
 4198SOL     OW13492   5.638   3.560   0.800 -0.1528 -0.2196  0.4774
 4198SOL    HW113493   5.673   3.634   0.857  0.4277  1.1025 -1.4841
 4198SOL    HW213494   5.560   3.517   0.845  0.2061  0.8323  2.1744
 4199SOL     OW13495   1.626   3.585   0.589 -0.2964 -0.3194 -0.1925
 4199SOL    HW113496   1.703   3.648   0.592  0.2569 -0.9926  2.8077
 4199SOL    HW213497   1.542   3.632   0.617 -0.9533  0.2228 -2.7492
 4200SOL     OW13498   2.310   6.728   6.584  0.5703 -0.0537  0.4379
 4200SOL    HW113499   2.256   6.752   6.665  0.2817  0.9084 -0.0190
 4200SOL    HW213500   2.266   6.766   6.502 -0.5963 -3.1876 -0.5426
 4201SOL     OW13501   5.183   5.801   3.855  0.0929  0.1990  0.5274
 4201SOL    HW113502   5.193   5.787   3.954 -0.1354  2.7434  0.9657
 4201SOL    HW213503   5.089   5.783   3.828 -0.5169  2.0018  1.3007
 4202SOL     OW13504   4.890   2.761   0.088 -0.0145  0.3293  0.0123
 4202SOL    HW113505   4.938   2.802   0.010  1.1613 -1.6888 -0.3815
 4202SOL    HW213506   4.929   2.796   0.173  1.7712 -0.7373 -0.3085
 4203SOL     OW13507   3.987   0.072   1.584  0.0264 -0.5341 -0.0201
 4203SOL    HW113508   4.073   0.021   1.587 -0.4907 -1.3654  1.5809
 4203SOL    HW213509   3.914   0.018   1.625 -0.8312  0.9606  0.5274
 4204SOL     OW13510   3.835   2.313   0.810  0.5017 -1.0956  0.4160
 4204SOL    HW113511   3.836   2.364   0.896  1.5642 -1.7798  0.8259
 4204SOL    HW213512   3.761   2.245   0.813 -1.2056  0.6417 -0.3092
 4205SOL     OW13513   4.281   4.892   4.705  0.1075  0.4770 -0.8782
 4205SOL    HW113514   4.236   4.887   4.794 -1.1843  1.1157 -1.4811
 4205SOL    HW213515   4.299   4.799   4.672 -0.2061  0.2280 -0.3590
 4206SOL     OW13516   5.266   0.053   0.088  0.8041  0.4820  0.5011
 4206SOL    HW113517   5.172   0.083   0.103  0.7453 -0.3171  1.9487
 4206SOL    HW213518   5.330   0.121   0.125  0.7471  0.2509  1.0316
 4207SOL     OW13519   2.553   0.269   3.043  0.5585 -0.3510  0.1828
 4207SOL    HW113520   2.574   0.356   3.087  1.3334 -1.6169  2.4524
 4207SOL    HW213521   2.580   0.273   2.947  1.3060  1.6268  0.4368
 4208SOL     OW13522   0.467   1.920   1.465 -0.1369  0.4597 -0.5277
 4208SOL    HW113523   0.380   1.960   1.435 -0.0760 -0.3937 -1.9086
 4208SOL    HW213524   0.533   1.925   1.390 -0.6660 -3.8375 -1.5197
 4209SOL     OW13525   1.297   0.166   4.080  0.2075 -0.0784 -0.1705
 4209SOL    HW113526   1.291   0.170   4.180 -2.4937  1.3335 -0.2906
 4209SOL    HW213527   1.343   0.248   4.046 -3.6342  2.3468 -0.1616
 4210SOL     OW13528   4.971   3.432   0.509  0.2497  0.1344 -1.0862
 4210SOL    HW113529   5.016   3.510   0.552  0.3223 -0.5943  0.2357
 4210SOL    HW213530   4.877   3.456   0.486  0.7798  1.1338 -2.2985
 4211SOL     OW13531   5.289   5.053   6.091  0.6744  0.2736 -0.0381
 4211SOL    HW113532   5.371   5.063   6.034  0.8735 -0.6921  0.0691
 4211SOL    HW213533   5.305   4.984   6.161 -0.7132 -1.0099 -0.9215
 4212SOL     OW13534   2.768   1.282   1.720 -0.2145  0.7150  0.3283
 4212SOL    HW113535   2.704   1.325   1.655 -1.0872  0.3567  0.9278
 4212SOL    HW213536   2.734   1.296   1.813  0.6497  0.6009  0.6614
 4213SOL     OW13537   2.304   1.235   1.542  0.2528 -0.1168  0.5698
 4213SOL    HW113538   2.380   1.297   1.524 -0.8382  0.7747 -1.2572
 4213SOL    HW213539   2.323   1.146   1.500  0.5116 -0.0550  0.5572
 4214SOL     OW13540   0.448   4.742   5.967 -0.2662  0.2380 -0.3980
 4214SOL    HW113541   0.379   4.744   5.894 -0.0974 -1.9413 -0.7023
 4214SOL    HW213542   0.436   4.659   6.021  0.9330  0.7822  0.7624
 4215SOL     OW13543   0.735   5.165   3.285  0.1616  0.6595  0.2007
 4215SOL    HW113544   0.815   5.223   3.298  0.9646  0.0579 -1.7568
 4215SOL    HW213545   0.725   5.142   3.188 -2.9922  1.5498  0.1843
 4216SOL     OW13546   1.362   2.871   4.488  0.1052  0.1854  0.3470
 4216SOL    HW113547   1.284   2.907   4.437 -0.9793 -0.9634  1.1392
 4216SOL    HW213548   1.431   2.837   4.425 -0.2999  0.6720 -0.3631
 4217SOL     OW13549   0.056   1.607   2.588  0.3069  0.5693  0.0845
 4217SOL    HW113550   0.043   1.663   2.669 -1.0467  0.3992  0.0093
 4217SOL    HW213551  -0.029   1.558   2.567  1.8084 -2.6802  1.0097
 4218SOL     OW13552   5.343   5.604   1.228  0.6283 -0.1999 -0.6256
 4218SOL    HW113553   5.253   5.622   1.267  0.6618 -0.0759 -0.6031
 4218SOL    HW213554   5.354   5.658   1.144  0.2386 -1.0892 -1.2616
 4219SOL     OW13555   3.216   3.931   6.272  0.2121 -1.0964  0.4526
 4219SOL    HW113556   3.132   3.983   6.255 -0.1121 -1.8664 -0.4509
 4219SOL    HW213557   3.265   3.918   6.186  0.8891 -1.2822  0.8563
 4220SOL     OW13558   6.838   3.774   2.371 -0.2646  0.0892 -0.2435
 4220SOL    HW113559   6.862   3.805   2.279 -0.4776  0.7134 -0.0904
 4220SOL    HW213560   6.748   3.809   2.396  0.9643  2.4266  1.3369
 4221SOL     OW13561   5.546   4.577   5.912 -0.0329 -0.1130  0.3947
 4221SOL    HW113562   5.618   4.526   5.960 -0.4821 -0.4679  0.7056
 4221SOL    HW213563   5.470   4.515   5.892 -0.0373  0.1407 -0.3894
 4222SOL     OW13564   4.872   3.087   2.593  0.5695  0.0915 -0.2418
 4222SOL    HW113565   4.956   3.041   2.563  1.5017 -0.5750  2.9893
 4222SOL    HW213566   4.795   3.025   2.583  0.7170  0.0856 -1.6054
 4223SOL     OW13567   3.809   3.335   2.508  0.0666  0.5064  0.5343
 4223SOL    HW113568   3.892   3.358   2.561 -0.8030  0.7785  1.8317
 4223SOL    HW213569   3.750   3.276   2.563 -1.5656  2.0094  0.4806
 4224SOL     OW13570   4.904   1.329   4.080 -0.0963  0.1005  0.3543
 4224SOL    HW113571   5.001   1.342   4.059 -0.1444  2.0069  1.0482
 4224SOL    HW213572   4.871   1.247   4.034  1.5850 -0.0153 -0.7684
 4225SOL     OW13573   0.112   0.349   5.337  1.0272  0.1902 -0.1316
 4225SOL    HW113574   0.189   0.317   5.391  0.1221 -2.1618 -0.1029
 4225SOL    HW213575   0.139   0.356   5.241  1.4591  0.0391 -0.0225
 4226SOL     OW13576   1.512   0.899   4.186 -0.0126  0.3988  0.0804
 4226SOL    HW113577   1.612   0.905   4.196 -0.0098 -0.3644  0.5844
 4226SOL    HW213578   1.485   0.944   4.101  0.7239  0.9049  0.0994
 4227SOL     OW13579   3.680   4.927   6.376 -0.0511  0.0084  0.2574
 4227SOL    HW113580   3.599   4.946   6.321  0.2707  1.7388  0.3396
 4227SOL    HW213581   3.652   4.896   6.467 -0.5821 -1.6077 -0.4040
 4228SOL     OW13582   4.844   5.909   4.390  0.8454  0.4647 -0.4117
 4228SOL    HW113583   4.753   5.904   4.432  0.9778 -1.6368 -0.2414
 4228SOL    HW213584   4.841   5.864   4.300  1.5267  1.1528 -0.7860
 4229SOL     OW13585   4.823   5.355   4.448 -0.7111  0.3151 -0.0663
 4229SOL    HW113586   4.832   5.364   4.547 -1.7111 -2.1184  0.3232
 4229SOL    HW213587   4.865   5.434   4.403  3.7960 -0.5315  2.1100
 4230SOL     OW13588   3.831   6.278   5.210  0.2522 -0.7232 -0.5131
 4230SOL    HW113589   3.856   6.190   5.172 -0.8308 -1.2049 -0.1529
 4230SOL    HW213590   3.743   6.307   5.173 -0.5086 -0.8879  1.0392
 4231SOL     OW13591   5.317   4.201   5.538  0.3698 -0.8456  0.6795
 4231SOL    HW113592   5.223   4.169   5.527 -0.9714  2.8793 -0.1984
 4231SOL    HW213593   5.356   4.221   5.448  0.9334  0.2724  1.1500
 4232SOL     OW13594   0.921   0.002   2.333 -0.3474 -0.0384  0.2554
 4232SOL    HW113595   0.883   0.083   2.377 -0.6905 -0.1381  0.1435
 4232SOL    HW213596   1.021   0.010   2.330 -0.4176  0.7524 -0.4569
 4233SOL     OW13597   6.635   6.467   5.918 -0.2555 -0.4182  0.4757
 4233SOL    HW113598   6.569   6.494   5.848 -0.3520  0.0105  0.7308
 4233SOL    HW213599   6.602   6.497   6.008 -0.1953 -1.0686  0.7249
 4234SOL     OW13600   0.432   5.303   4.379  0.6069 -0.4820 -0.1342
 4234SOL    HW113601   0.435   5.243   4.298 -1.1082 -0.1884 -0.4680
 4234SOL    HW213602   0.336   5.316   4.406  1.0698  0.6617  1.0307
 4235SOL     OW13603   5.698   3.312   6.091  0.1774 -0.1885  0.9563
 4235SOL    HW113604   5.751   3.396   6.092 -0.6125  0.3251  0.7950
 4235SOL    HW213605   5.619   3.321   6.153 -1.3300  0.1561 -0.9134
 4236SOL     OW13606   6.819   3.357   2.205 -0.0776  0.2929  0.2078
 4236SOL    HW113607   6.863   3.426   2.262 -0.6095 -0.1655  1.1913
 4236SOL    HW213608   6.809   3.272   2.256  1.2290 -0.7806 -1.2058
 4237SOL     OW13609   6.657   6.783   3.794 -0.6919  0.1499  0.0192
 4237SOL    HW113610   6.680   6.725   3.872  1.4213 -0.5819 -1.0839
 4237SOL    HW213611   6.657   6.728   3.710 -0.9937  1.2859 -0.7518
 4238SOL     OW13612   3.743   4.905   5.106  0.4867 -0.5381 -0.7274
 4238SOL    HW113613   3.795   4.901   5.021  2.9773 -1.0898  0.7396
 4238SOL    HW213614   3.779   4.838   5.171  1.2286  2.3880  2.1130
 4239SOL     OW13615   2.935   0.585   4.648  0.1745 -0.2743 -0.2126
 4239SOL    HW113616   2.894   0.516   4.589  0.0809 -0.7612  0.4096
 4239SOL    HW213617   2.967   0.662   4.592 -2.2234  0.4792 -0.6527
 4240SOL     OW13618   3.442   6.507   0.123 -0.5521  0.1638 -0.0129
 4240SOL    HW113619   3.438   6.533   0.220 -1.7486  0.1097 -0.0260
 4240SOL    HW213620   3.473   6.413   0.115  0.2073  0.3855  0.2732
 4241SOL     OW13621   6.714   0.707   3.164  0.3068 -0.0524 -0.1534
 4241SOL    HW113622   6.699   0.666   3.075  0.4503  1.9700 -1.1777
 4241SOL    HW213623   6.774   0.787   3.154 -0.4697  0.8107  1.5866
 4242SOL     OW13624   3.066   0.686   1.843  0.1284 -0.7938 -0.0826
 4242SOL    HW113625   2.967   0.693   1.836  0.2845  0.3582 -1.7355
 4242SOL    HW213626   3.095   0.712   1.935 -1.0455 -0.2472  0.1486
 4243SOL     OW13627   0.278   4.632   2.103  0.3619  0.7442  0.2170
 4243SOL    HW113628   0.330   4.708   2.066  0.7706  1.3895  1.9940
 4243SOL    HW213629   0.189   4.665   2.135  0.2404  0.3355  0.3082
 4244SOL     OW13630   5.266   6.199   0.039  0.4352 -0.5012  0.1058
 4244SOL    HW113631   5.293   6.279  -0.015 -2.0602  0.6620  0.3865
 4244SOL    HW213632   5.320   6.196   0.123 -1.1562  2.6316  1.4316
 4245SOL     OW13633   6.927   5.051   0.144 -0.3301  0.3390  0.0218
 4245SOL    HW113634   7.014   5.099   0.154 -1.4165  2.6428 -0.9513
 4245SOL    HW213635   6.920   4.980   0.214  3.0727 -1.1950 -1.0163
 4246SOL     OW13636   4.316   2.395   1.590 -0.8418 -0.6139 -0.3776
 4246SOL    HW113637   4.339   2.301   1.615 -2.3151 -0.3378  2.3589
 4246SOL    HW213638   4.395   2.454   1.609 -0.5411 -1.0253 -0.3270
 4247SOL     OW13639   3.362   5.154   6.046  0.8283 -0.4923  0.5193
 4247SOL    HW113640   3.455   5.142   6.082  1.0818  1.0142  0.4486
 4247SOL    HW213641   3.300   5.091   6.093  1.9336 -1.7737  0.3192
 4248SOL     OW13642   1.832   1.836   4.171  0.2467 -0.6223 -0.2118
 4248SOL    HW113643   1.825   1.770   4.246 -0.3155 -0.3063  0.0263
 4248SOL    HW213644   1.918   1.823   4.122  1.3935  0.1880  1.4692
 4249SOL     OW13645   6.839   1.980   4.257  0.4903 -0.2068 -0.0694
 4249SOL    HW113646   6.805   2.021   4.172  0.2038 -0.4980 -0.0963
 4249SOL    HW213647   6.813   2.037   4.334  0.5635 -0.0545 -0.1553
 4250SOL     OW13648   1.668   6.052   4.014  0.2972  0.2335  0.1219
 4250SOL    HW113649   1.585   6.079   4.062 -0.6629  1.1438 -1.9297
 4250SOL    HW213650   1.671   5.953   4.005 -0.4450  0.1767  0.4319
 4251SOL     OW13651   6.043   3.987   1.034 -0.3804  0.4036 -0.6439
 4251SOL    HW113652   5.991   4.020   1.112 -2.0101  1.5377 -2.1120
 4251SOL    HW213653   6.141   3.990   1.055 -0.7351  1.4516  1.0508
 4252SOL     OW13654   6.126   5.288   5.265 -0.9869  0.4668  0.2634
 4252SOL    HW113655   6.110   5.192   5.289 -0.9527  0.6648  1.1243
 4252SOL    HW213656   6.044   5.342   5.287 -2.0102  0.2628 -2.6062
 4253SOL     OW13657   3.899   5.972   2.121 -0.2070  0.1579  0.6153
 4253SOL    HW113658   3.930   6.056   2.165  0.3825  0.0365  0.4479
 4253SOL    HW213659   3.974   5.905   2.122 -0.1357  0.1880 -0.6605
 4254SOL     OW13660   1.988   3.432   0.730 -0.2834  0.2983 -0.6238
 4254SOL    HW113661   1.949   3.501   0.670  0.9331  0.9139 -0.7384
 4254SOL    HW213662   2.033   3.476   0.807 -0.8733 -0.4419  0.1667
 4255SOL     OW13663   1.509   4.336   3.559  0.6295 -0.7896  0.3358
 4255SOL    HW113664   1.493   4.395   3.480  0.2064 -0.3106  0.7718
 4255SOL    HW213665   1.457   4.251   3.548  0.2591 -0.5561  0.2859
 4256SOL     OW13666   1.364   5.484   1.721 -0.2190  0.0091 -0.4494
 4256SOL    HW113667   1.425   5.499   1.799  0.5380  2.3527 -1.3983
 4256SOL    HW213668   1.418   5.482   1.637 -1.3077  0.6693 -1.1868
 4257SOL     OW13669   6.420   1.128   3.831 -0.2738 -0.1939  0.0650
 4257SOL    HW113670   6.465   1.102   3.746 -1.1579  1.1538 -0.8491
 4257SOL    HW213671   6.350   1.196   3.813 -0.3441  0.2908  1.9134
 4258SOL     OW13672   2.868   6.998   1.207 -0.3459  0.3160  1.1023
 4258SOL    HW113673   2.781   6.972   1.166  0.1490 -0.9662  0.8219
 4258SOL    HW213674   2.911   6.919   1.250  1.1823  0.6551  0.3014
 4259SOL     OW13675   2.679   0.320   0.518  0.3752  0.5413 -0.7438
 4259SOL    HW113676   2.772   0.334   0.551  0.1607  1.6272 -0.5658
 4259SOL    HW213677   2.678   0.244   0.453  1.1812 -0.2091  0.0734
 4260SOL     OW13678   3.206   1.193   6.370  0.0927 -0.5478 -0.0969
 4260SOL    HW113679   3.289   1.224   6.416 -0.7515  1.0518  0.4085
 4260SOL    HW213680   3.196   1.242   6.283  0.6984 -2.2086 -1.1698
 4261SOL     OW13681   0.821   1.749   5.080  0.1142 -0.0043  0.6233
 4261SOL    HW113682   0.902   1.784   5.128  0.5028  1.5165 -1.0280
 4261SOL    HW213683   0.748   1.817   5.082 -1.0357 -1.2113  1.7580
 4262SOL     OW13684   2.074   5.290   0.190  0.7709 -0.6080  0.2604
 4262SOL    HW113685   2.077   5.284   0.090 -2.3977 -1.2807  0.1009
 4262SOL    HW213686   2.072   5.386   0.217 -1.9062 -0.3085 -0.6489
 4263SOL     OW13687   3.235   1.588   3.936  0.4277 -0.0155 -0.3021
 4263SOL    HW113688   3.234   1.687   3.945 -0.8780 -0.0437  0.0448
 4263SOL    HW213689   3.175   1.547   4.005 -0.2904 -0.9505 -1.4276
 4264SOL     OW13690   3.942   0.562   5.143 -0.6868 -0.0005  0.2640
 4264SOL    HW113691   3.984   0.650   5.123 -1.6447  0.4640  0.2752
 4264SOL    HW213692   4.003   0.509   5.203  0.3017  0.2725 -0.4673
 4265SOL     OW13693   1.930   0.172   1.054 -0.0702 -0.0780 -0.0620
 4265SOL    HW113694   1.989   0.211   1.126  0.8223 -0.1769 -0.7189
 4265SOL    HW213695   1.923   0.073   1.069 -0.6187  0.0253  0.3964
 4266SOL     OW13696   2.109   0.276   1.234 -0.1174 -0.3983  0.2471
 4266SOL    HW113697   2.049   0.333   1.289  1.0773  0.7537  0.4138
 4266SOL    HW213698   2.161   0.333   1.170  2.3285 -1.0013  1.5563
 4267SOL     OW13699   1.963   4.993   3.836 -0.1785 -0.0604  0.6395
 4267SOL    HW113700   2.033   5.062   3.856 -0.4445  0.1402  0.8886
 4267SOL    HW213701   1.872   5.033   3.847 -0.3410 -0.1053 -0.4533
 4268SOL     OW13702   0.699   5.151   0.495 -0.1613  0.1586 -0.1490
 4268SOL    HW113703   0.723   5.094   0.574 -0.2233 -0.2030 -0.3896
 4268SOL    HW213704   0.741   5.114   0.413 -0.3718  0.3425 -0.3418
 4269SOL     OW13705   2.027   1.119   4.203  0.7055 -0.3953 -0.3143
 4269SOL    HW113706   2.054   1.085   4.293 -0.7365 -0.1771  0.2252
 4269SOL    HW213707   2.077   1.069   4.132 -0.2248 -2.5887  0.5011
 4270SOL     OW13708   3.702   3.656   0.599  0.1531 -0.1584 -0.4283
 4270SOL    HW113709   3.671   3.688   0.688 -2.8287  0.0717 -1.4706
 4270SOL    HW213710   3.744   3.732   0.549 -1.2380  0.5917 -0.4942
 4271SOL     OW13711   0.432   6.836   3.982 -0.0482 -0.1366  0.0438
 4271SOL    HW113712   0.371   6.793   3.915 -0.3581  1.8682 -1.0410
 4271SOL    HW213713   0.384   6.909   4.029  1.6416  1.9592 -1.3203
 4272SOL     OW13714   0.640   1.421   3.740  0.7243 -0.4419 -0.1456
 4272SOL    HW113715   0.632   1.386   3.833  0.0223 -1.6264 -0.6323
 4272SOL    HW213716   0.655   1.520   3.743  0.7640 -0.4658  1.2148
 4273SOL     OW13717   4.071   6.586   3.956  0.0253  0.4349 -0.5006
 4273SOL    HW113718   4.064   6.576   3.857  1.1063  1.2277 -0.6814
 4273SOL    HW213719   4.042   6.501   4.000 -1.8288  0.5430 -1.4074
 4274SOL     OW13720   6.604   6.505   2.907 -0.2375 -0.3022  0.6141
 4274SOL    HW113721   6.526   6.445   2.924 -0.6597 -0.1658 -0.7137
 4274SOL    HW213722   6.574   6.600   2.907 -0.0506 -0.2408  0.2374
 4275SOL     OW13723   1.223   2.734   4.004  0.0462  0.1511  0.4843
 4275SOL    HW113724   1.129   2.764   4.015  0.3072  1.4979 -0.6986
 4275SOL    HW213725   1.236   2.646   4.050 -1.4579  0.5270  1.7027
 4276SOL     OW13726   1.020   4.567   2.914 -1.0273  0.2745 -0.0943
 4276SOL    HW113727   1.079   4.611   2.982 -2.2939 -0.4964  1.5715
 4276SOL    HW213728   0.927   4.558   2.950 -1.4329 -1.3874 -1.3976
 4277SOL     OW13729   4.888   4.777   3.651  0.3672 -0.2119  0.0267
 4277SOL    HW113730   4.822   4.841   3.689  0.8079  0.5511 -0.4717
 4277SOL    HW213731   4.943   4.738   3.725  0.7778  0.7628  0.2582
 4278SOL     OW13732   2.664   1.256   3.579  0.1636 -0.0784  0.2796
 4278SOL    HW113733   2.631   1.320   3.649 -0.4643  0.9372 -0.9068
 4278SOL    HW213734   2.605   1.175   3.578 -0.0965  0.1000  0.6263
 4279SOL     OW13735   3.009   0.851   2.100  0.7366  0.4335 -1.2721
 4279SOL    HW113736   3.069   0.926   2.127  1.7762 -1.1495  1.2672
 4279SOL    HW213737   3.036   0.768   2.150 -3.1708 -0.5340 -0.4267
 4280SOL     OW13738   6.460   6.130   0.888 -0.1408 -0.2176 -0.1715
 4280SOL    HW113739   6.479   6.104   0.983  0.1423 -1.5671 -0.5806
 4280SOL    HW213740   6.472   6.051   0.829 -0.5297  0.5589 -1.3182
 4281SOL     OW13741   5.129   1.196   2.964  0.2874 -0.3922 -0.0284
 4281SOL    HW113742   5.174   1.210   2.876 -0.2071  2.0882  0.0510
 4281SOL    HW213743   5.189   1.227   3.038  0.2441 -1.4061  0.4599
 4282SOL     OW13744   4.070   3.492   1.125  0.2616 -0.3404  0.3481
 4282SOL    HW113745   4.027   3.413   1.169 -0.1396  0.2750  1.0967
 4282SOL    HW213746   4.016   3.518   1.045  1.1323 -1.6200 -0.6927
 4283SOL     OW13747   6.352   0.841   1.736  0.3291  0.7142  0.3546
 4283SOL    HW113748   6.351   0.752   1.782  0.0672 -0.6669 -2.1268
 4283SOL    HW213749   6.443   0.881   1.743  1.0522 -0.7404 -0.1568
 4284SOL     OW13750   5.298   3.093   1.581  0.1377  0.6469  0.1290
 4284SOL    HW113751   5.322   2.997   1.572 -0.3789  0.3288  1.7850
 4284SOL    HW213752   5.214   3.101   1.635 -0.9813  1.9348 -1.6975
 4285SOL     OW13753   4.004   1.381   0.755 -0.3243  0.4977 -0.5144
 4285SOL    HW113754   3.916   1.342   0.780 -0.8245  1.6374 -0.4131
 4285SOL    HW213755   4.077   1.327   0.795 -0.9898 -0.1750 -0.1835
 4286SOL     OW13756   5.043   0.142   6.841 -0.5731  0.5922 -0.3359
 4286SOL    HW113757   5.100   0.224   6.848 -1.7358  1.4743 -0.7097
 4286SOL    HW213758   4.999   0.124   6.929  1.3226 -0.9355  0.3770
 4287SOL     OW13759   3.665   1.093   6.828 -0.3717 -0.2638  0.2305
 4287SOL    HW113760   3.735   1.130   6.890  0.5712 -1.4480 -0.0896
 4287SOL    HW213761   3.710   1.050   6.749 -1.4297 -1.4902  0.2642
 4288SOL     OW13762   6.794   5.837   0.519 -0.2473  0.3249 -0.6781
 4288SOL    HW113763   6.794   5.869   0.614  2.1927  1.7578 -1.0712
 4288SOL    HW213764   6.887   5.811   0.493 -1.1364 -1.5255 -2.2508
 4289SOL     OW13765   5.881   2.626   6.542 -0.2853 -0.3019 -0.3707
 4289SOL    HW113766   5.840   2.672   6.620  0.6272  0.6079 -0.3982
 4289SOL    HW213767   5.823   2.639   6.461 -1.2509 -1.2867  0.1531
 4290SOL     OW13768   5.973   1.390   2.415 -0.4387  0.2118  0.0471
 4290SOL    HW113769   5.993   1.475   2.366 -1.4073  0.0487 -0.6640
 4290SOL    HW213770   6.046   1.371   2.481 -1.2355  2.7240  1.7981
 4291SOL     OW13771   3.241   3.004   7.017  0.3293  0.3985  0.6458
 4291SOL    HW113772   3.187   2.953   7.084  1.2120  0.4362  1.4019
 4291SOL    HW213773   3.331   2.963   7.008  0.5311  0.9383  0.1401
 4292SOL     OW13774   4.563   3.303   0.266  0.3865  0.3044  0.4739
 4292SOL    HW113775   4.473   3.262   0.283  0.6380 -0.4559  0.0570
 4292SOL    HW213776   4.621   3.290   0.346  0.5027 -0.2834  0.3010
 4293SOL     OW13777   4.748   4.124   0.365  0.5481 -0.6918  0.7321
 4293SOL    HW113778   4.786   4.118   0.273  1.3884 -0.1635  1.0351
 4293SOL    HW213779   4.649   4.112   0.361  0.6954 -1.9001 -0.1005
 4294SOL     OW13780   2.520   3.231   6.136  0.6202  0.4659  0.0259
 4294SOL    HW113781   2.614   3.241   6.168  1.1383 -1.7998 -0.6516
 4294SOL    HW213782   2.520   3.211   6.038 -0.4549 -0.9711  0.2840
 4295SOL     OW13783   4.287   6.003   2.373 -0.2715  0.5175 -0.2718
 4295SOL    HW113784   4.252   5.916   2.408  0.1172  0.9574  1.2527
 4295SOL    HW213785   4.332   5.986   2.284  2.3350 -1.4364  1.2482
 4296SOL     OW13786   3.082   6.487   0.253  0.0372  0.0295 -0.4649
 4296SOL    HW113787   3.067   6.581   0.284 -1.4078 -0.5810  0.8192
 4296SOL    HW213788   3.005   6.458   0.196  0.1285 -0.5936 -0.2821
 4297SOL     OW13789   5.727   4.349   2.486  0.3496  0.1535 -0.9434
 4297SOL    HW113790   5.739   4.294   2.404 -0.1873 -0.7494 -0.4376
 4297SOL    HW213791   5.761   4.299   2.566 -0.3471  0.4510 -0.4457
 4298SOL     OW13792   2.994   5.283   1.487 -0.4116 -0.2790  0.4926
 4298SOL    HW113793   2.981   5.367   1.540 -2.3794  1.4291 -2.3901
 4298SOL    HW213794   2.970   5.204   1.543 -1.2848  1.3139  2.4766
 4299SOL     OW13795   5.656   2.867   0.652  0.2097  0.5500  0.0130
 4299SOL    HW113796   5.592   2.939   0.680 -0.5818 -0.7598  1.7135
 4299SOL    HW213797   5.698   2.826   0.732  0.0104 -1.4684 -0.8549
 4300SOL     OW13798   4.359   0.461   0.344 -0.0355 -0.1951  0.1551
 4300SOL    HW113799   4.447   0.484   0.387  0.6407 -0.7614 -0.8870
 4300SOL    HW213800   4.366   0.371   0.301 -1.3169 -0.4901  0.5561
 4301SOL     OW13801   4.337   5.182   1.475  0.0691 -0.2795 -0.2139
 4301SOL    HW113802   4.410   5.243   1.447 -0.0848 -0.6056 -1.3624
 4301SOL    HW213803   4.265   5.181   1.406 -1.9336  1.4507  1.7019
 4302SOL     OW13804   1.397   6.423   6.430  0.0456 -0.1375  0.2741
 4302SOL    HW113805   1.314   6.442   6.483 -1.6891 -2.5176 -1.3715
 4302SOL    HW213806   1.477   6.428   6.489 -0.9590  4.0138  1.5651
 4303SOL     OW13807   6.549   5.670   2.459  0.6600  0.5275  0.1382
 4303SOL    HW113808   6.592   5.611   2.391 -0.2778  2.0459 -1.8742
 4303SOL    HW213809   6.542   5.621   2.546  1.8988 -1.4857 -0.8268
 4304SOL     OW13810   2.541   3.506   0.372  0.1031 -0.4456  1.0343
 4304SOL    HW113811   2.537   3.587   0.431  0.7613 -0.5140  1.1802
 4304SOL    HW213812   2.475   3.439   0.403 -1.0019  0.3358  0.4497
 4305SOL     OW13813   6.978   6.707   4.936 -0.4211 -0.0972  0.5554
 4305SOL    HW113814   7.066   6.676   4.972 -0.6384 -3.9267 -1.6899
 4305SOL    HW213815   6.993   6.767   4.858  0.2616 -0.7033  0.2034
 4306SOL     OW13816   5.158   3.396   3.186  0.0298  0.1000 -0.5425
 4306SOL    HW113817   5.066   3.410   3.151  0.0996 -0.5446 -0.9984
 4306SOL    HW213818   5.195   3.311   3.150  0.7727  0.3087 -0.2969
 4307SOL     OW13819   0.249   2.518   4.410 -0.5267  0.1511  0.5471
 4307SOL    HW113820   0.163   2.569   4.414 -1.1860 -0.9719  0.9773
 4307SOL    HW213821   0.315   2.560   4.471 -0.9251  0.7158  0.6062
 4308SOL     OW13822   4.635   5.452   1.890 -0.4395  1.0490  0.2155
 4308SOL    HW113823   4.696   5.409   1.956 -0.8734  0.0765  0.0068
 4308SOL    HW213824   4.543   5.413   1.900  0.0341 -1.1520 -2.7104
 4309SOL     OW13825   3.845   4.289   5.969  0.2093 -0.2411 -0.2150
 4309SOL    HW113826   3.773   4.270   5.902 -0.3153 -0.5984  0.4452
 4309SOL    HW213827   3.855   4.211   6.030  1.9271 -0.6623 -0.9706
 4310SOL     OW13828   0.033   2.460   1.297 -0.4488  0.6347 -0.0016
 4310SOL    HW113829  -0.036   2.459   1.224 -0.3144  1.6530 -0.1564
 4310SOL    HW213830   0.112   2.404   1.269 -0.7670  0.3107 -0.2614
 4311SOL     OW13831   0.886   0.073   1.805 -0.3676  0.1197 -0.2381
 4311SOL    HW113832   0.862  -0.020   1.777  2.4022 -0.6859 -0.2323
 4311SOL    HW213833   0.863   0.087   1.901  1.8068 -1.6531  0.6253
 4312SOL     OW13834   6.214   5.167   2.164 -0.4392 -0.3104 -0.1199
 4312SOL    HW113835   6.306   5.192   2.135 -0.1790 -0.4097  0.6019
 4312SOL    HW213836   6.212   5.070   2.190 -0.6060 -0.1685  0.4076
 4313SOL     OW13837   5.992   1.208   1.418  0.3363 -0.5535  0.4809
 4313SOL    HW113838   6.017   1.251   1.505 -1.3703 -0.9236  1.2018
 4313SOL    HW213839   6.050   1.244   1.345  0.6754  1.0585  1.4818
 4314SOL     OW13840   5.554   1.409   0.425  0.3698 -0.1346 -0.1462
 4314SOL    HW113841   5.490   1.431   0.351 -2.3137 -0.0001  2.0407
 4314SOL    HW213842   5.586   1.494   0.467 -0.5004 -0.1999  0.6927
 4315SOL     OW13843   1.733   1.729   3.807  0.0851  0.2308  0.0284
 4315SOL    HW113844   1.680   1.711   3.724 -0.2602 -0.0000  0.2948
 4315SOL    HW213845   1.799   1.802   3.789 -0.6776  0.8871 -0.1642
 4316SOL     OW13846   4.761   0.102   2.449  0.5315  0.1293 -0.3327
 4316SOL    HW113847   4.760   0.050   2.363 -0.0876 -0.2293 -0.1173
 4316SOL    HW213848   4.707   0.053   2.517  1.7642 -0.0620  0.5453
 4317SOL     OW13849   2.929   0.481   6.712  0.0072 -0.1264  0.3947
 4317SOL    HW113850   2.982   0.536   6.647 -1.2360 -0.5987 -1.0734
 4317SOL    HW213851   2.958   0.386   6.707 -1.8706 -0.6638 -1.4848
 4318SOL     OW13852   0.859   0.621   4.070  0.4982 -0.5775  0.3369
 4318SOL    HW113853   0.845   0.717   4.046 -0.6716 -0.7611  0.2161
 4318SOL    HW213854   0.779   0.588   4.121  0.8077 -1.5376  0.2092
 4319SOL     OW13855   1.177   4.699   1.812 -0.2320  0.3244  0.7038
 4319SOL    HW113856   1.181   4.775   1.748 -0.5758 -0.9928 -0.9685
 4319SOL    HW213857   1.269   4.679   1.846  0.0554  0.6648  0.1427
 4320SOL     OW13858   4.352   6.082   1.313 -0.0679  0.9293  0.6647
 4320SOL    HW113859   4.437   6.112   1.356 -0.5100  0.6933  1.7120
 4320SOL    HW213860   4.346   5.983   1.316 -1.1234  1.0169  2.0558
 4321SOL     OW13861   0.195   6.556   1.990 -0.1075 -0.1791 -0.7485
 4321SOL    HW113862   0.275   6.595   2.037 -0.7184  1.8015 -1.2660
 4321SOL    HW213863   0.223   6.522   1.900  0.4167 -0.9224 -0.3227
 4322SOL     OW13864   1.321   0.138   5.724  0.1331  0.4245  0.1354
 4322SOL    HW113865   1.270   0.055   5.750  1.1086  0.3679  2.0044
 4322SOL    HW213866   1.258   0.204   5.683 -1.0882 -0.3548  0.6967
 4323SOL     OW13867   3.364   5.585   0.633 -1.0325 -0.1923 -0.4601
 4323SOL    HW113868   3.393   5.515   0.568 -0.3244 -1.3462  1.0529
 4323SOL    HW213869   3.392   5.675   0.600 -0.5451 -0.7603 -1.6552
 4324SOL     OW13870   5.386   4.002   5.241 -0.3067 -0.1203 -0.7163
 4324SOL    HW113871   5.406   3.984   5.337 -0.9116  1.8036 -0.1650
 4324SOL    HW213872   5.394   3.918   5.188  0.2346 -1.1827  0.9790
 4325SOL     OW13873   2.660   6.500   4.462 -0.1232 -0.4059 -0.1907
 4325SOL    HW113874   2.641   6.415   4.414 -1.1450  0.2105 -0.9171
 4325SOL    HW213875   2.633   6.492   4.558 -0.2799 -0.8664 -0.2711
 4326SOL     OW13876   4.996   4.108   2.632 -1.1736  0.2328  0.3796
 4326SOL    HW113877   4.921   4.080   2.573 -0.7155  0.3449 -0.2711
 4326SOL    HW213878   5.078   4.054   2.610 -1.2864 -0.4974  1.6719
 4327SOL     OW13879   3.411   5.247   4.046 -0.3146  0.3183 -0.2490
 4327SOL    HW113880   3.506   5.218   4.050 -0.6069 -0.5639  2.9020
 4327SOL    HW213881   3.357   5.179   3.996  0.5621  0.5156 -1.5088
 4328SOL     OW13882   6.592   6.327   6.391 -0.7145 -1.0435  0.5600
 4328SOL    HW113883   6.661   6.283   6.449  0.0112 -0.7606 -0.0652
 4328SOL    HW213884   6.638   6.384   6.323 -1.2562 -3.8691 -2.4483
 4329SOL     OW13885   4.107   2.698   6.555 -0.0706  0.9001 -0.3114
 4329SOL    HW113886   4.008   2.697   6.564 -0.1492 -1.9487 -0.6295
 4329SOL    HW213887   4.132   2.707   6.459 -0.1095 -0.4226 -0.4610
 4330SOL     OW13888   3.680   5.681   5.614 -0.1719 -0.2878  0.2630
 4330SOL    HW113889   3.758   5.663   5.675 -0.4996 -0.0310  0.7601
 4330SOL    HW213890   3.681   5.777   5.587 -0.0346 -0.3991 -0.1335
 4331SOL     OW13891   6.984   1.703   0.868  0.6213  0.6544  0.6431
 4331SOL    HW113892   7.027   1.621   0.829  0.2392  0.8124 -0.1194
 4331SOL    HW213893   7.055   1.770   0.891  0.8890  0.3531  0.7134
 4332SOL     OW13894   5.099   2.428   1.968 -0.7427  0.0173  0.1162
 4332SOL    HW113895   5.015   2.468   2.005 -1.5496 -0.6335 -0.9458
 4332SOL    HW213896   5.094   2.328   1.974 -0.0041 -0.0288  0.1074
 4333SOL     OW13897   2.588   1.868   4.665 -0.0195 -0.7892  0.3724
 4333SOL    HW113898   2.497   1.904   4.642  0.4294 -0.9512 -1.9237
 4333SOL    HW213899   2.648   1.944   4.689 -0.4799 -0.5714  0.8553
 4334SOL     OW13900   0.383   3.121   4.092 -0.3146  0.3097 -0.4745
 4334SOL    HW113901   0.388   3.155   4.186 -1.5056 -1.6282  0.3393
 4334SOL    HW213902   0.476   3.098   4.061  0.0360  0.4122  0.4467
 4335SOL     OW13903   2.231   2.411   1.004  0.5661  0.5866 -0.2535
 4335SOL    HW113904   2.200   2.456   1.088  0.7359 -1.5543  1.0316
 4335SOL    HW213905   2.175   2.442   0.927 -1.2910  0.7221  1.0888
 4336SOL     OW13906   3.596   5.789   6.082  0.3155 -0.4353 -0.0059
 4336SOL    HW113907   3.604   5.785   6.181  1.8657 -1.5851 -0.1255
 4336SOL    HW213908   3.594   5.696   6.045 -1.0989 -0.0410 -1.0249
 4337SOL     OW13909   1.119   3.057   2.900  0.0494 -0.3117  0.3899
 4337SOL    HW113910   1.025   3.086   2.923  0.3258 -0.5715  1.9417
 4337SOL    HW213911   1.182   3.131   2.922  0.3321 -0.5618  0.4204
 4338SOL     OW13912   5.554   6.717   6.382  0.2179  0.0603  0.6824
 4338SOL    HW113913   5.564   6.770   6.465 -1.2064 -0.9497  1.5425
 4338SOL    HW213914   5.520   6.625   6.404  1.2305 -0.7370 -0.8781
 4339SOL     OW13915   4.136   2.715   6.274 -0.6201 -0.6817  0.3769
 4339SOL    HW113916   4.201   2.673   6.211 -0.8270  0.9846 -1.0346
 4339SOL    HW213917   4.133   2.814   6.256 -1.7201 -0.3784  2.0912
 4340SOL     OW13918   1.349   4.260   0.489  0.1152  0.3874 -0.0051
 4340SOL    HW113919   1.380   4.226   0.577  0.0297  0.5421  0.0846
 4340SOL    HW213920   1.258   4.224   0.470  0.1725  0.2774 -0.0745
 4341SOL     OW13921   1.434   6.690   1.786 -0.6586  0.0312  1.1685
 4341SOL    HW113922   1.520   6.646   1.813 -0.6980  0.1591  1.5159
 4341SOL    HW213923   1.443   6.789   1.797 -0.2693  0.2000 -0.4625
 4342SOL     OW13924   4.437   4.319   1.094 -1.1225  0.1317 -0.5718
 4342SOL    HW113925   4.431   4.228   1.053  0.1676  0.3328 -1.2533
 4342SOL    HW213926   4.421   4.312   1.192 -1.8674 -0.7013 -0.7353
 4343SOL     OW13927   3.856   1.232   6.955 -0.5989  0.0309  0.7811
 4343SOL    HW113928   3.826   1.268   7.043  0.7738  1.4183  0.7322
 4343SOL    HW213929   3.956   1.228   6.952 -0.6640 -1.7953 -0.0466
 4344SOL     OW13930   6.562   4.283   5.024 -0.1368 -0.1068 -0.5697
 4344SOL    HW113931   6.606   4.337   4.953  1.0671  0.6142  0.6747
 4344SOL    HW213932   6.481   4.330   5.057 -0.0821  0.0796 -0.7019
 4345SOL     OW13933   2.917   3.694   2.479 -0.4829  0.3062 -0.4612
 4345SOL    HW113934   2.924   3.729   2.572 -0.9845  1.0945 -0.7069
 4345SOL    HW213935   2.900   3.770   2.416  3.5177  0.3634 -1.7190
 4346SOL     OW13936   1.667   3.542   2.252  0.1444 -0.1707 -0.0518
 4346SOL    HW113937   1.766   3.528   2.249 -0.0387 -2.2498  1.4717
 4346SOL    HW213938   1.644   3.628   2.206  2.5460 -0.0663 -1.2207
 4347SOL     OW13939   6.520   6.852   4.227  1.1012  0.1765  0.4100
 4347SOL    HW113940   6.427   6.831   4.198  1.7159  2.4812 -4.2247
 4347SOL    HW213941   6.565   6.769   4.258 -0.6414 -2.5023 -3.3665
 4348SOL     OW13942   1.348   5.487   2.926 -0.0526  0.4414  0.3268
 4348SOL    HW113943   1.370   5.574   2.881  1.0524 -0.4558 -0.9304
 4348SOL    HW213944   1.326   5.418   2.856  0.7299 -0.7367  1.2133
 4349SOL     OW13945   1.055   5.584   3.662 -0.1072  0.1401 -0.1445
 4349SOL    HW113946   1.122   5.609   3.592 -1.1511  0.8278 -0.9287
 4349SOL    HW213947   1.079   5.629   3.748  2.2874 -2.2401  0.5559
 4350SOL     OW13948   4.106   0.662   4.105 -0.3136  0.0187  0.1346
 4350SOL    HW113949   4.040   0.733   4.129 -0.8011 -0.5681  0.5494
 4350SOL    HW213950   4.129   0.608   4.186 -1.6951 -1.7441 -0.5886
 4351SOL     OW13951   0.271   1.015   1.232  0.0191  0.1901  0.9080
 4351SOL    HW113952   0.334   1.090   1.212  0.6127 -0.5219  0.0433
 4351SOL    HW213953   0.214   1.040   1.310  1.9141  0.5209  2.2524
 4352SOL     OW13954   4.837   4.363   0.022 -0.2851  0.2647 -0.3077
 4352SOL    HW113955   4.905   4.303  -0.020 -0.9420 -0.9523  0.3166
 4352SOL    HW213956   4.869   4.458   0.019  0.7141 -0.0874 -1.4377
 4353SOL     OW13957   2.667   3.856   6.031 -0.2652 -0.1763  0.1361
 4353SOL    HW113958   2.641   3.832   6.124 -2.9270  1.5693 -0.0308
 4353SOL    HW213959   2.726   3.785   5.993 -0.7736 -1.9397  2.4308
 4354SOL     OW13960   1.394   0.863   2.510  0.4240  0.7079 -0.2176
 4354SOL    HW113961   1.302   0.826   2.509  0.3603  0.7308  1.4158
 4354SOL    HW213962   1.459   0.794   2.478  0.1956 -0.5333  1.8689
 4355SOL     OW13963   0.485   1.189   1.527 -0.5040  0.0706  0.5060
 4355SOL    HW113964   0.526   1.098   1.536  0.1638 -0.0244 -2.3629
 4355SOL    HW213965   0.389   1.185   1.555  0.0211 -1.0064  2.2723
 4356SOL     OW13966   5.104   0.975   6.593 -0.3026 -0.2898 -0.0144
 4356SOL    HW113967   5.175   1.011   6.654  0.3818 -1.4428 -0.0922
 4356SOL    HW213968   5.131   0.884   6.561 -2.1639 -1.0816  0.5297
 4357SOL     OW13969   0.222   2.217   2.859  0.1752 -0.0985  0.0564
 4357SOL    HW113970   0.138   2.196   2.910  0.1355 -2.3435 -0.7955
 4357SOL    HW213971   0.284   2.269   2.917 -0.8552 -0.4446  1.5354
 4358SOL     OW13972   2.005   2.886   6.185 -0.3007  0.3858 -0.2409
 4358SOL    HW113973   1.996   2.915   6.089  2.1417 -0.1364 -0.6966
 4358SOL    HW213974   1.987   2.788   6.192  1.2266  0.0552 -0.5331
 4359SOL     OW13975   2.023   0.994   0.496  0.6904 -0.2914 -0.0333
 4359SOL    HW113976   1.931   1.032   0.493  0.2776 -0.9742  2.2912
 4359SOL    HW213977   2.050   0.978   0.591  2.5232 -1.7444 -0.7369
 4360SOL     OW13978   1.566   2.753   2.627  0.2610 -0.0741  0.0110
 4360SOL    HW113979   1.479   2.709   2.651 -1.2539  0.6439 -3.5925
 4360SOL    HW213980   1.632   2.683   2.602 -0.3732 -0.5458 -0.3960
 4361SOL     OW13981   1.683   3.625   1.034  0.4265  0.7345 -0.5437
 4361SOL    HW113982   1.673   3.608   0.936 -2.1285 -0.5821 -0.1239
 4361SOL    HW213983   1.762   3.685   1.049  2.3727 -0.9709 -3.1586
 4362SOL     OW13984   1.286   6.291   4.060  0.0345  0.0269 -0.0443
 4362SOL    HW113985   1.338   6.213   4.095  0.8106  0.0951 -1.0202
 4362SOL    HW213986   1.338   6.375   4.075  0.3780  0.0592 -1.3184
 4363SOL     OW13987   4.647   0.969   4.293 -0.3664 -0.2247 -0.2023
 4363SOL    HW113988   4.552   0.965   4.264 -0.3220 -0.4270 -0.3252
 4363SOL    HW213989   4.696   0.890   4.256 -0.1894 -0.2084 -0.0057
 4364SOL     OW13990   3.779   2.938   2.909  0.3000  0.3294 -0.7751
 4364SOL    HW113991   3.771   3.008   2.980 -0.4846  1.1551 -1.6473
 4364SOL    HW213992   3.725   2.858   2.934  2.0827 -0.4852  0.7664
 4365SOL     OW13993   2.790   1.659   2.713  0.0398 -0.0260 -0.0031
 4365SOL    HW113994   2.707   1.713   2.697 -0.1612 -0.3002  0.1106
 4365SOL    HW213995   2.794   1.632   2.809 -0.8225 -1.7702 -0.4211
 4366SOL     OW13996   4.259   5.638   4.422 -0.7502 -0.3400 -0.1978
 4366SOL    HW113997   4.297   5.619   4.512  0.3224  0.5609 -0.4336
 4366SOL    HW213998   4.159   5.636   4.426 -0.7578  1.0516  1.3447
 4367SOL     OW13999   3.379   6.345   2.415 -0.6935 -1.2295 -0.3303
 4367SOL    HW114000   3.311   6.409   2.448  0.9897  0.6834 -0.3638
 4367SOL    HW214001   3.414   6.291   2.491  0.5287  0.5728  0.4602
 4368SOL     OW14002   0.296   5.572   2.713  0.1411 -0.0966 -0.3099
 4368SOL    HW114003   0.335   5.636   2.647  2.3851 -0.5106  0.5048
 4368SOL    HW214004   0.367   5.543   2.777 -1.5405 -1.0484  1.2344
 4369SOL     OW14005   3.100   5.279   2.873 -0.1575 -0.1648 -0.3259
 4369SOL    HW114006   3.003   5.266   2.895 -0.0417 -0.6190 -0.0633
 4369SOL    HW214007   3.111   5.359   2.814 -0.4634  1.2693  1.4664
 4370SOL     OW14008   3.586   4.347   1.199 -0.0104  0.0844  0.0761
 4370SOL    HW114009   3.560   4.373   1.106 -1.4513 -1.2617  0.0708
 4370SOL    HW214010   3.584   4.248   1.208  2.9243 -0.0002  0.7793
 4371SOL     OW14011   2.544   1.478   0.381  0.6076 -0.1761 -0.2386
 4371SOL    HW114012   2.536   1.480   0.281  0.0707  0.1439 -0.1942
 4371SOL    HW214013   2.622   1.535   0.409  0.4233  0.1853 -0.4464
 4372SOL     OW14014   1.528   3.367   4.504 -0.4496  0.4730 -0.3535
 4372SOL    HW114015   1.490   3.455   4.531 -2.0982 -0.8439  1.8746
 4372SOL    HW214016   1.476   3.293   4.545  3.3043 -1.5599  1.2950
 4373SOL     OW14017   4.145   0.734   0.331 -0.0846  0.8203 -0.1595
 4373SOL    HW114018   4.107   0.660   0.386 -0.9976  2.2136  1.1871
 4373SOL    HW214019   4.111   0.726   0.237  0.2726 -0.7401 -0.1843
 4374SOL     OW14020   1.798   2.564   0.363 -0.0735  0.3804  0.2512
 4374SOL    HW114021   1.863   2.488   0.351  0.7877  0.3548  3.8698
 4374SOL    HW214022   1.707   2.527   0.379 -0.0811  0.2322 -0.1088
 4375SOL     OW14023   3.876   6.197   3.098 -0.4626  0.2384  0.8381
 4375SOL    HW114024   3.805   6.150   3.150 -0.3652 -0.1787  0.6001
 4375SOL    HW214025   3.835   6.272   3.046 -0.9913 -0.8985 -0.4367
 4376SOL     OW14026   1.333   6.461   0.409  0.3095 -0.0207  0.0871
 4376SOL    HW114027   1.243   6.492   0.379 -1.8276 -1.2622  4.4514
 4376SOL    HW214028   1.379   6.534   0.459  0.6716 -0.1605 -0.0345
 4377SOL     OW14029   6.116   4.964   0.114  0.0534 -0.2813 -0.0962
 4377SOL    HW114030   6.114   5.052   0.161 -2.4170  0.2004 -0.9759
 4377SOL    HW214031   6.116   4.978   0.015  0.9043 -1.3019 -0.2649
 4378SOL     OW14032   2.906   6.391   2.483  0.2341  1.0970  0.3709
 4378SOL    HW114033   2.941   6.317   2.425  0.5365  0.9264  0.7626
 4378SOL    HW214034   2.835   6.441   2.434 -0.4503  0.1300  0.3401
 4379SOL     OW14035   0.844   0.537   3.421 -0.1028 -0.0974 -0.2908
 4379SOL    HW114036   0.755   0.519   3.379  0.7898 -0.4865 -2.1031
 4379SOL    HW214037   0.873   0.457   3.473 -0.0868 -0.6134 -1.0732
 4380SOL     OW14038   3.259   4.893   6.812  0.0531  0.6280  0.2860
 4380SOL    HW114039   3.222   4.986   6.813  1.5068  1.2403  0.0729
 4380SOL    HW214040   3.350   4.893   6.855  0.2408 -0.6251 -0.0736
 4381SOL     OW14041   4.480   6.942   3.364 -0.3492 -0.0049  0.9227
 4381SOL    HW114042   4.408   6.994   3.410  0.4596  0.7773  1.3197
 4381SOL    HW214043   4.568   6.963   3.405  0.7270  2.2443 -2.1370
 4382SOL     OW14044   5.092   3.945   4.688 -0.4412  0.0873 -0.0116
 4382SOL    HW114045   5.029   4.002   4.635  1.0440  0.8348 -1.0118
 4382SOL    HW214046   5.055   3.853   4.695 -1.0845  0.1937 -1.6143
 4383SOL     OW14047   1.096   1.194   5.516  0.1586  0.1352  0.1510
 4383SOL    HW114048   1.058   1.283   5.541  2.2839  0.9874  0.6301
 4383SOL    HW214049   1.127   1.147   5.598 -0.1842 -0.6945 -0.1817
 4384SOL     OW14050   2.377   6.971   1.583  0.2862  0.1565  0.0223
 4384SOL    HW114051   2.280   6.991   1.599  0.2740 -0.7086  1.0955
 4384SOL    HW214052   2.408   7.022   1.503 -0.7549  1.3584  0.3472
 4385SOL     OW14053   1.731   2.601   3.705 -0.0611  0.2736 -0.1008
 4385SOL    HW114054   1.680   2.647   3.633 -2.3371 -1.2554  0.4289
 4385SOL    HW214055   1.755   2.508   3.676 -2.5721 -1.0302  1.5937
 4386SOL     OW14056   0.955   4.135   4.825  0.6184 -0.4705 -0.0369
 4386SOL    HW114057   1.036   4.169   4.872 -0.3043  0.3375  1.0448
 4386SOL    HW214058   0.925   4.203   4.757 -0.1009  0.0200  0.7505
 4387SOL     OW14059   6.152   2.388   6.932 -0.0930 -0.1475 -0.1861
 4387SOL    HW114060   6.133   2.316   6.866  1.9204 -1.2128  0.3272
 4387SOL    HW214061   6.133   2.355   7.024 -0.4974  0.4769 -0.0357
 4388SOL     OW14062   4.175   5.688   0.113  0.0297 -0.1161  0.4298
 4388SOL    HW114063   4.176   5.634   0.198  0.3491  0.2277  0.6488
 4388SOL    HW214064   4.269   5.705   0.084 -0.0731  0.1503  0.2501
 4389SOL     OW14065   4.728   1.372   0.101 -0.0057  0.7981  0.9386
 4389SOL    HW114066   4.692   1.394   0.010  0.1170 -0.9760  0.4226
 4389SOL    HW214067   4.656   1.387   0.170 -0.3290  1.4518  0.4682
 4390SOL     OW14068   5.009   1.191   1.609 -0.2424 -0.4484  0.3023
 4390SOL    HW114069   4.959   1.220   1.690 -0.1376  1.2471 -0.1997
 4390SOL    HW214070   5.080   1.258   1.588 -0.5972 -0.5887 -1.4717
 4391SOL     OW14071   1.764   5.373   0.355  0.0358  0.0232 -0.1573
 4391SOL    HW114072   1.780   5.277   0.330 -0.3017 -0.1901  0.4267
 4391SOL    HW214073   1.785   5.431   0.276 -2.3534 -0.7294 -1.4551
 4392SOL     OW14074   4.574   2.697   5.062 -0.3869  0.5000 -0.7035
 4392SOL    HW114075   4.665   2.740   5.065 -0.4914  0.9411 -2.6310
 4392SOL    HW214076   4.504   2.765   5.084 -0.2584 -0.0131  1.5294
 4393SOL     OW14077   4.921   3.260   2.045 -0.4634  0.0083  0.6737
 4393SOL    HW114078   4.882   3.188   2.102  0.0527  0.0256  1.0587
 4393SOL    HW214079   4.882   3.254   1.953  0.2235 -1.3349  0.4343
 4394SOL     OW14080   5.849   6.085   1.271  0.3901  0.0412  0.1763
 4394SOL    HW114081   5.882   6.153   1.205 -0.6022 -0.6501 -1.0888
 4394SOL    HW214082   5.892   5.997   1.251 -0.9373 -0.4894 -0.4613
 4395SOL     OW14083   4.954   1.675   2.582  0.1175 -0.4942 -0.2161
 4395SOL    HW114084   5.050   1.652   2.565 -0.1100 -0.6569 -1.3777
 4395SOL    HW214085   4.918   1.618   2.656  1.0205 -0.1360  0.5204
 4396SOL     OW14086   0.629   0.635   5.198 -1.1259 -0.0619  0.1215
 4396SOL    HW114087   0.586   0.701   5.138  0.6954  1.1507  0.0821
 4396SOL    HW214088   0.623   0.667   5.293  1.0705  0.9977 -0.0406
 4397SOL     OW14089   0.119   0.940   5.790 -0.6651  1.0121  0.0184
 4397SOL    HW114090   0.062   0.977   5.716 -0.1919  2.2021  0.2227
 4397SOL    HW214091   0.061   0.920   5.869 -0.9782  0.9913 -0.2096
 4398SOL     OW14092   2.332   4.023   5.650  0.0821  0.0833  0.6295
 4398SOL    HW114093   2.313   4.030   5.552  1.9173  0.1686  0.2315
 4398SOL    HW214094   2.280   4.091   5.700  0.5641  1.3340 -0.5261
 4399SOL     OW14095   1.549   1.550   6.458  0.1695  0.1587  0.1971
 4399SOL    HW114096   1.589   1.511   6.375  1.4545  0.7127  0.5342
 4399SOL    HW214097   1.498   1.633   6.434 -0.3501 -0.2628 -0.1735
 4400SOL     OW14098   1.848   6.242   5.420  0.4722  0.4035 -0.1135
 4400SOL    HW114099   1.839   6.310   5.347  1.3021 -0.4715 -1.0726
 4400SOL    HW214100   1.940   6.203   5.418  0.6946  0.7189  1.7569
 4401SOL     OW14101   5.215   6.500   4.668 -0.9629 -0.4454 -0.7655
 4401SOL    HW114102   5.180   6.440   4.596 -3.0893  0.2676 -0.4037
 4401SOL    HW214103   5.273   6.570   4.627  1.3883 -2.5219 -1.2139
 4402SOL     OW14104   1.503   1.214   4.194  0.3957  0.8051  0.4459
 4402SOL    HW114105   1.486   1.150   4.120  0.8697 -0.0844  1.0823
 4402SOL    HW214106   1.547   1.166   4.270  0.5724  1.8444  1.0224
 4403SOL     OW14107   6.211   0.661   4.466  0.6324 -0.4935 -0.6644
 4403SOL    HW114108   6.203   0.641   4.369  2.6426  0.9272 -1.1920
 4403SOL    HW214109   6.294   0.619   4.502  1.6412  1.5962 -0.3851
 4404SOL     OW14110   3.171   5.817   3.979 -0.8666 -0.0193  0.2145
 4404SOL    HW114111   3.200   5.731   3.937 -1.4456  0.5647 -1.4412
 4404SOL    HW214112   3.209   5.894   3.928 -0.2256  0.7545  1.7705
 4405SOL     OW14113   2.841   3.675   0.787  0.2361  0.6369 -0.1633
 4405SOL    HW114114   2.772   3.605   0.802 -0.3210  1.4045  0.9706
 4405SOL    HW214115   2.907   3.643   0.718 -1.0468 -0.2283 -1.0261
 4406SOL     OW14116   5.240   2.455   3.066  0.8447 -0.1382  0.2375
 4406SOL    HW114117   5.308   2.507   3.015 -1.0564  1.8649 -0.4139
 4406SOL    HW214118   5.203   2.382   3.008 -0.6107  1.5172 -1.0292
 4407SOL     OW14119   6.667   4.872   0.602 -0.5154  0.0902  0.5385
 4407SOL    HW114120   6.664   4.957   0.550 -0.8962 -0.9960 -1.3249
 4407SOL    HW214121   6.720   4.804   0.551 -1.6038 -1.2809  1.1769
 4408SOL     OW14122   4.932   5.842   0.453 -0.3094 -0.2664 -0.1856
 4408SOL    HW114123   5.025   5.817   0.427 -0.0639 -0.2321  0.6377
 4408SOL    HW214124   4.871   5.833   0.373  0.2503 -1.0093 -0.5412
 4409SOL     OW14125   3.734   2.125   3.078  0.5260  0.3478 -0.2378
 4409SOL    HW114126   3.827   2.163   3.078  0.8918 -0.5211  0.1474
 4409SOL    HW214127   3.727   2.056   3.150 -0.5839  0.7865  0.0907
 4410SOL     OW14128   2.130   3.955   0.066  0.1371  0.3471  0.1843
 4410SOL    HW114129   2.149   3.933  -0.030  0.4919  1.3962 -0.0017
 4410SOL    HW214130   2.092   4.047   0.072 -2.2409 -0.6055  0.8423
 4411SOL     OW14131   3.651   3.187   2.754  0.1364 -0.4084 -1.0963
 4411SOL    HW114132   3.718   3.113   2.747 -1.1473 -1.6891 -0.4613
 4411SOL    HW214133   3.660   3.231   2.844  1.3805  0.7177 -1.7498
 4412SOL     OW14134   3.462   0.153   6.144  0.6721 -0.0419  0.4440
 4412SOL    HW114135   3.476   0.080   6.210  1.1757 -1.4340 -1.1249
 4412SOL    HW214136   3.372   0.143   6.101  0.2663  0.9615  1.0251
 4413SOL     OW14137   1.633   5.413   3.390  0.4852 -0.5016  0.1143
 4413SOL    HW114138   1.559   5.474   3.417  0.3026 -0.4883 -0.4227
 4413SOL    HW214139   1.639   5.409   3.291  2.1609  0.6777  0.1248
 4414SOL     OW14140   2.909   5.221   2.059 -0.1606  0.2853 -0.3981
 4414SOL    HW114141   2.874   5.314   2.069 -2.1043 -0.2844 -1.4380
 4414SOL    HW214142   2.995   5.213   2.109 -1.7242  1.6259  2.8394
 4415SOL     OW14143   5.821   3.740   1.311 -0.6624 -0.5885 -0.1373
 4415SOL    HW114144   5.806   3.838   1.328 -1.0094 -0.8661  1.3407
 4415SOL    HW214145   5.916   3.726   1.281 -0.9061  0.2939 -1.3786
 4416SOL     OW14146   3.831   1.401   2.387 -0.4790 -0.1826  0.6032
 4416SOL    HW114147   3.873   1.323   2.434 -0.7163  0.3285  1.6951
 4416SOL    HW214148   3.814   1.474   2.453 -1.4575  0.2940 -0.1558
 4417SOL     OW14149   0.962   5.855   2.293 -0.4295  0.0472 -0.0258
 4417SOL    HW114150   0.904   5.791   2.343 -1.8141  0.2093 -1.3404
 4417SOL    HW214151   1.026   5.804   2.235  0.8833 -0.1339  1.5337
 4418SOL     OW14152   3.677   6.015   6.773  0.0808  0.1478 -0.3814
 4418SOL    HW114153   3.759   6.028   6.718 -0.7386  3.3297 -1.0641
 4418SOL    HW214154   3.609   6.085   6.749 -2.7610 -2.1340  0.3453
 4419SOL     OW14155   0.248   4.589   1.175 -0.2396  0.0453  0.2524
 4419SOL    HW114156   0.348   4.594   1.184 -0.2024  0.9791 -0.5309
 4419SOL    HW214157   0.218   4.496   1.197  0.9955 -0.7515 -1.2169
 4420SOL     OW14158   3.285   0.343   0.478 -0.2353 -0.1152  0.1134
 4420SOL    HW114159   3.378   0.368   0.452  0.1145  0.3906  1.7342
 4420SOL    HW214160   3.279   0.244   0.488  0.9322 -0.0297  2.5992
 4421SOL     OW14161   4.762   1.332   2.058 -0.4932 -0.6366 -0.7375
 4421SOL    HW114162   4.830   1.304   2.126 -0.9048 -1.5426 -0.6857
 4421SOL    HW214163   4.679   1.361   2.104 -0.0590  0.7988 -0.7860
 4422SOL     OW14164   2.929   3.641   4.560  0.3220 -0.5164 -0.1325
 4422SOL    HW114165   2.876   3.555   4.565  0.4930 -0.6343 -0.3422
 4422SOL    HW214166   2.904   3.699   4.637 -1.0623 -0.0320 -0.9072
 4423SOL     OW14167   6.993   2.587   0.536  0.0527  0.2000 -0.1783
 4423SOL    HW114168   6.940   2.510   0.500  1.8613 -1.3256  0.3018
 4423SOL    HW214169   6.975   2.597   0.634 -0.9537  1.0830 -0.4310
 4424SOL     OW14170   4.858   6.283   3.991  0.0441 -0.4600 -0.0153
 4424SOL    HW114171   4.906   6.368   4.012 -1.5625  0.9805 -1.8020
 4424SOL    HW214172   4.786   6.268   4.059  0.3184 -0.4227  0.2910
 4425SOL     OW14173   4.305   3.768   6.187  0.2430 -0.1938  0.2716
 4425SOL    HW114174   4.368   3.772   6.264 -1.1051 -1.3763  1.4869
 4425SOL    HW214175   4.356   3.758   6.102  1.6651 -1.8480  1.2830
 4426SOL     OW14176   6.537   0.313   4.286 -0.1956  0.1191 -0.5904
 4426SOL    HW114177   6.632   0.326   4.255 -0.7882  1.0468 -2.1060
 4426SOL    HW214178   6.505   0.397   4.330 -1.3836  1.1290 -3.1625
 4427SOL     OW14179   0.832   0.993   4.458 -0.1537 -0.4758 -0.2312
 4427SOL    HW114180   0.893   0.986   4.379 -1.7262  0.5381 -1.5962
 4427SOL    HW214181   0.745   0.950   4.437 -0.1695 -1.3466  1.4630
 4428SOL     OW14182   2.333   4.416   4.269  0.4536 -0.9215 -0.3144
 4428SOL    HW114183   2.376   4.425   4.358 -2.5802 -1.4577  1.3360
 4428SOL    HW214184   2.294   4.324   4.260 -2.4759  0.2486 -0.5753
 4429SOL     OW14185   2.772   6.219   3.701 -0.2519 -0.7821 -0.0351
 4429SOL    HW114186   2.764   6.166   3.616  3.0509 -2.1121  0.3436
 4429SOL    HW214187   2.758   6.158   3.779 -1.1126 -0.0191  0.4226
 4430SOL     OW14188   5.274   2.298   2.723 -0.6432  0.3071  0.0565
 4430SOL    HW114189   5.337   2.235   2.677  0.3706  1.1305  0.2949
 4430SOL    HW214190   5.218   2.247   2.788  0.6663 -0.2526  0.7818
 4431SOL     OW14191   2.408   1.182   2.657  0.0981  0.0211 -0.1550
 4431SOL    HW114192   2.454   1.238   2.727  0.8219  0.6768 -1.1273
 4431SOL    HW214193   2.317   1.157   2.689 -0.3884  2.0755  0.1568
 4432SOL     OW14194   3.260   3.652   2.447 -0.1487 -0.2269  0.3182
 4432SOL    HW114195   3.299   3.634   2.537 -0.1446 -0.6772  0.2259
 4432SOL    HW214196   3.227   3.567   2.407 -0.0986 -0.0369 -0.1314
 4433SOL     OW14197   5.410   6.832   3.275  0.3971 -0.0186  0.1548
 4433SOL    HW114198   5.386   6.901   3.343 -2.3753  0.3635 -1.0789
 4433SOL    HW214199   5.444   6.877   3.192  0.1921 -0.2445 -0.0528
 4434SOL     OW14200   3.636   1.941   3.274 -0.2986  0.5494 -0.2556
 4434SOL    HW114201   3.569   1.932   3.348 -1.1627 -2.3114 -1.2518
 4434SOL    HW214202   3.725   1.906   3.304 -0.8497 -1.3628 -0.7349
 4435SOL     OW14203   3.456   2.061   1.992  0.0194 -0.2174 -0.5783
 4435SOL    HW114204   3.386   2.079   1.923  0.5171  1.9177 -0.6047
 4435SOL    HW214205   3.537   2.116   1.972  1.4582 -2.0666 -0.1370
 4436SOL     OW14206   1.357   1.397   6.802 -0.4780  0.1341 -1.1519
 4436SOL    HW114207   1.271   1.432   6.764 -1.4770 -0.8330  0.1488
 4436SOL    HW214208   1.433   1.452   6.767 -1.6005  0.9711 -2.3851
 4437SOL     OW14209   3.498   1.157   3.975 -0.0926  0.3674 -0.2266
 4437SOL    HW114210   3.588   1.124   4.004  0.7726  0.5010 -2.5767
 4437SOL    HW214211   3.505   1.252   3.944 -0.5485 -0.2037 -2.2700
 4438SOL     OW14212   4.281   0.294   0.016  0.0862 -0.1106  0.5984
 4438SOL    HW114213   4.279   0.223  -0.054  1.3453 -1.3981  1.8156
 4438SOL    HW214214   4.311   0.255   0.103  0.7134  1.8894  1.3397
 4439SOL     OW14215   1.377   5.412   1.189  0.5255  0.7525  0.1967
 4439SOL    HW114216   1.411   5.489   1.136  1.0074  0.4538  0.0710
 4439SOL    HW214217   1.291   5.379   1.148  0.0911  1.4823  0.4998
 4440SOL     OW14218   2.648   0.371   1.586 -0.1788 -0.5289  0.4875
 4440SOL    HW114219   2.568   0.415   1.543  0.3540  2.6137  2.3538
 4440SOL    HW214220   2.618   0.315   1.663 -0.6769  0.8364  1.3370
 4441SOL     OW14221   5.959   2.524   1.650 -0.1585 -0.8027  0.4503
 4441SOL    HW114222   5.892   2.493   1.718 -0.9955 -0.4391 -0.1975
 4441SOL    HW214223   6.025   2.451   1.633 -0.7774 -1.4153  0.6082
 4442SOL     OW14224   3.549   5.664   3.618  0.5243  0.0783 -0.0698
 4442SOL    HW114225   3.519   5.678   3.523  2.0633  0.0605 -0.5851
 4442SOL    HW214226   3.548   5.566   3.639 -1.2239  0.1740  0.4433
 4443SOL     OW14227   0.735   3.301   6.404  0.2578  0.2897 -0.1104
 4443SOL    HW114228   0.832   3.283   6.418  0.2167 -0.9825 -1.3008
 4443SOL    HW214229   0.684   3.276   6.486  0.7170 -0.9028 -0.1789
 4444SOL     OW14230   4.631   5.952   3.835  0.4576  0.3581  0.8323
 4444SOL    HW114231   4.613   6.004   3.752  1.9336  1.3121  1.0665
 4444SOL    HW214232   4.726   5.966   3.863  0.1798 -0.4803  2.3107
 4445SOL     OW14233   1.606   1.379   0.712  0.0974 -0.1236  0.4243
 4445SOL    HW114234   1.552   1.451   0.756 -1.0319 -1.3928  1.1687
 4445SOL    HW214235   1.545   1.312   0.670  1.1246  0.3692 -2.0936
 4446SOL     OW14236   4.901   0.241   2.784  0.1093 -0.0661 -0.0783
 4446SOL    HW114237   4.850   0.324   2.760 -0.6079 -0.3006  0.5829
 4446SOL    HW214238   4.947   0.255   2.872  1.1493  0.1209 -0.6444
 4447SOL     OW14239   4.675   3.397   5.841 -0.3905  0.0423  0.7204
 4447SOL    HW114240   4.704   3.411   5.936  0.9125 -1.1130  0.5271
 4447SOL    HW214241   4.715   3.467   5.783 -0.2999  0.1113  0.8671
 4448SOL     OW14242   3.390   3.691   1.007  0.0605  0.2528  0.3327
 4448SOL    HW114243   3.334   3.773   1.011 -2.5643 -1.4425  1.0528
 4448SOL    HW214244   3.454   3.690   1.083  0.3593  1.7356  0.1305
 4449SOL     OW14245   3.320   1.165   4.535 -0.0384 -0.0350  0.1799
 4449SOL    HW114246   3.372   1.223   4.597  1.2458 -1.5234  0.5591
 4449SOL    HW214247   3.232   1.142   4.577  0.3121 -0.0419  0.9275
 4450SOL     OW14248   2.954   3.218   2.666  0.9475  0.0494 -0.0313
 4450SOL    HW114249   3.038   3.170   2.644  0.2355 -0.9090 -0.7471
 4450SOL    HW214250   2.936   3.287   2.596  1.0522  0.1479  0.0381
 4451SOL     OW14251   4.977   4.490   3.784  0.3102  0.0808  0.3842
 4451SOL    HW114252   5.032   4.572   3.805  0.0004 -0.1827  2.4521
 4451SOL    HW214253   4.906   4.479   3.854  0.7816 -2.3230  0.5744
 4452SOL     OW14254   6.655   0.762   5.297  0.1925 -0.0890  0.5612
 4452SOL    HW114255   6.732   0.748   5.234  0.2633  1.4573  0.2637
 4452SOL    HW214256   6.690   0.775   5.390  0.1788 -0.9029  0.6877
 4453SOL     OW14257   6.078   2.909   0.341  0.1588 -0.2155 -0.1867
 4453SOL    HW114258   6.093   3.000   0.379  1.2128 -1.7754  3.5941
 4453SOL    HW214259   6.159   2.852   0.356 -0.7818 -2.0701 -1.6630
 4454SOL     OW14260   3.639   0.894   1.466 -0.5285  0.2298 -0.3601
 4454SOL    HW114261   3.607   0.799   1.468 -2.1748  0.6784 -2.1107
 4454SOL    HW214262   3.593   0.946   1.537  2.0589 -0.6586  2.1551
 4455SOL     OW14263   3.897   5.594   5.781  0.3644  0.0165 -0.0564
 4455SOL    HW114264   3.936   5.505   5.760 -0.5426  0.0705 -2.2563
 4455SOL    HW214265   3.969   5.654   5.817  1.7735 -0.6402 -1.6091
 4456SOL     OW14266   2.399   4.731   2.020  0.0436 -0.0654 -0.3011
 4456SOL    HW114267   2.431   4.797   2.088 -0.5407 -0.4817  0.3821
 4456SOL    HW214268   2.300   4.737   2.011  0.0893 -0.1685 -0.9661
 4457SOL     OW14269   4.637   1.989   5.472 -0.1807  0.0485 -0.1512
 4457SOL    HW114270   4.715   2.051   5.465 -0.0056 -0.0234  0.9644
 4457SOL    HW214271   4.567   2.016   5.406  0.7866  0.0903 -1.1935
 4458SOL     OW14272   3.932   4.085   0.200 -0.0959  0.0589  0.0470
 4458SOL    HW114273   3.950   4.182   0.185 -0.1041  0.2941  1.4052
 4458SOL    HW214274   3.977   4.031   0.129  2.1110  0.9089  0.7334
 4459SOL     OW14275   4.059   1.391   3.461  0.1453  0.4904 -0.0227
 4459SOL    HW114276   4.113   1.472   3.485  1.0489  0.0744 -0.5829
 4459SOL    HW214277   3.968   1.419   3.430 -0.2148  1.1722  1.5560
 4460SOL     OW14278   1.793   2.758   0.566 -0.1419 -0.2084 -0.4727
 4460SOL    HW114279   1.705   2.806   0.567  0.9011  1.9862 -2.9505
 4460SOL    HW214280   1.800   2.702   0.484  0.6408 -0.7039 -0.0806
 4461SOL     OW14281   1.225   0.289   3.792  0.8160  0.0754 -0.3547
 4461SOL    HW114282   1.153   0.280   3.862  2.0755 -1.5144  0.8172
 4461SOL    HW214283   1.290   0.359   3.821  1.9803 -1.3854  0.7483
 4462SOL     OW14284   0.261   5.255   1.132 -0.6053 -0.3231  0.1071
 4462SOL    HW114285   0.331   5.316   1.096 -0.3291 -0.6811  0.0220
 4462SOL    HW214286   0.260   5.170   1.078 -0.3612 -0.7627  0.7816
 4463SOL     OW14287   1.400   2.838   4.761 -0.0892  0.3261  0.3564
 4463SOL    HW114288   1.460   2.759   4.766  1.0318  1.1468  0.2886
 4463SOL    HW214289   1.378   2.859   4.666  0.8762  0.9966  0.2654
 4464SOL     OW14290   6.254   3.646   0.589 -0.2045 -0.3630 -0.4309
 4464SOL    HW114291   6.351   3.663   0.609 -0.4535  0.1604  0.3623
 4464SOL    HW214292   6.201   3.729   0.607 -0.7017 -0.3874 -1.6341
 4465SOL     OW14293   2.128   6.562   2.981 -0.5763  0.4894  0.4660
 4465SOL    HW114294   2.089   6.647   2.945  0.9371  0.5335 -1.1824
 4465SOL    HW214295   2.123   6.563   3.081 -1.6584  1.9798  0.4282
 4466SOL     OW14296   0.003   0.890   1.963 -0.0375  0.1676  0.5179
 4466SOL    HW114297   0.047   0.819   2.018 -0.8470 -0.2838  0.5983
 4466SOL    HW214298  -0.092   0.865   1.946 -0.2014  1.0088  0.1411
 4467SOL     OW14299   2.897   6.893   5.198  0.4241  0.0736  0.4150
 4467SOL    HW114300   2.801   6.865   5.198  0.8800 -1.6153  1.2166
 4467SOL    HW214301   2.908   6.976   5.144 -1.3908 -0.0510 -0.1891
 4468SOL     OW14302   0.996   0.022   0.023 -0.2846  0.4625  0.2304
 4468SOL    HW114303   0.970  -0.007   0.115 -1.2841 -1.4295 -0.5778
 4468SOL    HW214304   1.004   0.122   0.020  1.0590  0.4953  2.6415
 4469SOL     OW14305   4.498   0.819   1.686  0.0062 -0.4851  0.3832
 4469SOL    HW114306   4.500   0.878   1.605  1.0536 -0.8489  0.1303
 4469SOL    HW214307   4.471   0.726   1.659  0.4508 -0.6302  0.4314
 4470SOL     OW14308   5.492   4.803   2.218  0.0122  0.0843  0.3834
 4470SOL    HW114309   5.556   4.831   2.289 -0.7843  2.4253  0.2666
 4470SOL    HW214310   5.501   4.864   2.139 -1.0405 -0.7134 -0.3770
 4471SOL     OW14311   0.248   2.915   6.064 -0.1003 -0.8018  0.0689
 4471SOL    HW114312   0.184   2.842   6.088  1.8062 -2.2756  0.9338
 4471SOL    HW214313   0.245   2.986   6.135 -0.3121 -1.1790  0.4419
 4472SOL     OW14314   6.717   5.400   2.941  0.4781  0.4076  0.2458
 4472SOL    HW114315   6.705   5.431   3.035 -2.1884  1.4667 -0.3534
 4472SOL    HW214316   6.810   5.421   2.910  1.3929  0.0477  2.5926
 4473SOL     OW14317   0.982   6.125   3.325  0.2339 -0.1317  0.0773
 4473SOL    HW114318   1.008   6.031   3.346  0.9911  0.1705  0.5020
 4473SOL    HW214319   0.970   6.134   3.226 -1.0574 -0.9696  0.1280
 4474SOL     OW14320   2.028   1.398   1.661 -0.2898 -0.3492  0.0148
 4474SOL    HW114321   2.080   1.345   1.728  0.0635  1.4948  1.2511
 4474SOL    HW214322   2.082   1.477   1.632 -1.3774  0.1543 -0.7085
 4475SOL     OW14323   0.843   4.582   1.444  0.2074  0.3222 -0.2028
 4475SOL    HW114324   0.823   4.560   1.539  0.6504  1.6264  0.2100
 4475SOL    HW214325   0.807   4.672   1.422 -0.2983 -0.1508 -1.4173
 4476SOL     OW14326   5.456   6.638   2.801  0.1608  0.5483 -0.8050
 4476SOL    HW114327   5.482   6.599   2.889  1.6923  0.8061 -1.1171
 4476SOL    HW214328   5.450   6.566   2.732 -2.6361  0.1003 -0.1988
 4477SOL     OW14329   2.840   1.231   0.362 -0.3911 -0.1689  0.7999
 4477SOL    HW114330   2.859   1.323   0.328  0.4743 -0.4313  0.5276
 4477SOL    HW214331   2.776   1.185   0.300 -3.3447  1.2801  2.5706
 4478SOL     OW14332   0.937   6.627   1.573 -0.6116  0.2341  0.5353
 4478SOL    HW114333   0.919   6.563   1.498 -1.7027 -0.5292  1.4149
 4478SOL    HW214334   1.024   6.605   1.616 -0.2660  0.3018 -0.1189
 4479SOL     OW14335   0.611   6.691   5.936 -0.0656 -0.0625 -0.1972
 4479SOL    HW114336   0.527   6.734   5.969  0.0594 -0.7119  1.0126
 4479SOL    HW214337   0.605   6.592   5.947  1.2037 -0.0652  0.8350
 4480SOL     OW14338   6.390   4.732   6.223 -0.2188 -0.0825  0.3758
 4480SOL    HW114339   6.448   4.659   6.260 -1.5297 -1.2173  0.2968
 4480SOL    HW214340   6.332   4.694   6.151 -0.3621  1.2465 -0.2386
 4481SOL     OW14341   2.628   0.551   2.300 -0.4000  0.3096 -0.1453
 4481SOL    HW114342   2.609   0.643   2.334  0.3090  0.2414  0.4807
 4481SOL    HW214343   2.549   0.517   2.249 -1.8138  0.1738  1.9956
 4482SOL     OW14344   6.607   3.725   5.293  0.3312  0.3689  0.0589
 4482SOL    HW114345   6.541   3.747   5.365 -0.8630  1.7138 -1.3596
 4482SOL    HW214346   6.557   3.699   5.210  1.6127  0.4412 -0.7600
 4483SOL     OW14347   5.100   2.044   1.017 -0.4120  0.2807 -0.0394
 4483SOL    HW114348   5.118   1.947   1.005 -0.5336  0.3805 -1.1508
 4483SOL    HW214349   5.003   2.058   1.038 -0.7281  0.2442 -1.3667
 4484SOL     OW14350   3.889   4.006   4.072 -0.2148 -0.0112 -0.1072
 4484SOL    HW114351   3.837   4.055   4.002 -0.1465  0.8354  0.4231
 4484SOL    HW214352   3.908   3.913   4.040 -3.0736 -0.7849  0.1644
 4485SOL     OW14353   4.077   2.146   6.689 -0.7794  0.2348  0.2058
 4485SOL    HW114354   4.144   2.193   6.745 -2.4429 -0.0660  2.5845
 4485SOL    HW214355   4.034   2.211   6.626 -1.2336  1.3840  1.6462
 4486SOL     OW14356   6.898   1.728   6.792  0.1927 -0.1961 -0.4760
 4486SOL    HW114357   6.829   1.679   6.739 -0.2184  1.5477 -1.6313
 4486SOL    HW214358   6.988   1.712   6.753  0.2149 -0.9168 -0.1484
 4487SOL     OW14359   0.519   2.488   5.556  0.2148 -0.2795  0.0227
 4487SOL    HW114360   0.494   2.524   5.466  0.1789 -0.3355  0.0107
 4487SOL    HW214361   0.440   2.444   5.598 -0.1395  0.8863  0.6397
 4488SOL     OW14362   6.058   2.194   6.749 -0.9085 -0.4166  0.1526
 4488SOL    HW114363   6.020   2.103   6.766 -1.6637  0.1130  1.4751
 4488SOL    HW214364   5.990   2.249   6.699 -1.3059  0.0647  1.2029
 4489SOL     OW14365   1.075   5.841   3.377 -0.2710  0.8596 -0.3431
 4489SOL    HW114366   1.038   5.840   3.284 -0.7056 -0.7085 -0.1916
 4489SOL    HW214367   1.132   5.760   3.390 -1.5817  0.1316  1.2607
 4490SOL     OW14368   0.630   2.272   1.470 -0.0676  0.3749  0.2013
 4490SOL    HW114369   0.693   2.233   1.536 -0.3642 -0.5995 -0.0666
 4490SOL    HW214370   0.566   2.201   1.439 -1.5216  1.3929  0.7248
 4491SOL     OW14371   0.612   2.794   3.187 -0.3811  0.0956  0.1590
 4491SOL    HW114372   0.528   2.783   3.240  0.1800  2.2099  1.6020
 4491SOL    HW214373   0.689   2.755   3.237  0.3402  3.1050  1.6029
 4492SOL     OW14374   4.398   1.487   1.480  0.2813  0.0782 -0.5851
 4492SOL    HW114375   4.325   1.550   1.452  0.4704 -0.7111 -3.0927
 4492SOL    HW214376   4.462   1.475   1.404  1.0198 -2.0619  0.3084
 4493SOL     OW14377   3.536   5.597   4.425 -0.4340  0.1224 -0.3595
 4493SOL    HW114378   3.519   5.688   4.386 -0.5453  0.0005 -0.5930
 4493SOL    HW214379   3.466   5.533   4.393 -0.1314 -0.1387 -0.4997
 4494SOL     OW14380   0.856   2.896   3.096  0.1925 -0.2549  0.1828
 4494SOL    HW114381   0.762   2.906   3.128 -0.0830 -2.0584  0.0434
 4494SOL    HW214382   0.868   2.946   3.010 -1.2010 -1.4884 -0.7830
 4495SOL     OW14383   6.773   5.550   4.073  0.1738  0.1790  0.5372
 4495SOL    HW114384   6.797   5.502   3.988  2.0824  1.6953  0.1299
 4495SOL    HW214385   6.821   5.507   4.149  0.3461  0.2473  0.4688
 4496SOL     OW14386   6.086   4.208   1.242 -0.1650 -0.0593  0.2816
 4496SOL    HW114387   6.162   4.201   1.178  0.0102 -1.2259  0.5831
 4496SOL    HW214388   6.084   4.126   1.300 -1.1170  0.3620  0.8711
 4497SOL     OW14389   5.644   5.901   1.325 -0.4303 -0.0288 -0.0207
 4497SOL    HW114390   5.668   5.841   1.401 -1.9145  1.1562  1.4561
 4497SOL    HW214391   5.712   5.974   1.318  0.5715 -0.9951 -0.8950
 4498SOL     OW14392   6.307   5.048   6.112 -0.4054 -0.0283 -0.1923
 4498SOL    HW114393   6.251   4.984   6.164 -0.6231  1.4089  1.4680
 4498SOL    HW214394   6.338   5.006   6.027  1.0031 -2.9796  1.6298
 4499SOL     OW14395   2.049   3.807   4.954  0.1090  0.0451 -0.6896
 4499SOL    HW114396   1.961   3.853   4.968  0.7048  1.3128 -0.9577
 4499SOL    HW214397   2.104   3.815   5.038  0.5691  0.6306 -1.0407
 4500SOL     OW14398   3.621   3.566   2.407  0.1708 -0.2343  0.2190
 4500SOL    HW114399   3.706   3.518   2.430 -1.5492 -3.1329  1.1171
 4500SOL    HW214400   3.580   3.524   2.326 -0.2431  1.3668 -0.4289
 4501SOL     OW14401   0.380   4.081   6.921  0.2451 -0.2835  0.3924
 4501SOL    HW114402   0.297   4.027   6.909  1.3877 -1.8954 -0.7133
 4501SOL    HW214403   0.414   4.111   6.831  1.0301  0.0699  0.7954
 4502SOL     OW14404   1.857   3.841   1.133 -0.5234 -0.6398  0.4219
 4502SOL    HW114405   1.911   3.907   1.082 -1.2453 -0.1750  0.2444
 4502SOL    HW214406   1.917   3.785   1.191 -0.0350  1.3338  1.9302
 4503SOL     OW14407   1.794   1.051   4.087  0.3917 -0.1552 -0.2049
 4503SOL    HW114408   1.745   1.135   4.065  0.0256 -0.2048  0.3763
 4503SOL    HW214409   1.884   1.073   4.124  0.2876 -0.0156 -0.0332
 4504SOL     OW14410   5.593   1.524   5.321  0.0348 -0.7169 -0.1848
 4504SOL    HW114411   5.499   1.501   5.297 -0.3723  0.6676 -0.0091
 4504SOL    HW214412   5.596   1.614   5.364  1.2502 -1.4104  1.2969
 4505SOL     OW14413   0.434   5.823   4.265  0.6217 -0.3938  0.4490
 4505SOL    HW114414   0.511   5.831   4.329 -0.0705  1.9912  1.0778
 4505SOL    HW214415   0.463   5.770   4.186  1.6771 -2.9870  2.4132
 4506SOL     OW14416   2.530   2.069   4.934 -0.1375  0.3218  0.0982
 4506SOL    HW114417   2.542   2.106   4.842  0.7486  2.0556  0.8571
 4506SOL    HW214418   2.620   2.056   4.976 -0.5172 -0.9387  0.5476
 4507SOL     OW14419   6.992   6.491   0.577  0.2773 -0.3132 -1.1323
 4507SOL    HW114420   6.898   6.473   0.604  0.6239  0.5823  0.8443
 4507SOL    HW214421   7.053   6.429   0.627  0.8536  0.5201 -0.7787
 4508SOL     OW14422   2.069   3.140   0.774 -0.2084  0.4205 -0.1558
 4508SOL    HW114423   2.073   3.240   0.767 -0.0390  0.3715 -0.8251
 4508SOL    HW214424   2.019   3.103   0.696 -2.9660  0.1667  1.5781
 4509SOL     OW14425   3.936   6.387   2.461 -0.2882 -0.6355 -0.1370
 4509SOL    HW114426   3.953   6.323   2.385  1.3167  0.3906 -0.6868
 4509SOL    HW214427   4.008   6.376   2.529 -0.9794 -0.5962  0.6130
 4510SOL     OW14428   3.187   1.007   4.948 -0.4732 -0.4530  0.2023
 4510SOL    HW114429   3.147   0.924   4.986 -1.3676 -1.0320 -1.8543
 4510SOL    HW214430   3.133   1.086   4.976 -0.7476 -0.7769  0.5975
 4511SOL     OW14431   0.922   3.318   6.183 -0.1953 -0.1050 -0.4317
 4511SOL    HW114432   0.859   3.391   6.209 -0.5742  0.0985 -1.8768
 4511SOL    HW214433   1.002   3.322   6.243 -0.0808  1.6779 -0.6293
 4512SOL     OW14434   4.868   1.652   6.634  0.1014  0.3540 -0.3408
 4512SOL    HW114435   4.946   1.669   6.695 -0.4237 -0.4555  0.5715
 4512SOL    HW214436   4.830   1.740   6.605  1.6811  0.7778 -1.2486
 4513SOL     OW14437   6.339   6.516   2.724 -0.2197  0.3560  0.1039
 4513SOL    HW114438   6.354   6.446   2.794 -0.4503  0.4937  0.2918
 4513SOL    HW214439   6.388   6.491   2.640  0.5059  0.4582  0.4907
 4514SOL     OW14440   3.935   0.245   6.072 -0.0262 -0.3286 -0.3698
 4514SOL    HW114441   3.866   0.223   6.141 -0.5572 -0.8934 -1.0675
 4514SOL    HW214442   3.960   0.162   6.022  2.9995 -0.6757  1.4763
 4515SOL     OW14443   0.848   3.696   0.144  0.0940 -0.0184 -0.6715
 4515SOL    HW114444   0.897   3.625   0.196  1.3889  1.4045  0.1336
 4515SOL    HW214445   0.804   3.654   0.065 -0.6596 -2.0108  0.7106
 4516SOL     OW14446   2.378   2.027   4.576 -0.4616 -0.4803 -0.1185
 4516SOL    HW114447   2.318   2.011   4.498 -0.2567  0.9424 -0.6117
 4516SOL    HW214448   2.375   2.124   4.601  0.4800 -0.6649  0.8017
 4517SOL     OW14449   4.130   0.733   6.482  0.1934 -0.1008  0.0803
 4517SOL    HW114450   4.134   0.821   6.436  0.8482  0.1387  0.5724
 4517SOL    HW214451   4.083   0.743   6.570 -0.6790 -0.4681 -0.3317
 4518SOL     OW14452   2.120   2.023   4.874 -0.6837 -0.5954  0.1731
 4518SOL    HW114453   2.166   1.952   4.821 -0.8621 -1.6351  1.3676
 4518SOL    HW214454   2.164   2.032   4.964 -2.0261 -0.7671  0.8759
 4519SOL     OW14455   0.229   1.590   2.882 -0.0774  0.4542 -0.1952
 4519SOL    HW114456   0.153   1.531   2.853  0.6669  0.0975 -1.4909
 4519SOL    HW214457   0.270   1.633   2.802  0.6971  1.1409  0.5560
 4520SOL     OW14458   6.729   5.114   2.918 -0.7804  0.4477 -0.2578
 4520SOL    HW114459   6.695   5.198   2.960 -1.5787 -0.2081  0.4330
 4520SOL    HW214460   6.652   5.054   2.895 -0.1502 -1.2816  1.7841
 4521SOL     OW14461   4.638   2.050   6.216 -0.5487  0.2033  0.4282
 4521SOL    HW114462   4.607   1.980   6.280 -1.9049 -0.2443 -0.6590
 4521SOL    HW214463   4.569   2.123   6.210 -0.5219  0.1580 -0.6187
 4522SOL     OW14464   4.893   1.318   2.940 -0.5076  0.0032  0.0230
 4522SOL    HW114465   4.869   1.374   3.019 -0.6662 -0.4071  0.2657
 4522SOL    HW214466   4.989   1.289   2.947 -0.0538  1.2507 -0.7123
 4523SOL     OW14467   3.999   4.979   1.223 -0.2530 -0.6425  0.6315
 4523SOL    HW114468   3.965   5.025   1.141  0.5401  1.9612  1.6797
 4523SOL    HW214469   3.961   4.887   1.227 -1.2121 -0.4597 -2.0472
 4524SOL     OW14470   6.006   6.954   5.218 -0.1980  0.0910 -0.7863
 4524SOL    HW114471   6.040   7.035   5.170 -0.7541  0.1389 -1.1121
 4524SOL    HW214472   6.018   6.873   5.160  1.3504 -0.2530 -0.0398
 4525SOL     OW14473   0.304   1.008   3.561 -0.1199  0.0917 -0.7107
 4525SOL    HW114474   0.307   1.088   3.621  0.4356 -0.1231 -0.4520
 4525SOL    HW214475   0.210   0.996   3.526 -0.2644  0.6886 -0.5337
 4526SOL     OW14476   1.186   6.768   6.432  0.4054 -0.3366 -0.4388
 4526SOL    HW114477   1.274   6.752   6.387  1.1811  0.8189  0.6036
 4526SOL    HW214478   1.141   6.680   6.449  1.2514 -0.9319 -1.1561
 4527SOL     OW14479   4.753   6.168   2.699 -0.6610 -0.4740  0.0857
 4527SOL    HW114480   4.734   6.157   2.797 -0.4562 -1.3298  0.0314
 4527SOL    HW214481   4.799   6.087   2.664  0.2722  0.2856 -0.4845
 4528SOL     OW14482   5.608   0.771   5.595 -0.2201 -0.3176  0.4523
 4528SOL    HW114483   5.579   0.680   5.566 -0.5706 -0.8072  2.2236
 4528SOL    HW214484   5.528   0.830   5.604 -0.1014 -0.1353  0.3102
 4529SOL     OW14485   2.616   6.709   2.546 -0.4975 -0.4196  0.0258
 4529SOL    HW114486   2.526   6.684   2.581  0.2669 -0.9607  1.7577
 4529SOL    HW214487   2.608   6.788   2.486 -1.9628  0.4667  1.3008
 4530SOL     OW14488   6.000   3.678   4.721 -0.8276  0.2357  0.9979
 4530SOL    HW114489   5.921   3.680   4.659 -0.1830 -0.2786  0.1412
 4530SOL    HW214490   6.054   3.761   4.709 -0.4114 -0.1023  0.4617
 4531SOL     OW14491   2.348   4.462   2.416  0.0286 -0.5529  0.3525
 4531SOL    HW114492   2.297   4.534   2.462  0.9569 -1.2614  2.6079
 4531SOL    HW214493   2.385   4.498   2.330  1.6406  2.1791  2.0259
 4532SOL     OW14494   6.442   6.822   2.270  0.3427  0.7362 -0.5314
 4532SOL    HW114495   6.514   6.788   2.329 -0.9261 -1.0573  0.0492
 4532SOL    HW214496   6.481   6.886   2.203  2.4157 -0.0434 -0.1300
 4533SOL     OW14497   2.002   0.476   4.017  0.0101 -0.3728  0.3535
 4533SOL    HW114498   1.925   0.428   3.975 -0.5583  0.5986  0.2690
 4533SOL    HW214499   2.084   0.462   3.962 -0.2226 -0.9560  0.1458
 4534SOL     OW14500   6.697   3.334   4.737  0.7128  0.0600  0.2114
 4534SOL    HW114501   6.724   3.383   4.654  2.0878 -0.0739  0.5537
 4534SOL    HW214502   6.712   3.393   4.817 -0.8849  0.3001  0.3555
 4535SOL     OW14503   2.588   2.523   1.895 -0.7398  1.1604 -0.0677
 4535SOL    HW114504   2.595   2.424   1.905  0.9609  1.4257  2.5509
 4535SOL    HW214505   2.670   2.558   1.851  0.3524  1.6219  2.1764
 4536SOL     OW14506   3.508   1.170   5.326  0.1215 -0.1028  0.5264
 4536SOL    HW114507   3.565   1.232   5.272  1.0590 -0.7545  0.7420
 4536SOL    HW214508   3.491   1.087   5.272  0.3834 -0.4135  0.9212
 4537SOL     OW14509   4.612   3.234   1.144  0.2635 -0.0403  0.2579
 4537SOL    HW114510   4.606   3.334   1.136  0.0374  0.3919  4.1281
 4537SOL    HW214511   4.708   3.206   1.134  0.1456  0.2262 -2.5572
 4538SOL     OW14512   2.751   2.341   4.130 -0.8691 -0.2206 -0.5776
 4538SOL    HW114513   2.841   2.324   4.170 -0.3539 -0.3891 -1.7760
 4538SOL    HW214514   2.684   2.351   4.203  0.0449 -0.4947  0.3246
 4539SOL     OW14515   2.641   2.457   3.133 -0.4708  0.0174 -0.7310
 4539SOL    HW114516   2.676   2.551   3.137 -1.4288  0.3704 -0.3062
 4539SOL    HW214517   2.672   2.406   3.213  0.0807 -0.0388 -0.9800
 4540SOL     OW14518   3.570   4.172   4.132  0.1013 -0.3241 -0.6797
 4540SOL    HW114519   3.532   4.147   4.043  0.9669  0.1504 -1.1910
 4540SOL    HW214520   3.655   4.222   4.119 -0.3298  0.7234  0.3930
 4541SOL     OW14521   5.653   5.833   5.591  0.3049  0.0909  0.2174
 4541SOL    HW114522   5.632   5.813   5.496  1.9766 -2.5968  0.3231
 4541SOL    HW214523   5.736   5.784   5.619  0.6207  1.8430  2.7015
 4542SOL     OW14524   6.305   6.038   0.053 -0.0958 -0.2177  0.1250
 4542SOL    HW114525   6.392   5.990   0.065  1.0124  1.2617 -1.4697
 4542SOL    HW214526   6.288   6.052  -0.044 -1.6883  0.3034  0.4567
 4543SOL     OW14527   4.183   6.210   6.892  0.1337  0.2740  0.1291
 4543SOL    HW114528   4.116   6.276   6.856  0.5070  1.8073  2.0744
 4543SOL    HW214529   4.241   6.255   6.959  1.9191 -1.5173 -0.1169
 4544SOL     OW14530   3.014   5.666   0.911 -0.4345 -0.0968  0.1575
 4544SOL    HW114531   3.014   5.739   0.841 -2.1250 -1.0887 -0.9596
 4544SOL    HW214532   3.099   5.615   0.906 -0.4850 -0.0930 -1.1678
 4545SOL     OW14533   3.076   1.821   4.654  0.0864 -0.0890  0.4788
 4545SOL    HW114534   2.987   1.860   4.631  0.4858  0.5173 -0.0971
 4545SOL    HW214535   3.077   1.794   4.750 -0.4305  0.7504  0.7340
 4546SOL     OW14536   1.643   1.918   5.754 -0.4851  0.1879 -0.2521
 4546SOL    HW114537   1.652   1.866   5.668  0.3800  1.0530 -0.7065
 4546SOL    HW214538   1.727   1.971   5.769 -0.9339  0.6247  0.7491
 4547SOL     OW14539   6.247   3.187   1.991  0.1322  0.3850  0.5243
 4547SOL    HW114540   6.148   3.172   1.993  0.4552 -1.9481  1.4184
 4547SOL    HW214541   6.281   3.167   1.899  0.2451 -2.6459  1.1530
 4548SOL     OW14542   2.287   4.724   4.366 -0.0094  0.2623 -0.1173
 4548SOL    HW114543   2.373   4.677   4.387  0.4538  1.0195 -0.2758
 4548SOL    HW214544   2.214   4.657   4.355  0.5923 -0.4009 -0.1229
 4549SOL     OW14545   0.149   4.061   2.181  0.0684  0.2071 -0.5987
 4549SOL    HW114546   0.221   4.050   2.113  0.3570 -0.0468 -0.2530
 4549SOL    HW214547   0.119   3.971   2.213  0.2489  0.3307 -0.0664
 4550SOL     OW14548   6.836   0.674   4.454  0.1678  0.0729  0.5105
 4550SOL    HW114549   6.810   0.717   4.541 -1.3641  1.5200 -0.5892
 4550SOL    HW214550   6.797   0.727   4.378  4.0801  0.7870 -1.2703
 4551SOL     OW14551   6.822   3.194   6.230 -0.2152  0.9437 -0.7593
 4551SOL    HW114552   6.915   3.161   6.240 -0.4936 -0.0244 -1.2447
 4551SOL    HW214553   6.758   3.117   6.238 -1.1058  1.8120  1.3468
 4552SOL     OW14554   6.243   3.358   6.787 -0.9027  0.0375  0.3439
 4552SOL    HW114555   6.283   3.412   6.862  0.0283 -2.0228  1.4302
 4552SOL    HW214556   6.173   3.297   6.824 -1.8753  0.3942 -0.8379
 4553SOL     OW14557   4.750   5.525   5.979 -0.2109 -0.2784 -0.1112
 4553SOL    HW114558   4.710   5.451   6.033 -0.1982 -1.1994 -1.3242
 4553SOL    HW214559   4.819   5.488   5.917  1.3114  1.0500  0.7134
 4554SOL     OW14560   4.217   6.344   0.563  0.3246  0.3051 -0.2947
 4554SOL    HW114561   4.165   6.381   0.485  0.3431  1.5813  0.2712
 4554SOL    HW214562   4.233   6.247   0.549 -0.3223  0.3544 -1.5319
 4555SOL     OW14563   3.720   1.593   1.760  0.2671 -0.5588  0.0857
 4555SOL    HW114564   3.722   1.661   1.833  1.6339 -0.8721  0.3744
 4555SOL    HW214565   3.626   1.581   1.728 -0.5519 -1.1398  2.4854
 4556SOL     OW14566   5.260   0.632   4.261  0.8271  0.0377 -0.1661
 4556SOL    HW114567   5.179   0.633   4.319  0.9559 -1.2349  0.0807
 4556SOL    HW214568   5.339   0.663   4.313  0.5794  0.8913 -0.2879
 4557SOL     OW14569   6.260   1.579   5.164 -0.5931 -0.1312 -0.5745
 4557SOL    HW114570   6.255   1.479   5.170 -1.5303 -0.0280  0.5895
 4557SOL    HW214571   6.179   1.614   5.117  0.4455  0.0128 -2.3621
 4558SOL     OW14572   5.844   2.475   6.059  0.4622 -0.1657  0.2217
 4558SOL    HW114573   5.843   2.377   6.039 -0.2339 -0.5522  1.9353
 4558SOL    HW214574   5.928   2.498   6.108  1.3268  0.4199 -1.4579
 4559SOL     OW14575   2.439   6.048   0.384 -0.4915 -0.0174  0.2968
 4559SOL    HW114576   2.341   6.048   0.404 -0.5775  0.7776 -0.0875
 4559SOL    HW214577   2.474   5.955   0.391 -1.6086 -0.5885 -1.2203
 4560SOL     OW14578   5.048   2.992   1.323  0.0046  0.6338  0.2102
 4560SOL    HW114579   5.045   3.037   1.412  1.4756 -1.0686  1.1906
 4560SOL    HW214580   5.138   2.951   1.310 -0.6572 -0.3906 -1.4485
 4561SOL     OW14581   3.289   1.569   6.046 -0.2673  0.0594  0.7651
 4561SOL    HW114582   3.323   1.494   5.989 -0.4034  0.2971  0.3714
 4561SOL    HW214583   3.189   1.571   6.042 -0.3178 -0.3553  1.5655
 4562SOL     OW14584   2.743   5.250   5.061  0.2266  0.5257  0.3725
 4562SOL    HW114585   2.663   5.250   5.121  0.1291 -0.1582  0.2469
 4562SOL    HW214586   2.822   5.217   5.113  0.3221  0.7444  0.3633
 4563SOL     OW14587   6.572   3.101   1.039 -0.3732 -0.1206 -0.2112
 4563SOL    HW114588   6.492   3.152   1.071 -0.4733 -0.4550  0.0741
 4563SOL    HW214589   6.646   3.165   1.018 -0.3575  0.1127  0.5484
 4564SOL     OW14590   2.774   5.026   0.631 -0.4447 -0.2835  1.1160
 4564SOL    HW114591   2.841   4.999   0.561  0.0071 -0.4279  1.5964
 4564SOL    HW214592   2.702   5.081   0.589  1.6248  2.6419  1.0668
 4565SOL     OW14593   0.502   1.651   6.469  0.4965 -0.4756  0.3186
 4565SOL    HW114594   0.485   1.567   6.417  0.9217 -0.8375  0.7496
 4565SOL    HW214595   0.480   1.635   6.565 -2.0857  0.7432  0.0042
 4566SOL     OW14596   0.190   5.388   6.639  0.3767  0.2406  0.4544
 4566SOL    HW114597   0.227   5.301   6.607  0.3785  0.1082  0.8181
 4566SOL    HW214598   0.090   5.388   6.627  0.1863 -0.4144  1.8577
 4567SOL     OW14599   6.387   6.968   2.905  0.5831 -0.2680 -0.0087
 4567SOL    HW114600   6.411   7.060   2.875  1.7522 -1.0536 -1.6000
 4567SOL    HW214601   6.447   6.940   2.979  1.4284 -0.4155 -0.7412
 4568SOL     OW14602   0.489   4.975   4.551  0.3768 -0.3173  0.1077
 4568SOL    HW114603   0.406   5.029   4.535 -0.5116 -1.5058  0.5394
 4568SOL    HW214604   0.470   4.904   4.618  1.3338 -1.5669 -0.8890
 4569SOL     OW14605   0.470   2.536   3.739  0.3873  0.0381 -0.4698
 4569SOL    HW114606   0.531   2.577   3.806 -1.2421  0.5792  0.7383
 4569SOL    HW214607   0.440   2.446   3.771 -0.0469  0.1025 -0.6797
 4570SOL     OW14608   6.166   4.498   3.044  0.4483 -0.1482 -0.3976
 4570SOL    HW114609   6.250   4.492   3.098  0.0443  0.0142  0.2525
 4570SOL    HW214610   6.163   4.587   2.999 -0.6879  1.0160  1.8108
 4571SOL     OW14611   3.685   3.746   3.786 -0.1697  0.3266 -0.0298
 4571SOL    HW114612   3.631   3.754   3.702  0.8019  1.4845 -0.5652
 4571SOL    HW214613   3.769   3.695   3.767 -1.9332 -3.4792  1.2818
 4572SOL     OW14614   1.565   5.886   0.010 -0.0576 -0.0372 -0.2065
 4572SOL    HW114615   1.487   5.827   0.032  0.6071 -0.6793  0.4957
 4572SOL    HW214616   1.650   5.840   0.036  0.6684  0.0904 -2.1743
 4573SOL     OW14617   6.028   5.774   0.874 -0.2313 -0.6397 -0.1914
 4573SOL    HW114618   6.019   5.710   0.950 -0.0130 -2.2696 -1.4764
 4573SOL    HW214619   5.944   5.774   0.821  0.1106 -0.5810 -0.7375
 4574SOL     OW14620   1.188   5.960   1.341  0.0434 -0.2832  0.2837
 4574SOL    HW114621   1.178   5.923   1.249 -0.5428  0.5031  0.0230
 4574SOL    HW214622   1.168   5.888   1.408 -0.9675 -0.4753 -0.2044
 4575SOL     OW14623   5.533   0.795   6.109 -0.1785 -0.0652  0.6122
 4575SOL    HW114624   5.630   0.779   6.093 -0.1639 -1.2253  1.6830
 4575SOL    HW214625   5.500   0.868   6.048  1.1069 -0.3678 -0.4887
 4576SOL     OW14626   2.885   5.221   6.866  0.3919  0.3613  0.1865
 4576SOL    HW114627   2.965   5.278   6.847 -0.1204  0.6650 -1.1541
 4576SOL    HW214628   2.886   5.194   6.962  1.2177  1.7331  0.5970
 4577SOL     OW14629   1.285   5.276   2.681 -0.8128 -0.4738 -0.3398
 4577SOL    HW114630   1.328   5.330   2.609  1.0297 -0.2126  0.8868
 4577SOL    HW214631   1.306   5.179   2.668  0.0486 -0.3679  0.1341
 4578SOL     OW14632   0.372   4.259   3.272 -0.3944  0.0238  0.2236
 4578SOL    HW114633   0.416   4.204   3.343 -0.0568  1.0396  0.8194
 4578SOL    HW214634   0.275   4.235   3.266  0.3099 -2.7817 -1.6269
 4579SOL     OW14635   4.859   1.648   2.315 -0.8427 -0.6831  0.2839
 4579SOL    HW114636   4.763   1.619   2.315 -0.5506 -1.7529  1.5163
 4579SOL    HW214637   4.886   1.674   2.407 -0.2755  0.8650 -0.2793
 4580SOL     OW14638   0.061   5.003   0.888  0.5586 -0.0913 -0.4736
 4580SOL    HW114639  -0.010   5.003   0.958  0.5015 -1.0480 -0.5267
 4580SOL    HW214640   0.137   5.061   0.918 -0.2000  0.8903 -0.3856
 4581SOL     OW14641   3.991   5.253   2.350 -0.4327  0.3443  0.2237
 4581SOL    HW114642   4.038   5.276   2.436  1.3012 -0.2274 -0.5206
 4581SOL    HW214643   3.892   5.250   2.366 -0.1112 -0.7883  2.4605
 4582SOL     OW14644   6.364   5.813   4.631  0.1483 -0.6536 -0.6287
 4582SOL    HW114645   6.286   5.806   4.693  1.7308  0.3682  1.6474
 4582SOL    HW214646   6.336   5.789   4.538 -2.6558 -1.0068  0.2220
 4583SOL     OW14647   2.999   1.878   5.186 -0.4912 -0.4030 -0.0451
 4583SOL    HW114648   2.995   1.783   5.158 -0.4465 -0.4966  0.2576
 4583SOL    HW214649   3.045   1.932   5.116 -1.6422 -0.3777 -0.8062
 4584SOL     OW14650   1.171   0.027   6.807  0.0697  0.7971  0.6458
 4584SOL    HW114651   1.090   0.036   6.865 -2.4053 -0.8237 -2.2548
 4584SOL    HW214652   1.178   0.105   6.745 -1.0370 -0.3710 -1.0275
 4585SOL     OW14653   2.402   0.800   2.133 -0.1379  0.4041  0.2605
 4585SOL    HW114654   2.306   0.775   2.146  0.1336  0.1862  2.0831
 4585SOL    HW214655   2.445   0.736   2.069 -1.0570  0.1595 -0.1249
 4586SOL     OW14656   3.316   3.126   6.759 -0.4439 -0.0614 -0.3212
 4586SOL    HW114657   3.309   3.224   6.778  0.2075 -0.1393  0.4247
 4586SOL    HW214658   3.252   3.076   6.817 -1.1322 -0.0536 -1.0585
 4587SOL     OW14659   4.454   3.736   0.452  0.6395 -0.6549  0.4966
 4587SOL    HW114660   4.544   3.775   0.433  0.1499  0.8139  1.0647
 4587SOL    HW214661   4.422   3.767   0.542 -1.1282  0.1783 -0.3636
 4588SOL     OW14662   3.305   3.657   4.272 -0.5441  0.1376  0.1008
 4588SOL    HW114663   3.322   3.755   4.274 -2.1256  0.4831 -1.1783
 4588SOL    HW214664   3.353   3.617   4.193 -1.5806  0.2731 -0.6191
 4589SOL     OW14665   4.687   2.075   2.256 -0.0364  0.3992  0.6567
 4589SOL    HW114666   4.675   2.170   2.284 -0.7688  0.1276  1.3192
 4589SOL    HW214667   4.781   2.046   2.276  0.8744  1.5959 -1.5533
 4590SOL     OW14668   4.365   5.609   2.919 -0.8859 -0.5074  0.1224
 4590SOL    HW114669   4.369   5.679   2.847  1.0413 -2.4400 -1.7797
 4590SOL    HW214670   4.403   5.647   3.003  1.3466  0.4484 -1.2119
 4591SOL     OW14671   6.722   5.958   5.887 -0.2510  0.0645 -0.1461
 4591SOL    HW114672   6.796   5.930   5.947 -1.3541 -1.0521  0.7494
 4591SOL    HW214673   6.723   6.057   5.876  0.7012  0.1649  0.7146
 4592SOL     OW14674   3.058   1.415   1.106 -0.1763 -0.3960 -0.2878
 4592SOL    HW114675   2.995   1.338   1.100 -0.6484  0.1184 -3.9611
 4592SOL    HW214676   3.006   1.500   1.110  0.3315 -0.1195  0.5456
 4593SOL     OW14677   5.007   3.980   1.147  0.2501 -0.1194 -0.3444
 4593SOL    HW114678   5.049   3.909   1.089  0.7409  0.7710 -1.1087
 4593SOL    HW214679   4.936   3.938   1.204 -0.9037 -0.9025 -2.2432
 4594SOL     OW14680   3.872   2.179   3.418 -0.2594 -0.5814  0.3455
 4594SOL    HW114681   3.783   2.204   3.379 -0.9971 -2.2524  0.8770
 4594SOL    HW214682   3.884   2.080   3.412  1.3009 -0.4426  0.8725
 4595SOL     OW14683   1.673   2.204   5.059  0.2472 -0.2126 -0.2002
 4595SOL    HW114684   1.773   2.204   5.057  0.3271  0.8321  1.5311
 4595SOL    HW214685   1.642   2.187   5.153 -1.1999 -0.3324 -0.6837
 4596SOL     OW14686   0.139   0.602   2.527 -0.4220  0.8026 -0.0265
 4596SOL    HW114687   0.115   0.699   2.522 -0.5474  1.1705  4.3049
 4596SOL    HW214688   0.186   0.583   2.613 -0.5849 -3.0550 -0.6122
 4597SOL     OW14689   6.463   5.405   5.875 -0.2459  0.2417 -0.1880
 4597SOL    HW114690   6.492   5.495   5.909  0.8090 -0.1216 -0.0834
 4597SOL    HW214691   6.384   5.416   5.815 -0.0860  1.2455 -0.2360
 4598SOL     OW14692   2.656   0.148   5.767  0.4953  0.4018 -0.0474
 4598SOL    HW114693   2.627   0.055   5.743  0.4316  0.4051  0.0169
 4598SOL    HW214694   2.597   0.184   5.839  0.1058  0.7336 -0.5214
 4599SOL     OW14695   1.533   4.213   1.223  0.3040  0.1774  0.0298
 4599SOL    HW114696   1.539   4.114   1.228  1.1134  0.1513 -1.0336
 4599SOL    HW214697   1.612   4.249   1.173  0.5475  1.4444  1.2511
 4600SOL     OW14698   4.487   3.695   5.970 -0.1352 -0.0048 -0.1884
 4600SOL    HW114699   4.535   3.644   5.899  0.3863 -0.8120  0.7183
 4600SOL    HW214700   4.534   3.782   5.987 -1.0971  0.8937 -1.8226
 4601SOL     OW14701   2.473   2.560   3.809  0.0331  0.4761 -0.2037
 4601SOL    HW114702   2.467   2.655   3.839  0.1346  0.5819 -0.5097
 4601SOL    HW214703   2.470   2.557   3.709  3.0373  0.4163 -0.3780
 4602SOL     OW14704   3.051   0.410   1.817 -0.0752  0.1759 -0.0769
 4602SOL    HW114705   3.066   0.507   1.838  2.0584 -0.3549  1.1788
 4602SOL    HW214706   3.102   0.354   1.882 -1.9609 -1.8482 -0.2308
 4603SOL     OW14707   2.448   5.727   1.762  0.6861  0.0166  0.0058
 4603SOL    HW114708   2.483   5.639   1.793  0.1688 -0.3872 -0.5392
 4603SOL    HW214709   2.355   5.716   1.726  0.6740  0.7519 -0.2192
 4604SOL     OW14710   4.182   0.078   1.087  0.0231  0.6485  0.3884
 4604SOL    HW114711   4.244   0.062   1.011 -0.3044 -0.8411  0.4013
 4604SOL    HW214712   4.095   0.114   1.053 -0.4582 -0.8894 -0.0755
 4605SOL     OW14713   4.357   0.560   2.691  0.0896 -0.0724 -0.2091
 4605SOL    HW114714   4.261   0.574   2.670 -0.2396 -1.0827  0.5722
 4605SOL    HW214715   4.397   0.493   2.629  0.1497 -0.0470 -0.1985
 4606SOL     OW14716   0.442   5.125   5.695 -0.4819  0.4447 -0.0951
 4606SOL    HW114717   0.528   5.113   5.644 -0.0266  1.5175  0.3784
 4606SOL    HW214718   0.401   5.213   5.670 -2.2317 -0.6607 -1.3987
 4607SOL     OW14719   3.153   2.158   2.715 -0.5437  0.1278 -0.4131
 4607SOL    HW114720   3.173   2.196   2.806 -0.5260 -0.9923  0.0682
 4607SOL    HW214721   3.055   2.168   2.696 -0.6093  0.0686 -0.1172
 4608SOL     OW14722   2.206   5.067   4.632 -0.1503  0.0069  0.2106
 4608SOL    HW114723   2.196   4.982   4.683 -0.5875 -0.7713 -1.1257
 4608SOL    HW214724   2.157   5.141   4.679 -4.6265 -1.6424 -1.2915
 4609SOL     OW14725   4.793   4.802   5.798  0.7709  0.0731  0.7617
 4609SOL    HW114726   4.789   4.898   5.773 -1.8681 -0.3709 -0.8356
 4609SOL    HW214727   4.716   4.779   5.857  0.7539 -1.2683  0.2550
 4610SOL     OW14728   0.196   3.372   0.016  0.1677  1.3125 -0.2275
 4610SOL    HW114729   0.171   3.464  -0.016 -1.4779  1.2086  0.6328
 4610SOL    HW214730   0.130   3.306  -0.021  0.6861  0.6297  0.0590
 4611SOL     OW14731   0.685   4.168   0.328  0.4206  0.6544 -0.3695
 4611SOL    HW114732   0.716   4.175   0.423 -0.2259 -2.5429  0.2117
 4611SOL    HW214733   0.695   4.073   0.297 -3.2890  0.6361 -2.0412
 4612SOL     OW14734   3.365   4.395   6.602 -0.3441 -0.1013 -0.1011
 4612SOL    HW114735   3.326   4.337   6.531 -0.9139  0.5522 -0.3390
 4612SOL    HW214736   3.301   4.469   6.622  0.3779  0.4522  0.1856
 4613SOL     OW14737   2.132   6.428   4.535 -0.3202 -0.2002  0.6580
 4613SOL    HW114738   2.144   6.522   4.568 -0.1321 -0.0178  0.0753
 4613SOL    HW214739   2.035   6.411   4.520 -0.2005  0.6659 -1.4051
 4614SOL     OW14740   2.421   5.877   6.110 -0.0064 -0.0178 -0.5049
 4614SOL    HW114741   2.476   5.794   6.115  0.4426  0.3055  0.1429
 4614SOL    HW214742   2.464   5.948   6.167 -1.8089 -0.1776  1.1585
 4615SOL     OW14743   2.155   3.141   6.475  0.2055  0.6725 -0.1955
 4615SOL    HW114744   2.208   3.101   6.550 -0.1995  0.2202 -0.1437
 4615SOL    HW214745   2.217   3.177   6.406  0.6417 -1.5325 -1.0399
 4616SOL     OW14746   0.952   1.324   5.974 -0.4734  0.0968 -0.5393
 4616SOL    HW114747   0.917   1.293   6.063 -0.2242 -1.9348 -1.0991
 4616SOL    HW214748   0.881   1.316   5.905 -0.2910  0.4698 -0.7742
 4617SOL     OW14749   0.193   3.442   2.315 -0.4374 -0.1101  0.3889
 4617SOL    HW114750   0.224   3.495   2.393 -0.4645  0.6972 -0.1404
 4617SOL    HW214751   0.268   3.386   2.280 -0.3943 -0.3842  0.9129
 4618SOL     OW14752   4.489   2.805   5.785 -0.2983 -0.3474 -0.1449
 4618SOL    HW114753   4.540   2.833   5.704  0.3204  0.5768  0.5405
 4618SOL    HW214754   4.502   2.707   5.801  3.2549  0.1997  1.3049
 4619SOL     OW14755   3.999   6.154   3.528  0.3033  0.1527 -0.0013
 4619SOL    HW114756   3.959   6.062   3.531  1.8446 -0.5423  0.8823
 4619SOL    HW214757   4.052   6.165   3.445  0.5203  0.0472  0.1209
 4620SOL     OW14758   5.090   4.325   0.211  0.3133  0.0060  0.1630
 4620SOL    HW114759   5.069   4.320   0.114  1.6709 -1.6085 -0.0969
 4620SOL    HW214760   5.175   4.274   0.230  0.3584  0.7097  2.1064
 4621SOL     OW14761   0.693   6.777   5.669  0.4520 -0.2140  0.2158
 4621SOL    HW114762   0.680   6.733   5.758 -0.6926 -0.8301 -0.2354
 4621SOL    HW214763   0.667   6.874   5.675  1.5790  0.0688  0.8460
 4622SOL     OW14764   6.797   2.692   0.043 -0.0881 -0.0764  0.2345
 4622SOL    HW114765   6.870   2.744   0.087  0.5541 -0.1114 -0.7703
 4622SOL    HW214766   6.737   2.653   0.114  1.1008 -0.3985  1.0903
 4623SOL     OW14767   1.121   5.550   2.504  0.7851  0.5235 -0.2891
 4623SOL    HW114768   1.036   5.590   2.469  1.0697  0.9487 -0.5047
 4623SOL    HW214769   1.102   5.496   2.585  0.2416  0.2606 -0.5874
 4624SOL     OW14770   5.988   1.415   0.678  0.3497 -0.3167 -0.6684
 4624SOL    HW114771   5.991   1.316   0.676  1.3094 -0.3199  0.1282
 4624SOL    HW214772   5.894   1.446   0.694  0.4405 -1.1872  2.0865
 4625SOL     OW14773   0.462   2.731   6.351  1.0474 -0.0708  0.3217
 4625SOL    HW114774   0.496   2.747   6.258  0.1505  0.1786  0.0176
 4625SOL    HW214775   0.390   2.798   6.372 -0.9274 -1.9647  0.0370
 4626SOL     OW14776   6.092   4.949   4.090 -0.5392 -0.3149  0.0912
 4626SOL    HW114777   6.077   4.851   4.102  0.5075 -0.2242  2.8225
 4626SOL    HW214778   6.190   4.969   4.092 -0.6909  0.7298 -1.2979
 4627SOL     OW14779   4.805   6.680   5.795 -0.2938 -0.6737 -0.6262
 4627SOL    HW114780   4.835   6.628   5.716  0.0342 -2.7819  0.7967
 4627SOL    HW214781   4.729   6.631   5.840 -2.5817  1.9963 -1.3038
 4628SOL     OW14782   5.626   6.841   3.852 -0.6630  0.0550  0.7395
 4628SOL    HW114783   5.640   6.747   3.881  1.6770 -0.1773 -0.8768
 4628SOL    HW214784   5.696   6.900   3.894 -1.1378  0.8041  0.5054
 4629SOL     OW14785   4.129   5.255   1.698  0.1340  0.0280 -0.4355
 4629SOL    HW114786   4.170   5.165   1.686 -1.7384 -1.2860  2.0429
 4629SOL    HW214787   4.030   5.246   1.706 -0.3040  2.5655 -1.7934
 4630SOL     OW14788   2.063   4.635   2.724  0.2446  0.3363 -0.4620
 4630SOL    HW114789   1.974   4.594   2.702  0.7924 -0.5635 -1.0861
 4630SOL    HW214790   2.059   4.677   2.814 -0.8130  0.3085 -0.4792
 4631SOL     OW14791   3.958   6.849   3.009  0.7266  0.0443  0.3585
 4631SOL    HW114792   3.949   6.856   3.108 -0.7981 -1.4641  0.3721
 4631SOL    HW214793   3.868   6.842   2.967  1.3513  0.6049 -1.1451
 4632SOL     OW14794   4.020   5.759   3.464 -0.3105  0.5709 -0.0016
 4632SOL    HW114795   4.099   5.811   3.496 -0.1747  0.8605 -0.7810
 4632SOL    HW214796   3.959   5.740   3.541  0.1565  0.9749  0.4753
 4633SOL     OW14797   5.644   1.688   4.829  0.5058 -0.3964 -0.0657
 4633SOL    HW114798   5.677   1.775   4.865 -2.5513  1.6240 -1.6897
 4633SOL    HW214799   5.687   1.670   4.740 -0.6206  0.8278 -0.9035
 4634SOL     OW14800   2.524   5.637   0.115  0.4306 -0.4888 -0.0200
 4634SOL    HW114801   2.493   5.720   0.068  0.2555 -1.3616 -1.4933
 4634SOL    HW214802   2.620   5.620   0.092  0.1455 -1.3083 -0.6748
 4635SOL     OW14803   4.831   5.625   2.228  0.1088  0.7487  0.2983
 4635SOL    HW114804   4.744   5.662   2.195  1.1002  2.7097 -0.3059
 4635SOL    HW214805   4.904   5.689   2.204  1.7529 -0.9744  0.5697
 4636SOL     OW14806   2.100   5.407   6.165  0.6775  0.2812  0.0878
 4636SOL    HW114807   2.057   5.395   6.075  0.3908 -1.8763  0.4546
 4636SOL    HW214808   2.194   5.438   6.152  0.6178  0.0861 -0.9633
 4637SOL     OW14809   2.366   1.213   6.902 -0.1856  0.3797  0.3883
 4637SOL    HW114810   2.421   1.130   6.899 -1.6678 -0.6309 -1.9171
 4637SOL    HW214811   2.343   1.235   6.997  1.3663 -1.0504  1.1335
 4638SOL     OW14812   5.059   3.667   0.649 -0.3266  0.6796 -0.4899
 4638SOL    HW114813   5.135   3.639   0.708 -2.1709 -0.4996  1.4827
 4638SOL    HW214814   5.064   3.765   0.631  0.9903  0.8308  0.5659
 4639SOL     OW14815   6.863   3.628   3.592 -0.4612 -0.3694 -0.4167
 4639SOL    HW114816   6.918   3.587   3.665  0.1198 -0.3290 -0.8269
 4639SOL    HW214817   6.768   3.635   3.622 -0.1230  0.1706  0.5523
 4640SOL     OW14818   4.197   4.767   3.962 -0.4228  0.5990 -0.4004
 4640SOL    HW114819   4.261   4.700   3.925 -0.3583  0.1818  0.4338
 4640SOL    HW214820   4.180   4.747   4.059 -2.1831  0.4139 -0.7164
 4641SOL     OW14821   3.198   5.945   3.694  0.3735 -0.2232  0.0252
 4641SOL    HW114822   3.250   5.958   3.609 -1.7028 -1.2527 -1.4994
 4641SOL    HW214823   3.150   6.029   3.717 -2.5367 -1.0294 -2.4069
 4642SOL     OW14824   6.293   5.254   4.002  0.5155 -0.2021 -0.5348
 4642SOL    HW114825   6.322   5.345   3.973 -0.3180  0.1111 -0.4291
 4642SOL    HW214826   6.331   5.185   3.941  1.1539  0.2153 -0.6118
 4643SOL     OW14827   5.350   1.630   1.450 -0.0166  0.3728 -0.1129
 4643SOL    HW114828   5.434   1.652   1.400 -0.5364  1.4601 -0.5342
 4643SOL    HW214829   5.372   1.613   1.546  0.9541 -1.4326 -0.6150
 4644SOL     OW14830   2.131   4.629   5.416  0.2654 -0.0206  0.5789
 4644SOL    HW114831   2.044   4.677   5.416 -0.2546 -0.6308 -3.3000
 4644SOL    HW214832   2.203   4.688   5.380  0.3607 -0.9492 -0.8565
 4645SOL     OW14833   2.227   6.154   4.732  0.7206  0.1497 -0.1430
 4645SOL    HW114834   2.230   6.105   4.819  0.8456  1.3123  0.5406
 4645SOL    HW214835   2.151   6.121   4.677  0.0246  0.0777  0.8467
 4646SOL     OW14836   3.145   1.495   4.333 -0.0143 -0.3018 -0.4998
 4646SOL    HW114837   3.082   1.528   4.263 -1.5017 -0.2815  0.8042
 4646SOL    HW214838   3.131   1.397   4.348  1.2708 -0.6127 -1.1899
 4647SOL     OW14839   1.225   6.212   5.699 -0.0366  0.5251  0.3879
 4647SOL    HW114840   1.272   6.262   5.625  0.6510  0.2611  0.6436
 4647SOL    HW214841   1.235   6.114   5.685 -0.3130  0.4686  0.5768
 4648SOL     OW14842   3.027   6.625   2.940 -0.2999  0.0221  0.1346
 4648SOL    HW114843   2.999   6.684   3.016  0.4100  0.0368  0.3905
 4648SOL    HW214844   2.973   6.541   2.942 -0.9456  0.4253  0.0833
 4649SOL     OW14845   4.221   0.052   6.203  0.7287 -0.5253  0.3794
 4649SOL    HW114846   4.219  -0.038   6.246  1.0422 -1.4707 -1.4818
 4649SOL    HW214847   4.130   0.073   6.166  0.8273 -0.3886  0.2145
 4650SOL     OW14848   4.145   5.266   3.171 -0.0667  0.1017  0.0203
 4650SOL    HW114849   4.105   5.348   3.130 -1.2193  1.8073  3.9999
 4650SOL    HW214850   4.076   5.195   3.177  0.1639 -0.2266 -1.0751
 4651SOL     OW14851   0.871   2.545   0.609 -0.3117 -0.3791 -0.7147
 4651SOL    HW114852   0.840   2.458   0.646  1.0772 -0.2578  0.8408
 4651SOL    HW214853   0.851   2.619   0.674 -0.0394  0.2277 -1.3044
 4652SOL     OW14854   6.504   2.035   4.480  0.3785  0.7141  0.0640
 4652SOL    HW114855   6.415   2.061   4.441  1.0316  0.3287 -1.7881
 4652SOL    HW214856   6.572   2.103   4.454  0.4005  1.7859  2.6853
 4653SOL     OW14857   6.204   4.817   0.326  0.0690 -0.0016 -0.1385
 4653SOL    HW114858   6.190   4.863   0.239  1.3455  0.3872 -0.1540
 4653SOL    HW214859   6.176   4.877   0.401 -0.4183 -0.0899 -0.2459
 4654SOL     OW14860   1.566   0.149   1.548 -0.5315 -0.0012  0.0592
 4654SOL    HW114861   1.594   0.108   1.462 -0.4676  1.2320 -0.5379
 4654SOL    HW214862   1.616   0.235   1.562 -0.7092 -0.0616  1.2098
 4655SOL     OW14863   1.240   5.366   2.285 -0.4445 -0.5873 -0.1927
 4655SOL    HW114864   1.335   5.385   2.262 -1.2669 -0.5385 -4.1930
 4655SOL    HW214865   1.201   5.443   2.336  1.9520 -1.3204  3.1056
 4656SOL     OW14866   0.284   6.907   3.559  0.2382  0.1486  0.3322
 4656SOL    HW114867   0.241   6.918   3.470  0.1998  2.2159  0.5603
 4656SOL    HW214868   0.222   6.938   3.631 -0.1469 -2.4842  1.2273
 4657SOL     OW14869   4.523   5.335   2.233  0.2666 -0.2099  0.3380
 4657SOL    HW114870   4.468   5.391   2.295  2.4434  0.1739  2.0318
 4657SOL    HW214871   4.481   5.336   2.142 -1.0286  2.2525  0.8710
 4658SOL     OW14872   4.509   6.133   1.930 -0.7539  0.1143  0.7498
 4658SOL    HW114873   4.595   6.146   1.881 -1.6923  0.6825 -0.8195
 4658SOL    HW214874   4.461   6.221   1.937 -1.3390 -0.2454  1.3553
 4659SOL     OW14875   2.080   3.930   4.705  0.0681  0.1449  0.0519
 4659SOL    HW114876   2.071   3.878   4.790  0.4915  1.1026  0.6976
 4659SOL    HW214877   2.061   4.027   4.722  1.1511  0.5180 -0.7195
 4660SOL     OW14878   1.905   3.425   5.102 -0.2707 -0.0345 -0.0878
 4660SOL    HW114879   1.882   3.443   5.198 -1.5389  0.5389 -0.4730
 4660SOL    HW214880   1.997   3.459   5.083 -0.2102  0.3300  0.7933
 4661SOL     OW14881   3.717   2.921   4.629 -0.1663 -0.2102 -0.2376
 4661SOL    HW114882   3.807   2.883   4.608 -0.5972 -0.6204 -1.4711
 4661SOL    HW214883   3.728   3.014   4.664  0.6977  0.7824 -2.8312
 4662SOL     OW14884   3.529   0.716   3.373 -0.2431  0.1080 -0.0460
 4662SOL    HW114885   3.570   0.714   3.282  0.0675 -2.2256  0.0794
 4662SOL    HW214886   3.563   0.795   3.424  1.4433  0.1189 -1.1337
 4663SOL     OW14887   0.880   4.033   1.355  0.3014  0.0790 -0.1304
 4663SOL    HW114888   0.841   4.124   1.359 -0.8233 -0.4186  1.4494
 4663SOL    HW214889   0.832   3.978   1.287 -0.9049 -0.1302  0.8615
 4664SOL     OW14890   2.077   2.242   1.242  0.3855 -0.4531 -0.0718
 4664SOL    HW114891   2.005   2.197   1.295  1.6498 -1.1419  1.1526
 4664SOL    HW214892   2.116   2.178   1.177  1.2146 -0.7166  0.6647
 4665SOL     OW14893   3.597   0.055   0.345 -0.0235 -0.0893 -0.4285
 4665SOL    HW114894   3.525   0.087   0.284 -0.1816 -0.0064 -0.2008
 4665SOL    HW214895   3.579   0.088   0.438  0.6220  0.4254 -0.4811
 4666SOL     OW14896   1.527   1.031   6.005 -0.1005 -0.2227  0.4147
 4666SOL    HW114897   1.458   0.963   6.032 -0.3661 -0.1282 -0.0130
 4666SOL    HW214898   1.543   1.025   5.907  1.6525 -1.2942  0.7217
 4667SOL     OW14899   0.798   5.713   6.371 -0.4731 -0.2166 -0.0139
 4667SOL    HW114900   0.852   5.794   6.394 -1.1362  1.0127 -2.4655
 4667SOL    HW214901   0.838   5.667   6.293 -1.4774 -0.8123 -0.2016
 4668SOL     OW14902   7.001   1.258   5.820 -0.6568 -0.1617 -0.3383
 4668SOL    HW114903   6.915   1.216   5.848 -0.7768 -0.0969 -0.6028
 4668SOL    HW214904   6.982   1.337   5.762 -0.4053 -0.6443 -1.0944
 4669SOL     OW14905   2.575   6.503   0.705 -0.0042 -0.2486  0.2257
 4669SOL    HW114906   2.497   6.528   0.647 -1.1720 -0.0496  1.8136
 4669SOL    HW214907   2.656   6.553   0.674 -0.8404  0.6619 -0.5783
 4670SOL     OW14908   2.404   0.090   4.458  0.2827  0.5164 -0.1233
 4670SOL    HW114909   2.405   0.157   4.384  0.2781 -1.2964 -1.8558
 4670SOL    HW214910   2.310   0.078   4.490 -0.1831 -0.6809 -1.8069
 4671SOL     OW14911   6.531   2.525   2.449  0.1735 -0.3669  0.5596
 4671SOL    HW114912   6.604   2.534   2.382 -0.2709 -1.9216 -0.1803
 4671SOL    HW214913   6.569   2.496   2.537  0.5146 -0.4335  0.3905
 4672SOL     OW14914   2.256   4.508   5.640 -0.1943 -0.1683 -0.1171
 4672SOL    HW114915   2.328   4.470   5.582  1.0244 -0.2248  1.3537
 4672SOL    HW214916   2.185   4.549   5.583  0.8025 -0.4643 -1.6325
 4673SOL     OW14917   2.115   1.988   1.128 -0.1876 -0.0142 -0.3867
 4673SOL    HW114918   2.199   1.961   1.081  0.6190  1.1109  0.3733
 4673SOL    HW214919   2.104   1.932   1.210 -0.6412 -0.7361 -0.9271
 4674SOL     OW14920   5.015   5.512   3.964 -0.7437 -0.0870 -0.4482
 4674SOL    HW114921   4.962   5.456   4.027 -2.3529  1.0184 -0.7584
 4674SOL    HW214922   5.081   5.567   4.015 -0.6571 -0.6515  0.0606
 4675SOL     OW14923   0.642   4.310   2.127  0.5993  0.2664 -0.0349
 4675SOL    HW114924   0.626   4.409   2.133 -0.4560  0.0755  0.5363
 4675SOL    HW214925   0.575   4.269   2.065  1.2488 -0.0550 -0.5366
 4676SOL     OW14926   1.740   0.302   5.022 -0.3042 -0.4016 -0.7985
 4676SOL    HW114927   1.735   0.388   4.971 -0.5700 -0.4475 -0.8503
 4676SOL    HW214928   1.785   0.233   4.966 -1.6674 -0.7957 -1.4529
 4677SOL     OW14929   2.037   2.801   0.912 -0.4125  0.6109 -0.0559
 4677SOL    HW114930   2.050   2.713   0.867 -0.5525 -0.1843  1.4046
 4677SOL    HW214931   2.012   2.870   0.844  0.9693 -0.1626 -1.4144
 4678SOL     OW14932   0.560   3.327   2.730  0.2585 -0.1140  0.3079
 4678SOL    HW114933   0.640   3.367   2.773  0.3432 -0.5484  0.5581
 4678SOL    HW214934   0.501   3.286   2.800 -0.9803  1.5810  0.3090
 4679SOL     OW14935   4.774   1.410   2.505  0.2185 -0.1256 -0.0212
 4679SOL    HW114936   4.800   1.437   2.599 -0.0330 -0.0744  0.0339
 4679SOL    HW214937   4.729   1.487   2.461  2.5504  0.7418 -1.0520
 4680SOL     OW14938   2.220   3.209   1.530 -0.2064 -0.8225  0.2663
 4680SOL    HW114939   2.189   3.301   1.510 -0.2161 -0.1025  3.1081
 4680SOL    HW214940   2.147   3.144   1.510 -1.1335  0.0896  0.6336
 4681SOL     OW14941   4.226   4.042   6.533 -0.0463 -0.2236 -0.4601
 4681SOL    HW114942   4.242   3.951   6.495  0.6651  0.1075 -0.9713
 4681SOL    HW214943   4.301   4.102   6.508  0.1026  0.1941  0.9072
 4682SOL     OW14944   5.581   2.624   0.313  0.0771 -0.2946  0.0189
 4682SOL    HW114945   5.628   2.627   0.225 -0.0889  2.3605 -0.0553
 4682SOL    HW214946   5.628   2.560   0.374  0.8352 -1.3490 -1.6083
 4683SOL     OW14947   5.361   4.669   2.607 -0.5761  0.0155 -0.0207
 4683SOL    HW114948   5.431   4.622   2.553 -2.3703 -0.1315 -2.3819
 4683SOL    HW214949   5.355   4.764   2.577 -0.6692  0.3188  0.9314
 4684SOL     OW14950   3.337   6.116   6.472 -0.2722  0.2770 -0.4956
 4684SOL    HW114951   3.342   6.093   6.374 -2.1315 -1.5051 -0.2308
 4684SOL    HW214952   3.242   6.109   6.503  0.5419 -1.1862  1.8929
 4685SOL     OW14953   1.458   2.365   4.854 -0.1264  0.1602 -0.0700
 4685SOL    HW114954   1.513   2.437   4.813  0.0150  0.4157  0.5662
 4685SOL    HW214955   1.460   2.373   4.953 -1.2488  0.1239 -0.0283
 4686SOL     OW14956   4.365   4.593   0.092  0.0945  0.0025  0.1205
 4686SOL    HW114957   4.448   4.646   0.074 -0.5517  0.6413 -1.1555
 4686SOL    HW214958   4.378   4.499   0.060 -0.3240  0.6099 -1.9918
 4687SOL     OW14959   1.878   6.071   3.027 -0.4721  0.3743 -0.1360
 4687SOL    HW114960   1.907   6.161   2.994 -0.2488  0.5750  0.5918
 4687SOL    HW214961   1.951   6.030   3.082  1.0723 -2.0197 -3.6426
 4688SOL     OW14962   5.168   1.103   5.807  0.0696  0.0557  0.0285
 4688SOL    HW114963   5.113   1.055   5.876  0.6012 -0.9557 -0.2264
 4688SOL    HW214964   5.112   1.123   5.727 -0.3273  0.4578  0.4012
 4689SOL     OW14965   5.464   5.965   0.745 -0.1826 -0.6001 -0.1266
 4689SOL    HW114966   5.430   5.909   0.670  2.7049 -1.5168 -0.8706
 4689SOL    HW214967   5.517   5.909   0.809 -0.8748  0.5350  1.5233
 4690SOL     OW14968   0.972   1.603   1.264  0.1140 -0.2068  0.2748
 4690SOL    HW114969   1.060   1.611   1.310  0.7285 -1.6130 -0.6046
 4690SOL    HW214970   0.901   1.583   1.331  0.8133 -1.1645  0.7562
 4691SOL     OW14971   3.479   4.230   6.264 -0.1895 -0.6610 -1.1718
 4691SOL    HW114972   3.553   4.163   6.271 -1.8670 -2.5235  0.2755
 4691SOL    HW214973   3.416   4.203   6.191 -0.7514 -0.5680 -0.7362
 4692SOL     OW14974   6.222   4.632   2.635 -0.1828  0.5734  0.2022
 4692SOL    HW114975   6.302   4.572   2.640  0.0749  0.7682 -1.1303
 4692SOL    HW214976   6.251   4.722   2.603 -0.8639  0.7938  0.2010
 4693SOL     OW14977   0.642   3.532   5.739 -0.3694  0.4988 -0.2251
 4693SOL    HW114978   0.670   3.443   5.776  0.7129  0.4681 -1.0765
 4693SOL    HW214979   0.544   3.531   5.721 -0.4720 -0.3183  0.3270
 4694SOL     OW14980   2.176   2.493   5.225  0.1412 -0.2135 -0.2564
 4694SOL    HW114981   2.194   2.395   5.221 -0.1389 -0.4030  1.8594
 4694SOL    HW214982   2.166   2.529   5.133  2.5237 -1.7296 -1.2089
 4695SOL     OW14983   2.650   5.462   6.449 -0.1264 -0.9447 -0.3245
 4695SOL    HW114984   2.681   5.387   6.507 -1.4722 -1.7214 -0.5927
 4695SOL    HW214985   2.670   5.441   6.354 -0.2244 -0.8114 -0.3747
 4696SOL     OW14986   0.165   6.989   4.383 -0.2960  0.5055 -0.1687
 4696SOL    HW114987   0.074   6.976   4.422 -0.7444 -1.3855 -1.7286
 4696SOL    HW214988   0.231   6.999   4.458 -1.4634 -0.3799  1.0294
 4697SOL     OW14989   2.523   4.820   1.645 -0.2436 -0.2047  0.2612
 4697SOL    HW114990   2.513   4.896   1.709 -0.0159 -0.2616  0.3660
 4697SOL    HW214991   2.436   4.803   1.599  0.3453  1.9729 -1.8789
 4698SOL     OW14992   4.183   6.880   2.322 -0.4454 -0.3395 -0.3452
 4698SOL    HW114993   4.277   6.852   2.343 -0.0276  0.9092 -0.4612
 4698SOL    HW214994   4.122   6.802   2.333  0.5022 -0.9981  0.4163
 4699SOL     OW14995   1.147   1.027   3.427  0.2947  0.7260  0.4031
 4699SOL    HW114996   1.103   1.070   3.348 -0.3805  1.4683  1.1630
 4699SOL    HW214997   1.130   1.082   3.508  2.3289  0.8192  0.8074
 4700SOL     OW14998   6.694   1.590   2.855 -0.4137 -0.2949  0.7915
 4700SOL    HW114999   6.703   1.493   2.836 -1.3925 -0.0894 -0.9454
 4700SOL    HW215000   6.763   1.640   2.801 -0.1465  0.0111  1.4061
 4701SOL     OW15001   2.408   2.103   2.643 -0.2094 -0.0009 -0.6786
 4701SOL    HW115002   2.397   2.133   2.548  1.4339  0.8932 -0.6282
 4701SOL    HW215003   2.416   2.183   2.702  3.3573 -0.3992 -0.4126
 4702SOL     OW15004   4.133   4.185   6.143 -0.1373  0.2811 -0.2418
 4702SOL    HW115005   4.224   4.144   6.137  0.5005  1.4526  0.8948
 4702SOL    HW215006   4.063   4.114   6.129  0.8940 -1.4111  2.3835
 4703SOL     OW15007   6.492   6.386   1.541 -0.3614  0.5436 -0.6804
 4703SOL    HW115008   6.507   6.443   1.622  2.8278 -2.0225  0.7304
 4703SOL    HW215009   6.405   6.338   1.550 -0.9835  1.7765  0.2225
 4704SOL     OW15010   1.653   6.003   5.297 -0.1284  0.3760  0.0193
 4704SOL    HW115011   1.687   6.073   5.360  1.0738 -2.6226  3.0039
 4704SOL    HW215012   1.712   6.000   5.216  0.6615  1.8232  0.4959
 4705SOL     OW15013   2.589   3.914   0.299 -0.1095  0.4284 -0.2079
 4705SOL    HW115014   2.616   3.986   0.236 -0.7297  1.3061  0.4975
 4705SOL    HW215015   2.497   3.882   0.277  0.3053 -0.4224 -0.7471
 4706SOL     OW15016   1.288   0.830   0.294  0.0042 -0.1079  0.4855
 4706SOL    HW115017   1.220   0.801   0.362 -0.3436 -3.8711 -1.2281
 4706SOL    HW215018   1.244   0.886   0.224 -0.3434  1.0106  1.5692
 4707SOL     OW15019   2.881   6.039   1.301 -0.5101 -0.1664 -0.5697
 4707SOL    HW115020   2.943   6.006   1.230  0.2694 -1.7269  0.7520
 4707SOL    HW215021   2.786   6.026   1.272 -0.2053 -1.2069 -1.1571
 4708SOL     OW15022   1.827   2.066   5.516  0.0716  0.4712  0.5140
 4708SOL    HW115023   1.923   2.045   5.534 -0.1579 -0.0252  1.1708
 4708SOL    HW215024   1.791   2.123   5.590  0.1648  1.6308 -0.3019
 4709SOL     OW15025   3.178   4.887   4.856  0.0374  0.5208 -0.2152
 4709SOL    HW115026   3.144   4.834   4.934  0.8240 -0.4761 -0.5167
 4709SOL    HW215027   3.105   4.900   4.790  0.3928 -2.5426 -1.3741
 4710SOL     OW15028   0.901   5.152   2.521 -0.3837  0.6376 -0.7740
 4710SOL    HW115029   0.882   5.113   2.431 -0.2227 -0.4939 -0.3313
 4710SOL    HW215030   0.895   5.081   2.590  1.8588  0.9852 -0.1595
 4711SOL     OW15031   0.258   2.836   2.786  0.0701 -0.4616 -0.2304
 4711SOL    HW115032   0.211   2.753   2.758 -0.5200 -0.5146  0.8507
 4711SOL    HW215033   0.210   2.877   2.863 -1.1684  2.3095 -2.3091
 4712SOL     OW15034   5.355   3.405   7.017 -0.1846 -0.0874  0.6027
 4712SOL    HW115035   5.371   3.503   7.000  0.1398 -0.3122 -0.4038
 4712SOL    HW215036   5.398   3.380   7.104 -0.3699  0.6897  0.9284
 4713SOL     OW15037   4.415   4.715   2.422 -0.0434  0.0226 -0.0989
 4713SOL    HW115038   4.389   4.619   2.415 -0.9044  0.2621 -0.2921
 4713SOL    HW215039   4.512   4.725   2.397 -0.2553 -0.6338 -1.2752
 4714SOL     OW15040   0.306   1.054   0.005 -0.0110  0.4319  0.4187
 4714SOL    HW115041   0.263   1.131  -0.042 -1.5343  1.2370  2.9327
 4714SOL    HW215042   0.236   0.985   0.026  0.8023 -0.3243  0.6895
 4715SOL     OW15043   6.233   1.189   6.483  0.4495 -0.2398 -0.6715
 4715SOL    HW115044   6.182   1.105   6.471  2.0503 -1.3196 -0.2682
 4715SOL    HW215045   6.187   1.264   6.435 -1.8276 -0.9709  0.2597
 4716SOL     OW15046   5.387   5.042   4.970  0.5488 -0.8136 -0.1722
 4716SOL    HW115047   5.424   5.132   4.992 -0.0376 -0.7415  0.5245
 4716SOL    HW215048   5.289   5.048   4.954  0.2286 -1.5701  1.3779
 4717SOL     OW15049   3.010   3.181   6.521  0.0845 -0.8737 -0.0303
 4717SOL    HW115050   2.963   3.134   6.597  2.5468 -2.7295  0.4849
 4717SOL    HW215051   2.942   3.225   6.462 -2.0229 -0.5866  2.4224
 4718SOL     OW15052   6.575   4.058   1.603 -0.0891  0.0546  0.3560
 4718SOL    HW115053   6.672   4.041   1.586 -0.0806 -0.0605  0.5202
 4718SOL    HW215054   6.542   3.997   1.675 -0.2512  0.1848  0.3934
 4719SOL     OW15055   4.963   1.476   4.722 -0.2302  0.5870  0.0985
 4719SOL    HW115056   4.969   1.377   4.736  1.1599  0.8069  1.3249
 4719SOL    HW215057   4.892   1.496   4.655 -0.5486 -1.2362 -0.1591
 4720SOL     OW15058   3.389   3.529   6.032  0.3199  0.2158 -0.2570
 4720SOL    HW115059   3.313   3.571   6.081  0.3752 -0.7906  0.7332
 4720SOL    HW215060   3.370   3.531   5.933 -0.7441  0.4486 -0.0627
 4721SOL     OW15061   6.210   2.460   2.960  0.2857  0.0087  0.1006
 4721SOL    HW115062   6.245   2.513   2.882  0.5064 -1.9379 -1.1837
 4721SOL    HW215063   6.123   2.418   2.934 -0.6278  0.8788  1.6104
 4722SOL     OW15064   3.427   5.059   0.553 -0.4817  0.1503  0.8132
 4722SOL    HW115065   3.493   5.069   0.627 -0.3419  1.0045  0.5789
 4722SOL    HW215066   3.475   5.063   0.465 -0.8612  1.0188  0.6354
 4723SOL     OW15067   3.716   3.638   4.834  0.2635  0.3375  0.0267
 4723SOL    HW115068   3.637   3.683   4.793 -0.0330 -1.2221 -1.1676
 4723SOL    HW215069   3.703   3.632   4.933 -0.6751  0.9387 -0.0499
 4724SOL     OW15070   1.110   0.454   6.513  0.3337 -0.3357 -0.1139
 4724SOL    HW115071   1.173   0.469   6.437  1.1186 -0.2553  0.5232
 4724SOL    HW215072   1.112   0.534   6.574 -0.5620 -0.2412 -0.1967
 4725SOL     OW15073   6.519   4.127   6.206 -0.4403 -0.1937 -0.2867
 4725SOL    HW115074   6.432   4.115   6.156 -0.4693  0.2032 -0.3374
 4725SOL    HW215075   6.592   4.143   6.140 -0.0590 -1.9645 -0.3351
 4726SOL     OW15076   0.480   2.416   4.910  0.3415 -0.1857 -0.1595
 4726SOL    HW115077   0.410   2.482   4.882 -0.3998 -0.8318  0.1320
 4726SOL    HW215078   0.469   2.332   4.858  1.4395 -0.0076 -0.7085
 4727SOL     OW15079   1.064   6.203   0.825 -0.4261 -0.3138 -0.5971
 4727SOL    HW115080   1.142   6.222   0.766 -0.5322 -3.4292 -1.9039
 4727SOL    HW215081   0.994   6.154   0.773 -1.6278 -0.9376  1.5038
 4728SOL     OW15082   0.338   1.872   2.509  0.5999 -0.1697 -0.5281
 4728SOL    HW115083   0.303   1.844   2.420 -1.5710 -0.0803  0.2236
 4728SOL    HW215084   0.283   1.949   2.543  3.1549  1.7029 -0.3032
 4729SOL     OW15085   3.426   0.133   0.156  0.5106  0.0140 -0.5658
 4729SOL    HW115086   3.373   0.055   0.123 -0.2170  0.8033 -1.2765
 4729SOL    HW215087   3.378   0.218   0.136  1.9190  0.7332 -0.9902
 4730SOL     OW15088   3.059   5.483   4.802  0.0549  0.4294  0.2186
 4730SOL    HW115089   3.107   5.562   4.841 -0.0283  0.1717  0.8529
 4730SOL    HW215090   3.111   5.400   4.820 -1.2528 -0.0407  2.1081
 4731SOL     OW15091   3.476   0.921   0.173  0.1819  0.6639 -0.7178
 4731SOL    HW115092   3.450   0.826   0.157  1.4305 -0.0428  1.0317
 4731SOL    HW215093   3.565   0.939   0.130 -0.7295  1.5373 -2.3340
 4732SOL     OW15094   0.353   4.043   5.920 -0.7423  0.3723  0.4107
 4732SOL    HW115095   0.405   4.088   5.992  0.3886 -1.0223  0.4957
 4732SOL    HW215096   0.408   4.036   5.837 -0.9835 -0.6180  0.3200
 4733SOL     OW15097   0.363   4.270   2.980 -0.4031 -0.5016 -0.0051
 4733SOL    HW115098   0.372   4.288   3.078  2.1965  0.4022 -0.3493
 4733SOL    HW215099   0.358   4.171   2.965 -1.5122 -0.6323  1.0407
 4734SOL     OW15100   6.125   2.722   6.912 -0.3611  0.3524 -0.0342
 4734SOL    HW115101   6.068   2.787   6.862  0.2257  1.1999  0.3660
 4734SOL    HW215102   6.112   2.630   6.876 -1.2587  0.6846 -0.5702
 4735SOL     OW15103   0.354   6.042   3.937 -0.0721  0.2638  0.2187
 4735SOL    HW115104   0.348   5.945   3.962 -0.7654  0.5056  1.0500
 4735SOL    HW215105   0.413   6.089   4.003 -2.3484  1.0176  1.8372
 4736SOL     OW15106   6.261   1.058   4.117 -0.5434  0.7308  0.3820
 4736SOL    HW115107   6.181   1.027   4.065  0.3940 -1.4616  0.1528
 4736SOL    HW215108   6.275   0.998   4.196  1.6408  0.2381 -0.3190
 4737SOL     OW15109   3.694   4.064   1.096 -0.4575  0.1054  0.2001
 4737SOL    HW115110   3.784   4.070   1.052 -1.2045  1.1847 -1.2330
 4737SOL    HW215111   3.706   4.028   1.189  1.3203 -0.8349 -0.3285
 4738SOL     OW15112   2.693   6.834   4.026 -0.3854  0.3651  0.6688
 4738SOL    HW115113   2.729   6.780   3.950  2.0914  1.4439  0.9853
 4738SOL    HW215114   2.762   6.840   4.099 -1.7237  1.4839  1.9045
 4739SOL     OW15115   6.834   2.641   2.399  0.3235 -0.3010 -0.0924
 4739SOL    HW115116   6.932   2.661   2.395  0.3488 -0.0568  1.1949
 4739SOL    HW215117   6.812   2.569   2.333  1.5327 -0.9882  0.2091
 4740SOL     OW15118   1.652   0.749   1.818 -0.4677 -1.1648 -0.2903
 4740SOL    HW115119   1.679   0.768   1.912  0.4028  1.4548 -0.9702
 4740SOL    HW215120   1.557   0.776   1.804  0.4653  2.2782 -0.9856
 4741SOL     OW15121   3.978   5.154   1.457 -0.8277 -0.1390 -0.4260
 4741SOL    HW115122   3.965   5.135   1.360 -2.9995  1.6699 -0.5657
 4741SOL    HW215123   4.032   5.237   1.467  1.6387 -1.6912  0.0394
 4742SOL     OW15124   3.508   6.309   1.094  0.0527 -0.6300  0.3978
 4742SOL    HW115125   3.424   6.256   1.107 -1.0810  0.3882 -2.1603
 4742SOL    HW215126   3.568   6.261   1.031  0.9752 -0.8626  1.4249
 4743SOL     OW15127   2.685   1.864   5.598  0.1586  0.2108 -0.0894
 4743SOL    HW115128   2.670   1.791   5.665 -0.7032  0.1830 -0.3012
 4743SOL    HW215129   2.777   1.855   5.558  0.0990 -0.6966 -0.0379
 4744SOL     OW15130   2.181   2.290   6.071 -0.2467 -0.2335 -0.0247
 4744SOL    HW115131   2.143   2.214   6.018 -1.0879  0.8616 -1.0289
 4744SOL    HW215132   2.118   2.314   6.145 -1.1526  1.0041 -1.1533
 4745SOL     OW15133   3.830   4.380   5.365  1.2619 -0.3043  0.0831
 4745SOL    HW115134   3.752   4.332   5.323  1.3406 -0.4841  0.1384
 4745SOL    HW215135   3.796   4.441   5.436  0.9456  1.4837 -1.5393
 4746SOL     OW15136   5.549   5.556   1.026 -0.3225  0.5553  0.1032
 4746SOL    HW115137   5.621   5.624   1.036 -0.7569  1.2030 -0.9154
 4746SOL    HW215138   5.461   5.603   1.017 -0.7422 -0.1826  0.2989
 4747SOL     OW15139   0.711   3.185   5.373 -0.0286  0.1386  0.2049
 4747SOL    HW115140   0.710   3.280   5.344  1.6695 -0.1783 -1.0226
 4747SOL    HW215141   0.801   3.144   5.353 -1.1210 -2.0838 -0.5067
 4748SOL     OW15142   0.681   0.136   0.625 -0.3976 -0.0876  0.3939
 4748SOL    HW115143   0.586   0.135   0.657  0.2674  1.5728  2.6540
 4748SOL    HW215144   0.711   0.231   0.614  0.7007 -0.5925 -1.3785
 4749SOL     OW15145   2.122   0.220   0.401 -0.3035  0.2327  0.2039
 4749SOL    HW115146   2.180   0.160   0.346  0.6489  0.8412  0.5233
 4749SOL    HW215147   2.056   0.266   0.342  0.7122  0.8817 -0.4517
 4750SOL     OW15148   6.962   1.191   5.075  0.0755 -0.6036  0.4512
 4750SOL    HW115149   6.939   1.276   5.028 -0.9754  0.0760  2.1203
 4750SOL    HW215150   6.966   1.116   5.008 -1.0954  0.3530 -0.7432
 4751SOL     OW15151   2.050   2.536   0.836 -0.3428  0.6557  0.6046
 4751SOL    HW115152   1.961   2.515   0.876  0.2391  0.8381  2.0574
 4751SOL    HW215153   2.070   2.471   0.763 -1.9616  1.0427 -0.2389
 4752SOL     OW15154   3.423   5.946   1.131 -0.5863 -0.6597  0.3327
 4752SOL    HW115155   3.412   5.853   1.166 -2.0987 -0.0028  1.7449
 4752SOL    HW215156   3.346   5.969   1.071 -1.5518  0.4859  1.9508
 4753SOL     OW15157   4.775   0.090   4.173 -0.4716 -0.6337 -0.4104
 4753SOL    HW115158   4.726   0.081   4.261 -1.4677  0.9230 -0.7652
 4753SOL    HW215159   4.713   0.066   4.099 -0.0988 -0.4632 -0.7768
 4754SOL     OW15160   5.578   6.397   6.102 -0.5493 -0.3586 -0.2821
 4754SOL    HW115161   5.638   6.474   6.124  0.1944 -0.7059 -1.0195
 4754SOL    HW215162   5.527   6.417   6.019 -0.4136 -0.6202 -0.4305
 4755SOL     OW15163   2.268   6.429   6.049  0.3188  0.2351  0.4678
 4755SOL    HW115164   2.285   6.457   5.954  2.1678 -0.5391  0.5341
 4755SOL    HW215165   2.181   6.380   6.053  0.3275  0.0510 -0.8869
 4756SOL     OW15166   6.066   1.873   1.975 -0.0193 -0.1970 -0.0057
 4756SOL    HW115167   6.056   1.966   2.009  0.9290  0.7983 -2.2528
 4756SOL    HW215168   5.977   1.839   1.943 -0.2087  0.2888 -0.0019
 4757SOL     OW15169   4.371   2.128   2.646  0.5491  0.2496 -0.6654
 4757SOL    HW115170   4.291   2.157   2.594 -0.4252  1.3508  1.3587
 4757SOL    HW215171   4.437   2.085   2.583 -2.4636 -2.7441 -2.0934
 4758SOL     OW15172   3.122   1.235   4.038  0.0968  0.1010  0.2594
 4758SOL    HW115173   3.164   1.245   4.129 -0.6165 -3.1437  1.0689
 4758SOL    HW215174   3.192   1.243   3.968  0.8963  1.2520  1.1419
 4759SOL     OW15175   6.421   5.793   4.014  0.2603  0.1157  0.2213
 4759SOL    HW115176   6.430   5.889   3.987  0.9541  0.6952  2.3142
 4759SOL    HW215177   6.509   5.760   4.049 -0.0643 -1.1747 -0.1360
 4760SOL     OW15178   1.904   0.490   3.399 -0.0694 -0.2061 -0.6499
 4760SOL    HW115179   1.830   0.527   3.342 -0.0576  0.7209 -0.0807
 4760SOL    HW215180   1.907   0.539   3.486 -0.3577 -1.8986  0.3424
 4761SOL     OW15181   6.771   0.318   6.668 -0.2370 -0.1480  0.1008
 4761SOL    HW115182   6.791   0.230   6.711 -0.6702  0.4077  1.5133
 4761SOL    HW215183   6.675   0.321   6.640 -0.8340  0.6014  2.0238
 4762SOL     OW15184   1.832   5.924   3.297  0.2274 -0.6778 -0.3337
 4762SOL    HW115185   1.928   5.950   3.285  0.1699 -0.2133  0.1953
 4762SOL    HW215186   1.827   5.826   3.317  0.7238 -0.4157  1.2256
 4763SOL     OW15187   5.736   6.565   2.273 -0.0429 -0.6873 -0.3431
 4763SOL    HW115188   5.708   6.641   2.332  0.8640 -0.4566 -0.1854
 4763SOL    HW215189   5.797   6.598   2.202  1.2808 -1.4166  0.4089
 4764SOL     OW15190   3.176   3.295   5.614  0.1594 -0.6394  0.0557
 4764SOL    HW115191   3.200   3.216   5.558 -0.5126 -1.7891  1.3340
 4764SOL    HW215192   3.177   3.269   5.711 -2.0515  0.3551  0.4067
 4765SOL     OW15193   5.562   5.958   3.740  0.6917 -0.5111  0.4553
 4765SOL    HW115194   5.593   6.023   3.671  1.1055 -1.2847 -0.0996
 4765SOL    HW215195   5.633   5.890   3.757  0.7778 -0.0981  1.9738
 4766SOL     OW15196   2.220   1.394   2.522  0.1477 -0.6336  0.1314
 4766SOL    HW115197   2.203   1.372   2.618 -1.1303  2.1048  0.6267
 4766SOL    HW215198   2.308   1.440   2.514 -0.5576  0.7945  0.3258
 4767SOL     OW15199   4.870   6.045   0.824  0.3777  0.1602 -0.0654
 4767SOL    HW115200   4.920   5.967   0.787 -1.7498 -0.9728 -0.7075
 4767SOL    HW215201   4.909   6.071   0.912 -0.3011 -3.2856  1.4384
 4768SOL     OW15202   4.990   3.099   5.249  0.8701  0.9337  0.0363
 4768SOL    HW115203   5.051   3.175   5.272  0.0143  0.8879  2.6945
 4768SOL    HW215204   5.039   3.013   5.258  1.4739  1.0587 -1.7185
 4769SOL     OW15205   3.672   5.694   1.117  0.0020  0.4293  0.1669
 4769SOL    HW115206   3.744   5.638   1.078  1.4951  0.8871  2.1061
 4769SOL    HW215207   3.649   5.769   1.054  0.3453 -0.4015 -0.9752
 4770SOL     OW15208   2.147   0.829   3.623 -0.3928  0.0982 -0.1297
 4770SOL    HW115209   2.144   0.905   3.688 -1.3480 -0.9115  1.0486
 4770SOL    HW215210   2.238   0.825   3.580  0.4688  0.4328  1.5954
 4771SOL     OW15211   2.837   3.101   5.867  0.1785 -0.1200  0.3958
 4771SOL    HW115212   2.914   3.159   5.893 -0.7772  1.3208  0.1428
 4771SOL    HW215213   2.814   3.118   5.771  1.4073 -2.7535 -0.4440
 4772SOL     OW15214   3.273   0.213   1.133 -0.0869 -0.0232  0.1895
 4772SOL    HW115215   3.336   0.137   1.147  0.5138  0.1693 -1.3115
 4772SOL    HW215216   3.188   0.179   1.092 -0.8110 -0.2173  1.7943
 4773SOL     OW15217   6.646   5.763   3.362  0.0208  0.6349 -0.4142
 4773SOL    HW115218   6.666   5.780   3.458 -1.8077  0.6714  0.0039
 4773SOL    HW215219   6.697   5.828   3.304 -0.0552  1.6415  0.6200
 4774SOL     OW15220   1.026   4.212   1.963  0.6639 -0.6027  0.7095
 4774SOL    HW115221   1.103   4.149   1.976  0.5348 -0.6295  1.3594
 4774SOL    HW215222   0.958   4.197   2.034  0.3445 -0.1451  0.5061
 4775SOL     OW15223   5.274   2.638   4.239 -0.2870  0.3799  0.2652
 4775SOL    HW115224   5.185   2.648   4.196 -1.9366 -1.0684  3.0601
 4775SOL    HW215225   5.272   2.676   4.331  2.6992  2.2342 -0.2976
 4776SOL     OW15226   1.421   6.966   2.839 -0.2019 -0.1375  0.1212
 4776SOL    HW115227   1.348   6.986   2.905  0.5041  2.7325  0.1811
 4776SOL    HW215228   1.487   6.903   2.880 -1.0871 -0.3766  1.2162
 4777SOL     OW15229   1.894   4.886   1.632  0.0295 -0.7018  0.4689
 4777SOL    HW115230   1.861   4.978   1.610  1.3775 -0.2668  0.1692
 4777SOL    HW215231   1.864   4.861   1.723  0.4535  0.4410  0.9418
 4778SOL     OW15232   5.528   3.015   2.997 -0.7037 -0.5031 -0.1065
 4778SOL    HW115233   5.535   2.956   3.078 -1.6908 -0.1686  0.2465
 4778SOL    HW215234   5.578   3.100   3.014  0.4088 -1.0647 -0.4728
 4779SOL     OW15235   0.363   0.408   3.461 -0.4040 -0.2306  0.2091
 4779SOL    HW115236   0.284   0.392   3.402 -1.2757 -0.3900  1.3924
 4779SOL    HW215237   0.332   0.422   3.555  0.7283  2.7008  0.2573
 4780SOL     OW15238   0.316   0.786   5.303 -0.0670 -0.2501  0.0944
 4780SOL    HW115239   0.314   0.886   5.310  0.1503 -0.1346 -1.2439
 4780SOL    HW215240   0.235   0.748   5.348 -0.1901  0.5235  0.5468
 4781SOL     OW15241   1.378   5.834   1.689 -0.2931 -0.4013  0.8035
 4781SOL    HW115242   1.342   5.927   1.683 -0.8631 -0.5768  1.4006
 4781SOL    HW215243   1.468   5.831   1.647  0.2077  0.6665  1.7546
 4782SOL     OW15244   5.421   6.462   4.836  0.0489 -0.4630 -0.0854
 4782SOL    HW115245   5.337   6.461   4.782  0.1951 -1.7165 -0.3225
 4782SOL    HW215246   5.481   6.534   4.802 -0.2529 -0.6187 -0.9829
 4783SOL     OW15247   5.380   5.378   0.390 -0.0777 -0.0602  0.1764
 4783SOL    HW115248   5.310   5.398   0.458  0.2140  1.5753  0.0202
 4783SOL    HW215249   5.336   5.361   0.301 -0.2729  3.6333 -0.5804
 4784SOL     OW15250   3.592   5.879   0.072  0.0693  0.4092  0.7261
 4784SOL    HW115251   3.494   5.870   0.055 -0.1204  0.6455  1.6509
 4784SOL    HW215252   3.642   5.859  -0.012 -0.7541  0.0147  0.3183
 4785SOL     OW15253   4.819   6.975   2.227 -0.6133 -0.2132 -0.0187
 4785SOL    HW115254   4.800   6.993   2.131 -1.0364 -0.1451  0.0752
 4785SOL    HW215255   4.792   6.882   2.250 -0.4528 -0.2509  0.0196
 4786SOL     OW15256   1.145   3.943   4.057  0.1040  0.6969  0.2597
 4786SOL    HW115257   1.052   3.910   4.040  0.4396 -0.5708  0.7121
 4786SOL    HW215258   1.146   4.043   4.055 -1.3266  0.7468  0.5278
 4787SOL     OW15259   4.275   1.640   3.003 -0.0587  0.1162  0.1456
 4787SOL    HW115260   4.223   1.687   2.931 -1.2179 -0.4239  0.6015
 4787SOL    HW215261   4.369   1.674   3.004 -0.7067  2.0237  0.1186
 4788SOL     OW15262   0.613   6.789   0.464 -0.6245 -0.0612 -0.1999
 4788SOL    HW115263   0.627   6.746   0.374 -0.0395 -0.1791 -0.0586
 4788SOL    HW215264   0.516   6.788   0.486 -0.6604 -1.0341 -0.3421
 4789SOL     OW15265   5.624   1.698   6.123 -0.1658 -0.0049  0.4818
 4789SOL    HW115266   5.547   1.762   6.124 -0.3436 -0.2156  1.3022
 4789SOL    HW215267   5.610   1.630   6.051 -0.5733  0.1723  0.3899
 4790SOL     OW15268   6.968   2.591   0.811 -0.0125  0.4014  0.2283
 4790SOL    HW115269   7.029   2.569   0.888 -0.5548  1.6791  1.0637
 4790SOL    HW215270   6.888   2.640   0.846 -1.2074 -0.6487 -0.9332
 4791SOL     OW15271   6.293   1.606   2.694 -0.1429  0.2467 -0.7881
 4791SOL    HW115272   6.346   1.689   2.710 -0.3661  0.3457 -0.5550
 4791SOL    HW215273   6.342   1.546   2.631  0.2637  0.3209 -0.5439
 4792SOL     OW15274   2.127   3.782   1.371 -0.1869  0.2878  0.2738
 4792SOL    HW115275   2.136   3.870   1.418 -0.9679 -0.2568  1.5152
 4792SOL    HW215276   2.044   3.736   1.404  0.0082 -0.7411 -0.6356
 4793SOL     OW15277   1.410   1.835   6.841 -0.2380  0.0534 -0.7139
 4793SOL    HW115278   1.453   1.748   6.817  1.7358  0.1104  2.0118
 4793SOL    HW215279   1.333   1.819   6.903  0.4067  0.1982  0.1549
 4794SOL     OW15280   3.679   6.036   1.943 -0.0716 -0.3889  0.0544
 4794SOL    HW115281   3.732   6.088   1.876  0.2232 -0.6130  0.1101
 4794SOL    HW215282   3.733   6.025   2.026 -0.8785  0.9079  0.7918
 4795SOL     OW15283   6.952   4.586   4.537  0.8731  0.0365  0.3221
 4795SOL    HW115284   7.022   4.524   4.572  0.6728  0.7111  1.9932
 4795SOL    HW215285   6.992   4.649   4.471  1.7652  0.1967  1.0105
 4796SOL     OW15286   4.902   1.198   0.447 -0.1193 -0.1222 -0.2329
 4796SOL    HW115287   4.923   1.175   0.352  2.9362  0.9259  0.0705
 4796SOL    HW215288   4.884   1.296   0.454 -0.4141 -0.2110  0.2690
 4797SOL     OW15289   1.675   5.243   6.331 -0.0239  0.1866 -0.0119
 4797SOL    HW115290   1.710   5.215   6.242  0.4833  1.6207 -0.2949
 4797SOL    HW215291   1.749   5.280   6.387 -0.6340  0.9954  0.3021
 4798SOL     OW15292   6.139   4.389   4.675 -0.7025 -0.7507 -0.0612
 4798SOL    HW115293   6.204   4.394   4.599  0.7950  1.3078  1.2633
 4798SOL    HW215294   6.182   4.348   4.754 -0.8000  1.0681  0.9876
 4799SOL     OW15295   6.257   0.744   5.136 -0.1969  0.6130 -0.0760
 4799SOL    HW115296   6.303   0.675   5.192 -2.6442  0.0171  1.3241
 4799SOL    HW215297   6.259   0.832   5.183  0.3130  0.8081 -0.4565
 4800SOL     OW15298   3.207   2.765   6.626 -0.6235 -0.1742  0.1680
 4800SOL    HW115299   3.185   2.675   6.588 -1.7320 -0.4632  1.4365
 4800SOL    HW215300   3.184   2.836   6.559  1.1144 -0.8330 -1.2139
 4801SOL     OW15301   3.471   0.579   0.975  0.1663 -0.2460 -0.1635
 4801SOL    HW115302   3.489   0.676   0.992  2.0407 -0.4154 -0.9403
 4801SOL    HW215303   3.457   0.533   1.063  0.3715  0.5267  0.2918
 4802SOL     OW15304   0.857   5.827   0.454  0.4342  0.0329 -0.1553
 4802SOL    HW115305   0.833   5.853   0.360  0.9677 -0.3602 -0.4032
 4802SOL    HW215306   0.773   5.816   0.507  0.1507  2.5848  0.0723
 4803SOL     OW15307   0.412   0.054   1.047 -0.5370  0.1693 -0.0430
 4803SOL    HW115308   0.443   0.019   0.959 -2.1239  1.6310 -1.2533
 4803SOL    HW215309   0.331   0.003   1.077 -0.8816  0.6155 -0.1902
 4804SOL     OW15310   2.696   4.144   5.452  0.0134 -0.0065 -0.0562
 4804SOL    HW115311   2.781   4.109   5.413  0.7498 -0.0717  1.5602
 4804SOL    HW215312   2.684   4.240   5.426  1.1787  0.3445  0.6243
 4805SOL     OW15313   6.631   0.207   0.235  0.3374  0.1892 -0.0866
 4805SOL    HW115314   6.610   0.274   0.164  0.5958  0.3401 -0.0191
 4805SOL    HW215315   6.547   0.159   0.261  0.5325 -1.2310 -1.8616
 4806SOL     OW15316   5.926   3.124   4.787  0.9810 -0.4491  0.0313
 4806SOL    HW115317   6.025   3.121   4.778  0.9388 -0.4527 -0.4890
 4806SOL    HW215318   5.886   3.154   4.700  0.6605  1.9598  0.9399
 4807SOL     OW15319   0.457   6.890   6.723 -0.9311 -0.5030 -0.0823
 4807SOL    HW115320   0.495   6.828   6.792  2.4774 -0.5373 -1.7716
 4807SOL    HW215321   0.445   6.839   6.637  1.6715  0.9131 -1.4223
 4808SOL     OW15322   0.186   2.536   0.980 -0.4699 -0.1929  0.7488
 4808SOL    HW115323   0.254   2.544   0.907 -1.1965 -0.8540 -0.0220
 4808SOL    HW215324   0.173   2.440   1.003 -0.4257 -0.0049  1.5938
 4809SOL     OW15325   3.904   3.199   0.924  0.3901 -0.4635 -0.2323
 4809SOL    HW115326   3.868   3.245   1.005  0.7920  0.2381 -0.4521
 4809SOL    HW215327   3.882   3.101   0.929 -0.7952 -0.2008  0.0576
 4810SOL     OW15328   0.847   2.630   3.023 -0.5295  0.0766 -0.0920
 4810SOL    HW115329   0.791   2.619   2.941  2.6059  2.5179 -2.8720
 4810SOL    HW215330   0.838   2.724   3.057  0.9580  0.1696  0.1072
 4811SOL     OW15331   3.069   4.290   1.689  0.4436 -0.3141 -0.3408
 4811SOL    HW115332   3.003   4.339   1.746  0.1282  0.0736 -1.0202
 4811SOL    HW215333   3.145   4.351   1.666  0.2745 -0.2754 -0.8152
 4812SOL     OW15334   5.470   4.954   0.489  0.5737 -0.3081 -0.0886
 4812SOL    HW115335   5.440   4.936   0.583  0.4693 -1.1255 -0.2719
 4812SOL    HW215336   5.528   4.879   0.457 -0.0669 -0.4485 -0.9627
 4813SOL     OW15337   4.828   1.276   1.800  0.5006  0.1865  0.2226
 4813SOL    HW115338   4.795   1.284   1.894 -0.1744  0.7603 -0.0518
 4813SOL    HW215339   4.766   1.326   1.739  0.0174 -1.4997 -0.7307
 4814SOL     OW15340   0.309   5.815   6.746  0.5585 -0.2227  0.2229
 4814SOL    HW115341   0.214   5.824   6.776  0.3169  0.0367 -0.5932
 4814SOL    HW215342   0.326   5.721   6.716  0.5617 -0.2758  0.3948
 4815SOL     OW15343   6.636   6.348   3.420  0.2842  0.9456 -0.3402
 4815SOL    HW115344   6.542   6.371   3.394  0.5707  1.4489 -0.9386
 4815SOL    HW215345   6.634   6.293   3.504 -0.6247 -0.4219 -1.2193
 4816SOL     OW15346   5.378   5.567   3.809  0.0311 -0.3613 -0.1698
 4816SOL    HW115347   5.310   5.630   3.846 -1.2827 -2.7474  1.7896
 4816SOL    HW215348   5.464   5.579   3.860  0.0855  0.4381 -0.4331
 4817SOL     OW15349   2.661   1.473   7.016  0.2604  0.2100  0.5404
 4817SOL    HW115350   2.761   1.468   7.015  0.2232 -0.5155  0.2570
 4817SOL    HW215351   2.625   1.457   6.924 -0.1119  0.6380  0.6070
 4818SOL     OW15352   6.873   5.857   4.519  0.3057 -0.0175 -0.1758
 4818SOL    HW115353   6.819   5.920   4.575 -0.0686 -0.9674  0.5688
 4818SOL    HW215354   6.923   5.795   4.579  1.8765  0.5341 -0.8672
 4819SOL     OW15355   1.129   3.145   6.851 -0.2184  0.3469  0.0628
 4819SOL    HW115356   1.150   3.199   6.769 -2.2002  0.8696 -0.1388
 4819SOL    HW215357   1.154   3.050   6.836  1.0346  0.7367 -0.4861
 4820SOL     OW15358   5.151   1.453   0.123 -0.2685 -0.0850  0.1152
 4820SOL    HW115359   5.168   1.355   0.110  0.2674  0.2388 -2.0029
 4820SOL    HW215360   5.078   1.483   0.061  0.2220  1.0346  0.0585
 4821SOL     OW15361   2.149   5.373   0.950 -0.0392  0.2689 -0.0651
 4821SOL    HW115362   2.185   5.292   0.996  0.5426  0.8354  0.4957
 4821SOL    HW215363   2.201   5.390   0.866  1.6920  1.6405  1.2337
 4822SOL     OW15364   2.446   4.884   3.369 -0.5084 -0.5864  0.5042
 4822SOL    HW115365   2.394   4.955   3.417 -0.4382  0.9017 -1.4751
 4822SOL    HW215366   2.393   4.850   3.292  0.2336 -1.3080  0.2968
 4823SOL     OW15367   2.279   2.314   4.155 -0.0401  1.2205  0.3269
 4823SOL    HW115368   2.289   2.215   4.144  0.6988  1.3548 -0.3129
 4823SOL    HW215369   2.203   2.333   4.217  0.0431  0.2475  0.7523
 4824SOL     OW15370   3.362   0.848   5.251 -0.1627 -0.3079 -0.1113
 4824SOL    HW115371   3.342   0.899   5.167  0.8590  1.4921  0.6817
 4824SOL    HW215372   3.461   0.836   5.259 -0.3656 -2.4915 -0.2694
 4825SOL     OW15373   1.666   0.583   3.254 -0.6612 -0.4542  0.7166
 4825SOL    HW115374   1.644   0.652   3.185 -0.0887  0.8849  1.8275
 4825SOL    HW215375   1.676   0.493   3.210  1.7176  0.6654 -1.2804
 4826SOL     OW15376   3.759   0.282   6.408 -0.3808  0.3103  0.3089
 4826SOL    HW115377   3.780   0.274   6.505 -0.7014 -2.8775  0.2118
 4826SOL    HW215378   3.709   0.368   6.392  0.4134  1.3122  2.7655
 4827SOL     OW15379   6.343   0.737   0.744  0.0938 -0.1302 -0.1352
 4827SOL    HW115380   6.429   0.737   0.795 -0.2867  0.7470  0.5353
 4827SOL    HW215381   6.266   0.749   0.808 -0.4775 -0.1770 -0.7989
 4828SOL     OW15382   3.684   6.208   0.910  0.2503  0.2868  0.0551
 4828SOL    HW115383   3.696   6.227   0.813 -0.3130  1.9708  0.2908
 4828SOL    HW215384   3.773   6.185   0.951  0.7567  1.1451 -0.5386
 4829SOL     OW15385   4.660   5.974   6.025  0.4339 -0.0104 -0.2454
 4829SOL    HW115386   4.721   6.043   6.064  1.4328 -0.9634 -0.0562
 4829SOL    HW215387   4.576   6.018   5.992 -0.0816  0.9699  2.1472
 4830SOL     OW15388   1.912   5.083   2.309 -0.3622  0.9568 -0.0574
 4830SOL    HW115389   1.955   5.054   2.395 -1.8524 -0.5472  0.2265
 4830SOL    HW215390   1.984   5.108   2.243  1.0195 -1.7124  0.3052
 4831SOL     OW15391   3.548   4.260   0.474  0.1098 -0.6145 -0.3359
 4831SOL    HW115392   3.505   4.172   0.457 -0.1546 -0.6391  0.4129
 4831SOL    HW215393   3.647   4.252   0.461  0.0735 -0.9908 -0.3898
 4832SOL     OW15394   4.180   3.672   5.052 -0.4429  0.0148 -1.0517
 4832SOL    HW115395   4.128   3.757   5.063 -0.2878 -0.0000 -0.1087
 4832SOL    HW215396   4.276   3.694   5.035 -0.6171  0.0335 -2.0572
 4833SOL     OW15397   5.288   1.693   3.542 -0.1629  0.1506  0.1945
 4833SOL    HW115398   5.204   1.681   3.491  0.0345 -0.3788 -0.0136
 4833SOL    HW215399   5.356   1.739   3.484  0.1455 -0.6805 -0.1168
 4834SOL     OW15400   1.427   0.363   1.850  0.0081 -0.2383 -0.1598
 4834SOL    HW115401   1.486   0.299   1.898  0.0362 -0.5738 -0.6368
 4834SOL    HW215402   1.339   0.320   1.831 -0.3757  0.2355  0.4887
 4835SOL     OW15403   5.343   2.847   0.004  0.2757  0.2287  0.0808
 4835SOL    HW115404   5.404   2.923   0.024 -1.0707  0.9622  1.5569
 4835SOL    HW215405   5.250   2.881  -0.009 -0.3431 -1.1385  0.7220
 4836SOL     OW15406   5.131   0.720   6.495  0.5289 -0.1968  0.0205
 4836SOL    HW115407   5.182   0.680   6.572  2.3466 -1.5356 -1.7638
 4836SOL    HW215408   5.134   0.657   6.418 -0.4568  1.4986 -1.4582
 4837SOL     OW15409   6.314   1.322   4.927  0.4007 -0.0972 -0.3296
 4837SOL    HW115410   6.248   1.247   4.939  2.8305 -2.3979 -0.6076
 4837SOL    HW215411   6.267   1.400   4.885 -2.2561 -1.3859 -0.0015
 4838SOL     OW15412   0.567   0.146   6.777 -0.0155  0.0019 -0.2817
 4838SOL    HW115413   0.528   0.055   6.789 -1.4243  0.6473  0.2284
 4838SOL    HW215414   0.606   0.154   6.685  0.6406 -1.2862 -0.1331
 4839SOL     OW15415   1.881   2.668   4.731 -0.0611  1.0602 -0.3630
 4839SOL    HW115416   1.893   2.710   4.821  0.4464  0.8216 -0.3143
 4839SOL    HW215417   1.937   2.717   4.664  0.8450  0.2225 -0.2287
 4840SOL     OW15418   6.311   3.018   5.914  0.1663 -0.2387  0.5979
 4840SOL    HW115419   6.328   2.949   5.843 -0.6448 -0.3277  0.4793
 4840SOL    HW215420   6.212   3.035   5.920  0.2333 -0.1940  1.6697
 4841SOL     OW15421   3.891   5.389   2.933 -0.0473  0.0083 -0.2893
 4841SOL    HW115422   3.981   5.397   2.888 -0.2352 -0.5555 -0.7734
 4841SOL    HW215423   3.887   5.454   3.009  0.6746  0.2286 -0.4237
 4842SOL     OW15424   1.523   4.441   3.311 -0.5991  0.3652  0.0895
 4842SOL    HW115425   1.522   4.347   3.278 -0.5147  0.5962 -0.5742
 4842SOL    HW215426   1.496   4.503   3.237 -3.0742  0.6646  1.1328
 4843SOL     OW15427   6.522   2.288   1.416 -0.3224 -0.4261  0.7366
 4843SOL    HW115428   6.450   2.270   1.349 -0.2671 -0.0086  0.5626
 4843SOL    HW215429   6.515   2.221   1.490  0.8608 -2.1935 -0.6488
 4844SOL     OW15430   2.343   4.283   0.030  0.0075  0.6594  0.0501
 4844SOL    HW115431   2.382   4.204  -0.017 -1.0903 -2.3949  3.7975
 4844SOL    HW215432   2.246   4.289   0.008  0.0399  0.8356 -0.0453
 4845SOL     OW15433   4.587   4.461   4.164  1.5989 -0.1885 -0.0628
 4845SOL    HW115434   4.590   4.434   4.068 -0.4626  0.0294 -0.2288
 4845SOL    HW215435   4.645   4.399   4.217  1.0670 -1.6990 -1.1631
 4846SOL     OW15436   6.742   2.036   3.959  0.4150  0.0810 -0.4427
 4846SOL    HW115437   6.714   2.124   3.920 -0.3527 -0.0636 -0.2443
 4846SOL    HW215438   6.837   2.018   3.936 -0.0587 -0.0825 -2.3836
 4847SOL     OW15439   2.703   6.813   4.410  0.6623 -0.3087 -0.0705
 4847SOL    HW115440   2.748   6.773   4.490 -1.8339 -2.2348  0.5303
 4847SOL    HW215441   2.719   6.911   4.408  0.6349 -0.1337  2.9709
 4848SOL     OW15442   4.454   1.652   4.354  0.2168  0.2645 -0.0034
 4848SOL    HW115443   4.439   1.701   4.440 -0.7092 -0.5066  0.3065
 4848SOL    HW215444   4.461   1.554   4.373 -1.6003 -0.0921 -0.9276
 4849SOL     OW15445   0.381   6.804   6.059  0.2051 -0.4445  0.2572
 4849SOL    HW115446   0.354   6.880   6.119 -0.9768 -0.6693  0.0387
 4849SOL    HW215447   0.327   6.723   6.082  2.4835 -1.7261  1.5211
 4850SOL     OW15448   4.432   5.344   2.785  0.3091  0.0311  0.0356
 4850SOL    HW115449   4.406   5.433   2.824 -0.9446 -0.2059 -0.2213
 4850SOL    HW215450   4.518   5.314   2.827 -0.9035 -0.1682  2.6085
 4851SOL     OW15451   3.493   3.964   0.718 -0.5921 -0.1402 -0.1554
 4851SOL    HW115452   3.589   3.987   0.701 -0.1776 -2.5790 -1.6967
 4851SOL    HW215453   3.474   3.974   0.816  1.5896 -0.6743  0.3965
 4852SOL     OW15454   3.541   0.022   4.070 -0.0486  0.1171 -0.5501
 4852SOL    HW115455   3.514  -0.028   4.152 -0.1969 -1.5360 -1.5653
 4852SOL    HW215456   3.465   0.079   4.040  0.2085  1.2101  0.7608
 4853SOL     OW15457   4.403   0.895   3.506  0.0486 -0.7735 -0.0434
 4853SOL    HW115458   4.393   0.990   3.536  1.5361 -0.4429 -0.5277
 4853SOL    HW215459   4.417   0.836   3.585 -3.0021 -0.9627  0.4866
 4854SOL     OW15460   4.841   0.706   2.539  1.1429  0.0515 -0.3901
 4854SOL    HW115461   4.848   0.800   2.572  1.0440 -0.0308 -0.1312
 4854SOL    HW215462   4.926   0.681   2.492  1.7688 -0.2160  0.8323
 4855SOL     OW15463   6.890   4.990   4.984 -0.6859 -0.0462  0.1337
 4855SOL    HW115464   6.806   5.035   4.953 -1.3578 -0.8835  0.6700
 4855SOL    HW215465   6.881   4.891   4.971  0.2611 -0.1362  0.1178
 4856SOL     OW15466   1.507   2.044   3.969  0.5907 -0.3853 -0.2713
 4856SOL    HW115467   1.504   2.124   3.908  2.9094 -0.4061 -0.5007
 4856SOL    HW215468   1.461   1.967   3.924 -0.5451  0.4537 -0.5973
 4857SOL     OW15469   2.476   1.260   2.998  0.1414 -0.6989 -0.7554
 4857SOL    HW115470   2.496   1.352   3.030 -0.0946 -1.0457  0.4331
 4857SOL    HW215471   2.551   1.199   3.022 -0.7977 -1.3234  0.7868
 4858SOL     OW15472   1.434   0.994   5.010 -0.4879  0.3386 -0.6328
 4858SOL    HW115473   1.427   1.080   5.060 -2.3049  0.9469 -1.8409
 4858SOL    HW215474   1.437   1.013   4.912  1.8268 -0.8831 -0.8764
 4859SOL     OW15475   1.210   5.016   3.037 -0.3557  0.1537 -0.1677
 4859SOL    HW115476   1.196   5.047   3.131  0.5063 -1.1954  0.4444
 4859SOL    HW215477   1.221   5.095   2.977  0.4461  1.0504  1.0989
 4860SOL     OW15478   4.450   4.579   6.508 -0.3585  0.2876 -0.2072
 4860SOL    HW115479   4.417   4.509   6.572 -1.6412  1.3867  0.3844
 4860SOL    HW215480   4.413   4.668   6.535  0.0890  0.9718 -1.7801
 4861SOL     OW15481   6.763   5.646   5.428 -1.3854 -0.4331 -0.1642
 4861SOL    HW115482   6.741   5.711   5.500  0.3478 -1.6755  1.5938
 4861SOL    HW215483   6.716   5.672   5.344 -1.4066  2.5817  0.6580
 4862SOL     OW15484   0.052   5.903   5.823  0.0623  0.1587 -0.6877
 4862SOL    HW115485   0.044   5.993   5.779  0.2942 -0.1409 -1.3544
 4862SOL    HW215486   0.009   5.907   5.913 -0.1117  0.8839 -0.7894
 4863SOL     OW15487   4.815   2.272   2.841  0.1300 -0.6313 -0.4547
 4863SOL    HW115488   4.852   2.361   2.868  0.5345 -0.1808 -2.3069
 4863SOL    HW215489   4.722   2.285   2.805  0.7443 -0.6709 -2.1519
 4864SOL     OW15490   2.398   1.699   1.926  0.1082 -0.4043 -0.2496
 4864SOL    HW115491   2.455   1.634   1.976  0.0945  0.5882  1.1101
 4864SOL    HW215492   2.395   1.786   1.976 -0.4299  0.4239 -1.6693
 4865SOL     OW15493   3.238   4.658   6.227  0.0834  0.3064  0.5586
 4865SOL    HW115494   3.186   4.629   6.307  0.4915  0.0562  0.7348
 4865SOL    HW215495   3.178   4.657   6.147  0.1596 -1.3423  0.4929
 4866SOL     OW15496   0.532   4.588   1.209 -0.0885 -0.0505 -0.3353
 4866SOL    HW115497   0.558   4.677   1.171 -0.9159  0.6591  0.6970
 4866SOL    HW215498   0.562   4.516   1.148  2.3563  0.8183 -0.2782
 4867SOL     OW15499   2.660   5.073   3.044  0.1686 -0.7807  0.2046
 4867SOL    HW115500   2.644   4.975   3.049  0.6674 -0.8243  1.4743
 4867SOL    HW215501   2.626   5.116   3.127  0.5559  0.0241 -0.0421
 4868SOL     OW15502   1.369   5.159   0.173  0.1754  0.7157 -0.2361
 4868SOL    HW115503   1.443   5.164   0.240 -3.2005 -1.5596  4.2483
 4868SOL    HW215504   1.292   5.215   0.204 -1.4500 -0.0737 -2.5180
 4869SOL     OW15505   6.567   0.985   6.936  0.2174 -0.8680  0.3755
 4869SOL    HW115506   6.621   0.981   7.020  1.4479  1.7607 -0.1880
 4869SOL    HW215507   6.593   0.910   6.876  1.4954 -1.0740  1.1468
 4870SOL     OW15508   2.388   0.110   2.412  0.0068  0.1328  0.8397
 4870SOL    HW115509   2.423   0.127   2.320 -1.2643 -2.3721 -0.2112
 4870SOL    HW215510   2.309   0.170   2.428 -0.5217 -0.2440 -0.2175
 4871SOL     OW15511   1.004   0.332   4.012  0.4547 -0.1019 -0.5934
 4871SOL    HW115512   0.963   0.256   4.063  0.7435 -0.2165 -0.5275
 4871SOL    HW215513   0.955   0.417   4.033  0.0033 -0.3042 -0.8225
 4872SOL     OW15514   1.573   1.581   3.326  0.0060  0.1604  0.3893
 4872SOL    HW115515   1.648   1.612   3.267  0.8475 -1.4919  0.5075
 4872SOL    HW215516   1.522   1.509   3.280 -1.1216  0.8066  0.5854
 4873SOL     OW15517   1.506   4.935   4.539  0.4008  0.0312 -0.1081
 4873SOL    HW115518   1.551   4.846   4.535 -1.2601 -0.9410  1.4977
 4873SOL    HW215519   1.508   4.970   4.633 -2.0163 -0.0399  0.0518
 4874SOL     OW15520   4.831   4.024   2.150 -0.1090 -0.5295  0.5960
 4874SOL    HW115521   4.763   4.008   2.222 -0.7447  3.8176  1.2871
 4874SOL    HW215522   4.917   3.979   2.174 -1.3593 -2.1938  2.1769
 4875SOL     OW15523   5.764   2.401   0.149 -0.3000  0.3822 -0.0345
 4875SOL    HW115524   5.831   2.334   0.117  0.7561  0.3669  2.0484
 4875SOL    HW215525   5.685   2.353   0.187 -0.9789  0.4004 -1.3316
 4876SOL     OW15526   6.189   6.946   5.423 -0.1874  0.3303  0.1147
 4876SOL    HW115527   6.120   6.925   5.354 -0.5801 -0.4102  0.7119
 4876SOL    HW215528   6.213   7.043   5.419 -0.5188  0.3790 -0.7661
 4877SOL     OW15529   0.636   3.050   1.111  0.2505  0.0882  0.2013
 4877SOL    HW115530   0.558   3.017   1.058 -0.3970  0.0362  1.1581
 4877SOL    HW215531   0.704   2.977   1.118  0.4952  0.2007 -0.8153
 4878SOL     OW15532   0.979   1.602   4.727 -0.0553 -0.2536 -0.2185
 4878SOL    HW115533   1.036   1.682   4.745  0.2658 -0.5965  0.2919
 4878SOL    HW215534   1.034   1.530   4.684 -0.2770 -0.3162 -0.4033
 4879SOL     OW15535   3.818   4.963   2.839 -0.2728 -0.7235 -0.6985
 4879SOL    HW115536   3.741   4.913   2.800 -0.7334 -0.4539 -0.1525
 4879SOL    HW215537   3.787   5.016   2.918 -0.3754  2.4975 -2.7508
 4880SOL     OW15538   5.793   0.446   0.263 -0.0388 -0.7852 -0.6592
 4880SOL    HW115539   5.822   0.362   0.311 -0.0422  0.1497  1.0708
 4880SOL    HW215540   5.872   0.485   0.216  0.5474 -0.5130  0.5108
 4881SOL     OW15541   4.116   6.389   3.757 -0.2637 -0.2677 -0.2925
 4881SOL    HW115542   4.197   6.342   3.723 -1.2536  0.1413 -3.5145
 4881SOL    HW215543   4.039   6.326   3.757 -0.5041  0.0151  0.3632
 4882SOL     OW15544   5.626   1.792   6.857  0.1586 -0.0513 -0.5369
 4882SOL    HW115545   5.691   1.831   6.923  1.1839 -0.5161 -1.2411
 4882SOL    HW215546   5.542   1.846   6.857  0.5602  0.5999  0.3619
 4883SOL     OW15547   5.878   3.273   2.912  0.5345 -0.2412  0.4378
 4883SOL    HW115548   5.917   3.354   2.956  1.3076  0.6791 -1.7729
 4883SOL    HW215549   5.848   3.297   2.819 -0.0750 -2.2904  0.0517
 4884SOL     OW15550   3.990   3.672   0.944 -0.4672 -0.1845 -0.3421
 4884SOL    HW115551   3.978   3.663   0.846 -1.0162  1.1616 -0.4262
 4884SOL    HW215552   4.007   3.768   0.967 -0.4146 -0.4626  0.8793
 4885SOL     OW15553   3.596   7.018   0.886 -0.2614 -0.2076 -0.3500
 4885SOL    HW115554   3.604   7.103   0.939 -1.4006 -0.2526 -0.0825
 4885SOL    HW215555   3.684   6.997   0.843  0.7105 -0.1897  1.5332
 4886SOL     OW15556   5.363   5.118   1.057 -0.5935 -0.3168 -0.4799
 4886SOL    HW115557   5.268   5.140   1.034  0.0718  2.3639 -1.0242
 4886SOL    HW215558   5.404   5.194   1.106  1.2774 -1.4504 -0.1885
 4887SOL     OW15559   0.446   2.296   3.874  0.8390  0.0132  0.4153
 4887SOL    HW115560   0.461   2.315   3.972 -0.0832  1.5343  0.3099
 4887SOL    HW215561   0.506   2.222   3.844 -0.3237 -1.9633  2.6227
 4888SOL     OW15562   2.003   5.607   2.757  0.1542  0.0082  0.8167
 4888SOL    HW115563   2.085   5.578   2.807  0.5016  0.5839  0.5876
 4888SOL    HW215564   1.942   5.656   2.819  0.3172  0.2123  0.8168
 4889SOL     OW15565   1.352   0.229   0.177 -0.1124 -0.1487 -0.2014
 4889SOL    HW115566   1.352   0.134   0.143  0.9840 -0.4990  0.7137
 4889SOL    HW215567   1.308   0.288   0.109 -0.4293 -1.2389 -0.9853
 4890SOL     OW15568   0.224   3.752   3.895 -0.3208 -0.2209 -0.6549
 4890SOL    HW115569   0.140   3.727   3.943  0.6570 -1.1052  0.6537
 4890SOL    HW215570   0.282   3.671   3.886  0.9257  0.6384 -0.4579
 4891SOL     OW15571   1.656   5.333   1.260 -0.0002 -0.6634 -0.1841
 4891SOL    HW115572   1.572   5.339   1.205  0.6900 -1.0128 -1.3072
 4891SOL    HW215573   1.706   5.419   1.253  1.1671 -1.4277 -1.9292
 4892SOL     OW15574   1.524   7.008   0.475 -0.1413 -0.4165  0.1039
 4892SOL    HW115575   1.553   6.935   0.413  1.4892 -0.8878  1.3555
 4892SOL    HW215576   1.433   7.039   0.449  0.9781  0.3816 -3.3912
 4893SOL     OW15577   0.530   3.025   5.798 -0.0145 -0.5152 -0.1815
 4893SOL    HW115578   0.614   3.075   5.776 -0.9255  0.7070 -0.9599
 4893SOL    HW215579   0.513   3.031   5.897 -0.1567  0.8258 -0.2699
 4894SOL     OW15580   2.176   5.498   2.927 -0.1446 -0.1129 -0.0565
 4894SOL    HW115581   2.272   5.512   2.951 -0.7743  0.8803  2.1119
 4894SOL    HW215582   2.128   5.456   3.004 -1.5819 -0.1282 -0.9152
 4895SOL     OW15583   2.341   3.054   0.783 -0.1973  0.7034 -0.3158
 4895SOL    HW115584   2.244   3.077   0.792 -0.2234  1.0698 -1.4089
 4895SOL    HW215585   2.395   3.138   0.776  0.2884  0.5181  0.9814
 4896SOL     OW15586   3.909   5.184   3.780 -0.2801 -0.1937  0.7482
 4896SOL    HW115587   3.957   5.136   3.854  0.7748  0.7124  0.6792
 4896SOL    HW215588   3.928   5.139   3.693 -1.2581 -1.0672  0.9668
 4897SOL     OW15589   3.310   6.399   5.680  0.2109 -0.5062 -0.2305
 4897SOL    HW115590   3.261   6.339   5.617  1.5182 -0.6402 -1.1623
 4897SOL    HW215591   3.389   6.351   5.718 -0.2766 -0.2567  1.1553
 4898SOL     OW15592   4.762   3.250   5.235  0.1756  0.1132 -0.0675
 4898SOL    HW115593   4.835   3.196   5.193  0.7314 -0.1296  1.1594
 4898SOL    HW215594   4.756   3.339   5.189  0.1364 -0.4738 -1.2412
 4899SOL     OW15595   6.602   3.883   2.622 -0.4490 -0.2513 -0.0430
 4899SOL    HW115596   6.621   3.797   2.669  1.3527 -0.0199 -0.2973
 4899SOL    HW215597   6.505   3.908   2.636 -0.6351 -1.5687  1.2295
 4900SOL     OW15598   1.707   0.741   4.754  0.4123  0.2371  0.1829
 4900SOL    HW115599   1.716   0.716   4.658 -0.0999 -0.1822  0.2358
 4900SOL    HW215600   1.762   0.678   4.809  0.4693  0.2922  0.1895
 4901SOL     OW15601   1.180   0.456   4.499 -0.2975  0.7369  0.7785
 4901SOL    HW115602   1.132   0.501   4.575 -0.7687 -1.9920  2.2305
 4901SOL    HW215603   1.268   0.422   4.532 -1.0179 -1.5242  0.4933
 4902SOL     OW15604   2.253   5.015   2.171  0.0318  0.7831  0.5792
 4902SOL    HW115605   2.222   5.023   2.076 -0.7645  0.3534  0.7872
 4902SOL    HW215606   2.349   4.986   2.173  1.1070  3.9715 -0.1025
 4903SOL     OW15607   5.042   5.445   2.785  0.5951 -0.4095 -0.0862
 4903SOL    HW115608   4.960   5.437   2.729 -0.9519 -0.2486  2.0167
 4903SOL    HW215609   5.054   5.361   2.839  0.9223  0.1546  0.7408
 4904SOL     OW15610   1.048   6.571   4.192  0.0670 -0.1183  0.1854
 4904SOL    HW115611   0.977   6.556   4.123 -0.4519  3.3398 -0.1967
 4904SOL    HW215612   1.124   6.621   4.151  0.5174  0.5102  1.7407
 4905SOL     OW15613   4.512   1.735   2.879  0.0073  0.0576  0.0084
 4905SOL    HW115614   4.453   1.811   2.854 -0.5860 -0.0009  1.1921
 4905SOL    HW215615   4.507   1.665   2.808  1.4941  1.5835 -1.7159
 4906SOL     OW15616   0.072   6.920   6.858 -0.5285 -0.2957 -0.0889
 4906SOL    HW115617   0.083   7.019   6.865  1.2181 -0.4462 -0.1037
 4906SOL    HW215618   0.002   6.889   6.921 -1.8911  1.0629 -0.8752
 4907SOL     OW15619   3.011   5.182   4.708  0.2470  0.0011  0.1527
 4907SOL    HW115620   3.099   5.213   4.743  0.2169  0.2503  0.0078
 4907SOL    HW215621   2.945   5.178   4.784  0.5862 -0.9451  0.4062
 4908SOL     OW15622   4.372   5.859   1.536 -0.3823  0.0076  0.1423
 4908SOL    HW115623   4.433   5.855   1.616 -1.2859  0.9779  0.9121
 4908SOL    HW215624   4.294   5.918   1.557 -0.8845 -0.1072 -1.3082
 4909SOL     OW15625   0.040   0.178   6.214  0.4889  0.1163  0.1803
 4909SOL    HW115626   0.011   0.179   6.310 -1.2037  1.1766 -0.3015
 4909SOL    HW215627  -0.039   0.159   6.156  1.3620  0.1435 -1.0543
 4910SOL     OW15628   7.019   6.927   4.768  0.2541 -0.4017 -0.0079
 4910SOL    HW115629   6.982   6.999   4.827  1.0629  0.4834 -0.5534
 4910SOL    HW215630   6.976   6.933   4.678  0.2151 -0.7085 -0.0103
 4911SOL     OW15631   6.758   1.128   5.846 -0.4697 -1.1051 -0.5707
 4911SOL    HW115632   6.726   1.102   5.755 -1.3415 -2.5974  0.1241
 4911SOL    HW215633   6.695   1.196   5.885  0.2154 -0.0371 -1.2672
 4912SOL     OW15634   2.614   1.640   3.583  0.1397  0.2698 -0.0091
 4912SOL    HW115635   2.592   1.548   3.614  0.2836  0.3577  0.3550
 4912SOL    HW215636   2.574   1.707   3.645  0.8555  0.4351  0.2831
 4913SOL     OW15637   3.786   3.872   4.551 -0.6127 -0.2259 -0.6362
 4913SOL    HW115638   3.789   3.960   4.599 -0.7868 -0.7774  0.4178
 4913SOL    HW215639   3.836   3.804   4.605  0.0107 -0.6557 -1.7174
 4914SOL     OW15640   4.219   5.950   6.896 -0.3074 -0.4746 -0.3382
 4914SOL    HW115641   4.208   6.049   6.905 -0.1131 -0.4546 -0.3119
 4914SOL    HW215642   4.133   5.904   6.918  0.6392 -0.5887  3.9443
 4915SOL     OW15643   4.809   0.781   4.222 -0.7293  0.3837 -0.7673
 4915SOL    HW115644   4.785   0.688   4.251 -1.6561  1.2989  1.6361
 4915SOL    HW215645   4.901   0.803   4.256 -0.9482  0.7194 -0.3925
 4916SOL     OW15646   5.213   2.576   3.690  0.4137  0.2534  0.3637
 4916SOL    HW115647   5.307   2.556   3.663  0.2925 -0.4411  0.4287
 4916SOL    HW215648   5.183   2.510   3.759  0.1392  0.9493  0.9320
 4917SOL     OW15649   1.946   4.040   0.858 -0.2181  0.1440  0.3618
 4917SOL    HW115650   1.987   4.076   0.942  0.2682  0.2701  0.0744
 4917SOL    HW215651   1.851   4.070   0.852  0.0174  0.9137  0.4042
 4918SOL     OW15652   3.117   6.675   2.134 -0.4302 -0.6576 -0.0809
 4918SOL    HW115653   3.184   6.648   2.065 -0.4777 -0.6847 -0.1157
 4918SOL    HW215654   3.038   6.615   2.131 -0.0043 -1.2739  0.6465
 4919SOL     OW15655   2.554   1.425   5.624  0.5793 -0.1795 -0.0752
 4919SOL    HW115656   2.472   1.373   5.603  0.7030 -0.1111 -0.7624
 4919SOL    HW215657   2.587   1.469   5.540  0.0912  1.5509  0.5946
 4920SOL     OW15658   4.459   5.905   1.786 -0.2833  0.7913  0.0327
 4920SOL    HW115659   4.479   5.999   1.814 -0.1821  0.5653  0.7561
 4920SOL    HW215660   4.369   5.879   1.820  0.9268 -0.4135  2.6858
 4921SOL     OW15661   2.169   3.584   0.426 -0.2402  0.1082 -0.6575
 4921SOL    HW115662   2.226   3.663   0.450 -1.7172  0.8494  0.5775
 4921SOL    HW215663   2.219   3.500   0.446  0.5616  0.7373  0.0788
 4922SOL     OW15664   2.441   2.642   5.357  0.2790 -0.6316 -0.3945
 4922SOL    HW115665   2.355   2.603   5.321  0.8677 -1.7975 -0.5833
 4922SOL    HW215666   2.482   2.577   5.421  0.4318  0.4378  0.6218
 4923SOL     OW15667   4.937   0.293   2.399  0.1934  0.3565  0.8990
 4923SOL    HW115668   5.025   0.294   2.446  0.6610  0.6867  0.0484
 4923SOL    HW215669   4.877   0.226   2.441  1.4649 -1.1304  0.4171
 4924SOL     OW15670   0.336   5.272   3.401  0.6069  0.0466  0.3750
 4924SOL    HW115671   0.334   5.354   3.458  0.0088 -0.2587  0.8071
 4924SOL    HW215672   0.242   5.238   3.389  0.8356 -0.4857  0.0750
 4925SOL     OW15673   5.733   5.274   1.990 -0.0352 -0.2964 -0.1544
 4925SOL    HW115674   5.658   5.280   1.924 -0.5929  0.9092  0.5745
 4925SOL    HW215675   5.745   5.361   2.036  2.1169 -0.3266 -0.5476
 4926SOL     OW15676   6.601   3.932   2.345  0.2623 -0.0318  0.0461
 4926SOL    HW115677   6.631   4.021   2.311 -1.3907  1.1658  1.5218
 4926SOL    HW215678   6.612   3.930   2.445 -1.0269 -0.9237  0.1897
 4927SOL     OW15679   3.230   3.074   2.596  0.9361 -0.0531  0.3427
 4927SOL    HW115680   3.324   3.101   2.577  0.6059  0.2403 -0.9933
 4927SOL    HW215681   3.216   2.979   2.568  0.4358  0.3866 -0.9522
 4928SOL     OW15682   1.113   6.704   5.759  0.2746  0.5132 -0.1931
 4928SOL    HW115683   1.094   6.644   5.837  1.1275  2.2848  1.4579
 4928SOL    HW215684   1.051   6.681   5.684  0.1105 -1.9329  0.5949
 4929SOL     OW15685   0.701   3.086   4.686 -0.1155 -0.2261 -0.3383
 4929SOL    HW115686   0.727   3.175   4.726 -0.4980 -0.7849  1.2276
 4929SOL    HW215687   0.667   3.026   4.758 -0.2749 -1.5131 -1.4490
 4930SOL     OW15688   0.366   2.016   1.758  0.2723 -0.3499  0.1602
 4930SOL    HW115689   0.278   2.062   1.772  0.1926 -0.0307 -1.2773
 4930SOL    HW215690   0.354   1.937   1.698  0.5738 -1.7554  1.8637
 4931SOL     OW15691   0.972   6.109   5.872 -0.3031  0.4712 -0.5648
 4931SOL    HW115692   1.055   6.161   5.850  0.5320 -0.7342 -0.4027
 4931SOL    HW215693   0.998   6.016   5.899 -1.7396  0.0113 -0.7009
 4932SOL     OW15694   4.181   1.457   0.509 -0.8373 -0.2261  0.2435
 4932SOL    HW115695   4.117   1.445   0.584  0.2757 -2.0826  0.9677
 4932SOL    HW215696   4.270   1.418   0.534 -0.2161 -0.2288 -1.7574
 4933SOL     OW15697   2.067   1.242   4.997 -0.0646  0.3020 -0.4428
 4933SOL    HW115698   2.119   1.257   5.082 -1.4218  0.2493  0.4165
 4933SOL    HW215699   2.058   1.329   4.949  0.4217  0.3980 -0.3686
 4934SOL     OW15700   6.749   4.198   6.052  0.5904 -0.3675  0.2864
 4934SOL    HW115701   6.741   4.155   5.961  0.2791 -1.9236  1.0166
 4934SOL    HW215702   6.835   4.170   6.094 -0.5707 -2.1074  1.6477
 4935SOL     OW15703   3.059   0.401   0.298 -0.3950  0.1012 -0.4608
 4935SOL    HW115704   3.022   0.488   0.268 -0.0210  0.2293 -0.5554
 4935SOL    HW215705   3.145   0.416   0.348 -1.0095 -0.1057  0.6900
 4936SOL     OW15706   1.436   5.564   2.554 -0.4084  0.3527 -0.3606
 4936SOL    HW115707   1.338   5.577   2.535 -0.3180 -1.2356 -2.1213
 4936SOL    HW215708   1.484   5.650   2.538 -1.6480  1.5767  1.9311
 4937SOL     OW15709   0.365   3.629   4.413 -0.8578 -0.3745  0.0405
 4937SOL    HW115710   0.342   3.637   4.510 -1.5427  0.4845 -0.1785
 4937SOL    HW215711   0.281   3.635   4.359 -0.3738  0.1911 -0.6528
 4938SOL     OW15712   3.754   4.605   6.571 -0.2779  0.2620  0.3658
 4938SOL    HW115713   3.836   4.582   6.518 -1.6961 -1.0918 -1.3916
 4938SOL    HW215714   3.746   4.704   6.579  1.9869  0.4114  1.3993
 4939SOL     OW15715   1.146   1.566   3.970 -0.3446 -0.1200 -0.2279
 4939SOL    HW115716   1.245   1.576   3.958 -0.6024  1.0950 -1.6169
 4939SOL    HW215717   1.126   1.551   4.067  1.0830  1.7735  0.4244
 4940SOL     OW15718   6.991   1.972   3.638 -0.7708  0.4770 -0.1171
 4940SOL    HW115719   7.055   2.019   3.698 -0.7642 -2.4707  2.4505
 4940SOL    HW215720   7.018   1.985   3.543  2.6638  0.7391  0.7629
 4941SOL     OW15721   3.156   2.570   5.427  0.3731  0.1996 -0.6300
 4941SOL    HW115722   3.185   2.522   5.510 -0.4949 -0.4855 -0.7129
 4941SOL    HW215723   3.199   2.527   5.348  1.1266  0.7951 -0.5689
 4942SOL     OW15724   5.075   2.334   4.626  0.0050 -0.1180  0.0259
 4942SOL    HW115725   5.014   2.410   4.646  0.2079  0.1698 -0.4314
 4942SOL    HW215726   5.025   2.248   4.636  0.0329  0.0178  1.4987
 4943SOL     OW15727   6.165   4.688   5.885 -0.5251  0.2933 -0.4976
 4943SOL    HW115728   6.079   4.700   5.933 -0.1001  0.0332  0.3425
 4943SOL    HW215729   6.214   4.609   5.922 -0.1605  0.1192 -1.3167
 4944SOL     OW15730   0.968   5.519   1.218 -0.5357  0.2311 -0.2549
 4944SOL    HW115731   1.006   5.450   1.280  0.7695  0.8875 -0.2968
 4944SOL    HW215732   0.955   5.479   1.127 -0.2887 -0.0944 -0.1481
 4945SOL     OW15733   2.054   0.821   3.376  0.2754  0.4635  0.3319
 4945SOL    HW115734   1.987   0.749   3.356 -0.6278  1.3144  0.2196
 4945SOL    HW215735   2.067   0.827   3.475  1.2333 -0.6227  0.2843
 4946SOL     OW15736   0.589   4.248   6.768  0.1026 -0.5984 -0.2526
 4946SOL    HW115737   0.538   4.176   6.721  1.2942 -0.6293 -1.5287
 4946SOL    HW215738   0.538   4.334   6.762 -0.8360 -1.0930  0.3959
 4947SOL     OW15739   4.578   1.959   2.484 -0.0730  0.3168  0.1639
 4947SOL    HW115740   4.662   1.946   2.537  0.7137 -0.7588 -1.2511
 4947SOL    HW215741   4.603   1.984   2.390 -1.4042  1.7577  0.1585
 4948SOL     OW15742   1.877   2.438   2.998 -0.2982  0.5048  0.1242
 4948SOL    HW115743   1.868   2.500   3.076 -2.9394  0.1933  0.1579
 4948SOL    HW215744   1.881   2.344   3.030  2.9193  0.4971  0.0270
 4949SOL     OW15745   5.366   2.049   6.370  0.3315 -0.2940  0.0853
 4949SOL    HW115746   5.329   1.957   6.375  0.3390 -0.2828  0.3266
 4949SOL    HW215747   5.293   2.114   6.349 -0.0745 -0.0760  2.0010
 4950SOL     OW15748   2.946   3.813   4.778  0.4190 -0.7724 -0.3021
 4950SOL    HW115749   2.975   3.903   4.744  2.5345 -0.2113  2.5473
 4950SOL    HW215750   2.897   3.825   4.865 -0.5815 -2.3230 -0.6267
 4951SOL     OW15751   5.703   5.417   3.457 -0.4635  0.2417 -0.0513
 4951SOL    HW115752   5.716   5.319   3.472 -0.1699  0.0915 -1.1829
 4951SOL    HW215753   5.783   5.454   3.409 -0.9547  0.8461 -0.4209
 4952SOL     OW15754   6.273   1.640   6.402  0.2016  0.4870  0.2326
 4952SOL    HW115755   6.232   1.610   6.316  1.4803 -1.7569  0.3190
 4952SOL    HW215756   6.202   1.679   6.461 -1.2666 -0.6724 -0.7034
 4953SOL     OW15757   1.571   2.566   5.024  0.3949 -0.3753  0.2841
 4953SOL    HW115758   1.645   2.536   5.084  0.9791 -1.7199 -1.0623
 4953SOL    HW215759   1.605   2.577   4.931 -0.9777 -0.4629 -0.2594
 4954SOL     OW15760   3.426   5.001   5.806 -0.2202  0.4935  0.3064
 4954SOL    HW115761   3.391   5.047   5.887  3.1896  1.8010  1.1867
 4954SOL    HW215762   3.481   5.064   5.753  3.3901 -2.0251  0.7134
 4955SOL     OW15763   3.238   5.484   1.491 -0.2054 -0.0122 -0.0560
 4955SOL    HW115764   3.242   5.528   1.401 -0.1691  0.0725 -0.0133
 4955SOL    HW215765   3.146   5.494   1.529 -0.3561 -0.4660 -0.2915
 4956SOL     OW15766   2.052   0.720   5.318  0.4325 -0.1519  0.0863
 4956SOL    HW115767   1.982   0.653   5.296 -0.9721  1.1006  0.6062
 4956SOL    HW215768   2.040   0.802   5.262  0.3367  0.7986  1.4355
 4957SOL     OW15769   6.472   5.139   0.838  0.0538  0.3369 -0.0418
 4957SOL    HW115770   6.418   5.141   0.923  0.3500 -0.0521  0.1607
 4957SOL    HW215771   6.569   5.149   0.860  0.0933  0.6713 -0.3743
 4958SOL     OW15772   4.064   6.712   5.028  0.9084  0.2647 -0.2764
 4958SOL    HW115773   4.124   6.726   4.949  0.9427  1.7366 -0.0124
 4958SOL    HW215774   3.969   6.714   4.997  0.8838  1.8201 -0.1786
 4959SOL     OW15775   0.598   2.847   1.334  0.0332 -0.0944 -0.1014
 4959SOL    HW115776   0.524   2.912   1.351  0.4242  0.4082 -0.2813
 4959SOL    HW215777   0.678   2.873   1.388  0.2446 -0.3386 -0.2953
 4960SOL     OW15778   3.310   5.903   2.914 -0.4986  0.2878 -0.4047
 4960SOL    HW115779   3.352   5.953   2.990 -3.1471  0.9263  0.7520
 4960SOL    HW215780   3.377   5.841   2.874  1.6486  1.5989  0.9318
 4961SOL     OW15781   3.042   2.227   5.354  0.3763  0.1152 -1.0042
 4961SOL    HW115782   2.950   2.225   5.315 -0.3001  2.7211  0.2367
 4961SOL    HW215783   3.106   2.263   5.286  0.2193 -0.3232 -1.3904
 4962SOL     OW15784   6.631   3.952   6.392 -0.6539 -0.0313  0.1114
 4962SOL    HW115785   6.725   3.982   6.374 -0.7180 -0.0793 -0.3182
 4962SOL    HW215786   6.570   3.992   6.323 -1.0270  0.4071  0.6837
 4963SOL     OW15787   1.568   5.151   0.352 -0.2765  0.2123 -0.2472
 4963SOL    HW115788   1.645   5.093   0.325  1.3019  1.7492  0.7687
 4963SOL    HW215789   1.581   5.182   0.446 -1.2994  1.8022 -0.5953
 4964SOL     OW15790   2.040   5.671   3.793  0.0850  0.1627  0.1194
 4964SOL    HW115791   2.122   5.728   3.790 -0.2518  0.6344 -0.2886
 4964SOL    HW215792   1.999   5.667   3.702  0.4563 -1.2554 -0.0082
 4965SOL     OW15793   6.589   1.203   0.107  0.0513  0.2153 -0.0401
 4965SOL    HW115794   6.528   1.184   0.030 -0.7423 -1.5778  0.9553
 4965SOL    HW215795   6.560   1.149   0.186  1.6824  0.9386  1.1083
 4966SOL     OW15796   1.051   5.372   2.068 -0.2302 -0.3920  0.2202
 4966SOL    HW115797   1.111   5.350   2.144 -1.6490 -0.2601  1.4391
 4966SOL    HW215798   1.050   5.296   2.003 -0.2731 -1.2538  1.1941
 4967SOL     OW15799   2.030   5.146   4.955 -0.3454 -0.2597 -0.0169
 4967SOL    HW115800   1.940   5.177   4.985  1.3779  3.2455  2.2114
 4967SOL    HW215801   2.055   5.192   4.870 -0.5128 -0.9289 -0.4278
 4968SOL     OW15802   6.886   5.409   4.860 -0.3171 -0.6324  0.1500
 4968SOL    HW115803   6.982   5.401   4.887 -0.7495 -0.6102  1.7928
 4968SOL    HW215804   6.831   5.438   4.938 -1.3415  1.7044 -1.3229
 4969SOL     OW15805   6.609   4.606   2.272  0.4618  0.0437  0.0926
 4969SOL    HW115806   6.652   4.665   2.203  1.0501  1.2251  1.4289
 4969SOL    HW215807   6.679   4.551   2.317  0.1004 -0.6054 -0.1343
 4970SOL     OW15808   0.547   2.009   0.384  0.1471  0.3994  0.1844
 4970SOL    HW115809   0.621   2.065   0.421  0.4133 -0.6793  1.3259
 4970SOL    HW215810   0.539   1.925   0.436 -0.3566 -0.5742 -1.3816
 4971SOL     OW15811   6.272   6.344   2.451  0.4891  0.3298 -0.2481
 4971SOL    HW115812   6.197   6.397   2.491  0.1258 -0.3223 -0.0529
 4971SOL    HW215813   6.359   6.387   2.474  0.2330  0.4982  0.4277
 4972SOL     OW15814   0.149   5.305   4.496  0.6202  0.4418  0.0372
 4972SOL    HW115815   0.138   5.366   4.574  2.5358 -0.8930  1.4497
 4972SOL    HW215816   0.156   5.211   4.529 -2.3484 -0.6796 -2.0564
 4973SOL     OW15817   4.717   1.030   0.745 -0.0011 -0.1992  0.3219
 4973SOL    HW115818   4.791   0.976   0.783 -1.1357 -2.3197 -0.3234
 4973SOL    HW215819   4.680   0.985   0.664 -3.0352 -0.1307  1.5217
 4974SOL     OW15820   4.218   3.602   5.900 -0.5937 -0.1676  0.4900
 4974SOL    HW115821   4.214   3.507   5.931  0.3434 -0.2710  0.3235
 4974SOL    HW215822   4.304   3.643   5.929 -1.7785  1.2368  2.2212
 4975SOL     OW15823   5.134   2.153   6.246 -0.1842 -0.5374  0.3827
 4975SOL    HW115824   5.106   2.222   6.179  0.3516  0.1069  0.8018
 4975SOL    HW215825   5.079   2.071   6.235 -1.7036  0.4046  0.6730
 4976SOL     OW15826   0.433   0.578   5.529  0.2547  0.1012  0.1572
 4976SOL    HW115827   0.451   0.622   5.441  1.6446  1.0356  0.8699
 4976SOL    HW215828   0.383   0.641   5.587  2.3535  0.8852  1.2264
 4977SOL     OW15829   2.087   4.000   6.798 -0.1262 -0.5423  0.4229
 4977SOL    HW115830   2.045   3.940   6.729 -2.5518 -0.9555  2.1311
 4977SOL    HW215831   2.182   4.018   6.772 -0.9696 -0.4063 -3.1542
 4978SOL     OW15832   4.205   3.324   5.918  0.0204  0.4281  0.9141
 4978SOL    HW115833   4.286   3.268   5.898  0.1774  1.3480 -1.3504
 4978SOL    HW215834   4.123   3.272   5.895  0.0248  0.0917  1.6318
 4979SOL     OW15835   1.862   5.031   6.989 -0.4398  0.5696 -0.1090
 4979SOL    HW115836   1.871   4.945   7.040 -1.5898 -0.0331 -0.8707
 4979SOL    HW215837   1.844   5.010   6.892 -0.1618  1.6814 -0.4121
 4980SOL     OW15838   6.915   5.470   3.818 -0.6356 -0.1494  0.3261
 4980SOL    HW115839   6.904   5.570   3.823 -0.1645 -0.1452  2.4513
 4980SOL    HW215840   6.942   5.444   3.726 -0.6924  1.7029 -0.2594
 4981SOL     OW15841   4.281   5.707   1.920  0.4219 -0.6718  0.1157
 4981SOL    HW115842   4.340   5.646   1.866 -0.8959 -0.5112 -1.6088
 4981SOL    HW215843   4.192   5.715   1.875 -0.9324 -0.8329  2.5823
 4982SOL     OW15844   3.666   2.502   1.424  0.8525 -0.4428 -0.1754
 4982SOL    HW115845   3.723   2.579   1.396  0.5209  0.1024  0.5951
 4982SOL    HW215846   3.569   2.528   1.416  0.6405 -1.7454 -2.5778
 4983SOL     OW15847   4.723   4.962   3.754  0.1555  0.1765 -0.5354
 4983SOL    HW115848   4.776   5.036   3.713  0.3124  0.7740  0.6938
 4983SOL    HW215849   4.638   4.949   3.703  0.6976  0.3556 -1.5042
 4984SOL     OW15850   4.692   5.687   3.479 -0.1282  0.2284  0.5598
 4984SOL    HW115851   4.598   5.710   3.507 -0.4668 -1.3524  0.8353
 4984SOL    HW215852   4.725   5.610   3.534  0.9370  0.0915 -0.2423
 4985SOL     OW15853   6.239   0.160   3.319  0.3562 -0.5935 -0.2141
 4985SOL    HW115854   6.145   0.163   3.353 -0.0768  2.5011 -1.3878
 4985SOL    HW215855   6.292   0.234   3.361  0.8679  0.8315 -3.0802
 4986SOL     OW15856   5.472   5.860   1.965 -0.0169 -0.0926 -0.4452
 4986SOL    HW115857   5.545   5.792   1.967 -1.0104 -1.1754  1.0668
 4986SOL    HW215858   5.398   5.828   1.906 -0.0400  0.1581 -0.5529
 4987SOL     OW15859   0.542   6.617   2.992  0.2282 -0.4905  0.1317
 4987SOL    HW115860   0.617   6.683   2.989  1.0457 -1.4249 -1.2070
 4987SOL    HW215861   0.561   6.542   2.929 -1.8640 -0.7319 -0.3098
 4988SOL     OW15862   0.252   0.467   2.811 -0.3610  0.2954 -0.1082
 4988SOL    HW115863   0.323   0.516   2.863  0.6684 -1.2843  0.0475
 4988SOL    HW215864   0.287   0.378   2.783 -1.5099  0.4099 -2.0644
 4989SOL     OW15865   5.277   6.695   0.619 -0.0747  0.3160  0.0526
 4989SOL    HW115866   5.205   6.720   0.554  0.0569 -1.2729 -0.7362
 4989SOL    HW215867   5.249   6.615   0.671  0.7290  0.2746  0.4395
 4990SOL     OW15868   3.628   0.594   0.710  0.6349 -0.1453  0.4363
 4990SOL    HW115869   3.608   0.672   0.651  0.5496 -0.3657  0.1722
 4990SOL    HW215870   3.553   0.581   0.776 -0.5446 -1.4886 -1.0980
 4991SOL     OW15871   1.554   6.136   4.543 -0.2848  0.6092 -0.1000
 4991SOL    HW115872   1.543   6.234   4.528 -1.1632  0.5092 -0.1521
 4991SOL    HW215873   1.641   6.105   4.503 -1.2210  0.8686 -2.5419
 4992SOL     OW15874   0.857   1.133   3.475  0.3080 -0.4284  0.0710
 4992SOL    HW115875   0.849   1.043   3.518  0.0622 -0.5211 -0.1705
 4992SOL    HW215876   0.769   1.162   3.439  0.0421  0.5642  1.4267
 4993SOL     OW15877   5.449   0.952   5.005 -0.3444  0.6966 -0.0477
 4993SOL    HW115878   5.429   0.882   4.936 -0.0391  0.9249 -0.3713
 4993SOL    HW215879   5.505   1.024   4.964 -0.9620  1.3238  0.1833
 4994SOL     OW15880   2.166   6.224   6.300 -0.0963  0.0321 -0.7987
 4994SOL    HW115881   2.245   6.167   6.321 -1.2006 -1.0610  0.5804
 4994SOL    HW215882   2.137   6.273   6.382 -0.7461  0.5775 -1.3378
 4995SOL     OW15883   0.548   0.386   5.153  0.4725  0.0556 -0.1820
 4995SOL    HW115884   0.506   0.381   5.244  0.9870 -0.6801  0.0268
 4995SOL    HW215885   0.614   0.460   5.151  0.2561  0.2550 -0.0482
 4996SOL     OW15886   6.946   3.077   2.886  0.5041  0.1418 -0.0571
 4996SOL    HW115887   6.933   2.996   2.829  0.7820 -0.6174  0.9366
 4996SOL    HW215888   6.987   3.150   2.831  0.5313 -0.4877 -0.8891
 4997SOL     OW15889   5.039   1.496   1.896  0.7028 -0.4934 -0.2183
 4997SOL    HW115890   4.965   1.431   1.879 -0.6594  0.8117  0.5671
 4997SOL    HW215891   5.003   1.589   1.901  2.2968  0.1326  0.7459
 4998SOL     OW15892   1.553   3.549   3.724 -0.3309 -0.2414 -0.0119
 4998SOL    HW115893   1.601   3.632   3.753  1.1220 -1.2310  0.4568
 4998SOL    HW215894   1.512   3.505   3.803 -0.5801 -0.3176 -0.1803
 4999SOL     OW15895   6.317   4.206   5.796 -0.1519  0.0550  0.5785
 4999SOL    HW115896   6.295   4.147   5.873 -1.3942 -1.7612 -1.0594
 4999SOL    HW215897   6.417   4.208   5.784 -0.0448 -1.5226  0.8852
 5000SOL     OW15898   2.557   6.315   2.386 -0.0154 -0.1346  0.4735
 5000SOL    HW115899   2.574   6.371   2.305 -2.2479  1.3990  0.9756
 5000SOL    HW215900   2.540   6.221   2.358  2.5145 -0.3831 -0.4984
 5001SOL     OW15901   6.572   6.748   0.960 -0.2470  0.6641  0.0875
 5001SOL    HW115902   6.649   6.792   0.914 -1.0934  0.5803 -1.4975
 5001SOL    HW215903   6.489   6.761   0.905 -1.4523  1.0601  1.9205
 5002SOL     OW15904   0.667   5.536   2.608  0.3810 -0.7728 -0.3422
 5002SOL    HW115905   0.651   5.574   2.699  0.6579 -1.3179 -0.0626
 5002SOL    HW215906   0.600   5.573   2.544  0.2870 -0.2618  0.0466
 5003SOL     OW15907   3.515   6.698   1.824 -0.1139 -0.4063  0.0367
 5003SOL    HW115908   3.583   6.696   1.897  0.7312  1.5866 -0.6295
 5003SOL    HW215909   3.551   6.650   1.744 -0.2209 -0.8891  0.2797
 5004SOL     OW15910   1.619   4.867   5.056  0.0495  0.0597  0.1662
 5004SOL    HW115911   1.715   4.892   5.071  0.3854  0.1635 -1.8360
 5004SOL    HW215912   1.611   4.768   5.048 -0.2284 -0.0442  1.5417
 5005SOL     OW15913   1.676   3.483   6.782 -0.5168 -0.3039 -0.1191
 5005SOL    HW115914   1.754   3.515   6.836 -2.3959  0.8566  2.0883
 5005SOL    HW215915   1.703   3.476   6.686  2.2359  0.1486  0.5186
 5006SOL     OW15916   5.797   0.918   2.410  0.0020 -0.0574 -0.0355
 5006SOL    HW115917   5.856   0.879   2.482 -0.0724  0.6368  0.4156
 5006SOL    HW215918   5.829   1.010   2.388  1.1078 -0.8999 -2.1761
 5007SOL     OW15919   6.441   1.649   6.885 -0.7195 -0.3612  0.2595
 5007SOL    HW115920   6.390   1.725   6.926 -1.0328 -1.2651  1.5976
 5007SOL    HW215921   6.405   1.631   6.793 -0.7024  1.0266 -0.0395
 5008SOL     OW15922   6.525   5.701   0.455 -0.7817 -0.2644 -0.0337
 5008SOL    HW115923   6.446   5.756   0.481 -0.3472 -0.1156  1.0405
 5008SOL    HW215924   6.608   5.740   0.495 -0.6651 -2.6023  2.3184
 5009SOL     OW15925   1.738   2.299   1.178 -0.5111 -0.3419  0.3570
 5009SOL    HW115926   1.736   2.326   1.081 -0.1650 -0.3157  0.3537
 5009SOL    HW215927   1.761   2.378   1.234 -1.5003 -0.1703  0.5419
 5010SOL     OW15928   2.943   3.134   1.163 -0.2471  0.6861 -0.2346
 5010SOL    HW115929   2.890   3.087   1.233 -0.9898  0.8216 -0.6955
 5010SOL    HW215930   3.024   3.081   1.141 -0.9997 -0.3228 -0.6448
 5011SOL     OW15931   1.995   3.873   6.560 -0.6323  0.0738 -0.5913
 5011SOL    HW115932   2.015   3.955   6.507  1.2007  0.2174  0.2462
 5011SOL    HW215933   1.901   3.843   6.542 -0.5316  0.9310 -2.7809
 5012SOL     OW15934   4.348   2.673   5.367 -0.1317  0.2077  0.3537
 5012SOL    HW115935   4.252   2.703   5.365  0.0037  0.6314 -0.8934
 5012SOL    HW215936   4.405   2.743   5.323  0.6745 -0.2877  0.6019
 5013SOL     OW15937   5.554   2.006   4.434 -0.5532  0.1209  0.1371
 5013SOL    HW115938   5.521   1.976   4.345  0.0218 -0.3643  0.0782
 5013SOL    HW215939   5.477   2.019   4.496 -0.9931  0.8727 -0.5501
 5014SOL     OW15940   6.778   3.643   0.683 -0.3915 -0.1243 -0.5019
 5014SOL    HW115941   6.867   3.688   0.679 -0.7479  0.5076 -2.2111
 5014SOL    HW215942   6.754   3.624   0.778  1.9102 -1.0545 -0.0574
 5015SOL     OW15943   4.569   0.459   4.111  0.8139 -0.6121 -0.6033
 5015SOL    HW115944   4.666   0.447   4.092  1.2892  1.4269  0.1920
 5015SOL    HW215945   4.552   0.555   4.137 -1.1642 -1.2495  0.7098
 5016SOL     OW15946   0.403   3.548   5.146 -0.1458 -0.1180 -0.3448
 5016SOL    HW115947   0.391   3.639   5.108 -1.1476 -0.5782 -1.1723
 5016SOL    HW215948   0.489   3.544   5.197 -1.1889  1.9550  1.7312
 5017SOL     OW15949   1.474   1.671   1.273  0.7974 -0.2193 -0.9274
 5017SOL    HW115950   1.448   1.579   1.242  0.8726 -0.0448 -1.5109
 5017SOL    HW215951   1.558   1.665   1.327  0.5502 -0.5521 -0.5731
 5018SOL     OW15952   6.546   5.435   2.105  0.1712 -0.1496 -0.0210
 5018SOL    HW115953   6.493   5.505   2.056  0.4688 -0.4815 -0.8410
 5018SOL    HW215954   6.525   5.345   2.067 -1.6677 -0.7892  2.2932
 5019SOL     OW15955   0.984   6.330   4.977  0.1871  0.6630  0.0841
 5019SOL    HW115956   0.965   6.406   4.914 -1.5952 -0.6084 -1.0138
 5019SOL    HW215957   1.060   6.276   4.941  0.1564  0.8062 -0.2030
 5020SOL     OW15958   6.837   6.735   4.171  0.1948  0.2151  0.3418
 5020SOL    HW115959   6.857   6.663   4.237  2.3337 -0.1436 -0.6287
 5020SOL    HW215960   6.922   6.771   4.133 -0.7834  3.1746  0.6533
 5021SOL     OW15961   1.400   1.379   1.627  0.0489 -0.0352  0.6258
 5021SOL    HW115962   1.305   1.407   1.633 -0.1717 -0.8014  0.7948
 5021SOL    HW215963   1.458   1.450   1.667 -0.5274 -0.0254  1.4684
 5022SOL     OW15964   0.427   4.511   6.129  0.0223 -0.4519  0.1042
 5022SOL    HW115965   0.515   4.470   6.152 -0.0149 -0.1896  0.7410
 5022SOL    HW215966   0.412   4.592   6.185 -0.7270 -0.6238  0.1715
 5023SOL     OW15967   6.469   3.872   1.814 -0.2288 -0.2752  0.1883
 5023SOL    HW115968   6.504   3.797   1.870  0.3661 -0.0121  0.1719
 5023SOL    HW215969   6.415   3.933   1.871 -0.4169 -0.5160  0.2743
 5024SOL     OW15970   6.659   4.412   0.802  0.0948  0.5601 -0.0470
 5024SOL    HW115971   6.617   4.346   0.864 -2.0736  0.8268 -1.1311
 5024SOL    HW215972   6.657   4.375   0.709 -1.7677  2.3298 -0.7877
 5025SOL     OW15973   4.373   1.471   4.671 -0.2304 -0.2707 -0.0952
 5025SOL    HW115974   4.447   1.521   4.627 -1.0950  0.2822 -0.9721
 5025SOL    HW215975   4.286   1.519   4.655 -1.0897 -1.9760 -0.8813
 5026SOL     OW15976   0.368   4.266   0.104  0.0420  0.1509  0.3016
 5026SOL    HW115977   0.368   4.189   0.041 -1.5671 -0.0583  0.5297
 5026SOL    HW215978   0.463   4.289   0.128  0.6388 -0.3953 -1.3865
 5027SOL     OW15979   6.403   0.776   0.484 -0.0249  0.2376 -0.0399
 5027SOL    HW115980   6.500   0.755   0.488  0.5141  2.5762  0.6137
 5027SOL    HW215981   6.359   0.747   0.569  0.2329 -0.1906 -0.0516
 5028SOL     OW15982   1.736   2.277   4.770 -0.6673  0.6904 -0.4513
 5028SOL    HW115983   1.645   2.236   4.783 -0.8387  1.1828 -0.0944
 5028SOL    HW215984   1.760   2.331   4.850  0.5584 -0.5821  0.0639
 5029SOL     OW15985   1.204   1.561   2.987  0.0562  0.3588  0.2162
 5029SOL    HW115986   1.227   1.615   3.068 -0.3808  0.3559  0.3450
 5029SOL    HW215987   1.169   1.621   2.915  0.9765  0.4370 -0.1812
 5030SOL     OW15988   0.204   6.253   1.184  0.1298 -0.1201 -0.1954
 5030SOL    HW115989   0.248   6.315   1.119  2.4134 -0.4848  0.9001
 5030SOL    HW215990   0.209   6.292   1.276  0.5287 -1.3528  0.3313
 5031SOL     OW15991   0.545   0.396   6.853  0.7020  0.5229 -0.4604
 5031SOL    HW115992   0.558   0.299   6.832 -1.5478 -0.2549  1.3531
 5031SOL    HW215993   0.491   0.439   6.781  1.9654  0.5540 -1.4245
 5032SOL     OW15994   1.239   0.631   0.782  0.0989 -0.1035  0.5300
 5032SOL    HW115995   1.283   0.542   0.771 -0.9699 -0.5455 -0.4565
 5032SOL    HW215996   1.190   0.634   0.869 -0.1184 -0.6023  0.4296
 5033SOL     OW15997   0.726   0.954   6.709 -0.1834  0.3525  0.0574
 5033SOL    HW115998   0.629   0.946   6.688  0.5724 -1.9418 -3.2011
 5033SOL    HW215999   0.739   0.945   6.808 -3.1024 -1.5160  0.4072
 5034SOL     OW16000   5.769   1.128   3.391  0.0378 -0.3421 -0.3399
 5034SOL    HW116001   5.775   1.029   3.394  0.3411 -0.3373  2.4764
 5034SOL    HW216002   5.678   1.157   3.423 -0.0215  0.3053 -1.0592
 5035SOL     OW16003   0.201   4.320   3.666  0.5892  0.6084  0.1269
 5035SOL    HW116004   0.125   4.313   3.730 -0.2016  1.5850 -0.6643
 5035SOL    HW216005   0.255   4.236   3.669  0.0173  0.2697  1.3687
 5036SOL     OW16006   0.369   5.805   5.737  0.2542  0.2056 -0.4490
 5036SOL    HW116007   0.295   5.738   5.748  0.7645 -0.3481 -0.3720
 5036SOL    HW216008   0.448   5.762   5.694  1.3600  0.2061  1.4728
 5037SOL     OW16009   4.813   4.850   2.686  0.0116  0.2745 -0.4607
 5037SOL    HW116010   4.761   4.910   2.625 -0.4929  0.7993  0.4538
 5037SOL    HW216011   4.793   4.755   2.665  1.0029  0.3819 -2.0938
 5038SOL     OW16012   3.639   3.221   4.692  0.6329  0.2769 -0.3627
 5038SOL    HW116013   3.719   3.269   4.727  0.1252  0.3591  0.7099
 5038SOL    HW216014   3.572   3.287   4.658  0.0112  0.3422  0.9474
 5039SOL     OW16015   2.180   2.892   4.926  1.0967  0.1956 -0.2655
 5039SOL    HW116016   2.244   2.930   4.993  2.1318 -1.2108 -0.4012
 5039SOL    HW216017   2.231   2.839   4.858 -0.1740 -0.4427 -0.7481
 5040SOL     OW16018   6.067   3.825   5.149 -0.2294  0.3726  0.0759
 5040SOL    HW116019   6.053   3.786   5.240 -0.6044 -0.4485 -0.3237
 5040SOL    HW216020   5.980   3.862   5.115 -0.3050 -0.1572 -0.3210
 5041SOL     OW16021   1.841   1.520   3.656  0.6566 -0.3821  0.2766
 5041SOL    HW116022   1.876   1.571   3.578 -0.9842  0.3824 -0.0034
 5041SOL    HW216023   1.811   1.584   3.727 -0.2626 -0.9811  0.4455
 5042SOL     OW16024   0.283   2.190   0.079 -0.6179 -0.1847 -0.8265
 5042SOL    HW116025   0.294   2.181  -0.020 -0.6546 -1.4794 -0.7249
 5042SOL    HW216026   0.206   2.135   0.110 -2.4086  2.4042 -0.4221
 5043SOL     OW16027   6.091   0.649   5.767 -0.5925 -0.1124 -0.1976
 5043SOL    HW116028   6.117   0.678   5.859  1.9658 -0.4546 -0.7285
 5043SOL    HW216029   5.992   0.657   5.756 -0.7063  2.4641  1.6850
 5044SOL     OW16030   1.209   5.733   1.488  0.2650 -0.1112 -0.3497
 5044SOL    HW116031   1.127   5.690   1.524 -0.3994  0.9078 -0.5908
 5044SOL    HW216032   1.272   5.755   1.563  1.3208 -2.8130 -0.3459
 5045SOL     OW16033   0.542   5.778   6.322 -0.4880  0.1930  0.1403
 5045SOL    HW116034   0.631   5.743   6.352 -0.5982 -0.7536 -0.6102
 5045SOL    HW216035   0.482   5.702   6.298  0.1068  0.8038 -4.0038
 5046SOL     OW16036   3.692   3.311   2.985  0.1130  0.4404 -0.2332
 5046SOL    HW116037   3.623   3.379   3.011  1.5842  1.7487  0.4018
 5046SOL    HW216038   3.754   3.296   3.063 -0.1854 -1.6638 -0.3586
 5047SOL     OW16039   1.885   3.790   2.146 -0.0654 -0.2799 -0.8453
 5047SOL    HW116040   1.843   3.740   2.071  1.3538 -1.4061 -0.9122
 5047SOL    HW216041   1.960   3.737   2.185  1.1262  1.5311 -0.5366
 5048SOL     OW16042   1.854   2.866   6.594  0.3182 -0.5077  0.6448
 5048SOL    HW116043   1.863   2.951   6.645 -1.4060 -0.4527  0.9209
 5048SOL    HW216044   1.796   2.880   6.514  1.4327 -1.0457 -0.3011
 5049SOL     OW16045   5.747   1.097   1.446 -0.4566  0.6537 -0.2033
 5049SOL    HW116046   5.842   1.129   1.449 -0.1537 -0.1956 -0.4899
 5049SOL    HW216047   5.745   1.001   1.419 -1.2648  0.0693  1.7444
 5050SOL     OW16048   3.443   1.629   6.452  0.5338  0.3733 -0.1554
 5050SOL    HW116049   3.493   1.591   6.374 -1.7039 -1.5640 -0.7928
 5050SOL    HW216050   3.482   1.595   6.537  0.6383 -0.6849 -0.6112
 5051SOL     OW16051   3.397   4.819   1.722 -0.2631 -0.6614 -0.0511
 5051SOL    HW116052   3.463   4.752   1.756 -0.9505 -1.1766  0.2965
 5051SOL    HW216053   3.355   4.785   1.638 -0.7611 -0.7601  0.2363
 5052SOL     OW16054   3.493   2.197   6.135  0.4794  0.1670  0.1628
 5052SOL    HW116055   3.592   2.187   6.137  0.6770  1.1922 -1.7813
 5052SOL    HW216056   3.467   2.282   6.182  0.8204  1.2885 -1.5833
 5053SOL     OW16057   2.135   3.312   3.348  0.3310  0.4200 -0.0442
 5053SOL    HW116058   2.039   3.321   3.321  0.6538  0.3678 -1.2546
 5053SOL    HW216059   2.172   3.403   3.370  0.0089  0.4371  0.4476
 5054SOL     OW16060   3.403   5.509   6.232  0.3450 -0.2539 -0.9257
 5054SOL    HW116061   3.373   5.537   6.141 -0.1171 -0.3965 -0.8207
 5054SOL    HW216062   3.327   5.466   6.281  0.6469 -0.3733 -0.5500
 5055SOL     OW16063   0.837   2.616   4.531  0.3654 -0.3507 -0.3725
 5055SOL    HW116064   0.802   2.707   4.510 -1.7052 -0.2897  2.7268
 5055SOL    HW216065   0.905   2.622   4.604  0.9312 -1.2178 -0.8121
 5056SOL     OW16066   5.188   4.825   4.789 -0.0758  0.3288 -0.1499
 5056SOL    HW116067   5.170   4.877   4.873  0.6226  0.9358 -0.3644
 5056SOL    HW216068   5.101   4.797   4.748 -0.4194 -0.1881  0.9003
 5057SOL     OW16069   2.333   6.744   3.863 -0.1897 -0.3806 -0.2311
 5057SOL    HW116070   2.401   6.764   3.934  0.6543 -0.6433 -0.9464
 5057SOL    HW216071   2.375   6.688   3.792 -1.1202 -0.4040 -0.7767
 5058SOL     OW16072   3.835   4.742   6.857 -0.8519  0.8095  0.4635
 5058SOL    HW116073   3.768   4.710   6.789 -0.8967  0.3529  0.7170
 5058SOL    HW216074   3.917   4.774   6.810 -1.0374  0.8694  0.1741
 5059SOL     OW16075   6.257   0.843   2.062  0.0306 -0.1877  0.2621
 5059SOL    HW116076   6.234   0.899   1.982 -0.8621 -0.2584  0.4625
 5059SOL    HW216077   6.204   0.759   2.061  0.1665 -0.2867  0.8174
 5060SOL     OW16078   6.971   3.595   6.815  0.1834 -0.0881 -0.1109
 5060SOL    HW116079   6.900   3.554   6.872  0.3384 -0.3055 -0.0744
 5060SOL    HW216080   6.961   3.564   6.721  0.0204  0.1517 -0.1729
 5061SOL     OW16081   4.159   1.255   6.020 -0.1855  0.0059 -0.4805
 5061SOL    HW116082   4.210   1.329   5.978  0.8457 -0.5445 -0.2534
 5061SOL    HW216083   4.061   1.270   6.009 -0.0829  2.3349  1.1438
 5062SOL     OW16084   4.751   0.079   3.219 -0.3605 -0.1679  0.3760
 5062SOL    HW116085   4.800   0.013   3.163 -1.9952 -0.5055 -0.7233
 5062SOL    HW216086   4.723   0.035   3.305 -1.0047 -0.7603 -0.1312
 5063SOL     OW16087   0.630   5.491   4.338  0.0434  0.5273  0.1646
 5063SOL    HW116088   0.718   5.444   4.336  0.3500  1.0294  1.2766
 5063SOL    HW216089   0.556   5.424   4.336  0.4617  0.0441  0.6203
 5064SOL     OW16090   5.578   2.394   0.781  0.2162  0.2543  0.1438
 5064SOL    HW116091   5.488   2.353   0.789  0.2855  0.0901  0.0843
 5064SOL    HW216092   5.569   2.494   0.776  0.1409  0.4040  2.1250
 5065SOL     OW16093   5.157   1.405   3.764 -0.3780 -0.1069  0.2869
 5065SOL    HW116094   5.188   1.495   3.794  0.1515 -0.0787 -0.3186
 5065SOL    HW216095   5.145   1.346   3.844  0.6042  0.0895  0.5971
 5066SOL     OW16096   3.934   5.635   1.423 -0.4230  0.4639 -0.3148
 5066SOL    HW116097   3.949   5.709   1.488  0.4197 -0.5656  0.7084
 5066SOL    HW216098   3.976   5.551   1.458 -0.0303 -0.1504 -2.1389
 5067SOL     OW16099   6.086   2.264   1.354  0.5457  0.2819 -0.0403
 5067SOL    HW116100   6.003   2.249   1.300 -0.2564 -1.4837  1.5627
 5067SOL    HW216101   6.151   2.320   1.301 -1.7149  1.9143 -1.2525
 5068SOL     OW16102   1.291   3.591   6.662  0.1034 -0.2407 -0.9277
 5068SOL    HW116103   1.350   3.612   6.740 -1.4339  1.9250 -0.2678
 5068SOL    HW216104   1.341   3.533   6.598  1.9312 -0.8406  0.9237
 5069SOL     OW16105   2.159   3.896   3.055 -0.4518  0.3214 -0.7172
 5069SOL    HW116106   2.112   3.923   2.971  0.0454  0.6612 -0.8833
 5069SOL    HW216107   2.256   3.882   3.036 -0.6413 -1.3960 -0.6093
 5070SOL     OW16108   5.718   3.603   4.257 -0.0954 -0.2708 -0.5367
 5070SOL    HW116109   5.713   3.690   4.210  0.1347  0.2013  0.2875
 5070SOL    HW216110   5.625   3.567   4.271 -0.2212  0.1108 -0.3925
 5071SOL     OW16111   5.360   0.578   6.039  0.1054  0.1260 -0.9062
 5071SOL    HW116112   5.452   0.618   6.047 -0.0381  0.3957 -0.5755
 5071SOL    HW216113   5.311   0.622   5.964 -0.3840  1.2496  0.0354
 5072SOL     OW16114   1.680   0.952   6.871  0.1257  0.1808  0.3907
 5072SOL    HW116115   1.602   1.005   6.838 -0.7205  0.0067  2.0396
 5072SOL    HW216116   1.759   1.012   6.880  0.2433  0.3379 -1.3875
 5073SOL     OW16117   0.416   0.956   1.914 -0.1936 -0.4938  0.5167
 5073SOL    HW116118   0.330   0.952   1.863 -0.4757  0.8814  0.8395
 5073SOL    HW216119   0.407   1.021   1.990  1.2599  0.0180  0.2902
 5074SOL     OW16120   3.680   2.686   0.021 -0.4187  0.1791  0.5624
 5074SOL    HW116121   3.701   2.734   0.106 -0.6897  0.1391  0.6500
 5074SOL    HW216122   3.715   2.593   0.025  0.6316  0.5376  0.1687
 5075SOL     OW16123   6.138   0.378   6.537  0.3846 -0.4380 -0.8536
 5075SOL    HW116124   6.051   0.427   6.541 -0.1186 -0.9052 -3.6793
 5075SOL    HW216125   6.152   0.326   6.621 -0.2995  2.3832  1.1648
 5076SOL     OW16126   4.658   0.632   2.103  0.5190  0.1491  0.1206
 5076SOL    HW116127   4.582   0.601   2.046 -1.0356 -1.0183  2.6863
 5076SOL    HW216128   4.624   0.661   2.192  3.0338  0.2696  1.1173
 5077SOL     OW16129   1.392   1.648   3.691  0.0334 -0.6614 -0.0851
 5077SOL    HW116130   1.477   1.692   3.663  0.9322 -1.9836  0.4575
 5077SOL    HW216131   1.330   1.640   3.613  0.6565 -0.2584 -0.6251
 5078SOL     OW16132   0.976   1.809   4.457  0.2686  0.3714  0.2894
 5078SOL    HW116133   1.068   1.781   4.484  1.5934  2.7706 -1.4228
 5078SOL    HW216134   0.921   1.727   4.437  2.6454 -1.1063 -0.6266
 5079SOL     OW16135   2.743   4.597   6.847  0.4533  0.8499 -0.1886
 5079SOL    HW116136   2.686   4.517   6.866  0.2402  0.7423 -1.2252
 5079SOL    HW216137   2.753   4.652   6.931 -1.1332  0.8458  0.0406
 5080SOL     OW16138   5.731   0.044   3.959 -0.4197  0.4467  0.5692
 5080SOL    HW116139   5.670   0.082   4.029  1.2482 -0.0424  2.3624
 5080SOL    HW216140   5.795   0.115   3.930  1.3222 -0.3153  2.3626
 5081SOL     OW16141   3.742   3.490   3.671 -0.0052  0.3081  0.4861
 5081SOL    HW116142   3.719   3.426   3.745 -0.2827  1.2507  1.2406
 5081SOL    HW216143   3.677   3.480   3.596  0.8075 -1.2845 -0.0419
 5082SOL     OW16144   4.178   0.569   4.871 -0.6590  1.1370  0.0271
 5082SOL    HW116145   4.137   0.479   4.884 -0.8094  1.1307 -0.4669
 5082SOL    HW216146   4.106   0.635   4.850 -0.2707  0.7013 -3.1499
 5083SOL     OW16147   1.460   0.563   2.069 -0.1305 -0.0668  0.6096
 5083SOL    HW116148   1.435   0.475   2.030 -0.1624 -0.8692  2.3309
 5083SOL    HW216149   1.403   0.635   2.029 -0.8972 -0.9921  0.0072
 5084SOL     OW16150   6.525   4.729   3.584 -0.9157 -0.2017  0.1888
 5084SOL    HW116151   6.487   4.680   3.663  0.0059  0.2029  0.9002
 5084SOL    HW216152   6.492   4.823   3.584 -0.1529  0.0762  0.6591
 5085SOL     OW16153   4.743   0.361   6.931  0.0837  0.4004  0.1747
 5085SOL    HW116154   4.727   0.264   6.909  0.2010  0.6337 -0.9707
 5085SOL    HW216155   4.658   0.411   6.924 -0.1061  0.2853  1.3839
 5086SOL     OW16156   0.572   0.014   4.332  0.0000 -0.4957  0.4247
 5086SOL    HW116157   0.637   0.088   4.314 -0.5200  0.2406  1.4695
 5086SOL    HW216158   0.615  -0.074   4.313  0.4670  0.0780 -1.3213
 5087SOL     OW16159   4.070   5.867   3.005  0.0691 -0.0694  0.1732
 5087SOL    HW116160   4.146   5.932   3.000  0.0367 -0.0272  0.2465
 5087SOL    HW216161   4.069   5.811   2.921  1.4246 -1.4508  1.0158
 5088SOL     OW16162   6.024   1.517   6.640  0.2653 -0.0638 -0.1554
 5088SOL    HW116163   6.069   1.604   6.661 -0.9606  0.8330 -1.0726
 5088SOL    HW216164   6.033   1.455   6.718  0.7548  1.0450  0.7007
 5089SOL     OW16165   6.727   4.897   1.665 -0.0021  0.4317  0.0939
 5089SOL    HW116166   6.707   4.876   1.761 -2.5126  0.7217 -0.3082
 5089SOL    HW216167   6.741   4.995   1.654  0.9103  0.3292  0.2283
 5090SOL     OW16168   0.088   5.214   1.322  0.6183  0.3052  0.3052
 5090SOL    HW116169   0.143   5.233   1.241 -1.3669 -0.2667 -1.2597
 5090SOL    HW216170   0.147   5.183   1.396  2.2541 -2.3821 -1.9393
 5091SOL     OW16171   1.553   6.445   2.914 -0.1712 -0.1702 -0.3291
 5091SOL    HW116172   1.559   6.382   2.837  0.9629 -1.0015  0.3948
 5091SOL    HW216173   1.557   6.393   3.000 -1.9814  0.6763  0.3233
 5092SOL     OW16174   3.885   3.080   1.590  0.6521  0.6876 -0.0240
 5092SOL    HW116175   3.981   3.086   1.614  1.1235  1.1775 -1.8357
 5092SOL    HW216176   3.839   3.013   1.648  2.1752  0.1453  0.5819
 5093SOL     OW16177   1.031   2.835   2.325  0.2878  0.4397  0.3268
 5093SOL    HW116178   0.990   2.899   2.260 -1.6864  0.0804  1.1357
 5093SOL    HW216179   1.001   2.858   2.418  0.7884 -0.7215  0.7954
 5094SOL     OW16180   0.834   1.294   6.237  0.5777  0.0664  0.4989
 5094SOL    HW116181   0.781   1.372   6.270  1.2661  0.9131 -0.3441
 5094SOL    HW216182   0.861   1.238   6.315 -1.5387 -0.4130  0.9615
 5095SOL     OW16183   2.047   4.089   5.104  0.0925  0.5471 -0.4682
 5095SOL    HW116184   2.025   4.174   5.152  0.5970  1.5754 -1.9812
 5095SOL    HW216185   2.141   4.063   5.123 -0.4715 -0.4673  1.0969
 5096SOL     OW16186   4.083   4.159   5.841 -0.3477 -0.6848 -0.1060
 5096SOL    HW116187   3.993   4.136   5.803 -0.2852  0.8020 -1.2684
 5096SOL    HW216188   4.075   4.176   5.939 -1.1476 -1.5167 -0.0176
 5097SOL     OW16189   2.183   0.574   6.448 -0.2010  0.2862 -0.1465
 5097SOL    HW116190   2.138   0.561   6.537 -0.1977 -0.4081 -0.2395
 5097SOL    HW216191   2.117   0.556   6.375 -0.0220  0.1967 -0.2863
 5098SOL     OW16192   0.218   1.067   4.145  0.1082 -0.3689  0.8595
 5098SOL    HW116193   0.269   0.993   4.187  0.3434  0.2087  1.6225
 5098SOL    HW216194   0.201   1.139   4.213  1.7093  1.2331 -0.3436
 5099SOL     OW16195   1.307   6.911   6.074  0.3153  0.4593 -0.2950
 5099SOL    HW116196   1.259   6.825   6.093  1.1141  0.2709  0.9945
 5099SOL    HW216197   1.402   6.891   6.051  0.5669  1.0005  0.2614
 5100SOL     OW16198   3.694   6.911   4.718 -0.4619  0.2343 -0.3350
 5100SOL    HW116199   3.693   6.955   4.628 -0.0158  2.0093  0.4682
 5100SOL    HW216200   3.603   6.915   4.758 -0.9452 -1.6334 -1.1569
 5101SOL     OW16201   4.994   5.625   0.888 -0.0319  0.1178 -0.4116
 5101SOL    HW116202   4.997   5.646   0.986  0.1842 -1.6257 -0.0032
 5101SOL    HW216203   5.018   5.707   0.836 -0.5630  1.1998  0.9658
 5102SOL     OW16204   6.933   0.589   5.152  0.0686 -0.1714  0.4595
 5102SOL    HW116205   6.966   0.678   5.185 -0.7053 -0.0502  0.9290
 5102SOL    HW216206   6.962   0.576   5.057 -0.1822  0.7850  0.2370
 5103SOL     OW16207   0.274   1.330   4.618  0.4775  0.3993  0.2214
 5103SOL    HW116208   0.203   1.389   4.657  0.5714 -0.2928  1.5088
 5103SOL    HW216209   0.364   1.367   4.640  0.5854 -1.0716  2.5920
 5104SOL     OW16210   2.003   2.502   1.176 -0.0501 -0.0317 -0.5653
 5104SOL    HW116211   1.931   2.516   1.108 -1.5060  0.5455  1.0126
 5104SOL    HW216212   2.016   2.404   1.191 -0.4231 -0.1442 -0.9479
 5105SOL     OW16213   5.284   2.480   1.194 -0.3345 -0.1952 -0.1875
 5105SOL    HW116214   5.372   2.437   1.174 -0.6977 -1.3642  0.5965
 5105SOL    HW216215   5.270   2.482   1.293 -1.3499 -0.3968 -0.3109
 5106SOL     OW16216   5.021   6.067   1.619  1.4369  0.0393 -0.3099
 5106SOL    HW116217   4.967   6.129   1.562  0.7980 -1.8038 -1.8377
 5106SOL    HW216218   5.021   6.099   1.713 -3.0421 -0.2460 -0.0400
 5107SOL     OW16219   1.631   3.383   1.952 -0.3317  0.5867 -0.0526
 5107SOL    HW116220   1.675   3.316   2.012  0.9607  0.6820 -0.8486
 5107SOL    HW216221   1.627   3.347   1.859 -0.0587  1.4059 -0.3961
 5108SOL     OW16222   3.145   3.787   3.319  0.2540  0.5022  0.3453
 5108SOL    HW116223   3.216   3.722   3.292 -0.6292 -0.4537  0.2641
 5108SOL    HW216224   3.109   3.832   3.237 -0.0346  0.1269  0.2618
 5109SOL     OW16225   1.729   2.982   0.142  0.4949  0.3026  0.8808
 5109SOL    HW116226   1.750   2.887   0.164  1.9290  0.2496 -0.5851
 5109SOL    HW216227   1.630   2.993   0.136  0.2461 -0.7462  2.4635
 5110SOL     OW16228   0.520   6.780   4.775 -0.2648  0.0178  0.0090
 5110SOL    HW116229   0.429   6.792   4.815  0.0005 -1.3572  1.1182
 5110SOL    HW216230   0.561   6.870   4.757 -1.0613  0.6769  1.3360
 5111SOL     OW16231   0.379   0.010   5.321 -0.2468  0.0217 -0.1181
 5111SOL    HW116232   0.419   0.067   5.393 -1.0872  1.7277 -0.9597
 5111SOL    HW216233   0.416  -0.083   5.329  3.6965  1.3235 -0.6286
 5112SOL     OW16234   0.957   1.913   4.183  0.1457 -0.2433 -0.0590
 5112SOL    HW116235   0.936   2.010   4.193  0.5511 -0.1446 -0.1479
 5112SOL    HW216236   0.982   1.875   4.272 -2.2768 -0.8263  0.4499
 5113SOL     OW16237   2.666   6.218   0.418 -0.2309 -0.0235  0.6976
 5113SOL    HW116238   2.609   6.136   0.420  0.6414 -0.7217 -0.9465
 5113SOL    HW216239   2.759   6.195   0.448 -0.0812  0.4618  0.6202
 5114SOL     OW16240   2.854   3.085   0.014  0.1620 -0.0255 -0.5115
 5114SOL    HW116241   2.908   3.079   0.098  0.7008 -1.5824 -0.9339
 5114SOL    HW216242   2.897   3.150  -0.048  0.4691  0.1816 -0.0899
 5115SOL     OW16243   2.487   6.054   5.190 -0.0241  0.4251 -0.1541
 5115SOL    HW116244   2.449   5.961   5.188 -0.0056  0.3746  1.3431
 5115SOL    HW216245   2.434   6.112   5.127  0.1229 -0.6371 -1.2930
 5116SOL     OW16246   4.618   4.440   0.175  0.5899  0.3113  0.2980
 5116SOL    HW116247   4.709   4.404   0.154  0.8300  0.3901  1.1505
 5116SOL    HW216248   4.604   4.528   0.129  0.4933 -0.2394 -0.7616
 5117SOL     OW16249   1.767   5.225   4.616 -0.0634  0.0704  0.5110
 5117SOL    HW116250   1.794   5.129   4.631 -0.0904 -0.0971 -0.4595
 5117SOL    HW216251   1.734   5.236   4.522 -0.4767  0.9418  0.7522
 5118SOL     OW16252   3.957   5.899   6.916  0.4823 -0.6711 -0.7610
 5118SOL    HW116253   3.951   5.801   6.895 -2.9041 -0.6437 -0.4795
 5118SOL    HW216254   3.927   5.952   6.836 -1.2943 -0.0934  0.2255
 5119SOL     OW16255   5.695   1.062   1.752 -0.0652  0.3540  0.3661
 5119SOL    HW116256   5.779   1.070   1.806  0.7502 -1.2067 -0.6182
 5119SOL    HW216257   5.712   1.088   1.658 -0.4765 -0.6836 -0.0147
 5120SOL     OW16258   4.870   4.187   3.184  0.3094 -0.1887  0.0832
 5120SOL    HW116259   4.849   4.183   3.086  1.1456  0.0279 -0.1060
 5120SOL    HW216260   4.814   4.119   3.232 -0.6972  0.2418 -0.4301
 5121SOL     OW16261   6.860   2.703   5.644  0.2580 -0.3442  0.1756
 5121SOL    HW116262   6.896   2.736   5.557  0.5428 -0.3346  0.2961
 5121SOL    HW216263   6.880   2.769   5.716  1.4820 -1.0937  0.5588
 5122SOL     OW16264   1.182   0.775   3.406 -0.2967 -1.2082  0.0853
 5122SOL    HW116265   1.275   0.747   3.382  0.0497 -1.3554  1.5421
 5122SOL    HW216266   1.176   0.875   3.403 -0.9495 -1.2524 -2.9796
 5123SOL     OW16267   6.881   3.253   3.772 -0.5749  0.6231 -0.4404
 5123SOL    HW116268   6.971   3.290   3.747 -1.1001  1.3562 -1.3093
 5123SOL    HW216269   6.847   3.300   3.852  0.9169 -1.4234  1.5405
 5124SOL     OW16270   3.281   0.055   6.688 -0.3609 -0.2105 -0.5574
 5124SOL    HW116271   3.198   0.108   6.706 -1.6607 -2.0877 -0.7010
 5124SOL    HW216272   3.314   0.016   6.773  0.5404  0.7045 -0.4664
 5125SOL     OW16273   0.598   3.593   2.926  0.1055  0.3958  0.4955
 5125SOL    HW116274   0.567   3.502   2.955 -0.2447  0.4656  0.3429
 5125SOL    HW216275   0.684   3.584   2.876  0.5507  0.2439  1.2685
 5126SOL     OW16276   6.440   5.765   6.283 -0.3505 -0.3501 -0.0762
 5126SOL    HW116277   6.357   5.782   6.336 -0.1793  1.1189 -0.2289
 5126SOL    HW216278   6.437   5.673   6.244 -1.7988 -0.4005  0.1130
 5127SOL     OW16279   6.148   4.517   0.833 -0.4808 -0.3061 -0.0116
 5127SOL    HW116280   6.084   4.575   0.883 -0.7600 -1.2627  0.7754
 5127SOL    HW216281   6.129   4.524   0.735  1.0589  2.7733 -0.2043
 5128SOL     OW16282   1.598   1.825   6.604 -0.1512 -0.0412 -0.9524
 5128SOL    HW116283   1.545   1.805   6.522 -1.4234 -1.9837  0.2499
 5128SOL    HW216284   1.536   1.840   6.681  0.9883  2.2395 -0.3892
 5129SOL     OW16285   4.326   0.735   5.262  0.1810  0.0575 -0.0260
 5129SOL    HW116286   4.381   0.683   5.197 -0.8951 -0.3790 -0.6118
 5129SOL    HW216287   4.315   0.682   5.346  1.4687  0.5702  0.4938
 5130SOL     OW16288   1.198   5.552   3.404 -0.4864  0.3899  0.2301
 5130SOL    HW116289   1.201   5.457   3.433  0.5923  1.1061  2.6799
 5130SOL    HW216290   1.265   5.567   3.331 -0.0734 -0.5426  0.4049
 5131SOL     OW16291   1.656   4.126   3.369 -0.1656  0.0155 -0.3167
 5131SOL    HW116292   1.755   4.137   3.359  0.1718 -1.5801  0.9940
 5131SOL    HW216293   1.627   4.163   3.457 -0.8859  1.1909 -1.0247
 5132SOL     OW16294   3.831   2.869   5.925 -0.2164  0.0320  0.0469
 5132SOL    HW116295   3.789   2.935   5.863  0.7435  0.5004 -0.1188
 5132SOL    HW216296   3.874   2.796   5.871 -1.1130 -0.6463  0.2238
 5133SOL     OW16297   3.852   5.061   5.894 -0.3661  0.5606  0.0586
 5133SOL    HW116298   3.777   5.121   5.867 -0.6249 -0.1551 -0.8569
 5133SOL    HW216299   3.814   4.973   5.924 -0.0174  0.9604  1.7605
 5134SOL     OW16300   0.427   5.778   0.908 -0.1757  0.1963  0.7967
 5134SOL    HW116301   0.370   5.709   0.863  0.5084  0.1352 -0.0095
 5134SOL    HW216302   0.370   5.837   0.965 -1.2933  1.0076 -1.0639
 5135SOL     OW16303   5.846   2.484   3.539  0.1898 -0.0887  0.0744
 5135SOL    HW116304   5.787   2.418   3.492 -2.4648  1.9800  0.2986
 5135SOL    HW216305   5.940   2.450   3.537 -0.7675 -3.0777 -1.1897
 5136SOL     OW16306   0.183   1.190   5.237 -0.1465  0.0647 -0.4636
 5136SOL    HW116307   0.092   1.203   5.197 -0.2220  0.6989 -0.1083
 5136SOL    HW216308   0.196   1.257   5.310 -0.5116 -1.8805  1.4861
 5137SOL     OW16309   5.375   4.408   3.914 -0.7027 -0.5049  1.0312
 5137SOL    HW116310   5.427   4.450   3.989 -0.5313 -0.9493  1.1638
 5137SOL    HW216311   5.370   4.472   3.838 -0.0437 -0.4108  1.0577
 5138SOL     OW16312   3.041   3.138   4.169 -0.0566  0.0316  0.1139
 5138SOL    HW116313   3.054   3.098   4.260 -0.6987  0.4013  0.3774
 5138SOL    HW216314   3.062   3.070   4.099 -0.7708 -0.6532  0.5508
 5139SOL     OW16315   1.837   2.517   5.130 -0.5367  0.3775  0.6114
 5139SOL    HW116316   1.895   2.598   5.139 -1.5569  1.3654 -0.9544
 5139SOL    HW216317   1.893   2.439   5.102  0.5630  0.3452  2.7388
 5140SOL     OW16318   3.940   2.439   5.370  0.5136  0.1054  0.3015
 5140SOL    HW116319   3.884   2.522   5.360  0.8791  0.1267 -1.9995
 5140SOL    HW216320   4.021   2.446   5.311  1.3975 -1.2136  1.3123
 5141SOL     OW16321   6.251   4.218   2.132  0.3552 -0.4352 -0.4067
 5141SOL    HW116322   6.180   4.218   2.203 -3.5061  3.7681 -3.6447
 5141SOL    HW216323   6.311   4.296   2.146  0.4890 -0.4394 -0.9455
 5142SOL     OW16324   5.920   6.459   2.897  0.2130  0.0321  0.0518
 5142SOL    HW116325   5.930   6.555   2.923  1.1913  0.2239 -0.9595
 5142SOL    HW216326   5.832   6.425   2.928 -0.5906  1.5549 -0.4639
 5143SOL     OW16327   0.356   2.958   5.041 -0.1302 -0.3211  0.2867
 5143SOL    HW116328   0.285   3.020   5.008 -0.0409  0.2064  1.0387
 5143SOL    HW216329   0.314   2.882   5.091 -0.2956 -1.3951 -1.4137
 5144SOL     OW16330   2.631   5.000   6.727  0.8371 -0.4929 -0.1401
 5144SOL    HW116331   2.686   5.006   6.644  1.1668  0.7371  0.1399
 5144SOL    HW216332   2.579   5.084   6.738  0.9713 -0.5450  1.0132
 5145SOL     OW16333   3.927   0.382   5.801  0.7538  0.2754 -0.2148
 5145SOL    HW116334   3.944   0.303   5.860  0.8714 -0.6464 -1.4370
 5145SOL    HW216335   3.864   0.445   5.847  0.1119 -0.8637  0.5172
 5146SOL     OW16336   4.309   4.372   5.942 -0.6408  0.1593  0.1921
 5146SOL    HW116337   4.272   4.429   6.015 -1.9413 -0.5193  0.0808
 5146SOL    HW216338   4.298   4.276   5.965  2.3063 -0.1410  0.7612
 5147SOL     OW16339   6.125   2.553   2.622 -0.2307 -0.4327 -0.4019
 5147SOL    HW116340   6.160   2.516   2.537  0.5072 -0.8267  0.0650
 5147SOL    HW216341   6.068   2.484   2.667  1.8043 -1.3781  0.8695
 5148SOL     OW16342   0.683   2.115   2.027 -0.2516 -0.0771  0.0516
 5148SOL    HW116343   0.595   2.160   2.012 -0.3592 -0.8372 -1.8147
 5148SOL    HW216344   0.691   2.036   1.967  1.4829 -0.3531  0.5876
 5149SOL     OW16345   2.794   5.099   4.215 -0.0450  0.0762 -0.7534
 5149SOL    HW116346   2.837   5.137   4.297 -1.8028  3.0568 -1.0546
 5149SOL    HW216347   2.715   5.043   4.241 -1.3832  2.0495 -0.2994
 5150SOL     OW16348   1.995   4.597   0.934 -0.1108 -0.9181  0.1244
 5150SOL    HW116349   1.943   4.633   0.856 -0.8588 -0.8832  0.6314
 5150SOL    HW216350   2.064   4.533   0.900 -0.1727 -0.6088 -0.6032
 5151SOL     OW16351   0.581   5.608   0.462  0.0671  0.3621 -0.5719
 5151SOL    HW116352   0.615   5.680   0.522  0.1880  1.2809 -1.7041
 5151SOL    HW216353   0.617   5.623   0.370 -0.8818 -0.4714 -1.0882
 5152SOL     OW16354   3.463   6.555   5.858 -0.3804  0.0045 -0.4714
 5152SOL    HW116355   3.385   6.534   5.799 -0.7526 -2.1994  0.7139
 5152SOL    HW216356   3.538   6.493   5.838  0.3067  0.6946 -0.1031
 5153SOL     OW16357   1.249   1.469   0.448 -0.2124 -1.0991  0.1329
 5153SOL    HW116358   1.258   1.423   0.536 -1.5215 -2.0510 -0.1863
 5153SOL    HW216359   1.166   1.525   0.448 -0.1464 -0.9913 -0.4311
 5154SOL     OW16360   0.281   3.142   5.720 -0.5832  0.3652  0.4805
 5154SOL    HW116361   0.284   3.197   5.636 -0.1489 -1.4042 -0.7026
 5154SOL    HW216362   0.367   3.092   5.731 -0.4789  0.8621  2.2200
 5155SOL     OW16363   2.732   3.676   1.466 -0.2356 -0.5883 -0.1555
 5155SOL    HW116364   2.650   3.730   1.481  0.4011 -0.0570  1.6102
 5155SOL    HW216365   2.714   3.580   1.490 -0.1313 -0.3119  1.1254
 5156SOL     OW16366   5.865   4.779   6.043  0.4404  0.3979  0.2337
 5156SOL    HW116367   5.795   4.810   6.108  0.4691  1.0079 -0.0284
 5156SOL    HW216368   5.915   4.857   6.006  1.9664 -0.0748  1.1823
 5157SOL     OW16369   4.169   2.078   3.858  0.3212 -0.0543 -0.0438
 5157SOL    HW116370   4.204   2.171   3.850  1.6211 -0.6239 -1.7592
 5157SOL    HW216371   4.245   2.013   3.858 -0.6021 -1.2384 -1.6741
 5158SOL     OW16372   3.246   1.545   2.458  0.2390 -0.0147  0.5100
 5158SOL    HW116373   3.199   1.489   2.527  0.6824 -0.1327  0.7212
 5158SOL    HW216374   3.178   1.593   2.402 -0.1580 -1.1997 -0.0510
 5159SOL     OW16375   5.838   4.232   6.870 -0.0668  0.3117 -0.4292
 5159SOL    HW116376   5.904   4.306   6.853  0.3484 -0.1102 -0.6989
 5159SOL    HW216377   5.874   4.171   6.941 -1.3691  1.5382  1.3693
 5160SOL     OW16378   0.368   6.918   3.019  0.0246  0.4317  0.4366
 5160SOL    HW116379   0.396   6.856   3.093 -0.7724  1.4401  1.6225
 5160SOL    HW216380   0.360   7.011   3.055  1.1841  1.2535 -1.3076
 5161SOL     OW16381   2.422   3.648   0.875  0.1668  0.1988  0.2229
 5161SOL    HW116382   2.456   3.641   0.969 -0.4069  1.6236  0.5718
 5161SOL    HW216383   2.429   3.743   0.845  0.2384 -0.2225 -1.1523
 5162SOL     OW16384   6.127   6.242   1.862 -0.1916 -0.1524 -0.2237
 5162SOL    HW116385   6.194   6.219   1.933 -0.7041 -0.5540  0.1358
 5162SOL    HW216386   6.072   6.320   1.893 -1.5574 -1.3905  0.5842
 5163SOL     OW16387   3.614   6.457   1.734 -0.1107 -0.2259  0.0433
 5163SOL    HW116388   3.700   6.413   1.707  0.0055 -0.4725  0.7824
 5163SOL    HW216389   3.540   6.390   1.732 -0.1448 -0.1902  0.1064
 5164SOL     OW16390   4.445   4.821   0.928  0.6754 -0.0608  0.0066
 5164SOL    HW116391   4.477   4.877   1.004 -0.0913  1.6218 -0.8518
 5164SOL    HW216392   4.345   4.819   0.927  0.6935 -1.6113  0.1138
 5165SOL     OW16393   1.570   4.914   5.485 -0.2331  0.3590 -0.3884
 5165SOL    HW116394   1.556   4.979   5.410 -2.3710 -1.0153 -1.2726
 5165SOL    HW216395   1.607   4.963   5.565 -1.0016  2.4948 -1.2684
 5166SOL     OW16396   0.269   6.414   1.782  0.4093 -0.5100  0.9053
 5166SOL    HW116397   0.211   6.386   1.705  1.6764 -0.1297 -0.2420
 5166SOL    HW216398   0.347   6.466   1.747  1.2085 -0.6280  2.4348
 5167SOL     OW16399   5.138   0.950   4.734 -0.0033 -0.3321  0.1530
 5167SOL    HW116400   5.160   0.854   4.718  1.7791  0.2110 -0.9348
 5167SOL    HW216401   5.183   1.006   4.665 -1.3063  1.2714  0.5595
 5168SOL     OW16402   4.984   0.820   2.163 -0.2901  0.1945  0.4173
 5168SOL    HW116403   4.887   0.842   2.160 -0.2269  0.4005 -0.1896
 5168SOL    HW216404   4.997   0.723   2.145 -0.5236 -0.2761  2.4935
 5169SOL     OW16405   3.827   0.751   3.323 -0.4513 -0.5383 -0.5298
 5169SOL    HW116406   3.913   0.704   3.304  0.2812  0.2784  0.6434
 5169SOL    HW216407   3.830   0.789   3.416 -1.2076  1.4155 -1.2615
 5170SOL     OW16408   2.768   5.262   6.620  0.4141 -0.2927 -0.3517
 5170SOL    HW116409   2.831   5.213   6.560  0.3421 -0.4791 -0.2789
 5170SOL    HW216410   2.808   5.269   6.712 -0.3516 -1.8761  0.1426
 5171SOL     OW16411   1.027   5.235   6.912  0.4626  0.3321  0.1350
 5171SOL    HW116412   0.999   5.291   6.990  0.3453  0.3406  0.0870
 5171SOL    HW216413   1.076   5.155   6.945  1.8502  1.1576  0.1412
 5172SOL     OW16414   0.591   5.395   4.620  0.1404 -0.6039 -0.3666
 5172SOL    HW116415   0.606   5.406   4.522 -0.8776  1.1305 -0.3624
 5172SOL    HW216416   0.509   5.339   4.635 -0.2853 -0.0451 -0.5456
 5173SOL     OW16417   4.780   2.064   5.726  0.2888 -0.0955  0.2792
 5173SOL    HW116418   4.727   2.035   5.806 -0.6791  0.3417 -0.1915
 5173SOL    HW216419   4.801   1.985   5.669 -0.7204 -0.1478 -0.0371
 5174SOL     OW16420   2.180   6.653   3.498 -0.3549  0.2907  0.4520
 5174SOL    HW116421   2.127   6.599   3.563  1.8993 -2.9910 -0.1586
 5174SOL    HW216422   2.263   6.687   3.541 -0.4652  0.9954  0.1260
 5175SOL     OW16423   3.925   4.262   6.697 -0.1253 -0.3705  0.3906
 5175SOL    HW116424   3.858   4.257   6.623  0.1051  0.2979  0.1210
 5175SOL    HW216425   3.879   4.284   6.783 -0.5228 -2.1382  0.6606
 5176SOL     OW16426   6.189   5.099   6.648  0.1169 -0.1889  0.2449
 5176SOL    HW116427   6.177   5.194   6.617 -0.6074  0.0563  1.2190
 5176SOL    HW216428   6.285   5.082   6.666  0.0818  0.8940  1.6228
 5177SOL     OW16429   5.118   7.019   4.000  0.1661 -0.2014 -0.8580
 5177SOL    HW116430   5.161   6.966   3.926  0.0013 -0.0568 -1.0591
 5177SOL    HW216431   5.050   7.081   3.961 -0.1275 -0.3295 -0.5542
 5178SOL     OW16432   1.505   4.645   0.638  0.0024 -0.0974 -0.5110
 5178SOL    HW116433   1.545   4.713   0.576 -0.3652 -0.6537 -1.3751
 5178SOL    HW216434   1.418   4.614   0.600  0.1894 -1.0852 -0.1418
 5179SOL     OW16435   0.196   3.568   1.437  0.5406  0.1083  0.2461
 5179SOL    HW116436   0.171   3.645   1.496  1.2691 -0.1046  0.8367
 5179SOL    HW216437   0.158   3.484   1.476 -0.5744  0.1980 -0.5961
 5180SOL     OW16438   2.902   6.809   5.917  0.0442 -0.4327  0.2964
 5180SOL    HW116439   2.809   6.844   5.925 -0.9260 -2.1735 -2.0897
 5180SOL    HW216440   2.967   6.884   5.926 -1.5342  0.7507  2.4437
 5181SOL     OW16441   0.636   0.009   5.732  0.1375  0.2512 -0.2333
 5181SOL    HW116442   0.732  -0.000   5.759  0.6910  0.2587 -2.0587
 5181SOL    HW216443   0.589   0.069   5.795  1.4274  0.5227  0.4944
 5182SOL     OW16444   2.486   5.343   2.745 -0.1187  0.1551 -0.1058
 5182SOL    HW116445   2.495   5.245   2.728 -1.2437 -0.5005  2.5553
 5182SOL    HW216446   2.453   5.388   2.662 -2.2175 -2.1705 -0.6596
 5183SOL     OW16447   5.176   2.549   2.675  0.0293 -0.0358  0.4637
 5183SOL    HW116448   5.210   2.459   2.703 -1.5034 -0.3683  1.3953
 5183SOL    HW216449   5.253   2.609   2.653  1.1864 -0.8195  2.1697
 5184SOL     OW16450   1.664   3.249   3.721  0.2055  0.2859 -0.2350
 5184SOL    HW116451   1.660   3.154   3.692 -0.6296 -0.3533  1.8113
 5184SOL    HW216452   1.578   3.275   3.764  0.8959  1.5462  0.4513
 5185SOL     OW16453   6.946   2.308   2.114  0.2192  0.2381  0.2298
 5185SOL    HW116454   6.925   2.344   2.023 -0.9904 -0.2907  0.2702
 5185SOL    HW216455   7.040   2.331   2.139  0.6522  0.1758 -1.2478
 5186SOL     OW16456   0.099   3.619   6.097 -0.1262  0.3131 -0.2104
 5186SOL    HW116457   0.120   3.691   6.163  3.0040 -0.6271  0.0170
 5186SOL    HW216458   0.069   3.537   6.146  0.7164  0.0976 -0.0260
 5187SOL     OW16459   2.685   4.857   5.872  0.3317 -0.2675  0.4397
 5187SOL    HW116460   2.657   4.942   5.827 -0.0086  0.3676  1.8104
 5187SOL    HW216461   2.632   4.781   5.836  0.8147  0.0339 -0.9899
 5188SOL     OW16462   6.171   0.688   6.793  0.2472 -0.1463 -0.1369
 5188SOL    HW116463   6.125   0.727   6.713  0.9656 -0.4161 -0.6942
 5188SOL    HW216464   6.186   0.760   6.861 -0.5922  0.0334 -0.1246
 5189SOL     OW16465   5.940   6.720   6.620 -0.0212  0.0134  0.3602
 5189SOL    HW116466   5.966   6.624   6.622  0.4266  0.1236 -0.0771
 5189SOL    HW216467   5.854   6.733   6.670 -2.0516 -1.1935 -2.5404
 5190SOL     OW16468   2.192   4.307   2.208  0.6656 -0.2928 -0.5851
 5190SOL    HW116469   2.164   4.216   2.240 -3.2718  0.8027 -0.3477
 5190SOL    HW216470   2.248   4.350   2.278  1.2203 -1.9197  0.0272
 5191SOL     OW16471   2.753   4.835   1.808  0.0411  0.5451 -0.1207
 5191SOL    HW116472   2.682   4.832   1.738 -0.7807  0.8415  0.6862
 5191SOL    HW216473   2.755   4.749   1.858 -0.2802  0.8153  0.3646
 5192SOL     OW16474   3.256   5.693   2.038  0.1873 -0.0738 -0.1862
 5192SOL    HW116475   3.176   5.721   2.091 -0.3997 -1.6909 -0.1715
 5192SOL    HW216476   3.313   5.633   2.094  1.3570  0.9325 -0.2491
 5193SOL     OW16477   5.823   0.689   0.422  0.2381  0.3551  0.1542
 5193SOL    HW116478   5.828   0.642   0.334  2.4777  1.5723 -0.4339
 5193SOL    HW216479   5.859   0.629   0.494 -0.4694 -0.1841  0.0810
 5194SOL     OW16480   2.669   2.352   0.067 -0.0129 -0.1245 -0.0738
 5194SOL    HW116481   2.739   2.408   0.023 -0.3203 -0.0626 -0.4909
 5194SOL    HW216482   2.711   2.293   0.135  0.7173 -1.4288 -1.6080
 5195SOL     OW16483   2.539   6.604   2.168  0.4291  0.3283  0.1434
 5195SOL    HW116484   2.620   6.565   2.212  0.8566 -0.6399 -1.4091
 5195SOL    HW216485   2.522   6.696   2.204  1.6129  0.1422  1.2270
 5196SOL     OW16486   0.471   1.622   1.545  0.0452 -0.2454  0.6519
 5196SOL    HW116487   0.467   1.581   1.636 -2.3884 -0.9736  0.2671
 5196SOL    HW216488   0.465   1.721   1.553  1.3265 -0.1884  1.3154
 5197SOL     OW16489   0.830   5.505   5.825 -0.5369 -0.0452 -0.4473
 5197SOL    HW116490   0.759   5.575   5.817 -0.6495 -0.1623 -0.4781
 5197SOL    HW216491   0.907   5.528   5.766 -0.3919  0.2714 -0.1382
 5198SOL     OW16492   4.049   5.684   3.197  0.0014  0.4630  0.1853
 5198SOL    HW116493   4.014   5.730   3.278 -0.2864  0.9958 -0.2346
 5198SOL    HW216494   4.053   5.748   3.121 -0.2667 -0.1708 -0.3743
 5199SOL     OW16495   6.385   3.433   0.292  0.0770 -0.0261  0.1157
 5199SOL    HW116496   6.295   3.401   0.263  0.8466 -1.7555 -0.5106
 5199SOL    HW216497   6.438   3.460   0.212  0.5137 -0.1420  0.3610
 5200SOL     OW16498   5.998   3.169   4.110 -0.1648 -0.9337  0.7214
 5200SOL    HW116499   5.949   3.100   4.056  1.0216 -1.3269  0.1172
 5200SOL    HW216500   5.956   3.258   4.095  0.5985 -0.8992 -1.4797
 5201SOL     OW16501   1.503   6.173   3.678  0.3807  0.1003  0.0834
 5201SOL    HW116502   1.557   6.103   3.726 -0.2076 -0.3260  0.1292
 5201SOL    HW216503   1.455   6.229   3.745 -1.4076 -1.2563  0.0115
 5202SOL     OW16504   4.870   2.226   0.163  0.4766 -0.3143  0.2698
 5202SOL    HW116505   4.885   2.319   0.128  1.6363 -0.2170  0.9407
 5202SOL    HW216506   4.806   2.230   0.240 -0.9066 -0.3364 -0.8361
 5203SOL     OW16507   2.395   4.264   1.040 -0.4721 -0.0479 -0.0524
 5203SOL    HW116508   2.347   4.234   0.957  0.7405  0.3087 -0.9257
 5203SOL    HW216509   2.449   4.345   1.019  1.2881 -0.9944  0.5889
 5204SOL     OW16510   4.451   3.795   1.031  0.0317 -0.0218 -0.2011
 5204SOL    HW116511   4.385   3.745   1.087 -1.3834  0.0124 -1.7442
 5204SOL    HW216512   4.526   3.828   1.088 -1.8759  0.9849  1.8672
 5205SOL     OW16513   1.246   1.167   2.245 -1.0696 -0.1484  0.1167
 5205SOL    HW116514   1.272   1.252   2.290 -1.0380  0.5239 -1.1206
 5205SOL    HW216515   1.160   1.133   2.284 -0.2147 -0.5007  1.8022
 5206SOL     OW16516   5.383   2.651   5.363  0.1291  0.2085  0.3033
 5206SOL    HW116517   5.450   2.589   5.324  1.0016  1.2039  0.1688
 5206SOL    HW216518   5.299   2.649   5.307 -0.6717 -2.3422  1.4641
 5207SOL     OW16519   0.598   6.394   4.604  0.3889 -0.0463 -0.5093
 5207SOL    HW116520   0.670   6.359   4.662 -0.5199  0.5446  1.0373
 5207SOL    HW216521   0.539   6.319   4.574 -0.6761 -0.0936  1.5441
 5208SOL     OW16522   2.558   0.476   0.827  0.0644 -0.1361  0.5500
 5208SOL    HW116523   2.503   0.537   0.769  1.2387 -0.3617 -0.8657
 5208SOL    HW216524   2.650   0.468   0.788  0.8336 -0.4878  2.3592
 5209SOL     OW16525   4.882   5.667   2.962  0.6387 -0.0063  0.1644
 5209SOL    HW116526   4.915   5.642   2.871  0.4262  0.3221 -0.0029
 5209SOL    HW216527   4.913   5.598   3.028 -0.3136 -0.9782 -0.3588
 5210SOL     OW16528   5.039   1.384   5.189 -0.2761 -0.5554  0.0275
 5210SOL    HW116529   4.946   1.419   5.203  0.4283  0.9226  1.3063
 5210SOL    HW216530   5.094   1.402   5.270  1.3746 -0.6151 -1.0247
 5211SOL     OW16531   2.918   3.782   2.745  0.0297  0.0335  0.0459
 5211SOL    HW116532   2.855   3.808   2.819 -0.4738 -1.4653  0.1834
 5211SOL    HW216533   3.001   3.839   2.750 -0.8278  1.2963  0.5331
 5212SOL     OW16534   0.429   3.345   6.824  0.1593  0.4169 -0.0932
 5212SOL    HW116535   0.447   3.249   6.845  0.3475  0.4849  0.0513
 5212SOL    HW216536   0.350   3.376   6.878  0.2543  0.4148  0.0472
 5213SOL     OW16537   4.223   5.245   6.644 -0.1320 -0.5013 -0.5272
 5213SOL    HW116538   4.279   5.225   6.725 -1.3690 -1.9893  0.0040
 5213SOL    HW216539   4.267   5.208   6.563  0.5240 -0.0633 -0.3840
 5214SOL     OW16540   4.204   1.862   5.624  0.1430  0.2300 -0.3215
 5214SOL    HW116541   4.303   1.852   5.629  0.1371 -0.1528 -0.9269
 5214SOL    HW216542   4.165   1.848   5.715  0.7185  1.3666  0.1242
 5215SOL     OW16543   5.134   4.814   3.178  0.0256 -0.2238  0.0032
 5215SOL    HW116544   5.072   4.850   3.107 -0.5164  1.2554  1.1751
 5215SOL    HW216545   5.153   4.718   3.159  2.4004  0.7921 -3.9147
 5216SOL     OW16546   4.429   5.349   0.996 -0.8594  0.3865  0.0206
 5216SOL    HW116547   4.518   5.306   0.978 -0.1152  2.8129 -2.8642
 5216SOL    HW216548   4.359   5.303   0.941 -0.6774  0.7575 -0.5322
 5217SOL     OW16549   4.146   5.008   3.917 -0.2546 -0.4570  0.3542
 5217SOL    HW116550   4.187   4.925   3.953  1.9089  1.0963  1.7142
 5217SOL    HW216551   4.210   5.053   3.854 -1.1316  0.5002  0.1040
 5218SOL     OW16552   0.690   6.977   4.653  0.6824 -0.3895  0.4023
 5218SOL    HW116553   0.744   7.053   4.689 -1.5850  2.2099 -1.3164
 5218SOL    HW216554   0.731   6.944   4.568  0.1382  0.9547 -0.4114
 5219SOL     OW16555   3.309   0.914   6.308 -0.3770 -0.1520 -0.1528
 5219SOL    HW116556   3.314   0.922   6.208  1.6384  0.5378 -0.0274
 5219SOL    HW216557   3.265   0.995   6.345  1.9896  1.2835 -0.2953
 5220SOL     OW16558   1.938   5.132   0.535 -0.3358 -0.1568  0.3722
 5220SOL    HW116559   1.865   5.171   0.591 -1.1232  0.1398 -0.7990
 5220SOL    HW216560   2.020   5.189   0.541 -0.8308  0.5905  0.2295
 5221SOL     OW16561   4.819   0.863   4.672 -0.6586 -0.0664  0.4198
 5221SOL    HW116562   4.823   0.946   4.616  0.6471 -0.4452 -0.0896
 5221SOL    HW216563   4.908   0.818   4.670 -0.4524  0.0884  3.1280
 5222SOL     OW16564   1.116   0.877   5.818  0.3360 -0.7026 -0.1629
 5222SOL    HW116565   1.119   0.812   5.741  2.9531 -0.3992 -0.4035
 5222SOL    HW216566   1.157   0.964   5.789 -1.6452  0.5612  0.6479
 5223SOL     OW16567   4.808   6.326   0.533  0.2583  0.4946  0.0749
 5223SOL    HW116568   4.734   6.320   0.600 -2.0203  1.2328 -2.2545
 5223SOL    HW216569   4.836   6.234   0.506  1.0323  0.1917  1.7802
 5224SOL     OW16570   6.520   4.663   1.893 -0.5872 -0.3536  0.4034
 5224SOL    HW116571   6.473   4.603   1.957 -0.9375  1.0221  1.4844
 5224SOL    HW216572   6.561   4.608   1.820 -2.8266 -1.6912  0.0628
 5225SOL     OW16573   0.613   6.765   3.385 -0.1898  0.3368 -0.0537
 5225SOL    HW116574   0.655   6.680   3.417  1.6525  0.6458 -1.4569
 5225SOL    HW216575   0.638   6.840   3.446  0.8089  0.4020 -0.5250
 5226SOL     OW16576   2.111   5.572   0.155  0.1482  0.3747 -0.2374
 5226SOL    HW116577   2.090   5.633   0.232 -0.2839 -0.2062  0.1102
 5226SOL    HW216578   2.061   5.603   0.074 -0.6822  0.0422  0.1348
 5227SOL     OW16579   6.679   5.439   3.257 -0.1520 -0.3314 -0.1621
 5227SOL    HW116580   6.593   5.481   3.288  0.7267 -0.1738  2.1936
 5227SOL    HW216581   6.664   5.342   3.242 -1.1794  0.0138 -1.6336
 5228SOL     OW16582   4.901   6.879   0.436  0.1438  0.1536 -0.8650
 5228SOL    HW116583   4.879   6.817   0.511  0.7540  2.0452  0.9730
 5228SOL    HW216584   4.950   6.829   0.365 -1.4727 -1.9551 -0.5885
 5229SOL     OW16585   1.202   5.366   0.220  0.3360 -0.0568  0.5992
 5229SOL    HW116586   1.106   5.380   0.193  0.1876  0.3018  1.2963
 5229SOL    HW216587   1.255   5.448   0.197  0.6475 -0.5444 -0.4921
 5230SOL     OW16588   6.198   1.928   6.439  0.0842 -0.0406  0.2973
 5230SOL    HW116589   6.117   1.870   6.438 -0.8931  1.2792 -0.0973
 5230SOL    HW216590   6.277   1.876   6.406 -0.3721 -1.6206  1.5634
 5231SOL     OW16591   3.305   3.473   3.808 -0.2879 -0.4718  0.0362
 5231SOL    HW116592   3.288   3.425   3.894 -2.1127  0.3533  0.1715
 5231SOL    HW216593   3.299   3.572   3.823 -1.8864 -0.3428 -1.2569
 5232SOL     OW16594   2.211   0.607   6.889  0.1865 -0.1820 -0.2410
 5232SOL    HW116595   2.276   0.680   6.870  0.8866 -0.9008 -0.6557
 5232SOL    HW216596   2.178   0.568   6.803 -0.6714  0.0569 -0.0309
 5233SOL     OW16597   4.501   5.094   2.410  0.1608  0.1919  0.1116
 5233SOL    HW116598   4.460   5.011   2.374  0.6169  0.2755 -0.6492
 5233SOL    HW216599   4.520   5.157   2.334 -2.5783  2.1286  0.8619
 5234SOL     OW16600   1.790   2.201   0.211 -0.1605 -0.2563  0.5798
 5234SOL    HW116601   1.880   2.243   0.220 -0.3598  0.5116 -0.8118
 5234SOL    HW216602   1.773   2.142   0.290  2.6083 -2.4655 -0.2939
 5235SOL     OW16603   1.895   2.721   2.343  0.2091  0.1063 -0.1017
 5235SOL    HW116604   1.917   2.638   2.294  1.0470 -0.6604  1.5042
 5235SOL    HW216605   1.975   2.780   2.348 -0.5024  1.2723 -1.6437
 5236SOL     OW16606   5.005   2.173   1.949 -0.4179 -0.7159  0.7027
 5236SOL    HW116607   5.043   2.092   1.905  0.8002  0.5627 -0.7073
 5236SOL    HW216608   4.905   2.168   1.949 -0.3526 -2.3862  1.0280
 5237SOL     OW16609   2.524   0.533   5.259  0.6449  1.0978  0.3322
 5237SOL    HW116610   2.595   0.507   5.324  1.2001  0.8955 -0.3435
 5237SOL    HW216611   2.466   0.604   5.299  0.6951  0.6531  1.2134
 5238SOL     OW16612   3.079   6.134   5.926  0.0952 -0.1661 -0.0624
 5238SOL    HW116613   3.068   6.219   5.977 -1.0743  0.1118 -0.7212
 5238SOL    HW216614   3.053   6.150   5.830  1.1537 -0.9451 -0.4893
 5239SOL     OW16615   3.996   3.079   4.745  0.6523  0.3465  0.0711
 5239SOL    HW116616   3.998   3.169   4.789 -2.2194  0.2578  0.5928
 5239SOL    HW216617   4.008   3.008   4.815 -1.0254  0.2784  0.3298
 5240SOL     OW16618   1.871   2.259   3.414  0.6438  0.4323 -0.3051
 5240SOL    HW116619   1.952   2.225   3.366  1.2532  2.4170 -0.7786
 5240SOL    HW216620   1.841   2.192   3.482  0.5915 -1.8830 -2.4599
 5241SOL     OW16621   6.657   6.443   5.580 -0.3598  0.0237  0.6589
 5241SOL    HW116622   6.658   6.504   5.501 -1.1943  1.1517  1.4777
 5241SOL    HW216623   6.728   6.471   5.645  0.7271 -1.2697  0.0703
 5242SOL     OW16624   0.585   0.425   5.726  0.1191  0.3241  0.9352
 5242SOL    HW116625   0.525   0.357   5.768  0.6694  0.2454  1.5896
 5242SOL    HW216626   0.529   0.487   5.670 -0.4063 -0.5401  0.4844
 5243SOL     OW16627   0.925   5.546   0.447 -0.4866 -0.1125 -0.0171
 5243SOL    HW116628   0.907   5.641   0.470 -0.5606 -0.0530 -0.3120
 5243SOL    HW216629   0.877   5.522   0.362 -1.1549 -0.6540  0.4943
 5244SOL     OW16630   2.112   4.393   5.274 -0.3385  0.0659 -0.1975
 5244SOL    HW116631   2.089   4.476   5.324 -3.3751 -0.0716 -1.1954
 5244SOL    HW216632   2.200   4.405   5.227  0.4001  1.8074  1.4940
 5245SOL     OW16633   4.156   1.957   6.266  0.0085 -0.2711  0.4744
 5245SOL    HW116634   4.228   2.007   6.217  1.3581 -1.4614  1.1447
 5245SOL    HW216635   4.093   2.022   6.307 -1.1904  0.7895 -2.7325
 5246SOL     OW16636   6.715   4.091   1.243 -0.0631  0.4329 -0.3454
 5246SOL    HW116637   6.707   4.022   1.170  2.2897 -0.9361  0.5620
 5246SOL    HW216638   6.708   4.045   1.332  0.4815  1.5498  0.2846
 5247SOL     OW16639   1.266   0.417   6.274  0.2502  0.5225 -0.2674
 5247SOL    HW116640   1.355   0.408   6.229  0.8603  0.1111  0.9622
 5247SOL    HW216641   1.215   0.332   6.264  0.5294  0.3076  0.0934
 5248SOL     OW16642   5.971   0.633   0.129 -0.5237  0.4528  0.6695
 5248SOL    HW116643   6.053   0.683   0.158  0.4479 -0.1136 -0.9719
 5248SOL    HW216644   5.927   0.683   0.055  0.3537 -0.9357 -0.8659
 5249SOL     OW16645   1.441   5.752   5.834 -0.5804 -0.4641  0.1878
 5249SOL    HW116646   1.446   5.832   5.893  1.0873 -0.9299  0.7185
 5249SOL    HW216647   1.515   5.689   5.855  0.2658 -0.5415 -2.5481
 5250SOL     OW16648   6.764   3.157   0.087 -0.5234  0.4886 -0.1573
 5250SOL    HW116649   6.690   3.163   0.154 -1.6199  1.3105 -1.3847
 5250SOL    HW216650   6.752   3.075   0.031  0.6519 -0.4412  0.9342
 5251SOL     OW16651   0.729   3.722   1.051  0.0916 -0.2275 -0.0811
 5251SOL    HW116652   0.722   3.821   1.063  4.0156  0.0944  0.7715
 5251SOL    HW216653   0.723   3.676   1.140  1.1348 -0.4564 -0.1155
 5252SOL     OW16654   2.619   6.134   1.775  0.2617  0.3801 -0.6062
 5252SOL    HW116655   2.652   6.216   1.726 -0.6142  0.5729 -0.8950
 5252SOL    HW216656   2.671   6.122   1.859  1.4637  0.3363 -1.3275
 5253SOL     OW16657   5.142   3.863   3.502 -0.4135 -0.4108  0.4735
 5253SOL    HW116658   5.158   3.918   3.584 -1.9360 -1.8267  1.8068
 5253SOL    HW216659   5.195   3.778   3.508  0.2431 -0.0935 -0.5264
 5254SOL     OW16660   5.269   1.122   3.771 -0.4395  0.2084  0.1049
 5254SOL    HW116661   5.258   1.182   3.692 -0.8982  1.3864  1.0484
 5254SOL    HW216662   5.342   1.156   3.829 -0.0135 -0.7312  0.1446
 5255SOL     OW16663   3.935   0.084   3.426  0.1056 -0.4389  0.6057
 5255SOL    HW116664   4.001   0.156   3.447 -0.1328 -0.4977  1.6283
 5255SOL    HW216665   3.949   0.008   3.489 -0.4373 -0.7777  0.3189
 5256SOL     OW16666   6.362   5.896   2.461 -0.7685  0.5300 -0.2746
 5256SOL    HW116667   6.443   5.841   2.439 -0.1185  1.1558  0.4902
 5256SOL    HW216668   6.355   5.971   2.395 -0.2914  0.9067  0.0931
 5257SOL     OW16669   3.983   4.935   1.898 -0.5503 -0.5612 -0.0606
 5257SOL    HW116670   4.075   4.918   1.933 -0.7693  0.1881  0.9412
 5257SOL    HW216671   3.930   4.985   1.967 -1.5734 -0.5969 -0.7936
 5258SOL     OW16672   5.581   2.012   2.746  0.2972 -0.1375  0.1465
 5258SOL    HW116673   5.642   2.066   2.688 -1.0488  0.8719 -0.3893
 5258SOL    HW216674   5.562   2.063   2.830 -0.4861 -0.0280 -0.0868
 5259SOL     OW16675   5.229   5.957   1.102  0.4433  0.2354  0.0961
 5259SOL    HW116676   5.288   5.943   1.181  3.0807 -1.0745 -1.9367
 5259SOL    HW216677   5.248   6.046   1.062  1.9549 -0.5902 -1.1543
 5260SOL     OW16678   3.468   3.650   6.905  0.2730 -0.1708  0.0269
 5260SOL    HW116679   3.434   3.709   6.978 -1.5795 -0.9243 -0.1433
 5260SOL    HW216680   3.393   3.629   6.841  1.3144 -1.2197 -0.9208
 5261SOL     OW16681   6.981   2.893   3.811  0.8232 -0.1345 -0.1453
 5261SOL    HW116682   6.925   2.953   3.868  0.5433 -0.6488  0.1257
 5261SOL    HW216683   7.052   2.850   3.866  0.9391 -0.1559 -0.3097
 5262SOL     OW16684   3.890   0.398   1.992  0.0370 -0.3678 -0.3793
 5262SOL    HW116685   3.849   0.322   1.942 -0.5702  0.1138 -0.6060
 5262SOL    HW216686   3.928   0.464   1.928  0.7779 -0.5785 -0.1791
 5263SOL     OW16687   1.234   1.273   5.913 -0.4470 -0.3719 -0.3693
 5263SOL    HW116688   1.135   1.269   5.927 -0.4934  3.7075  2.0534
 5263SOL    HW216689   1.281   1.228   5.989 -0.4181 -1.3271 -0.9420
 5264SOL     OW16690   5.941   0.342   2.442 -0.2452  0.1765 -0.5608
 5264SOL    HW116691   5.881   0.375   2.515 -0.3727 -1.2703  0.0178
 5264SOL    HW216692   5.949   0.412   2.371  1.1980  2.3475  1.5631
 5265SOL     OW16693   5.120   5.140   1.890 -0.3073  0.1742  0.2540
 5265SOL    HW116694   5.030   5.132   1.932 -0.3311 -1.1561 -0.0057
 5265SOL    HW216695   5.142   5.055   1.843 -0.2149  1.5167 -2.3044
 5266SOL     OW16696   2.774   5.811   2.156 -0.5366 -0.3229 -0.2834
 5266SOL    HW116697   2.775   5.823   2.255 -2.7480  0.6627 -0.3158
 5266SOL    HW216698   2.699   5.749   2.130 -1.6322  1.3846 -1.4394
 5267SOL     OW16699   3.660   5.473   4.644 -0.2868 -0.3256  0.0017
 5267SOL    HW116700   3.617   5.491   4.555 -0.5519  0.3080  0.2521
 5267SOL    HW216701   3.728   5.401   4.634  1.7422  1.6315 -1.3409
 5268SOL     OW16702   6.170   6.138   3.882 -0.0141  0.1806  0.2790
 5268SOL    HW116703   6.200   6.179   3.796  0.1301  1.0546  0.7363
 5268SOL    HW216704   6.072   6.118   3.877  0.1139 -0.3303 -0.3000
 5269SOL     OW16705   2.923   0.558   4.176 -0.3706 -0.4690 -0.2974
 5269SOL    HW116706   2.969   0.596   4.096  0.3755 -1.9969 -0.6453
 5269SOL    HW216707   2.964   0.469   4.199 -2.5487 -1.4942 -0.0667
 5270SOL     OW16708   4.886   1.070   6.319 -0.3235  0.2993  0.4465
 5270SOL    HW116709   4.912   0.974   6.310 -0.1246  0.3423  0.5623
 5270SOL    HW216710   4.803   1.087   6.265 -0.5303 -0.0038  0.6607
 5271SOL     OW16711   3.969   4.929   4.869 -0.2313 -0.8040 -0.1448
 5271SOL    HW116712   4.037   4.862   4.837 -1.3496 -1.7883 -0.5660
 5271SOL    HW216713   3.915   4.960   4.791 -0.0465  0.2374  0.1305
 5272SOL     OW16714   1.186   6.750   2.989  0.5957 -0.1952  0.0917
 5272SOL    HW116715   1.183   6.720   3.084  0.9502  2.2316  0.9437
 5272SOL    HW216716   1.232   6.680   2.933  1.7541 -1.0106  1.9599
 5273SOL     OW16717   1.763   6.315   3.573 -0.1505  0.8396  0.4078
 5273SOL    HW116718   1.787   6.254   3.648  0.3174 -1.1366 -1.2590
 5273SOL    HW216719   1.669   6.348   3.585 -0.0415  0.6687  1.8933
 5274SOL     OW16720   5.963   4.468   2.263 -0.0245  0.0083 -0.7522
 5274SOL    HW116721   6.050   4.439   2.305  0.3710 -0.6484 -1.9735
 5274SOL    HW216722   5.887   4.434   2.318  0.4754 -0.7047 -0.4788
 5275SOL     OW16723   5.508   0.511   5.712 -0.1966  0.0213  0.0684
 5275SOL    HW116724   5.560   0.518   5.798 -0.3951  2.4017  0.0846
 5275SOL    HW216725   5.418   0.552   5.725 -0.0984  0.7367 -1.3502
 5276SOL     OW16726   1.923   6.248   6.821 -0.2118 -0.0056 -0.8473
 5276SOL    HW116727   1.953   6.155   6.844 -1.1038 -0.2487 -0.6311
 5276SOL    HW216728   1.872   6.246   6.735 -0.4401  0.2454 -0.7191
 5277SOL     OW16729   3.312   1.840   3.803  0.1671  0.1025  0.3633
 5277SOL    HW116730   3.304   1.940   3.801  0.2853  0.1068  0.0577
 5277SOL    HW216731   3.409   1.814   3.800  0.1061 -0.0544 -1.6731
 5278SOL     OW16732   5.352   5.887   5.296  0.3850 -0.0665 -0.0440
 5278SOL    HW116733   5.291   5.899   5.375 -0.0025 -1.7675 -0.0418
 5278SOL    HW216734   5.447   5.897   5.326  0.3715 -2.5361  1.1367
 5279SOL     OW16735   2.131   5.125   5.385  0.2595 -0.4302 -0.1428
 5279SOL    HW116736   2.126   5.211   5.437  1.9846  0.0907 -0.7978
 5279SOL    HW216737   2.225   5.107   5.359 -0.2904 -1.7596 -1.3299
 5280SOL     OW16738   4.593   5.366   5.204  0.3940 -0.0384  0.5099
 5280SOL    HW116739   4.502   5.331   5.228 -0.6443  1.2141 -1.3440
 5280SOL    HW216740   4.662   5.297   5.225 -1.2894 -2.1852 -0.6866
 5281SOL     OW16741   0.833   2.441   2.490  0.0034  0.5828 -0.2898
 5281SOL    HW116742   0.756   2.386   2.521 -0.4038  0.8321 -0.8604
 5281SOL    HW216743   0.807   2.495   2.411  0.1566  2.1958  0.7022
 5282SOL     OW16744   1.165   0.738   2.400 -0.3508  0.2813 -0.6999
 5282SOL    HW116745   1.149   0.651   2.445  0.8456  0.5845  0.3596
 5282SOL    HW216746   1.093   0.754   2.332  0.0463 -2.0634 -1.7765
 5283SOL     OW16747   1.533   5.357   2.323  0.2254 -0.1388  0.5457
 5283SOL    HW116748   1.560   5.316   2.410  3.3360  2.1786  0.8640
 5283SOL    HW216749   1.593   5.323   2.251  1.8611  2.4186  0.5500
 5284SOL     OW16750   6.532   1.112   3.523  0.2613 -0.3979 -0.4411
 5284SOL    HW116751   6.455   1.053   3.500  0.3009 -0.7353  0.2548
 5284SOL    HW216752   6.617   1.060   3.517  0.7619  0.5373 -3.5295
 5285SOL     OW16753   0.462   3.777   5.952 -0.1927 -0.0764  0.0305
 5285SOL    HW116754   0.536   3.813   5.895 -1.5525 -0.7596 -2.3301
 5285SOL    HW216755   0.396   3.849   5.972 -0.3281 -0.0978 -0.3286
 5286SOL     OW16756   0.984   3.867   0.510  0.0772  0.0760  0.1729
 5286SOL    HW116757   1.027   3.777   0.500  1.7079  0.8559 -0.1413
 5286SOL    HW216758   0.888   3.855   0.537  0.2161 -1.7461  0.0012
 5287SOL     OW16759   1.443   4.132   0.286  0.8528  0.7329  0.5359
 5287SOL    HW116760   1.400   4.185   0.359  2.3293  1.6791  0.7551
 5287SOL    HW216761   1.467   4.192   0.210  0.3578 -0.0555 -0.2640
 5288SOL     OW16762   5.785   0.648   1.598  0.2619  0.2773  0.5428
 5288SOL    HW116763   5.763   0.558   1.561  2.7457  0.2481 -1.0383
 5288SOL    HW216764   5.734   0.718   1.548 -1.3053 -0.1331  1.4614
 5289SOL     OW16765   2.161   0.298   1.686 -0.5852  0.2042 -0.6610
 5289SOL    HW116766   2.220   0.249   1.750 -0.7219  1.1964  0.2477
 5289SOL    HW216767   2.128   0.235   1.616  0.8529 -0.5481 -0.6884
 5290SOL     OW16768   1.600   4.144   4.202  0.6068  0.5596  0.1751
 5290SOL    HW116769   1.629   4.085   4.127  2.2409  0.1431  1.0820
 5290SOL    HW216770   1.524   4.202   4.172  1.1192  0.3074 -1.7331
 5291SOL     OW16771   2.247   2.600   5.968 -0.4586 -0.1303 -0.4089
 5291SOL    HW116772   2.212   2.687   5.932 -1.4979 -0.8734 -1.2313
 5291SOL    HW216773   2.171   2.539   5.989  0.2746 -0.9629 -0.1119
 5292SOL     OW16774   4.769   5.728   6.150  0.2438  0.2282 -0.6262
 5292SOL    HW116775   4.735   5.648   6.099 -0.5587 -0.9079  1.5619
 5292SOL    HW216776   4.753   5.811   6.097 -1.7623 -0.7614 -1.6633
 5293SOL     OW16777   4.355   0.139   5.722 -0.7737 -0.2797 -0.1470
 5293SOL    HW116778   4.296   0.060   5.730  0.1876 -1.2537 -1.9765
 5293SOL    HW216779   4.418   0.126   5.645 -0.4787  2.1911 -0.4151
 5294SOL     OW16780   4.875   1.693   4.933 -0.1992  0.1075 -1.2252
 5294SOL    HW116781   4.797   1.736   4.887 -0.6710  0.1138 -0.4227
 5294SOL    HW216782   4.903   1.612   4.882 -1.4073 -0.5013 -0.9463
 5295SOL     OW16783   3.274   0.478   2.179  0.2444 -0.6049 -0.1211
 5295SOL    HW116784   3.211   0.555   2.186  0.1490 -0.7411  0.5942
 5295SOL    HW216785   3.335   0.492   2.101  1.0572  0.8152  0.7320
 5296SOL     OW16786   4.388   3.923   6.843  0.2045  0.7201  0.1672
 5296SOL    HW116787   4.329   3.987   6.794  1.3285  1.3485 -0.4160
 5296SOL    HW216788   4.355   3.830   6.830 -0.6792  1.0621 -0.0978
 5297SOL     OW16789   1.515   2.621   0.129 -0.1774  0.4806 -0.4589
 5297SOL    HW116790   1.601   2.658   0.162 -1.5164  2.7895  0.6955
 5297SOL    HW216791   1.452   2.607   0.206 -0.7522 -1.4754 -1.2287
 5298SOL     OW16792   1.812   5.753   0.097  0.4068 -0.5390  0.1300
 5298SOL    HW116793   1.811   5.791   0.190 -1.5733 -0.8073  0.2623
 5298SOL    HW216794   1.803   5.653   0.102  1.6023 -0.6883 -0.3387
 5299SOL     OW16795   2.579   2.855   6.750  0.1774  0.2792  0.1895
 5299SOL    HW116796   2.500   2.800   6.722  1.3397 -0.8805 -1.0047
 5299SOL    HW216797   2.599   2.838   6.846 -0.3141 -0.3584  0.1888
 5300SOL     OW16798   1.518   3.187   0.351  0.3542  0.2118  0.1340
 5300SOL    HW116799   1.481   3.109   0.301  1.4126  0.1627 -0.6142
 5300SOL    HW216800   1.516   3.268   0.292 -1.5747  1.0111  1.2021
 5301SOL     OW16801   4.355   0.602   6.453 -0.0562  0.0905 -0.7162
 5301SOL    HW116802   4.346   0.546   6.370 -0.6425 -0.4951 -0.2659
 5301SOL    HW216803   4.277   0.663   6.460  0.6858  1.1330 -1.3138
 5302SOL     OW16804   3.944   5.074   3.322 -0.2481 -0.3572 -0.1183
 5302SOL    HW116805   3.994   5.125   3.391  1.2000  1.2390 -2.1966
 5302SOL    HW216806   3.876   5.133   3.279 -0.1631 -0.8623 -0.9726
 5303SOL     OW16807   5.658   5.106   5.128  0.1166  0.1609  0.1072
 5303SOL    HW116808   5.683   5.154   5.044 -0.3015  0.3869  0.1084
 5303SOL    HW216809   5.674   5.008   5.116  0.5183  0.2454 -0.0642
 5304SOL     OW16810   5.095   0.266   0.800 -0.0163  0.3326  0.1195
 5304SOL    HW116811   5.038   0.340   0.764 -1.3311 -0.9290 -0.5142
 5304SOL    HW216812   5.151   0.300   0.876 -2.1205  1.5037  1.2396
 5305SOL     OW16813   1.145   5.051   3.686 -0.8838  0.5824  0.4654
 5305SOL    HW116814   1.046   5.043   3.699 -0.6973  0.4370  1.9452
 5305SOL    HW216815   1.187   5.088   3.769  0.2730  0.9668 -0.2612
 5306SOL     OW16816   1.816   4.989   4.727 -0.3426 -0.9180  0.0685
 5306SOL    HW116817   1.839   4.936   4.646  0.6334 -0.5752  0.1080
 5306SOL    HW216818   1.873   4.959   4.804  1.0715  0.9268 -0.1887
 5307SOL     OW16819   4.421   2.197   0.217  0.1783  0.0681  0.0012
 5307SOL    HW116820   4.332   2.182   0.173 -1.1335  2.2557  1.7120
 5307SOL    HW216821   4.420   2.155   0.308  0.8470  0.2516  0.0969
 5308SOL     OW16822   1.529   6.276   2.124  0.0970 -0.2291  0.1561
 5308SOL    HW116823   1.589   6.349   2.158 -0.5119 -0.5818  2.1332
 5308SOL    HW216824   1.578   6.189   2.126  0.5213 -0.0571 -1.3276
 5309SOL     OW16825   2.350   3.871   1.749 -0.4370  0.4544 -0.4699
 5309SOL    HW116826   2.337   3.949   1.811  1.1028  0.8674 -0.6383
 5309SOL    HW216827   2.434   3.884   1.697 -0.5634 -0.9691 -1.0454
 5310SOL     OW16828   4.852   4.049   1.861 -0.6181 -0.4438 -0.5664
 5310SOL    HW116829   4.921   3.987   1.824  0.3791  0.2354  0.0951
 5310SOL    HW216830   4.866   4.059   1.960 -3.0473 -2.0024  0.0317
 5311SOL     OW16831   6.418   6.270   0.128 -0.1118  0.2292  0.5222
 5311SOL    HW116832   6.365   6.189   0.103 -0.6527  1.2449 -1.9799
 5311SOL    HW216833   6.516   6.247   0.130 -0.3085 -0.6322  0.5432
 5312SOL     OW16834   0.862   4.715   2.304  0.4467  0.0189 -0.4674
 5312SOL    HW116835   0.856   4.644   2.374  1.0542 -0.5555 -0.9916
 5312SOL    HW216836   0.781   4.711   2.246 -1.8522  2.6882  2.1786
 5313SOL     OW16837   1.444   2.848   4.176 -0.5989 -0.2082  0.1466
 5313SOL    HW116838   1.358   2.894   4.197 -0.8640  0.4740 -2.1362
 5313SOL    HW216839   1.495   2.902   4.109  2.2566  0.0827  2.3188
 5314SOL     OW16840   2.921   6.374   0.760 -0.3073 -0.0160 -0.7834
 5314SOL    HW116841   2.889   6.468   0.753 -0.6670 -0.1420 -0.8419
 5314SOL    HW216842   2.983   6.366   0.838 -0.1874  0.2915 -0.8436
 5315SOL     OW16843   3.713   4.855   3.227  0.8121 -0.6322  0.2637
 5315SOL    HW116844   3.749   4.773   3.270  1.6879  0.2551  1.2727
 5315SOL    HW216845   3.758   4.936   3.265 -0.9391  0.4126  0.2132
 5316SOL     OW16846   6.435   2.773   6.243  0.0678 -0.2141  0.7543
 5316SOL    HW116847   6.475   2.812   6.326 -0.2423  1.0141  0.3436
 5316SOL    HW216848   6.339   2.799   6.237 -0.0239 -0.6591  0.2271
 5317SOL     OW16849   4.090   5.139   4.212 -0.5234 -0.1791  0.1415
 5317SOL    HW116850   4.149   5.219   4.218 -0.6036 -0.2051  2.0147
 5317SOL    HW216851   4.064   5.123   4.117  1.0153  0.8878 -0.5029
 5318SOL     OW16852   0.703   4.370   5.871 -0.2847  0.0114  0.1119
 5318SOL    HW116853   0.689   4.293   5.808 -0.3261 -0.7650  1.0468
 5318SOL    HW216854   0.772   4.432   5.833 -1.6755  0.6020 -1.6109
 5319SOL     OW16855   6.011   5.046   1.311 -0.3232  0.3618 -0.2424
 5319SOL    HW116856   6.054   4.956   1.313 -0.7059  0.0759 -2.5859
 5319SOL    HW216857   6.037   5.094   1.227  0.2574  2.6667  1.1472
 5320SOL     OW16858   4.845   6.355   6.910  0.4109  0.0955 -0.9914
 5320SOL    HW116859   4.893   6.377   6.995  0.8248 -0.2356 -1.1329
 5320SOL    HW216860   4.846   6.256   6.897 -0.4677  0.0754 -0.9103
 5321SOL     OW16861   0.265   6.895   4.859 -0.6457 -0.1207 -0.2237
 5321SOL    HW116862   0.281   6.993   4.862 -0.7017 -0.0987 -0.6431
 5321SOL    HW216863   0.192   6.874   4.795 -0.4444 -0.4619 -0.3487
 5322SOL     OW16864   4.499   5.871   6.270 -0.3035  0.1876 -0.3103
 5322SOL    HW116865   4.504   5.956   6.323  0.9374  0.5027 -0.8973
 5322SOL    HW216866   4.555   5.879   6.188  0.5506 -1.4943  0.0549
 5323SOL     OW16867   2.854   0.972   5.824  0.9030  0.5612  0.2947
 5323SOL    HW116868   2.861   1.070   5.806 -2.4233  0.8351 -0.1769
 5323SOL    HW216869   2.874   0.921   5.740 -0.7721  1.0973 -0.4798
 5324SOL     OW16870   3.145   2.970   1.036  0.4176 -0.2322 -0.0225
 5324SOL    HW116871   3.218   3.002   0.976 -0.1340  1.1725  0.0321
 5324SOL    HW216872   3.072   2.929   0.981  0.1985  0.4758 -0.2589
 5325SOL     OW16873   5.981   6.634   3.570 -0.6198 -0.0465 -0.0024
 5325SOL    HW116874   5.913   6.683   3.516 -1.0923  0.3187  0.9028
 5325SOL    HW216875   5.939   6.551   3.608 -0.7164  0.4170  0.9387
 5326SOL     OW16876   0.013   0.847   5.163  0.2957 -0.1227 -0.2472
 5326SOL    HW116877   0.104   0.885   5.178 -0.3591  0.8470  1.5673
 5326SOL    HW216878  -0.026   0.887   5.080  1.4115 -0.3701 -0.9080
 5327SOL     OW16879   6.678   4.294   3.370 -0.0413 -0.8842 -0.2324
 5327SOL    HW116880   6.590   4.279   3.325 -0.3251 -0.3913  0.1611
 5327SOL    HW216881   6.724   4.372   3.329 -0.1378 -0.6574  0.0897
 5328SOL     OW16882   3.307   2.606   5.797  0.9598  0.2350 -0.3184
 5328SOL    HW116883   3.261   2.685   5.755  1.0128  0.5399  0.1832
 5328SOL    HW216884   3.354   2.636   5.880  1.3772 -0.2368 -0.3786
 5329SOL     OW16885   1.355   5.731   0.729  0.0423 -0.3088  0.3290
 5329SOL    HW116886   1.269   5.724   0.781 -0.5322  0.9168 -0.4176
 5329SOL    HW216887   1.415   5.654   0.754 -1.2490 -1.1767  0.8802
 5330SOL     OW16888   4.762   2.284   0.994  0.2500 -0.2127 -0.2731
 5330SOL    HW116889   4.748   2.297   0.895 -0.4848 -0.4738 -0.2101
 5330SOL    HW216890   4.683   2.237   1.032  0.0559  0.8418  0.6467
 5331SOL     OW16891   5.900   0.811   6.384 -0.0059  0.4342  0.2666
 5331SOL    HW116892   5.801   0.807   6.393 -0.3616  2.6363 -1.8775
 5331SOL    HW216893   5.930   0.743   6.318 -0.3224  0.9426 -0.4114
 5332SOL     OW16894   1.554   4.931   0.115 -0.0088  0.3745  0.3230
 5332SOL    HW116895   1.602   4.939   0.202  0.8452  0.9537 -0.1864
 5332SOL    HW216896   1.485   5.004   0.108 -1.0383 -0.5096  1.0906
 5333SOL     OW16897   1.807   0.612   5.242  0.3193  0.0389 -0.0634
 5333SOL    HW116898   1.781   0.703   5.274  0.5318 -0.4592  1.6300
 5333SOL    HW216899   1.816   0.613   5.142 -3.1411  0.9717 -0.4931
 5334SOL     OW16900   2.169   7.020   5.721  0.0746  0.0231  0.3266
 5334SOL    HW116901   2.144   6.926   5.745 -3.8800  0.4179 -1.5350
 5334SOL    HW216902   2.173   7.076   5.803  1.4536 -1.4726  1.3497
 5335SOL     OW16903   0.910   0.032   1.100  0.0635 -0.1331 -0.5026
 5335SOL    HW116904   0.999  -0.004   1.130  0.2502  0.4822 -0.2976
 5335SOL    HW216905   0.920   0.076   1.011 -0.3144 -1.2012 -1.0920
 5336SOL     OW16906   1.519   3.780   2.109  0.3710 -0.1039 -0.4930
 5336SOL    HW116907   1.578   3.855   2.138 -2.2837  1.2750  1.7382
 5336SOL    HW216908   1.484   3.799   2.018  1.0242  0.5303 -0.6252
 5337SOL     OW16909   5.196   4.733   0.449 -0.1392  0.4781 -0.0720
 5337SOL    HW116910   5.202   4.832   0.435 -0.5476  0.3124 -1.5187
 5337SOL    HW216911   5.288   4.695   0.457  0.1228  0.7059 -1.6469
 5338SOL     OW16912   5.187   1.252   0.496 -0.1488  0.5110  0.2280
 5338SOL    HW116913   5.141   1.335   0.463 -2.2438 -0.7973 -0.3779
 5338SOL    HW216914   5.127   1.205   0.562  0.5487 -1.0056 -0.1765
 5339SOL     OW16915   0.053   2.028   3.367  0.2840  0.3444  0.0010
 5339SOL    HW116916  -0.006   2.014   3.288  0.0050  1.1197  0.0672
 5339SOL    HW216917   0.142   1.984   3.351 -0.0461 -0.1903 -0.3996
 5340SOL     OW16918   6.860   4.699   0.521 -0.7922 -0.0385  0.1741
 5340SOL    HW116919   6.936   4.649   0.479 -1.2497  0.1452 -0.8973
 5340SOL    HW216920   6.792   4.634   0.554 -0.4878 -0.1773  0.5460
 5341SOL     OW16921   3.495   0.886   0.962  0.0287  0.0801  0.0891
 5341SOL    HW116922   3.507   0.918   0.868  0.6361  1.8286  0.7223
 5341SOL    HW216923   3.423   0.940   1.006 -1.3281 -1.7384  0.2117
 5342SOL     OW16924   4.145   6.209   5.661 -0.3514 -0.0809  0.3695
 5342SOL    HW116925   4.170   6.172   5.572  0.2719 -0.6813  0.7814
 5342SOL    HW216926   4.064   6.268   5.652 -1.9941 -2.3077 -0.1641
 5343SOL     OW16927   3.218   3.109   4.862  0.0864  0.0544 -0.5406
 5343SOL    HW116928   3.316   3.095   4.849  0.2644  0.9477 -0.2124
 5343SOL    HW216929   3.195   3.095   4.958 -0.2582 -0.9877 -0.7676
 5344SOL     OW16930   2.486   1.938   1.651 -0.1529 -0.5944  0.1762
 5344SOL    HW116931   2.560   1.935   1.718  0.1597 -2.3477 -0.1887
 5344SOL    HW216932   2.434   2.022   1.662 -1.0220 -1.4344  3.5900
 5345SOL     OW16933   3.861   4.313   6.972  0.0138  0.0220  0.2032
 5345SOL    HW116934   3.813   4.401   6.969  0.8759  0.5625  1.4607
 5345SOL    HW216935   3.916   4.309   7.055 -0.2586 -1.8535  0.3162
 5346SOL     OW16936   1.951   4.600   3.216 -0.0267 -0.1599 -0.2575
 5346SOL    HW116937   1.862   4.620   3.257 -0.2269 -0.3716 -0.5848
 5346SOL    HW216938   1.994   4.524   3.266  1.0483  1.4705  1.4362
 5347SOL     OW16939   0.197   3.876   1.419  0.2389 -0.2983 -0.4215
 5347SOL    HW116940   0.124   3.937   1.449  0.6839 -0.1743  0.4498
 5347SOL    HW216941   0.176   3.840   1.328 -1.0914 -0.5643 -0.0253
 5348SOL     OW16942   0.606   1.933   1.828  0.0817  0.1531  0.2704
 5348SOL    HW116943   0.591   1.834   1.837  1.3698 -0.3012 -1.8962
 5348SOL    HW216944   0.518   1.978   1.810 -0.3645 -0.7555  0.1183
 5349SOL     OW16945   0.423   3.128   6.558 -0.2697  0.0663 -0.1201
 5349SOL    HW116946   0.499   3.078   6.598  0.1372  1.0965  0.4310
 5349SOL    HW216947   0.408   3.213   6.609 -0.3040  0.9868 -1.5942
 5350SOL     OW16948   2.244   0.823   5.816 -0.1385 -0.7738 -0.7600
 5350SOL    HW116949   2.208   0.831   5.723 -0.4423  2.3100 -0.4801
 5350SOL    HW216950   2.248   0.727   5.842 -1.3042 -1.6463 -3.4581
 5351SOL     OW16951   5.539   0.124   1.433 -0.1144 -0.0025  0.2180
 5351SOL    HW116952   5.599   0.133   1.353  0.2863 -1.7199  0.2880
 5351SOL    HW216953   5.561   0.196   1.498  0.6732  0.4566 -0.5276
 5352SOL     OW16954   3.136   5.781   6.154  0.0297 -0.0040  0.0149
 5352SOL    HW116955   3.195   5.712   6.111 -1.4694 -0.3406 -1.6269
 5352SOL    HW216956   3.177   5.810   6.240  2.9507  0.3342 -1.3555
 5353SOL     OW16957   4.570   6.573   5.905  0.2219 -0.7907  0.1476
 5353SOL    HW116958   4.504   6.623   5.961  0.5551 -0.3496  0.1457
 5353SOL    HW216959   4.533   6.562   5.813  0.9113  1.0824 -0.3943
 5354SOL     OW16960   1.861   5.815   2.858  0.0883  0.1591  0.2775
 5354SOL    HW116961   1.930   5.846   2.924 -1.9435  1.1193  2.0927
 5354SOL    HW216962   1.830   5.894   2.804  0.5091 -0.2952 -0.6380
 5355SOL     OW16963   5.083   2.878   5.756 -0.3066 -0.0012  0.6689
 5355SOL    HW116964   5.161   2.913   5.705 -1.8228  0.0903 -1.7824
 5355SOL    HW216965   5.111   2.799   5.810  1.3938 -0.2179 -0.4468
 5356SOL     OW16966   6.114   3.933   0.466 -0.3392 -0.0678 -0.8096
 5356SOL    HW116967   6.209   3.931   0.436 -0.1892 -0.8309 -0.3035
 5356SOL    HW216968   6.072   4.020   0.438  0.5042  0.2820 -1.0164
 5357SOL     OW16969   1.885   5.392   1.053  0.5411  0.3136 -0.4249
 5357SOL    HW116970   1.975   5.379   1.012 -0.7339 -0.1219 -3.3268
 5357SOL    HW216971   1.866   5.491   1.060  1.1193  0.4021 -0.0711
 5358SOL     OW16972   4.278   6.886   5.305 -0.0817  0.6780  0.0164
 5358SOL    HW116973   4.302   6.931   5.219  0.4325  1.2142  0.4238
 5358SOL    HW216974   4.184   6.853   5.301 -0.8444  2.6797  0.0303
 5359SOL     OW16975   2.392   3.311   1.068  0.5884 -0.4460 -0.3625
 5359SOL    HW116976   2.420   3.405   1.092 -1.5833 -0.0092  0.7899
 5359SOL    HW216977   2.470   3.261   1.031  2.6174  0.8913  1.7853
 5360SOL     OW16978   5.042   6.028   6.232  0.7819 -0.1257 -0.6094
 5360SOL    HW116979   5.132   6.007   6.270  0.4145 -0.1468  0.2971
 5360SOL    HW216980   5.041   6.010   6.134  1.9468  0.4622 -0.7506
 5361SOL     OW16981   1.791   6.074   4.424 -0.2909 -0.3329 -0.1802
 5361SOL    HW116982   1.797   5.978   4.397 -0.3642 -0.6849  1.0050
 5361SOL    HW216983   1.870   6.124   4.390 -1.1698 -0.3719 -2.4474
 5362SOL     OW16984   5.117   3.882   3.867  0.4769 -0.2460  0.7562
 5362SOL    HW116985   5.188   3.814   3.849  0.4366 -0.1013  0.0242
 5362SOL    HW216986   5.158   3.973   3.870  0.2621 -0.1144 -0.1231
 5363SOL     OW16987   0.103   0.692   5.449 -0.6533 -0.0706  0.2171
 5363SOL    HW116988   0.020   0.700   5.505 -0.3005 -1.8172  1.0421
 5363SOL    HW216989   0.088   0.625   5.376 -0.5510  0.9635 -0.7825
 5364SOL     OW16990   1.814   6.357   4.160  0.0745 -0.0883  0.2280
 5364SOL    HW116991   1.836   6.454   4.159  3.7011 -0.7726 -0.3690
 5364SOL    HW216992   1.864   6.312   4.234 -1.6544 -1.5238  0.6010
 5365SOL     OW16993   1.696   3.217   5.317  0.0705  0.1361 -0.3526
 5365SOL    HW116994   1.664   3.228   5.223 -1.4140  1.0931  0.2294
 5365SOL    HW216995   1.705   3.307   5.360  1.9195 -0.2127  0.0702
 5366SOL     OW16996   4.429   4.907   1.872  0.6428  0.0264  0.2199
 5366SOL    HW116997   4.512   4.959   1.891  1.5579 -0.9960 -0.7985
 5366SOL    HW216998   4.453   4.813   1.849 -0.5548  0.2315 -2.3067
 5367SOL     OW16999   6.523   5.876   0.060  0.2471  0.5750  0.7552
 5367SOL    HW117000   6.553   5.788   0.022  0.4535  0.9942 -0.0828
 5367SOL    HW217001   6.555   5.884   0.155 -1.7940 -1.2500  1.6753
 5368SOL     OW17002   6.314   1.165   1.541 -0.2668 -0.0905  0.1451
 5368SOL    HW117003   6.323   1.084   1.482  2.3840 -0.4423  0.9065
 5368SOL    HW217004   6.404   1.207   1.553 -0.7590  0.2653  3.5209
 5369SOL     OW17005   3.142   5.705   1.753 -0.1119 -0.0340 -0.9436
 5369SOL    HW117006   3.193   5.704   1.839 -1.1600 -0.4004 -0.2999
 5369SOL    HW217007   3.125   5.799   1.725  1.2591  0.0969 -1.3958
 5370SOL     OW17008   4.870   1.424   0.959 -0.2155  0.4043  0.5583
 5370SOL    HW117009   4.901   1.502   0.905  0.8899 -0.3560  0.0485
 5370SOL    HW217010   4.831   1.355   0.898 -0.4661  0.2218  0.9216
 5371SOL     OW17011   0.709   4.633   4.874 -0.5261  0.4496 -0.5369
 5371SOL    HW117012   0.796   4.653   4.829 -0.6031  1.3594 -0.2946
 5371SOL    HW217013   0.725   4.570   4.950 -0.0779  0.5717 -0.5235
 5372SOL     OW17014   1.667   0.011   4.330 -0.3982  0.8077  0.4590
 5372SOL    HW117015   1.606   0.005   4.251  0.5183  1.5129 -0.3296
 5372SOL    HW217016   1.709  -0.078   4.346 -0.4023  0.7195 -0.0023
 5373SOL     OW17017   2.529   4.979   4.207 -0.1895  0.0986 -0.4029
 5373SOL    HW117018   2.482   4.899   4.170 -0.5789  0.1990 -0.1364
 5373SOL    HW217019   2.461   5.043   4.244  0.1603  0.2312  0.0168
 5374SOL     OW17020   2.677   3.938   0.869  0.2643  0.0754 -0.0402
 5374SOL    HW117021   2.695   3.846   0.904  1.6013  0.5677  0.6232
 5374SOL    HW217022   2.718   4.006   0.930  2.1060  1.0144 -2.1846
 5375SOL     OW17023   1.780   4.556   5.280  0.2089  0.0515 -0.2198
 5375SOL    HW117024   1.796   4.624   5.351  2.2793 -0.8407  0.2312
 5375SOL    HW217025   1.682   4.542   5.269 -0.1853  0.5672  2.1192
 5376SOL     OW17026   1.290   1.803   2.066 -0.3567 -0.0648  0.4664
 5376SOL    HW117027   1.280   1.758   1.977 -0.4777  0.4330  0.2266
 5376SOL    HW217028   1.201   1.810   2.110 -0.1715 -1.1450  1.0445
 5377SOL     OW17029   5.822   1.182   2.350 -0.3645 -0.3100 -0.1743
 5377SOL    HW117030   5.901   1.241   2.367  0.3579 -1.7012  1.6044
 5377SOL    HW217031   5.751   1.202   2.419  0.3048 -2.1557  1.1140
 5378SOL     OW17032   5.681   0.685   2.656 -0.1226 -0.3945  0.4905
 5378SOL    HW117033   5.633   0.708   2.572  1.1346 -2.5132 -0.9120
 5378SOL    HW217034   5.616   0.649   2.723 -1.1080  1.1308  0.3965
 5379SOL     OW17035   6.769   5.273   5.625  0.1652 -0.6690  0.4251
 5379SOL    HW117036   6.843   5.207   5.624 -0.6146 -1.6275  2.1716
 5379SOL    HW217037   6.707   5.254   5.701 -1.4361  0.5997 -0.4741
 5380SOL     OW17038   0.892   0.545   4.781  0.5453 -0.6096  0.1706
 5380SOL    HW117039   0.887   0.624   4.720  1.8718 -1.0550 -0.5455
 5380SOL    HW217040   0.808   0.491   4.772 -1.3538  1.7827  2.2489
 5381SOL     OW17041   6.006   4.903   6.553  0.0738  0.1806  0.0347
 5381SOL    HW117042   6.032   4.999   6.551 -0.2976  0.3078  1.0618
 5381SOL    HW217043   6.078   4.849   6.597 -0.2232  0.1548  0.4924
 5382SOL     OW17044   2.366   0.995   1.440  0.2016  0.1909  0.7773
 5382SOL    HW117045   2.290   0.936   1.411  0.2588  0.6033 -0.2727
 5382SOL    HW217046   2.429   0.942   1.497 -1.1420 -0.0089  2.1474
 5383SOL     OW17047   2.875   1.934   6.522  0.3048  0.5229  0.4473
 5383SOL    HW117048   2.857   1.989   6.603  2.1870  1.5895  0.1934
 5383SOL    HW217049   2.790   1.922   6.471 -0.5125  1.5739  1.4969
 5384SOL     OW17050   0.883   1.063   5.427  0.4973 -0.2163 -0.0139
 5384SOL    HW117051   0.970   1.096   5.463  0.9870 -3.0855  1.6530
 5384SOL    HW217052   0.893   1.042   5.330  0.7410  2.2550 -0.6032
 5385SOL     OW17053   3.082   4.035   3.690  0.2585  0.3330  0.2315
 5385SOL    HW117054   3.063   3.943   3.726 -0.2879  1.0438  1.8424
 5385SOL    HW217055   3.132   4.088   3.758 -1.2394  1.9116  0.1658
 5386SOL     OW17056   3.380   1.039   3.532  0.2088 -0.3494 -0.0017
 5386SOL    HW117057   3.344   0.964   3.476  0.0819  0.7630 -1.4486
 5386SOL    HW217058   3.478   1.050   3.516  0.2868 -0.3685  0.4272
 5387SOL     OW17059   3.253   5.585   3.841  0.1800  0.2972  0.0293
 5387SOL    HW117060   3.255   5.577   3.741  0.8896 -0.3558  0.0852
 5387SOL    HW217061   3.340   5.552   3.878 -0.4533 -0.3830  0.9235
 5388SOL     OW17062   6.388   1.800   5.074 -0.0651 -0.0379  0.2472
 5388SOL    HW117063   6.367   1.704   5.095  0.4129  0.1518  1.7366
 5388SOL    HW217064   6.463   1.831   5.133  1.6328  0.4991 -2.0408
 5389SOL     OW17065   6.050   6.967   0.315 -0.2514  0.5566 -0.2881
 5389SOL    HW117066   5.998   6.958   0.230  0.6474  0.4665 -0.8449
 5389SOL    HW217067   6.122   6.898   0.318 -1.6356 -0.9093  1.6001
 5390SOL     OW17068   5.377   3.673   3.540  0.1935  0.3119 -0.0988
 5390SOL    HW117069   5.385   3.612   3.460  0.5028  2.1367 -1.5253
 5390SOL    HW217070   5.464   3.718   3.556 -0.4444  1.5708 -0.0802
 5391SOL     OW17071   1.356   3.280   2.179 -0.3829 -0.1223 -0.1051
 5391SOL    HW117072   1.366   3.365   2.127 -0.3291 -0.4353 -0.6148
 5391SOL    HW217073   1.437   3.267   2.237 -0.2096 -0.0272 -0.3250
 5392SOL     OW17074   4.136   1.559   1.380  0.2202 -0.5478  0.2368
 5392SOL    HW117075   4.134   1.483   1.316  0.1391  1.0606 -1.7808
 5392SOL    HW217076   4.053   1.557   1.437  0.2890 -2.0051  0.3195
 5393SOL     OW17077   6.207   6.031   5.641 -0.4803 -0.4888 -0.2125
 5393SOL    HW117078   6.237   6.039   5.736 -1.3276 -0.1120  0.0289
 5393SOL    HW217079   6.109   6.014   5.638 -0.5370 -0.0597 -1.0310
 5394SOL     OW17080   0.042   4.681   6.777  0.9657  0.1035 -0.3061
 5394SOL    HW117081   0.060   4.589   6.741  1.9936  0.7771 -1.6179
 5394SOL    HW217082   0.057   4.748   6.704  0.8677  1.3680  0.8083
 5395SOL     OW17083   6.150   1.946   1.238  0.2955 -0.2897  0.5068
 5395SOL    HW117084   6.135   1.946   1.337 -0.5108 -0.4455  0.3929
 5395SOL    HW217085   6.066   1.975   1.192  0.0686 -1.9647 -0.2130
 5396SOL     OW17086   3.423   5.717   3.376  0.2401 -0.1989 -0.3001
 5396SOL    HW117087   3.382   5.645   3.320 -2.2093 -0.1712  1.3238
 5396SOL    HW217088   3.495   5.763   3.323 -2.1552  0.1270 -3.5707
 5397SOL     OW17089   6.280   2.463   2.390  0.2473  0.0810  0.3991
 5397SOL    HW117090   6.251   2.375   2.352  1.4146  0.8434 -2.5673
 5397SOL    HW217091   6.377   2.459   2.413  0.9913  1.2158 -2.1943
 5398SOL     OW17092   3.908   0.864   2.468  0.1481 -0.1406 -0.1446
 5398SOL    HW117093   3.876   0.824   2.554  1.1009 -1.4251 -0.3419
 5398SOL    HW217094   4.008   0.854   2.463  0.5788  3.0889  0.1653
 5399SOL     OW17095   3.188   6.054   6.992 -0.1524 -0.4430 -0.3560
 5399SOL    HW117096   3.240   6.050   7.077  0.2992 -0.5236 -0.6324
 5399SOL    HW217097   3.223   6.128   6.934 -1.1491  0.3070 -0.0311
 5400SOL     OW17098   3.762   3.294   0.602  0.3084  0.2577 -0.6028
 5400SOL    HW117099   3.785   3.333   0.513  1.0412  0.7712 -0.1918
 5400SOL    HW217100   3.798   3.201   0.609 -0.0253  0.0989 -0.9573
 5401SOL     OW17101   5.350   2.168   0.552  0.2664  0.0670 -0.2105
 5401SOL    HW117102   5.368   2.257   0.594 -1.7845 -0.1711  1.3420
 5401SOL    HW217103   5.342   2.099   0.624 -0.8983 -0.8442 -1.1830
 5402SOL     OW17104   2.806   4.983   0.910 -0.1648 -0.2350  0.1070
 5402SOL    HW117105   2.801   5.005   0.812  1.1245 -1.5042 -0.2848
 5402SOL    HW217106   2.763   5.056   0.962  0.8284  1.4729 -1.3047
 5403SOL     OW17107   5.782   4.087   5.365 -0.2306 -0.3058  0.5583
 5403SOL    HW117108   5.741   4.164   5.413 -0.9841 -0.8918  0.8687
 5403SOL    HW217109   5.834   4.031   5.431  0.9284  0.3295  0.2046
 5404SOL     OW17110   0.827   2.176   1.115 -0.0081  0.1622  0.0549
 5404SOL    HW117111   0.892   2.141   1.183 -0.1010  0.9725  0.5727
 5404SOL    HW217112   0.793   2.266   1.144 -1.2042 -0.1502 -0.3072
 5405SOL     OW17113   5.564   5.718   5.042 -0.0627 -0.9813  0.1539
 5405SOL    HW117114   5.534   5.813   5.053  0.0405 -0.9817  0.4530
 5405SOL    HW217115   5.654   5.707   5.083  0.9996 -0.6376 -1.9846
 5406SOL     OW17116   1.508   2.565   1.394  0.0911 -0.5482  0.2476
 5406SOL    HW117117   1.564   2.615   1.329  0.1170  0.4438  1.0142
 5406SOL    HW217118   1.489   2.473   1.359 -0.3428  0.1448 -1.3949
 5407SOL     OW17119   3.974   1.358   1.194  0.1297 -0.1220  0.3009
 5407SOL    HW117120   4.058   1.305   1.183  0.6477  0.0856  2.6666
 5407SOL    HW217121   3.912   1.310   1.256 -0.7803  0.5053 -0.1088
 5408SOL     OW17122   0.885   2.636   6.417  0.1263  0.3426  0.0208
 5408SOL    HW117123   0.808   2.650   6.479  0.8306 -2.0530  1.5955
 5408SOL    HW217124   0.961   2.694   6.446 -0.3191  1.0004 -0.1080
 5409SOL     OW17125   0.436   1.468   3.557  0.3773 -0.1002 -0.1797
 5409SOL    HW117126   0.419   1.555   3.509  0.3202  0.1866  0.3465
 5409SOL    HW217127   0.511   1.481   3.621 -0.0241 -0.2717  0.3319
 5410SOL     OW17128   3.080   3.512   1.626  0.2391  0.2648 -0.2519
 5410SOL    HW117129   3.014   3.437   1.633  0.1780  0.1748 -1.4952
 5410SOL    HW217130   3.069   3.574   1.704 -1.9122  0.7179 -0.8429
 5411SOL     OW17131   1.367   3.861   3.886  0.3978 -0.0861  0.2816
 5411SOL    HW117132   1.427   3.933   3.851  1.5947 -0.7753  0.8230
 5411SOL    HW217133   1.293   3.901   3.939  2.4252  0.6886  2.6864
 5412SOL     OW17134   4.009   1.604   1.063  0.0708  0.4675  0.5474
 5412SOL    HW117135   3.995   1.674   1.134 -1.4076 -0.1534  0.9047
 5412SOL    HW217136   3.996   1.513   1.103  2.6345 -0.1073  0.2414
 5413SOL     OW17137   2.487   2.608   2.834 -0.1382 -0.0829 -0.1441
 5413SOL    HW117138   2.565   2.670   2.847  0.2382 -0.9124  1.9977
 5413SOL    HW217139   2.403   2.661   2.829  0.3818  0.7216 -0.6813
 5414SOL     OW17140   4.099   1.868   5.096 -0.1651  0.0301  0.2784
 5414SOL    HW117141   4.071   1.963   5.109 -1.3232 -0.2190 -0.2781
 5414SOL    HW217142   4.158   1.862   5.015  2.3472  0.6845  1.9135
 5415SOL     OW17143   2.959   5.740   0.235  0.4781 -0.3951 -0.3817
 5415SOL    HW117144   2.902   5.809   0.190 -1.7717  1.1693  4.2835
 5415SOL    HW217145   3.046   5.780   0.263  0.3155 -0.2545 -0.0762
 5416SOL     OW17146   5.262   3.675   6.983  0.2039 -0.6528 -0.6480
 5416SOL    HW117147   5.171   3.678   7.025  0.8968  1.9016  0.8688
 5416SOL    HW217148   5.252   3.668   6.883 -1.7221  0.6912 -0.6114
 5417SOL     OW17149   4.539   5.797   4.566 -0.0266 -0.3762  0.1505
 5417SOL    HW117150   4.512   5.865   4.499 -1.1857 -1.1000 -0.1515
 5417SOL    HW217151   4.528   5.705   4.527  1.6168 -0.7542  0.5017
 5418SOL     OW17152   4.434   5.318   4.051 -0.3517  0.5963 -0.0467
 5418SOL    HW117153   4.353   5.367   4.021 -0.2108 -0.1363 -1.7290
 5418SOL    HW217154   4.411   5.222   4.066  0.1694  0.4197 -0.3674
 5419SOL     OW17155   3.888   5.972   2.721  0.1993  0.6852 -0.4026
 5419SOL    HW117156   3.924   5.885   2.754 -1.7844  0.1213  0.4241
 5419SOL    HW217157   3.874   5.967   2.622  1.4869  0.6351 -0.6080
 5420SOL     OW17158   1.486   3.055   2.688 -0.2038 -0.1889 -0.1112
 5420SOL    HW117159   1.402   3.092   2.650  1.1807  2.7902 -0.5146
 5420SOL    HW217160   1.525   2.988   2.625 -0.6779  0.7286 -1.4068
 5421SOL     OW17161   3.177   1.435   4.785  0.1858  0.0941 -0.6780
 5421SOL    HW117162   3.169   1.335   4.776  0.8158  0.0180 -0.4926
 5421SOL    HW217163   3.217   1.473   4.702  0.9434  0.0520 -0.3467
 5422SOL     OW17164   1.967   5.833   6.898  0.0084  0.0377 -0.4139
 5422SOL    HW117165   2.036   5.898   6.931 -0.6619  0.0613  0.9946
 5422SOL    HW217166   1.907   5.807   6.973 -0.5920 -1.1639 -1.2800
 5423SOL     OW17167   6.902   1.704   6.230  0.0714  0.7278 -0.1436
 5423SOL    HW117168   6.948   1.620   6.260 -0.0748  1.2272  1.5738
 5423SOL    HW217169   6.804   1.697   6.249  0.3076  1.9795  1.7379
 5424SOL     OW17170   4.179   2.235   5.395  0.1999  0.0773 -0.6171
 5424SOL    HW117171   4.101   2.188   5.354  0.3329 -0.5964 -0.1207
 5424SOL    HW217172   4.221   2.176   5.463 -0.6014  1.5191  1.2199
 5425SOL     OW17173   3.459   1.659   4.736 -0.1306  0.2529  0.0526
 5425SOL    HW117174   3.366   1.632   4.710 -0.5899  0.8265  1.0259
 5425SOL    HW217175   3.456   1.750   4.778  0.9150  0.3925 -0.1687
 5426SOL     OW17176   5.189   4.593   4.112  0.3260  0.5332 -0.4390
 5426SOL    HW117177   5.126   4.515   4.122 -0.5651  1.2952  0.0850
 5426SOL    HW217178   5.138   4.673   4.080  1.1849  0.9714 -0.7411
 5427SOL     OW17179   5.017   4.494   0.425  0.4442  0.2286 -0.2071
 5427SOL    HW117180   5.022   4.441   0.340 -2.0271 -1.4250  0.5560
 5427SOL    HW217181   5.061   4.583   0.411  1.4316 -0.5404 -2.7220
 5428SOL     OW17182   0.856   6.828   1.761 -0.4811 -0.2598  0.0601
 5428SOL    HW117183   0.862   6.776   1.846  0.5415  0.7714  0.6511
 5428SOL    HW217184   0.870   6.766   1.683 -0.3774 -1.0409  0.6907
 5429SOL     OW17185   2.006   2.352   5.788 -0.3118 -0.1927 -0.3750
 5429SOL    HW117186   2.006   2.447   5.820  0.6967 -0.4449  0.4405
 5429SOL    HW217187   2.062   2.344   5.706 -0.7717 -0.0020 -0.7073
 5430SOL     OW17188   6.359   1.965   6.042  0.3261 -0.2983 -0.0195
 5430SOL    HW117189   6.402   2.042   5.994  0.3876 -1.1676 -1.4300
 5430SOL    HW217190   6.264   1.988   6.063 -0.7861 -0.9688 -3.5333
 5431SOL     OW17191   4.165   5.566   0.981 -0.5071 -0.0720  1.2404
 5431SOL    HW117192   4.153   5.649   0.927 -1.4401 -1.4419 -0.7484
 5431SOL    HW217193   4.262   5.541   0.984 -0.4974 -0.3105 -0.3745
 5432SOL     OW17194   4.729   6.637   6.939 -0.2024  0.4886 -0.0210
 5432SOL    HW117195   4.727   6.717   6.879 -0.4480  1.6817  1.5021
 5432SOL    HW217196   4.669   6.566   6.903 -1.1573  1.5834 -0.6336
 5433SOL     OW17197   0.059   3.187   5.090  0.2103 -0.7024  0.0359
 5433SOL    HW117198  -0.013   3.205   5.157  0.6477  0.4907  0.2073
 5433SOL    HW217199   0.061   3.261   5.023  0.2382 -1.5394 -0.8979
 5434SOL     OW17200   3.819   0.416   0.372  0.9056 -0.9365  0.3511
 5434SOL    HW117201   3.868   0.489   0.420  0.7384  0.1080 -0.9865
 5434SOL    HW217202   3.885   0.350   0.335  1.5405  1.0494 -2.4049
 5435SOL     OW17203   4.978   5.925   2.340 -0.1528  0.9120 -0.1921
 5435SOL    HW117204   5.033   5.884   2.267  1.4436  0.5413  1.1537
 5435SOL    HW217205   4.882   5.928   2.312 -0.6969 -4.7179 -0.0724
 5436SOL     OW17206   3.615   5.701   2.982 -0.1193  0.0223  0.0962
 5436SOL    HW117207   3.583   5.788   3.019 -1.2501 -0.0218 -0.7232
 5436SOL    HW217208   3.647   5.643   3.057 -1.4356  0.2982  0.9041
 5437SOL     OW17209   2.702   2.927   6.250 -0.5508 -0.3189  0.9636
 5437SOL    HW117210   2.718   2.909   6.153  1.0378 -0.2678  1.1905
 5437SOL    HW217211   2.617   2.882   6.279 -1.2808  0.0418 -0.5366
 5438SOL     OW17212   6.745   3.724   1.936  0.3300 -0.8059 -0.0139
 5438SOL    HW117213   6.798   3.725   1.851 -0.9442  1.1813 -0.8883
 5438SOL    HW217214   6.655   3.684   1.918 -1.5285  3.2170 -0.8396
 5439SOL     OW17215   4.525   2.971   7.012  0.5574  0.1497  0.1077
 5439SOL    HW117216   4.431   2.959   7.044  0.6159 -0.1725  0.1590
 5439SOL    HW217217   4.570   2.882   7.006  1.4122  0.4129  1.8021
 5440SOL     OW17218   0.844   2.985   1.489 -0.3013 -0.0197  0.1435
 5440SOL    HW117219   0.856   3.082   1.511  1.8006 -0.2856  0.4086
 5440SOL    HW217220   0.892   2.964   1.404  0.3662 -1.0682  0.7553
 5441SOL     OW17221   5.777   0.385   3.943  0.1806  0.2272  0.1081
 5441SOL    HW117222   5.865   0.344   3.966  0.0807 -0.2608 -0.3722
 5441SOL    HW217223   5.778   0.416   3.848 -0.2078  0.1217  0.0713
 5442SOL     OW17224   2.985   5.462   3.875  0.2442 -0.2261 -0.1697
 5442SOL    HW117225   2.920   5.529   3.836  0.3746  1.1590  1.8292
 5442SOL    HW217226   3.071   5.508   3.897 -0.7981 -0.0201  4.5043
 5443SOL     OW17227   3.299   6.992   4.231 -0.1297 -0.0124 -0.1734
 5443SOL    HW117228   3.252   6.911   4.195 -2.4836  0.8808  0.6760
 5443SOL    HW217229   3.257   7.075   4.192  2.0235  0.8601 -0.7936
 5444SOL     OW17230   1.896   0.759   6.125  0.0213 -0.4019  0.2832
 5444SOL    HW117231   1.819   0.803   6.080 -0.9213 -2.4214 -0.2047
 5444SOL    HW217232   1.982   0.794   6.088 -0.6822  0.6554 -0.3782
 5445SOL     OW17233   6.117   3.032   3.898 -0.0228 -0.0366  0.0695
 5445SOL    HW117234   6.109   2.933   3.903 -1.2356  0.0865  1.3258
 5445SOL    HW217235   6.141   3.068   3.989  0.0661  0.8326 -0.2889
 5446SOL     OW17236   1.245   5.937   3.567  0.5621 -0.3828  0.1768
 5446SOL    HW117237   1.229   6.035   3.572  2.3712  0.0078 -0.7932
 5446SOL    HW217238   1.175   5.894   3.510  0.3711  0.5028 -0.2623
 5447SOL     OW17239   2.722   1.464   6.480  0.1829  0.3155 -0.7542
 5447SOL    HW117240   2.808   1.427   6.446 -0.1848  0.7120 -2.1773
 5447SOL    HW217241   2.668   1.391   6.521 -0.3289 -0.7136 -3.0908
 5448SOL     OW17242   3.110   3.766   5.892 -0.8116  0.0684  0.0213
 5448SOL    HW117243   3.032   3.822   5.865 -0.9183  0.1168  0.4374
 5448SOL    HW217244   3.190   3.793   5.838 -0.3430  2.0014  1.5914
 5449SOL     OW17245   0.343   3.354   0.416 -0.4741 -0.4156 -0.5199
 5449SOL    HW117246   0.343   3.296   0.497 -0.9529  1.5937  0.9926
 5449SOL    HW217247   0.428   3.407   0.413 -0.1639 -0.9301 -1.7303
 5450SOL     OW17248   0.356   0.000   1.729 -0.1527 -0.0786 -0.4387
 5450SOL    HW117249   0.393   0.089   1.702 -1.2868  0.2327 -1.0368
 5450SOL    HW217250   0.425  -0.071   1.715  0.5467  0.6165 -0.5679
 5451SOL     OW17251   2.546   6.939   3.621 -0.2790 -0.3608  0.0107
 5451SOL    HW117252   2.636   6.953   3.663 -1.0763 -0.3476  1.8049
 5451SOL    HW217253   2.513   7.026   3.584  0.0075 -0.1352  0.2766
 5452SOL     OW17254   3.335   4.449   0.862 -0.1603 -0.4523  0.0531
 5452SOL    HW117255   3.354   4.527   0.802 -0.8877 -0.6669 -0.4709
 5452SOL    HW217256   3.289   4.377   0.810  0.4605 -1.2235  0.5433
 5453SOL     OW17257   6.746   5.525   2.278  0.3423 -0.5767  0.0715
 5453SOL    HW117258   6.669   5.483   2.230  0.2675  0.0923 -0.4160
 5453SOL    HW217259   6.776   5.606   2.228 -0.0043  0.3918  1.3699
 5454SOL     OW17260   5.801   4.906   6.299  0.4024  0.0929 -0.3351
 5454SOL    HW117261   5.837   4.817   6.327 -1.1894 -0.6747 -0.6090
 5454SOL    HW217262   5.809   4.970   6.375 -0.0650 -0.8004  0.5066
 5455SOL     OW17263   5.866   2.615   1.086  0.0010 -0.5979 -0.2667
 5455SOL    HW117264   5.857   2.516   1.084 -1.8313 -0.4836 -0.2926
 5455SOL    HW217265   5.960   2.642   1.067  1.2002 -2.4185  2.5544
 5456SOL     OW17266   3.073   0.658   6.565 -0.2994 -0.4186 -0.5594
 5456SOL    HW117267   3.114   0.654   6.474  3.0566  1.1060  0.7467
 5456SOL    HW217268   3.118   0.729   6.619 -1.9574 -1.4828  2.4310
 5457SOL     OW17269   4.559   1.913   0.159  0.2932 -0.3466 -0.1800
 5457SOL    HW117270   4.556   2.013   0.165  0.6610 -0.2908 -0.9227
 5457SOL    HW217271   4.506   1.874   0.235  2.2511  0.3735  1.6633
 5458SOL     OW17272   1.033   4.256   4.290  0.3407  0.3098 -0.5181
 5458SOL    HW117273   0.982   4.173   4.312 -0.7179  0.1877 -3.1054
 5458SOL    HW217274   1.069   4.250   4.197  2.1994  1.8414  0.0275
 5459SOL     OW17275   3.353   6.164   5.500  0.0545 -0.2376  0.2965
 5459SOL    HW117276   3.353   6.250   5.450 -0.9707 -1.4707 -1.9775
 5459SOL    HW217277   3.274   6.109   5.472 -0.8997 -0.8464  3.7140
 5460SOL     OW17278   1.650   5.436   4.719 -0.6422 -0.3407 -0.1266
 5460SOL    HW117279   1.608   5.489   4.645 -0.4108  0.2525  0.1612
 5460SOL    HW217280   1.686   5.350   4.682 -1.9107 -0.7725 -0.4209
 5461SOL     OW17281   6.272   4.650   5.297 -0.0716  0.1946 -0.2246
 5461SOL    HW117282   6.201   4.643   5.367  1.5395  0.1196  1.4856
 5461SOL    HW217283   6.330   4.569   5.300  2.0997  1.6931  0.7894
 5462SOL     OW17284   2.076   1.898   0.058 -0.2280  0.0889  0.1498
 5462SOL    HW117285   2.091   1.827  -0.011  0.5288  1.5149 -1.2420
 5462SOL    HW217286   1.997   1.953   0.032 -1.1390 -0.5308  1.4998
 5463SOL     OW17287   6.004   2.184   0.353 -0.2870 -0.3275 -0.3955
 5463SOL    HW117288   5.991   2.129   0.435  0.7137 -2.3333 -1.5299
 5463SOL    HW217289   5.989   2.281   0.376 -1.4837 -0.9532  1.7796
 5464SOL     OW17290   1.240   1.120   4.180  0.4068  0.0380 -0.0509
 5464SOL    HW117291   1.240   1.044   4.115 -2.4641  0.8164 -1.0995
 5464SOL    HW217292   1.319   1.178   4.163  0.7979 -0.8663 -1.4904
 5465SOL     OW17293   4.408   0.315   2.891  0.2376  0.4081  0.1244
 5465SOL    HW117294   4.317   0.357   2.898  0.5005  1.0494 -0.2019
 5465SOL    HW217295   4.470   0.378   2.843  0.4973 -0.5881 -0.8945
 5466SOL     OW17296   5.865   2.357   6.571 -0.2596  0.1982  0.3060
 5466SOL    HW117297   5.804   2.315   6.503 -1.7790 -0.0519  1.7509
 5466SOL    HW217298   5.868   2.456   6.557 -1.1331  0.2330  0.2972
 5467SOL     OW17299   6.483   0.633   4.998 -0.1896  0.1398 -0.5357
 5467SOL    HW117300   6.398   0.683   5.015 -0.1597 -0.6391  2.6082
 5467SOL    HW217301   6.472   0.574   4.919 -1.4418  2.3494 -2.1179
 5468SOL     OW17302   5.509   3.268   4.934  0.9219  0.7615  0.4397
 5468SOL    HW117303   5.429   3.306   4.980  0.5993  1.6734 -0.8205
 5468SOL    HW217304   5.560   3.342   4.889  0.4596 -0.2066 -1.8041
 5469SOL     OW17305   3.874   4.679   5.244 -0.3312  0.3752 -0.2895
 5469SOL    HW117306   3.921   4.591   5.244 -0.3305  0.3773 -0.6326
 5469SOL    HW217307   3.778   4.666   5.272 -1.1744 -0.1752 -3.1674
 5470SOL     OW17308   3.948   5.621   3.957 -0.3010  0.4413 -0.3435
 5470SOL    HW117309   3.961   5.673   3.873 -0.0635 -1.0296 -1.2595
 5470SOL    HW217310   3.851   5.617   3.979 -0.4962 -0.1929 -1.2585
 5471SOL     OW17311   4.519   6.873   3.072 -0.1028  0.0245  0.1664
 5471SOL    HW117312   4.497   6.927   3.153  0.2506  2.0926 -1.0394
 5471SOL    HW217313   4.592   6.808   3.094  0.4695  1.0255  1.3456
 5472SOL     OW17314   3.567   3.229   5.568  0.2407  0.0183 -0.2243
 5472SOL    HW117315   3.650   3.257   5.519  1.3297 -0.2245  1.3871
 5472SOL    HW217316   3.487   3.257   5.517  1.2954  2.3709 -0.7067
 5473SOL     OW17317   6.658   2.074   2.549 -0.5064 -0.4442  0.1964
 5473SOL    HW117318   6.664   2.117   2.638  0.2819 -0.0007 -0.0603
 5473SOL    HW217319   6.750   2.061   2.512 -0.8508  0.1739 -0.9225
 5474SOL     OW17320   1.321   5.962   5.687  0.5322  0.4428 -0.2921
 5474SOL    HW117321   1.375   5.893   5.734 -0.4102 -1.2905 -1.6675
 5474SOL    HW217322   1.345   5.965   5.590 -1.0665  0.3589 -0.7277
 5475SOL     OW17323   3.169   1.870   4.210  0.3670 -0.0269 -0.0015
 5475SOL    HW117324   3.261   1.882   4.247  0.6476 -1.5639 -0.1329
 5475SOL    HW217325   3.105   1.854   4.285  0.3885 -0.0561  0.0102
 5476SOL     OW17326   1.679   4.820   6.562 -0.2431 -0.4783 -0.0202
 5476SOL    HW117327   1.634   4.893   6.511 -0.2783 -0.3805  0.1491
 5476SOL    HW217328   1.658   4.732   6.520 -0.3454 -0.4065 -0.1200
 5477SOL     OW17329   1.834   3.643   3.300  0.0223 -0.4967 -0.0792
 5477SOL    HW117330   1.916   3.586   3.297  0.2116 -0.2177 -0.2056
 5477SOL    HW217331   1.778   3.615   3.378 -0.1641 -1.2303 -0.4679
 5478SOL     OW17332   3.506   4.463   5.461  0.4809 -0.3735 -0.1285
 5478SOL    HW117333   3.499   4.434   5.557 -3.4648  1.1788  0.2129
 5478SOL    HW217334   3.419   4.446   5.415  0.3165  3.9959 -1.8603
 5479SOL     OW17335   3.572   0.444   6.119 -0.3428  0.3973  0.1688
 5479SOL    HW117336   3.582   0.349   6.092  0.6281  0.2520  0.9681
 5479SOL    HW217337   3.586   0.503   6.040 -0.2227 -0.1070 -0.1882
 5480SOL     OW17338   0.448   5.291   1.797  0.1889  0.7582 -0.1641
 5480SOL    HW117339   0.525   5.339   1.838 -0.5898  1.0099  1.0652
 5480SOL    HW217340   0.388   5.357   1.752  0.9022  0.5123 -1.4992
 5481SOL     OW17341   5.075   0.860   3.922  0.3812 -0.1162 -0.0674
 5481SOL    HW117342   5.115   0.890   3.836  0.1059  0.7160  0.0837
 5481SOL    HW217343   5.068   0.938   3.984 -0.8444 -0.3792  0.1519
 5482SOL     OW17344   3.368   5.439   3.207  0.5005 -0.3386  0.3222
 5482SOL    HW117345   3.345   5.461   3.112  0.5585  0.6437  0.5220
 5482SOL    HW217346   3.317   5.358   3.236 -0.1790 -0.1363 -0.2756
 5483SOL     OW17347   0.083   1.441   6.038  0.2816 -0.1136  0.8182
 5483SOL    HW117348   0.156   1.375   6.056  1.3736  0.7008 -0.4164
 5483SOL    HW217349   0.036   1.417   5.953 -0.3251 -0.1565  1.1635
 5484SOL     OW17350   4.378   6.533   3.979 -0.1716  0.4309  0.3531
 5484SOL    HW117351   4.278   6.534   3.986 -0.2686 -1.8766  0.1176
 5484SOL    HW217352   4.417   6.512   4.069  0.1626  1.8241  0.5584
 5485SOL     OW17353   3.257   1.355   3.810 -0.2795 -0.6431  0.2146
 5485SOL    HW117354   3.242   1.444   3.852 -1.0413  0.1099 -1.5677
 5485SOL    HW217355   3.354   1.344   3.789  0.3014 -1.4263  2.8783
 5486SOL     OW17356   1.902   5.324   3.768  0.3365 -0.2194  0.2892
 5486SOL    HW117357   1.998   5.305   3.789  0.7248  0.6926 -0.5883
 5486SOL    HW217358   1.884   5.304   3.672 -0.0795  0.5797  0.1901
 5487SOL     OW17359   2.122   2.872   5.895 -0.6059  0.2413  0.2514
 5487SOL    HW117360   2.207   2.912   5.928  0.8999 -1.7833 -0.9641
 5487SOL    HW217361   2.087   2.927   5.818 -0.6860  1.3458  1.0582
 5488SOL     OW17362   6.359   0.144   2.721 -0.2852  0.3242 -0.2495
 5488SOL    HW117363   6.390   0.062   2.674  0.7722 -1.7654  3.6253
 5488SOL    HW217364   6.425   0.218   2.706  0.7735 -0.7029 -0.8009
 5489SOL     OW17365   6.695   2.763   0.771 -0.5571  0.0109 -0.2604
 5489SOL    HW117366   6.631   2.802   0.838 -1.4692 -0.3592 -0.8939
 5489SOL    HW217367   6.749   2.837   0.732  0.9634  0.1007  1.8215
 5490SOL     OW17368   0.817   6.741   2.659  0.1952 -0.1080 -0.1246
 5490SOL    HW117369   0.852   6.786   2.741  0.3835  1.6576 -1.1082
 5490SOL    HW217370   0.721   6.766   2.645  0.1763 -0.3576 -0.4562
 5491SOL     OW17371   4.700   1.882   6.592 -0.9585  0.4331  0.1091
 5491SOL    HW117372   4.640   1.908   6.667 -0.0380  0.8051  0.7318
 5491SOL    HW217373   4.765   1.956   6.573 -0.0031 -0.3636  0.1612
 5492SOL     OW17374   5.979   2.995   5.476 -0.0036 -0.2981 -0.0979
 5492SOL    HW117375   6.078   3.005   5.490 -0.0160 -1.3949  0.9660
 5492SOL    HW217376   5.948   3.061   5.408  2.1881 -2.6585 -3.7415
 5493SOL     OW17377   4.062   3.131   2.561 -0.3879 -0.0237 -0.6975
 5493SOL    HW117378   4.136   3.099   2.503 -1.0137 -1.0914 -0.9380
 5493SOL    HW217379   4.072   3.229   2.578 -0.3673  0.3894 -2.8592
 5494SOL     OW17380   0.656   3.329   5.933 -0.3385 -0.2602 -0.2716
 5494SOL    HW117381   0.676   3.246   5.986  0.0294 -0.8971 -1.3569
 5494SOL    HW217382   0.569   3.368   5.963 -1.0144 -1.6072 -0.3912
 5495SOL     OW17383   4.584   2.149   1.147  0.1841 -0.3942 -0.1032
 5495SOL    HW117384   4.487   2.168   1.136  0.3584  2.2229  1.9131
 5495SOL    HW217385   4.603   2.117   1.240  1.4139  0.8271  0.1091
 5496SOL     OW17386   3.372   0.339   3.214  0.2923  0.2176  0.0915
 5496SOL    HW117387   3.332   0.252   3.184 -1.2070  0.9467 -0.1110
 5496SOL    HW217388   3.339   0.361   3.305  2.0371 -0.2404  0.8647
 5497SOL     OW17389   6.566   2.174   7.003 -0.1155  0.5501  0.1844
 5497SOL    HW117390   6.608   2.196   7.091 -0.4596 -0.4680  0.6135
 5497SOL    HW217391   6.616   2.100   6.959 -1.6317 -0.9814  0.8950
 5498SOL     OW17392   6.230   6.184   2.737  0.0173  0.2152  0.0050
 5498SOL    HW117393   6.248   6.085   2.739 -0.3332  0.1630  0.7539
 5498SOL    HW217394   6.167   6.205   2.663 -0.6162 -0.2465  0.4070
 5499SOL     OW17395   1.047   4.716   2.706  0.4372 -0.0361 -0.1917
 5499SOL    HW117396   1.049   4.672   2.796  1.5500 -0.6910 -0.5167
 5499SOL    HW217397   1.126   4.777   2.697  0.3293  0.0298 -0.7185
 5500SOL     OW17398   1.078   1.484   0.034 -0.8862  0.0692 -0.2388
 5500SOL    HW117399   1.123   1.411  -0.019 -0.7751 -0.3293  0.3892
 5500SOL    HW217400   0.988   1.502  -0.004 -0.9579 -0.4776 -0.3336
 5501SOL     OW17401   2.951   0.928   0.176 -0.2161 -0.0626  0.2341
 5501SOL    HW117402   2.862   0.927   0.222 -0.6608  0.9869 -0.5482
 5501SOL    HW217403   3.016   0.980   0.232 -0.2152 -0.4296  0.5818
 5502SOL     OW17404   5.651   5.376   6.021 -0.0003 -0.7469  0.6293
 5502SOL    HW117405   5.625   5.369   6.117  1.9066 -0.4448  1.2189
 5502SOL    HW217406   5.751   5.381   6.014 -0.0446 -1.7163 -1.4318
 5503SOL     OW17407   1.068   4.578   0.040  0.4265  0.2925  0.0101
 5503SOL    HW117408   1.025   4.491   0.064  2.1254 -0.3753  0.7603
 5503SOL    HW217409   1.016   4.621  -0.034 -2.0053 -0.0351  1.4089
 5504SOL     OW17410   4.211   1.917   6.630 -0.6312 -1.0843 -0.0884
 5504SOL    HW117411   4.298   1.951   6.664 -0.2684 -1.7465 -0.3490
 5504SOL    HW217412   4.140   1.985   6.647 -0.0084 -0.4075 -0.1494
 5505SOL     OW17413   2.309   5.363   3.817 -0.8219 -0.1341 -0.4508
 5505SOL    HW117414   2.399   5.326   3.797 -0.7603  0.2568 -0.9382
 5505SOL    HW217415   2.253   5.362   3.733 -0.0474  3.0020 -1.1622
 5506SOL     OW17416   5.737   1.354   6.802  0.2091 -0.6227 -0.5913
 5506SOL    HW117417   5.650   1.317   6.836  0.7820 -1.4883 -0.0240
 5506SOL    HW217418   5.719   1.421   6.730 -0.9406 -0.5049 -0.2106
 5507SOL     OW17419   4.578   2.903   6.016 -0.4152 -0.1937  0.1993
 5507SOL    HW117420   4.531   2.865   5.936  0.0517 -0.5408  0.0882
 5507SOL    HW217421   4.676   2.908   5.998  0.0149 -2.3516  1.5264
 5508SOL     OW17422   0.502   0.876   0.793 -0.1415 -0.2009 -0.1470
 5508SOL    HW117423   0.574   0.901   0.728 -0.7107  0.3249 -0.5904
 5508SOL    HW217424   0.413   0.900   0.754 -0.5193 -0.2951  0.6489
 5509SOL     OW17425   1.074   4.160   0.718 -0.0152  0.1914 -0.2068
 5509SOL    HW117426   1.085   4.073   0.766 -0.0351  0.8657  1.0725
 5509SOL    HW217427   1.077   4.145   0.619  1.5929 -1.0437  0.0014
 5510SOL     OW17428   6.186   5.732   5.110 -0.0507  0.1455  0.0101
 5510SOL    HW117429   6.135   5.772   5.186 -0.9376  0.3394 -0.6670
 5510SOL    HW217430   6.132   5.740   5.026  0.7269 -0.4482 -0.5607
 5511SOL     OW17431   1.534   0.655   5.691  0.0923  0.0005  0.0512
 5511SOL    HW117432   1.494   0.591   5.625 -1.4841 -0.3860  1.3098
 5511SOL    HW217433   1.596   0.717   5.644  1.2230 -2.0520 -1.3124
 5512SOL     OW17434   3.799   1.512   5.952 -0.3141  0.2713  0.0649
 5512SOL    HW117435   3.732   1.583   5.971 -0.8084 -0.5042  1.3731
 5512SOL    HW217436   3.879   1.526   6.010 -0.3269 -0.1000  0.1748
 5513SOL     OW17437   2.771   3.803   6.968 -0.2101 -0.0351  0.2731
 5513SOL    HW117438   2.836   3.779   6.895 -0.0180  0.0862  0.4032
 5513SOL    HW217439   2.700   3.733   6.974 -1.5924  1.1149 -1.6291
 5514SOL     OW17440   4.604   2.554   5.788  0.4013  0.4304 -0.8434
 5514SOL    HW117441   4.685   2.520   5.836  0.9170 -1.3114 -2.8235
 5514SOL    HW217442   4.630   2.590   5.698 -0.7226  2.2780 -0.4957
 5515SOL     OW17443   0.147   0.254   0.491 -0.3597 -0.3441 -0.1174
 5515SOL    HW117444   0.056   0.266   0.530 -0.5692  1.1157 -0.9718
 5515SOL    HW217445   0.195   0.342   0.492  0.4572 -0.7594 -1.0918
 5516SOL     OW17446   2.641   2.252   4.639 -0.6385 -0.8465  0.4099
 5516SOL    HW117447   2.720   2.268   4.579  1.1009 -2.1788  2.1876
 5516SOL    HW217448   2.570   2.319   4.620  1.6161  1.5394 -0.1207
 5517SOL     OW17449   1.412   2.721   1.931 -0.4714  0.1860  0.4422
 5517SOL    HW117450   1.349   2.674   1.994  1.3934 -0.8067  1.6723
 5517SOL    HW217451   1.386   2.701   1.837 -0.7867 -1.9228  0.9248
 5518SOL     OW17452   5.921   4.915   5.372 -0.0901 -0.0700 -0.2114
 5518SOL    HW117453   5.823   4.900   5.378 -0.1527 -0.2536 -1.4586
 5518SOL    HW217454   5.962   4.902   5.462 -1.5417  2.6712  0.9867
 5519SOL     OW17455   5.938   1.525   3.641  0.2191 -0.1633  0.1015
 5519SOL    HW117456   5.984   1.526   3.730 -1.2412 -1.5869  0.9123
 5519SOL    HW217457   5.943   1.434   3.601  0.0880  0.2444 -0.8814
 5520SOL     OW17458   4.269   0.850   4.026 -0.5494 -0.5408  0.2573
 5520SOL    HW117459   4.280   0.918   4.099 -0.1768  0.0006 -0.2887
 5520SOL    HW217460   4.214   0.774   4.059 -0.6481 -0.1545  1.0045
 5521SOL     OW17461   5.019   5.791   1.152 -0.6581  0.3481 -0.8427
 5521SOL    HW117462   4.922   5.814   1.139 -1.0380 -0.0173  0.9627
 5521SOL    HW217463   5.076   5.861   1.110 -1.6943  0.4525 -2.1359
 5522SOL     OW17464   0.439   6.179   2.265 -0.5732 -0.1228  0.3222
 5522SOL    HW117465   0.373   6.232   2.317 -1.2192 -0.3088 -0.2881
 5522SOL    HW217466   0.490   6.240   2.204 -0.6377 -0.0719  0.3196
 5523SOL     OW17467   5.762   1.698   2.045  0.0531 -0.0675  0.5526
 5523SOL    HW117468   5.678   1.644   2.046  0.8607 -1.3831 -0.5690
 5523SOL    HW217469   5.768   1.749   1.959 -0.7834  2.0412  1.6511
 5524SOL     OW17470   3.818   6.267   6.056 -0.3921 -0.1258  0.4394
 5524SOL    HW117471   3.751   6.205   6.097  0.9577 -0.8940  1.6121
 5524SOL    HW217472   3.906   6.256   6.103  0.5818  0.7968 -1.0721
 5525SOL     OW17473   0.536   1.833   0.583  0.2934 -0.3886 -0.5698
 5525SOL    HW117474   0.476   1.832   0.663  1.8635  0.0757  0.6557
 5525SOL    HW217475   0.600   1.910   0.590 -0.6139  0.7082 -3.1303
 5526SOL     OW17476   5.391   3.357   2.910 -0.0125 -0.7205 -0.7298
 5526SOL    HW117477   5.413   3.413   2.991 -1.9857 -0.5038 -0.2837
 5526SOL    HW217478   5.459   3.374   2.839 -0.9265  2.9839 -0.9459
 5527SOL     OW17479   5.540   3.489   3.137 -0.3363  0.4343 -0.1597
 5527SOL    HW117480   5.615   3.484   3.202 -0.0709 -0.7780 -0.5281
 5527SOL    HW217481   5.551   3.571   3.080  0.0600  0.8828  0.5511
 5528SOL     OW17482   6.765   5.348   1.846  0.3325 -0.0862 -0.3057
 5528SOL    HW117483   6.745   5.445   1.833  1.0511 -0.0213 -1.0372
 5528SOL    HW217484   6.692   5.293   1.805  0.1049  0.1464 -0.2154
 5529SOL     OW17485   1.846   1.402   6.079 -0.1753  0.0013 -0.3364
 5529SOL    HW117486   1.773   1.346   6.040 -2.9834  1.1960  2.6729
 5529SOL    HW217487   1.861   1.483   6.022  0.1245 -1.1244 -1.9083
 5530SOL     OW17488   5.691   1.729   1.084 -0.6099  0.2245 -0.3523
 5530SOL    HW117489   5.720   1.787   1.161  0.8122 -0.8929 -0.0142
 5530SOL    HW217490   5.770   1.684   1.044 -1.4914 -0.2040 -1.6925
 5531SOL     OW17491   5.213   1.737   0.499 -0.0232 -0.5228  0.0337
 5531SOL    HW117492   5.295   1.704   0.544 -0.3407  0.3329  1.2809
 5531SOL    HW217493   5.238   1.794   0.420  0.5475 -1.0828 -0.1964
 5532SOL     OW17494   2.315   2.164   1.597 -0.6191  0.0686 -0.3173
 5532SOL    HW117495   2.236   2.104   1.590 -0.7857  0.2321  0.0993
 5532SOL    HW217496   2.285   2.257   1.616 -0.4081  0.4667 -1.8387
 5533SOL     OW17497   5.558   1.232   3.572 -0.2062 -0.1029  0.7878
 5533SOL    HW117498   5.560   1.331   3.585 -1.4323 -0.0794  0.9046
 5533SOL    HW217499   5.566   1.186   3.661 -0.2411 -0.0930  0.7961
 5534SOL     OW17500   2.335   1.509   4.795 -0.7226 -0.4853  0.2150
 5534SOL    HW117501   2.298   1.514   4.887 -1.3402 -0.8689 -0.0081
 5534SOL    HW217502   2.345   1.413   4.768  0.8451 -0.4209  0.4223
 5535SOL     OW17503   2.289   2.767   2.533  0.1953 -0.2461 -0.0968
 5535SOL    HW117504   2.287   2.745   2.631 -0.5693  0.0627 -0.0284
 5535SOL    HW217505   2.305   2.684   2.480  0.8991 -0.3703  0.3021
 5536SOL     OW17506   4.136   0.039   2.969  0.2790 -0.0538  0.5567
 5536SOL    HW117507   4.227   0.033   2.929  0.6430 -1.4253  1.4978
 5536SOL    HW217508   4.100  -0.053   2.985 -1.6180  0.4476 -0.5041
 5537SOL     OW17509   3.666   2.135   2.603 -0.1572 -0.5284  0.0407
 5537SOL    HW117510   3.578   2.136   2.650  0.0795 -0.0738  0.4914
 5537SOL    HW217511   3.654   2.161   2.508 -0.3402  0.8652  0.4208
 5538SOL     OW17512   4.107   6.054   4.760 -0.6416 -0.0991  0.0229
 5538SOL    HW117513   4.178   6.065   4.830  0.2119 -0.9699 -0.6797
 5538SOL    HW217514   4.036   5.992   4.794 -0.1996 -0.5682  0.1073
 5539SOL     OW17515   1.144   4.504   6.082 -0.7389 -0.1095 -0.6570
 5539SOL    HW117516   1.142   4.568   6.006 -2.6122 -1.2437 -1.6079
 5539SOL    HW217517   1.238   4.470   6.095  0.2583  2.5449 -0.2790
 5540SOL     OW17518   4.631   4.516   3.126  0.0654 -0.0983 -0.2587
 5540SOL    HW117519   4.634   4.447   3.054 -0.7953  1.3809 -1.7900
 5540SOL    HW217520   4.537   4.547   3.139  0.0550 -0.9098  2.1499
 5541SOL     OW17521   4.926   1.740   6.915 -0.7747 -0.5109  0.4913
 5541SOL    HW117522   4.968   1.649   6.908  1.5053  0.5675 -0.8272
 5541SOL    HW217523   4.969   1.791   6.990  1.2017  0.9885 -1.5427
 5542SOL     OW17524   3.947   2.368   5.625  0.3474  0.0427  0.1258
 5542SOL    HW117525   3.964   2.404   5.533  0.0141 -0.9999 -0.3626
 5542SOL    HW217526   3.849   2.355   5.638  0.4972 -1.6971 -0.1444
 5543SOL     OW17527   6.004   4.514   6.539  0.4010 -0.4805  0.3969
 5543SOL    HW117528   5.956   4.569   6.471  1.6394  1.4864  1.0322
 5543SOL    HW217529   6.034   4.428   6.498  0.3175  0.2588 -1.2709
 5544SOL     OW17530   5.600   0.014   6.570 -0.0505 -0.1842  0.0148
 5544SOL    HW117531   5.504   0.005   6.594 -0.1427 -0.3039 -0.3961
 5544SOL    HW217532   5.641   0.089   6.623 -0.9085  1.3350 -1.3789
 5545SOL     OW17533   4.433   3.423   1.344  0.2218 -0.1935 -0.2650
 5545SOL    HW117534   4.360   3.393   1.405 -0.1638 -0.1217 -0.6885
 5545SOL    HW217535   4.396   3.440   1.252  0.4803  1.3127 -0.1119
 5546SOL     OW17536   2.013   5.161   6.541 -0.0025  0.3362  0.5580
 5546SOL    HW117537   2.067   5.221   6.600 -0.5102 -0.2083  1.5983
 5546SOL    HW217538   1.934   5.211   6.505 -1.5014 -0.1642  2.9494
 5547SOL     OW17539   4.272   5.862   4.042 -0.2770  0.1528  0.1897
 5547SOL    HW117540   4.265   5.763   4.051 -1.3045  0.1632 -0.3789
 5547SOL    HW217541   4.271   5.887   3.945  2.0242  0.6024  0.2142
 5548SOL     OW17542   6.557   2.231   5.635  0.0432  0.1088  0.6919
 5548SOL    HW117543   6.597   2.322   5.630 -1.0459  0.5938  0.5230
 5548SOL    HW217544   6.458   2.237   5.627  0.0040 -1.1679 -0.2147
 5549SOL     OW17545   3.269   4.650   5.608  0.5856 -0.2008  0.4714
 5549SOL    HW117546   3.242   4.734   5.560 -0.1953  0.4159  1.9380
 5549SOL    HW217547   3.239   4.571   5.554 -1.7350  0.4671  0.6453
 5550SOL     OW17548   1.980   7.006   0.384  0.2737  0.4363 -0.2535
 5550SOL    HW117549   2.022   7.079   0.438  0.8961 -0.8354  1.0571
 5550SOL    HW217550   1.914   6.956   0.441  1.1065 -1.0718 -0.5616
 5551SOL     OW17551   2.386   1.842   4.956  0.5336  0.6269 -0.2064
 5551SOL    HW117552   2.380   1.805   4.863  1.1551 -0.0029 -0.0100
 5551SOL    HW217553   2.428   1.933   4.953  0.6261  0.5751 -0.5382
 5552SOL     OW17554   6.493   2.995   6.890 -0.7986  0.4020  0.3609
 5552SOL    HW117555   6.592   3.010   6.898 -0.6103  0.1808 -1.3147
 5552SOL    HW217556   6.453   3.063   6.828 -1.4487 -0.3918 -0.1128
 5553SOL     OW17557   4.240   5.123   1.234 -0.0930  0.6907  0.5826
 5553SOL    HW117558   4.165   5.061   1.211  0.2163 -0.4007  2.2697
 5553SOL    HW217559   4.325   5.091   1.191 -0.3389  1.2033 -0.3003
 5554SOL     OW17560   1.694   2.263   4.243 -0.5442  0.1729 -0.2148
 5554SOL    HW117561   1.742   2.350   4.235 -0.8151  0.2882 -0.6276
 5554SOL    HW217562   1.708   2.210   4.159  0.4573 -0.6171  0.4190
 5555SOL     OW17563   0.880   6.283   3.088 -1.0586  0.0871 -0.1861
 5555SOL    HW117564   0.975   6.271   3.060 -0.7733 -1.5310  1.3612
 5555SOL    HW217565   0.866   6.378   3.115  0.5541  0.0156  1.0613
 5556SOL     OW17566   0.564   1.744   5.786  0.2771 -0.6637 -0.1618
 5556SOL    HW117567   0.589   1.774   5.694  0.1880  0.9566  0.2997
 5556SOL    HW217568   0.513   1.658   5.781  0.6417 -0.8195 -1.5787
 5557SOL     OW17569   3.814   6.317   1.600  0.5434 -0.2427  0.0893
 5557SOL    HW117570   3.816   6.287   1.505  1.3139 -3.3914  0.9914
 5557SOL    HW217571   3.874   6.397   1.611  1.0460 -0.2991 -1.8987
 5558SOL     OW17572   4.656   4.724   5.130 -0.1268 -0.1701 -0.0780
 5558SOL    HW117573   4.696   4.722   5.038  0.0496  0.8835 -0.0340
 5558SOL    HW217574   4.672   4.814   5.171 -0.9792 -0.3377  0.6391
 5559SOL     OW17575   0.657   2.019   0.853  0.3415 -0.1758 -0.4267
 5559SOL    HW117576   0.661   2.061   0.762  0.6432  2.5836  0.7496
 5559SOL    HW217577   0.750   1.992   0.881  0.3932 -0.1302 -0.5530
 5560SOL     OW17578   0.277   0.788   2.926 -0.1230  0.1685 -0.0632
 5560SOL    HW117579   0.326   0.822   2.846  0.4578  0.9056  0.5902
 5560SOL    HW217580   0.325   0.709   2.964  0.0644  0.3330  0.0437
 5561SOL     OW17581   1.499   5.595   3.909 -0.7423 -0.3105  1.0946
 5561SOL    HW117582   1.571   5.664   3.900 -1.0000 -0.1704 -0.0387
 5561SOL    HW217583   1.482   5.577   4.006  0.2083  0.2878  1.3883
 5562SOL     OW17584   2.314   2.455   6.639 -0.6175 -0.0177 -0.2796
 5562SOL    HW117585   2.281   2.397   6.714  0.9059  1.0873  1.2929
 5562SOL    HW217586   2.402   2.421   6.607  0.9618  2.1071  1.5708
 5563SOL     OW17587   5.303   5.963   3.674 -0.2244 -0.0583  0.3689
 5563SOL    HW117588   5.252   5.897   3.731  0.6791 -0.1350  1.1141
 5563SOL    HW217589   5.401   5.949   3.687 -0.0180  1.3232  0.4007
 5564SOL     OW17590   4.665   3.372   1.496  0.4401  0.1553 -0.1183
 5564SOL    HW117591   4.586   3.416   1.454 -2.4926 -1.6452  2.9835
 5564SOL    HW217592   4.672   3.278   1.463 -0.7526 -0.6788  1.8571
 5565SOL     OW17593   3.699   3.006   5.724 -0.0286  0.0729  0.9672
 5565SOL    HW117594   3.632   3.074   5.695 -0.8891 -0.8141  0.8414
 5565SOL    HW217595   3.747   2.971   5.644 -0.4667 -0.3712  0.8952
 5566SOL     OW17596   2.218   6.104   2.154 -0.1240  0.5091 -0.2693
 5566SOL    HW117597   2.233   6.048   2.073 -0.6547  1.0337 -0.7405
 5566SOL    HW217598   2.176   6.191   2.127  1.7890  1.6550  0.3027
 5567SOL     OW17599   2.562   5.679   0.548 -0.2613  0.1244 -0.1819
 5567SOL    HW117600   2.650   5.630   0.544 -1.2094 -1.6596 -0.3540
 5567SOL    HW217601   2.535   5.691   0.643  0.7567  1.8535 -0.0770
 5568SOL     OW17602   2.379   0.793   1.166  0.8122 -0.1156 -0.7474
 5568SOL    HW117603   2.371   0.890   1.192  2.4770 -0.2729  0.4925
 5568SOL    HW217604   2.451   0.783   1.098 -0.0641 -0.3792 -1.6618
 5569SOL     OW17605   4.937   1.911   2.194 -0.3610 -0.1394 -0.0879
 5569SOL    HW117606   4.933   1.896   2.095 -1.1322 -0.2300 -0.0442
 5569SOL    HW217607   4.908   1.829   2.242  1.8446 -0.7787  0.2680
 5570SOL     OW17608   1.044   5.574   5.662  0.3449  0.3964  0.0839
 5570SOL    HW117609   1.119   5.508   5.654  0.5442  0.4128  1.5250
 5570SOL    HW217610   1.065   5.655   5.606  1.4665  0.4533  0.5581
 5571SOL     OW17611   6.803   5.295   2.430 -0.1113 -0.2302  0.3929
 5571SOL    HW117612   6.793   5.383   2.384 -0.1632 -0.6058 -0.3304
 5571SOL    HW217613   6.840   5.309   2.522  2.1356  0.3846 -0.5425
 5572SOL     OW17614   3.818   1.651   4.959  0.4307 -0.0138  0.1523
 5572SOL    HW117615   3.727   1.611   4.973  0.0361  0.4262 -1.0112
 5572SOL    HW217616   3.875   1.631   5.038 -0.8046  0.0788  1.1090
 5573SOL     OW17617   1.966   4.375   1.442 -0.1430 -0.2933  0.0585
 5573SOL    HW117618   1.920   4.286   1.447  2.8578 -2.0046 -0.2664
 5573SOL    HW217619   2.065   4.361   1.451  0.4227  3.0780  0.1226
 5574SOL     OW17620   1.580   6.239   0.469  0.0854  0.2137 -0.1696
 5574SOL    HW117621   1.582   6.170   0.396  1.5163 -0.4010  0.4240
 5574SOL    HW217622   1.485   6.265   0.486 -0.3811 -0.5694 -1.3683
 5575SOL     OW17623   0.389   3.302   1.596 -0.1891 -0.1182  0.3969
 5575SOL    HW117624   0.473   3.293   1.543 -0.4306  0.3154 -0.0678
 5575SOL    HW217625   0.370   3.399   1.613 -0.8847 -0.1817  0.0290
 5576SOL     OW17626   6.270   5.911   1.414  0.8000  0.6649  0.1416
 5576SOL    HW117627   6.358   5.952   1.438  0.1689  1.9924  0.2220
 5576SOL    HW217628   6.201   5.982   1.402 -0.3060 -0.3583  0.1986
 5577SOL     OW17629   1.438   6.049   5.037  0.2905 -0.2710 -0.0705
 5577SOL    HW117630   1.372   6.119   5.063 -0.6310 -1.0649 -0.2092
 5577SOL    HW217631   1.519   6.056   5.095 -0.7226 -0.4886  1.4426
 5578SOL     OW17632   3.223   0.744   0.120 -0.4546 -0.0323  0.1823
 5578SOL    HW117633   3.205   0.841   0.132  0.8360  0.2470 -0.0360
 5578SOL    HW217634   3.155   0.706   0.057 -1.6505  0.4607  1.1332
 5579SOL     OW17635   5.688   3.633   6.290  0.2457  0.1317  0.4157
 5579SOL    HW117636   5.623   3.558   6.282 -0.4774  0.9161 -1.5761
 5579SOL    HW217637   5.762   3.620   6.224 -0.1852  1.4378 -0.3451
 5580SOL     OW17638   6.283   0.735   0.252 -0.3027  0.0632  0.2114
 5580SOL    HW117639   6.325   0.756   0.340  0.5606 -0.7317  0.0090
 5580SOL    HW217640   6.309   0.643   0.224 -0.8055  0.1962 -0.7418
 5581SOL     OW17641   1.129   0.517   5.908 -0.2547  0.5532  0.8319
 5581SOL    HW117642   1.193   0.444   5.927 -1.0057 -0.5144 -0.5466
 5581SOL    HW217643   1.082   0.499   5.822 -1.4366  1.9822  1.1257
 5582SOL     OW17644   3.164   3.001   3.970 -0.1822 -0.2604  0.2203
 5582SOL    HW117645   3.221   3.006   3.888  0.5733  1.1411  0.8044
 5582SOL    HW217646   3.222   2.992   4.051 -0.8966 -1.0395  0.6658
 5583SOL     OW17647   3.861   1.979   6.821  0.1304  0.0575  0.1405
 5583SOL    HW117648   3.818   1.900   6.777 -1.2472  0.4404  0.7269
 5583SOL    HW217649   3.934   2.014   6.763  1.4292 -2.2074  0.2886
 5584SOL     OW17650   6.129   4.816   1.921  0.1685  0.0165  0.4118
 5584SOL    HW117651   6.133   4.722   1.955 -0.1709  0.2106  1.0050
 5584SOL    HW217652   6.038   4.854   1.939 -0.5873 -0.3909 -2.1504
 5585SOL     OW17653   6.285   1.634   5.665 -0.1282  0.1461  0.3350
 5585SOL    HW117654   6.382   1.651   5.687 -0.2390  0.2571  0.7362
 5585SOL    HW217655   6.254   1.704   5.601  0.7701 -1.3620 -1.8691
 5586SOL     OW17656   0.687   0.346   4.781 -0.0853 -0.1848  0.0747
 5586SOL    HW117657   0.756   0.280   4.752 -1.6631 -1.4567 -0.9455
 5586SOL    HW217658   0.627   0.304   4.849 -0.4085  0.6017  0.2878
 5587SOL     OW17659   4.422   0.842   3.805 -0.2984  0.1864 -0.0035
 5587SOL    HW117660   4.372   0.863   3.889  0.2106  0.0017  0.3535
 5587SOL    HW217661   4.516   0.817   3.828 -0.1666  0.0923 -0.6275
 5588SOL     OW17662   3.682   6.796   6.825  0.2497 -0.3209 -0.6783
 5588SOL    HW117663   3.651   6.708   6.788  0.7640 -0.9905  0.4131
 5588SOL    HW217664   3.731   6.780   6.910 -1.0266  1.1567  0.3987
 5589SOL     OW17665   4.394   2.074   4.870 -0.2035  0.8229  0.1910
 5589SOL    HW117666   4.342   2.144   4.821  0.4732  1.1044 -0.1420
 5589SOL    HW217667   4.439   2.115   4.949  1.9188  1.2906 -1.1740
 5590SOL     OW17668   1.832   6.489   6.883  0.5412 -0.0437 -0.3245
 5590SOL    HW117669   1.872   6.398   6.890  1.4880  0.2889 -1.1049
 5590SOL    HW217670   1.732   6.483   6.889  0.6650 -0.7847  2.8570
 5591SOL     OW17671   4.720   5.796   6.972 -0.9961 -0.5236 -0.2311
 5591SOL    HW117672   4.634   5.844   6.954 -0.6680 -0.5219 -1.9099
 5591SOL    HW217673   4.739   5.730   6.899  0.3374 -0.6567  0.1930
 5592SOL     OW17674   1.755   2.594   2.530 -0.3256  0.2062 -0.0504
 5592SOL    HW117675   1.814   2.576   2.609 -0.3375  0.7088  0.0762
 5592SOL    HW217676   1.806   2.644   2.460 -0.7726  1.2218  0.3315
 5593SOL     OW17677   0.607   2.187   4.475 -0.1911  0.1123 -0.3771
 5593SOL    HW117678   0.640   2.269   4.522 -0.5612 -0.3188  0.6739
 5593SOL    HW217679   0.668   2.111   4.494 -0.8425 -0.2851  0.1942
 5594SOL     OW17680   3.261   6.955   1.103  0.7594  0.0133  0.1450
 5594SOL    HW117681   3.267   6.883   1.172  1.1539 -0.3973 -0.3122
 5594SOL    HW217682   3.299   6.922   1.017  0.7569  0.7018 -0.1249
 5595SOL     OW17683   1.762   1.090   0.140  0.2786 -0.3782  0.2943
 5595SOL    HW117684   1.839   1.029   0.159  0.0710 -0.6511  0.2619
 5595SOL    HW217685   1.678   1.037   0.130  0.3366 -0.2312 -1.1769
 5596SOL     OW17686   6.234   0.861   3.034 -0.8787 -0.2070  0.3316
 5596SOL    HW117687   6.210   0.765   3.025  1.2369 -0.8709  1.0548
 5596SOL    HW217688   6.316   0.869   3.092 -0.8387  1.9984  0.0394
 5597SOL     OW17689   5.300   7.007   5.778 -0.5914 -0.2597  0.1644
 5597SOL    HW117690   5.301   7.058   5.864 -0.4144  0.5566 -0.3027
 5597SOL    HW217691   5.369   7.045   5.716  2.0509 -3.3135  0.9919
 5598SOL     OW17692   1.031   1.608   3.552 -0.1471 -0.5399  0.2161
 5598SOL    HW117693   1.013   1.661   3.634 -0.4823  1.2791 -0.9638
 5598SOL    HW217694   0.976   1.524   3.553 -0.2983 -0.4343  1.7195
 5599SOL     OW17695   5.665   3.454   2.255  0.0197 -1.0417 -0.2654
 5599SOL    HW117696   5.644   3.394   2.177 -0.9821 -1.8695  0.6020
 5599SOL    HW217697   5.590   3.518   2.269  0.5925 -0.3067 -0.5042
 5600SOL     OW17698   2.371   2.133   3.273 -0.2957 -0.0629  0.6178
 5600SOL    HW117699   2.438   2.061   3.290 -0.5876 -0.1500  1.4186
 5600SOL    HW217700   2.368   2.152   3.175  0.9022 -0.0451  0.5682
 5601SOL     OW17701   4.539   3.930   6.411 -0.7865 -0.1994  0.2412
 5601SOL    HW117702   4.463   3.888   6.461 -1.6414 -0.2825 -1.0588
 5601SOL    HW217703   4.530   4.029   6.414 -0.9007 -0.2070  0.1778
 5602SOL     OW17704   1.122   5.123   4.357  0.1412 -0.2750  0.0816
 5602SOL    HW117705   1.184   5.046   4.373  2.6276  1.9384  2.1437
 5602SOL    HW217706   1.117   5.179   4.439 -1.6211  1.7670 -1.3161
 5603SOL     OW17707   4.245   0.941   5.739 -0.0389  0.0183 -0.3844
 5603SOL    HW117708   4.224   1.025   5.690 -2.0380 -0.8651 -1.1313
 5603SOL    HW217709   4.315   0.889   5.688  0.8344  0.9493 -0.1737
 5604SOL     OW17710   0.994   0.093   3.260 -0.7676 -0.2344 -0.1706
 5604SOL    HW117711   1.071   0.032   3.280 -1.5988 -1.8422 -1.6080
 5604SOL    HW217712   0.933   0.098   3.339 -0.9105 -1.6409 -0.1807
 5605SOL     OW17713   2.234   5.116   3.114  0.2039 -0.1217 -0.4772
 5605SOL    HW117714   2.185   5.067   3.186  0.3597 -0.4461 -0.5920
 5605SOL    HW217715   2.324   5.076   3.101  1.6018  2.1043  1.5779
 5606SOL     OW17716   4.188   1.867   0.834 -0.3525 -0.2288 -0.1623
 5606SOL    HW117717   4.143   1.950   0.866  0.3463  0.2503 -0.4095
 5606SOL    HW217718   4.118   1.800   0.808 -0.9334  0.6511 -0.9440
 5607SOL     OW17719   0.392   2.880   1.017  0.1895  0.3837  0.0675
 5607SOL    HW117720   0.328   2.865   0.941  0.7919 -1.3682 -0.1534
 5607SOL    HW217721   0.344   2.926   1.092 -1.3017 -0.6345 -0.1959
 5608SOL     OW17722   4.214   1.787   2.631  0.6649  0.0750  0.6752
 5608SOL    HW117723   4.272   1.829   2.699  0.5835 -0.1298  0.8741
 5608SOL    HW217724   4.139   1.737   2.677  0.1418  0.6120  0.4177
 5609SOL     OW17725   5.695   4.934   0.659 -0.0514 -0.0405 -0.3371
 5609SOL    HW117726   5.722   4.918   0.564  2.6427  1.0740  0.1609
 5609SOL    HW217727   5.771   4.911   0.720 -1.2879  0.4635  1.4654
 5610SOL     OW17728   5.944   3.517   1.642  0.5945  0.2418 -0.0858
 5610SOL    HW117729   5.938   3.520   1.542 -1.5747 -2.3163 -0.1595
 5610SOL    HW217730   5.871   3.574   1.681  0.0752 -0.4155 -0.0631
 5611SOL     OW17731   6.535   6.766   2.762  0.1876  0.3855 -0.0218
 5611SOL    HW117732   6.477   6.827   2.816  0.0922 -1.6741  2.4447
 5611SOL    HW217733   6.477   6.709   2.703  0.2770  2.5184 -2.2949
 5612SOL     OW17734   2.602   0.271   1.851 -0.1041  0.3173  0.2951
 5612SOL    HW117735   2.611   0.368   1.874  1.0695  0.0187  1.1900
 5612SOL    HW217736   2.691   0.226   1.860  0.0217 -0.2981 -2.8452
 5613SOL     OW17737   5.096   4.727   3.841  0.0006  0.2187  0.0448
 5613SOL    HW117738   5.079   4.802   3.905 -0.2757 -0.1420  0.4023
 5613SOL    HW217739   5.193   4.725   3.817  0.2357 -0.0599  0.9852
 5614SOL     OW17740   5.905   2.788   5.297 -0.0525  0.5276  0.0738
 5614SOL    HW117741   5.952   2.861   5.346  0.3881 -0.1092  0.6054
 5614SOL    HW217742   5.920   2.701   5.344 -1.2376  0.2163 -0.0963
 5615SOL     OW17743   1.677   4.344   1.971  0.2606 -0.4408 -0.0572
 5615SOL    HW117744   1.692   4.435   2.010  1.8659  0.5290 -2.7120
 5615SOL    HW217745   1.692   4.347   1.872 -3.3543 -2.8082 -0.8502
 5616SOL     OW17746   0.302   3.280   4.326 -0.1273  0.0911  0.3234
 5616SOL    HW117747   0.253   3.258   4.410 -0.4414 -1.4096 -0.2201
 5616SOL    HW217748   0.384   3.333   4.349 -2.0981  3.0023  1.2038
 5617SOL     OW17749   3.119   5.356   6.907  0.7160 -0.5855 -0.2782
 5617SOL    HW117750   3.085   5.387   6.996  0.0493  0.0429 -0.7425
 5617SOL    HW217751   3.188   5.419   6.874 -0.8343  0.6158 -1.3479
 5618SOL     OW17752   0.438   5.755   3.703  0.0650  0.1252  0.1263
 5618SOL    HW117753   0.446   5.837   3.646 -1.7872  0.5426  0.4083
 5618SOL    HW217754   0.349   5.712   3.688  0.0194 -0.4407  1.8008
 5619SOL     OW17755   3.751   3.490   4.097  0.3122 -0.1884  0.0581
 5619SOL    HW117756   3.762   3.429   4.176 -0.5012 -1.9171 -1.0866
 5619SOL    HW217757   3.729   3.582   4.128 -2.3404 -1.3068  1.8725
 5620SOL     OW17758   6.038   5.440   4.633 -0.2609  0.0998  0.2070
 5620SOL    HW117759   5.962   5.376   4.644 -0.7198  0.9877  2.7456
 5620SOL    HW217760   6.104   5.428   4.707  0.0921  1.9160  0.2502
 5621SOL     OW17761   0.551   4.421   6.515 -0.2371  0.1165  0.1677
 5621SOL    HW117762   0.610   4.432   6.435 -0.4717 -0.1762 -0.0483
 5621SOL    HW217763   0.456   4.413   6.485 -0.1509 -1.9987  0.3029
 5622SOL     OW17764   5.111   5.284   4.731  0.3424  0.6608 -0.1017
 5622SOL    HW117765   5.149   5.239   4.650  1.5337  0.9766  0.2665
 5622SOL    HW217766   5.030   5.337   4.705 -0.0154 -0.2388 -0.8543
 5623SOL     OW17767   0.212   6.682   5.014 -0.2882 -0.5378  0.0970
 5623SOL    HW117768   0.216   6.775   4.977  0.4005 -0.7681 -0.4281
 5623SOL    HW217769   0.303   6.655   5.046 -1.2671  0.6465  4.5453
 5624SOL     OW17770   0.164   5.012   5.357 -0.0646  0.2097  0.2424
 5624SOL    HW117771   0.203   5.096   5.319  0.6029 -0.1896  0.0223
 5624SOL    HW217772   0.185   5.007   5.455  0.8420 -0.2126  0.0400
 5625SOL     OW17773   0.780   5.619   3.984 -0.3030  0.0379  0.2257
 5625SOL    HW117774   0.851   5.549   3.978 -0.9805 -0.8057  1.5249
 5625SOL    HW217775   0.795   5.688   3.914  3.2519  1.2222  1.9199
 5626SOL     OW17776   2.224   3.788   5.192  0.2443 -0.4668  0.4687
 5626SOL    HW117777   2.236   3.727   5.270  2.9271 -0.4791  0.1543
 5626SOL    HW217778   2.304   3.849   5.186 -0.8252  0.8531 -1.1367
 5627SOL     OW17779   2.375   3.539   5.363 -0.0685 -0.1841 -0.8837
 5627SOL    HW117780   2.364   3.441   5.345  0.5518 -0.7177  1.3547
 5627SOL    HW217781   2.471   3.564   5.354 -0.0233 -0.0811 -0.1688
 5628SOL     OW17782   1.071   3.592   0.811  0.1606  0.0778  0.0427
 5628SOL    HW117783   1.107   3.500   0.827 -1.2359 -0.8357 -1.7325
 5628SOL    HW217784   1.099   3.624   0.721 -0.4961  0.8181  0.0907
 5629SOL     OW17785   5.116   2.383   1.670 -0.2667 -0.0061 -0.2402
 5629SOL    HW117786   5.075   2.294   1.652  0.6624 -0.4284 -0.3106
 5629SOL    HW217787   5.102   2.407   1.766 -0.2919 -0.3477 -0.1562
 5630SOL     OW17788   2.013   4.113   6.408  0.0229 -0.3125 -0.2935
 5630SOL    HW117789   1.985   4.206   6.432  0.4103 -0.5413  1.1264
 5630SOL    HW217790   1.999   4.098   6.310 -1.7639  0.6275 -0.2098
 5631SOL     OW17791   3.219   5.163   3.171 -0.0385 -0.3132 -0.0778
 5631SOL    HW117792   3.191   5.142   3.077 -2.0138  2.0168 -0.1220
 5631SOL    HW217793   3.286   5.096   3.202  0.9081 -0.9767 -3.2432
 5632SOL     OW17794   4.787   5.507   5.099 -0.2369 -0.0219  0.2306
 5632SOL    HW117795   4.827   5.563   5.172  0.0880  0.1056 -0.0419
 5632SOL    HW217796   4.723   5.442   5.139 -1.4069  1.2243  0.4600
 5633SOL     OW17797   6.890   6.843   5.993  0.2537  0.6823  0.0598
 5633SOL    HW117798   6.794   6.815   6.003  0.3876  0.1287 -0.1426
 5633SOL    HW217799   6.898   6.942   6.005  0.0244  0.4393  2.8142
 5634SOL     OW17800   3.244   6.702   6.458 -0.3226  0.6314 -0.3584
 5634SOL    HW117801   3.343   6.712   6.473  0.6820 -2.1653 -3.6624
 5634SOL    HW217802   3.216   6.610   6.485 -1.6337  0.7916 -1.0862
 5635SOL     OW17803   1.030   0.270   6.945  0.9516  0.8122  0.0661
 5635SOL    HW117804   1.103   0.336   6.961  0.6804  0.9097  0.9202
 5635SOL    HW217805   0.951   0.317   6.907  0.6442  1.0438  0.9751
 5636SOL     OW17806   0.295   2.524   0.085 -0.0148 -0.4355 -0.1652
 5636SOL    HW117807   0.225   2.554   0.020  0.0576 -1.1644 -0.5935
 5636SOL    HW217808   0.261   2.445   0.136  0.2736 -0.4236  0.0450
 5637SOL     OW17809   3.690   0.337   3.811 -0.9029 -0.2572  0.0827
 5637SOL    HW117810   3.647   0.332   3.721 -0.0608 -0.8942 -0.2992
 5637SOL    HW217811   3.756   0.262   3.820  0.5244  1.0023  0.4367
 5638SOL     OW17812   5.956   4.688   0.952  0.9345  0.1601 -0.1061
 5638SOL    HW117813   5.924   4.744   0.876 -1.0893 -0.3465  0.2968
 5638SOL    HW217814   6.004   4.746   1.018  0.1031  1.1784 -0.3593
 5639SOL     OW17815   6.817   0.785   1.489 -0.5053 -0.5649  0.4808
 5639SOL    HW117816   6.768   0.854   1.435 -0.1526  0.1238  1.0300
 5639SOL    HW217817   6.909   0.773   1.452 -0.2731 -0.1133  0.8943
 5640SOL     OW17818   3.404   5.090   4.824  0.0093  0.1926  0.2227
 5640SOL    HW117819   3.335   5.019   4.808 -0.8800  0.3867  2.8182
 5640SOL    HW217820   3.487   5.068   4.772 -0.7464 -1.9471 -0.1787
 5641SOL     OW17821   1.534   2.982   3.195  0.1183 -0.4116  0.1589
 5641SOL    HW117822   1.450   2.935   3.221 -0.6157  0.9691  0.3768
 5641SOL    HW217823   1.532   3.002   3.097  0.5447 -1.0494  0.0162
 5642SOL     OW17824   2.058   3.810   5.619  0.2427  0.4613  0.9739
 5642SOL    HW117825   2.154   3.798   5.593  0.2609  1.5969  0.4240
 5642SOL    HW217826   2.047   3.793   5.717  0.8476 -0.4417  0.8961
 5643SOL     OW17827   3.768   0.069   6.255  0.3066 -0.3120 -0.3940
 5643SOL    HW117828   3.691   0.009   6.273  0.4637 -0.6193 -0.7279
 5643SOL    HW217829   3.779   0.134   6.330  1.0531 -1.6642  0.7198
 5644SOL     OW17830   4.750   1.071   6.585 -0.3882 -0.1571 -0.5811
 5644SOL    HW117831   4.837   1.056   6.537  0.1885  0.4876  0.2286
 5644SOL    HW217832   4.764   1.061   6.683 -1.4047 -0.7964 -0.4916
 5645SOL     OW17833   6.385   5.524   2.957  0.4438 -0.7035  0.1919
 5645SOL    HW117834   6.420   5.613   2.987 -1.5036  1.4757 -3.3407
 5645SOL    HW217835   6.308   5.497   3.015 -0.7085  1.3672 -0.2737
 5646SOL     OW17836   6.069   6.927   3.563 -0.1752 -0.4247 -0.2265
 5646SOL    HW117837   6.068   6.896   3.468  0.3615  1.0089 -0.7223
 5646SOL    HW217838   6.158   6.907   3.604 -0.0670 -0.1569 -0.3311
 5647SOL     OW17839   5.302   4.245   6.975 -0.4572  0.0424  0.2115
 5647SOL    HW117840   5.380   4.264   7.034  1.1035 -1.0764 -1.3875
 5647SOL    HW217841   5.283   4.325   6.917 -0.0519  0.0855  0.1375
 5648SOL     OW17842   2.803   2.129   6.214  0.1268 -0.0827  0.3588
 5648SOL    HW117843   2.709   2.096   6.221 -0.4053  1.6098  2.0587
 5648SOL    HW217844   2.807   2.206   6.149  0.4206 -0.3705  0.0282
 5649SOL     OW17845   1.160   6.626   5.026 -0.4039  0.3551  0.3574
 5649SOL    HW117846   1.109   6.618   4.940  0.0032  0.1176  0.1395
 5649SOL    HW217847   1.189   6.536   5.056 -3.4587 -0.0807  2.5344
 5650SOL     OW17848   1.342   5.883   0.287 -0.8029 -0.5457  0.0593
 5650SOL    HW117849   1.306   5.873   0.194 -1.1029 -0.0930  0.1240
 5650SOL    HW217850   1.268   5.908   0.349 -0.1968  1.5663 -0.0120
 5651SOL     OW17851   6.736   0.460   2.097  0.3537 -0.6640  0.1009
 5651SOL    HW117852   6.709   0.549   2.134  0.4436 -0.3529 -0.5583
 5651SOL    HW217853   6.770   0.472   2.004  2.4147 -1.0749  0.7356
 5652SOL     OW17854   5.103   4.907   2.729 -0.3845 -0.5565  0.3069
 5652SOL    HW117855   5.071   4.814   2.712 -0.4198 -0.4550 -0.2038
 5652SOL    HW217856   5.178   4.905   2.795  0.5293 -1.0838 -0.7101
 5653SOL     OW17857   6.779   5.603   4.416 -0.9737  0.6191 -0.0180
 5653SOL    HW117858   6.812   5.691   4.449  0.9009  0.2343 -0.7475
 5653SOL    HW217859   6.776   5.538   4.492  0.2880  0.5862  0.0209
 5654SOL     OW17860   0.804   0.362   5.874  0.5607 -0.1087  1.1368
 5654SOL    HW117861   0.718   0.388   5.831  1.0383  0.2486  0.3932
 5654SOL    HW217862   0.881   0.401   5.823  1.2380 -1.7119  0.8702
 5655SOL     OW17863   0.976   3.368   2.721  0.1123  0.2458 -0.6067
 5655SOL    HW117864   1.065   3.386   2.679  1.3112 -2.2423  0.6286
 5655SOL    HW217865   0.920   3.314   2.658 -0.3856  1.3819 -1.1799
 5656SOL     OW17866   3.560   3.468   0.297 -0.6766 -0.4994  0.3573
 5656SOL    HW117867   3.637   3.506   0.246 -0.4135 -0.1268  1.0293
 5656SOL    HW217868   3.476   3.481   0.244 -0.5711  0.8824  0.4860
 5657SOL     OW17869   3.624   5.935   0.929 -0.0519  0.4439 -0.4960
 5657SOL    HW117870   3.648   6.032   0.922 -0.8963  0.5746 -2.2122
 5657SOL    HW217871   3.540   5.926   0.983  0.2190  0.6312 -0.0394
 5658SOL     OW17872   3.706   6.369   6.604  0.1742  0.0067 -0.2330
 5658SOL    HW117873   3.765   6.323   6.537 -0.0853  1.1492 -1.2873
 5658SOL    HW217874   3.634   6.307   6.633  1.7722 -1.3570  0.9492
 5659SOL     OW17875   3.303   3.371   2.428 -0.3505 -0.3915  0.5943
 5659SOL    HW117876   3.331   3.278   2.407 -0.0915 -0.7434  2.3337
 5659SOL    HW217877   3.378   3.420   2.473 -0.9312  0.2126  0.9308
 5660SOL     OW17878   4.213   1.070   5.388 -0.3877 -0.2346  0.8010
 5660SOL    HW117879   4.136   1.040   5.332  0.0169  0.5458 -0.2143
 5660SOL    HW217880   4.196   1.164   5.420  0.3333  0.1123  0.1880
 5661SOL     OW17881   1.121   4.232   4.033 -0.1671  0.0000  0.0387
 5661SOL    HW117882   1.129   4.328   4.009  0.9458 -0.0924  0.0157
 5661SOL    HW217883   1.034   4.196   3.998 -0.9114  1.1522  0.6529
 5662SOL     OW17884   1.438   5.371   5.249  0.7518  0.0401 -0.3894
 5662SOL    HW117885   1.478   5.391   5.160  0.4921  1.1312 -0.2737
 5662SOL    HW217886   1.344   5.405   5.253  1.0353  0.7772  0.5633
 5663SOL     OW17887   2.116   1.947   1.872 -0.3645 -0.5895 -0.5501
 5663SOL    HW117888   2.184   2.007   1.914 -1.4666  0.3539 -0.0549
 5663SOL    HW217889   2.105   1.865   1.928  0.9973 -1.1898 -1.1176
 5664SOL     OW17890   6.304   5.616   2.040  0.0951  0.7026  0.5055
 5664SOL    HW117891   6.268   5.625   2.132 -1.2230  1.3423 -0.0521
 5664SOL    HW217892   6.344   5.703   2.010 -0.0318  0.6740  0.2492
 5665SOL     OW17893   1.271   4.188   6.613 -0.3729 -0.3800  0.1624
 5665SOL    HW117894   1.211   4.200   6.534 -1.4334 -1.5053  0.7618
 5665SOL    HW217895   1.284   4.090   6.631  1.3081 -0.1546  0.3155
 5666SOL     OW17896   5.517   3.076   1.983 -0.3300  0.8446 -0.2284
 5666SOL    HW117897   5.532   2.980   1.960 -1.2180  0.7490 -0.4343
 5666SOL    HW217898   5.464   3.120   1.910 -2.1442  0.8436  1.0315
 5667SOL     OW17899   6.417   6.306   2.893  0.5745  0.3783  0.4889
 5667SOL    HW117900   6.350   6.266   2.831  0.5144  0.9719  0.1558
 5667SOL    HW217901   6.453   6.236   2.954 -0.2115  0.0137  0.5487
 5668SOL     OW17902   5.315   1.982   0.727  0.4989 -0.8635 -0.2459
 5668SOL    HW117903   5.311   1.886   0.698 -1.3688 -0.8968 -0.0225
 5668SOL    HW217904   5.334   1.986   0.825  0.5945 -0.9976 -0.2576
 5669SOL     OW17905   0.558   5.460   5.560  0.3037  0.5735 -0.0847
 5669SOL    HW117906   0.555   5.551   5.520  1.7212  0.8065  0.2718
 5669SOL    HW217907   0.546   5.466   5.659 -0.8916  0.2244 -0.1904
 5670SOL     OW17908   6.757   3.981   4.607  0.5105  0.0224 -0.0466
 5670SOL    HW117909   6.823   4.056   4.614  0.4133  0.2367 -1.1493
 5670SOL    HW217910   6.666   4.014   4.632  0.1938  0.7152 -1.9041
 5671SOL     OW17911   6.785   0.556   6.329  0.2064 -0.4221  0.6585
 5671SOL    HW117912   6.721   0.479   6.338 -1.0948  0.4072 -1.0039
 5671SOL    HW217913   6.749   0.634   6.381 -0.0484 -0.0234 -0.1015
 5672SOL     OW17914   5.629   4.337   5.423 -0.2441  0.7143 -0.2316
 5672SOL    HW117915   5.677   4.410   5.374 -0.9985  0.8940 -0.7169
 5672SOL    HW217916   5.532   4.339   5.399 -0.0867 -1.2443 -1.2475
 5673SOL     OW17917   1.245   1.107   2.787 -0.6288 -0.2607 -0.5075
 5673SOL    HW117918   1.321   1.134   2.728 -1.3179  1.8278 -0.5308
 5673SOL    HW217919   1.206   1.188   2.831 -1.3255 -1.5542  1.3888
 5674SOL     OW17920   7.002   3.222   0.474 -0.3745  0.3427 -0.1108
 5674SOL    HW117921   6.941   3.302   0.479 -3.0720 -1.6619  1.3856
 5674SOL    HW217922   7.004   3.188   0.380  1.2275  2.3769 -0.8857
 5675SOL     OW17923   4.071   2.961   6.903  0.7086  0.4685  0.4960
 5675SOL    HW117924   4.068   2.981   6.805  0.5830  1.3858  0.6735
 5675SOL    HW217925   4.125   2.879   6.919  2.7102  1.5745 -0.1746
 5676SOL     OW17926   3.591   0.725   1.841 -0.1172  0.2759  0.2158
 5676SOL    HW117927   3.504   0.741   1.794 -0.0098  1.6322  0.4345
 5676SOL    HW217928   3.667   0.751   1.780  0.2057 -1.7127 -0.3005
 5677SOL     OW17929   6.958   0.241   4.498  0.0067 -0.1487  0.5409
 5677SOL    HW117930   7.007   0.265   4.414  1.6033 -0.1405  1.4403
 5677SOL    HW217931   6.951   0.142   4.505  0.3611 -0.1680  0.6546
 5678SOL     OW17932   2.306   5.729   2.471 -0.1279 -0.6539 -0.6388
 5678SOL    HW117933   2.262   5.757   2.386 -0.2861  0.7739 -0.1177
 5678SOL    HW217934   2.297   5.630   2.482 -2.6374 -0.5207 -0.9016
 5679SOL     OW17935   0.674   6.292   5.294 -0.5894 -0.0023 -0.2267
 5679SOL    HW117936   0.742   6.354   5.255 -0.1756 -0.6186 -0.4861
 5679SOL    HW217937   0.633   6.237   5.221  0.8171 -1.7930  0.2617
 5680SOL     OW17938   3.336   5.265   0.986 -0.3001  0.1849 -0.0198
 5680SOL    HW117939   3.386   5.251   1.072  0.1035 -0.8096 -0.3988
 5680SOL    HW217940   3.245   5.225   0.993 -0.0972 -0.3150 -0.2101
 5681SOL     OW17941   6.937   3.277   5.799 -0.1484 -0.1524  0.3836
 5681SOL    HW117942   6.890   3.194   5.769  0.1824  0.0271 -0.6479
 5681SOL    HW217943   7.019   3.252   5.851 -0.5832 -0.4648  0.9303
 5682SOL     OW17944   1.685   3.313   6.415  0.6362 -0.3365  0.5530
 5682SOL    HW117945   1.741   3.272   6.488 -0.5678 -2.5552  0.3392
 5682SOL    HW217946   1.695   3.258   6.332 -0.8774 -0.0516  0.1642
 5683SOL     OW17947   2.637   3.483   5.883  0.3013 -0.1267  0.3630
 5683SOL    HW117948   2.726   3.492   5.927  0.5166 -1.7025  0.3066
 5683SOL    HW217949   2.564   3.506   5.948  0.7251  0.6817  0.5576
 5684SOL     OW17950   3.567   3.530   3.448  0.4300  0.3047 -0.4080
 5684SOL    HW117951   3.528   3.443   3.416 -0.3977  0.9324 -1.1583
 5684SOL    HW217952   3.497   3.582   3.497  1.3273 -0.0721  1.3676
 5685SOL     OW17953   1.662   1.869   2.186 -0.2647 -0.1195 -0.1704
 5685SOL    HW117954   1.572   1.824   2.188 -0.4786  0.3317  1.8057
 5685SOL    HW217955   1.732   1.807   2.221  0.1416 -0.2881 -1.2314
 5686SOL     OW17956   2.317   6.571   2.457 -0.9615  0.3853 -0.2323
 5686SOL    HW117957   2.279   6.542   2.545  0.7458 -0.2678  0.3285
 5686SOL    HW217958   2.268   6.525   2.383 -1.5845 -0.0534  0.4415
 5687SOL     OW17959   6.816   6.064   4.689 -0.1442 -0.2183 -0.6330
 5687SOL    HW117960   6.758   6.143   4.705 -0.1445 -0.2311 -0.5682
 5687SOL    HW217961   6.906   6.080   4.731  0.1818  0.1462 -1.4436
 5688SOL     OW17962   6.273   1.199   2.323  0.1252  0.2945 -0.5272
 5688SOL    HW117963   6.259   1.242   2.412  0.1422  0.2195 -0.4877
 5688SOL    HW217964   6.315   1.109   2.336 -0.4684  0.0073 -0.5657
 5689SOL     OW17965   3.374   0.905   5.975 -0.6422  0.4204 -0.2836
 5689SOL    HW117966   3.295   0.961   5.948  0.0235  0.2158 -2.9195
 5689SOL    HW217967   3.457   0.960   5.972 -0.1677 -0.3264 -1.5254
 5690SOL     OW17968   6.116   6.166   0.371 -0.0480 -0.0294 -0.2327
 5690SOL    HW117969   6.122   6.096   0.300  1.3553  0.8878 -1.0669
 5690SOL    HW217970   6.093   6.123   0.459 -1.5649 -1.2060 -1.1699
 5691SOL     OW17971   1.832   6.917   1.510  0.2399  0.6310  0.1303
 5691SOL    HW117972   1.753   6.971   1.540 -0.7381 -0.2410 -0.8081
 5691SOL    HW217973   1.854   6.848   1.579 -0.0327  0.6550  0.2423
 5692SOL     OW17974   6.066   1.395   6.377  0.0146 -0.4059 -0.1253
 5692SOL    HW117975   6.051   1.439   6.466  0.7854 -0.4063  0.0117
 5692SOL    HW217976   6.079   1.465   6.307  0.4773 -0.4055 -0.0428
 5693SOL     OW17977   5.772   2.793   2.936  0.3079  0.0143  0.1727
 5693SOL    HW117978   5.724   2.780   2.849 -0.3487  0.1875  0.4985
 5693SOL    HW217979   5.867   2.765   2.927  0.3764  0.5073 -0.7469
 5694SOL     OW17980   5.617   0.185   4.170  0.2402 -0.2109 -0.6094
 5694SOL    HW117981   5.539   0.127   4.194  0.3417 -0.2723 -0.4275
 5694SOL    HW217982   5.588   0.253   4.103 -0.7863  1.8521  1.7540
 5695SOL     OW17983   0.958   3.004   2.101 -0.2280  0.0716 -0.3940
 5695SOL    HW117984   0.954   3.101   2.076 -0.1204  0.5667  1.3463
 5695SOL    HW217985   0.932   2.948   2.023 -0.6666  1.5195 -1.3220
 5696SOL     OW17986   2.567   1.098   4.747 -0.3473 -0.1786  0.1981
 5696SOL    HW117987   2.547   1.000   4.739  1.1621 -0.5107  0.1687
 5696SOL    HW217988   2.507   1.139   4.816 -1.5763 -0.9292 -0.3800
 5697SOL     OW17989   5.884   1.008   6.907 -0.3878  0.0006 -0.0106
 5697SOL    HW117990   5.917   1.055   6.988 -0.2966  0.0987 -0.1055
 5697SOL    HW217991   5.932   1.041   6.826 -0.2864 -0.2915 -0.0720
 5698SOL     OW17992   3.226   3.154   0.347 -0.1689  0.0286  0.5320
 5698SOL    HW117993   3.229   3.105   0.434 -0.2281 -0.9138  0.0140
 5698SOL    HW217994   3.315   3.147   0.302 -0.1935  0.3524  0.4304
 5699SOL     OW17995   6.591   1.431   5.066 -0.2255 -0.1681  0.2701
 5699SOL    HW117996   6.573   1.527   5.088 -1.4113 -0.6200  1.3846
 5699SOL    HW217997   6.508   1.388   5.031 -0.4965 -1.4388  2.2983
 5700SOL     OW17998   3.222   5.762   6.413 -0.3207  0.4880 -0.3158
 5700SOL    HW117999   3.185   5.831   6.476 -0.1803  1.0131 -0.8019
 5700SOL    HW218000   3.245   5.680   6.464 -0.5495  0.7781  0.2662
 5701SOL     OW18001   1.907   0.624   3.620 -0.2116 -0.1280  0.0377
 5701SOL    HW118002   1.992   0.667   3.650 -0.6045  0.9962 -0.4353
 5701SOL    HW218003   1.829   0.681   3.644 -1.0480 -1.9687  2.0912
 5702SOL     OW18004   1.571   5.229   5.817  0.2851  0.1500  0.0906
 5702SOL    HW118005   1.638   5.267   5.881 -0.1910  0.4375  0.4200
 5702SOL    HW218006   1.479   5.241   5.853  0.1110 -1.3579  0.2242
 5703SOL     OW18007   2.523   4.102   6.090 -0.8469 -0.0069  0.3003
 5703SOL    HW118008   2.574   4.025   6.051 -1.5946  0.1870 -1.1331
 5703SOL    HW218009   2.571   4.187   6.072 -0.4352 -0.0441  1.1655
 5704SOL     OW18010   4.237   4.782   4.257  0.5196  0.2556  0.3692
 5704SOL    HW118011   4.200   4.827   4.338  1.8352  0.3089  0.9647
 5704SOL    HW218012   4.308   4.717   4.284  1.9507  1.2491 -0.7981
 5705SOL     OW18013   6.297   5.776   0.225  0.4162 -0.2036  0.1121
 5705SOL    HW118014   6.375   5.718   0.200  0.7228  0.6858 -1.0432
 5705SOL    HW218015   6.305   5.802   0.322  1.7452  0.1518 -0.0743
 5706SOL     OW18016   2.875   2.078   0.608 -0.2265 -0.4723  0.8685
 5706SOL    HW118017   2.902   2.010   0.540 -0.8453 -0.1288  0.2548
 5706SOL    HW218018   2.826   2.033   0.682  1.4430 -1.0096  1.6887
 5707SOL     OW18019   6.797   6.915   6.681 -0.0011  0.7433  0.2883
 5707SOL    HW118020   6.818   6.945   6.588  0.7768  2.9997  1.1413
 5707SOL    HW218021   6.698   6.901   6.690  0.1615 -2.7459 -1.7138
 5708SOL     OW18022   3.635   0.337   2.435 -0.0006  0.5222 -0.3433
 5708SOL    HW118023   3.662   0.243   2.416  0.9796  0.6004  0.5473
 5708SOL    HW218024   3.667   0.397   2.361  0.0689  0.2641 -0.5220
 5709SOL     OW18025   0.799   0.490   2.458 -0.0080  0.0343  0.0447
 5709SOL    HW118026   0.886   0.451   2.428 -0.5853 -0.6960 -0.7180
 5709SOL    HW218027   0.817   0.569   2.517  1.1711 -0.5981  0.5735
 5710SOL     OW18028   1.213   3.382   6.046 -0.1287  0.3012 -0.8808
 5710SOL    HW118029   1.300   3.429   6.039  1.9782 -3.1811 -0.4555
 5710SOL    HW218030   1.187   3.374   6.143 -2.0355  2.9435 -1.0624
 5711SOL     OW18031   5.808   2.459   3.804  0.4643  0.1060 -0.1901
 5711SOL    HW118032   5.842   2.491   3.716  1.2195 -1.8686 -0.6718
 5711SOL    HW218033   5.717   2.495   3.821 -0.0303 -0.1424 -2.1640
 5712SOL     OW18034   6.745   0.862   5.919  0.0294 -0.0520  0.3873
 5712SOL    HW118035   6.647   0.856   5.939 -0.0825  0.0061 -0.1373
 5712SOL    HW218036   6.764   0.945   5.868  0.3689 -0.0138  0.5721
 5713SOL     OW18037   6.596   4.046   0.652  0.0612 -0.2643  0.3925
 5713SOL    HW118038   6.677   4.096   0.683  0.0754  0.2831 -0.4815
 5713SOL    HW218039   6.536   4.029   0.730  0.9970 -0.6555  1.0470
 5714SOL     OW18040   2.153   1.581   0.692  0.2217  0.1967 -0.1062
 5714SOL    HW118041   2.156   1.597   0.594  1.2110  1.0238  0.0405
 5714SOL    HW218042   2.165   1.483   0.710 -1.0566 -0.1100 -0.8388
 5715SOL     OW18043   0.028   5.268   2.336  0.2068  0.1926 -0.5163
 5715SOL    HW118044  -0.069   5.267   2.360  0.3795 -0.2246  0.1633
 5715SOL    HW218045   0.059   5.363   2.327 -0.2584  0.3264 -0.7314
 5716SOL     OW18046   0.422   3.472   5.949 -1.1166 -0.0825 -0.0376
 5716SOL    HW118047   0.355   3.464   5.875 -1.4861  0.2841  0.2506
 5716SOL    HW218048   0.482   3.550   5.931  0.1325 -1.2154 -0.9905
 5717SOL     OW18049   1.207   6.039   1.698  0.2368 -0.3375 -0.1376
 5717SOL    HW118050   1.197   6.117   1.760  1.9564  1.5164 -2.0409
 5717SOL    HW218051   1.182   6.066   1.605 -1.9599 -2.9396 -0.4367
 5718SOL     OW18052   2.342   5.113   5.647 -0.2509  0.3474  0.3208
 5718SOL    HW118053   2.305   5.125   5.739  0.9696 -0.9088  1.0165
 5718SOL    HW218054   2.270   5.085   5.584 -0.4527 -2.7195  1.7676
 5719SOL     OW18055   3.011   0.918   6.717 -0.2145 -0.1146  0.6252
 5719SOL    HW118056   2.920   0.890   6.747 -0.2745 -1.5676 -0.7566
 5719SOL    HW218057   3.065   0.948   6.796 -1.1720 -1.3140  1.7729
 5720SOL     OW18058   2.921   5.619   6.177  0.3265  0.4285 -0.2657
 5720SOL    HW118059   3.000   5.679   6.167  1.7281 -1.5894 -2.3283
 5720SOL    HW218060   2.950   5.533   6.218 -1.0059 -0.0154 -0.2040
 5721SOL     OW18061   0.354   2.748   0.252  0.3823  0.2509 -0.6402
 5721SOL    HW118062   0.311   2.713   0.335  0.7772  0.1765 -0.4648
 5721SOL    HW218063   0.362   2.675   0.185 -1.3536  0.6612 -1.3469
 5722SOL     OW18064   6.185   0.753   6.025 -0.0799 -0.0741  0.8938
 5722SOL    HW118065   6.285   0.761   6.032  0.0567  0.7292 -1.0641
 5722SOL    HW218066   6.148   0.838   5.989 -1.0024 -1.5327 -1.9081
 5723SOL     OW18067   4.407   5.323   1.998  0.1030 -0.3217  0.1927
 5723SOL    HW118068   4.310   5.346   2.003 -0.0803 -0.8413 -0.8168
 5723SOL    HW218069   4.422   5.254   1.928  1.1799 -0.4011  0.4771
 5724SOL     OW18070   5.791   0.741   6.029  0.2793 -0.5811  0.1765
 5724SOL    HW118071   5.878   0.709   6.068  2.0762  1.4414 -1.9279
 5724SOL    HW218072   5.800   0.750   5.930 -2.3468 -0.2083 -0.0960
 5725SOL     OW18073   5.635   4.079   3.075  0.3072  0.2401 -0.0987
 5725SOL    HW118074   5.636   3.992   3.026  1.8080  0.7204 -0.9782
 5725SOL    HW218075   5.550   4.087   3.127 -0.4275 -1.1814 -1.0197
 5726SOL     OW18076   5.965   3.170   5.225 -0.4531  0.6535  0.0359
 5726SOL    HW118077   5.925   3.191   5.136  0.7157  0.4191 -0.5615
 5726SOL    HW218078   6.041   3.107   5.213 -1.5469 -1.0005  1.4167
 5727SOL     OW18079   0.882   1.385   3.570  0.3642 -0.0784 -0.0496
 5727SOL    HW118080   0.796   1.414   3.612 -0.3907  1.7836 -2.6519
 5727SOL    HW218081   0.872   1.292   3.535  0.2064 -0.7197  1.5966
 5728SOL     OW18082   6.497   2.918   5.162  0.3207  0.5918  0.3741
 5728SOL    HW118083   6.495   2.847   5.233 -2.8710  0.0410 -0.1220
 5728SOL    HW218084   6.498   3.008   5.204  0.5048  0.2712  1.0670
 5729SOL     OW18085   0.650   2.958   6.668  0.2393 -1.4125 -0.4746
 5729SOL    HW118086   0.747   2.934   6.674 -0.0727 -2.7851 -0.6724
 5729SOL    HW218087   0.599   2.910   6.739 -0.1798  0.0165  0.2106
 5730SOL     OW18088   1.700   4.659   4.200  0.1333  0.1729  0.0992
 5730SOL    HW118089   1.715   4.757   4.189  1.1536 -0.0030 -0.1423
 5730SOL    HW218090   1.629   4.629   4.136  0.1532  0.6673 -0.1583
 5731SOL     OW18091   0.883   0.676   2.683  0.8099 -0.7386 -0.2962
 5731SOL    HW118092   0.924   0.600   2.732  0.6466  0.9713  2.7567
 5731SOL    HW218093   0.949   0.751   2.675  0.2948 -0.3581 -1.2847
 5732SOL     OW18094   5.686   6.584   3.994  0.4439  0.1475 -0.2159
 5732SOL    HW118095   5.647   6.528   4.068 -0.5387 -0.5160 -1.2078
 5732SOL    HW218096   5.763   6.536   3.953  2.1576  1.2747  1.4631
 5733SOL     OW18097   4.264   6.910   6.441  0.1512  0.1509  0.2231
 5733SOL    HW118098   4.233   6.984   6.501  0.0860 -0.5031  1.0036
 5733SOL    HW218099   4.324   6.849   6.492  1.1714  0.3133 -0.7407
 5734SOL     OW18100   2.165   1.290   6.729 -0.3237  0.2133 -0.2417
 5734SOL    HW118101   2.238   1.246   6.782 -0.0639  0.1027 -0.6898
 5734SOL    HW218102   2.096   1.222   6.703 -1.4842  0.5972  1.6208
 5735SOL     OW18103   4.215   6.290   2.226  0.0202 -0.2814 -0.6581
 5735SOL    HW118104   4.295   6.236   2.201 -0.5313 -1.5164  0.1202
 5735SOL    HW218105   4.241   6.359   2.294  0.6909  0.3203 -1.5037
 5736SOL     OW18106   4.035   5.059   6.869 -0.4352  0.0155  0.6644
 5736SOL    HW118107   4.079   4.971   6.885 -0.9872 -0.4411 -0.2582
 5736SOL    HW218108   4.072   5.127   6.933  1.2089 -0.4665  0.2748
 5737SOL     OW18109   5.021   6.567   1.146 -0.1404  0.2919 -0.7938
 5737SOL    HW118110   4.935   6.543   1.102  0.2921 -0.5202 -1.2359
 5737SOL    HW218111   5.003   6.618   1.230 -1.0429  0.2387 -0.9473
 5738SOL     OW18112   3.011   0.658   5.856 -0.5854  0.2940 -0.3633
 5738SOL    HW118113   3.019   0.689   5.951  0.4036 -1.2613  0.1060
 5738SOL    HW218114   3.092   0.686   5.805 -0.1489 -0.6216 -0.1909
 5739SOL     OW18115   2.586   0.587   5.673 -0.2485 -0.1558  0.0698
 5739SOL    HW118116   2.633   0.530   5.606 -0.3237 -1.3178  0.9703
 5739SOL    HW218117   2.651   0.614   5.744  0.2967  2.6020 -1.3502
 5740SOL     OW18118   5.359   2.485   2.052  0.0537 -0.0733  0.0572
 5740SOL    HW118119   5.357   2.446   2.144 -0.1103  0.2159  0.1777
 5740SOL    HW218120   5.270   2.473   2.008  0.0563  0.0072  0.0293
 5741SOL     OW18121   0.319   4.610   3.474 -0.2448 -0.3795 -0.0200
 5741SOL    HW118122   0.231   4.614   3.522  0.2652 -0.6855  0.9867
 5741SOL    HW218123   0.381   4.551   3.525  0.8277  0.5212 -0.2398
 5742SOL     OW18124   3.058   4.978   4.116  0.7273  0.0404  0.0652
 5742SOL    HW118125   2.961   5.002   4.122  0.6469 -0.1565 -0.4396
 5742SOL    HW218126   3.076   4.931   4.030  0.8982 -1.6625  0.9996
 5743SOL     OW18127   3.256   6.249   4.769  0.3007 -0.5782  1.0648
 5743SOL    HW118128   3.321   6.288   4.703 -0.2212 -0.9510  0.3076
 5743SOL    HW218129   3.298   6.246   4.859  1.9527 -2.2183  0.3243
 5744SOL     OW18130   6.256   0.388   3.593  0.1494 -0.6893  0.0151
 5744SOL    HW118131   6.174   0.410   3.646  0.1693  1.4187 -0.7358
 5744SOL    HW218132   6.309   0.318   3.640 -1.5082 -1.2680  1.0748
 5745SOL     OW18133   1.702   4.303   2.854  0.3621  0.0138 -0.1244
 5745SOL    HW118134   1.704   4.237   2.929  0.6161  0.6262  0.4085
 5745SOL    HW218135   1.734   4.392   2.886 -2.0054  0.9861 -0.2603
 5746SOL     OW18136   2.894   1.532   2.282 -0.0006 -0.5816  0.2723
 5746SOL    HW118137   2.912   1.521   2.380 -0.4533  0.9846  0.5644
 5746SOL    HW218138   2.959   1.598   2.244  0.9670 -2.0650 -0.7892
 5747SOL     OW18139   1.379   5.861   2.265 -0.0449  0.7625  0.5151
 5747SOL    HW118140   1.434   5.939   2.236 -0.4848  1.2854  1.0525
 5747SOL    HW218141   1.388   5.849   2.364  0.3004 -0.0939  0.3889
 5748SOL     OW18142   0.419   6.931   0.790  0.0136 -0.1134 -0.9993
 5748SOL    HW118143   0.424   7.000   0.719 -1.8590  1.0459 -0.0919
 5748SOL    HW218144   0.352   6.861   0.765  1.3302 -1.2226 -1.5591
 5749SOL     OW18145   0.544   0.140   5.490  0.0403 -0.6884 -0.4356
 5749SOL    HW118146   0.621   0.134   5.427  0.2022 -0.4451 -0.2593
 5749SOL    HW218147   0.576   0.125   5.583  0.0381  0.4330 -0.2497
 5750SOL     OW18148   6.385   5.510   3.934 -1.3408  0.2088 -0.3567
 5750SOL    HW118149   6.470   5.478   3.892 -0.5209 -0.4456  1.6829
 5750SOL    HW218150   6.400   5.598   3.978 -1.8173  0.2614 -0.2934
 5751SOL     OW18151   2.561   4.371   5.351  0.0997 -0.2045 -0.2236
 5751SOL    HW118152   2.522   4.350   5.441  0.9315  0.1582  0.2281
 5751SOL    HW218153   2.497   4.341   5.280 -1.2386  0.7865  0.4916
 5752SOL     OW18154   5.398   0.593   2.748  0.5091  0.2387 -0.2239
 5752SOL    HW118155   5.340   0.608   2.829 -0.5288  0.8509 -1.0533
 5752SOL    HW218156   5.408   0.679   2.698  0.5860 -0.2705 -1.1030
 5753SOL     OW18157   3.471   3.017   5.162  0.0815  0.8482 -0.2251
 5753SOL    HW118158   3.543   3.051   5.102  1.0348 -2.7881 -1.4327
 5753SOL    HW218159   3.382   3.047   5.129  0.7473  0.8716 -2.1167
 5754SOL     OW18160   2.064   0.523   6.678 -0.3356 -0.0527 -0.5893
 5754SOL    HW118161   1.985   0.569   6.719 -0.1772 -1.6391  1.6823
 5754SOL    HW218162   2.053   0.424   6.687  1.4669 -0.3312 -1.1279
 5755SOL     OW18163   1.748   1.711   1.444  0.7143 -0.2763 -0.4195
 5755SOL    HW118164   1.847   1.713   1.459  0.8560  1.3442 -1.3903
 5755SOL    HW218165   1.701   1.730   1.530  1.1804 -2.1455  0.2972
 5756SOL     OW18166   0.126   6.906   1.669  0.1088  0.0927 -0.2918
 5756SOL    HW118167   0.063   6.964   1.618 -0.4547  1.4209  1.7902
 5756SOL    HW218168   0.204   6.960   1.701 -0.3434 -0.2443  1.5417
 5757SOL     OW18169   5.441   5.101   3.528  0.2075 -0.0339 -0.9756
 5757SOL    HW118170   5.395   5.178   3.482 -1.0164 -0.5076 -0.6006
 5757SOL    HW218171   5.389   5.017   3.512 -0.2513 -0.2395  1.1624
 5758SOL     OW18172   2.518   6.892   2.209  0.2441  0.3555 -0.3491
 5758SOL    HW118173   2.569   6.900   2.294 -1.7089  0.3161  0.8866
 5758SOL    HW218174   2.507   6.982   2.168 -1.2344  0.8052  0.9663
 5759SOL     OW18175   6.543   0.351   0.015 -0.0017 -0.0145 -0.4527
 5759SOL    HW118176   6.632   0.370  -0.027  0.2958 -0.4840 -0.0460
 5759SOL    HW218177   6.477   0.331  -0.057  0.7288 -1.7377 -0.7036
 5760SOL     OW18178   0.635   3.988   1.189 -0.5031 -0.4389 -0.7020
 5760SOL    HW118179   0.588   3.907   1.225  0.4316 -0.1399  1.3788
 5760SOL    HW218180   0.591   4.070   1.225 -0.0744 -0.0839 -0.9805
 5761SOL     OW18181   3.452   4.882   5.307 -0.2263  0.2312 -0.9650
 5761SOL    HW118182   3.358   4.904   5.333  0.1682  1.5352 -0.5617
 5761SOL    HW218183   3.478   4.937   5.227  0.4654  0.5065 -0.5598
 5762SOL     OW18184   4.554   4.074   1.464 -0.3019  0.6874  0.1838
 5762SOL    HW118185   4.571   4.162   1.419 -0.1945  1.2111  1.2224
 5762SOL    HW218186   4.563   4.085   1.563 -1.4257 -0.2473  0.4042
 5763SOL     OW18187   3.999   6.646   0.596 -0.1385 -0.5932  0.2411
 5763SOL    HW118188   4.010   6.559   0.548  1.3225 -0.6158  0.5810
 5763SOL    HW218189   4.046   6.718   0.545 -0.2321 -0.2484  0.6411
 5764SOL     OW18190   3.054   6.204   3.728 -0.2139  0.2415  0.4690
 5764SOL    HW118191   2.960   6.228   3.705 -0.4703 -0.6683  0.5072
 5764SOL    HW218192   3.065   6.204   3.828  0.2929  1.9946  0.4352
 5765SOL     OW18193   0.104   3.095   6.276  0.0054  0.0454  0.0477
 5765SOL    HW118194   0.068   3.009   6.239 -2.4817  0.0605  2.1876
 5765SOL    HW218195   0.173   3.076   6.346  2.4126 -0.0240 -2.1839
 5766SOL     OW18196   0.662   2.214   5.361 -0.1670 -0.6166  0.3592
 5766SOL    HW118197   0.590   2.245   5.299 -0.7640 -0.7880  0.9657
 5766SOL    HW218198   0.723   2.290   5.382  0.4616 -0.7123 -0.9909
 5767SOL     OW18199   1.844   0.511   0.499 -0.4593  0.2314  0.1063
 5767SOL    HW118200   1.802   0.460   0.574  0.9647 -0.2025  0.6441
 5767SOL    HW218201   1.874   0.601   0.532 -2.0146  1.0264 -0.5765
 5768SOL     OW18202   6.459   0.786   4.582  0.3959 -0.0256 -0.0534
 5768SOL    HW118203   6.543   0.741   4.611 -0.8546 -2.5196  0.0492
 5768SOL    HW218204   6.455   0.878   4.621  1.9765 -0.7118  1.9327
 5769SOL     OW18205   1.264   6.460   5.538  0.0673  0.7526 -0.0608
 5769SOL    HW118206   1.222   6.419   5.457  1.4812  0.4326 -0.6608
 5769SOL    HW218207   1.202   6.452   5.615 -1.1414  0.6953 -1.0111
 5770SOL     OW18208   2.823   4.459   5.397  0.4130 -0.3855 -0.0868
 5770SOL    HW118209   2.853   4.495   5.309  0.9323 -0.6059 -0.0028
 5770SOL    HW218210   2.724   4.446   5.396  0.5568 -1.7033 -1.1387
 5771SOL     OW18211   2.284   5.564   3.412  0.5967 -0.0921 -0.0853
 5771SOL    HW118212   2.202   5.603   3.371 -0.7473 -1.1333  1.4854
 5771SOL    HW218213   2.365   5.604   3.369 -0.6986  2.3733 -0.4049
 5772SOL     OW18214   5.872   0.878   2.702  0.1417 -0.0297 -1.0296
 5772SOL    HW118215   5.948   0.817   2.724 -0.5329  0.2772  2.8664
 5772SOL    HW218216   5.790   0.823   2.685 -1.3798 -0.7887  5.8936
 5773SOL     OW18217   4.663   1.844   4.334 -0.1008  0.1835 -0.9245
 5773SOL    HW118218   4.666   1.842   4.434 -0.0007  2.0997 -0.8517
 5773SOL    HW218219   4.592   1.781   4.302 -3.0819  2.4981  0.6068
 5774SOL     OW18220   0.896   6.882   4.468  0.5514  0.2667 -0.3512
 5774SOL    HW118221   0.951   6.936   4.404 -0.7270  0.4928 -1.3026
 5774SOL    HW218222   0.820   6.840   4.419 -1.2723  1.5429  1.2407
 5775SOL     OW18223   2.107   5.604   4.671  0.1853  0.3089  0.4369
 5775SOL    HW118224   2.178   5.672   4.689 -0.0609  1.0146 -1.0567
 5775SOL    HW218225   2.140   5.539   4.602 -0.3152  0.1316  0.3600
 5776SOL     OW18226   1.950   6.854   3.503  0.2264 -0.1252  0.2068
 5776SOL    HW118227   2.009   6.927   3.468  1.1030 -0.6706  0.5085
 5776SOL    HW218228   2.007   6.775   3.529 -0.5340 -0.2630  1.5215
 5777SOL     OW18229   2.541   0.826   4.740  1.1777  0.0250  0.0488
 5777SOL    HW118230   2.624   0.836   4.684  3.7337  0.7469  3.6308
 5777SOL    HW218231   2.559   0.762   4.815 -1.5635  0.1902  0.9478
 5778SOL     OW18232   0.493   1.777   6.916  0.0281 -0.1542 -0.5855
 5778SOL    HW118233   0.409   1.830   6.905  0.2101  0.2581 -0.0483
 5778SOL    HW218234   0.544   1.811   6.995  0.2949 -0.9453 -0.4081
 5779SOL     OW18235   4.000   2.234   6.116 -0.2595 -0.4364 -0.6888
 5779SOL    HW118236   3.949   2.319   6.119  1.8960  0.9734  2.8626
 5779SOL    HW218237   4.063   2.235   6.038 -1.0127  0.7331 -1.3028
 5780SOL     OW18238   0.643   6.430   6.033 -0.2357 -0.3739 -0.0545
 5780SOL    HW118239   0.727   6.376   6.038  0.0170 -0.2083 -1.6977
 5780SOL    HW218240   0.563   6.369   6.035 -0.1142 -0.5206  1.6667
 5781SOL     OW18241   6.739   6.584   3.973 -0.1150 -0.0986 -0.1956
 5781SOL    HW118242   6.700   6.502   4.014  2.5427 -0.6135  1.5910
 5781SOL    HW218243   6.775   6.643   4.046  2.8308  0.0167 -1.6173
 5782SOL     OW18244   1.475   0.544   2.690  0.1890 -0.0059  0.1006
 5782SOL    HW118245   1.545   0.603   2.650  0.8332  0.7739  2.2453
 5782SOL    HW218246   1.518   0.474   2.746 -0.7048  1.0107  2.1622
 5783SOL     OW18247   2.161   0.287   2.428 -0.2420  0.2256 -0.3688
 5783SOL    HW118248   2.133   0.377   2.395  0.3551  0.3951 -0.4289
 5783SOL    HW218249   2.105   0.261   2.507 -2.7512 -0.8396 -2.3474
 5784SOL     OW18250   0.060   5.639   6.872 -1.0671  0.0494 -0.0808
 5784SOL    HW118251   0.029   5.544   6.867 -3.1963  0.6660  0.2752
 5784SOL    HW218252   0.130   5.648   6.943 -0.3961 -1.3432 -0.5363
 5785SOL     OW18253   0.178   2.354   6.655 -0.3749 -0.4079  0.2321
 5785SOL    HW118254   0.249   2.295   6.694 -1.1244 -0.8310  0.9858
 5785SOL    HW218255   0.139   2.412   6.726 -0.9047 -0.3021 -0.1353
 5786SOL     OW18256   6.242   3.923   0.766  0.7097  0.2059  0.3162
 5786SOL    HW118257   6.239   3.965   0.676  1.1501  1.9485  1.0825
 5786SOL    HW218258   6.154   3.936   0.812  0.5042 -0.6309  0.1843
 5787SOL     OW18259   1.064   2.512   0.392  0.2067 -0.5862  0.3056
 5787SOL    HW118260   1.011   2.558   0.463 -0.7330  0.5965 -1.0852
 5787SOL    HW218261   1.021   2.425   0.368  0.3549 -0.8402  0.9532
 5788SOL     OW18262   2.832   0.080   3.057 -0.1291  0.3181  0.0372
 5788SOL    HW118263   2.779   0.071   2.972 -0.9539  1.5410  0.3967
 5788SOL    HW218264   2.870   0.172   3.063  2.5025 -0.6498 -0.4317
 5789SOL     OW18265   4.118   4.642   0.100 -0.0316 -0.5779 -0.3371
 5789SOL    HW118266   4.218   4.634   0.099  0.0464 -0.1928  1.1993
 5789SOL    HW218267   4.078   4.552   0.122  0.2184 -0.0227  3.0130
 5790SOL     OW18268   6.785   4.377   4.081  0.1995 -0.1924  0.3582
 5790SOL    HW118269   6.728   4.384   3.999  2.8956 -2.0846 -1.8692
 5790SOL    HW218270   6.811   4.469   4.111  0.5412  0.5652 -2.0230
 5791SOL     OW18271   3.393   0.512   1.923  0.2439  0.2942 -0.0243
 5791SOL    HW118272   3.404   0.413   1.914 -0.6842  0.2470 -0.7918
 5791SOL    HW218273   3.475   0.558   1.886 -0.3479 -0.1402 -2.0096
 5792SOL     OW18274   0.852   2.803   3.502 -0.3497  0.2246  0.4057
 5792SOL    HW118275   0.935   2.794   3.557 -0.3392  1.7046  0.6855
 5792SOL    HW218276   0.822   2.713   3.471  2.0211 -0.2738 -0.6761
 5793SOL     OW18277   4.240   1.251   4.822 -0.4622 -0.4168  0.0791
 5793SOL    HW118278   4.201   1.289   4.906  2.4782 -1.1257  1.9457
 5793SOL    HW218279   4.301   1.319   4.781 -1.4336 -0.2903 -1.2010
 5794SOL     OW18280   3.834   1.867   0.419 -0.1039 -0.3650  0.3316
 5794SOL    HW118281   3.765   1.840   0.352  0.5207 -0.0446 -0.4646
 5794SOL    HW218282   3.840   1.967   0.423  2.2172 -0.2980 -1.7322
 5795SOL     OW18283   4.920   4.960   6.850 -0.8288  0.1997 -0.1740
 5795SOL    HW118284   4.927   4.863   6.830 -0.0269  0.2406 -0.1468
 5795SOL    HW218285   5.001   5.007   6.815 -0.2518  0.5426  1.5105
 5796SOL     OW18286   4.295   0.896   6.694  0.0121  0.0840  0.1620
 5796SOL    HW118287   4.222   0.839   6.730  0.5228 -1.2466 -0.8029
 5796SOL    HW218288   4.259   0.953   6.619 -0.7742  1.9884  1.8962
 5797SOL     OW18289   4.214   1.224   4.342  0.5697 -0.0777 -0.2433
 5797SOL    HW118290   4.252   1.312   4.314 -0.1841  0.2290 -0.3378
 5797SOL    HW218291   4.125   1.239   4.386  0.0231 -0.8529 -1.0439
 5798SOL     OW18292   0.499   5.015   5.930  0.0935  0.3199  0.5013
 5798SOL    HW118293   0.479   4.917   5.926  0.1062  0.3202  0.4199
 5798SOL    HW218294   0.462   5.060   5.848  0.9280  0.2301  0.0586
 5799SOL     OW18295   5.609   2.800   3.147  0.8281 -0.0951  0.0652
 5799SOL    HW118296   5.602   2.705   3.179 -0.7998 -0.6439 -1.6595
 5799SOL    HW218297   5.673   2.804   3.070 -1.0025 -0.3970 -1.5674
 5800SOL     OW18298   4.186   5.895   0.512 -0.7298  0.0641 -0.3813
 5800SOL    HW118299   4.181   5.963   0.439  0.4124 -1.4785 -1.9757
 5800SOL    HW218300   4.234   5.934   0.590 -0.1084  1.0917 -1.2457
 5801SOL     OW18301   2.037   2.793   4.553 -0.0518  0.1632 -0.4122
 5801SOL    HW118302   2.063   2.882   4.591 -2.4408  0.0859  1.7055
 5801SOL    HW218303   2.003   2.804   4.460  1.4406  1.1395 -0.8727
 5802SOL     OW18304   6.138   4.024   5.927  0.0815  0.3574 -0.8443
 5802SOL    HW118305   6.049   4.069   5.920  0.0981  0.5199 -0.1543
 5802SOL    HW218306   6.160   3.979   5.841 -1.4200 -1.1068 -0.5110
 5803SOL     OW18307   0.610   4.674   0.768 -0.2832  0.1988 -0.1506
 5803SOL    HW118308   0.524   4.652   0.816  0.2381  0.2700  0.8431
 5803SOL    HW218309   0.681   4.609   0.795 -0.2159 -0.3786 -1.6071
 5804SOL     OW18310   5.279   3.081   4.582  0.0175  0.2225 -0.2607
 5804SOL    HW118311   5.339   3.000   4.581 -1.3051 -0.8620  1.9811
 5804SOL    HW218312   5.185   3.052   4.564 -0.4118  1.3503  0.1244
 5805SOL     OW18313   6.128   4.285   1.512  0.1845 -0.2429 -0.0070
 5805SOL    HW118314   6.175   4.328   1.435  0.4728  1.3129  1.0174
 5805SOL    HW218315   6.030   4.282   1.492  0.2325  0.3178 -0.3596
 5806SOL     OW18316   0.258   6.016   0.041  0.1620  0.2537 -0.0799
 5806SOL    HW118317   0.236   6.083  -0.029 -0.8138 -0.2097 -0.2395
 5806SOL    HW218318   0.199   6.031   0.121  0.9120  0.4626  0.4410
 5807SOL     OW18319   3.717   3.991   0.373 -0.2096 -0.7857 -0.1840
 5807SOL    HW118320   3.787   4.015   0.305  0.6803 -1.0673  0.6024
 5807SOL    HW218321   3.742   4.032   0.461 -1.8555  0.4057 -0.2303
 5808SOL     OW18322   6.255   3.152   3.445  0.3552  0.1416  0.8542
 5808SOL    HW118323   6.183   3.180   3.381 -0.8483 -1.5809  1.3707
 5808SOL    HW218324   6.340   3.139   3.396 -0.3973 -0.5505 -0.3174
 5809SOL     OW18325   0.311   2.800   4.315  0.3963  0.0027 -0.5166
 5809SOL    HW118326   0.242   2.853   4.364 -0.9613 -2.9920  1.0841
 5809SOL    HW218327   0.385   2.776   4.379  1.5786  0.8343 -1.5114
 5810SOL     OW18328   2.415   6.959   2.813  0.0961  0.6184 -0.4076
 5810SOL    HW118329   2.496   7.008   2.781  0.5862  1.2405  1.5917
 5810SOL    HW218330   2.334   6.993   2.764  0.8194  1.2290 -1.2146
 5811SOL     OW18331   4.272   5.891   3.533  0.5143  0.3176 -0.1925
 5811SOL    HW118332   4.298   5.801   3.569 -0.4358  0.2935  0.4559
 5811SOL    HW218333   4.299   5.962   3.597  0.6404  0.4400 -0.3812
 5812SOL     OW18334   5.513   6.787   3.562  0.0250  0.0196 -0.7128
 5812SOL    HW118335   5.431   6.740   3.529 -0.7755  0.7806  0.1250
 5812SOL    HW218336   5.500   6.814   3.657  2.6986 -3.1468  0.7736
 5813SOL     OW18337   2.514   6.405   6.170 -0.2500 -0.3393  0.5556
 5813SOL    HW118338   2.542   6.326   6.116 -0.1346  0.2503 -0.2751
 5813SOL    HW218339   2.439   6.452   6.124  1.6057  1.7384 -0.5814
 5814SOL     OW18340   0.405   2.874   1.653 -0.3220  0.3452  0.1017
 5814SOL    HW118341   0.350   2.862   1.735  1.2069 -0.1382  1.0994
 5814SOL    HW218342   0.484   2.813   1.656 -0.6703 -0.2955 -2.1422
 5815SOL     OW18343   2.888   2.106   4.040 -0.1974 -0.1642  0.1464
 5815SOL    HW118344   2.839   2.187   4.072  0.1958  0.3128 -0.4564
 5815SOL    HW218345   2.831   2.056   3.975  0.3645  0.7822 -1.1178
 5816SOL     OW18346   5.047   6.798   0.843 -0.6073 -0.1706 -0.2636
 5816SOL    HW118347   5.130   6.842   0.808 -0.4271 -0.2066  0.1124
 5816SOL    HW218348   5.053   6.789   0.942 -1.4361  0.6029 -0.1258
 5817SOL     OW18349   4.727   3.484   6.092 -0.3376  0.5219  0.4371
 5817SOL    HW118350   4.780   3.427   6.154 -0.5461  2.0663  2.1277
 5817SOL    HW218351   4.638   3.504   6.133 -0.5892  1.3724 -0.4816
 5818SOL     OW18352   0.213   5.793   3.921 -0.0764 -0.3704 -1.0187
 5818SOL    HW118353   0.170   5.818   4.007  3.0975  0.3710  0.4913
 5818SOL    HW218354   0.240   5.697   3.923  2.1207  0.1878 -0.0614
 5819SOL     OW18355   3.889   0.327   0.016  0.3430 -0.6594 -0.1324
 5819SOL    HW118356   3.844   0.248   0.057 -0.0100  0.0310  0.8603
 5819SOL    HW218357   3.822   0.400   0.002  1.0212  0.1838  0.8546
 5820SOL     OW18358   2.980   5.795   3.640  0.1991  0.4005  0.1878
 5820SOL    HW118359   3.018   5.740   3.566 -0.5852  1.8923 -1.3855
 5820SOL    HW218360   3.052   5.854   3.678 -0.2530  2.8992 -2.4894
 5821SOL     OW18361   6.836   6.856   1.942 -0.1161 -0.0939 -0.1656
 5821SOL    HW118362   6.914   6.827   1.997 -0.4267  0.3441  0.5190
 5821SOL    HW218363   6.868   6.897   1.857  0.4208  0.5793  0.3542
 5822SOL     OW18364   0.993   1.564   0.328 -0.4230 -0.1308 -0.3013
 5822SOL    HW118365   1.044   1.510   0.262  1.3334  2.0931 -0.8921
 5822SOL    HW218366   0.924   1.619   0.281  0.4942  1.0851 -0.2636
 5823SOL     OW18367   6.965   0.574   0.045  0.2661 -0.1195  0.1209
 5823SOL    HW118368   6.881   0.534   0.010 -0.9623  0.3357  2.4040
 5823SOL    HW218369   6.991   0.529   0.131  1.6976  0.5533  0.0766
 5824SOL     OW18370   5.875   5.397   4.176  0.4523  0.2851  0.2174
 5824SOL    HW118371   5.846   5.316   4.125  0.8792 -0.5858  1.3076
 5824SOL    HW218372   5.918   5.462   4.113  2.9821 -1.6827 -0.2855
 5825SOL     OW18373   1.695   1.832   4.769 -0.1094 -0.7791 -0.0214
 5825SOL    HW118374   1.738   1.763   4.827  1.2611  0.5811  0.6561
 5825SOL    HW218375   1.685   1.917   4.820  0.3674  0.2204 -1.5063
 5826SOL     OW18376   1.685   6.684   3.817 -0.0039  0.4318 -0.1001
 5826SOL    HW118377   1.673   6.756   3.885  2.0230  1.9500 -1.2320
 5826SOL    HW218378   1.771   6.637   3.834 -0.2911 -0.3036 -0.6410
 5827SOL     OW18379   0.982   5.026   6.000  0.0022 -0.0814  0.0458
 5827SOL    HW118380   1.077   5.033   6.031  0.5526  1.0278 -1.7739
 5827SOL    HW218381   0.952   4.931   6.007  1.1979 -0.4338  0.7257
 5828SOL     OW18382   1.639   4.461   0.292 -0.0337  0.2495 -0.0387
 5828SOL    HW118383   1.625   4.377   0.240  0.6494 -0.4756  0.9254
 5828SOL    HW218384   1.579   4.533   0.255 -0.8012 -0.7096 -0.7216
 5829SOL     OW18385   5.052   0.894   2.982 -0.2888  0.3805 -0.3472
 5829SOL    HW118386   5.078   0.982   2.941 -1.9636  1.0449 -0.0390
 5829SOL    HW218387   4.973   0.857   2.934 -0.4263 -0.2965  0.3821
 5830SOL     OW18388   3.492   6.975   5.083 -0.0596 -0.0622 -0.5276
 5830SOL    HW118389   3.574   6.947   5.134 -0.4210  1.5531  1.0458
 5830SOL    HW218390   3.508   7.066   5.043 -1.4936  0.8526  0.8831
 5831SOL     OW18391   0.203   6.619   4.287  0.4799 -0.4152 -0.0673
 5831SOL    HW118392   0.195   6.684   4.362  0.1131 -0.3094 -0.1967
 5831SOL    HW218393   0.289   6.568   4.296  1.0006  0.4091 -0.2268
 5832SOL     OW18394   4.741   3.799   0.125 -0.6349 -0.0598  0.1441
 5832SOL    HW118395   4.682   3.721   0.103 -1.2628  0.5225 -0.2755
 5832SOL    HW218396   4.758   3.800   0.223 -0.5804 -0.7522  0.1512
 5833SOL     OW18397   4.044   0.752   6.744 -0.6270 -0.4814 -0.3835
 5833SOL    HW118398   4.054   0.682   6.815 -1.4916  0.0648  0.2999
 5833SOL    HW218399   3.957   0.799   6.756  1.1779  2.8429  1.1213
 5834SOL     OW18400   6.496   2.856   0.925  0.1070 -0.3976  0.4281
 5834SOL    HW118401   6.508   2.950   0.957  1.2104  0.3380 -1.8972
 5834SOL    HW218402   6.399   2.840   0.903  0.0977  0.6729 -0.4027
 5835SOL     OW18403   5.841   4.770   2.865  0.5364  0.0329  0.0476
 5835SOL    HW118404   5.924   4.795   2.914 -0.0217  3.5350 -0.5300
 5835SOL    HW218405   5.864   4.729   2.777  1.5456 -2.5816  1.4490
 5836SOL     OW18406   6.825   4.690   3.167  0.1472 -0.0368 -0.4936
 5836SOL    HW118407   6.910   4.711   3.215 -1.1678  0.7705  1.6526
 5836SOL    HW218408   6.767   4.633   3.226 -0.7764 -0.6262 -1.9253
 5837SOL     OW18409   5.309   5.107   6.977 -0.0300  0.0776  0.2586
 5837SOL    HW118410   5.376   5.181   6.983  1.4518 -1.3321  2.5340
 5837SOL    HW218411   5.275   5.085   7.068 -1.9041 -0.7903 -0.6002
 5838SOL     OW18412   1.300   1.916   4.902 -0.7699  0.5867  0.7023
 5838SOL    HW118413   1.386   1.960   4.876 -0.8562  0.8542  0.8635
 5838SOL    HW218414   1.318   1.847   4.972 -0.4692 -0.4853 -0.4061
 5839SOL     OW18415   0.693   3.893   1.612 -0.0100 -0.0226  0.3840
 5839SOL    HW118416   0.638   3.948   1.550  2.0890  1.3985 -0.2773
 5839SOL    HW218417   0.696   3.798   1.579 -1.5842 -0.0257  0.1688
 5840SOL     OW18418   2.452   6.188   1.070  0.2498  0.1135 -0.0741
 5840SOL    HW118419   2.434   6.122   0.997 -0.8693  1.0697 -0.7185
 5840SOL    HW218420   2.413   6.155   1.156 -1.3930  0.4385 -0.6530
 5841SOL     OW18421   6.305   2.581   1.572 -0.0547 -0.2756 -0.5088
 5841SOL    HW118422   6.330   2.613   1.663 -2.1182 -0.2804  0.1127
 5841SOL    HW218423   6.239   2.506   1.580  0.5380 -0.9876 -2.0036
 5842SOL     OW18424   4.775   2.347   1.463  0.3850 -0.0788 -0.4582
 5842SOL    HW118425   4.827   2.386   1.387 -0.9459 -1.1353 -1.9703
 5842SOL    HW218426   4.725   2.419   1.509 -0.7735  0.2921 -2.2037
 5843SOL     OW18427   3.856   3.966   2.865  0.3801  0.0625  0.2196
 5843SOL    HW118428   3.821   3.896   2.802  0.6722  0.1836 -0.0780
 5843SOL    HW218429   3.953   3.950   2.882  0.0455 -0.6953  1.6009
 5844SOL     OW18430   6.536   6.837   6.707  0.4952  0.1618 -0.2600
 5844SOL    HW118431   6.573   6.749   6.676  1.7146  0.5839 -0.0909
 5844SOL    HW218432   6.438   6.830   6.722  0.6942 -1.3627  0.4257
 5845SOL     OW18433   2.430   0.258   3.949  0.0291 -0.1030  0.1234
 5845SOL    HW118434   2.509   0.281   3.892  0.9187  0.1915  1.4180
 5845SOL    HW218435   2.450   0.175   4.001  0.5256  1.2539  2.2605
 5846SOL     OW18436   5.604   5.059   6.162  0.0713  0.4525  0.1145
 5846SOL    HW118437   5.565   5.124   6.228 -0.9189 -1.2307  1.2657
 5846SOL    HW218438   5.678   5.008   6.206  0.2856  0.2229 -0.5112
 5847SOL     OW18439   2.526   1.444   2.714 -0.1458  0.3665 -0.2932
 5847SOL    HW118440   2.475   1.520   2.673 -0.4584 -0.2173 -1.0171
 5847SOL    HW218441   2.554   1.469   2.806  2.1675  2.4596 -1.4346
 5848SOL     OW18442   1.462   5.810   1.943 -0.0934  0.4849 -0.1710
 5848SOL    HW118443   1.430   5.811   1.848 -1.4803  0.3371  0.2832
 5848SOL    HW218444   1.430   5.727   1.988 -1.1451  1.4859  0.9933
 5849SOL     OW18445   0.169   1.018   6.151 -0.1606 -0.5698  0.0345
 5849SOL    HW118446   0.082   0.976   6.127 -0.7916  1.5004 -1.6938
 5849SOL    HW218447   0.169   1.041   6.248 -0.8677 -2.0145  0.4055
 5850SOL     OW18448   1.106   3.385   1.334  0.7130 -0.1188 -0.0791
 5850SOL    HW118449   1.119   3.462   1.271  3.1305  2.2560  2.9767
 5850SOL    HW218450   1.067   3.419   1.420  2.6558 -2.0282  1.6924
 5851SOL     OW18451   5.734   2.125   2.557 -0.1398 -0.5909 -0.0932
 5851SOL    HW118452   5.798   2.074   2.499 -2.0844 -1.2527 -1.8053
 5851SOL    HW218453   5.722   2.217   2.521  0.9512  0.0482  1.1171
 5852SOL     OW18454   4.952   1.469   3.579 -0.5287  0.0801 -0.3727
 5852SOL    HW118455   5.039   1.434   3.614 -0.5777 -0.2318 -0.5593
 5852SOL    HW218456   4.878   1.406   3.604 -0.4705 -0.4994 -1.6250
 5853SOL     OW18457   3.733   6.672   5.208 -0.7976 -0.2041 -0.2586
 5853SOL    HW118458   3.678   6.589   5.218 -0.6272 -0.3016 -0.1148
 5853SOL    HW218459   3.687   6.749   5.252  0.4677 -0.8498  2.3852
 5854SOL     OW18460   6.745   1.619   3.937 -0.0504  0.5915  0.2967
 5854SOL    HW118461   6.720   1.714   3.915  0.7316  0.4192 -1.4950
 5854SOL    HW218462   6.841   1.604   3.913 -0.4187 -0.9030 -0.3137
 5855SOL     OW18463   0.673   6.750   4.344 -0.2244  0.8015  0.2641
 5855SOL    HW118464   0.596   6.728   4.404 -0.6345 -1.1490 -0.8439
 5855SOL    HW218465   0.748   6.687   4.362  0.6234  1.8628  0.4650
 5856SOL     OW18466   3.539   0.238   2.007 -0.2496  0.1771 -0.4379
 5856SOL    HW118467   3.506   0.149   1.975  0.2420  0.4884 -1.8771
 5856SOL    HW218468   3.530   0.243   2.106  0.9876 -2.0051 -0.1709
 5857SOL     OW18469   5.613   2.212   6.357 -0.1545  0.0821  0.1468
 5857SOL    HW118470   5.541   2.143   6.344  1.9842 -2.0244 -1.3251
 5857SOL    HW218471   5.694   2.185   6.306  0.7627  3.8765 -0.6559
 5858SOL     OW18472   2.765   1.774   3.239 -0.3661  0.0512  0.9002
 5858SOL    HW118473   2.789   1.725   3.154 -0.3502  0.1952  0.8218
 5858SOL    HW218474   2.775   1.712   3.317 -0.7041 -0.1761  0.7612
 5859SOL     OW18475   5.054   4.359   5.778  0.9101 -1.0345  0.2368
 5859SOL    HW118476   5.031   4.403   5.865  1.2619  0.9962 -0.6356
 5859SOL    HW218477   5.144   4.390   5.747  0.1159 -0.3970 -1.6170
 5860SOL     OW18478   2.322   4.048   1.441 -0.2227  0.3685 -0.1508
 5860SOL    HW118479   2.255   4.123   1.437  1.6919  2.1954  0.0649
 5860SOL    HW218480   2.333   4.018   1.536  2.3903  3.2330  0.6367
 5861SOL     OW18481   5.053   1.067   6.061 -0.6210  0.0698  0.3099
 5861SOL    HW118482   5.019   1.161   6.069  1.6334  1.0015 -0.2687
 5861SOL    HW218483   5.067   1.029   6.153  1.0658  1.3446  0.6182
 5862SOL     OW18484   4.933   4.180   3.502  0.1914  0.0005  0.7198
 5862SOL    HW118485   4.884   4.121   3.566  1.0026 -1.4594  0.0664
 5862SOL    HW218486   4.993   4.123   3.445  0.2773  1.3799 -0.6078
 5863SOL     OW18487   1.534   1.024   5.740 -0.8278 -0.4096  0.7627
 5863SOL    HW118488   1.593   0.968   5.681  1.1645  0.0215  2.2207
 5863SOL    HW218489   1.535   1.118   5.707 -0.9272 -0.4580  0.6212
 5864SOL     OW18490   4.443   4.164   0.303 -0.2640 -0.1761 -0.5168
 5864SOL    HW118491   4.459   4.213   0.217 -0.4778 -1.3888 -1.2721
 5864SOL    HW218492   4.398   4.077   0.284 -1.5413  0.1088  0.9437
 5865SOL     OW18493   5.645   6.235   3.065 -0.1327  0.7663 -0.3870
 5865SOL    HW118494   5.723   6.217   3.126 -0.4405  1.9232  0.3793
 5865SOL    HW218495   5.590   6.152   3.056  0.5365  0.2698  0.0211
 5866SOL     OW18496   3.246   4.384   5.949  0.2063  0.1462  0.3236
 5866SOL    HW118497   3.314   4.457   5.954 -1.0397  1.4761 -1.1556
 5866SOL    HW218498   3.273   4.310   6.010  2.6958  0.8307  0.1834
 5867SOL     OW18499   1.849   2.759   1.950 -0.2995  0.1103  0.5819
 5867SOL    HW118500   1.766   2.798   1.909 -1.6928 -0.4347  2.7445
 5867SOL    HW218501   1.876   2.813   2.029  0.7305 -0.4372  0.6233
 5868SOL     OW18502   6.837   0.442   4.907 -0.1468 -0.3606 -0.2995
 5868SOL    HW118503   6.912   0.507   4.892 -1.7722  1.9477  0.9486
 5868SOL    HW218504   6.817   0.395   4.821  2.1751 -0.4602 -0.8484
 5869SOL     OW18505   1.187   0.310   2.835 -0.2766 -0.0139 -0.0205
 5869SOL    HW118506   1.155   0.268   2.919  1.4660  0.9245  1.1635
 5869SOL    HW218507   1.251   0.249   2.789  0.3341  0.2880  0.4112
 5870SOL     OW18508   4.692   5.994   5.440 -0.6822 -0.3081 -0.9663
 5870SOL    HW118509   4.672   5.897   5.459 -0.2032 -0.2488 -0.0820
 5870SOL    HW218510   4.661   6.049   5.518  0.3832  0.0800 -0.7980
 5871SOL     OW18511   4.394   3.261   6.336 -0.1726 -0.0579  0.1369
 5871SOL    HW118512   4.302   3.249   6.297  0.2969 -2.3583 -0.4036
 5871SOL    HW218513   4.445   3.327   6.281 -0.0493 -2.0838 -2.3704
 5872SOL     OW18514   3.656   5.107   0.781 -0.1468  0.4380  0.0079
 5872SOL    HW118515   3.652   5.200   0.817  2.7972 -0.0862  2.0072
 5872SOL    HW218516   3.610   5.045   0.843  1.1331  0.1071  0.6509
 5873SOL     OW18517   2.311   2.711   1.726  0.3012 -0.2487 -0.5367
 5873SOL    HW118518   2.213   2.730   1.737  1.0149  4.4448 -0.5168
 5873SOL    HW218519   2.356   2.717   1.815  1.0259  1.2332 -0.9708
 5874SOL     OW18520   3.548   1.900   1.271 -0.0281  0.1111  0.2358
 5874SOL    HW118521   3.559   1.890   1.370 -0.2789 -1.2754  0.1413
 5874SOL    HW218522   3.568   1.814   1.226 -0.4749  0.5676 -0.8795
 5875SOL     OW18523   3.097   0.925   0.912 -0.2151 -0.2220  0.4218
 5875SOL    HW118524   3.003   0.895   0.899 -0.5941  1.2418 -0.4609
 5875SOL    HW218525   3.128   0.973   0.830  1.7449 -1.7495  0.2018
 5876SOL     OW18526   4.359   2.059   0.458 -0.1659 -0.1410 -0.0708
 5876SOL    HW118527   4.322   1.989   0.396  1.3888 -1.5943  0.5587
 5876SOL    HW218528   4.399   2.015   0.538  1.7822  1.3927 -0.1228
 5877SOL     OW18529   5.779   1.161   0.201  0.8150 -0.5464 -0.3465
 5877SOL    HW118530   5.812   1.071   0.231 -2.0006 -1.5185  0.2304
 5877SOL    HW218531   5.687   1.176   0.239  0.2932  1.6003 -2.2619
 5878SOL     OW18532   3.026   4.855   3.078 -0.1312  0.0014 -0.6119
 5878SOL    HW118533   3.108   4.859   3.021  0.8675  1.5315  0.8505
 5878SOL    HW218534   2.947   4.881   3.023  0.7007  0.7470 -1.4961
 5879SOL     OW18535   3.448   2.830   6.917  0.3674  0.1320 -0.0858
 5879SOL    HW118536   3.431   2.737   6.885  2.6202  0.0793 -1.2584
 5879SOL    HW218537   3.501   2.881   6.849  0.7622  1.6997  1.3155
 5880SOL     OW18538   3.159   3.367   4.787 -0.0572  0.2019 -0.5997
 5880SOL    HW118539   3.188   3.272   4.797  2.1562  0.7690 -1.2299
 5880SOL    HW218540   3.069   3.379   4.830  0.7289 -1.5919  1.7023
 5881SOL     OW18541   6.893   6.638   0.977 -0.1579  0.6599  0.2096
 5881SOL    HW118542   6.893   6.608   1.073  1.0712  0.1402  0.0620
 5881SOL    HW218543   6.848   6.568   0.921  0.9245 -0.0027  0.1422
 5882SOL     OW18544   1.011   2.119   5.459  0.4806  0.3402  0.2261
 5882SOL    HW118545   1.041   2.196   5.515 -0.6935  1.9819 -1.2805
 5882SOL    HW218546   1.074   2.107   5.382  0.6612 -0.2247  0.4542
 5883SOL     OW18547   0.641   1.901   0.111 -0.2295 -0.4635 -0.0557
 5883SOL    HW118548   0.690   1.981   0.075  2.8064 -1.9249  0.4854
 5883SOL    HW218549   0.587   1.928   0.191 -0.5589  1.3113 -0.8363
 5884SOL     OW18550   6.636   1.420   6.345 -0.3153  0.0714  0.1596
 5884SOL    HW118551   6.586   1.459   6.423 -0.6931  0.0823 -0.0846
 5884SOL    HW218552   6.599   1.330   6.323  0.1149 -0.1400  0.3005
 5885SOL     OW18553   0.173   3.821   6.611  0.1101  0.5190  0.6484
 5885SOL    HW118554   0.109   3.867   6.672 -1.4455  1.4298 -1.5319
 5885SOL    HW218555   0.147   3.724   6.603 -2.2415  1.2001 -1.5066
 5886SOL     OW18556   1.731   3.359   2.916 -0.1567  0.4899 -0.8660
 5886SOL    HW118557   1.789   3.318   2.986 -0.6512  1.1217 -0.0664
 5886SOL    HW218558   1.773   3.345   2.826 -0.5155 -2.1284 -0.7048
 5887SOL     OW18559   4.279   2.335   2.008  0.4948 -0.8254 -0.5654
 5887SOL    HW118560   4.216   2.305   2.080 -0.0784  0.2691 -0.5808
 5887SOL    HW218561   4.239   2.314   1.919  1.2478 -2.2684 -0.5935
 5888SOL     OW18562   2.552   6.847   1.731 -0.4046 -1.1217  0.1787
 5888SOL    HW118563   2.482   6.890   1.674  0.3175 -0.4324 -0.2055
 5888SOL    HW218564   2.641   6.888   1.711 -0.1090 -0.9744  1.7020
 5889SOL     OW18565   6.864   1.915   0.771 -0.1402  0.1435 -0.2888
 5889SOL    HW118566   6.899   1.825   0.798 -1.7546 -0.2281  0.6501
 5889SOL    HW218567   6.934   1.962   0.717  1.0334 -1.3500 -0.1504
 5890SOL     OW18568   2.699   0.426   4.097 -0.2237 -0.1372  0.5221
 5890SOL    HW118569   2.603   0.451   4.095 -0.1174  0.2795  0.6196
 5890SOL    HW218570   2.750   0.489   4.156  0.1264 -0.2874  0.3872
 5891SOL     OW18571   2.289   2.587   6.270 -0.3200 -0.1893 -0.3464
 5891SOL    HW118572   2.274   2.563   6.175 -0.8540  1.1399 -0.6201
 5891SOL    HW218573   2.271   2.685   6.283 -0.2190 -0.3413  1.1036
 5892SOL     OW18574   1.299   3.915   3.141 -0.3213  0.5064 -0.2916
 5892SOL    HW118575   1.371   3.922   3.072 -2.0319 -0.4355 -2.2895
 5892SOL    HW218576   1.226   3.979   3.121 -1.0725 -0.1050  0.3826
 5893SOL     OW18577   2.009   3.025   1.491 -0.0491  0.3622  0.1061
 5893SOL    HW118578   1.949   2.984   1.423 -1.1080  1.4596  0.3323
 5893SOL    HW218579   1.975   3.003   1.583  1.7574 -1.6944  0.3679
 5894SOL     OW18580   0.700   4.627   6.614 -0.3294  0.0106  0.0916
 5894SOL    HW118581   0.634   4.697   6.589 -2.1293 -1.4977  0.3594
 5894SOL    HW218582   0.654   4.538   6.619  1.3415 -0.8453  2.0376
 5895SOL     OW18583   0.501   4.682   2.960 -0.6435  0.1148  0.4613
 5895SOL    HW118584   0.416   4.711   2.914 -0.8442  0.5898  1.1128
 5895SOL    HW218585   0.489   4.590   2.997 -1.2481  0.5701  1.4413
 5896SOL     OW18586   3.775   1.233   0.776 -0.1676  0.5337 -0.3650
 5896SOL    HW118587   3.814   1.166   0.712  0.2490  0.0189  0.4111
 5896SOL    HW218588   3.744   1.186   0.858 -0.1965  1.2580  0.0425
 5897SOL     OW18589   4.083   0.336   3.445  0.5767  0.2116  0.1288
 5897SOL    HW118590   3.992   0.373   3.427  0.4860 -0.8714 -1.9850
 5897SOL    HW218591   4.139   0.345   3.363  1.1350 -2.5021  0.1080
 5898SOL     OW18592   2.012   2.766   4.156  0.6160  0.0795 -0.1825
 5898SOL    HW118593   2.056   2.842   4.203 -0.6988  1.3648 -0.9320
 5898SOL    HW218594   1.917   2.789   4.136  0.3135 -1.5749 -0.8871
 5899SOL     OW18595   0.510   4.990   6.211  0.5560 -0.4312  0.1319
 5899SOL    HW118596   0.534   5.000   6.114  0.2399  0.6538  0.1504
 5899SOL    HW218597   0.457   4.907   6.224 -1.1393  0.4176 -0.9875
 5900SOL     OW18598   0.441   6.113   3.682  0.2793  0.5776  0.3755
 5900SOL    HW118599   0.410   6.056   3.757 -0.3901  1.2718  0.6398
 5900SOL    HW218600   0.441   6.060   3.597  0.1900  0.0413  0.7094
 5901SOL     OW18601   0.220   1.200   1.610 -0.3865  0.2894  0.4789
 5901SOL    HW118602   0.157   1.274   1.632  1.3667  1.6357  1.2233
 5901SOL    HW218603   0.181   1.143   1.538 -2.0317  1.5789  0.2889
 5902SOL     OW18604   5.024   3.409   5.829 -0.1302 -0.0119 -0.5158
 5902SOL    HW118605   5.012   3.506   5.848  0.7003  0.1231 -0.6123
 5902SOL    HW218606   5.121   3.391   5.812 -0.2389 -0.9130 -0.2104
 5903SOL     OW18607   4.277   1.066   6.458 -0.3191 -0.2832  0.2922
 5903SOL    HW118608   4.297   1.160   6.484 -2.0213 -0.0413  0.8539
 5903SOL    HW218609   4.320   1.046   6.370  0.4023  0.8655  0.3542
 5904SOL     OW18610   2.404   4.268   0.566  0.2526 -0.0198  0.6175
 5904SOL    HW118611   2.390   4.184   0.514 -0.8012  0.0371  0.7831
 5904SOL    HW218612   2.367   4.256   0.658 -0.6296  0.8821  0.3940
 5905SOL     OW18613   5.457   2.875   4.599 -0.2068  0.2361 -0.2516
 5905SOL    HW118614   5.485   2.933   4.676  1.9261 -2.2705  1.0061
 5905SOL    HW218615   5.537   2.842   4.551 -1.3452 -1.4603 -1.0795
 5906SOL     OW18616   3.450   2.720   6.007 -0.3052  0.0050  0.1629
 5906SOL    HW118617   3.456   2.800   6.067  1.4900 -0.2615  0.4073
 5906SOL    HW218618   3.535   2.711   5.956  0.0057 -2.3979  1.0009
 5907SOL     OW18619   2.442   6.305   6.442  0.3553  0.5928  1.1938
 5907SOL    HW118620   2.432   6.380   6.507 -1.1484  2.5528 -1.1431
 5907SOL    HW218621   2.462   6.341   6.351 -1.4763 -1.7347 -0.2586
 5908SOL     OW18622   5.393   4.843   5.469  0.2537  0.6608 -0.4777
 5908SOL    HW118623   5.362   4.860   5.376 -1.2085  2.3232  0.2437
 5908SOL    HW218624   5.370   4.922   5.527  2.3600  0.2883  1.0128
 5909SOL     OW18625   6.318   4.391   5.450  0.1601 -0.6313 -0.3170
 5909SOL    HW118626   6.264   4.386   5.534  0.6544  1.1434  0.1609
 5909SOL    HW218627   6.416   4.389   5.473  0.3607  2.3668 -0.5349
 5910SOL     OW18628   1.894   0.056   0.766 -0.4769 -0.0159 -0.3199
 5910SOL    HW118629   1.859   0.099   0.683 -0.7347  2.4510  0.9693
 5910SOL    HW218630   1.831   0.072   0.841  0.8854 -0.0458  0.8777
 5911SOL     OW18631   4.427   4.361   6.720  0.2479 -0.1464  0.3801
 5911SOL    HW118632   4.458   4.340   6.813 -0.9597  3.0607  1.6588
 5911SOL    HW218633   4.335   4.399   6.724  0.8344  1.7478 -1.9172
 5912SOL     OW18634   5.280   3.031   4.931  0.1192 -0.0144 -0.1456
 5912SOL    HW118635   5.291   3.124   4.896 -0.0837 -0.1864 -0.6830
 5912SOL    HW218636   5.260   2.969   4.855 -0.3070 -0.4073  0.2801
 5913SOL     OW18637   2.187   4.760   5.020  0.4906 -0.1343 -0.2399
 5913SOL    HW118638   2.139   4.819   5.086  1.7226 -0.2112  0.7765
 5913SOL    HW218639   2.158   4.666   5.032 -0.0297 -0.0066 -0.4983
 5914SOL     OW18640   3.383   4.879   1.207  0.4988  0.4193  0.2470
 5914SOL    HW118641   3.442   4.925   1.142  0.5113 -0.7752 -0.6276
 5914SOL    HW218642   3.348   4.945   1.273 -0.3885  1.9048 -1.6060
 5915SOL     OW18643   5.287   3.139   3.755 -0.3060 -0.1346 -0.1712
 5915SOL    HW118644   5.251   3.046   3.750  2.7069 -1.4994  0.9150
 5915SOL    HW218645   5.306   3.173   3.663 -0.7962 -0.8507 -0.5407
 5916SOL     OW18646   3.934   0.975   5.158  0.0101  0.4484 -0.2800
 5916SOL    HW118647   3.884   1.025   5.229 -0.1284  0.0207 -0.0738
 5916SOL    HW218648   3.938   1.031   5.075 -1.0688  0.3791 -0.3962
 5917SOL     OW18649   3.769   3.174   4.399 -0.0494 -0.5125  0.6515
 5917SOL    HW118650   3.680   3.151   4.437 -1.7504  0.1460 -2.5367
 5917SOL    HW218651   3.800   3.099   4.341  0.7851 -0.1489  0.6159
 5918SOL     OW18652   1.943   4.905   5.065  0.0827 -0.0570  0.3923
 5918SOL    HW118653   1.992   4.977   5.015  0.1732  1.1098  2.0730
 5918SOL    HW218654   1.930   4.934   5.160 -1.2674 -1.6250  0.7210
 5919SOL     OW18655   4.384   2.147   1.641 -0.4316 -0.3896 -0.0093
 5919SOL    HW118656   4.427   2.083   1.704 -0.0106  0.5030  0.6431
 5919SOL    HW218657   4.314   2.101   1.588  1.4536 -1.9730 -1.2813
 5920SOL     OW18658   3.646   5.826   6.349 -0.1830 -0.2927 -0.3701
 5920SOL    HW118659   3.553   5.833   6.385  0.2226 -1.1114  0.8901
 5920SOL    HW218660   3.700   5.763   6.406  1.3905  0.8083 -0.5665
 5921SOL     OW18661   5.032   4.741   5.694 -0.0288  0.1141 -0.3206
 5921SOL    HW118662   4.942   4.762   5.732  0.1508  0.0567  0.1415
 5921SOL    HW218663   5.102   4.795   5.740  0.0175  1.3718 -1.7764
 5922SOL     OW18664   6.729   5.933   3.169  0.1574 -0.2828  0.4036
 5922SOL    HW118665   6.756   6.027   3.150 -0.0227 -0.3094  0.0053
 5922SOL    HW218666   6.769   5.872   3.101  0.9219 -0.6018  1.1077
 5923SOL     OW18667   0.837   1.236   2.806  0.2288  0.3415  0.6658
 5923SOL    HW118668   0.926   1.228   2.853  0.6201  0.6046 -0.0283
 5923SOL    HW218669   0.849   1.281   2.718 -0.2374 -1.6226 -0.4521
 5924SOL     OW18670   4.568   2.316   6.517 -0.3568  0.2279  0.0940
 5924SOL    HW118671   4.556   2.223   6.554 -1.7261 -0.0416 -0.9658
 5924SOL    HW218672   4.663   2.344   6.530  0.4089 -1.8154 -0.6551
 5925SOL     OW18673   4.023   6.517   1.972 -0.0296 -0.5059 -0.7575
 5925SOL    HW118674   3.982   6.552   2.056  1.1296 -0.2860 -0.2531
 5925SOL    HW218675   4.014   6.417   1.970  1.0135 -0.6507  0.2679
 5926SOL     OW18676   4.122   5.021   0.283  0.1804 -0.3425  0.7116
 5926SOL    HW118677   4.149   5.077   0.361 -0.3362  1.7829 -0.5545
 5926SOL    HW218678   4.034   4.976   0.303  0.1973 -0.0620  1.4468
 5927SOL     OW18679   2.943   3.596   0.314 -0.3985 -0.1190  0.1726
 5927SOL    HW118680   2.993   3.613   0.230  2.0258 -0.8797  1.3860
 5927SOL    HW218681   2.905   3.682   0.349  2.4698  1.0594  0.6226
 5928SOL     OW18682   3.387   1.650   6.988  0.2474  0.1253 -0.4978
 5928SOL    HW118683   3.487   1.655   6.989  0.2648  0.4754 -1.8174
 5928SOL    HW218684   3.350   1.740   6.963 -0.4300  0.1732  0.6187
 5929SOL     OW18685   1.365   0.138   4.643  0.1465 -0.2491 -0.2926
 5929SOL    HW118686   1.445   0.124   4.702 -0.0450  0.0878  0.0517
 5929SOL    HW218687   1.285   0.098   4.686  0.0127 -0.0417 -0.3508
 5930SOL     OW18688   6.735   3.196   5.479 -0.1455 -0.0401 -0.2502
 5930SOL    HW118689   6.699   3.236   5.563  0.0273  0.8826 -0.5944
 5930SOL    HW218690   6.830   3.167   5.493 -0.8478 -2.0942  0.5381
 5931SOL     OW18691   0.182   3.336   3.138 -0.0867 -0.3924  0.2008
 5931SOL    HW118692   0.256   3.396   3.169 -1.4144  1.2148  0.4571
 5931SOL    HW218693   0.107   3.340   3.205 -0.3196 -2.1576  0.0723
 5932SOL     OW18694   5.170   6.404   6.060 -0.4179 -0.3680 -0.8216
 5932SOL    HW118695   5.223   6.476   6.104  1.3553 -1.5884 -0.8358
 5932SOL    HW218696   5.073   6.417   6.079 -0.0518  1.4570 -0.0362
 5933SOL     OW18697   4.981   4.327   1.953  0.5278  0.6368  0.2772
 5933SOL    HW118698   5.054   4.315   1.885 -0.1388 -2.1481 -0.0528
 5933SOL    HW218699   5.006   4.279   2.037 -0.8858 -0.4086  0.1367
 5934SOL     OW18700   3.906   3.029   3.646  0.2626  0.5047  0.1553
 5934SOL    HW118701   3.894   2.951   3.584 -2.2826  0.7446  0.2346
 5934SOL    HW218702   3.911   3.113   3.593 -3.2628  0.8606  0.1252
 5935SOL     OW18703   3.752   3.654   5.114  0.0629 -0.3948  0.2429
 5935SOL    HW118704   3.717   3.560   5.107 -2.3776  0.4577 -0.2606
 5935SOL    HW218705   3.811   3.662   5.193 -1.9791 -1.7368  2.0201
 5936SOL     OW18706   5.828   3.798   5.886  1.1413  0.0399  0.0633
 5936SOL    HW118707   5.731   3.821   5.884  0.7966 -1.0541  1.9407
 5936SOL    HW218708   5.879   3.876   5.923  0.6711 -0.1643  1.1874
 5937SOL     OW18709   2.019   4.314   1.783 -0.3379 -0.1910  0.2454
 5937SOL    HW118710   2.046   4.311   1.879 -1.0109  0.6408  0.4638
 5937SOL    HW218711   2.026   4.222   1.744  0.8400 -0.3663  0.8294
 5938SOL     OW18712   6.997   4.342   3.876  0.3460 -0.1202 -0.4142
 5938SOL    HW118713   6.976   4.292   3.960 -0.6500 -0.3362 -0.7755
 5938SOL    HW218714   6.961   4.435   3.884 -0.4584 -0.3791 -0.8947
 5939SOL     OW18715   3.470   2.077   2.980 -0.3996  0.1109 -0.2194
 5939SOL    HW118716   3.559   2.110   3.013 -0.1114  0.8233 -1.6429
 5939SOL    HW218717   3.463   2.092   2.882 -1.5133 -1.3213 -0.3872
 5940SOL     OW18718   3.580   5.178   1.472  0.5431 -0.0891  0.1293
 5940SOL    HW118719   3.641   5.255   1.489 -0.1061  0.3892  0.3530
 5940SOL    HW218720   3.508   5.177   1.541  1.1814 -1.5679  0.7958
 5941SOL     OW18721   6.491   5.019   1.546 -0.1414 -0.2647  0.3996
 5941SOL    HW118722   6.548   4.937   1.554  0.5479  0.1079 -0.5118
 5941SOL    HW218723   6.530   5.080   1.477 -0.8100  0.7004  0.8518
 5942SOL     OW18724   3.694   0.084   7.000  0.2097  0.0813  0.2408
 5942SOL    HW118725   3.619   0.025   7.029 -0.4253  0.8399  0.1843
 5942SOL    HW218726   3.658   0.157   6.941  0.9147  0.7343  0.6043
 5943SOL     OW18727   3.016   1.991   6.214 -0.0685  0.2163  0.4777
 5943SOL    HW118728   2.929   2.041   6.217  0.1739  0.5964  2.2260
 5943SOL    HW218729   3.085   2.049   6.170  0.2414  1.5720  2.5879
 5944SOL     OW18730   6.849   1.756   3.065  0.4066  0.4672  0.4473
 5944SOL    HW118731   6.772   1.801   3.108  0.6943  0.3491  1.0944
 5944SOL    HW218732   6.831   1.658   3.059  0.6054  0.4068  0.8172
 5945SOL     OW18733   5.766   4.822   5.122  0.2033 -0.2085  0.4543
 5945SOL    HW118734   5.736   4.740   5.072 -0.9856 -0.6536  1.8373
 5945SOL    HW218735   5.727   4.821   5.214  2.5201  0.4736  1.5144
 5946SOL     OW18736   3.111   5.665   5.202  0.0398  0.1601  0.2958
 5946SOL    HW118737   3.039   5.635   5.264  0.0744 -0.4146  0.0624
 5946SOL    HW218738   3.186   5.598   5.201  0.6755  0.8425  0.6873
 5947SOL     OW18739   5.291   2.822   1.713  0.4123 -0.9596 -0.4378
 5947SOL    HW118740   5.212   2.882   1.725  0.9004  0.3272 -3.0077
 5947SOL    HW218741   5.318   2.785   1.802 -0.5317  1.8303  1.1384
 5948SOL     OW18742   3.034   4.805   5.077 -0.3773 -0.0531  0.0898
 5948SOL    HW118743   3.093   4.749   5.135  0.3382  1.8136  1.2530
 5948SOL    HW218744   2.963   4.748   5.036  1.3903 -2.1265 -0.2767
 5949SOL     OW18745   3.797   5.487   0.702 -0.0251 -0.1242 -0.1607
 5949SOL    HW118746   3.722   5.422   0.708 -0.4268  0.3753  0.4564
 5949SOL    HW218747   3.773   5.562   0.640  0.0489 -0.0789 -0.1360
 5950SOL     OW18748   0.253   1.648   3.774  0.3615  0.0652 -0.1185
 5950SOL    HW118749   0.310   1.588   3.719  0.3538 -1.4081  1.3902
 5950SOL    HW218750   0.200   1.593   3.839  1.6045  1.7480  2.5202
 5951SOL     OW18751   6.847   0.114   6.051  0.0324 -0.4077  0.1558
 5951SOL    HW118752   6.755   0.114   6.089  0.2313 -0.2139  0.6538
 5951SOL    HW218753   6.851   0.174   5.972  0.2836  1.5251  1.5584
 5952SOL     OW18754   6.074   5.627   3.063 -0.1603  0.4786  0.3176
 5952SOL    HW118755   6.121   5.654   2.979  1.3089  0.3812  1.0792
 5952SOL    HW218756   5.990   5.578   3.040 -0.6805  1.9441 -1.0880
 5953SOL     OW18757   6.440   3.133   5.601 -0.5014  0.1634 -0.0238
 5953SOL    HW118758   6.511   3.189   5.642 -1.7633 -0.5520  3.4910
 5953SOL    HW218759   6.364   3.192   5.571  0.2069  0.6518 -0.9176
 5954SOL     OW18760   0.794   3.767   5.221  0.2023 -0.7146  0.0602
 5954SOL    HW118761   0.694   3.759   5.226  0.0789  0.5447 -0.0393
 5954SOL    HW218762   0.830   3.788   5.312  0.3781 -1.1305  0.0886
 5955SOL     OW18763   6.752   5.477   4.655  0.5786  0.2750  0.3721
 5955SOL    HW118764   6.800   5.441   4.736  0.9403  1.4586  0.7045
 5955SOL    HW218765   6.669   5.524   4.684 -0.2548 -0.8408 -0.1185
 5956SOL     OW18766   4.491   1.026   1.498 -0.1435 -0.9965 -0.6192
 5956SOL    HW118767   4.585   1.055   1.478 -0.1952  0.6413  1.1452
 5956SOL    HW218768   4.430   1.105   1.490 -1.2495 -1.8790 -1.0010
 5957SOL     OW18769   3.313   1.297   5.493  0.5109  0.5618  0.2390
 5957SOL    HW118770   3.378   1.355   5.542  2.6575 -0.5198 -1.1438
 5957SOL    HW218771   3.359   1.256   5.414 -1.8036 -0.5575 -0.6087
 5958SOL     OW18772   6.083   5.591   4.181 -0.4436  0.0816 -0.1228
 5958SOL    HW118773   6.010   5.654   4.206 -0.0852  0.2627  0.4919
 5958SOL    HW218774   6.144   5.636   4.115 -1.2917 -0.3350 -1.2055
 5959SOL     OW18775   3.781   1.654   3.615  0.6441 -0.2326 -0.2634
 5959SOL    HW118776   3.711   1.724   3.600  0.4112 -0.1269  1.1543
 5959SOL    HW218777   3.807   1.613   3.528 -1.4300 -0.5264 -0.7900
 5960SOL     OW18778   3.670   0.696   2.096  0.4113  0.0549  0.0670
 5960SOL    HW118779   3.762   0.734   2.101 -0.3528  2.0598 -0.3259
 5960SOL    HW218780   3.640   0.693   2.001  1.0139 -3.1533 -0.1430
 5961SOL     OW18781   4.665   0.998   4.831  0.6822 -0.0119 -0.2702
 5961SOL    HW118782   4.635   1.085   4.794 -2.1943 -0.4682  0.7600
 5961SOL    HW218783   4.715   0.947   4.760  0.1608  1.3771 -1.6848
 5962SOL     OW18784   6.144   4.531   2.020  0.7346 -0.8244 -0.2728
 5962SOL    HW118785   6.229   4.483   2.042 -0.5243 -2.5156  1.2679
 5962SOL    HW218786   6.067   4.481   2.059 -0.7583  2.3754  1.2021
 5963SOL     OW18787   3.585   3.133   6.360  0.1120 -0.1081 -0.1105
 5963SOL    HW118788   3.523   3.075   6.413 -1.1431  0.8461 -0.4868
 5963SOL    HW218789   3.665   3.155   6.414 -1.0427  0.6743  1.3415
 5964SOL     OW18790   0.765   5.127   5.872 -0.1792  0.2027  0.0971
 5964SOL    HW118791   0.681   5.088   5.909 -0.3439  0.4840  0.0254
 5964SOL    HW218792   0.844   5.079   5.909 -0.3909 -0.4810 -0.3147
 5965SOL     OW18793   0.640   2.717   6.552 -0.0731  0.3595 -0.6761
 5965SOL    HW118794   0.624   2.810   6.583 -0.0997 -0.5137  2.1577
 5965SOL    HW218795   0.591   2.702   6.465 -1.2909  2.5054 -0.4222
 5966SOL     OW18796   2.342   0.431   5.031 -0.1427  0.9625  1.0616
 5966SOL    HW118797   2.383   0.487   5.103  2.5083 -0.4808  0.7881
 5966SOL    HW218798   2.409   0.414   4.959 -2.3709  1.4365 -1.2887
 5967SOL     OW18799   3.848   6.687   2.183  0.3432 -0.0198  0.3941
 5967SOL    HW118800   3.901   6.680   2.268  1.5421 -0.8725 -0.3791
 5967SOL    HW218801   3.828   6.782   2.164  0.2315  0.1961  1.5364
 5968SOL     OW18802   5.214   2.855   3.729  0.4913  0.1485 -0.1052
 5968SOL    HW118803   5.234   2.758   3.714 -1.0294 -0.3111  0.5970
 5968SOL    HW218804   5.183   2.896   3.643 -0.7825 -0.5166  0.0137
 5969SOL     OW18805   0.742   1.380   4.469 -0.1352  0.1241  0.1833
 5969SOL    HW118806   0.651   1.416   4.491 -0.1389  0.1412  0.1398
 5969SOL    HW218807   0.740   1.333   4.380 -0.0113  0.4783 -0.0112
 5970SOL     OW18808   5.881   4.922   1.955  0.0214  0.0926 -0.1020
 5970SOL    HW118809   5.792   4.935   1.912  0.6742 -1.5968 -2.1327
 5970SOL    HW218810   5.874   4.848   2.022 -0.1422  0.1165 -0.0912
 5971SOL     OW18811   2.750   6.575   2.352  0.4269 -0.5452  0.5163
 5971SOL    HW118812   2.696   6.577   2.437  0.9843 -1.0472  0.8911
 5971SOL    HW218813   2.811   6.654   2.349 -1.3115  0.8277 -0.5871
 5972SOL     OW18814   5.722   0.682   1.999 -0.7734  0.3275 -0.3818
 5972SOL    HW118815   5.745   0.697   2.096 -0.5003 -0.2542 -0.3529
 5972SOL    HW218816   5.806   0.672   1.947 -0.8861  1.5999 -0.8532
 5973SOL     OW18817   1.070   0.334   1.454  0.1127  0.0503 -0.1203
 5973SOL    HW118818   1.131   0.255   1.452  0.3989  0.2741 -1.5156
 5973SOL    HW218819   1.040   0.352   1.548  0.0849 -1.6684  0.2268
 5974SOL     OW18820   0.063   4.626   6.507  0.4199  0.2240  0.2623
 5974SOL    HW118821   0.064   4.724   6.486 -0.8569  0.5447  1.5367
 5974SOL    HW218822  -0.009   4.581   6.454  0.9465 -0.0137 -0.2558
 5975SOL     OW18823   4.155   1.620   6.917  0.8852 -0.5428  0.5372
 5975SOL    HW118824   4.229   1.632   6.851  0.8758  0.9404  0.7690
 5975SOL    HW218825   4.176   1.543   6.977  2.3634 -0.0064  0.7548
 5976SOL     OW18826   3.303   4.065   2.991 -0.3939  0.9066 -0.1984
 5976SOL    HW118827   3.398   4.034   2.979 -0.5807  0.3443 -0.2701
 5976SOL    HW218828   3.299   4.130   3.068 -0.2274 -0.4440  0.9999
 5977SOL     OW18829   1.653   4.896   3.089  0.2190  0.2589 -0.6300
 5977SOL    HW118830   1.587   4.943   3.030 -0.4295 -0.3324 -0.3974
 5977SOL    HW218831   1.739   4.947   3.091 -0.3986  1.3172 -0.5430
 5978SOL     OW18832   5.819   3.871   2.961 -0.7146 -0.6650  0.7250
 5978SOL    HW118833   5.892   3.901   3.022 -0.7347  0.0613  0.4000
 5978SOL    HW218834   5.833   3.910   2.870 -2.4033  0.9102  1.0781
 5979SOL     OW18835   0.589   1.194   4.777 -0.2362 -0.3624  0.5117
 5979SOL    HW118836   0.550   1.283   4.755 -0.4788 -0.3595  0.9417
 5979SOL    HW218837   0.515   1.128   4.790 -0.0347 -1.0843 -1.6553
 5980SOL     OW18838   4.081   5.090   5.136 -0.2567  0.1548  0.3664
 5980SOL    HW118839   4.021   5.154   5.184 -1.6094 -0.3677 -0.5377
 5980SOL    HW218840   4.025   5.025   5.085  1.1071 -0.5547 -0.2772
 5981SOL     OW18841   6.832   0.535   1.857 -0.0977 -0.5536 -0.1416
 5981SOL    HW118842   6.823   0.534   1.757 -0.2845  0.8468 -0.1586
 5981SOL    HW218843   6.898   0.465   1.885  2.1336  0.8674 -1.5229
 5982SOL     OW18844   0.125   1.277   1.030  0.4199  0.8367  0.2342
 5982SOL    HW118845   0.189   1.308   0.960  0.2882  1.5799  0.4386
 5982SOL    HW218846   0.172   1.268   1.118  0.7978 -0.9441 -0.0971
 5983SOL     OW18847   2.120   2.022   5.384  0.0211  0.5158 -0.6961
 5983SOL    HW118848   2.099   2.027   5.482  0.6660 -0.3815 -0.5053
 5983SOL    HW218849   2.038   1.996   5.334 -0.7081  2.4333 -0.5801
 5984SOL     OW18850   0.336   0.007   4.168  0.2212  0.3344 -0.1498
 5984SOL    HW118851   0.275  -0.004   4.246  1.5995 -0.8363  0.8154
 5984SOL    HW218852   0.429   0.027   4.201  1.1096 -1.4811 -1.3995
 5985SOL     OW18853   0.646   0.932   2.347  0.4886  0.4730  0.3559
 5985SOL    HW118854   0.631   1.005   2.414 -0.2182  1.2332 -0.6122
 5985SOL    HW218855   0.614   0.845   2.385  1.8222  0.5280  1.7321
 5986SOL     OW18856   2.883   3.439   2.503  0.2426  0.2114  0.3182
 5986SOL    HW118857   2.906   3.390   2.419 -3.1405 -1.0433 -0.0574
 5986SOL    HW218858   2.902   3.536   2.491  0.8341 -0.0866 -1.5005
 5987SOL     OW18859   4.131   0.218   4.578  0.1374 -0.3548 -0.2666
 5987SOL    HW118860   4.151   0.129   4.536  0.5751 -0.3006 -0.1807
 5987SOL    HW218861   4.033   0.237   4.572  0.4512  0.8297 -3.5813
 5988SOL     OW18862   3.128   6.013   4.604  1.1709  0.2257 -0.1319
 5988SOL    HW118863   3.163   6.099   4.642 -1.0309  1.3729 -0.4836
 5988SOL    HW218864   3.203   5.948   4.592  2.3914  0.6214  3.8490
 5989SOL     OW18865   3.162   0.368   6.140  0.0702 -0.3144 -0.4174
 5989SOL    HW118866   3.143   0.281   6.096 -0.6163 -0.9702  1.0945
 5989SOL    HW218867   3.227   0.355   6.215  0.9370  0.7081 -0.9527
 5990SOL     OW18868   5.023   6.386   0.080  0.0804 -0.4933 -0.0523
 5990SOL    HW118869   5.014   6.314   0.149 -0.2212 -0.0022  0.4177
 5990SOL    HW218870   5.103   6.366   0.023 -0.4030 -1.5912 -0.3900
 5991SOL     OW18871   4.751   5.556   3.754  0.2650  0.6184  0.0190
 5991SOL    HW118872   4.823   5.528   3.817  1.2690 -1.2552 -1.8110
 5991SOL    HW218873   4.703   5.474   3.721 -3.2751  1.8234  1.7268
 5992SOL     OW18874   4.431   1.680   3.760  0.1709 -0.5000 -0.5729
 5992SOL    HW118875   4.382   1.640   3.683 -1.3231  0.3999 -0.1421
 5992SOL    HW218876   4.517   1.631   3.776 -0.6616 -2.2324 -1.2621
 5993SOL     OW18877   4.107   5.369   5.213 -0.4418  0.4268 -0.1145
 5993SOL    HW118878   4.187   5.327   5.170 -0.0335  0.1026  0.9178
 5993SOL    HW218879   4.054   5.419   5.144 -0.1296 -0.5411 -1.0829
 5994SOL     OW18880   6.245   2.713   2.815  0.0126 -0.1667 -0.3804
 5994SOL    HW118881   6.185   2.667   2.749 -0.4664  0.7209 -0.5775
 5994SOL    HW218882   6.189   2.760   2.883  0.4554  1.5292 -1.1498
 5995SOL     OW18883   6.963   6.045   1.427  0.4077  0.2406 -0.3186
 5995SOL    HW118884   6.885   6.101   1.455  0.0635  0.3265 -1.4053
 5995SOL    HW218885   6.930   5.959   1.389  0.8624  0.0825 -0.3631
 5996SOL     OW18886   1.647   5.199   6.995  0.0490 -0.1222 -0.0052
 5996SOL    HW118887   1.637   5.171   6.899  0.0920 -0.6445  0.1395
 5996SOL    HW218888   1.729   5.157   7.033  0.2271  0.3737  0.1623
 5997SOL     OW18889   6.950   4.978   3.220  0.0659  0.1177 -0.4756
 5997SOL    HW118890   7.016   4.953   3.150 -0.9561 -3.2823 -0.4113
 5997SOL    HW218891   6.965   4.922   3.302 -1.3173  1.0472  0.4559
 5998SOL     OW18892   5.411   2.348   3.706  0.1716 -0.2392 -0.1950
 5998SOL    HW118893   5.392   2.339   3.804 -1.8208  0.1530 -0.4946
 5998SOL    HW218894   5.509   2.336   3.689  0.5167 -0.5389  1.8045
 5999SOL     OW18895   2.995   2.224   2.407  0.0632 -0.1572 -0.7289
 5999SOL    HW118896   2.973   2.261   2.317 -1.9764 -0.3032 -0.3452
 5999SOL    HW218897   2.979   2.294   2.477 -0.8251 -0.7931 -0.2756
 6000SOL     OW18898   1.416   5.114   1.356 -0.7766  0.3379 -0.4390
 6000SOL    HW118899   1.414   5.102   1.455 -3.1232 -1.2623 -0.6025
 6000SOL    HW218900   1.414   5.211   1.334  1.9404  0.8201  1.0196
 6001SOL     OW18901   0.478   2.232   2.309 -0.1061 -0.2095  0.3175
 6001SOL    HW118902   0.489   2.164   2.236 -0.1922 -0.1147  0.2167
 6001SOL    HW218903   0.474   2.323   2.270 -1.4592 -0.2517  0.3187
 6002SOL     OW18904   6.817   6.530   6.887  0.4367  0.7116 -0.3520
 6002SOL    HW118905   6.854   6.527   6.794 -0.3970  0.1817 -0.6800
 6002SOL    HW218906   6.814   6.625   6.918  2.4599  0.7429 -0.1331
 6003SOL     OW18907   4.114   2.985   6.623 -0.0762  0.4915  0.1373
 6003SOL    HW118908   4.129   2.887   6.618  2.1615  0.6133  2.4604
 6003SOL    HW218909   4.118   3.024   6.531 -1.2244 -1.5487 -0.8604
 6004SOL     OW18910   1.729   3.212   4.397 -0.5574  0.1334 -0.0547
 6004SOL    HW118911   1.647   3.263   4.424 -0.9565 -0.0757 -0.8626
 6004SOL    HW218912   1.768   3.167   4.478  0.6023  2.8022  0.9691
 6005SOL     OW18913   3.503   5.034   3.454  0.4514  0.0054 -0.3093
 6005SOL    HW118914   3.566   4.962   3.484  1.2501 -0.3221 -2.5406
 6005SOL    HW218915   3.443   4.997   3.383  0.3464  1.3395 -0.9415
 6006SOL     OW18916   2.505   0.971   6.932  0.1420  0.1402  0.3517
 6006SOL    HW118917   2.480   0.943   7.025 -0.1215  1.0530  0.5652
 6006SOL    HW218918   2.497   0.893   6.870 -0.5364 -0.2578  0.9297
 6007SOL     OW18919   5.107   4.408   3.552 -0.4967 -0.6329  0.0047
 6007SOL    HW118920   5.061   4.431   3.637 -1.5208 -2.6164  0.0398
 6007SOL    HW218921   5.056   4.336   3.504  0.5507 -0.2257 -1.8408
 6008SOL     OW18922   2.459   4.841   4.822 -0.0051 -0.3229 -0.1037
 6008SOL    HW118923   2.436   4.751   4.786 -0.7122 -0.3941  0.4934
 6008SOL    HW218924   2.523   4.831   4.899 -1.4110 -0.4804  1.1017
 6009SOL     OW18925   3.293   1.464   5.084 -0.9181  0.2721 -0.0098
 6009SOL    HW118926   3.237   1.436   5.162  0.7349  1.3697  1.6736
 6009SOL    HW218927   3.249   1.435   4.999 -2.6088 -1.3147  1.3161
 6010SOL     OW18928   0.798   2.362   2.127  0.0464 -0.2506 -0.6742
 6010SOL    HW118929   0.767   2.269   2.103  1.6067 -1.8781  2.9204
 6010SOL    HW218930   0.890   2.376   2.092  0.4739 -0.7679  0.2099
 6011SOL     OW18931   6.451   3.261   3.912  0.0351 -0.0783  0.2631
 6011SOL    HW118932   6.494   3.352   3.921 -0.1591  0.0977 -0.5114
 6011SOL    HW218933   6.386   3.263   3.836  2.0224 -1.6084 -1.6291
 6012SOL     OW18934   0.000   2.107   3.976 -0.4414  0.0109 -0.7329
 6012SOL    HW118935   0.027   2.191   3.928  1.3261  0.3277  0.6916
 6012SOL    HW218936   0.080   2.046   3.982 -0.7012 -0.1708  1.4392
 6013SOL     OW18937   4.469   2.532   3.330  0.6128  1.0795  0.0997
 6013SOL    HW118938   4.501   2.584   3.251  0.1291  0.5416 -0.4622
 6013SOL    HW218939   4.527   2.552   3.409  0.5072  2.3608 -0.1338
 6014SOL     OW18940   5.960   1.429   1.613  0.1734 -0.6752 -0.0931
 6014SOL    HW118941   5.901   1.502   1.579  0.0645 -0.2994  0.8874
 6014SOL    HW218942   5.946   1.417   1.711  1.8835 -0.4178  0.2094
 6015SOL     OW18943   6.283   3.672   0.994 -0.2063 -0.2724 -0.0336
 6015SOL    HW118944   6.195   3.670   0.946  0.4072 -2.2759 -1.2123
 6015SOL    HW218945   6.332   3.756   0.971 -0.5467 -0.5343 -1.8314
 6016SOL     OW18946   6.720   5.860   5.629  0.1665 -0.2838  0.1414
 6016SOL    HW118947   6.712   5.883   5.726  0.0754  0.7767 -0.1079
 6016SOL    HW218948   6.652   5.911   5.577  1.1516  0.2565 -0.6513
 6017SOL     OW18949   0.966   3.571   3.269 -0.2176 -0.5901 -0.6557
 6017SOL    HW118950   1.006   3.626   3.196 -1.0470  1.1736  0.1532
 6017SOL    HW218951   1.025   3.492   3.288  0.6247 -0.4124 -2.3666
 6018SOL     OW18952   3.713   1.385   6.491  0.3288 -0.6530 -0.1776
 6018SOL    HW118953   3.710   1.485   6.486 -1.8203 -0.6024  1.0165
 6018SOL    HW218954   3.724   1.357   6.586 -1.2279 -1.5345 -0.2266
 6019SOL     OW18955   4.261   1.978   3.542 -0.2302  0.2618 -0.0416
 6019SOL    HW118956   4.223   2.070   3.542  0.2905  0.4810 -0.9150
 6019SOL    HW218957   4.204   1.919   3.599  0.3196  1.4802  1.8657
 6020SOL     OW18958   1.232   1.232   1.971  0.2238 -0.0462 -0.0516
 6020SOL    HW118959   1.218   1.202   2.065 -1.6270 -0.5489 -0.4535
 6020SOL    HW218960   1.318   1.282   1.965  0.8037 -0.7397  1.7182
 6021SOL     OW18961   3.214   1.181   3.356 -0.4680  0.3856 -0.1027
 6021SOL    HW118962   3.264   1.144   3.277 -0.0663 -0.9282  0.7255
 6021SOL    HW218963   3.259   1.151   3.440 -2.3798 -0.4604  0.6766
 6022SOL     OW18964   3.727   0.986   3.974  0.0493  0.0060  0.3743
 6022SOL    HW118965   3.721   0.911   4.040  1.8447  1.5995  2.4750
 6022SOL    HW218966   3.815   0.983   3.928 -0.4152  0.0599 -0.5434
 6023SOL     OW18967   6.284   1.776   2.440 -0.7220 -0.7453 -0.1683
 6023SOL    HW118968   6.354   1.704   2.440 -0.9322 -0.9478 -0.7426
 6023SOL    HW218969   6.329   1.865   2.444 -0.4702 -0.9021  1.1281
 6024SOL     OW18970   5.494   4.065   2.043 -0.5394  0.2777  0.5344
 6024SOL    HW118971   5.524   4.033   2.133  0.7308 -1.0444 -0.3184
 6024SOL    HW218972   5.427   4.000   2.006  0.7771 -0.5436 -0.4832
 6025SOL     OW18973   4.111   0.465   0.492  0.1190  1.0072  0.0467
 6025SOL    HW118974   4.144   0.514   0.573  0.8420  0.2716  0.2109
 6025SOL    HW218975   4.188   0.442   0.433 -0.5013  2.4324 -1.3862
 6026SOL     OW18976   6.506   4.110   5.248 -0.0867 -0.6965  0.0733
 6026SOL    HW118977   6.407   4.119   5.260 -0.0586  0.1087 -0.2119
 6026SOL    HW218978   6.532   4.152   5.161  0.2461 -2.6758 -0.8278
 6027SOL     OW18979   2.658   3.680   5.682  0.1911 -0.8144  0.3027
 6027SOL    HW118980   2.647   3.599   5.740  0.7810  0.0687  1.7039
 6027SOL    HW218981   2.755   3.700   5.670  0.0611 -0.6578 -0.5312
 6028SOL     OW18982   0.806   4.461   0.854 -0.3506 -0.3750 -0.4145
 6028SOL    HW118983   0.851   4.455   0.765 -0.7531 -0.2044 -0.6326
 6028SOL    HW218984   0.873   4.441   0.926  0.0378 -0.2723 -0.7379
 6029SOL     OW18985   2.553   6.684   6.841 -0.3897  0.1064 -0.5359
 6029SOL    HW118986   2.585   6.778   6.854 -2.6845  0.8944 -0.0940
 6029SOL    HW218987   2.458   6.677   6.873 -0.4363 -2.2474 -1.0457
 6030SOL     OW18988   1.410   0.949   2.209  0.4870  0.1637 -0.0963
 6030SOL    HW118989   1.364   0.880   2.265 -0.7326  1.0650  0.0407
 6030SOL    HW218990   1.367   1.038   2.223  0.5441  0.5392 -1.9798
 6031SOL     OW18991   4.082   5.466   5.450  0.6743 -0.4153  0.2178
 6031SOL    HW118992   4.173   5.483   5.489  1.7928  0.7739 -2.6820
 6031SOL    HW218993   4.092   5.421   5.361 -1.5266  0.6866 -0.6465
 6032SOL     OW18994   1.863   3.274   3.330  0.0230 -0.0266 -0.3217
 6032SOL    HW118995   1.832   3.275   3.425  2.9412 -0.6121  0.7408
 6032SOL    HW218996   1.785   3.259   3.269 -1.7942 -0.5734  2.0139
 6033SOL     OW18997   1.267   3.270   2.975 -0.4488  0.4352  0.0647
 6033SOL    HW118998   1.355   3.228   2.951  0.3754  1.2031  1.5714
 6033SOL    HW218999   1.262   3.362   2.936 -0.4417  0.5205  0.2656
 6034SOL     OW19000   6.938   5.682   4.722  0.7114  0.2208  0.0818
 6034SOL    HW119001   6.939   5.691   4.821  0.5640  0.3652  0.0709
 6034SOL    HW219002   6.891   5.598   4.696  0.6564  0.2362  0.1319
 6035SOL     OW19003   4.672   0.823   3.927 -0.0977 -0.2517 -0.2599
 6035SOL    HW119004   4.681   0.798   4.023 -0.3238  0.1407 -0.1324
 6035SOL    HW219005   4.741   0.774   3.873  0.9613  0.5655  0.2955
 6036SOL     OW19006   5.099   0.434   5.403 -0.1737  0.0506  0.0566
 6036SOL    HW119007   5.051   0.349   5.381  1.0527 -1.1884  1.8490
 6036SOL    HW219008   5.097   0.449   5.502  3.4639 -0.3568  0.3119
 6037SOL     OW19009   5.181   4.309   6.278 -0.3508 -0.1965  0.5959
 6037SOL    HW119010   5.160   4.212   6.261  2.1162 -0.7202  0.1547
 6037SOL    HW219011   5.247   4.341   6.211  0.4802  1.1909  2.0030
 6038SOL     OW19012   6.800   5.133   6.915  0.4423  0.5031 -0.1544
 6038SOL    HW119013   6.847   5.095   6.995  0.4771  1.3624  0.2420
 6038SOL    HW219014   6.714   5.085   6.901  1.7871 -1.7096 -1.4151
 6039SOL     OW19015   3.406   3.898   4.203  0.4052 -0.5235 -0.3622
 6039SOL    HW119016   3.483   3.878   4.143  0.6981  0.6456 -0.3977
 6039SOL    HW219017   3.329   3.933   4.150  0.9203  1.2272 -0.0188
 6040SOL     OW19018   0.097   0.856   1.090 -0.1260 -0.2096  0.8158
 6040SOL    HW119019   0.036   0.929   1.063 -1.1100 -0.3551  2.5043
 6040SOL    HW219020   0.186   0.894   1.115  0.8068 -0.0718 -2.3466
 6041SOL     OW19021   1.163   3.003   6.321  0.0440 -0.7881 -0.1694
 6041SOL    HW119022   1.190   3.041   6.233 -0.5846 -2.0792 -0.9493
 6041SOL    HW219023   1.067   3.024   6.340 -0.2230 -1.6937 -0.4673
 6042SOL     OW19024   6.224   6.372   1.615  0.3182 -0.1086  0.4541
 6042SOL    HW119025   6.194   6.317   1.693 -1.6616 -0.1930 -0.3165
 6042SOL    HW219026   6.243   6.466   1.646 -1.6694  0.1921  0.8773
 6043SOL     OW19027   6.405   4.611   3.808  0.1313  0.1376 -0.5172
 6043SOL    HW119028   6.444   4.519   3.809 -0.5106 -0.1461  0.6820
 6043SOL    HW219029   6.359   4.628   3.896 -1.2350  0.9591 -1.3570
 6044SOL     OW19030   1.698   0.492   0.776 -0.1483 -0.2696 -0.2724
 6044SOL    HW119031   1.688   0.591   0.779  0.2806 -0.2317  0.0570
 6044SOL    HW219032   1.784   0.466   0.821 -0.5436 -0.8314  0.1719
 6045SOL     OW19033   5.335   3.778   6.291  0.5249 -0.6398  0.5632
 6045SOL    HW119034   5.351   3.784   6.389  0.7820  2.5882  0.4371
 6045SOL    HW219035   5.422   3.788   6.242  0.3048 -1.4645 -0.0280
 6046SOL     OW19036   4.706   3.197   0.514 -0.3758  0.1699  0.1306
 6046SOL    HW119037   4.743   3.216   0.605  0.0845 -2.1510  0.4808
 6046SOL    HW219038   4.644   3.119   0.518  0.3624 -0.5838 -1.6664
 6047SOL     OW19039   0.126   0.994   3.313 -0.3270  0.3107 -0.6630
 6047SOL    HW119040   0.093   0.899   3.318  0.5667  0.0654  2.6096
 6047SOL    HW219041   0.183   1.004   3.231 -1.2611 -1.6559 -1.6479
 6048SOL     OW19042   5.045   6.333   3.381  0.2742  0.3537 -0.3805
 6048SOL    HW119043   5.124   6.274   3.398  0.6213  1.0486  0.4800
 6048SOL    HW219044   5.027   6.337   3.283  1.2960  0.1548 -0.5888
 6049SOL     OW19045   3.996   2.396   0.497 -0.2081  0.1563  0.1976
 6049SOL    HW119046   4.087   2.357   0.515 -0.0913 -0.9078 -2.3327
 6049SOL    HW219047   3.943   2.396   0.582  2.1538  0.9420  1.7915
 6050SOL     OW19048   4.275   3.655   6.840 -0.1722 -0.2663 -0.1217
 6050SOL    HW119049   4.203   3.631   6.905 -0.3018  0.1741 -0.0997
 6050SOL    HW219050   4.295   3.576   6.782  1.3463 -1.3349  1.7319
 6051SOL     OW19051   3.094   1.761   3.703  0.2521 -0.0701 -0.2472
 6051SOL    HW119052   3.170   1.821   3.726 -1.4323  2.2819 -0.5552
 6051SOL    HW219053   3.053   1.725   3.787 -1.0016  2.2441  0.2204
 6052SOL     OW19054   2.144   6.834   6.773  0.0493 -0.2041 -0.5681
 6052SOL    HW119055   2.085   6.768   6.821  1.4454 -1.9941 -1.1954
 6052SOL    HW219056   2.089   6.911   6.742 -1.7957 -1.3823 -0.3894
 6053SOL     OW19057   1.624   1.289   0.284 -0.1695  0.2926 -0.2493
 6053SOL    HW119058   1.664   1.380   0.290 -1.0045  0.6098  0.9480
 6053SOL    HW219059   1.694   1.223   0.256  0.8155  1.0506  0.3748
 6054SOL     OW19060   1.146   4.400   5.781  0.0208  0.1414  0.1065
 6054SOL    HW119061   1.202   4.473   5.741 -0.4783  0.5524  0.1503
 6054SOL    HW219062   1.049   4.425   5.775 -0.2433 -1.0760 -1.0077
 6055SOL     OW19063   4.363   1.018   4.254  0.1916  0.4755 -0.3498
 6055SOL    HW119064   4.336   0.952   4.324  1.0257 -0.5143 -0.9183
 6055SOL    HW219065   4.323   1.107   4.274 -1.1492 -0.2425  0.3299
 6056SOL     OW19066   5.302   0.350   5.917 -0.3170 -0.1143 -0.0201
 6056SOL    HW119067   5.340   0.440   5.939 -0.7313 -0.3099  1.6010
 6056SOL    HW219068   5.222   0.332   5.975  0.5540 -2.0780  0.6544
 6057SOL     OW19069   3.416   0.532   5.065  0.4670  0.0590 -0.2771
 6057SOL    HW119070   3.316   0.538   5.067  0.3534 -1.5194  0.8682
 6057SOL    HW219071   3.450   0.575   4.981 -1.1513  0.7308 -0.6356
 6058SOL     OW19072   0.473   4.081   2.683 -0.1984 -0.1138 -0.6173
 6058SOL    HW119073   0.479   4.179   2.664 -1.1614  0.3519  1.2123
 6058SOL    HW219074   0.383   4.047   2.655  0.4816 -0.7174 -2.1429
 6059SOL     OW19075   5.901   5.338   0.313  0.6465 -0.0177 -0.0772
 6059SOL    HW119076   5.826   5.403   0.321  1.2206  0.5752  0.6849
 6059SOL    HW219077   5.870   5.256   0.264  0.2765  1.3775 -2.2756
 6060SOL     OW19078   3.328   5.347   0.321  0.1546 -0.0104  0.2155
 6060SOL    HW119079   3.246   5.391   0.357 -1.0329 -2.2918  0.4827
 6060SOL    HW219080   3.409   5.392   0.358 -0.9384  1.8377  0.5240
 6061SOL     OW19081   4.497   2.914   0.778  0.2272  0.6765  0.4182
 6061SOL    HW119082   4.594   2.903   0.795  0.2313  0.6064  0.3473
 6061SOL    HW219083   4.456   2.967   0.852  0.0743 -0.3788  1.0942
 6062SOL     OW19084   2.783   1.929   3.863  0.2496  0.3897  0.1736
 6062SOL    HW119085   2.821   1.905   3.773  0.5336  1.3312  0.0268
 6062SOL    HW219086   2.683   1.923   3.859  0.3113 -3.3400  0.9249
 6063SOL     OW19087   2.718   1.788   5.952 -0.1195  0.1264  0.0424
 6063SOL    HW119088   2.661   1.736   5.888  0.1064  1.2690 -1.1368
 6063SOL    HW219089   2.789   1.837   5.901 -0.5162  1.8517  1.0473
 6064SOL     OW19090   3.015   5.959   3.403  0.2948 -0.1843 -0.0471
 6064SOL    HW119091   2.986   5.920   3.491  1.9094 -0.8572  0.2117
 6064SOL    HW219092   3.059   5.889   3.348 -2.0157 -0.1629 -2.0863
 6065SOL     OW19093   6.476   6.011   5.546  0.0413  0.4038  0.5364
 6065SOL    HW119094   6.476   5.924   5.496  2.3680  0.1461  0.8635
 6065SOL    HW219095   6.386   6.027   5.586 -0.3143 -2.1031  0.8853
 6066SOL     OW19096   4.656   2.603   1.426 -0.0428  0.3354 -0.1528
 6066SOL    HW119097   4.658   2.548   1.342  0.0868  0.1695 -0.0423
 6066SOL    HW219098   4.698   2.692   1.408 -0.8488  0.6473 -0.5021
 6067SOL     OW19099   4.203   2.045   1.445 -0.3656  0.2800 -0.0046
 6067SOL    HW119100   4.256   1.969   1.407 -0.1116  1.0604 -1.2937
 6067SOL    HW219101   4.107   2.033   1.421 -0.5408 -0.3123  0.9548
 6068SOL     OW19102   6.260   3.291   5.483  0.0748 -0.3417  0.3042
 6068SOL    HW119103   6.283   3.336   5.396  0.5841 -3.1997 -1.1830
 6068SOL    HW219104   6.177   3.331   5.520 -0.6020  0.5019 -1.9222
 6069SOL     OW19105   6.787   4.027   5.852  0.1547  0.4220  0.2646
 6069SOL    HW119106   6.848   3.948   5.861 -3.7433 -3.0444 -0.8956
 6069SOL    HW219107   6.767   4.043   5.755 -0.5949  1.6193  0.5975
 6070SOL     OW19108   2.335   1.789   5.777 -0.0775  0.0461  0.3270
 6070SOL    HW119109   2.312   1.884   5.758  1.6149  0.2225 -0.9824
 6070SOL    HW219110   2.275   1.755   5.850 -1.6485  1.6643 -0.1382
 6071SOL     OW19111   4.762   4.055   5.405 -0.2217 -0.2618  0.5756
 6071SOL    HW119112   4.754   4.153   5.387  2.4509  0.3873  2.3752
 6071SOL    HW219113   4.831   4.015   5.345 -0.0941 -0.6840  0.9969
 6072SOL     OW19114   1.452   0.856   1.500  0.3006 -0.0959 -0.3328
 6072SOL    HW119115   1.514   0.783   1.471  1.1561  0.0733  0.9995
 6072SOL    HW219116   1.504   0.940   1.516 -0.6661  0.8339 -1.8240
 6073SOL     OW19117   6.029   1.782   5.879 -0.0710 -0.3397 -0.3559
 6073SOL    HW119118   6.018   1.805   5.782 -0.0314  0.2534 -0.2273
 6073SOL    HW219119   6.117   1.739   5.894  0.7915  1.3664 -0.2854
 6074SOL     OW19120   1.725   5.790   3.930 -0.1481 -0.1861  0.4232
 6074SOL    HW119121   1.721   5.785   3.830  1.4056 -0.3144  0.3506
 6074SOL    HW219122   1.811   5.750   3.962 -0.9763 -0.8990  1.8781
 6075SOL     OW19123   5.344   0.224   5.601  0.2386 -0.0341 -0.4417
 6075SOL    HW119124   5.321   0.255   5.694  0.7592 -1.2197  0.1081
 6075SOL    HW219125   5.292   0.277   5.535 -1.1466 -0.0367  0.5886
 6076SOL     OW19126   1.985   4.290   3.929 -0.3051  0.2459 -0.3474
 6076SOL    HW119127   1.981   4.245   4.019  1.3790  0.6014 -0.0580
 6076SOL    HW219128   1.958   4.386   3.939 -1.5077 -0.0658 -0.5032
 6077SOL     OW19129   3.922   5.895   2.459  0.2034 -0.1931  0.1719
 6077SOL    HW119130   3.987   5.835   2.505  0.3306  0.7221  1.2396
 6077SOL    HW219131   3.832   5.850   2.454  0.1708 -0.2844  1.3936
 6078SOL     OW19132   4.707   4.062   0.838 -0.3718 -0.2624 -0.4981
 6078SOL    HW119133   4.698   4.136   0.905  0.4703  0.3310 -1.0199
 6078SOL    HW219134   4.797   4.021   0.847 -0.3052 -0.2707 -1.1722
 6079SOL     OW19135   3.074   2.284   7.011 -0.2704  0.0189 -0.2647
 6079SOL    HW119136   3.011   2.262   6.937  0.2613  1.2051 -1.1049
 6079SOL    HW219137   3.116   2.374   6.994 -0.4274  0.5064  1.6666
 6080SOL     OW19138   6.857   0.990   0.151  0.3749 -0.6239 -0.0164
 6080SOL    HW119139   6.925   0.918   0.133  0.9928 -0.1432  0.3530
 6080SOL    HW219140   6.837   1.039   0.066 -1.3485 -2.3150 -0.6574
 6081SOL     OW19141   0.370   5.247   6.221  0.2500  0.4680 -0.1094
 6081SOL    HW119142   0.419   5.160   6.227  0.7810  0.7879  0.2281
 6081SOL    HW219143   0.377   5.283   6.128 -1.0172 -0.4417 -0.5965
 6082SOL     OW19144   3.649   0.629   3.069  0.0090  0.2541 -0.5497
 6082SOL    HW119145   3.562   0.579   3.062 -0.8649  0.9694  2.9489
 6082SOL    HW219146   3.710   0.582   3.132 -0.5227  2.9353  2.2264
 6083SOL     OW19147   0.464   6.411   6.331  0.2378  0.8055  0.3862
 6083SOL    HW119148   0.366   6.387   6.336 -0.2444  2.5920  0.1470
 6083SOL    HW219149   0.483   6.455   6.244  1.5598 -0.6266 -0.0852
 6084SOL     OW19150   0.082   4.219   3.233  0.3641 -0.0322  0.2126
 6084SOL    HW119151   0.022   4.144   3.260 -1.1996  0.7169 -0.9992
 6084SOL    HW219152   0.066   4.298   3.292  2.6135 -0.8264  2.0406
 6085SOL     OW19153   6.714   5.348   0.247 -0.1481  0.0957 -0.0173
 6085SOL    HW119154   6.653   5.346   0.168 -1.1331  0.7530  0.7198
 6085SOL    HW219155   6.667   5.388   0.325  0.9963 -0.0472  0.7640
 6086SOL     OW19156   3.006   6.832   6.385 -0.1464 -0.3787  0.4086
 6086SOL    HW119157   3.102   6.837   6.413 -0.6121  0.0297  2.0674
 6086SOL    HW219158   2.978   6.920   6.346 -0.1285 -0.1167  0.9699
 6087SOL     OW19159   5.773   0.405   6.853  0.2656 -0.5445  0.1608
 6087SOL    HW119160   5.802   0.418   6.758 -2.1586 -1.5412 -0.7838
 6087SOL    HW219161   5.850   0.427   6.914  2.2104 -0.8357 -2.0274
 6088SOL     OW19162   0.481   6.637   5.052  0.1847 -0.3787 -0.2544
 6088SOL    HW119163   0.477   6.605   5.146  0.1962  0.9681  0.2248
 6088SOL    HW219164   0.567   6.606   5.010  0.7096 -0.0369  0.5430
 6089SOL     OW19165   6.925   5.000   2.744 -0.0569 -0.1756 -0.6693
 6089SOL    HW119166   6.866   5.060   2.798  2.4748  1.1310  0.8798
 6089SOL    HW219167   6.976   4.940   2.806  0.6376 -0.8656 -1.8778
 6090SOL     OW19168   2.391   4.805   6.686 -0.0257  0.0769  0.0127
 6090SOL    HW119169   2.471   4.864   6.675 -0.2460  0.4808  0.5662
 6090SOL    HW219170   2.316   4.839   6.629 -0.5295  1.0200  1.2182
 6091SOL     OW19171   0.029   3.591   2.169 -0.2720 -0.2984 -0.2862
 6091SOL    HW119172   0.009   3.531   2.091  1.4339 -1.9541  0.4699
 6091SOL    HW219173   0.078   3.539   2.239  0.7675  1.8560  0.6770
 6092SOL     OW19174   1.708   1.092   1.796  0.3383  0.1309 -0.1752
 6092SOL    HW119175   1.713   1.047   1.885  0.3401  0.0438 -0.2196
 6092SOL    HW219176   1.760   1.040   1.729 -1.3719 -0.9497 -0.7225
 6093SOL     OW19177   1.147   3.839   1.771 -0.0759 -0.7659 -0.4012
 6093SOL    HW119178   1.096   3.858   1.688 -0.8684 -0.2437  0.1976
 6093SOL    HW219179   1.138   3.742   1.794  0.6129 -1.0361 -1.2193
 6094SOL     OW19180   3.406   1.723   2.740  0.2064 -0.1200 -0.4416
 6094SOL    HW119181   3.415   1.628   2.769 -0.9659 -0.3399 -0.7594
 6094SOL    HW219182   3.325   1.733   2.681 -1.3832  1.5951  1.8445
 6095SOL     OW19183   4.134   2.685   6.905 -0.0272  0.4275  0.3748
 6095SOL    HW119184   4.092   2.670   6.815  0.1691 -0.3332  0.4046
 6095SOL    HW219185   4.111   2.610   6.966 -0.1044  0.9075  0.9516
 6096SOL     OW19186   4.824   1.601   3.986 -0.1738 -0.0934  0.3322
 6096SOL    HW119187   4.818   1.505   4.013 -0.1753 -0.0937  0.3310
 6096SOL    HW219188   4.740   1.648   4.012 -0.7016 -0.3797 -0.7973
 6097SOL     OW19189   3.509   6.975   3.611  0.7336  0.3265  0.2350
 6097SOL    HW119190   3.555   6.977   3.700 -1.5673 -2.7317  1.6722
 6097SOL    HW219191   3.434   7.041   3.611  0.0516 -0.4132  1.0589
 6098SOL     OW19192   1.223   2.722   6.187  0.1871 -0.4267 -0.0350
 6098SOL    HW119193   1.127   2.750   6.198  0.3246 -0.6189  2.0585
 6098SOL    HW219194   1.230   2.624   6.202  1.0160 -0.0521  2.3926
 6099SOL     OW19195   6.119   6.331   5.511  0.2707 -0.7354  0.1689
 6099SOL    HW119196   6.130   6.275   5.429 -1.2458  0.6199 -1.0088
 6099SOL    HW219197   6.155   6.281   5.590  1.0932 -2.3737 -1.1817
 6100SOL     OW19198   5.906   2.219   0.007 -0.7027  0.2927  0.2820
 6100SOL    HW119199   5.897   2.129   0.049 -0.6861  0.2543  0.2010
 6100SOL    HW219200   5.933   2.210  -0.088 -0.9599  0.3719  0.1990
 6101SOL     OW19201   6.583   1.427   5.352 -0.1571 -0.1672 -0.5076
 6101SOL    HW119202   6.603   1.441   5.255  0.1853  2.8010 -0.1007
 6101SOL    HW219203   6.498   1.375   5.361  0.0359 -0.8990 -2.3630
 6102SOL     OW19204   3.510   0.638   1.508  0.7557 -0.4967 -0.3250
 6102SOL    HW119205   3.459   0.632   1.422 -0.0241  0.6949  0.0155
 6102SOL    HW219206   3.445   0.649   1.584  1.4882  0.7295  0.1552
 6103SOL     OW19207   6.850   1.958   5.851  0.1648  0.0434 -0.3259
 6103SOL    HW119208   6.772   1.961   5.913  1.6316  0.0323  1.6458
 6103SOL    HW219209   6.820   1.933   5.759 -2.3582  1.7299 -0.0638
 6104SOL     OW19210   5.189   2.160   5.485 -0.0779 -0.1671 -0.4764
 6104SOL    HW119211   5.219   2.073   5.446 -0.1414 -0.6443  0.5203
 6104SOL    HW219212   5.241   2.235   5.443 -0.1754 -0.6527 -1.4982
 6105SOL     OW19213   0.834   1.022   4.787  0.3880  0.4586 -0.3161
 6105SOL    HW119214   0.900   1.059   4.722  1.0724  0.5312  0.4017
 6105SOL    HW219215   0.765   1.092   4.807  0.1863  0.4448 -0.9310
 6106SOL     OW19216   1.169   2.557   5.636  0.0413  0.2693 -0.2623
 6106SOL    HW119217   1.155   2.613   5.717  0.5037 -0.9550  0.7000
 6106SOL    HW219218   1.260   2.575   5.597 -0.2385  0.9627 -0.6139
 6107SOL     OW19219   1.030   4.195   3.407 -0.4063  0.3255  0.3332
 6107SOL    HW119220   1.001   4.099   3.401  0.8741 -0.0100 -0.9607
 6107SOL    HW219221   0.949   4.253   3.400 -1.0816 -0.6389 -0.3136
 6108SOL     OW19222   0.618   1.953   2.513  0.3507 -0.3348 -0.0220
 6108SOL    HW119223   0.655   1.873   2.464 -1.4533 -2.1774  1.4506
 6108SOL    HW219224   0.518   1.950   2.511  0.1736 -0.3277  3.3910
 6109SOL     OW19225   5.315   1.953   0.342  0.9137 -0.1850 -0.1743
 6109SOL    HW119226   5.282   2.036   0.387 -0.6456 -1.3317  0.9179
 6109SOL    HW219227   5.258   1.935   0.262  0.9798 -0.4354 -0.1633
 6110SOL     OW19228   3.430   1.805   5.978 -0.2578  0.1885 -0.2648
 6110SOL    HW119229   3.409   1.716   6.019 -0.0908 -0.4982 -1.6215
 6110SOL    HW219230   3.346   1.844   5.939 -0.2209  0.3621 -0.1697
 6111SOL     OW19231   1.390   5.765   2.830 -0.3890  0.1995 -0.7181
 6111SOL    HW119232   1.487   5.744   2.842 -0.7366 -0.2768  2.0086
 6111SOL    HW219233   1.359   5.822   2.906 -2.4899 -0.5950 -0.9104
 6112SOL     OW19234   2.675   1.462   5.368 -0.4207 -0.6189  0.2714
 6112SOL    HW119235   2.580   1.471   5.339 -0.2707 -0.9901 -0.3606
 6112SOL    HW219236   2.723   1.548   5.353 -0.3581 -0.7870 -0.5693
 6113SOL     OW19237   6.723   2.094   6.521 -0.0545  0.4037 -0.2905
 6113SOL    HW119238   6.652   2.027   6.546 -0.1209 -0.4881 -2.6676
 6113SOL    HW219239   6.681   2.182   6.501 -0.2955  0.3239 -0.1424
 6114SOL     OW19240   5.880   4.655   5.571  0.2179  0.1931 -0.1100
 6114SOL    HW119241   5.902   4.740   5.618 -1.6629  1.3462 -1.1752
 6114SOL    HW219242   5.782   4.636   5.580  0.6079 -1.9775  0.2310
 6115SOL     OW19243   2.488   5.953   4.689  0.3801 -0.2797  0.3619
 6115SOL    HW119244   2.568   5.904   4.724  0.5987  0.9264  1.6719
 6115SOL    HW219245   2.498   6.051   4.707 -2.1941 -0.2562  2.3021
 6116SOL     OW19246   2.053   2.350   0.254  0.5219  0.3043  0.4112
 6116SOL    HW119247   2.047   2.375   0.157 -0.6000  1.6665  0.7894
 6116SOL    HW219248   2.127   2.401   0.297  0.4274  0.4045  0.4570
 6117SOL     OW19249   6.096   6.102   4.938 -0.1596 -0.3290  0.4534
 6117SOL    HW119250   6.183   6.062   4.967 -1.2036 -1.6498  1.9798
 6117SOL    HW219251   6.071   6.175   5.002 -1.5508 -1.9707  1.9137
 6118SOL     OW19252   5.901   2.078   0.591 -0.1327 -0.4761 -0.0416
 6118SOL    HW119253   5.874   2.130   0.672  0.3033 -0.0188 -0.1884
 6118SOL    HW219254   5.821   2.034   0.551 -0.4604 -0.1312  0.2326
 6119SOL     OW19255   6.866   4.118   3.776  0.7809  0.2239 -0.0446
 6119SOL    HW119256   6.899   4.177   3.849  1.6570 -0.2384 -0.0578
 6119SOL    HW219257   6.914   4.030   3.780  1.9360  0.7019 -2.0750
 6120SOL     OW19258   2.472   6.629   4.123 -0.3725  0.1200  0.4851
 6120SOL    HW119259   2.562   6.672   4.118 -0.8424  1.3777  2.0579
 6120SOL    HW219260   2.482   6.530   4.118  0.9193  0.3029 -1.1916
 6121SOL     OW19261   0.613   4.083   4.746  0.0972  0.2625 -0.5174
 6121SOL    HW119262   0.670   4.136   4.809 -1.4880 -0.8791  2.0391
 6121SOL    HW219263   0.537   4.140   4.714  0.2067  0.4937 -0.3685
 6122SOL     OW19264   3.276   6.749   2.353  0.3437  0.6186 -0.3225
 6122SOL    HW119265   3.239   6.719   2.264  2.3451  0.9016 -1.3184
 6122SOL    HW219266   3.336   6.828   2.339  1.5249  0.0202  1.1286
 6123SOL     OW19267   6.436   0.129   0.407  0.1563 -0.1162 -0.3118
 6123SOL    HW119268   6.457   0.080   0.491 -0.3073 -0.1116 -0.1902
 6123SOL    HW219269   6.337   0.141   0.399  0.2902  1.2446 -0.0909
 6124SOL     OW19270   2.391   6.838   5.335 -0.2671 -0.2482 -0.1074
 6124SOL    HW119271   2.353   6.792   5.254 -1.8999 -0.9332  0.9760
 6124SOL    HW219272   2.334   6.918   5.357 -0.0449 -0.2641  0.5423
 6125SOL     OW19273   4.153   5.195   0.092  0.1765  0.1792 -0.2063
 6125SOL    HW119274   4.244   5.238   0.093  0.3973 -0.2848  0.9307
 6125SOL    HW219275   4.156   5.111   0.146 -0.3691 -1.0344 -1.9454
 6126SOL     OW19276   5.865   0.088   4.679  0.3788  0.0862  0.3376
 6126SOL    HW119277   5.877   0.068   4.582  0.0981 -0.3638  0.3964
 6126SOL    HW219278   5.795   0.158   4.690  1.6531  1.4550  0.1063
 6127SOL     OW19279   1.651   6.526   1.792  0.0667 -0.1672  0.2582
 6127SOL    HW119280   1.710   6.513   1.711 -1.5873  1.4453 -1.2932
 6127SOL    HW219281   1.593   6.446   1.803  1.0510 -0.8637  0.5248
 6128SOL     OW19282   5.457   3.084   0.666 -0.4611  0.3775  0.4398
 6128SOL    HW119283   5.416   3.151   0.727 -0.9230  0.3837  0.1272
 6128SOL    HW219284   5.392   3.060   0.593  0.3544  0.9434 -0.4980
 6129SOL     OW19285   5.844   3.843   3.695 -0.2224  0.4300 -0.0666
 6129SOL    HW119286   5.856   3.939   3.671  2.2322  0.1385 -0.3152
 6129SOL    HW219287   5.791   3.836   3.780  0.2343  2.0431  0.3872
 6130SOL     OW19288   5.958   2.792   3.758  0.7143  0.3324  0.4578
 6130SOL    HW119289   5.874   2.844   3.743  0.1172 -0.9958 -1.1090
 6130SOL    HW219290   5.963   2.762   3.854  0.0068  1.3943  0.8406
 6131SOL     OW19291   5.706   1.042   4.141 -0.2141 -0.1723 -0.3911
 6131SOL    HW119292   5.693   0.982   4.061  2.7738  0.0057 -1.1634
 6131SOL    HW219293   5.729   1.134   4.110  1.6273 -0.2472  0.5802
 6132SOL     OW19294   1.919   0.224   2.150  0.5785  0.2286  0.3258
 6132SOL    HW119295   2.006   0.178   2.170 -0.5064 -1.6624  0.9477
 6132SOL    HW219296   1.876   0.181   2.071 -0.7354 -0.2591  1.2621
 6133SOL     OW19297   0.089   4.012   1.871  0.0833 -0.7070 -0.0954
 6133SOL    HW119298   0.142   4.044   1.792 -1.4672 -0.1257 -0.9390
 6133SOL    HW219299   0.054   3.920   1.853 -0.3796 -0.5235 -0.1482
 6134SOL     OW19300   4.888   2.117   1.182 -0.4111 -0.5541 -0.2114
 6134SOL    HW119301   4.848   2.184   1.120  1.4159 -1.4965 -2.5700
 6134SOL    HW219302   4.819   2.050   1.208 -1.4295  0.3596 -0.4768
 6135SOL     OW19303   5.805   6.590   3.230  0.0387 -0.1621  0.0797
 6135SOL    HW119304   5.713   6.552   3.239  0.9970 -2.2593  1.9240
 6135SOL    HW219305   5.823   6.652   3.307  0.6483 -0.8999  0.5423
 6136SOL     OW19306   6.852   2.609   3.440  0.0912  1.1998 -0.9998
 6136SOL    HW119307   6.774   2.625   3.379  0.6233  1.4698 -1.6189
 6136SOL    HW219308   6.912   2.539   3.400 -1.6993 -1.8854  1.2021
 6137SOL     OW19309   3.219   0.609   5.451 -0.4626  0.1226  0.2042
 6137SOL    HW119310   3.270   0.688   5.417 -2.3252  0.1237 -3.0652
 6137SOL    HW219311   3.124   0.636   5.468 -0.7500 -1.0668  0.5354
 6138SOL     OW19312   4.259   0.727   2.283  0.6339 -0.4841 -0.0272
 6138SOL    HW119313   4.230   0.802   2.225  1.8150 -0.5615 -0.7584
 6138SOL    HW219314   4.206   0.645   2.261  0.1458 -0.1649 -0.0453
 6139SOL     OW19315   3.439   2.356   5.337  0.3483  0.2294 -0.1205
 6139SOL    HW119316   3.345   2.370   5.304 -1.5281  0.5558  4.4602
 6139SOL    HW219317   3.451   2.260   5.362  0.6861  0.4515  0.5929
 6140SOL     OW19318   1.181   1.236   4.410  0.5345  0.2879 -0.0777
 6140SOL    HW119319   1.213   1.196   4.325 -0.5255 -0.3777 -0.1794
 6140SOL    HW219320   1.110   1.178   4.450 -2.0566  2.6803 -0.9217
 6141SOL     OW19321   5.825   6.500   4.243  0.1155  0.7052  0.2416
 6141SOL    HW119322   5.924   6.512   4.244  0.0099  1.7270 -0.2378
 6141SOL    HW219323   5.803   6.406   4.216  0.9334  1.0371 -1.7466
 6142SOL     OW19324   5.333   4.471   1.464 -0.0183  0.4422 -0.0691
 6142SOL    HW119325   5.309   4.542   1.529  0.4681 -0.1480  0.7828
 6142SOL    HW219326   5.255   4.450   1.405 -1.4256 -0.9378  2.1352
 6143SOL     OW19327   6.276   6.454   5.133 -0.0394  0.2312  0.3759
 6143SOL    HW119328   6.267   6.521   5.060 -1.4043 -1.3437 -1.0050
 6143SOL    HW219329   6.368   6.416   5.132 -0.0920  0.0821 -0.7170
 6144SOL     OW19330   0.683   4.209   2.439  0.7588 -0.3258 -0.2769
 6144SOL    HW119331   0.624   4.282   2.472  0.7362 -0.7250  0.5957
 6144SOL    HW219332   0.639   4.162   2.364  1.3071  1.3426 -1.7101
 6145SOL     OW19333   4.432   6.285   3.823 -0.5858 -0.2802 -0.3922
 6145SOL    HW119334   4.383   6.364   3.861 -2.0963 -0.8874 -1.0375
 6145SOL    HW219335   4.489   6.245   3.895  1.8570  2.5814 -0.5502
 6146SOL     OW19336   3.424   1.233   2.446 -0.3576 -0.0294  0.4108
 6146SOL    HW119337   3.447   1.293   2.523  0.3224 -0.8847  0.8896
 6146SOL    HW219338   3.492   1.245   2.374 -1.2097  1.0601 -0.2524
 6147SOL     OW19339   2.835   5.427   1.806 -0.0779  0.0238 -0.1006
 6147SOL    HW119340   2.853   5.328   1.806 -4.1186 -0.9395  1.7628
 6147SOL    HW219341   2.878   5.468   1.886  2.1093 -0.0233 -1.1884
 6148SOL     OW19342   6.695   0.819   4.997  0.2376 -0.5612 -0.2934
 6148SOL    HW119343   6.645   0.738   5.027  0.6018 -1.5086 -2.0780
 6148SOL    HW219344   6.640   0.900   5.016 -0.3629 -1.2509  1.0709
 6149SOL     OW19345   3.541   6.728   3.460  0.2828  0.1862 -0.3574
 6149SOL    HW119346   3.583   6.749   3.371 -1.6044  2.9493 -0.7227
 6149SOL    HW219347   3.512   6.813   3.504 -1.2539 -1.3139  1.6989
 6150SOL     OW19348   4.814   5.226   5.323 -0.2573  0.1716 -0.1947
 6150SOL    HW119349   4.792   5.271   5.410  0.8057  0.8545 -0.2658
 6150SOL    HW219350   4.885   5.158   5.338 -1.4359 -1.0990 -0.2008
 6151SOL     OW19351   0.099   4.422   4.731  0.5051 -0.8809 -0.1164
 6151SOL    HW119352   0.032   4.409   4.804  1.2428 -0.4445  0.6501
 6151SOL    HW219353   0.154   4.503   4.749  0.2600 -0.3598 -1.5149
 6152SOL     OW19354   5.934   5.368   6.103 -0.0127 -0.1531  0.2942
 6152SOL    HW119355   5.995   5.379   6.025 -0.5339 -0.7269 -0.2036
 6152SOL    HW219356   5.964   5.289   6.157 -0.0410 -0.1590  0.3016
 6153SOL     OW19357   3.143   3.063   1.862 -0.2266 -0.2699  0.5513
 6153SOL    HW119358   3.076   3.009   1.810  0.4404  0.4172 -1.0635
 6153SOL    HW219359   3.184   3.004   1.932  0.7499 -2.0439 -1.3872
 6154SOL     OW19360   5.126   1.285   0.811 -0.0860  0.1542 -0.1505
 6154SOL    HW119361   5.124   1.187   0.835  0.0134  0.1581 -0.1283
 6154SOL    HW219362   5.061   1.334   0.869  0.8645  0.3229  0.8173
 6155SOL     OW19363   1.811   3.365   4.672 -0.0555 -0.1281 -0.0301
 6155SOL    HW119364   1.904   3.395   4.691 -0.3070  0.8551 -0.2858
 6155SOL    HW219365   1.785   3.394   4.579 -2.0014  3.3282  1.3659
 6156SOL     OW19366   4.925   6.050   1.989 -0.1619 -0.1843 -0.0658
 6156SOL    HW119367   5.014   6.055   1.944  0.2363  0.3756  0.7605
 6156SOL    HW219368   4.907   6.136   2.036 -1.1061 -0.3284 -0.1443
 6157SOL     OW19369   1.741   2.705   3.971 -0.4899 -0.8387 -0.3183
 6157SOL    HW119370   1.642   2.700   3.986 -0.4204 -1.4201 -0.0522
 6157SOL    HW219371   1.768   2.642   3.898 -0.2057 -1.2624  0.1497
 6158SOL     OW19372   5.390   6.284   1.231  0.0365  0.1826 -0.0082
 6158SOL    HW119373   5.435   6.202   1.267  1.7862  1.1689  0.1921
 6158SOL    HW219374   5.308   6.258   1.180 -0.9433 -1.4731  2.2539
 6159SOL     OW19375   6.158   6.890   0.999 -0.2116 -0.0709  0.0344
 6159SOL    HW119376   6.162   6.841   1.087 -1.5297 -0.5180 -0.1349
 6159SOL    HW219377   6.152   6.988   1.017  1.2968 -0.0138  0.3945
 6160SOL     OW19378   0.430   4.917   6.883 -0.5679  0.5063  0.2214
 6160SOL    HW119379   0.394   4.828   6.911 -1.4021  0.2348 -1.6170
 6160SOL    HW219380   0.508   4.905   6.822 -0.6097  1.0542  0.0481
 6161SOL     OW19381   6.503   1.581   4.619 -0.2918 -0.2755  0.0059
 6161SOL    HW119382   6.480   1.615   4.710  0.6474 -0.0548  0.1695
 6161SOL    HW219383   6.514   1.659   4.557  1.3607 -0.2868  0.2592
 6162SOL     OW19384   0.964   5.031   5.500  0.4219  0.7069 -0.2862
 6162SOL    HW119385   0.930   5.085   5.576 -1.5876 -0.0425 -0.5982
 6162SOL    HW219386   0.922   4.940   5.502  1.6891  0.0627 -1.2841
 6163SOL     OW19387   5.097   4.166   1.654  0.5348 -0.4808 -1.3140
 6163SOL    HW119388   5.010   4.211   1.634  0.8051  0.7376  0.1277
 6163SOL    HW219389   5.079   4.084   1.709  0.3919  1.9288  2.6701
 6164SOL     OW19390   2.788   2.275   1.749  0.3610  0.0143  0.3510
 6164SOL    HW119391   2.829   2.190   1.717  0.1426  0.2579 -0.6010
 6164SOL    HW219392   2.850   2.319   1.814  1.0231 -0.2685 -0.0757
 6165SOL     OW19393   3.826   6.658   1.110  0.0087 -0.1396  0.5289
 6165SOL    HW119394   3.861   6.744   1.147 -1.2808  1.0222 -0.7939
 6165SOL    HW219395   3.728   6.652   1.128 -0.0465 -0.9950 -0.0130
 6166SOL     OW19396   3.505   0.277   4.729 -0.2018 -0.0589 -0.5223
 6166SOL    HW119397   3.407   0.273   4.707  0.1104 -1.0921 -1.8644
 6166SOL    HW219398   3.558   0.259   4.646  1.1329  0.4348  0.2057
 6167SOL     OW19399   6.617   5.966   2.118  0.7267  0.1437  0.1666
 6167SOL    HW119400   6.638   6.017   2.202 -0.0559 -1.2321  1.2265
 6167SOL    HW219401   6.686   5.895   2.104  1.2114  0.7696 -0.7285
 6168SOL     OW19402   1.734   4.899   0.339 -0.2039 -0.6528  0.1387
 6168SOL    HW119403   1.779   4.810   0.335  1.2697 -0.0682  1.8934
 6168SOL    HW219404   1.798   4.970   0.309 -0.6223  0.0052  0.7450
 6169SOL     OW19405   1.487   2.801   0.901 -0.5074 -0.3059 -0.7971
 6169SOL    HW119406   1.394   2.828   0.927  0.8161  1.7295  2.3442
 6169SOL    HW219407   1.509   2.841   0.812 -1.5183  2.1622 -0.0252
 6170SOL     OW19408   0.870   4.505   3.272 -0.1389  0.1211 -0.1116
 6170SOL    HW119409   0.830   4.494   3.181 -0.6462 -1.2375  0.2579
 6170SOL    HW219410   0.952   4.562   3.266  1.3411 -2.0485 -1.8448
 6171SOL     OW19411   6.614   1.084   2.544 -0.5954 -0.3903  0.0375
 6171SOL    HW119412   6.605   1.115   2.639 -1.9532 -1.8015  0.4087
 6171SOL    HW219413   6.545   1.015   2.525 -0.3861 -0.0909 -2.0234
 6172SOL     OW19414   1.507   2.029   3.523  0.2616  0.1686 -0.3512
 6172SOL    HW119415   1.459   2.084   3.592 -0.7951 -2.4125  1.0953
 6172SOL    HW219416   1.462   2.040   3.435 -1.1734  0.1121  0.3397
 6173SOL     OW19417   6.732   6.513   2.172  0.2469  0.3848  0.1068
 6173SOL    HW119418   6.793   6.447   2.128  0.3181  1.3304 -1.2723
 6173SOL    HW219419   6.638   6.479   2.168  0.4670 -0.3671  0.8757
 6174SOL     OW19420   4.337   3.763   5.264  0.4060 -0.5285  0.2375
 6174SOL    HW119421   4.253   3.710   5.267  1.3412 -2.0847 -0.2219
 6174SOL    HW219422   4.413   3.704   5.238  1.6617  0.8287  0.6992
 6175SOL     OW19423   1.997   6.207   5.182  0.3122  0.2989 -0.3228
 6175SOL    HW119424   1.928   6.138   5.162 -0.8476  1.4511 -0.4410
 6175SOL    HW219425   1.989   6.283   5.118  2.0219  0.2654 -0.6416
 6176SOL     OW19426   5.331   2.749   6.510 -0.2017  0.2657 -0.4549
 6176SOL    HW119427   5.317   2.705   6.421  0.2565 -2.1027  0.5483
 6176SOL    HW219428   5.390   2.829   6.500 -0.6379  0.3951 -2.3366
 6177SOL     OW19429   1.089   2.966   0.638  0.1182  0.0130 -0.3197
 6177SOL    HW119430   1.023   2.966   0.563  1.1675  0.1324 -1.2712
 6177SOL    HW219431   1.040   2.956   0.725 -1.0348 -1.3829 -1.0772
 6178SOL     OW19432   5.681   4.743   3.298  0.0698 -0.3980  0.1019
 6178SOL    HW119433   5.698   4.720   3.202  0.0612  0.3824 -0.0910
 6178SOL    HW219434   5.718   4.671   3.356 -1.7482 -1.9509 -0.5436
 6179SOL     OW19435   0.113   0.145   2.917 -0.2398  0.5991 -0.7092
 6179SOL    HW119436   0.079   0.149   3.010 -2.3612  2.5489 -1.4966
 6179SOL    HW219437   0.120   0.049   2.888  0.7591 -0.0552  1.4719
 6180SOL     OW19438   5.300   6.478   0.781 -0.4609 -0.5125  0.1779
 6180SOL    HW119439   5.213   6.431   0.764  1.0405 -3.6432  0.3348
 6180SOL    HW219440   5.295   6.527   0.868 -1.3750 -2.6462  1.4049
 6181SOL     OW19441   5.248   4.537   5.689  0.3202 -0.7661  0.0747
 6181SOL    HW119442   5.162   4.584   5.670  0.9559  1.0848  1.5585
 6181SOL    HW219443   5.304   4.535   5.605  0.7060  2.1396  0.1696
 6182SOL     OW19444   2.515   2.783   6.375 -0.3431 -0.1402 -0.1990
 6182SOL    HW119445   2.495   2.771   6.472  0.3813 -1.3323 -0.1781
 6182SOL    HW219446   2.435   2.819   6.328 -1.4905 -1.7785  0.4231
 6183SOL     OW19447   6.913   1.967   1.913  0.0516 -0.1055  0.2456
 6183SOL    HW119448   6.899   1.977   2.011 -0.9514 -0.6513  0.1676
 6183SOL    HW219449   6.990   1.905   1.897 -0.2398 -0.5862  0.6895
 6184SOL     OW19450   5.635   0.110   6.003  0.5291 -0.0633 -0.1774
 6184SOL    HW119451   5.568   0.100   6.077  0.5136 -0.5844 -0.2560
 6184SOL    HW219452   5.588   0.123   5.916  0.5374 -0.1031 -0.1878
 6185SOL     OW19453   3.177   3.229   5.883  0.5780  0.5923 -0.1195
 6185SOL    HW119454   3.192   3.142   5.932 -1.0121  0.6848  0.5834
 6185SOL    HW219455   3.142   3.297   5.947 -3.2241  0.2512 -1.6031
 6186SOL     OW19456   6.727   2.511   6.529 -0.0756  0.3708  0.3457
 6186SOL    HW119457   6.683   2.504   6.619  0.3300  0.5105  0.5579
 6186SOL    HW219458   6.785   2.431   6.515  0.4656  0.7292  0.5374
 6187SOL     OW19459   4.037   1.874   5.868 -0.1991  0.2978 -0.8571
 6187SOL    HW119460   3.970   1.941   5.901  0.0528 -0.2960  0.9812
 6187SOL    HW219461   4.033   1.792   5.925 -0.0065 -1.0081 -2.6298
 6188SOL     OW19462   2.579   1.644   6.351  0.1703  0.4448 -0.6699
 6188SOL    HW119463   2.509   1.597   6.297  0.8824 -0.4994 -0.7846
 6188SOL    HW219464   2.646   1.578   6.384 -0.6408  0.8483  2.0158
 6189SOL     OW19465   5.656   5.122   2.996 -0.8065 -0.5690 -0.1360
 6189SOL    HW119466   5.639   5.098   3.092 -0.9250  0.0005 -0.0139
 6189SOL    HW219467   5.633   5.044   2.938 -0.9756 -0.8290  0.2755
 6190SOL     OW19468   5.612   2.589   6.157  0.0559  0.3179 -0.2523
 6190SOL    HW119469   5.566   2.654   6.097 -1.6931  0.9976  1.6982
 6190SOL    HW219470   5.658   2.519   6.102  0.6585  2.2681 -2.3774
 6191SOL     OW19471   3.020   3.605   0.070  0.4817 -0.1984  0.0875
 6191SOL    HW119472   3.041   3.697   0.038  0.7798 -0.2391  0.1693
 6191SOL    HW219473   2.945   3.567   0.015  0.1884  0.1855  0.2114
 6192SOL     OW19474   6.588   3.033   6.176 -0.5328 -0.1731  0.6607
 6192SOL    HW119475   6.578   3.083   6.091 -1.2847 -0.7965  0.3734
 6192SOL    HW219476   6.557   2.938   6.163  0.1403 -0.5085  1.3921
 6193SOL     OW19477   5.170   4.197   0.814  0.1874 -0.1732  0.1621
 6193SOL    HW119478   5.128   4.195   0.723 -0.2423 -0.3200  0.3619
 6193SOL    HW219479   5.099   4.205   0.883  0.0676 -4.2156  0.7469
 6194SOL     OW19480   6.223   0.866   5.410  0.3055  0.1320  0.0045
 6194SOL    HW119481   6.240   0.769   5.389 -1.3505 -0.5020  1.3766
 6194SOL    HW219482   6.310   0.910   5.432  1.0636 -1.0934 -0.3776
 6195SOL     OW19483   5.262   1.552   5.327 -0.2976  0.3048 -0.1526
 6195SOL    HW119484   5.325   1.598   5.391  0.1146 -2.9759  2.0764
 6195SOL    HW219485   5.315   1.505   5.257 -0.5215  0.7725 -0.6361
 6196SOL     OW19486   5.690   2.744   2.230  0.6084 -0.0738 -0.1017
 6196SOL    HW119487   5.750   2.810   2.277  0.0670  0.6400 -0.3947
 6196SOL    HW219488   5.731   2.653   2.234  0.8837  0.0812  1.2054
 6197SOL     OW19489   2.191   3.980   2.712  0.4284  0.1582 -0.5294
 6197SOL    HW119490   2.249   4.023   2.781 -1.2429 -0.7132  1.5234
 6197SOL    HW219491   2.212   3.882   2.707  0.4602  0.1954 -1.2069
 6198SOL     OW19492   4.622   5.145   4.793  0.2064  0.5085  0.3732
 6198SOL    HW119493   4.549   5.098   4.843  0.5238  1.0260  1.3351
 6198SOL    HW219494   4.583   5.189   4.712  0.0884 -2.4493 -1.3367
 6199SOL     OW19495   1.884   6.896   0.060 -0.0199 -0.3160  0.0536
 6199SOL    HW119496   1.889   6.981   0.112  0.5434  0.3057 -0.9908
 6199SOL    HW219497   1.793   6.855   0.071  0.2075 -0.4292  1.8480
 6200SOL     OW19498   0.686   1.688   1.015 -0.3691  0.4956 -0.0492
 6200SOL    HW119499   0.744   1.740   1.078 -0.4005  0.4930 -0.0181
 6200SOL    HW219500   0.741   1.654   0.939 -0.2138 -0.0320  0.2978
 6201SOL     OW19501   5.767   3.047   4.008 -0.7534  0.7742  0.0031
 6201SOL    HW119502   5.747   3.004   3.920  0.5684  0.0183  0.0416
 6201SOL    HW219503   5.709   3.008   4.079  2.0839 -3.0557  0.5601
 6202SOL     OW19504   0.977   1.356   3.870 -0.5337  0.0917 -0.4749
 6202SOL    HW119505   1.067   1.394   3.889 -0.7988  0.5987 -0.2016
 6202SOL    HW219506   0.958   1.362   3.772  0.1304 -0.9287 -0.6775
 6203SOL     OW19507   6.789   5.752   2.958  0.3925  0.2947 -0.3870
 6203SOL    HW119508   6.845   5.707   3.028 -1.9991 -0.7906  0.9508
 6203SOL    HW219509   6.798   5.703   2.871 -0.3073 -1.3803  0.4372
 6204SOL     OW19510   2.711   6.250   5.055  0.6755  0.1140  0.0720
 6204SOL    HW119511   2.791   6.190   5.059  0.6171  0.1082  1.5640
 6204SOL    HW219512   2.740   6.345   5.062  0.5978  0.1500 -0.0833
 6205SOL     OW19513   4.905   4.154   1.400  0.2330 -0.1632  0.0313
 6205SOL    HW119514   4.844   4.169   1.323  2.5638  0.4764 -1.8284
 6205SOL    HW219515   4.908   4.057   1.423 -1.1482 -0.2436 -0.0768
 6206SOL     OW19516   6.508   3.153   2.085  0.1190 -0.3494  0.8855
 6206SOL    HW119517   6.524   3.068   2.136  0.7020 -0.9581 -0.2541
 6206SOL    HW219518   6.410   3.170   2.078  0.0089 -0.7461  1.4158
 6207SOL     OW19519   0.201   5.095   4.026 -0.2343  0.1938 -0.0185
 6207SOL    HW119520   0.240   5.131   3.941 -1.2353  2.6400  0.4785
 6207SOL    HW219521   0.124   5.035   4.005  0.6705 -0.7045 -0.8599
 6208SOL     OW19522   4.151   3.332   5.172 -0.6452 -0.1319  0.2450
 6208SOL    HW119523   4.158   3.359   5.076  0.8794  2.9820  1.1101
 6208SOL    HW219524   4.064   3.285   5.187 -1.7862  0.9924 -2.2894
 6209SOL     OW19525   2.497   4.808   0.822  0.1117  0.4330  0.3544
 6209SOL    HW119526   2.411   4.791   0.775 -0.2795  0.7392  0.9456
 6209SOL    HW219527   2.574   4.795   0.759 -0.3620  0.0773 -0.1501
 6210SOL     OW19528   5.293   3.155   3.090  0.1431  0.2953 -0.2277
 6210SOL    HW119529   5.276   3.057   3.081 -0.5186  0.4246 -0.4847
 6210SOL    HW219530   5.357   3.184   3.018  2.2679 -0.3629  1.2942
 6211SOL     OW19531   5.874   6.821   4.801  0.0896 -0.3279 -1.0843
 6211SOL    HW119532   5.850   6.897   4.742  0.0305 -0.4548 -1.2258
 6211SOL    HW219533   5.796   6.758   4.808 -0.1121  0.0008 -0.3783
 6212SOL     OW19534   2.780   5.907   5.319  0.1544 -0.3284 -0.3451
 6212SOL    HW119535   2.691   5.949   5.300 -0.5126 -0.9670  1.2254
 6212SOL    HW219536   2.803   5.844   5.245 -0.5236  0.1026 -0.9363
 6213SOL     OW19537   4.047   6.499   1.028  0.4800  0.3912  0.5179
 6213SOL    HW119538   3.977   6.563   1.057 -0.0235 -0.4016  1.0963
 6213SOL    HW219539   4.102   6.471   1.107  0.2697 -0.3890  0.3995
 6214SOL     OW19540   6.813   6.654   4.626 -0.7069  0.9008  0.2309
 6214SOL    HW119541   6.748   6.730   4.637 -2.5985 -0.6435  0.2984
 6214SOL    HW219542   6.821   6.632   4.529 -1.4611  0.1352  0.3354
 6215SOL     OW19543   4.950   3.863   6.117 -0.4277  0.8476  0.5296
 6215SOL    HW119544   4.871   3.816   6.156 -0.6084 -0.0093 -0.8022
 6215SOL    HW219545   4.921   3.950   6.077 -0.5142  1.0136  0.9557
 6216SOL     OW19546   4.829   1.066   4.462  0.0500 -0.3555 -0.4946
 6216SOL    HW119547   4.756   1.037   4.400 -0.2282 -0.9013  0.0754
 6216SOL    HW219548   4.872   1.149   4.427 -1.1991  0.2873 -0.5741
 6217SOL     OW19549   0.186   6.033   2.582 -0.1168  0.7701  0.5610
 6217SOL    HW119550   0.149   6.029   2.489  1.2846  0.5180 -0.0073
 6217SOL    HW219551   0.168   6.124   2.621  1.7349  1.9093 -1.0478
 6218SOL     OW19552   6.478   5.844   5.951  0.3190 -0.2685 -0.0121
 6218SOL    HW119553   6.508   5.764   6.003  1.1127  0.7977  1.2372
 6218SOL    HW219554   6.555   5.905   5.935  0.1090 -0.5653 -2.5451
 6219SOL     OW19555   0.340   2.283   5.608 -0.2763 -0.2297  0.3574
 6219SOL    HW119556   0.256   2.331   5.583  0.2969  1.1832  1.0750
 6219SOL    HW219557   0.321   2.185   5.615 -1.1323 -0.3898 -2.6509
 6220SOL     OW19558   2.306   6.832   0.415  0.0393 -0.2271  0.0506
 6220SOL    HW119559   2.315   6.931   0.413  0.4854 -0.2687 -0.1156
 6220SOL    HW219560   2.312   6.796   0.322 -1.8069 -0.2746 -0.0932
 6221SOL     OW19561   3.002   6.537   6.452  0.4003 -0.2445  0.1616
 6221SOL    HW119562   2.982   6.634   6.438  1.9320  0.1144  0.3475
 6221SOL    HW219563   2.940   6.482   6.397 -1.0826  0.7981  0.7227
 6222SOL     OW19564   0.675   1.034   0.992  0.3953 -0.7555 -0.1187
 6222SOL    HW119565   0.584   1.011   0.956 -0.4956  0.2781  1.3754
 6222SOL    HW219566   0.723   1.091   0.926 -0.3041 -0.7458 -0.6376
 6223SOL     OW19567   1.768   4.815   2.156  1.2012 -0.0388 -0.3085
 6223SOL    HW119568   1.831   4.844   2.229  1.8018 -0.0557 -0.8094
 6223SOL    HW219569   1.820   4.801   2.072  0.5907 -0.5323 -0.6047
 6224SOL     OW19570   5.502   0.491   5.031  0.2577 -0.7458  0.0460
 6224SOL    HW119571   5.590   0.469   5.071  0.0417  0.2530  1.1429
 6224SOL    HW219572   5.428   0.456   5.089 -0.1078 -2.3142 -1.2877
 6225SOL     OW19573   3.132   1.389   5.280 -0.1929  0.2748 -0.1024
 6225SOL    HW119574   3.062   1.359   5.346 -0.3528  0.9535  0.0440
 6225SOL    HW219575   3.208   1.430   5.330  0.0903 -0.0097 -0.2952
 6226SOL     OW19576   1.561   6.723   3.054  0.4005  0.0314  0.3676
 6226SOL    HW119577   1.659   6.733   3.040  0.9755 -2.2295  2.1777
 6226SOL    HW219578   1.539   6.626   3.068 -2.1729  0.4205 -0.3690
 6227SOL     OW19579   1.037   2.641   5.852  0.8827 -0.2015  0.1104
 6227SOL    HW119580   1.076   2.561   5.897  0.1228 -0.2023  0.8017
 6227SOL    HW219581   0.950   2.617   5.809  1.8084 -0.3084 -1.8079
 6228SOL     OW19582   3.262   2.134   3.163  0.1667  0.6694 -0.0681
 6228SOL    HW119583   3.344   2.160   3.113  0.3453  2.6097  1.1491
 6228SOL    HW219584   3.186   2.121   3.099  0.4588  2.7590 -0.8890
 6229SOL     OW19585   0.233   5.027   3.690 -0.2553  1.0030  0.1045
 6229SOL    HW119586   0.293   5.103   3.716 -0.4103  1.4684 -0.8425
 6229SOL    HW219587   0.248   5.004   3.594  2.0800 -2.2789  1.0538
 6230SOL     OW19588   6.928   4.811   2.943  0.0852 -0.5626 -0.3283
 6230SOL    HW119589   6.868   4.768   3.009 -1.1629  0.2440 -0.8990
 6230SOL    HW219590   7.020   4.820   2.982 -0.1962 -1.6427  0.6267
 6231SOL     OW19591   0.469   4.238   1.919 -0.3043  0.2350 -0.2725
 6231SOL    HW119592   0.540   4.257   1.851  1.2580  1.2742  1.5399
 6231SOL    HW219593   0.390   4.297   1.901  1.4420  3.0851  0.7173
 6232SOL     OW19594   5.406   6.227   6.256 -0.2456  0.1248  0.4637
 6232SOL    HW119595   5.340   6.257   6.187  1.4346  1.4110 -0.6644
 6232SOL    HW219596   5.481   6.293   6.261  2.0524 -2.3127  0.1660
 6233SOL     OW19597   6.981   5.094   3.691  0.1349  0.5820 -0.0125
 6233SOL    HW119598   6.925   5.123   3.769 -0.4603  0.0900 -0.2477
 6233SOL    HW219599   7.072   5.068   3.723 -0.6146 -1.2797  0.8085
 6234SOL     OW19600   2.269   5.809   4.726 -0.5358 -0.5692  0.0634
 6234SOL    HW119601   2.233   5.876   4.791  0.4591 -0.4265  0.4776
 6234SOL    HW219602   2.356   5.841   4.690 -0.2883 -1.4138 -0.1050
 6235SOL     OW19603   6.708   6.184   1.398 -0.2206 -0.5771 -0.5311
 6235SOL    HW119604   6.715   6.214   1.303 -0.7432 -0.5086 -0.5470
 6235SOL    HW219605   6.746   6.255   1.458 -1.0960 -0.0411 -0.5971
 6236SOL     OW19606   1.542   6.064   0.253  0.0794 -0.0717 -0.0262
 6236SOL    HW119607   1.458   6.011   0.264 -0.6218  1.0664  0.1933
 6236SOL    HW219608   1.591   6.032   0.172 -0.9014 -0.2897 -0.5432
 6237SOL     OW19609   2.948   0.376   0.618  0.2184  0.2800 -0.1388
 6237SOL    HW119610   2.920   0.340   0.707  0.4741  0.2751 -0.0585
 6237SOL    HW219611   3.045   0.399   0.621  0.8394 -1.9675 -1.1397
 6238SOL     OW19612   1.798   4.931   4.159  0.7906  0.1658 -0.3596
 6238SOL    HW119613   1.722   4.984   4.196 -0.4536 -1.9951  0.4232
 6238SOL    HW219614   1.877   4.938   4.220 -0.0292 -0.4536  0.8060
 6239SOL     OW19615   5.421   1.797   1.750  0.5624 -0.0589  0.3401
 6239SOL    HW119616   5.354   1.851   1.698  0.8836 -0.7307 -0.8020
 6239SOL    HW219617   5.409   1.814   1.847 -2.7667 -1.8364  0.3763
 6240SOL     OW19618   2.914   3.077   5.532  0.6148  0.4659  0.1263
 6240SOL    HW119619   2.925   2.990   5.580  0.0387  0.2977 -0.0430
 6240SOL    HW219620   2.859   3.139   5.588  1.4488  0.9138  0.4774
 6241SOL     OW19621   2.613   0.671   3.839 -0.2404  0.0352  0.7691
 6241SOL    HW119622   2.642   0.758   3.798 -2.3049  0.4822  0.1377
 6241SOL    HW219623   2.681   0.601   3.818  1.0387  1.2920  0.5416
 6242SOL     OW19624   2.088   3.353   2.411  0.4127  0.0207 -0.4072
 6242SOL    HW119625   2.094   3.308   2.322 -0.8591  0.3427 -0.6773
 6242SOL    HW219626   2.097   3.451   2.400 -0.0116  0.0851 -0.2270
 6243SOL     OW19627   6.631   6.582   6.631 -0.3540 -0.6958 -0.1438
 6243SOL    HW119628   6.560   6.524   6.670 -0.4209 -0.2012  0.4804
 6243SOL    HW219629   6.667   6.539   6.548  0.3237 -2.1458  0.8627
 6244SOL     OW19630   3.798   4.753   1.146  0.4521  0.4295 -0.1337
 6244SOL    HW119631   3.702   4.731   1.165  0.1015  3.3782  2.4179
 6244SOL    HW219632   3.810   4.765   1.048 -2.4636  2.2497 -0.4189
 6245SOL     OW19633   2.634   5.450   2.334  0.5524  0.7849  0.2696
 6245SOL    HW119634   2.718   5.503   2.323  0.5077  0.5478 -1.5352
 6245SOL    HW219635   2.657   5.358   2.368  0.8895  1.0790  0.8565
 6246SOL     OW19636   0.908   5.733   4.220  0.2571  0.1147  0.2031
 6246SOL    HW119637   0.865   5.823   4.228 -0.0009  0.1317 -1.0835
 6246SOL    HW219638   0.860   5.680   4.150 -0.3223 -1.4752  1.7103
 6247SOL     OW19639   5.975   0.171   3.391  0.2846  0.1913 -0.4071
 6247SOL    HW119640   5.912   0.112   3.442  0.5917 -0.1962 -0.4672
 6247SOL    HW219641   5.941   0.265   3.392 -0.1830  0.0256 -0.2598
 6248SOL     OW19642   3.617   3.121   6.818 -0.5550 -0.1360 -0.0170
 6248SOL    HW119643   3.592   3.217   6.826  0.8091  0.1961  0.6560
 6248SOL    HW219644   3.657   3.104   6.728 -0.1226  0.1120  0.1235
 6249SOL     OW19645   0.507   3.321   1.989  0.1264  0.1281 -0.2435
 6249SOL    HW119646   0.555   3.398   1.947  0.7040 -0.5699 -0.8820
 6249SOL    HW219647   0.469   3.262   1.917 -0.5361 -0.0505  0.2405
 6250SOL     OW19648   0.009   6.376   6.672  0.1515  0.5818  1.1839
 6250SOL    HW119649   0.070   6.396   6.749 -0.6591 -0.2900  2.0659
 6250SOL    HW219650  -0.026   6.462   6.635 -0.5051  0.9739  2.6468
 6251SOL     OW19651   3.253   0.312   4.475 -0.2763 -0.3229  0.1623
 6251SOL    HW119652   3.328   0.286   4.414  0.2359 -1.2435  1.1359
 6251SOL    HW219653   3.281   0.392   4.529 -0.2362 -0.2830  0.0835
 6252SOL     OW19654   4.414   6.385   6.404 -0.4056  0.0324  0.6518
 6252SOL    HW119655   4.384   6.376   6.499  0.5524 -0.6656  0.9059
 6252SOL    HW219656   4.367   6.462   6.361 -3.5566 -1.7586  0.6159
 6253SOL     OW19657   3.041   6.584   3.620  0.1266  0.0134  0.3755
 6253SOL    HW119658   2.977   6.628   3.557  1.5901  1.7186 -0.0077
 6253SOL    HW219659   3.037   6.485   3.608 -0.9247  0.2091 -1.1137
 6254SOL     OW19660   0.084   6.485   1.453 -0.1495 -0.0646 -0.3500
 6254SOL    HW119661   0.155   6.508   1.387  0.2687  0.3341  0.2340
 6254SOL    HW219662   0.061   6.565   1.508  0.7032 -0.7768  1.1228
 6255SOL     OW19663   0.905   1.060   1.578  0.3500  0.5788 -0.4906
 6255SOL    HW119664   0.969   1.119   1.628 -0.4526  0.6067  0.5260
 6255SOL    HW219665   0.952   0.975   1.553  1.1585  1.1319 -0.9037
 6256SOL     OW19666   5.112   6.510   2.012  0.0122  0.2330  0.1142
 6256SOL    HW119667   5.052   6.565   2.070 -1.7747 -1.2242 -0.2599
 6256SOL    HW219668   5.109   6.544   1.918  1.2182  1.2643  0.4286
 6257SOL     OW19669   4.971   3.407   1.624 -0.2697  0.3417  0.4540
 6257SOL    HW119670   4.911   3.396   1.703  0.5961 -1.7119  0.8925
 6257SOL    HW219671   5.064   3.425   1.656  0.3012 -1.5842 -0.0176
 6258SOL     OW19672   4.693   5.419   4.061 -0.7009 -0.1751  0.9372
 6258SOL    HW119673   4.597   5.395   4.046 -0.9644  0.9080  0.7701
 6258SOL    HW219674   4.698   5.497   4.123  0.0283  0.2355  0.3737
 6259SOL     OW19675   3.425   6.682   6.107 -0.1925 -0.0502 -0.1619
 6259SOL    HW119676   3.331   6.693   6.137 -0.6043 -2.0895 -0.5685
 6259SOL    HW219677   3.427   6.626   6.024  1.4044 -0.4846  0.1369
 6260SOL     OW19678   1.768   0.158   0.510  0.1395  0.1438  0.5357
 6260SOL    HW119679   1.689   0.098   0.502 -0.6618  0.9491  1.9625
 6260SOL    HW219680   1.780   0.210   0.426  0.0151 -1.0009 -0.1986
 6261SOL     OW19681   4.475   5.741   2.670 -0.3333 -0.4253  0.1998
 6261SOL    HW119682   4.566   5.704   2.651 -0.2375  0.3354 -0.8759
 6261SOL    HW219683   4.483   5.836   2.700 -0.7997 -0.1854 -0.4116
 6262SOL     OW19684   1.377   6.309   3.459  0.4086 -0.2291 -0.3468
 6262SOL    HW119685   1.413   6.240   3.523 -0.2179  0.7318  1.0909
 6262SOL    HW219686   1.422   6.397   3.477 -0.1783  0.1789 -0.8630
 6263SOL     OW19687   0.739   5.655   4.791  0.3100 -0.0727  0.7471
 6263SOL    HW119688   0.734   5.575   4.851  0.6459 -0.7496 -0.1002
 6263SOL    HW219689   0.649   5.671   4.751  0.0439  0.4834  1.5437
 6264SOL     OW19690   5.449   1.047   1.151  0.1155  1.0653 -0.4380
 6264SOL    HW119691   5.395   1.020   1.071 -0.5141 -0.0732  0.3370
 6264SOL    HW219692   5.412   1.002   1.233  1.2901  1.4997  0.3612
 6265SOL     OW19693   3.274   1.327   0.941 -0.1467 -0.4493 -0.4011
 6265SOL    HW119694   3.233   1.330   0.849  1.1356 -0.7428 -1.0071
 6265SOL    HW219695   3.206   1.356   1.008 -0.6825  1.2293 -1.5843
 6266SOL     OW19696   3.790   6.953   2.087  0.1171 -0.6207 -0.5985
 6266SOL    HW119697   3.838   6.922   2.005  2.1286 -0.8704  0.6014
 6266SOL    HW219698   3.847   7.019   2.137 -1.2463 -0.1210  0.3776
 6267SOL     OW19699   1.789   0.998   6.044  0.5340 -0.1633 -0.0094
 6267SOL    HW119700   1.804   1.006   6.142  0.1668 -3.1375  0.3816
 6267SOL    HW219701   1.692   1.008   6.023  0.8223  2.6891 -0.4560
 6268SOL     OW19702   3.212   0.994   2.226  0.1704  0.8965  0.1920
 6268SOL    HW119703   3.281   0.922   2.234 -0.3853  0.3576  0.1637
 6268SOL    HW219704   3.258   1.083   2.219  0.8999  0.4545 -0.9526
 6269SOL     OW19705   6.845   5.730   6.958  0.0512  0.2463  0.8154
 6269SOL    HW119706   6.843   5.829   6.965  1.9569  0.5420 -1.5990
 6269SOL    HW219707   6.927   5.701   6.907 -1.1901 -2.4697  0.1622
 6270SOL     OW19708   3.224   6.956   0.736  0.2453 -0.1464  0.7479
 6270SOL    HW119709   3.294   6.902   0.782  0.5356 -0.0505  0.4213
 6270SOL    HW219710   3.159   6.896   0.690  1.8707 -0.2214 -1.5792
 6271SOL     OW19711   5.098   0.387   5.698 -0.1885 -0.4338  0.0543
 6271SOL    HW119712   5.162   0.386   5.775  0.0638 -1.8546 -0.1322
 6271SOL    HW219713   5.026   0.320   5.714 -1.1784  0.5648 -0.1219
 6272SOL     OW19714   6.871   0.338   5.870  0.3572 -0.3635 -0.3783
 6272SOL    HW119715   6.936   0.405   5.906  0.7977  0.5282 -2.6793
 6272SOL    HW219716   6.824   0.376   5.791 -2.3423 -1.3395  0.6250
 6273SOL     OW19717   0.432   1.212   1.239  0.6269 -0.3570  0.0706
 6273SOL    HW119718   0.447   1.295   1.185  1.2751 -0.0804  0.6611
 6273SOL    HW219719   0.469   1.225   1.331  1.8002 -1.7131 -0.1691
 6274SOL     OW19720   1.558   5.455   4.962 -0.0154 -0.0966 -0.4501
 6274SOL    HW119721   1.619   5.445   4.883  0.7885 -3.3942  0.4146
 6274SOL    HW219722   1.463   5.443   4.933 -0.0637  1.9243 -1.3169
 6275SOL     OW19723   3.172   0.742   1.123  0.0765  0.1242  0.0998
 6275SOL    HW119724   3.239   0.755   1.196  0.6755  0.4143 -0.4917
 6275SOL    HW219725   3.191   0.806   1.048 -0.2113 -0.5179 -0.5375
 6276SOL     OW19726   2.162   3.202   3.080  0.7853  0.0029  0.1525
 6276SOL    HW119727   2.173   3.230   3.176  0.6766  0.0854  0.1406
 6276SOL    HW219728   2.105   3.269   3.032 -0.3221 -0.7640  0.3692
 6277SOL     OW19729   4.124   2.330   1.799  0.1256  0.0998  0.0486
 6277SOL    HW119730   4.028   2.347   1.776  0.1387 -0.4111 -0.3933
 6277SOL    HW219731   4.181   2.353   1.721  0.3734  0.4837  0.3407
 6278SOL     OW19732   2.248   1.539   5.068  0.2061 -0.1251 -0.1371
 6278SOL    HW119733   2.165   1.584   5.036 -1.0067 -1.6664  0.7205
 6278SOL    HW219734   2.259   1.556   5.166  0.3745 -0.7513 -0.0471
 6279SOL     OW19735   5.026   0.106   0.385 -0.3431  0.0661  0.2963
 6279SOL    HW119736   4.991   0.020   0.423  0.2854 -0.7740 -0.9634
 6279SOL    HW219737   5.015   0.106   0.286 -0.7004  1.6305  0.3164
 6280SOL     OW19738   5.834   0.746   5.752 -0.2769  0.0075  0.2167
 6280SOL    HW119739   5.883   0.833   5.746 -0.3571  0.0168 -0.3200
 6280SOL    HW219740   5.749   0.752   5.700 -0.5109 -0.2400  0.5680
 6281SOL     OW19741   5.391   3.832   5.496 -0.3986  0.1677 -0.0935
 6281SOL    HW119742   5.474   3.782   5.520  1.3185  2.4450 -0.9163
 6281SOL    HW219743   5.327   3.831   5.573  0.7398 -0.9156  0.8707
 6282SOL     OW19744   6.689   3.695   2.812  0.5107 -0.1413  0.3696
 6282SOL    HW119745   6.711   3.734   2.901  1.0774  1.4273 -0.4191
 6282SOL    HW219746   6.603   3.644   2.818  0.3493  0.2485  1.7222
 6283SOL     OW19747   0.915   6.270   4.546 -0.6322 -0.2540  0.2561
 6283SOL    HW119748   0.883   6.248   4.454  0.1443 -1.2677  0.2110
 6283SOL    HW219749   1.007   6.308   4.541 -0.8562  0.3348  0.5631
 6284SOL     OW19750   3.046   4.087   0.347  0.7684 -0.1945 -0.0422
 6284SOL    HW119751   3.008   3.996   0.363 -3.1512  1.2249 -0.1474
 6284SOL    HW219752   3.028   4.113   0.252  2.3275  0.5459 -0.1596
 6285SOL     OW19753   1.299   2.966   3.887 -1.0318  0.4200  0.0874
 6285SOL    HW119754   1.254   2.907   3.954  0.4943  0.2562  1.0244
 6285SOL    HW219755   1.398   2.954   3.893 -0.6274  3.2813  0.4938
 6286SOL     OW19756   0.902   3.785   5.540 -0.8666  0.0181  0.7570
 6286SOL    HW119757   0.923   3.882   5.531  1.2969 -0.5069 -0.5795
 6286SOL    HW219758   0.954   3.747   5.617 -0.1512 -0.4580  0.0491
 6287SOL     OW19759   4.401   5.057   4.935  0.0379  0.1841  0.1805
 6287SOL    HW119760   4.332   5.118   4.896  0.1917  0.3568  0.1784
 6287SOL    HW219761   4.362   4.965   4.946 -0.1696  0.2637  0.1135
 6288SOL     OW19762   1.393   2.373   5.481  0.2599  0.4116  0.2936
 6288SOL    HW119763   1.492   2.380   5.496  0.2619 -0.6115  0.8601
 6288SOL    HW219764   1.373   2.388   5.384  1.0157  0.1619  0.0889
 6289SOL     OW19765   2.936   3.725   6.759  0.0942 -0.1139  0.2788
 6289SOL    HW119766   2.982   3.641   6.732 -0.5211 -0.5829  0.6762
 6289SOL    HW219767   2.876   3.756   6.686 -0.2954 -0.4681  0.4439
 6290SOL     OW19768   0.857   5.258   5.625  0.2191  0.0034 -0.5955
 6290SOL    HW119769   0.792   5.232   5.696 -0.2433  1.0468 -0.6153
 6290SOL    HW219770   0.909   5.338   5.656  1.3183 -0.6626 -0.6856
 6291SOL     OW19771   3.270   2.928   3.415 -0.7799  0.2907  0.5201
 6291SOL    HW119772   3.203   2.989   3.457 -0.3814 -1.1275  3.3912
 6291SOL    HW219773   3.316   2.874   3.485 -0.3853 -2.6272 -1.7746
 6292SOL     OW19774   1.906   3.773   6.061  0.2581  0.3355  0.4123
 6292SOL    HW119775   1.909   3.866   6.095  2.4075  0.6582 -0.5397
 6292SOL    HW219776   1.824   3.761   6.004  0.3659  1.8672 -0.0949
 6293SOL     OW19777   5.197   1.212   0.055 -0.3885 -0.0867 -0.5222
 6293SOL    HW119778   5.168   1.147  -0.016 -1.2997 -0.5825  0.2844
 6293SOL    HW219779   5.213   1.163   0.140  0.9643  0.4732 -0.4392
 6294SOL     OW19780   3.763   0.257   5.440 -0.1944  0.0126  1.0948
 6294SOL    HW119781   3.721   0.310   5.367  0.0130 -1.2758  0.0068
 6294SOL    HW219782   3.716   0.276   5.526 -0.5520  1.4241  0.6103
 6295SOL     OW19783   6.204   3.020   6.534 -0.0845 -0.2008 -0.0327
 6295SOL    HW119784   6.277   3.061   6.479 -2.4946  1.7892 -2.0473
 6295SOL    HW219785   6.167   2.941   6.487 -0.8564  0.3163 -0.3139
 6296SOL     OW19786   6.604   2.071   5.411  0.3959 -0.0508  0.3404
 6296SOL    HW119787   6.666   2.138   5.371 -0.5548  0.0870 -0.9594
 6296SOL    HW219788   6.563   2.109   5.494 -1.2159  1.6189 -1.1338
 6297SOL     OW19789   0.454   6.145   4.446 -0.2061 -0.4793 -0.2769
 6297SOL    HW119790   0.454   6.110   4.352  3.1079 -0.7528 -0.2947
 6297SOL    HW219791   0.432   6.071   4.509 -0.5499 -0.7687 -0.7286
 6298SOL     OW19792   5.681   3.806   0.437  0.2178  0.6833  0.3405
 6298SOL    HW119793   5.776   3.791   0.464  0.2499 -1.7995 -0.9356
 6298SOL    HW219794   5.651   3.732   0.378 -1.7109  2.7637 -1.4894
 6299SOL     OW19795   5.591   3.703   2.951 -0.4959 -0.2431  0.0959
 6299SOL    HW119796   5.607   3.637   2.877  0.0420  0.1485 -0.1360
 6299SOL    HW219797   5.674   3.756   2.968 -1.2004  1.0268 -0.3525
 6300SOL     OW19798   4.003   2.446   5.907  0.3573  0.0159  0.1701
 6300SOL    HW119799   4.075   2.377   5.910  0.6365  0.3230  1.6978
 6300SOL    HW219800   3.972   2.459   5.813  1.3181 -1.1244 -0.3240
 6301SOL     OW19801   3.422   0.755   6.831  0.2532 -0.6714  0.0733
 6301SOL    HW119802   3.382   0.709   6.909 -0.4657 -0.4870 -0.1767
 6301SOL    HW219803   3.368   0.836   6.808  1.3307  0.1477  0.3344
 6302SOL     OW19804   1.891   0.640   5.831  0.5522  0.0967  0.1955
 6302SOL    HW119805   1.856   0.638   5.925  0.9838  1.5480  0.4157
 6302SOL    HW219806   1.989   0.620   5.832  0.5364  0.0112  0.0406
 6303SOL     OW19807   0.211   6.305   6.298 -0.3057 -0.0710 -0.1678
 6303SOL    HW119808   0.152   6.385   6.286 -2.7804 -1.7434  0.1575
 6303SOL    HW219809   0.179   6.230   6.241  0.1537 -1.7437  1.6411
 6304SOL     OW19810   5.438   0.012   3.083  0.3875 -0.2711  0.3706
 6304SOL    HW119811   5.416   0.082   3.015  1.3829  0.7153  1.0457
 6304SOL    HW219812   5.487  -0.063   3.038 -1.0045 -0.7519 -0.4225
 6305SOL     OW19813   1.263   6.122   6.191 -0.1067 -0.2544  0.1026
 6305SOL    HW119814   1.254   6.030   6.151  0.6359  0.1228 -0.9818
 6305SOL    HW219815   1.340   6.123   6.255 -0.4379 -0.5210  0.5034
 6306SOL     OW19816   6.348   3.818   3.513 -0.6657 -0.5562 -0.3197
 6306SOL    HW119817   6.330   3.891   3.580 -0.2898 -0.0792 -0.7275
 6306SOL    HW219818   6.366   3.733   3.562 -2.4749 -0.7194  0.1362
 6307SOL     OW19819   3.855   3.981   3.652  0.4615 -0.2535  0.6599
 6307SOL    HW119820   3.828   4.034   3.732  1.4511 -1.6374  1.9812
 6307SOL    HW219821   3.913   3.904   3.681  3.9261  1.2048 -1.6909
 6308SOL     OW19822   0.376   3.627   5.685 -0.0759 -0.0412 -0.2988
 6308SOL    HW119823   0.289   3.635   5.637 -1.0378 -0.0207  1.3550
 6308SOL    HW219824   0.370   3.673   5.774  1.3549 -0.7411  0.2008
 6309SOL     OW19825   1.750   6.245   4.959  0.2350 -0.2958 -0.2971
 6309SOL    HW119826   1.672   6.262   4.898  1.3354 -0.1545 -1.7247
 6309SOL    HW219827   1.823   6.311   4.939  1.1530 -1.1187  0.2387
 6310SOL     OW19828   3.143   0.429   4.802 -0.0941  0.1631  0.0967
 6310SOL    HW119829   3.220   0.459   4.746 -0.9788 -0.2176 -1.3568
 6310SOL    HW219830   3.060   0.427   4.747 -0.7157 -1.6760  1.0020
 6311SOL     OW19831   5.401   1.450   0.192 -0.4320  0.3028  0.1893
 6311SOL    HW119832   5.450   1.382   0.137  1.8384  1.7728  0.2718
 6311SOL    HW219833   5.306   1.455   0.162 -0.2553 -1.7040 -0.9081
 6312SOL     OW19834   2.775   6.004   5.919 -0.5676 -0.1800  0.0341
 6312SOL    HW119835   2.749   5.909   5.936 -0.2283  0.0145  1.8254
 6312SOL    HW219836   2.842   6.007   5.844 -0.2844 -1.3866  0.2103
 6313SOL     OW19837   5.083   6.742   2.885  0.0248  0.2489  0.0985
 6313SOL    HW119838   5.131   6.734   2.798 -0.8934  0.5255 -0.4440
 6313SOL    HW219839   5.123   6.678   2.951  1.4030  0.7617 -0.1925
 6314SOL     OW19840   1.729   2.057   1.279  0.0842  0.1313 -0.3970
 6314SOL    HW119841   1.722   2.148   1.237 -3.3998  0.1068 -0.1531
 6314SOL    HW219842   1.800   2.059   1.350  1.5814  1.9963 -1.8401
 6315SOL     OW19843   2.714   3.243   5.667  0.3428 -0.0733  0.1422
 6315SOL    HW119844   2.686   3.323   5.720 -1.2068  0.9745 -2.1112
 6315SOL    HW219845   2.635   3.184   5.650  1.4807 -2.2427  1.8823
 6316SOL     OW19846   4.073   0.274   4.956  0.0962  0.0746 -0.0226
 6316SOL    HW119847   4.136   0.320   5.019  2.0785 -1.5116 -0.7255
 6316SOL    HW219848   4.087   0.175   4.962 -0.7027 -0.1886 -1.8839
 6317SOL     OW19849   4.675   4.348   3.602  0.0922 -0.1106 -0.1543
 6317SOL    HW119850   4.755   4.302   3.563  1.5790  1.9127  0.3161
 6317SOL    HW219851   4.619   4.386   3.528 -1.6097 -3.2011 -0.5955
 6318SOL     OW19852   5.377   0.408   5.265 -0.3486 -0.3070  0.0063
 6318SOL    HW119853   5.290   0.389   5.310 -1.7211  0.6869 -2.0499
 6318SOL    HW219854   5.423   0.322   5.242 -1.1221 -0.8578  0.4753
 6319SOL     OW19855   4.132   1.333   5.452 -0.5489  0.0160  0.8501
 6319SOL    HW119856   4.191   1.413   5.461  0.5501 -0.3547 -1.9837
 6319SOL    HW219857   4.050   1.358   5.400  0.2516 -0.8165 -0.9060
 6320SOL     OW19858   6.011   1.249   4.154 -0.1390  0.6854  0.2154
 6320SOL    HW119859   6.070   1.214   4.227 -0.0715  1.4044  0.5152
 6320SOL    HW219860   6.063   1.257   4.069 -0.3265 -0.5659 -0.0448
 6321SOL     OW19861   5.876   1.365   0.007 -0.3167 -0.0839 -0.4067
 6321SOL    HW119862   5.822   1.359  -0.077  0.4436 -0.8261 -0.8603
 6321SOL    HW219863   5.854   1.287   0.066 -0.2213 -0.0321 -0.3038
 6322SOL     OW19864   1.984   2.528   6.988 -0.3536  0.5305  0.3897
 6322SOL    HW119865   1.957   2.475   6.907 -0.6060  0.3808  0.5690
 6322SOL    HW219866   2.083   2.537   6.990 -0.1775 -1.1394  1.0851
 6323SOL     OW19867   4.000   3.319   0.107 -0.2451  1.0721  0.3745
 6323SOL    HW119868   3.974   3.225   0.084 -0.9565  1.5347 -0.7936
 6323SOL    HW219869   4.098   3.321   0.128  0.1426  0.2995 -1.1265
 6324SOL     OW19870   5.482   0.803   6.918  0.2772 -0.3863  0.7616
 6324SOL    HW119871   5.480   0.772   7.013 -1.2894  0.4161  1.0235
 6324SOL    HW219872   5.515   0.898   6.914 -1.0296  0.0841  0.6882
 6325SOL     OW19873   1.959   2.883   3.012 -0.6136  0.2716  0.6436
 6325SOL    HW119874   1.973   2.850   3.106 -0.0753  0.3079  0.5746
 6325SOL    HW219875   1.895   2.822   2.965  1.0527 -1.2342  0.2246
 6326SOL     OW19876   4.926   3.897   5.706 -0.2569  0.3550 -0.0978
 6326SOL    HW119877   4.897   3.874   5.613 -1.0946  3.0506 -0.5848
 6326SOL    HW219878   5.023   3.920   5.705  0.3539 -1.9304  0.2248
 6327SOL     OW19879   0.101   1.967   4.267  0.3308 -0.0865 -0.2698
 6327SOL    HW119880   0.137   1.992   4.177  0.5992 -0.8678 -0.3930
 6327SOL    HW219881   0.002   1.971   4.265  0.2998 -0.7891 -0.8318
 6328SOL     OW19882   3.722   3.305   0.035  0.3845 -0.2788 -0.2365
 6328SOL    HW119883   3.799   3.356   0.072  1.0446 -0.4240 -1.3394
 6328SOL    HW219884   3.741   3.207   0.039 -0.1704 -0.3678  0.3787
 6329SOL     OW19885   0.619   2.725   5.350  0.6135  0.0948  0.3065
 6329SOL    HW119886   0.619   2.770   5.261  1.1735 -0.4330  0.0323
 6329SOL    HW219887   0.596   2.791   5.422  1.6836  0.8673 -0.0501
 6330SOL     OW19888   0.378   1.240   3.711  0.5904 -0.1683  0.2098
 6330SOL    HW119889   0.462   1.228   3.763  1.8076 -0.2202 -1.6637
 6330SOL    HW219890   0.386   1.320   3.652 -0.7010 -0.1324  0.0605
 6331SOL     OW19891   5.550   2.461   5.272  0.0111  0.0515 -0.2108
 6331SOL    HW119892   5.624   2.404   5.307 -1.0411 -2.1227 -1.2962
 6331SOL    HW219893   5.579   2.506   5.187  0.1059 -0.8626 -0.6794
 6332SOL     OW19894   2.606   3.195   0.954 -0.3992  0.3627 -0.6321
 6332SOL    HW119895   2.575   3.100   0.949 -0.7456  0.3591  0.9490
 6332SOL    HW219896   2.706   3.198   0.959 -0.3535  0.1336 -1.2562
 6333SOL     OW19897   6.177   5.637   1.462 -0.0030  0.2301  0.7510
 6333SOL    HW119898   6.082   5.608   1.451 -0.1848  0.9514  0.3531
 6333SOL    HW219899   6.182   5.737   1.456  0.7255  0.2267  1.1785
 6334SOL     OW19900   1.389   2.001   2.809  0.4953  0.9040 -0.0325
 6334SOL    HW119901   1.326   1.926   2.787  1.3113 -0.1519  1.1287
 6334SOL    HW219902   1.367   2.080   2.751 -0.8699  0.0432 -0.7574
 6335SOL     OW19903   4.243   6.917   1.286  0.2630  0.1511  0.2692
 6335SOL    HW119904   4.178   6.845   1.309  0.5207 -0.0615  0.3434
 6335SOL    HW219905   4.199   6.985   1.226 -0.1995  0.3251  0.7960
 6336SOL     OW19906   0.205   2.427   5.239 -0.3809 -0.2855  0.1349
 6336SOL    HW119907   0.304   2.443   5.243 -0.3143 -0.7413  0.3684
 6336SOL    HW219908   0.170   2.458   5.150  0.1618 -1.1096 -0.3892
 6337SOL     OW19909   2.781   4.676   3.149  0.2640 -0.2943  0.2653
 6337SOL    HW119910   2.708   4.718   3.094  0.5416 -0.7703 -0.4864
 6337SOL    HW219911   2.867   4.723   3.131  0.4650 -0.8106 -0.1422
 6338SOL     OW19912   1.892   1.608   6.290 -0.0261  0.2051 -0.6067
 6338SOL    HW119913   1.841   1.678   6.239  2.4119  2.0921 -0.6259
 6338SOL    HW219914   1.902   1.527   6.232 -0.8506  0.7181 -1.5161
 6339SOL     OW19915   1.186   6.132   4.863 -0.2074  0.1515  0.4465
 6339SOL    HW119916   1.275   6.086   4.865 -0.2514  0.0786  0.7641
 6339SOL    HW219917   1.118   6.070   4.825 -0.0483  0.3397 -0.1507
 6340SOL     OW19918   2.132   3.707   2.119  0.1766 -0.5291  0.8258
 6340SOL    HW119919   2.157   3.612   2.099 -0.1331 -0.4646  0.0841
 6340SOL    HW219920   2.198   3.768   2.074  0.3263 -0.3856  1.2326
 6341SOL     OW19921   1.726   4.158   2.426  0.1011 -0.3691  0.2210
 6341SOL    HW119922   1.810   4.179   2.476 -0.7020  3.6586  0.1628
 6341SOL    HW219923   1.650   4.147   2.490  0.1611 -1.5328  0.1254
 6342SOL     OW19924   1.001   1.744   3.239 -0.3078  0.6543 -0.3823
 6342SOL    HW119925   1.078   1.798   3.273 -0.1214 -0.0005  0.2579
 6342SOL    HW219926   1.029   1.693   3.158 -0.2485  0.8908 -0.5113
 6343SOL     OW19927   4.082   4.567   0.785  0.2887  0.3196  0.0395
 6343SOL    HW119928   4.178   4.566   0.756  0.3850  0.4976  0.3339
 6343SOL    HW219929   4.072   4.510   0.867 -0.1786 -1.0193 -0.9171
 6344SOL     OW19930   4.762   4.742   3.122 -0.0859  0.2390  0.2141
 6344SOL    HW119931   4.702   4.663   3.111  2.0419 -1.2258 -1.8304
 6344SOL    HW219932   4.780   4.758   3.219 -1.7771 -0.7662  0.7351
 6345SOL     OW19933   6.985   3.039   1.019  0.1971  0.1430 -0.6159
 6345SOL    HW119934   7.068   3.087   0.989 -1.1092  2.2894 -1.0157
 6345SOL    HW219935   7.009   2.945   1.045  2.5241  0.2969 -1.8804
 6346SOL     OW19936   5.824   5.367   5.178 -0.3382  0.4662 -0.1840
 6346SOL    HW119937   5.768   5.389   5.258 -1.3034  0.5317 -0.8582
 6346SOL    HW219938   5.764   5.341   5.102  0.5912 -0.1316 -0.7206
 6347SOL     OW19939   2.460   1.491   3.297  0.1245 -0.3095 -0.1508
 6347SOL    HW119940   2.490   1.540   3.379  0.8613 -0.9316 -0.0345
 6347SOL    HW219941   2.536   1.435   3.262 -0.4134 -0.6401 -0.8186
 6348SOL     OW19942   0.597   1.161   6.193  0.5045 -0.6494 -0.5620
 6348SOL    HW119943   0.597   1.081   6.253  0.2385  0.3553  0.8223
 6348SOL    HW219944   0.686   1.206   6.198  0.4658 -0.5333 -0.8932
 6349SOL     OW19945   1.572   0.056   6.523  0.2036 -0.0167 -0.6676
 6349SOL    HW119946   1.526   0.009   6.598  1.3725  0.9934  0.7541
 6349SOL    HW219947   1.564   0.155   6.536  0.5197  0.1739 -1.8294
 6350SOL     OW19948   1.873   5.810   6.552  0.7369 -0.3766  0.1975
 6350SOL    HW119949   1.799   5.793   6.618 -1.1784  0.7407 -1.5565
 6350SOL    HW219950   1.945   5.742   6.565 -0.4000 -1.2812  2.2356
 6351SOL     OW19951   5.817   4.103   3.582  0.8069 -0.0911  0.0378
 6351SOL    HW119952   5.802   4.199   3.602  2.8238  0.1683  0.5894
 6351SOL    HW219953   5.736   4.064   3.538  0.2273  2.0146 -0.8542
 6352SOL     OW19954   1.895   0.423   4.324  0.2850 -0.6818  0.2935
 6352SOL    HW119955   1.914   0.448   4.229 -0.3145 -0.4293  0.2399
 6352SOL    HW219956   1.803   0.387   4.332  0.2411 -0.4683  0.8236
 6353SOL     OW19957   0.988   6.476   1.288  0.6370 -0.0436 -0.1209
 6353SOL    HW119958   1.084   6.484   1.261  0.5324  0.2959 -0.4043
 6353SOL    HW219959   0.938   6.423   1.220  1.1322 -2.4979  1.2875
 6354SOL     OW19960   4.884   4.535   2.863 -0.0731 -0.0466  0.4492
 6354SOL    HW119961   4.803   4.496   2.907 -0.5613  1.4830  0.9374
 6354SOL    HW219962   4.908   4.479   2.784 -1.4511 -0.6696  0.4369
 6355SOL     OW19963   1.998   3.929   5.388 -0.1387  0.3198 -0.2883
 6355SOL    HW119964   2.096   3.937   5.369 -0.0772 -0.2872 -0.2300
 6355SOL    HW219965   1.984   3.890   5.479 -0.4222 -1.5195 -1.0824
 6356SOL     OW19966   4.493   3.617   6.612 -0.6692 -0.1846  0.7441
 6356SOL    HW119967   4.467   3.520   6.606 -0.7170 -0.1984  1.1462
 6356SOL    HW219968   4.575   3.632   6.557 -1.9837  0.0447 -1.2532
 6357SOL     OW19969   0.206   2.560   1.685  0.0272 -0.6210 -0.0430
 6357SOL    HW119970   0.115   2.595   1.706 -0.0300 -0.7266 -0.1110
 6357SOL    HW219971   0.245   2.612   1.609  0.3849  0.0014  0.5590
 6358SOL     OW19972   0.421   0.828   0.395 -0.2502 -0.0562 -0.2156
 6358SOL    HW119973   0.387   0.842   0.488 -0.9371 -1.8122 -0.1629
 6358SOL    HW219974   0.501   0.767   0.398  0.7246  1.1523 -0.6654
 6359SOL     OW19975   4.478   6.977   1.715  0.1042 -0.2082 -0.0951
 6359SOL    HW119976   4.494   7.057   1.657  1.4068  0.1025  0.6554
 6359SOL    HW219977   4.466   7.006   1.810  2.2019 -0.9718  0.4457
 6360SOL     OW19978   1.117   2.006   3.353 -0.0487 -0.4011 -0.7820
 6360SOL    HW119979   1.157   2.088   3.393  2.5668 -0.6402 -2.6391
 6360SOL    HW219980   1.038   2.031   3.296 -0.8110  0.4620  0.5950
 6361SOL     OW19981   0.482   1.017   6.576  0.3376 -0.4084 -0.2299
 6361SOL    HW119982   0.407   1.061   6.527  0.4965  0.9340  0.6757
 6361SOL    HW219983   0.562   1.010   6.516 -0.2053 -1.0153 -0.9048
 6362SOL     OW19984   2.169   5.919   0.051  0.0210 -0.0518 -0.3823
 6362SOL    HW119985   2.252   5.972   0.062  0.2215 -0.4021 -0.1944
 6362SOL    HW219986   2.140   5.883   0.139 -0.0422 -0.3578 -0.5260
 6363SOL     OW19987   1.925   5.449   2.317 -0.1098 -0.1886  0.1416
 6363SOL    HW119988   1.898   5.496   2.233  3.0633 -1.4560 -1.7528
 6363SOL    HW219989   1.886   5.357   2.318 -1.2296  0.2657  0.7921
 6364SOL     OW19990   1.536   1.070   6.316  0.7954  0.9233 -0.1689
 6364SOL    HW119991   1.588   1.097   6.235 -0.0544  2.4285 -0.2406
 6364SOL    HW219992   1.549   1.137   6.389 -0.2524  0.7892  0.1561
 6365SOL     OW19993   6.397   6.368   3.312  0.3772 -0.2370  0.0768
 6365SOL    HW119994   6.320   6.408   3.363 -0.2525 -1.2835 -0.0205
 6365SOL    HW219995   6.372   6.361   3.215  0.2196 -1.4287  0.1886
 6366SOL     OW19996   5.953   6.104   5.349 -0.0354 -0.5261 -0.2917
 6366SOL    HW119997   6.052   6.112   5.335  0.2389 -3.0905 -0.3052
 6366SOL    HW219998   5.927   6.150   5.434  1.3069 -0.4859  0.1180
 6367SOL     OW19999   4.612   2.293   3.295  0.0602  0.7573 -0.0252
 6367SOL    HW120000   4.575   2.385   3.286  1.3312  1.3492  0.5835
 6367SOL    HW220001   4.554   2.240   3.357  0.1551  1.6268  0.8263
 6368SOL     OW20002   4.827   2.507   4.626 -0.3264  0.4392  0.0820
 6368SOL    HW120003   4.804   2.445   4.552 -1.2672  0.6532  0.1712
 6368SOL    HW220004   4.756   2.578   4.633  1.0226  1.8855 -0.4027
 6369SOL     OW20005   2.770   6.550   5.466  0.4488  0.4980 -0.1579
 6369SOL    HW120006   2.856   6.599   5.479  0.0013  1.3361 -0.2816
 6369SOL    HW220007   2.703   6.583   5.532  0.2605 -0.2501  0.0276
 6370SOL     OW20008   4.729   2.752   6.659 -0.7335 -0.3892 -0.0035
 6370SOL    HW120009   4.697   2.782   6.569 -0.6742 -2.0571 -0.6078
 6370SOL    HW220010   4.661   2.775   6.728  0.4446  3.6226  0.1045
 6371SOL     OW20011   5.782   3.915   2.671  0.5792  0.0827 -0.1321
 6371SOL    HW120012   5.690   3.955   2.679  1.5873  2.8118 -0.9796
 6371SOL    HW220013   5.802   3.896   2.576  0.9105 -0.4845  0.0487
 6372SOL     OW20014   1.350   2.884   3.612  0.5685  0.0677  0.4724
 6372SOL    HW120015   1.320   2.918   3.702 -2.1926  2.1153 -1.0468
 6372SOL    HW220016   1.276   2.831   3.570  1.1893  0.4470 -1.1836
 6373SOL     OW20017   5.856   4.303   1.323 -0.7138 -0.1360 -0.4025
 6373SOL    HW120018   5.947   4.278   1.290 -2.0486 -3.1151 -2.2995
 6373SOL    HW220019   5.813   4.367   1.259 -0.2782  0.6098  0.0450
 6374SOL     OW20020   3.642   2.800   1.183  0.1941 -0.3550  0.1029
 6374SOL    HW120021   3.702   2.803   1.262 -0.5434 -0.5516  0.6831
 6374SOL    HW220022   3.615   2.893   1.157  2.5088 -0.0568 -1.5708
 6375SOL     OW20023   6.613   4.384   3.043 -0.2101  0.0795  0.6143
 6375SOL    HW120024   6.664   4.302   3.067 -2.0108 -1.3630 -0.3154
 6375SOL    HW220025   6.633   4.409   2.948 -1.6584 -0.8489  0.0504
 6376SOL     OW20026   4.421   0.321   4.852  0.0393 -0.0154  0.0656
 6376SOL    HW120027   4.517   0.303   4.874  0.3792  0.6525 -0.7857
 6376SOL    HW220028   4.396   0.411   4.887 -0.2421 -0.1364  0.1761
 6377SOL     OW20029   1.039   6.589   6.247 -0.1337 -0.0112 -0.0069
 6377SOL    HW120030   0.968   6.658   6.232 -0.5746 -0.1595  1.2718
 6377SOL    HW220031   1.129   6.628   6.223 -0.6260  0.1392 -1.7381
 6378SOL     OW20032   6.417   4.156   4.264  0.3258  0.2186  0.5924
 6378SOL    HW120033   6.323   4.161   4.229 -0.1339 -2.0975  1.3747
 6378SOL    HW220034   6.443   4.061   4.277  2.5248  0.8475  1.1899
 6379SOL     OW20035   2.647   5.322   5.916  0.2477  0.4333 -0.6177
 6379SOL    HW120036   2.666   5.341   5.820  0.2135 -1.5325 -1.0564
 6379SOL    HW220037   2.725   5.274   5.956 -0.5277 -0.4989 -0.2093
 6380SOL     OW20038   7.008   4.318   4.342  0.0385  0.5418  0.2973
 6380SOL    HW120039   7.089   4.321   4.283 -0.4665 -0.1967 -0.4636
 6380SOL    HW220040   6.930   4.358   4.294 -0.0853  1.1203  0.9699
 6381SOL     OW20041   4.570   4.740   5.917 -0.3635 -0.2602 -0.3723
 6381SOL    HW120042   4.562   4.649   5.877  0.5673  0.0157 -1.2340
 6381SOL    HW220043   4.516   4.745   6.000 -0.5178 -1.5657 -0.3781
 6382SOL     OW20044   2.876   0.187   1.862  0.2088 -0.1412 -0.5179
 6382SOL    HW120045   2.931   0.270   1.857  0.5408 -0.2762  0.6194
 6382SOL    HW220046   2.909   0.120   1.796  1.4019 -0.2031  0.1237
 6383SOL     OW20047   3.297   1.868   2.953  0.1371 -0.4892  0.1643
 6383SOL    HW120048   3.356   1.947   2.971  0.1348 -0.9781  2.6159
 6383SOL    HW220049   3.340   1.811   2.883  1.0911  0.6704 -0.2453
 6384SOL     OW20050   6.668   2.093   1.877 -0.5827  0.3448  0.3181
 6384SOL    HW120051   6.615   2.093   1.962  0.6283  2.0558  1.1307
 6384SOL    HW220052   6.751   2.038   1.889 -1.1900 -0.7600 -0.3319
 6385SOL     OW20053   1.063   3.989   1.553 -0.5058  0.0125 -0.2307
 6385SOL    HW120054   1.035   4.044   1.631 -1.0850 -1.8294  0.9442
 6385SOL    HW220055   1.001   4.005   1.477  0.2932  2.1240 -0.4995
 6386SOL     OW20056   1.325   1.766   0.950 -0.0731 -0.0156 -0.7760
 6386SOL    HW120057   1.269   1.823   1.011 -0.8605  0.9207 -2.3177
 6386SOL    HW220058   1.422   1.782   0.970 -0.2712 -1.7767  2.0398
 6387SOL     OW20059   5.753   1.569   1.481 -0.5209 -0.0019 -0.6135
 6387SOL    HW120060   5.753   1.497   1.412 -1.9654 -0.1817 -0.4674
 6387SOL    HW220061   5.666   1.567   1.531 -0.6286  1.8423 -0.6290
 6388SOL     OW20062   6.224   6.508   1.855 -0.3614 -0.3932  0.1678
 6388SOL    HW120063   6.177   6.591   1.823 -0.3761 -0.5231 -0.1522
 6388SOL    HW220064   6.169   6.464   1.926 -0.6219 -0.4293 -0.0549
 6389SOL     OW20065   1.019   1.057   3.195 -0.4707  0.1475  0.2019
 6389SOL    HW120066   1.044   0.994   3.122  0.1169 -0.5400  0.9791
 6389SOL    HW220067   0.942   1.020   3.248 -1.9505  1.3710 -0.9992
 6390SOL     OW20068   5.874   1.209   6.427 -0.2818  0.6484  0.1404
 6390SOL    HW120069   5.788   1.213   6.376 -0.0729  0.4377 -0.2321
 6390SOL    HW220070   5.927   1.291   6.410 -0.0097  0.3781 -0.3514
 6391SOL     OW20071   1.445   0.782   4.438 -0.4455 -0.2977  0.2395
 6391SOL    HW120072   1.465   0.848   4.365 -1.7183  2.2905  2.0834
 6391SOL    HW220073   1.531   0.749   4.476  0.2332 -0.6660 -1.4907
 6392SOL     OW20074   3.775   5.442   3.421 -0.2272 -0.1532  0.6834
 6392SOL    HW120075   3.863   5.460   3.377 -0.0596 -1.3764  0.4788
 6392SOL    HW220076   3.780   5.468   3.517  1.1613 -2.3669  1.2827
 6393SOL     OW20077   1.057   6.718   7.020  0.0285 -0.6814 -0.1742
 6393SOL    HW120078   1.134   6.737   6.959  1.4769  1.2744  2.0960
 6393SOL    HW220079   0.986   6.787   7.006  1.7434  1.8280  2.3556
 6394SOL     OW20080   1.011   4.864   1.160  0.1408 -0.3508 -0.7355
 6394SOL    HW120081   0.996   4.765   1.159  0.2680 -0.4042  0.6188
 6394SOL    HW220082   1.109   4.884   1.157  0.2337 -0.3628  1.0577
 6395SOL     OW20083   2.245   6.526   0.779  0.1523  0.6030  0.5457
 6395SOL    HW120084   2.282   6.543   0.687 -0.9672  0.1954  0.0029
 6395SOL    HW220085   2.193   6.441   0.779 -0.3377  0.8866  1.4152
 6396SOL     OW20086   6.866   2.767   6.604 -0.1775  0.4116  0.0764
 6396SOL    HW120087   6.779   2.805   6.572 -0.2285  1.2338  1.1362
 6396SOL    HW220088   6.851   2.676   6.642 -0.9202  1.2185  1.8338
 6397SOL     OW20089   6.172   0.785   3.588 -0.3534  0.1163 -0.3400
 6397SOL    HW120090   6.223   0.719   3.533 -1.8709 -0.3064 -1.3350
 6397SOL    HW220091   6.074   0.773   3.570 -0.7849  1.1735  1.1484
 6398SOL     OW20092   6.641   4.531   0.357 -0.8122 -0.3653  0.0353
 6398SOL    HW120093   6.580   4.463   0.316 -0.3926  0.2471 -1.6806
 6398SOL    HW220094   6.619   4.622   0.321  2.6590 -0.3882 -2.7903
 6399SOL     OW20095   2.655   0.319   6.718 -0.2996 -0.3849 -0.3156
 6399SOL    HW120096   2.607   0.364   6.794  1.0495 -0.4774  0.6210
 6399SOL    HW220097   2.707   0.387   6.667 -1.4336 -0.2745 -1.3723
 6400SOL     OW20098   2.224   4.679   2.503  0.1264 -0.5261  0.3248
 6400SOL    HW120099   2.161   4.669   2.580 -0.9013 -0.8403 -0.5438
 6400SOL    HW220100   2.249   4.776   2.493  0.4507 -0.5130  1.1847
 6401SOL     OW20101   2.747   5.435   2.732 -0.0055 -0.3917 -0.7023
 6401SOL    HW120102   2.653   5.414   2.761 -0.3983  0.4940 -1.2912
 6401SOL    HW220103   2.802   5.351   2.733 -0.6734 -0.8399  0.0983
 6402SOL     OW20104   0.830   4.189   4.524  0.8516 -0.0557  0.0959
 6402SOL    HW120105   0.893   4.141   4.462  0.6368 -0.4807  0.2056
 6402SOL    HW220106   0.763   4.124   4.560 -0.6558  0.6790 -1.2657
 6403SOL     OW20107   4.294   6.045   4.272  0.4156 -0.0740  0.1354
 6403SOL    HW120108   4.268   5.987   4.195  0.8793  0.7528 -0.6641
 6403SOL    HW220109   4.233   6.028   4.349  0.3608 -1.3914 -0.1849
 6404SOL     OW20110   4.085   0.598   2.570 -0.4791 -0.0163  0.1597
 6404SOL    HW120111   4.085   0.575   2.472 -0.3584 -0.0079  0.1571
 6404SOL    HW220112   3.993   0.623   2.598 -1.2300 -3.0526  0.7667
 6405SOL     OW20113   5.203   1.722   3.818  0.3224 -0.8083 -0.6079
 6405SOL    HW120114   5.104   1.710   3.832  0.1261  0.7212 -0.5542
 6405SOL    HW220115   5.223   1.721   3.720  0.0271  0.4309 -0.6883
 6406SOL     OW20116   1.432   1.052   3.421  0.0479 -0.2438  0.3211
 6406SOL    HW120117   1.462   1.114   3.494 -0.4123 -1.1325  1.2955
 6406SOL    HW220118   1.333   1.057   3.412  0.1057 -0.1292 -0.2580
 6407SOL     OW20119   2.747   6.055   2.044  0.0379 -0.5359 -0.1327
 6407SOL    HW120120   2.673   6.096   2.097  0.4958 -0.9491  0.8486
 6407SOL    HW220121   2.759   5.959   2.071  1.3467 -0.3023  0.1941
 6408SOL     OW20122   0.004   6.722   0.244  0.6991 -0.3049  0.1647
 6408SOL    HW120123  -0.064   6.652   0.222  0.2520  0.4360 -0.8824
 6408SOL    HW220124   0.010   6.732   0.343  0.2417 -1.3081  0.3094
 6409SOL     OW20125   6.100   6.963   3.983  0.5736 -0.0394 -0.3544
 6409SOL    HW120126   6.180   6.920   4.026 -0.7315 -1.8410  0.4048
 6409SOL    HW220127   6.081   6.918   3.896  0.0978  0.0663 -0.3062
 6410SOL     OW20128   2.379   1.511   5.349 -0.3685  0.1147 -0.4838
 6410SOL    HW120129   2.321   1.441   5.308  0.4800 -0.2464 -1.1034
 6410SOL    HW220130   2.324   1.573   5.405 -1.2521 -0.5397 -0.6261
 6411SOL     OW20131   1.613   3.976   1.111 -0.3138 -0.0140 -0.2900
 6411SOL    HW120132   1.709   3.952   1.107 -0.5539 -1.2440  0.6953
 6411SOL    HW220133   1.586   4.022   1.026  1.0219 -0.0233 -0.7407
 6412SOL     OW20134   3.050   6.810   0.584 -0.7182 -0.4382 -0.1477
 6412SOL    HW120135   3.024   6.812   0.488 -2.9867  0.2687  0.4114
 6412SOL    HW220136   2.988   6.869   0.637 -0.0156 -1.3780  1.8483
 6413SOL     OW20137   5.041   2.883   4.986 -0.4299  0.1206  0.0875
 6413SOL    HW120138   5.122   2.940   4.973 -0.5084  0.5275  1.3182
 6413SOL    HW220139   5.047   2.835   5.073 -1.6672  0.4258  0.3615
 6414SOL     OW20140   0.287   0.245   0.876  0.1693  0.4421  0.0157
 6414SOL    HW120141   0.333   0.333   0.887  0.2203  0.1911  2.2907
 6414SOL    HW220142   0.307   0.187   0.955 -0.1618 -1.4958 -1.2570
 6415SOL     OW20143   6.600   5.261   4.390 -0.1801 -0.2003 -0.3492
 6415SOL    HW120144   6.586   5.289   4.485  0.4801  2.5123 -0.9560
 6415SOL    HW220145   6.680   5.201   4.385  0.6262  0.7301  0.6880
 6416SOL     OW20146   3.239   0.796   5.742 -0.6906  0.5755  0.6195
 6416SOL    HW120147   3.283   0.807   5.831 -1.0606 -1.5289  1.1188
 6416SOL    HW220148   3.304   0.753   5.678 -1.1594 -0.1435  0.6081
 6417SOL     OW20149   5.847   1.017   2.135  0.1229  0.5596  0.2131
 6417SOL    HW120150   5.822   1.092   2.196 -1.9273  0.1496 -0.0408
 6417SOL    HW220151   5.854   1.052   2.041 -2.1665  0.2939 -0.1286
 6418SOL     OW20152   6.364   4.299   1.669 -0.4015 -0.4407  0.0766
 6418SOL    HW120153   6.433   4.238   1.631 -0.3800 -0.8716  0.7795
 6418SOL    HW220154   6.278   4.287   1.620 -0.4394 -1.1591  0.3177
 6419SOL     OW20155   0.235   5.660   5.342 -0.1306 -0.0175 -0.3995
 6419SOL    HW120156   0.138   5.638   5.332 -0.1453 -0.0675 -0.1281
 6419SOL    HW220157   0.252   5.752   5.305 -0.7097  0.9674  1.6375
 6420SOL     OW20158   2.691   4.740   3.388  0.3693  0.8419 -0.1073
 6420SOL    HW120159   2.619   4.807   3.373 -0.5981  0.0329  0.6663
 6420SOL    HW220160   2.720   4.701   3.301 -0.9521  0.3812 -0.3690
 6421SOL     OW20161   4.853   6.918   3.036 -0.1032 -0.1039  0.0846
 6421SOL    HW120162   4.792   6.843   3.061  0.7294 -0.2805  1.7008
 6421SOL    HW220163   4.944   6.881   3.016  0.1939  0.4236  0.4545
 6422SOL     OW20164   0.867   2.976   3.853 -0.2446  0.1915  0.2295
 6422SOL    HW120165   0.813   2.946   3.775  1.1045 -0.7860 -0.3597
 6422SOL    HW220166   0.953   3.018   3.821 -0.3753  1.2277  1.1500
 6423SOL     OW20167   1.522   4.077   3.770 -0.2913  0.2425  0.1348
 6423SOL    HW120168   1.459   4.095   3.694 -0.7136  1.1219  0.6762
 6423SOL    HW220169   1.508   4.145   3.841 -0.7166 -1.2409  1.5287
 6424SOL     OW20170   6.353   3.560   3.369  0.2719 -0.9619  0.0740
 6424SOL    HW120171   6.419   3.555   3.294  0.4912 -0.3467  0.2168
 6424SOL    HW220172   6.400   3.546   3.456 -0.3137 -4.0288  0.0223
 6425SOL     OW20173   1.138   6.052   2.062  0.1257 -0.0376 -0.6250
 6425SOL    HW120174   1.169   6.124   2.000  1.8358 -0.2474 -0.0860
 6425SOL    HW220175   1.206   5.978   2.063  2.0365  1.3846  3.8606
 6426SOL     OW20176   5.555   3.803   6.113 -0.1415  1.1661  0.1639
 6426SOL    HW120177   5.607   3.746   6.176 -2.5750 -0.7972  0.5606
 6426SOL    HW220178   5.582   3.782   6.019  1.8132  2.3916  0.3858
 6427SOL     OW20179   2.923   3.746   3.684  0.0004 -0.4771  0.1918
 6427SOL    HW120180   2.939   3.650   3.705 -0.3321 -1.3097 -2.8930
 6427SOL    HW220181   2.863   3.754   3.605  1.9605  2.1882 -1.1987
 6428SOL     OW20182   4.934   1.630   6.279  0.5928  0.1948 -0.0907
 6428SOL    HW120183   4.897   1.594   6.193 -0.8282  0.2337  0.4644
 6428SOL    HW220184   4.887   1.585   6.356 -0.2137  2.1684  0.6322
 6429SOL     OW20185   3.166   6.517   4.231 -0.0664 -0.5115 -0.3646
 6429SOL    HW120186   3.133   6.427   4.258 -0.3849 -0.8758 -1.8938
 6429SOL    HW220187   3.172   6.523   4.131 -1.4735  1.6376 -0.3899
 6430SOL     OW20188   0.259   0.417   5.095  0.2776 -0.4919  0.0851
 6430SOL    HW120189   0.351   0.408   5.133 -0.2310  1.4569  1.9630
 6430SOL    HW220190   0.252   0.503   5.045 -0.6747 -0.3784  0.4061
 6431SOL     OW20191   3.027   4.677   1.705  0.0949  0.0587 -0.2891
 6431SOL    HW120192   3.121   4.642   1.701 -0.2154 -0.7842 -0.3453
 6431SOL    HW220193   2.968   4.609   1.747 -0.2115  1.2195  1.2543
 6432SOL     OW20194   1.665   2.584   6.928 -0.1112 -0.8552  0.0919
 6432SOL    HW120195   1.743   2.635   6.966 -0.2880  0.3908 -1.1430
 6432SOL    HW220196   1.583   2.604   6.983 -0.1808  0.2405 -0.3808
 6433SOL     OW20197   1.754   3.783   6.494 -0.0348 -0.1747 -0.3892
 6433SOL    HW120198   1.753   3.729   6.410  0.8797  0.5533 -0.9043
 6433SOL    HW220199   1.676   3.846   6.495 -1.0666 -1.4162  0.1860
 6434SOL     OW20200   2.885   5.511   5.055  0.0896 -0.2295  0.4065
 6434SOL    HW120201   2.976   5.513   5.015  1.4411  2.3248  3.1401
 6434SOL    HW220202   2.852   5.417   5.059  2.7926 -1.3045 -0.2770
 6435SOL     OW20203   4.861   0.412   0.172 -0.0356  0.1240 -0.1338
 6435SOL    HW120204   4.809   0.448   0.249  0.6153  2.3673 -0.6661
 6435SOL    HW220205   4.818   0.440   0.086  0.1615 -0.9435 -0.6070
 6436SOL     OW20206   6.368   4.327   3.997  0.2400 -0.4427 -0.1077
 6436SOL    HW120207   6.356   4.407   4.056  0.3293 -0.2519 -0.3451
 6436SOL    HW220208   6.292   4.263   4.012  0.8173 -0.9081  1.0035
 6437SOL     OW20209   2.041   1.197   0.881  0.6342  0.0838  0.6335
 6437SOL    HW120210   1.995   1.286   0.888 -1.8704 -1.1574  1.3833
 6437SOL    HW220211   2.106   1.187   0.956  3.0460  2.2882 -1.0003
 6438SOL     OW20212   1.999   6.674   6.947 -0.0126  0.1540  0.2589
 6438SOL    HW120213   1.962   6.761   6.980 -0.0330  1.4947 -2.8916
 6438SOL    HW220214   1.923   6.612   6.927 -0.3954  1.1436 -1.6729
 6439SOL     OW20215   6.607   1.095   3.133 -0.0738 -0.4367 -0.1782
 6439SOL    HW120216   6.687   1.110   3.192  0.0155  0.1024 -0.4323
 6439SOL    HW220217   6.578   0.999   3.141 -0.4565 -0.2266  1.2236
 6440SOL     OW20218   2.927   1.886   5.794  0.7559  0.1386  0.0883
 6440SOL    HW120219   2.959   1.968   5.747  0.7848 -0.2157 -0.5303
 6440SOL    HW220220   2.932   1.808   5.731 -0.6333 -0.0670  0.2090
 6441SOL     OW20221   0.766   5.914   3.532  0.2721  0.6082  0.2001
 6441SOL    HW120222   0.735   5.973   3.457  1.7104  1.1133 -0.0390
 6441SOL    HW220223   0.862   5.890   3.518  0.2294 -0.2758  1.2739
 6442SOL     OW20224   2.247   1.745   5.426 -0.8129  0.3614 -0.0199
 6442SOL    HW120225   2.256   1.843   5.409 -2.3351  0.5941  0.3666
 6442SOL    HW220226   2.150   1.719   5.423 -0.4388 -1.1275 -0.0863
 6443SOL     OW20227   4.556   0.189   0.958 -0.9993  0.2163  0.0388
 6443SOL    HW120228   4.635   0.150   0.911 -0.4529  0.2191  0.9357
 6443SOL    HW220229   4.473   0.141   0.929 -0.8671  0.9997 -1.8331
 6444SOL     OW20230   1.330   3.046   5.760 -0.1967  0.1384  0.4668
 6444SOL    HW120231   1.315   2.976   5.829 -0.5415  1.2629  1.5686
 6444SOL    HW220232   1.304   3.011   5.670 -3.4922 -0.0981  1.4071
 6445SOL     OW20233   3.384   3.334   3.375  0.2893 -0.4469 -0.4090
 6445SOL    HW120234   3.312   3.352   3.441  1.2311  0.6589  0.3639
 6445SOL    HW220235   3.350   3.272   3.304 -1.2599 -0.3013  0.1702
 6446SOL     OW20236   1.572   1.575   1.742  0.1281 -0.2726 -0.3828
 6446SOL    HW120237   1.601   1.669   1.722 -0.7652  0.6406  2.2109
 6446SOL    HW220238   1.652   1.521   1.768  0.4184  0.3222  0.0036
 6447SOL     OW20239   0.288   2.952   6.421 -0.0387  0.2648  0.4273
 6447SOL    HW120240   0.345   3.021   6.465  0.4927 -0.5489  1.0386
 6447SOL    HW220241   0.220   2.918   6.486 -0.6147  0.5468 -0.0133
 6448SOL     OW20242   4.784   4.601   2.555 -0.0135  0.1888  0.4003
 6448SOL    HW120243   4.871   4.562   2.526 -0.7848 -0.1512 -1.6788
 6448SOL    HW220244   4.722   4.527   2.584 -0.5364  0.0788 -0.8917
 6449SOL     OW20245   2.064   6.248   1.293  0.5813 -0.3396 -0.6419
 6449SOL    HW120246   2.098   6.300   1.372  0.1477  1.0982 -1.3635
 6449SOL    HW220247   2.018   6.165   1.325  0.4815  0.1828  0.6276
 6450SOL     OW20248   6.956   4.236   0.349  0.1180 -0.0258 -0.4036
 6450SOL    HW120249   6.942   4.310   0.283 -0.4388 -0.1756 -0.4510
 6450SOL    HW220250   7.054   4.219   0.357  0.1754 -0.3858 -1.6136
 6451SOL     OW20251   2.360   3.854   0.180 -0.2773 -0.2120  0.1390
 6451SOL    HW120252   2.274   3.904   0.169 -1.6481 -2.2091  1.1463
 6451SOL    HW220253   2.392   3.824   0.090 -2.1220 -1.7391 -0.0756
 6452SOL     OW20254   5.435   4.244   4.343  0.4228 -0.2182 -0.9157
 6452SOL    HW120255   5.375   4.265   4.266 -0.7986 -1.9190 -0.4721
 6452SOL    HW220256   5.466   4.149   4.336  0.0957 -0.4793  0.8094
 6453SOL     OW20257   4.048   6.361   0.313 -0.1938  0.5761  0.0146
 6453SOL    HW120258   4.131   6.307   0.301 -0.8935 -0.4039 -0.6032
 6453SOL    HW220259   4.065   6.456   0.285  0.6050  0.2903 -0.4982
 6454SOL     OW20260   1.076   4.341   2.328  0.0128 -0.4734  0.1888
 6454SOL    HW120261   1.155   4.284   2.306 -0.1501 -0.2550 -1.0300
 6454SOL    HW220262   0.992   4.294   2.301 -0.1479  0.1186 -0.4024
 6455SOL     OW20263   0.146   3.601   2.559  0.6085  0.1373  0.3668
 6455SOL    HW120264   0.222   3.581   2.621  0.9466  0.9771  0.2420
 6455SOL    HW220265   0.059   3.589   2.608  0.8526  0.1031  0.7978
 6456SOL     OW20266   2.730   0.533   1.852 -0.4541  0.2644  0.4548
 6456SOL    HW120267   2.757   0.626   1.875 -1.0099  0.2419  1.2252
 6456SOL    HW220268   2.782   0.502   1.773  0.0615  1.0624  0.4724
 6457SOL     OW20269   5.588   6.369   1.042 -0.3159 -0.0797 -0.2754
 6457SOL    HW120270   5.530   6.327   1.111  0.5520  0.1899  0.6365
 6457SOL    HW220271   5.596   6.307   0.963 -1.3333 -0.3735 -0.1609
 6458SOL     OW20272   0.916   3.248   3.282  0.0134 -0.3291 -0.3153
 6458SOL    HW120273   0.926   3.161   3.330 -0.7870 -0.3686 -0.2142
 6458SOL    HW220274   1.005   3.277   3.247  0.3184 -1.0953 -0.1899
 6459SOL     OW20275   0.393   3.554   2.667 -0.5211 -0.1440  0.7937
 6459SOL    HW120276   0.460   3.481   2.684 -2.3996 -1.6149  2.3771
 6459SOL    HW220277   0.420   3.635   2.720  0.9306 -0.0734 -0.0006
 6460SOL     OW20278   6.565   5.734   6.610  0.0588  0.1867  0.1742
 6460SOL    HW120279   6.550   5.832   6.615 -0.7267  0.1087 -0.4802
 6460SOL    HW220280   6.655   5.716   6.570  1.0590  0.6397  2.1119
 6461SOL     OW20281   4.831   5.026   0.882  0.2274  0.9754 -0.4709
 6461SOL    HW120282   4.918   4.989   0.916  0.5931  1.6374 -0.6620
 6461SOL    HW220283   4.773   4.951   0.850  0.8214  0.5476 -0.5679
 6462SOL     OW20284   1.862   4.632   4.997 -0.4159  0.3949  0.0567
 6462SOL    HW120285   1.861   4.587   5.086  1.3125 -1.7003 -0.8849
 6462SOL    HW220286   1.911   4.719   5.004 -2.5181  1.5376  1.6167
 6463SOL     OW20287   4.091   0.984   2.023  0.5645 -0.4934 -0.3204
 6463SOL    HW120288   4.104   1.055   2.092 -0.5042 -0.0624 -0.5431
 6463SOL    HW220289   4.177   0.969   1.975  1.0953 -0.1757  0.5076
 6464SOL     OW20290   2.688   0.493   2.564 -0.6755  0.1187 -0.3290
 6464SOL    HW120291   2.690   0.513   2.466 -2.4904  1.7930 -0.0987
 6464SOL    HW220292   2.708   0.396   2.579  1.7294  0.2587 -2.1443
 6465SOL     OW20293   4.844   3.103   1.163 -0.4381  0.2273  0.1689
 6465SOL    HW120294   4.918   3.066   1.218 -0.6418 -1.1373 -0.4299
 6465SOL    HW220295   4.776   3.032   1.145 -0.1009  0.4287 -2.2948
 6466SOL     OW20296   5.129   3.588   0.319  0.0513  0.9411  0.9222
 6466SOL    HW120297   5.171   3.667   0.365 -0.3968  1.0704  1.1112
 6466SOL    HW220298   5.147   3.506   0.373  2.6388  0.4604 -0.4815
 6467SOL     OW20299   3.526   6.265   0.060  0.3523 -0.0734  0.0284
 6467SOL    HW120300   3.608   6.256   0.116 -1.1496  1.7013  2.6921
 6467SOL    HW220301   3.493   6.173   0.035  1.9549 -0.8654  0.6961
 6468SOL     OW20302   5.240   7.014   5.331  0.0794  0.2081 -0.7058
 6468SOL    HW120303   5.340   7.007   5.330  0.1724  1.3324 -0.8176
 6468SOL    HW220304   5.200   6.929   5.297  0.9722 -0.5813  0.1730
 6469SOL     OW20305   2.920   1.562   4.604 -0.1667 -0.3941 -0.0357
 6469SOL    HW120306   2.933   1.471   4.643  1.1953 -0.5170 -0.6978
 6469SOL    HW220307   2.999   1.619   4.626  1.5474 -0.9668 -3.8578
 6470SOL     OW20308   5.307   2.209   0.951  0.3614  0.1352 -0.0890
 6470SOL    HW120309   5.246   2.153   1.007 -0.1697  0.3233 -0.4705
 6470SOL    HW220310   5.264   2.225   0.862  1.1464 -0.0653 -0.5065
 6471SOL     OW20311   6.970   6.368   5.747 -0.3270  0.0477 -0.4214
 6471SOL    HW120312   7.031   6.397   5.821 -0.6016 -0.6012  0.0682
 6471SOL    HW220313   6.981   6.429   5.669 -0.0483  0.7633  0.1634
 6472SOL     OW20314   6.751   6.695   0.478  0.3677 -0.8104  0.0571
 6472SOL    HW120315   6.742   6.684   0.577  0.6892 -1.2501  0.0394
 6472SOL    HW220316   6.845   6.717   0.455 -0.1098  1.4897  0.0255
 6473SOL     OW20317   2.417   1.641   2.518  0.0859  0.1425 -0.1934
 6473SOL    HW120318   2.499   1.642   2.461 -0.2845 -2.4049 -0.9138
 6473SOL    HW220319   2.337   1.663   2.461 -0.0344 -0.1898 -0.1548
 6474SOL     OW20320   3.673   5.606   5.083  0.4248  0.1253  0.3305
 6474SOL    HW120321   3.738   5.682   5.083  1.9830 -1.1143 -1.4645
 6474SOL    HW220322   3.609   5.618   5.007  0.4961 -0.2157  0.2175
 6475SOL     OW20323   3.217   4.882   3.611 -0.1188 -0.0121 -0.6251
 6475SOL    HW120324   3.233   4.808   3.546 -1.1777 -0.0529 -0.8463
 6475SOL    HW220325   3.188   4.964   3.562  0.0064  0.2408 -0.2830
 6476SOL     OW20326   4.565   3.015   6.265 -0.0630 -0.3671 -0.2700
 6476SOL    HW120327   4.518   3.103   6.273 -1.4148 -0.9227 -1.5310
 6476SOL    HW220328   4.557   2.982   6.171 -0.4000 -2.2743  0.3960
 6477SOL     OW20329   1.198   0.270   1.117 -0.3239 -0.2213 -0.8803
 6477SOL    HW120330   1.283   0.314   1.089 -0.5389 -0.4065 -1.8359
 6477SOL    HW220331   1.125   0.338   1.124 -0.0111  0.0198  0.4036
 6478SOL     OW20332   3.840   5.176   1.671 -0.1476 -0.3098  0.3788
 6478SOL    HW120333   3.884   5.173   1.581 -2.2796 -0.7848 -0.7196
 6478SOL    HW220334   3.791   5.090   1.687  0.9688 -0.6222  2.4480
 6479SOL     OW20335   4.232   5.285   4.941 -0.5526 -0.3819 -0.0296
 6479SOL    HW120336   4.159   5.217   4.934 -0.6337 -0.3290  0.2656
 6479SOL    HW220337   4.192   5.377   4.941 -0.4663 -0.3443 -0.1205
 6480SOL     OW20338   3.833   6.998   6.714 -0.4446  1.1924  0.3856
 6480SOL    HW120339   3.797   6.921   6.766  0.2321  0.3273 -0.4129
 6480SOL    HW220340   3.765   7.072   6.713 -2.1679 -0.3246 -0.9212
 6481SOL     OW20341   3.116   3.394   1.082  0.3440 -0.2696 -0.6796
 6481SOL    HW120342   3.216   3.400   1.092  0.3143  1.2247 -0.9295
 6481SOL    HW220343   3.092   3.406   0.985 -0.2219  3.5087 -0.2272
 6482SOL     OW20344   0.713   3.571   4.564 -0.3141  0.1940 -0.1347
 6482SOL    HW120345   0.661   3.563   4.649  0.1459  0.8961  0.2154
 6482SOL    HW220346   0.706   3.664   4.529  0.6233  0.2688 -0.1378
 6483SOL     OW20347   2.379   5.824   3.822 -0.2131 -0.5980 -0.4899
 6483SOL    HW120348   2.338   5.835   3.731 -2.5192 -0.9650  0.4476
 6483SOL    HW220349   2.418   5.733   3.830 -0.6795 -0.8337 -0.8481
 6484SOL     OW20350   2.728   1.292   2.309  0.1995  0.0635  0.6717
 6484SOL    HW120351   2.791   1.370   2.311  1.9590 -1.2711  0.0313
 6484SOL    HW220352   2.775   1.211   2.344 -2.5492 -0.1519  4.4642
 6485SOL     OW20353   1.772   0.812   5.620 -0.3495 -0.1710 -0.2345
 6485SOL    HW120354   1.838   0.878   5.655 -1.7163  0.6512  0.9164
 6485SOL    HW220355   1.780   0.727   5.672 -0.6002  0.1416  0.3281
 6486SOL     OW20356   1.589   5.507   1.945  0.1084  0.1129  0.2886
 6486SOL    HW120357   1.631   5.421   1.975  0.4500  0.3056  0.3633
 6486SOL    HW220358   1.562   5.561   2.025 -1.5823 -0.6315  0.2607
 6487SOL     OW20359   6.776   5.256   3.893 -0.4821 -0.2852  0.4711
 6487SOL    HW120360   6.847   5.320   3.862  1.0577 -2.5014 -0.8157
 6487SOL    HW220361   6.763   5.267   3.991  0.7334  1.0231  0.5275
 6488SOL     OW20362   4.435   5.407   4.718 -0.6248  0.5325  0.4787
 6488SOL    HW120363   4.518   5.436   4.766 -0.8620  0.6937  0.7893
 6488SOL    HW220364   4.365   5.380   4.784 -0.3049 -1.0865  0.2107
 6489SOL     OW20365   4.033   3.624   6.948 -0.5810 -0.4840  0.2225
 6489SOL    HW120366   3.948   3.655   6.905 -0.2869 -1.4860 -1.1438
 6489SOL    HW220367   4.019   3.534   6.989 -0.0525 -0.9249 -0.5277
 6490SOL     OW20368   1.563   2.314   0.075  0.0637  0.1545 -0.1783
 6490SOL    HW120369   1.581   2.410   0.095  0.4753 -0.0677  0.5742
 6490SOL    HW220370   1.629   2.257   0.123 -1.0851 -0.5683  0.5981
 6491SOL     OW20371   1.678   5.174   6.725 -0.1763  0.0347 -0.4246
 6491SOL    HW120372   1.748   5.109   6.698  0.1348  0.0822  0.2753
 6491SOL    HW220373   1.592   5.150   6.680  0.0353 -0.6115 -0.4910
 6492SOL     OW20374   3.436   3.761   3.537 -0.1184 -0.4938 -0.4377
 6492SOL    HW120375   3.515   3.802   3.491 -0.6582  1.3793  0.2038
 6492SOL    HW220376   3.369   3.732   3.468 -0.9774  2.3918 -0.9676
 6493SOL     OW20377   6.763   4.221   6.773 -0.6945  0.5035  0.4268
 6493SOL    HW120378   6.820   4.168   6.711 -1.2036 -0.4815  0.7746
 6493SOL    HW220379   6.815   4.241   6.857 -1.1652 -1.3542  1.2199
 6494SOL     OW20380   4.904   6.150   1.085  0.2980  0.2415 -0.2281
 6494SOL    HW120381   4.959   6.134   1.167  1.3550  1.1756 -0.7250
 6494SOL    HW220382   4.810   6.170   1.111  0.2361 -1.0670  0.6614
 6495SOL     OW20383   6.883   6.997   4.516 -0.6010  0.5884  0.3927
 6495SOL    HW120384   6.826   6.999   4.434 -0.7419  0.0616  0.4744
 6495SOL    HW220385   6.825   6.985   4.596 -0.3305 -0.7971  0.4100
 6496SOL     OW20386   5.639   0.446   3.396  0.1945  0.1971  0.1927
 6496SOL    HW120387   5.566   0.485   3.339 -0.5992  0.1142  1.1370
 6496SOL    HW220388   5.622   0.348   3.408 -1.4606  0.7382  3.1647
 6497SOL     OW20389   6.041   1.305   6.840  0.0201  0.2584 -0.2745
 6497SOL    HW120390   5.966   1.321   6.904 -0.2169  0.8108 -0.6870
 6497SOL    HW220391   6.128   1.330   6.884  0.0296 -0.8091  0.3628
 6498SOL     OW20392   0.845   6.550   4.385  0.8728 -0.2141 -0.3025
 6498SOL    HW120393   0.917   6.549   4.315  0.1067 -1.3022 -1.1076
 6498SOL    HW220394   0.848   6.467   4.439  0.6149  0.0194  0.0795
 6499SOL     OW20395   6.153   5.335   2.998  0.2029 -0.3060  0.4320
 6499SOL    HW120396   6.054   5.330   2.999  0.1186  0.9653  0.3429
 6499SOL    HW220397   6.185   5.348   2.904  0.3166  1.1087  0.6411
 6500SOL     OW20398   1.348   5.231   4.763  0.5844 -0.3820  0.2917
 6500SOL    HW120399   1.342   5.294   4.841  4.2360  1.5202 -0.7271
 6500SOL    HW220400   1.421   5.166   4.779  1.0563 -0.2846 -1.2997
 6501SOL     OW20401   6.843   1.334   1.449 -0.8351 -0.1092 -0.4558
 6501SOL    HW120402   6.924   1.321   1.506 -2.2529 -1.4065  1.3652
 6501SOL    HW220403   6.855   1.285   1.362  0.3635 -0.1699 -0.2704
 6502SOL     OW20404   6.844   3.226   1.495 -0.1193 -0.0917 -0.1138
 6502SOL    HW120405   6.881   3.138   1.464  0.3523  0.9809 -2.9164
 6502SOL    HW220406   6.872   3.298   1.431  2.9144  2.9435  4.0307
 6503SOL     OW20407   5.791   2.327   4.651 -0.1380  0.0717 -0.0517
 6503SOL    HW120408   5.758   2.394   4.717 -1.9686 -0.8635  0.0503
 6503SOL    HW220409   5.843   2.374   4.579 -1.4210  1.6153 -0.0267
 6504SOL     OW20410   4.515   0.343   6.057  0.1003 -0.2799 -0.1497
 6504SOL    HW120411   4.540   0.263   6.003 -1.4724 -0.3393 -0.8310
 6504SOL    HW220412   4.584   0.414   6.044  0.7842 -1.0064 -0.6334
 6505SOL     OW20413   6.407   4.890   2.017 -0.0664  0.1913 -0.0941
 6505SOL    HW120414   6.450   4.818   1.962  1.6925  1.0661  0.0670
 6505SOL    HW220415   6.317   4.911   1.979  0.4251 -0.3710 -1.6411
 6506SOL     OW20416   6.757   4.723   2.031  0.3068  0.2237  0.0792
 6506SOL    HW120417   6.825   4.650   2.040 -0.2427 -0.1797  1.1018
 6506SOL    HW220418   6.690   4.697   1.963 -0.0916 -0.4078  0.6983
 6507SOL     OW20419   4.728   5.046   5.703  0.1378 -0.1862 -0.2931
 6507SOL    HW120420   4.745   5.142   5.679  0.4983 -0.4561 -1.1631
 6507SOL    HW220421   4.670   5.004   5.634 -0.8629 -0.3345  0.6157
 6508SOL     OW20422   6.154   6.816   2.884 -0.5140  0.1882  0.3712
 6508SOL    HW120423   6.235   6.874   2.899  0.8784 -1.5190 -0.1586
 6508SOL    HW220424   6.143   6.755   2.962  0.1751 -1.2143 -0.5850
 6509SOL     OW20425   4.042   1.593   6.095  0.3189 -0.1177 -0.3176
 6509SOL    HW120426   4.129   1.635   6.069  0.0647  0.1259 -0.7727
 6509SOL    HW220427   3.990   1.657   6.152  0.5392 -0.3536  0.1502
 6510SOL     OW20428   5.411   5.232   5.845 -0.2642 -0.3515  0.4096
 6510SOL    HW120429   5.468   5.268   5.919  0.8886  1.2778 -1.1749
 6510SOL    HW220430   5.342   5.300   5.820 -1.6635 -1.5124  0.9720
 6511SOL     OW20431   4.408   1.316   6.693  0.0926  0.1092  0.2060
 6511SOL    HW120432   4.310   1.307   6.674  0.1489 -1.6948  0.6106
 6511SOL    HW220433   4.425   1.297   6.789  0.8093  0.8410  0.2350
 6512SOL     OW20434   6.089   1.030   0.794  0.3450  0.0190 -0.4047
 6512SOL    HW120435   6.107   0.934   0.817  0.0831  0.2760  0.9879
 6512SOL    HW220436   6.001   1.037   0.748 -0.8611 -0.1920  1.7204
 6513SOL     OW20437   4.415   5.032   6.087 -0.2572  0.0399 -0.3589
 6513SOL    HW120438   4.430   5.023   6.185 -1.2404 -0.1339 -0.2143
 6513SOL    HW220439   4.493   5.078   6.045 -0.9356  2.5438  0.9349
 6514SOL     OW20440   4.528   0.316   3.490 -0.2748 -0.5927 -0.2974
 6514SOL    HW120441   4.605   0.378   3.505 -1.2998  0.8314 -0.6551
 6514SOL    HW220442   4.507   0.312   3.392 -0.3365 -1.3795 -0.2578
 6515SOL     OW20443   2.706   5.192   1.503 -0.4037  0.0844  0.7565
 6515SOL    HW120444   2.661   5.147   1.425 -1.7009  0.6968  1.1143
 6515SOL    HW220445   2.743   5.280   1.473  2.7338 -1.3777 -0.1104
 6516SOL     OW20446   2.545   3.707   6.264 -0.3243  0.0071  0.3011
 6516SOL    HW120447   2.504   3.637   6.205 -0.0795 -0.5895  0.8177
 6516SOL    HW220448   2.474   3.745   6.324 -0.2149 -0.7723  0.9502
 6517SOL     OW20449   6.832   1.720   0.190 -0.1396 -0.2124  0.8411
 6517SOL    HW120450   6.743   1.765   0.185  0.2258  0.3439 -1.9244
 6517SOL    HW220451   6.837   1.647   0.123  1.2622 -0.6972  1.4404
 6518SOL     OW20452   3.001   1.357   2.065  0.4439  0.2394  0.0537
 6518SOL    HW120453   2.965   1.276   2.019  1.2457 -0.2442  0.2524
 6518SOL    HW220454   2.927   1.404   2.113 -0.1418 -0.0310 -0.5648
 6519SOL     OW20455   6.890   0.760   5.612  0.1062  0.0269 -0.0343
 6519SOL    HW120456   6.797   0.735   5.637 -0.4087  0.4724 -1.4033
 6519SOL    HW220457   6.893   0.858   5.589  1.4734  0.6627  2.4747
 6520SOL     OW20458   5.848   3.556   6.069 -0.2647  0.4051 -0.4702
 6520SOL    HW120459   5.807   3.620   6.004  0.1601  2.4822  1.1807
 6520SOL    HW220460   5.947   3.552   6.054 -0.2828  0.1756 -0.5305
 6521SOL     OW20461   0.763   3.327   4.812  0.7188  0.1457  0.1462
 6521SOL    HW120462   0.833   3.396   4.791 -0.2938  0.8188 -1.1552
 6521SOL    HW220463   0.725   3.345   4.903  1.0014  0.8435  0.1358
 6522SOL     OW20464   1.865   4.130   5.640  0.1879  0.2356 -0.3713
 6522SOL    HW120465   1.915   4.204   5.596 -0.2359  0.5376 -0.3574
 6522SOL    HW220466   1.870   4.048   5.583  2.0538 -0.2378  0.4025
 6523SOL     OW20467   6.060   0.225   6.168 -0.6859  0.2114  0.5628
 6523SOL    HW120468   6.071   0.204   6.265 -1.9017  0.8306  0.8552
 6523SOL    HW220469   5.979   0.283   6.155  0.7505  2.0805 -0.5652
 6524SOL     OW20470   0.983   2.051   1.984  0.9154  0.0298  0.6169
 6524SOL    HW120471   0.888   2.081   1.974  0.8449 -0.0618  1.0065
 6524SOL    HW220472   0.985   1.957   2.018  1.1389 -0.2650 -0.1788
 6525SOL     OW20473   1.170   6.318   3.285 -0.5078  0.1704  0.1109
 6525SOL    HW120474   1.246   6.331   3.349 -0.9590 -1.6060  1.0695
 6525SOL    HW220475   1.099   6.264   3.329 -1.0357 -0.7193 -1.7592
 6526SOL     OW20476   0.754   5.926   1.636 -0.2599 -0.1661  0.0338
 6526SOL    HW120477   0.826   5.905   1.703 -0.1720 -0.8032 -0.2558
 6526SOL    HW220478   0.753   5.855   1.566 -0.0061  0.7586 -0.9297
 6527SOL     OW20479   0.601   4.397   0.166 -0.0435 -0.0394  0.0708
 6527SOL    HW120480   0.669   4.328   0.189  1.3574  0.9407 -0.9482
 6527SOL    HW220481   0.591   4.461   0.242 -1.0051 -1.0585  0.8335
 6528SOL     OW20482   5.091   1.542   5.601 -0.2249  0.3386  0.0355
 6528SOL    HW120483   5.118   1.486   5.523 -1.3257 -1.6675  1.0384
 6528SOL    HW220484   5.166   1.604   5.625  1.5424 -1.5856 -0.3276
 6529SOL     OW20485   1.789   2.060   3.589 -0.2154  0.6819  0.5314
 6529SOL    HW120486   1.714   2.015   3.541 -1.1161  1.3884  1.2467
 6529SOL    HW220487   1.865   1.996   3.600 -0.8377 -0.1431  0.0878
 6530SOL     OW20488   1.016   1.799   2.088  0.3504  0.3408 -0.5061
 6530SOL    HW120489   0.963   1.766   2.166  2.3413  1.1883  1.2933
 6530SOL    HW220490   1.027   1.725   2.022 -1.9748 -0.1939 -0.3812
 6531SOL     OW20491   5.416   1.932   6.064 -0.7237  0.4638 -0.4589
 6531SOL    HW120492   5.405   2.013   6.121 -0.2434 -0.1256  0.5009
 6531SOL    HW220493   5.334   1.874   6.073 -0.1658 -0.1965  0.5916
 6532SOL     OW20494   1.322   1.674   1.815 -0.1903 -0.2298  0.3342
 6532SOL    HW120495   1.409   1.651   1.771  0.1139 -1.0870  1.3476
 6532SOL    HW220496   1.280   1.751   1.767  0.5159 -0.6129 -0.9390
 6533SOL     OW20497   3.440   4.097   5.725 -0.6839  0.5105 -0.3067
 6533SOL    HW120498   3.345   4.112   5.696 -0.6143 -0.4188 -1.0881
 6533SOL    HW220499   3.489   4.048   5.653 -0.4839 -1.9519  1.4123
 6534SOL     OW20500   4.875   4.573   1.843 -0.4712  0.0621  0.3685
 6534SOL    HW120501   4.900   4.656   1.893  0.3161  1.0812 -1.6178
 6534SOL    HW220502   4.922   4.495   1.883 -0.1557  0.7790  1.4409
 6535SOL     OW20503   5.561   3.672   4.495  0.6240 -0.6033  0.3045
 6535SOL    HW120504   5.516   3.755   4.527  0.6967 -0.2408 -0.5111
 6535SOL    HW220505   5.510   3.634   4.417  1.2155 -0.6938 -0.0452
 6536SOL     OW20506   6.525   2.752   5.376  0.0986 -0.0743 -0.6289
 6536SOL    HW120507   6.620   2.722   5.370  0.3416  0.4651  0.3000
 6536SOL    HW220508   6.511   2.804   5.461 -0.5962  1.3490 -1.5736
 6537SOL     OW20509   6.474   5.626   4.418 -0.0058  0.3484 -0.1418
 6537SOL    HW120510   6.550   5.609   4.481 -0.4159 -1.4070 -0.0525
 6537SOL    HW220511   6.397   5.565   4.441 -0.8919  1.0501 -1.1268
 6538SOL     OW20512   2.362   3.832   5.912 -0.2836  0.1870 -0.0396
 6538SOL    HW120513   2.339   3.817   5.816  0.2504 -2.3122  0.1526
 6538SOL    HW220514   2.449   3.880   5.918 -0.5423  0.7625 -0.7974
 6539SOL     OW20515   6.918   0.495   5.405 -0.1481 -0.2269  0.5024
 6539SOL    HW120516   6.994   0.431   5.391 -1.1293 -1.0048 -1.8824
 6539SOL    HW220517   6.885   0.526   5.316 -1.7075  1.2389  1.5380
 6540SOL     OW20518   3.197   3.069   5.135  0.4112  0.0632  0.4501
 6540SOL    HW120519   3.110   3.116   5.148  0.7249  0.4061  1.3905
 6540SOL    HW220520   3.195   2.982   5.184  1.1611  0.7977  1.8244
 6541SOL     OW20521   5.784   2.297   5.331  0.2714 -0.0941 -1.0476
 6541SOL    HW120522   5.828   2.310   5.420 -1.2988 -0.3823 -0.1992
 6541SOL    HW220523   5.839   2.234   5.276  0.5226 -1.1021  0.2938
 6542SOL     OW20524   2.731   1.407   3.359 -0.3206 -0.0162  0.2428
 6542SOL    HW120525   2.792   1.482   3.384  1.7955 -1.4460 -0.3259
 6542SOL    HW220526   2.697   1.362   3.442  0.6789 -0.1591  0.5818
 6543SOL     OW20527   2.018   1.018   4.850 -0.1862 -0.1278  0.1187
 6543SOL    HW120528   2.027   1.112   4.883  0.3228  0.1436 -0.7710
 6543SOL    HW220529   2.109   0.982   4.828 -0.3040 -1.0865  1.1273
 6544SOL     OW20530   0.885   0.403   2.045  0.0114  0.5655  0.2739
 6544SOL    HW120531   0.842   0.472   2.102  1.3967  1.5263  0.2240
 6544SOL    HW220532   0.871   0.425   1.948 -1.1358 -0.2836  0.2269
 6545SOL     OW20533   4.411   0.543   1.375  0.3728  0.9645  0.2027
 6545SOL    HW120534   4.404   0.481   1.297  1.0257  1.1112  0.0232
 6545SOL    HW220535   4.376   0.498   1.457  0.0710  0.6616 -0.0874
 6546SOL     OW20536   5.605   2.637   1.509 -0.2812  0.1100 -0.1987
 6546SOL    HW120537   5.683   2.699   1.517  0.1219 -0.2780 -1.0376
 6546SOL    HW220538   5.590   2.590   1.597 -2.1367  3.1542  1.2940
 6547SOL     OW20539   3.703   6.208   0.637  0.6378  0.3625  0.4406
 6547SOL    HW120540   3.772   6.176   0.572 -0.0825  0.0326 -0.1669
 6547SOL    HW220541   3.678   6.302   0.616 -0.7145 -0.2288 -0.7423
 6548SOL     OW20542   1.351   1.903   5.361  0.2586 -0.1410  0.8012
 6548SOL    HW120543   1.274   1.854   5.400 -0.1531 -0.5939 -0.5175
 6548SOL    HW220544   1.413   1.932   5.434 -0.4424 -0.9907  1.7598
 6549SOL     OW20545   5.251   0.282   4.078 -0.3908  0.4059  0.3654
 6549SOL    HW120546   5.315   0.334   4.021 -1.3237  0.6754 -0.4590
 6549SOL    HW220547   5.258   0.185   4.056 -1.5285  0.6139 -1.0421
 6550SOL     OW20548   0.833   6.352   3.993 -0.1181 -0.2475  0.0431
 6550SOL    HW120549   0.755   6.317   3.939  1.1447 -1.9250 -0.8129
 6550SOL    HW220550   0.840   6.451   3.981 -0.9995 -0.3212 -1.4008
 6551SOL     OW20551   4.325   3.392   1.080 -0.1292 -0.4497  0.4066
 6551SOL    HW120552   4.349   3.370   0.986  0.9312 -1.3424  0.8593
 6551SOL    HW220553   4.244   3.451   1.081  0.7837  0.9113 -1.1052
 6552SOL     OW20554   2.138   0.908   5.542  0.3413  0.1589 -0.1059
 6552SOL    HW120555   2.211   0.961   5.499  0.6781 -0.4004 -0.2395
 6552SOL    HW220556   2.107   0.836   5.479 -0.3118  0.3799 -0.0413
 6553SOL     OW20557   7.005   1.188   3.068  0.4035  0.0186  0.1051
 6553SOL    HW120558   7.043   1.240   3.145  1.5126 -1.5267  0.6599
 6553SOL    HW220559   7.066   1.111   3.047 -0.4698 -0.2423 -1.5904
 6554SOL     OW20560   2.300   1.547   3.559  0.3940 -0.3117  0.2846
 6554SOL    HW120561   2.333   1.453   3.557  4.0995  0.8571 -1.6231
 6554SOL    HW220562   2.249   1.567   3.476  1.7517 -0.0437 -0.5205
 6555SOL     OW20563   6.522   1.938   3.701  0.4650 -0.0356  0.3887
 6555SOL    HW120564   6.459   2.011   3.731  0.1048 -0.0134 -0.3971
 6555SOL    HW220565   6.612   1.978   3.681  1.1286 -0.2407  2.6728
 6556SOL     OW20566   4.913   3.589   2.941 -0.2215 -0.0537 -0.1158
 6556SOL    HW120567   4.829   3.566   2.990 -1.1483  0.0868 -1.5791
 6556SOL    HW220568   4.982   3.518   2.958 -0.9819 -0.7121  0.3096
 6557SOL     OW20569   3.273   6.612   1.899  0.6148 -0.1534  0.2525
 6557SOL    HW120570   3.213   6.607   1.819  0.8287  0.0561  0.0812
 6557SOL    HW220571   3.368   6.623   1.870  0.5403  1.4906  0.5546
 6558SOL     OW20572   0.906   5.992   0.710 -0.1832 -0.0749 -0.5767
 6558SOL    HW120573   0.918   5.973   0.612  0.9844 -0.9367 -0.2890
 6558SOL    HW220574   0.888   5.906   0.758 -3.6139  0.6470 -0.3657
 6559SOL     OW20575   6.387   3.605   6.097 -0.2927 -0.2053  0.1861
 6559SOL    HW120576   6.373   3.679   6.163 -0.5928  0.1693 -0.2944
 6559SOL    HW220577   6.301   3.556   6.083  0.3794 -2.1928  2.2975
 6560SOL     OW20578   5.072   4.978   1.471  0.1239 -0.0333  0.0292
 6560SOL    HW120579   5.052   4.887   1.507  0.2616 -0.9999 -2.1554
 6560SOL    HW220580   5.165   5.004   1.497  0.2030 -0.6758  0.4048
 6561SOL     OW20581   2.157   6.988   5.458 -0.6076  0.0212  0.4282
 6561SOL    HW120582   2.063   7.005   5.430 -0.2528  0.6655 -0.4125
 6561SOL    HW220583   2.163   6.985   5.558 -1.6040 -0.5733  0.4755
 6562SOL     OW20584   5.024   3.875   3.254 -0.2239  0.2927  0.3779
 6562SOL    HW120585   5.048   3.794   3.200  0.1083 -0.2414  1.3179
 6562SOL    HW220586   5.059   3.866   3.347  0.5057  1.8599  0.2928
 6563SOL     OW20587   4.724   6.660   3.527  0.5062 -0.1526  0.3124
 6563SOL    HW120588   4.816   6.636   3.497  1.4716  0.1222  2.8562
 6563SOL    HW220589   4.686   6.586   3.583 -0.5460  0.0398 -0.1225
 6564SOL     OW20590   5.923   2.697   2.496 -0.5047 -0.5165 -0.1994
 6564SOL    HW120591   6.014   2.681   2.533 -0.4520  3.3062  1.7994
 6564SOL    HW220592   5.931   2.727   2.400  1.0174  3.7001  0.9919
 6565SOL     OW20593   4.577   1.239   2.768  0.3726  0.7856  1.1221
 6565SOL    HW120594   4.484   1.220   2.799 -0.3389 -1.6851 -2.0808
 6565SOL    HW220595   4.578   1.326   2.719 -0.5757  0.2611  0.1276
 6566SOL     OW20596   2.576   5.498   1.846 -0.1375 -0.0537 -0.0837
 6566SOL    HW120597   2.549   5.424   1.784  1.2447 -0.5808 -0.1025
 6566SOL    HW220598   2.671   5.524   1.827  0.4555 -0.4761  2.0228
 6567SOL     OW20599   6.651   6.009   6.626  0.1812  0.2269  0.2584
 6567SOL    HW120600   6.710   6.076   6.581 -0.2480  0.8474  0.5929
 6567SOL    HW220601   6.668   6.011   6.724 -0.5733  0.6106  0.3918
 6568SOL     OW20602   3.231   2.177   4.218 -0.0819 -0.9382  0.0607
 6568SOL    HW120603   3.327   2.184   4.245 -0.3723 -0.2893  1.0113
 6568SOL    HW220604   3.213   2.086   4.181  1.0263 -0.8771 -0.6937
 6569SOL     OW20605   0.258   5.080   4.635  0.0855  0.0148 -0.4388
 6569SOL    HW120606   0.292   5.169   4.664  3.6563 -1.9683  2.2720
 6569SOL    HW220607   0.214   5.034   4.712 -1.1644 -0.8632 -1.6163
 6570SOL     OW20608   3.659   6.468   1.287  0.4324  0.2173 -0.1092
 6570SOL    HW120609   3.594   6.432   1.220 -0.8274  1.3807  0.4437
 6570SOL    HW220610   3.725   6.396   1.312 -1.1192 -1.2588 -0.0896
 6571SOL     OW20611   2.925   6.372   1.499  0.0224  0.2042 -0.2797
 6571SOL    HW120612   2.826   6.382   1.496  0.1394  1.4336 -0.6563
 6571SOL    HW220613   2.952   6.325   1.583 -0.9086 -0.7805 -0.5018
 6572SOL     OW20614   0.830   4.909   2.719 -0.9572  0.0170 -0.6581
 6572SOL    HW120615   0.817   4.918   2.818 -0.8195 -1.2422 -0.4995
 6572SOL    HW220616   0.894   4.834   2.701  0.3693  1.3414 -1.6617
 6573SOL     OW20617   2.809   0.787   1.957 -0.3327  0.0368 -0.5814
 6573SOL    HW120618   2.745   0.862   1.940 -2.2429 -1.4512 -0.1862
 6573SOL    HW220619   2.879   0.818   2.022 -1.7838  1.1527  0.5313
 6574SOL     OW20620   2.918   1.114   3.361 -0.3736  0.2304  0.0495
 6574SOL    HW120621   3.002   1.157   3.326  0.2978 -0.5732  0.6229
 6574SOL    HW220622   2.898   1.149   3.452 -0.9681  0.8036 -0.2910
 6575SOL     OW20623   6.121   0.544   3.246 -0.2683  0.2681  0.2015
 6575SOL    HW120624   6.195   0.589   3.296  0.5004 -0.5373 -0.1853
 6575SOL    HW220625   6.080   0.473   3.303 -0.6705  0.6381  0.3748
 6576SOL     OW20626   5.023   5.047   5.445  0.5288 -0.0249  0.2137
 6576SOL    HW120627   4.989   5.106   5.518 -0.2851 -0.4483  0.1839
 6576SOL    HW220628   4.950   4.985   5.415  0.7904  0.2706 -1.0852
 6577SOL     OW20629   1.833   3.609   4.297  0.0864 -0.2618 -0.0197
 6577SOL    HW120630   1.800   3.680   4.360  0.2414 -1.1355  1.0704
 6577SOL    HW220631   1.921   3.574   4.329  0.0475 -0.8949 -0.5893
 6578SOL     OW20632   0.843   4.945   0.070 -0.1291 -0.0845 -0.0650
 6578SOL    HW120633   0.880   5.025   0.117 -0.4865  0.9900 -1.5452
 6578SOL    HW220634   0.853   4.957  -0.029 -1.4496 -1.2494 -0.3714
 6579SOL     OW20635   1.606   0.195   5.858 -0.4200 -0.1320  0.1552
 6579SOL    HW120636   1.651   0.255   5.791 -0.7285  0.3393  0.3596
 6579SOL    HW220637   1.563   0.119   5.811  0.0362 -0.2346 -0.1060
 6580SOL     OW20638   1.647   0.545   0.250  0.2032 -0.6213  0.0394
 6580SOL    HW120639   1.579   0.576   0.316 -0.4249  0.4998 -1.0818
 6580SOL    HW220640   1.715   0.617   0.236 -0.5145 -0.2024 -1.6058
 6581SOL     OW20641   0.851   1.867   0.475 -0.4708 -0.1369 -0.0738
 6581SOL    HW120642   0.895   1.830   0.557 -1.6852  0.4964  0.8860
 6581SOL    HW220643   0.863   1.967   0.473 -1.0696 -0.0683 -0.2877
 6582SOL     OW20644   6.190   6.661   2.146  0.0977 -0.9140  0.4587
 6582SOL    HW120645   6.267   6.695   2.199 -1.0490  0.1806  1.4737
 6582SOL    HW220646   6.173   6.722   2.069 -2.0529  1.0748  2.3637
 6583SOL     OW20647   4.686   6.689   0.185  0.5369  0.1383 -0.8985
 6583SOL    HW120648   4.724   6.655   0.271 -0.5280  1.3521  0.1177
 6583SOL    HW220649   4.692   6.619   0.114  1.9167 -0.7036  0.0243
 6584SOL     OW20650   5.162   3.798   0.996  0.5146  0.0166  0.4663
 6584SOL    HW120651   5.164   3.700   1.016  0.1678 -0.1967 -0.5084
 6584SOL    HW220652   5.253   3.826   0.963  0.5234 -0.0487  0.4335
 6585SOL     OW20653   4.901   4.471   6.618  0.2519 -0.0155 -0.1858
 6585SOL    HW120654   4.943   4.459   6.528 -2.2686  0.5849 -1.5267
 6585SOL    HW220655   4.839   4.394   6.636 -0.6581  0.7914  0.1960
 6586SOL     OW20656   5.088   2.282   6.021  0.1537 -0.2318 -0.1390
 6586SOL    HW120657   5.100   2.240   5.931  0.9398  0.3494 -0.3118
 6586SOL    HW220658   5.072   2.380   6.010 -2.3037 -0.5298  0.2195
 6587SOL     OW20659   1.919   3.451   6.248 -0.4500  0.3219 -0.2159
 6587SOL    HW120660   1.899   3.355   6.267 -1.0178  0.3828 -0.4794
 6587SOL    HW220661   1.909   3.504   6.332  3.9295 -0.4181  1.0262
 6588SOL     OW20662   1.129   2.778   6.474 -0.2549 -0.4038 -0.4335
 6588SOL    HW120663   1.143   2.849   6.406  0.5433  0.3044  0.4396
 6588SOL    HW220664   1.216   2.730   6.490 -0.4677 -0.6531 -0.0151
 6589SOL     OW20665   5.519   0.085   2.060 -0.5153  0.1054 -0.2196
 6589SOL    HW120666   5.456   0.129   2.123  0.6172  1.2504  0.1598
 6589SOL    HW220667   5.542  -0.006   2.094 -1.6106 -0.1562 -0.1443
 6590SOL     OW20668   1.210   0.350   5.535 -0.2540  0.0331 -0.2707
 6590SOL    HW120669   1.172   0.343   5.443 -0.8588 -0.0949 -0.0140
 6590SOL    HW220670   1.310   0.359   5.529 -0.1072 -1.6903 -0.8739
 6591SOL     OW20671   4.912   5.159   3.668 -0.5824 -0.2595  0.4264
 6591SOL    HW120672   4.885   5.147   3.573 -2.9551  0.2278  0.9483
 6591SOL    HW220673   4.962   5.245   3.678  0.5826 -0.8064 -0.5031
 6592SOL     OW20674   4.733   6.413   3.114 -0.1442 -0.8300 -0.0162
 6592SOL    HW120675   4.684   6.402   3.027 -1.7179 -2.6551  1.0289
 6592SOL    HW220676   4.829   6.392   3.100 -0.1873 -0.2034 -1.4905
 6593SOL     OW20677   2.256   6.902   2.504 -0.5086  0.7896  0.5157
 6593SOL    HW120678   2.298   6.835   2.442 -0.3885  0.9111  0.4658
 6593SOL    HW220679   2.291   6.993   2.483  0.0464  0.7429  1.2195
 6594SOL     OW20680   3.128   2.769   0.122  0.3410  0.8361  0.2172
 6594SOL    HW120681   3.120   2.747   0.024  1.6823 -0.5330  0.3865
 6594SOL    HW220682   3.036   2.780   0.160 -0.2526  0.0742 -0.9142
 6595SOL     OW20683   2.324   2.733   6.700  0.4505 -0.4829  0.2374
 6595SOL    HW120684   2.234   2.763   6.734 -0.0289 -2.7644  1.1290
 6595SOL    HW220685   2.319   2.637   6.672  3.0058 -1.1688  1.8533
 6596SOL     OW20686   4.272   6.753   3.306 -0.6179 -0.6073 -0.4489
 6596SOL    HW120687   4.309   6.686   3.370  1.4245  0.2597 -0.6128
 6596SOL    HW220688   4.331   6.834   3.306 -3.7036  1.8435  0.7824
 6597SOL     OW20689   1.631   6.789   0.043  0.0522 -0.2107 -0.2116
 6597SOL    HW120690   1.560   6.721   0.026 -0.0127  0.1060 -1.3009
 6597SOL    HW220691   1.607   6.875  -0.003  1.1703 -0.1242 -0.6779
 6598SOL     OW20692   1.360   5.781   4.985 -0.2883 -0.3989  0.5921
 6598SOL    HW120693   1.272   5.777   4.936  0.0478 -0.4500 -0.0153
 6598SOL    HW220694   1.394   5.875   4.982  0.3716 -0.6516 -0.4328
 6599SOL     OW20695   6.707   5.506   1.450 -0.4339  0.2899  0.2526
 6599SOL    HW120696   6.661   5.482   1.364 -0.8045 -1.3603  0.8736
 6599SOL    HW220697   6.796   5.460   1.454 -1.1510 -1.0971  1.4578
 6600SOL     OW20698   6.158   6.532   5.900  0.4507  0.3258 -0.0850
 6600SOL    HW120699   6.163   6.553   5.803 -2.7601 -0.9585 -0.6375
 6600SOL    HW220700   6.157   6.617   5.953  0.5046  1.0920 -1.2884
 6601SOL     OW20701   0.228   2.085   2.039  0.6478  0.0208  0.0579
 6601SOL    HW120702   0.168   2.077   1.960  1.1288 -0.3760 -0.2690
 6601SOL    HW220703   0.256   1.994   2.070  1.4127  0.2075 -0.0548
 6602SOL     OW20704   2.813   2.169   1.193  0.5793 -0.6066  0.1912
 6602SOL    HW120705   2.786   2.256   1.233 -1.0398 -1.5005  1.1509
 6602SOL    HW220706   2.886   2.128   1.249  2.1055  0.5666 -0.8616
 6603SOL     OW20707   2.246   2.981   4.159  0.3639 -0.9356 -0.1604
 6603SOL    HW120708   2.250   3.016   4.253  1.8348 -3.1846  0.6859
 6603SOL    HW220709   2.237   3.058   4.096 -0.5944  0.6534  1.7853
 6604SOL     OW20710   1.827   6.713   2.611 -0.4606 -0.4159  0.3309
 6604SOL    HW120711   1.872   6.795   2.647 -1.3693  0.0247  0.5119
 6604SOL    HW220712   1.893   6.658   2.560  0.1824  0.4040  0.2540
 6605SOL     OW20713   6.347   0.939   3.422 -0.1256 -0.1734  0.4871
 6605SOL    HW120714   6.264   0.905   3.378 -0.0558 -0.2042  0.3822
 6605SOL    HW220715   6.353   0.901   3.514  1.0679 -2.1558 -0.3609
 6606SOL     OW20716   1.937   3.331   4.221  0.6630  0.4533 -0.1866
 6606SOL    HW120717   1.896   3.249   4.259  2.2106  0.4423  1.5953
 6606SOL    HW220718   1.865   3.392   4.187 -0.4846 -1.9774 -2.4792
 6607SOL     OW20719   5.294   4.898   3.396  0.3313  0.0976 -0.1997
 6607SOL    HW120720   5.235   4.896   3.315 -0.3090 -0.1193  0.2677
 6607SOL    HW220721   5.238   4.899   3.479  0.9836 -0.0667  0.2543
 6608SOL     OW20722   0.309   1.907   3.719 -0.2439 -0.3467 -0.2699
 6608SOL    HW120723   0.376   1.912   3.645  0.8340  0.0712  0.6945
 6608SOL    HW220724   0.290   1.811   3.740 -0.6616 -0.4692 -1.1617
 6609SOL     OW20725   5.035   0.552   0.850 -0.2522 -0.0707 -0.3069
 6609SOL    HW120726   5.100   0.571   0.924 -0.8162 -0.3732  0.2814
 6609SOL    HW220727   5.054   0.612   0.773  0.9923 -0.4381 -0.3129
 6610SOL     OW20728   3.848   6.970   0.741  0.3419  0.0917 -0.1136
 6610SOL    HW120729   3.861   6.876   0.775  0.2896  0.3414  0.6161
 6610SOL    HW220730   3.799   6.967   0.654  1.3528 -0.6178 -0.6744
 6611SOL     OW20731   4.474   0.081   2.009 -0.3875  0.5228  0.3827
 6611SOL    HW120732   4.381   0.116   2.001 -0.4945  0.0597 -0.5587
 6611SOL    HW220733   4.497   0.068   2.105 -1.2309  0.8133  0.6286
 6612SOL     OW20734   3.639   2.040   4.891  0.6304  0.5544 -0.5000
 6612SOL    HW120735   3.589   2.102   4.950  0.1684  0.7061 -1.0415
 6612SOL    HW220736   3.737   2.046   4.911  0.4850  0.6243  0.2185
 6613SOL     OW20737   5.916   1.054   6.148  0.1191  0.2417  0.0250
 6613SOL    HW120738   5.869   1.129   6.101  0.1578 -0.2770 -0.8545
 6613SOL    HW220739   5.848   0.988   6.181  0.1787 -0.2779 -0.8506
 6614SOL     OW20740   4.299   4.826   2.659  0.4145  0.1218  0.0551
 6614SOL    HW120741   4.220   4.882   2.633  2.3617  2.2645 -1.5766
 6614SOL    HW220742   4.349   4.799   2.577  0.8772 -2.0642  0.9958
 6615SOL     OW20743   4.345   5.507   1.695 -0.7764  0.0323 -0.5315
 6615SOL    HW120744   4.284   5.507   1.616  1.6587 -1.2829 -2.5666
 6615SOL    HW220745   4.359   5.412   1.725  0.2656  0.3147 -0.1085
 6616SOL     OW20746   2.993   0.830   5.612 -0.2673  0.1581 -0.0002
 6616SOL    HW120747   3.076   0.839   5.666 -0.0154  0.2590 -0.3947
 6616SOL    HW220748   3.006   0.875   5.523 -0.3043 -0.8981 -0.5624
 6617SOL     OW20749   3.455   6.366   2.149  0.1379  0.4167 -0.4658
 6617SOL    HW120750   3.459   6.366   2.249  0.3757  0.5461 -0.4735
 6617SOL    HW220751   3.526   6.427   2.113  0.8399 -0.5313 -0.7395
 6618SOL     OW20752   0.549   1.271   3.369  0.3403  0.1655  0.9097
 6618SOL    HW120753   0.472   1.274   3.432  0.4995  0.6275  1.0916
 6618SOL    HW220754   0.546   1.351   3.309 -0.3478 -0.7570 -0.3272
 6619SOL     OW20755   4.565   0.095   3.675  0.2165  0.2793 -0.0092
 6619SOL    HW120756   4.479   0.135   3.705  1.5573  2.1016  1.6433
 6619SOL    HW220757   4.608   0.156   3.608 -0.8141 -1.7911 -2.7547
 6620SOL     OW20758   1.723   2.958   3.668  0.1841 -0.1044 -0.0714
 6620SOL    HW120759   1.797   2.892   3.680  0.4162  0.0954 -0.4158
 6620SOL    HW220760   1.721   2.991   3.574  0.4700  0.8519  0.2399
 6621SOL     OW20761   3.209   3.662   4.820  0.1539  0.1611  0.2380
 6621SOL    HW120762   3.117   3.696   4.838  0.1553  0.1738  0.2216
 6621SOL    HW220763   3.205   3.568   4.787  0.0266  0.6940 -1.3639
 6622SOL     OW20764   5.365   6.285   1.586  0.4743  0.4866  0.6921
 6622SOL    HW120765   5.445   6.264   1.641 -0.0842 -0.1774  1.2874
 6622SOL    HW220766   5.318   6.199   1.562 -0.8975  0.9325  1.6612
 6623SOL     OW20767   3.069   4.261   5.225 -0.2807  0.4222 -0.0983
 6623SOL    HW120768   3.083   4.199   5.148  0.5447  0.5349 -0.0503
 6623SOL    HW220769   3.037   4.350   5.191 -1.1864  0.0785 -0.1886
 6624SOL     OW20770   5.836   2.444   5.631  0.0959  0.2673  0.2593
 6624SOL    HW120771   5.904   2.491   5.575  1.1585 -0.0478  1.2615
 6624SOL    HW220772   5.875   2.359   5.667 -0.5747  0.4557  1.4701
 6625SOL     OW20773   5.139   3.648   6.145 -0.5197 -0.0622  0.2801
 6625SOL    HW120774   5.218   3.672   6.201 -0.1640  0.0086 -0.2361
 6625SOL    HW220775   5.076   3.725   6.141  0.7421  0.9725 -1.5895
 6626SOL     OW20776   1.898   5.374   4.241 -0.2867  0.1251  0.3441
 6626SOL    HW120777   1.965   5.442   4.209 -2.5527  1.1170 -2.7661
 6626SOL    HW220778   1.847   5.412   4.319  0.8777  0.4548  0.9761
 6627SOL     OW20779   1.251   0.007   3.067  0.3908  0.0146 -0.2914
 6627SOL    HW120780   1.202  -0.080   3.059 -0.5234  0.4988 -0.0370
 6627SOL    HW220781   1.260   0.031   3.164 -0.4597  0.8133 -0.4030
 6628SOL     OW20782   3.565   6.972   2.640 -0.1449 -0.2770 -0.1073
 6628SOL    HW120783   3.473   7.010   2.648 -0.4689 -1.3704  1.7525
 6628SOL    HW220784   3.631   7.036   2.681 -0.0536  0.4560 -1.3435
 6629SOL     OW20785   5.530   5.417   6.318 -0.4622  0.2973  0.2700
 6629SOL    HW120786   5.509   5.335   6.372  1.6520 -0.6743 -0.2677
 6629SOL    HW220787   5.445   5.459   6.287 -1.6390 -0.9261  1.6931
 6630SOL     OW20788   2.627   0.669   2.759 -0.0902  0.1944 -0.1023
 6630SOL    HW120789   2.658   0.599   2.694  0.7023  1.0092 -0.6357
 6630SOL    HW220790   2.568   0.735   2.711  0.5035  0.8047 -0.0174
 6631SOL     OW20791   0.943   0.769   5.360 -0.4492 -0.4402 -0.1075
 6631SOL    HW120792   0.847   0.760   5.387 -1.0344 -0.2355 -2.0043
 6631SOL    HW220793   0.950   0.830   5.281  1.2716 -0.3739  0.0614
 6632SOL     OW20794   1.858   2.695   1.393 -0.2046 -0.1924  0.1066
 6632SOL    HW120795   1.952   2.686   1.359  0.4905 -0.7790  2.0438
 6632SOL    HW220796   1.821   2.783   1.364  0.4318 -0.5008 -1.8136
 6633SOL     OW20797   1.900   5.016   5.294  0.3014  0.5024  0.0958
 6633SOL    HW120798   1.823   5.079   5.286 -0.9152 -0.9365 -0.0386
 6633SOL    HW220799   1.978   5.063   5.335 -0.8249  1.8654  0.7551
 6634SOL     OW20800   4.578   2.971   5.556 -0.0414  0.1653 -0.2701
 6634SOL    HW120801   4.537   3.062   5.561  0.2771  0.3004 -0.1194
 6634SOL    HW220802   4.677   2.980   5.542 -0.1388 -0.1580 -1.2904
 6635SOL     OW20803   3.185   5.140   2.432  0.0271 -0.1032  0.6579
 6635SOL    HW120804   3.209   5.107   2.341 -1.1338  0.5038  0.1136
 6635SOL    HW220805   3.094   5.182   2.430  0.2668  0.5356  1.9501
 6636SOL     OW20806   0.747   6.853   1.421  0.3505 -0.4693 -0.1845
 6636SOL    HW120807   0.838   6.820   1.398  0.7105 -1.9274  2.7237
 6636SOL    HW220808   0.754   6.930   1.484 -0.0949 -3.2291  3.6252
 6637SOL     OW20809   2.691   1.615   1.173 -0.3065 -0.3256  0.1438
 6637SOL    HW120810   2.771   1.665   1.140 -1.5626  0.5841 -1.6826
 6637SOL    HW220811   2.721   1.535   1.225  1.7627  0.6056  0.4867
 6638SOL     OW20812   4.019   3.838   3.389  0.3099  0.6050  0.0356
 6638SOL    HW120813   3.970   3.876   3.310 -0.2906 -2.4723 -1.1925
 6638SOL    HW220814   4.000   3.894   3.470 -1.5565  2.1007 -1.3483
 6639SOL     OW20815   2.440   2.176   0.112 -0.0587 -0.0378  0.0202
 6639SOL    HW120816   2.390   2.152   0.029  0.8782 -1.3707 -0.1960
 6639SOL    HW220817   2.507   2.247   0.092 -0.1882  0.0084 -0.2505
 6640SOL     OW20818   5.595   2.164   6.959  0.5944  0.0529  0.0257
 6640SOL    HW120819   5.663   2.229   6.926  0.9338  0.5217  1.5721
 6640SOL    HW220820   5.612   2.142   7.055  0.5589 -2.4491 -0.4606
 6641SOL     OW20821   4.104   0.941   0.554 -0.3973  0.2336  0.0935
 6641SOL    HW120822   4.100   0.894   0.466  0.1240 -1.1482  0.7718
 6641SOL    HW220823   4.106   0.873   0.628  5.4728  0.9024  1.0246
 6642SOL     OW20824   2.422   6.048   0.054  0.2246  0.3138  0.4640
 6642SOL    HW120825   2.476   6.103   0.118  1.2708  0.4685 -0.5151
 6642SOL    HW220826   2.462   6.055  -0.038 -0.8317 -0.4572 -0.0760
 6643SOL     OW20827   6.550   6.077   1.125 -0.0673 -0.6635  0.4214
 6643SOL    HW120828   6.626   6.138   1.102 -1.0799 -0.0783 -1.6349
 6643SOL    HW220829   6.491   6.122   1.193  0.1164 -0.0708  0.1973
 6644SOL     OW20830   0.767   0.600   2.168 -0.0900  0.5329 -0.5960
 6644SOL    HW120831   0.846   0.659   2.188  0.2653  0.3070 -1.3149
 6644SOL    HW220832   0.697   0.614   2.238  1.6916 -1.3343  1.7280
 6645SOL     OW20833   5.319   3.049   0.431  0.1097  0.1381  0.3622
 6645SOL    HW120834   5.268   3.132   0.406 -3.8685 -2.2374 -0.3378
 6645SOL    HW220835   5.358   3.007   0.349 -1.4464 -0.7264  0.0221
 6646SOL     OW20836   4.317   2.222   1.206 -0.6734  1.1739  0.2950
 6646SOL    HW120837   4.268   2.184   1.283 -0.4859  0.7409  0.2048
 6646SOL    HW220838   4.254   2.273   1.147 -1.2256 -0.2167 -0.3578
 6647SOL     OW20839   5.383   4.959   2.610 -0.4606 -0.9264  0.4732
 6647SOL    HW120840   5.470   5.000   2.585 -0.9614  0.6494  1.1553
 6647SOL    HW220841   5.348   5.003   2.693 -2.8764 -0.0162 -0.9087
 6648SOL     OW20842   3.768   6.002   5.644  0.1241 -0.1032 -0.2120
 6648SOL    HW120843   3.841   5.990   5.711 -1.4261 -0.4241  1.4886
 6648SOL    HW220844   3.790   6.081   5.586  2.3555 -0.8926 -0.5507
 6649SOL     OW20845   5.375   2.959   6.185 -0.0314  0.4127  0.0670
 6649SOL    HW120846   5.432   2.941   6.265 -0.1715 -1.0650 -0.1359
 6649SOL    HW220847   5.331   3.048   6.195  0.4814  0.5525  1.3132
 6650SOL     OW20848   3.629   1.381   3.651  0.7378  0.0620  0.3254
 6650SOL    HW120849   3.547   1.432   3.628  1.1445  0.0381 -1.2962
 6650SOL    HW220850   3.701   1.445   3.679  1.0826  0.3579 -1.1835
 6651SOL     OW20851   0.420   2.241   6.827  0.4367 -0.1354 -0.4674
 6651SOL    HW120852   0.495   2.215   6.767  0.7216 -0.7458  0.1390
 6651SOL    HW220853   0.433   2.336   6.856  1.3387 -0.4285  0.1432
 6652SOL     OW20854   1.532   5.335   0.654 -0.3084 -0.3875  0.1265
 6652SOL    HW120855   1.449   5.297   0.613 -1.4854  2.0509  0.0636
 6652SOL    HW220856   1.528   5.324   0.753 -0.8901  0.0368  0.1538
 6653SOL     OW20857   4.233   0.254   6.410 -0.5020  0.2434 -0.0763
 6653SOL    HW120858   4.231   0.339   6.358  0.6140 -0.3290 -1.0885
 6653SOL    HW220859   4.206   0.178   6.351 -2.2617 -0.0445  1.0220
 6654SOL     OW20860   6.549   6.860   3.152 -0.2495 -0.7194  0.3833
 6654SOL    HW120861   6.606   6.780   3.170 -0.4194 -0.9583 -0.1243
 6654SOL    HW220862   6.467   6.856   3.210 -0.7557 -1.4428 -0.3565
 6655SOL     OW20863   1.583   0.307   2.781 -0.5043  0.4226 -0.6811
 6655SOL    HW120864   1.648   0.241   2.818 -1.3120 -0.1160 -0.2026
 6655SOL    HW220865   1.504   0.259   2.744 -0.9040  1.1067 -0.7335
 6656SOL     OW20866   3.374   0.266   2.861  0.1294 -0.3423 -0.2259
 6656SOL    HW120867   3.314   0.253   2.782 -2.8586 -0.8210  1.9479
 6656SOL    HW220868   3.424   0.181   2.879  0.0002 -0.5710 -0.9039
 6657SOL     OW20869   5.050   1.261   4.364  0.0286  0.0543 -0.5291
 6657SOL    HW120870   5.021   1.229   4.274 -1.8747 -3.6147  1.1942
 6657SOL    HW220871   5.146   1.237   4.378 -0.1618 -0.9997 -0.9430
 6658SOL     OW20872   5.250   0.416   4.597 -0.6742 -0.7753 -0.0157
 6658SOL    HW120873   5.318   0.411   4.524 -0.1791  1.0396  0.2768
 6658SOL    HW220874   5.289   0.380   4.682 -1.4025 -3.3248 -0.6752
 6659SOL     OW20875   1.293   4.975   2.156 -0.3217  0.6603 -0.2285
 6659SOL    HW120876   1.281   4.876   2.155  1.2236  0.4365  0.5361
 6659SOL    HW220877   1.237   5.015   2.228  0.7749  0.0500  1.0026
 6660SOL     OW20878   2.364   6.542   0.548  0.0625  0.0191 -0.2551
 6660SOL    HW120879   2.347   6.622   0.491  1.9706  0.5127 -0.2119
 6660SOL    HW220880   2.343   6.459   0.497 -0.4396  0.5123 -0.8566
 6661SOL     OW20881   2.172   1.551   3.307 -0.1671  0.0958  0.7622
 6661SOL    HW120882   2.262   1.510   3.293  0.0217  0.2407  1.5618
 6661SOL    HW220883   2.125   1.556   3.219  0.5837 -0.0211  0.3430
 6662SOL     OW20884   3.644   1.354   1.476  0.1754 -0.2852 -0.5913
 6662SOL    HW120885   3.692   1.273   1.442  0.2105 -0.6769  0.3658
 6662SOL    HW220886   3.682   1.435   1.432 -0.3712 -0.8150 -2.1500
 6663SOL     OW20887   2.133   5.955   6.120 -0.0820  0.0862 -0.3569
 6663SOL    HW120888   2.087   5.887   6.177 -1.8126  0.3006 -1.4273
 6663SOL    HW220889   2.232   5.949   6.133 -0.2619 -1.9587  0.3177
 6664SOL     OW20890   2.152   0.856   2.334 -0.2924  0.2801 -0.1361
 6664SOL    HW120891   2.176   0.951   2.353  2.0674  0.0833 -1.6628
 6664SOL    HW220892   2.192   0.797   2.404 -0.4431  0.3168 -0.0205
 6665SOL     OW20893   3.927   6.430   0.044  0.1224  0.0958  0.3940
 6665SOL    HW120894   4.018   6.459   0.012 -0.1325  0.0678 -0.3801
 6665SOL    HW220895   3.879   6.384  -0.031 -1.3924  2.0681  0.0708
 6666SOL     OW20896   6.052   6.326   5.094  0.7267  0.2448  0.0220
 6666SOL    HW120897   5.971   6.331   5.152  0.7466  1.3569 -0.0302
 6666SOL    HW220898   6.132   6.358   5.145  1.0978 -0.5827 -0.0167
 6667SOL     OW20899   0.163   6.141   5.232 -0.4308 -0.3315  0.3523
 6667SOL    HW120900   0.141   6.137   5.330 -1.3409 -0.3361  0.1584
 6667SOL    HW220901   0.133   6.228   5.195  0.7009  0.0298  0.2440
 6668SOL     OW20902   0.173   4.935   3.047  0.3580  0.6553  0.1751
 6668SOL    HW120903   0.210   4.898   2.962  2.1263 -0.5273  1.3943
 6668SOL    HW220904   0.246   4.943   3.115 -0.7120  2.9749  1.1630
 6669SOL     OW20905   3.838   0.727   2.703 -0.2082  0.2259  0.0178
 6669SOL    HW120906   3.886   0.707   2.788 -0.4083  2.0778  0.6069
 6669SOL    HW220907   3.742   0.701   2.711 -0.5754  1.7267  0.9448
 6670SOL     OW20908   0.776   1.212   4.995 -0.3794 -0.4241 -0.3041
 6670SOL    HW120909   0.797   1.310   5.001 -0.1414 -0.4721 -0.3286
 6670SOL    HW220910   0.685   1.200   4.956 -0.5094 -0.2069 -0.0702
 6671SOL     OW20911   4.893   4.888   2.933  0.3035  0.3264 -0.2099
 6671SOL    HW120912   4.866   4.886   2.836  1.5440 -1.7556 -0.5722
 6671SOL    HW220913   4.850   4.811   2.980  0.9101  0.4605  0.5631
 6672SOL     OW20914   1.796   2.035   0.479 -0.9100 -0.3596 -0.2472
 6672SOL    HW120915   1.738   2.051   0.559 -1.2389 -1.2327 -0.3051
 6672SOL    HW220916   1.813   1.937   0.469  0.9419 -0.1003  0.0221
 6673SOL     OW20917   6.122   3.554   2.999 -0.4144 -0.2268 -0.1874
 6673SOL    HW120918   6.104   3.539   3.096 -2.8655  0.7218 -0.4171
 6673SOL    HW220919   6.153   3.469   2.957  1.0189 -0.5619  1.4551
 6674SOL     OW20920   1.029   4.113   0.129 -0.4746  0.0652  0.1481
 6674SOL    HW120921   1.009   4.027   0.082 -1.5329  1.7560 -2.8080
 6674SOL    HW220922   1.097   4.164   0.077 -0.1013  1.1589  1.6594
 6675SOL     OW20923   4.239   1.250   1.242 -0.0528  0.3001 -0.8063
 6675SOL    HW120924   4.200   1.158   1.248  1.4982 -0.3177  0.4320
 6675SOL    HW220925   4.329   1.245   1.197  0.3529  1.0931 -0.1008
 6676SOL     OW20926   2.690   2.540   0.364 -0.6155  0.4545 -0.0667
 6676SOL    HW120927   2.713   2.442   0.360 -0.1523  0.5720 -0.3946
 6676SOL    HW220928   2.618   2.559   0.298 -1.1287  0.2257  0.4202
 6677SOL     OW20929   0.527   0.904   6.300  0.1729  0.0327  0.1133
 6677SOL    HW120930   0.597   0.847   6.257 -0.3825  0.7132 -1.8108
 6677SOL    HW220931   0.437   0.863   6.284 -0.1958  1.1733 -0.9319
 6678SOL     OW20932   1.238   3.063   6.065 -0.1881 -0.2078 -0.5601
 6678SOL    HW120933   1.314   3.129   6.064 -1.1921  1.0362  1.1270
 6678SOL    HW220934   1.270   2.976   6.028  2.0056  0.3378 -0.0897
 6679SOL     OW20935   3.490   1.697   5.317 -0.0295 -0.4123  0.5620
 6679SOL    HW120936   3.463   1.714   5.412 -3.0453  1.7020 -0.5132
 6679SOL    HW220937   3.428   1.747   5.256  0.5404 -3.2516 -2.6183
 6680SOL     OW20938   4.978   4.718   2.344 -0.2688 -0.0790  0.7174
 6680SOL    HW120939   5.075   4.739   2.334 -0.2186 -0.7569 -0.3055
 6680SOL    HW220940   4.937   4.782   2.410  0.1754  2.3421 -1.2066
 6681SOL     OW20941   4.541   4.844   3.365 -0.0936  0.7572 -0.0829
 6681SOL    HW120942   4.633   4.804   3.362  0.7226  2.5555  0.0002
 6681SOL    HW220943   4.476   4.777   3.329  1.3244 -0.3169 -0.7897
 6682SOL     OW20944   2.697   4.199   6.800  0.1699 -0.2978  0.3177
 6682SOL    HW120945   2.638   4.267   6.843 -1.0951 -0.9560 -0.3094
 6682SOL    HW220946   2.682   4.110   6.843  1.7178 -0.2249  1.0483
 6683SOL     OW20947   5.662   2.389   6.783 -0.0511  0.1753 -0.6229
 6683SOL    HW120948   5.587   2.399   6.718  0.1786 -3.4071 -1.6615
 6683SOL    HW220949   5.748   2.377   6.732  0.2188 -2.1051  0.2504
 6684SOL     OW20950   3.110   0.032   1.464  0.5478 -0.1628 -0.0758
 6684SOL    HW120951   3.052  -0.042   1.430  0.2097  1.2219 -2.8395
 6684SOL    HW220952   3.205   0.002   1.468  1.0093  0.0408 -4.5429
 6685SOL     OW20953   3.753   2.214   6.911  0.4101  0.1762 -0.2027
 6685SOL    HW120954   3.656   2.222   6.888  0.3212 -0.6365 -0.1576
 6685SOL    HW220955   3.788   2.126   6.879  1.0739  0.3523  0.0083
 6686SOL     OW20956   6.752   3.931   3.059 -0.0084  0.3349 -0.5671
 6686SOL    HW120957   6.745   3.939   3.159 -0.8307 -0.9846 -0.4866
 6686SOL    HW220958   6.699   4.004   3.016 -2.1584 -0.7866  0.0179
 6687SOL     OW20959   0.527   1.541   0.749  0.2646 -0.4881  0.1004
 6687SOL    HW120960   0.614   1.591   0.747 -1.3570  2.5307 -0.8391
 6687SOL    HW220961   0.503   1.513   0.656 -0.9143  0.9852 -0.0797
 6688SOL     OW20962   4.491   4.954   1.542 -0.5721  0.0341 -0.2772
 6688SOL    HW120963   4.436   4.886   1.493 -1.9471  1.1042 -0.2743
 6688SOL    HW220964   4.445   5.043   1.538 -2.1213 -0.1781  4.8891
 6689SOL     OW20965   3.303   3.939   5.329 -0.1289  0.2812  0.2008
 6689SOL    HW120966   3.289   4.004   5.254  0.9310 -0.6119 -0.8177
 6689SOL    HW220967   3.340   3.854   5.292  0.8642 -0.0148  1.7982
 6690SOL     OW20968   1.429   0.391   1.072 -0.4868  0.6145 -0.2357
 6690SOL    HW120969   1.501   0.403   1.141  0.2002 -1.7760 -0.4241
 6690SOL    HW220970   1.467   0.402   0.981  0.2284 -2.4000 -0.4285
 6691SOL     OW20971   1.296   0.569   1.528 -0.0474 -0.4050  0.4585
 6691SOL    HW120972   1.257   0.522   1.449  0.4968 -0.2269  0.0772
 6691SOL    HW220973   1.324   0.661   1.501  1.2851 -0.7637  0.5273
 6692SOL     OW20974   4.646   4.337   2.911 -0.5283  0.3640  0.4923
 6692SOL    HW120975   4.610   4.368   2.823 -1.7962 -1.0624  0.4727
 6692SOL    HW220976   4.681   4.244   2.902 -0.0511  0.4447  1.3628
 6693SOL     OW20977   4.809   0.566   2.956  0.6167 -0.0573  0.1679
 6693SOL    HW120978   4.776   0.518   2.875  2.2609 -0.3666 -0.3518
 6693SOL    HW220979   4.797   0.665   2.943 -0.2798 -0.1649  0.0978
 6694SOL     OW20980   5.047   0.280   6.023 -0.8591 -0.4710  0.1831
 6694SOL    HW120981   4.963   0.233   5.995 -0.1071 -1.4204 -0.5334
 6694SOL    HW220982   5.076   0.245   6.112 -0.1575 -1.5951 -0.4665
 6695SOL     OW20983   1.256   2.294   0.522 -0.5389  0.4432  0.0802
 6695SOL    HW120984   1.223   2.384   0.493  1.2123  1.7345  1.8320
 6695SOL    HW220985   1.327   2.305   0.591  0.1663 -2.3092 -0.0802
 6696SOL     OW20986   4.058   3.800   3.691  0.3666  0.0621  0.6669
 6696SOL    HW120987   4.077   3.841   3.780 -2.0427  0.7919  0.9112
 6696SOL    HW220988   4.072   3.701   3.696  1.2025  0.2152  1.5606
 6697SOL     OW20989   5.576   2.984   4.215 -0.2853 -0.1723  0.1660
 6697SOL    HW120990   5.618   3.059   4.265  0.4774 -0.3256 -0.2254
 6697SOL    HW220991   5.549   2.912   4.279 -0.8235  0.3407  0.5191
 6698SOL     OW20992   4.878   4.494   0.668 -0.7301  0.3266  0.2628
 6698SOL    HW120993   4.930   4.506   0.583 -0.3081  0.4808  0.5449
 6698SOL    HW220994   4.828   4.407   0.664 -0.8406  0.4078 -0.2114
 6699SOL     OW20995   4.353   4.839   0.210 -0.8312  0.5035 -0.1134
 6699SOL    HW120996   4.319   4.747   0.191  0.8242 -0.2129  0.2392
 6699SOL    HW220997   4.279   4.894   0.250 -1.4960 -1.0773  0.9268
 6700SOL     OW20998   0.635   0.923   1.522 -0.2166 -0.4908 -0.1322
 6700SOL    HW120999   0.636   0.872   1.437  1.8790  0.4309 -0.7350
 6700SOL    HW221000   0.716   0.900   1.576 -0.0832  0.9560  0.3337
 6701SOL     OW21001   0.229   0.174   1.397 -0.0216 -0.0528  0.3747
 6701SOL    HW121002   0.195   0.088   1.360  0.4148 -0.6225  1.2801
 6701SOL    HW221003   0.186   0.193   1.485 -2.2382  2.0861 -1.0480
 6702SOL     OW21004   1.467   2.324   0.668 -0.4319 -0.2781  0.3224
 6702SOL    HW121005   1.506   2.360   0.753  1.9663  2.0454 -1.5597
 6702SOL    HW221006   1.523   2.248   0.635 -2.0394 -1.9636  1.3162
 6703SOL     OW21007   1.882   0.905   1.302  0.4287 -0.1835 -0.3274
 6703SOL    HW121008   1.865   1.001   1.279 -1.2282 -0.7287 -1.5827
 6703SOL    HW221009   1.813   0.873   1.366  1.0755 -0.5234  0.2221
 6704SOL     OW21010   2.564   1.660   5.786 -0.1274 -0.1918  0.2765
 6704SOL    HW121011   2.480   1.713   5.794 -0.2845 -0.6154  1.7203
 6704SOL    HW221012   2.544   1.574   5.738  0.0531  0.8320 -1.7274
 6705SOL     OW21013   5.519   2.983   2.254 -0.2273 -0.4163  0.0386
 6705SOL    HW121014   5.574   2.901   2.238  0.3524  0.1244 -0.8203
 6705SOL    HW221015   5.500   3.028   2.167 -0.9867  0.0883  0.4493
 6706SOL     OW21016   1.186   0.188   1.803  0.1236  0.1715 -0.0373
 6706SOL    HW121017   1.102   0.187   1.748  0.2417 -2.3663 -0.3047
 6706SOL    HW221018   1.167   0.231   1.891 -2.0265 -1.8927  0.6291
 6707SOL     OW21019   6.853   0.276   1.485 -0.2320 -0.0108 -0.6120
 6707SOL    HW121020   6.945   0.259   1.521  0.5021  0.8488 -1.9951
 6707SOL    HW221021   6.820   0.365   1.518 -0.9969 -0.7556  0.6791
 6708SOL     OW21022   6.048   6.867   2.575  0.6251 -0.0296 -0.7877
 6708SOL    HW121023   6.070   6.809   2.496  1.9162  0.7090 -0.9878
 6708SOL    HW221024   6.079   6.822   2.659  1.5529  0.3221 -0.9358
 6709SOL     OW21025   0.688   3.512   3.234  0.3645  0.8140  0.2494
 6709SOL    HW121026   0.646   3.451   3.167 -0.3596 -0.0252  1.4413
 6709SOL    HW221027   0.787   3.501   3.231  0.2518 -0.4395  0.4260
 6710SOL     OW21028   5.566   2.188   3.000 -1.3797 -0.3462 -0.5810
 6710SOL    HW121029   5.646   2.193   3.060 -0.9522  0.1839 -1.1757
 6710SOL    HW221030   5.484   2.212   3.052 -0.9336  0.7250 -0.3431
 6711SOL     OW21031   4.706   6.542   6.162  0.2951  0.0195  0.2563
 6711SOL    HW121032   4.668   6.575   6.075 -0.8246 -1.2928  0.2161
 6711SOL    HW221033   4.660   6.589   6.238  1.3953  1.2936  0.1632
 6712SOL     OW21034   0.368   3.996   2.035 -0.4639  0.0083  0.1458
 6712SOL    HW121035   0.429   3.980   1.958 -0.2839 -0.4392  0.3796
 6712SOL    HW221036   0.355   4.095   2.048 -0.2879  0.0884 -0.2899
 6713SOL     OW21037   2.431   2.603   4.196 -0.3338 -0.2045 -0.0658
 6713SOL    HW121038   2.514   2.547   4.186  0.1176  0.4139  0.1740
 6713SOL    HW221039   2.431   2.675   4.128 -0.3943  0.1428  0.3009
 6714SOL     OW21040   6.135   0.947   0.342  0.2482 -0.1376  0.8003
 6714SOL    HW121041   6.190   0.971   0.422  2.3802  1.4735 -1.0165
 6714SOL    HW221042   6.165   0.859   0.306  0.9487  0.2404  0.4354
 6715SOL     OW21043   2.194   0.602   2.153  0.2138 -0.8338  0.8000
 6715SOL    HW121044   2.162   0.592   2.247  0.6755 -0.4218  1.0021
 6715SOL    HW221045   2.122   0.572   2.090 -0.3888 -0.3681  1.2582
 6716SOL     OW21046   6.079   5.029   2.990 -0.4392  0.2810 -0.1747
 6716SOL    HW121047   6.165   5.074   3.011 -0.7846  1.9970 -2.1350
 6716SOL    HW221048   6.003   5.081   3.028 -0.7118 -0.1286 -0.1509
 6717SOL     OW21049   1.984   2.352   6.302  1.1845  0.2098  0.1980
 6717SOL    HW121050   2.045   2.313   6.370  1.0848 -0.2001  0.0549
 6717SOL    HW221051   1.981   2.452   6.312  0.5861  0.0944  1.2855
 6718SOL     OW21052   3.504   1.680   2.355  0.2100  0.0202  0.1444
 6718SOL    HW121053   3.501   1.629   2.269  0.4479 -1.6218  1.0724
 6718SOL    HW221054   3.424   1.656   2.410  0.4668  0.4646  0.7186
 6719SOL     OW21055   1.314   7.009   0.051 -0.1307 -0.1860 -0.3382
 6719SOL    HW121056   1.321   6.940   0.123  2.0266  1.4904  1.1898
 6719SOL    HW221057   1.218   7.019   0.024 -0.5956 -3.2792 -0.2017
 6720SOL     OW21058   2.762   0.198   5.304  0.2166 -0.1788 -0.0526
 6720SOL    HW121059   2.820   0.152   5.370  0.3731  0.7963  0.5051
 6720SOL    HW221060   2.684   0.139   5.282 -0.9695  0.2695  2.5831
 6721SOL     OW21061   2.979   6.006   6.147 -0.5984  0.1671  0.0544
 6721SOL    HW121062   3.020   5.916   6.161 -1.4391 -0.0488  1.2078
 6721SOL    HW221063   2.998   6.036   6.053 -0.7080 -1.4039 -0.5022
 6722SOL     OW21064   0.883   0.615   0.309  0.3644 -0.3166 -0.0737
 6722SOL    HW121065   0.978   0.597   0.335  0.2479 -0.0291  0.5782
 6722SOL    HW221066   0.847   0.536   0.259  0.5787 -0.9356  0.7197
 6723SOL     OW21067   4.556   0.808   6.621  0.5218 -0.0890  0.4976
 6723SOL    HW121068   4.466   0.811   6.665  0.6943 -0.4824  0.8908
 6723SOL    HW221069   4.598   0.898   6.624 -1.1046  0.8626 -2.3608
 6724SOL     OW21070   7.014   1.824   6.000 -0.6729  0.2324 -0.2387
 6724SOL    HW121071   6.963   1.780   6.074 -0.8319  1.8242  0.6467
 6724SOL    HW221072   6.951   1.873   5.940 -0.4657 -0.3903 -0.9804
 6725SOL     OW21073   6.013   2.504   2.095  0.0941  0.3758 -0.1400
 6725SOL    HW121074   6.091   2.446   2.115  1.1683  1.4545 -1.0822
 6725SOL    HW221075   6.022   2.544   2.004 -1.6570  0.3916 -0.3536
 6726SOL     OW21076   6.374   2.399   5.082  0.3716 -0.5093  0.3903
 6726SOL    HW121077   6.314   2.319   5.087  0.7841 -0.7360  2.2661
 6726SOL    HW221078   6.395   2.432   5.174  1.2964  0.9625 -0.2961
 6727SOL     OW21079   0.613   3.505   6.657 -0.3691  0.4761  0.1088
 6727SOL    HW121080   0.566   3.458   6.731 -0.3994 -1.8819 -1.3163
 6727SOL    HW221081   0.559   3.586   6.630 -2.0334 -0.4450  0.5274
 6728SOL     OW21082   5.295   1.440   3.431 -0.2283  0.5756 -0.5991
 6728SOL    HW121083   5.390   1.445   3.463 -0.4808 -1.8782  0.7257
 6728SOL    HW221084   5.242   1.513   3.475  0.5073  0.3139  0.8103
 6729SOL     OW21085   4.405   0.732   0.610 -0.4708  0.0843  0.5772
 6729SOL    HW121086   4.492   0.762   0.650  0.3923 -0.6545 -0.6447
 6729SOL    HW221087   4.397   0.770   0.518 -0.7648 -0.9846  0.1472
 6730SOL     OW21088   0.174   0.176   3.824  0.0178 -0.4957 -0.2056
 6730SOL    HW121089   0.179   0.275   3.811  0.4564 -0.1908  1.9644
 6730SOL    HW221090   0.266   0.138   3.824 -0.0375 -0.6490  0.5506
 6731SOL     OW21091   2.744   5.909   0.164 -0.0878 -0.2006  0.0366
 6731SOL    HW121092   2.681   5.865   0.228 -0.0782 -1.3513 -0.7237
 6731SOL    HW221093   2.699   5.988   0.122 -1.3639 -1.5023 -1.1389
 6732SOL     OW21094   4.715   4.282   5.977 -0.0775 -0.1466  0.3571
 6732SOL    HW121095   4.689   4.295   6.073  1.9338 -0.3097  0.9778
 6732SOL    HW221096   4.657   4.339   5.919 -2.4181 -1.2545  1.4857
 6733SOL     OW21097   3.716   5.069   0.071 -0.4311 -0.1953 -0.2348
 6733SOL    HW121098   3.767   5.153   0.052  0.0699 -0.4176  0.0979
 6733SOL    HW221099   3.778   4.991   0.066 -0.5952 -0.4148  0.7718
 6734SOL     OW21100   4.354   2.361   6.330  0.1503 -0.0268  0.0984
 6734SOL    HW121101   4.278   2.339   6.392  0.5112 -1.4060  0.0672
 6734SOL    HW221102   4.431   2.395   6.383  0.5432 -1.4333  0.4447
 6735SOL     OW21103   6.113   1.221   3.879  0.1029  0.2426  0.5292
 6735SOL    HW121104   6.044   1.218   3.807 -0.3209 -0.8309  0.9595
 6735SOL    HW221105   6.142   1.128   3.900 -0.4742  0.4548  2.4016
 6736SOL     OW21106   3.973   3.865   5.538 -1.3264  0.0256  0.1683
 6736SOL    HW121107   4.002   3.812   5.618 -0.7550 -0.5048 -0.3861
 6736SOL    HW221108   3.943   3.804   5.466 -2.4612  0.5301  0.1980
 6737SOL     OW21109   6.660   2.867   1.463 -0.2520 -0.5334  0.5371
 6737SOL    HW121110   6.584   2.802   1.457  0.6438 -1.4975 -0.7999
 6737SOL    HW221111   6.703   2.877   1.374  1.3660 -0.2008  1.3145
 6738SOL     OW21112   0.235   5.223   5.169  0.0678  0.2914  0.4292
 6738SOL    HW121113   0.261   5.315   5.199 -0.5783  0.8500 -0.6814
 6738SOL    HW221114   0.137   5.210   5.180  0.0954 -0.1250  0.2160
 6739SOL     OW21115   0.097   0.675   4.373  0.0234  0.2813  0.1545
 6739SOL    HW121116   0.003   0.669   4.405  0.5387 -1.5333  1.4777
 6739SOL    HW221117   0.099   0.715   4.281 -1.9728  0.7125  0.2650
 6740SOL     OW21118   5.861   6.134   4.407  0.6950 -0.7389  0.3103
 6740SOL    HW121119   5.856   6.034   4.401 -0.0549 -0.6190 -2.1409
 6740SOL    HW221120   5.937   6.160   4.466  2.3700 -2.7778 -0.8031
 6741SOL     OW21121   5.044   2.796   6.313  0.1694 -0.5734 -0.1569
 6741SOL    HW121122   5.119   2.753   6.263  0.9141 -1.7061  1.8140
 6741SOL    HW221123   4.980   2.725   6.344  0.8862 -0.2580  2.2909
 6742SOL     OW21124   6.417   3.898   3.938 -0.0105 -0.3632 -0.0034
 6742SOL    HW121125   6.497   3.886   3.998  0.6850  0.3872 -0.7614
 6742SOL    HW221126   6.435   3.971   3.873 -1.6056  0.3029  0.2590
 6743SOL     OW21127   3.210   3.053   6.127 -0.3831 -0.1946  0.3411
 6743SOL    HW121128   3.115   3.024   6.114  0.0307 -0.6569 -2.2298
 6743SOL    HW221129   3.214   3.122   6.199 -2.5207 -0.8544  1.1731
 6744SOL     OW21130   6.813   0.111   6.849  0.5678  0.6118  0.2416
 6744SOL    HW121131   6.736   0.090   6.910  1.6866 -0.9320  1.2187
 6744SOL    HW221132   6.824   0.037   6.782  0.8475  1.0916 -0.2477
 6745SOL     OW21133   6.530   0.251   3.602  0.7198  0.8187  0.2542
 6745SOL    HW121134   6.495   0.199   3.680  1.1583  0.6603  0.3524
 6745SOL    HW221135   6.566   0.339   3.633  0.9888  0.7122  0.2486
 6746SOL     OW21136   3.800   1.685   2.469 -0.0458  0.3193  0.5506
 6746SOL    HW121137   3.822   1.782   2.472 -1.3163  0.6370  0.1012
 6746SOL    HW221138   3.711   1.672   2.426 -0.6690 -0.9105  2.0987
 6747SOL     OW21139   2.256   0.159   6.042 -0.0493  0.4485  0.3381
 6747SOL    HW121140   2.287   0.153   6.137 -2.9927  1.9065  1.4979
 6747SOL    HW221141   2.161   0.129   6.036 -0.2413  1.3554 -1.9769
 6748SOL     OW21142   5.398   2.365   3.350 -0.4094  0.0184 -0.2713
 6748SOL    HW121143   5.350   2.376   3.437 -0.4969 -0.8542 -0.2007
 6748SOL    HW221144   5.339   2.396   3.276 -0.5967  0.1255 -0.0796
 6749SOL     OW21145   2.887   3.854   0.385 -0.1930  0.2657 -0.1699
 6749SOL    HW121146   2.815   3.861   0.317 -0.2030  0.6066 -0.1268
 6749SOL    HW221147   2.856   3.893   0.472  1.2055  3.8785 -1.0837
 6750SOL     OW21148   2.203   2.023   4.080  0.4408  0.2294 -0.5607
 6750SOL    HW121149   2.241   2.056   3.994  0.7544  0.1515 -0.4533
 6750SOL    HW221150   2.157   1.936   4.066  0.9712 -0.0519 -0.5420
 6751SOL     OW21151   3.866   0.048   4.871  0.2590 -0.1718 -0.5297
 6751SOL    HW121152   3.947   0.006   4.912  1.2795  1.1533 -1.1121
 6751SOL    HW221153   3.818  -0.019   4.815  0.7402 -1.0755  0.1144
 6752SOL     OW21154   1.812   1.369   6.465  0.5462  0.0322 -0.1227
 6752SOL    HW121155   1.817   1.379   6.564  1.3270 -1.0718 -0.0246
 6752SOL    HW221156   1.833   1.456   6.421  2.6261 -0.0081  0.6643
 6753SOL     OW21157   3.350   2.419   6.240 -0.4046 -1.0455 -0.4643
 6753SOL    HW121158   3.395   2.486   6.298  2.4403 -1.0065 -2.4926
 6753SOL    HW221159   3.291   2.465   6.174  0.2941 -0.6287 -0.8117
 6754SOL     OW21160   4.014   0.264   0.282 -0.0621  0.2323 -0.2476
 6754SOL    HW121161   4.108   0.282   0.313  0.3031  0.7544 -1.5709
 6754SOL    HW221162   3.996   0.318   0.200 -1.0930 -0.8469 -0.7494
 6755SOL     OW21163   3.351   3.000   1.322 -0.3000  0.2110  0.5614
 6755SOL    HW121164   3.440   3.040   1.301 -0.8666  2.3610  1.8103
 6755SOL    HW221165   3.338   2.999   1.421 -1.1825 -1.2454  0.4556
 6756SOL     OW21166   5.937   6.560   6.169  0.3280  0.2894 -0.0586
 6756SOL    HW121167   5.851   6.609   6.154  0.6968  1.5688  1.7897
 6756SOL    HW221168   6.013   6.624   6.163  1.1776 -0.7856 -1.3627
 6757SOL     OW21169   4.884   0.687   1.768  0.1108 -0.4350  0.3146
 6757SOL    HW121170   4.841   0.777   1.777  0.3303 -0.4589  1.8350
 6757SOL    HW221171   4.816   0.621   1.736 -0.3968 -0.0154  0.5142
 6758SOL     OW21172   5.098   2.967   0.852 -0.9141  0.1320 -0.0169
 6758SOL    HW121173   5.040   3.040   0.890  0.0890  0.8474  0.1904
 6758SOL    HW221174   5.124   2.990   0.758  1.7285  1.5494  0.9347
 6759SOL     OW21175   6.688   3.341   3.193  0.2602  0.1295  0.3051
 6759SOL    HW121176   6.742   3.391   3.260 -0.9087  2.6884 -0.5312
 6759SOL    HW221177   6.748   3.286   3.135  1.4895 -0.2658  1.8985
 6760SOL     OW21178   5.289   4.578   2.256 -0.0132  0.3352  0.1020
 6760SOL    HW121179   5.374   4.615   2.294  0.0965  2.5207 -1.9831
 6760SOL    HW221180   5.308   4.493   2.207  0.8304  0.3946  0.3228
 6761SOL     OW21181   4.978   2.498   2.879 -0.7774 -0.3742  0.2223
 6761SOL    HW121182   5.039   2.540   2.812 -0.8443 -0.2321  0.2513
 6761SOL    HW221183   5.021   2.501   2.970 -0.2313 -1.4818  0.0260
 6762SOL     OW21184   6.574   5.619   6.037 -0.1336  0.7144  0.0218
 6762SOL    HW121185   6.549   5.568   6.119  0.9706 -2.1352 -1.2742
 6762SOL    HW221186   6.673   5.626   6.031 -0.2388  2.1434 -0.4012
 6763SOL     OW21187   5.097   3.558   5.600  0.4050  0.1640 -0.9398
 6763SOL    HW121188   5.143   3.615   5.668  1.5783 -0.0534 -1.5229
 6763SOL    HW221189   5.001   3.550   5.623  0.1269  2.5935 -0.9472
 6764SOL     OW21190   4.103   5.769   2.129 -0.4383 -0.0922 -0.2276
 6764SOL    HW121191   4.121   5.718   2.213  1.2666  0.7788 -0.0321
 6764SOL    HW221192   4.179   5.755   2.065 -1.1028  0.2833 -1.1120
 6765SOL     OW21193   5.815   3.004   2.395 -0.3725 -0.1481 -0.4463
 6765SOL    HW121194   5.808   3.053   2.308 -1.8564  1.2684  0.4285
 6765SOL    HW221195   5.905   3.022   2.436 -0.0693  0.0337 -1.1736
 6766SOL     OW21196   4.905   6.362   6.126  0.1873 -0.2417 -0.5135
 6766SOL    HW121197   4.823   6.415   6.150 -0.2938 -0.3330 -1.8590
 6766SOL    HW221198   4.885   6.305   6.046  0.7639 -2.3033  0.7321
 6767SOL     OW21199   2.913   0.021   5.427  0.0869  0.4004 -0.4758
 6767SOL    HW121200   2.989   0.013   5.492  2.8596  1.9725 -3.2211
 6767SOL    HW221201   2.923  -0.049   5.356 -1.3909  0.3077 -0.6171
 6768SOL     OW21202   3.195   1.312   6.145  0.1093  0.3718 -0.4650
 6768SOL    HW121203   3.288   1.349   6.144  0.6743 -0.8827  0.7639
 6768SOL    HW221204   3.139   1.359   6.077  0.8816  3.0662  0.6403
 6769SOL     OW21205   4.348   0.617   1.992 -0.3361  0.4830  0.4398
 6769SOL    HW121206   4.366   0.709   2.027 -0.3186  0.9963 -0.8486
 6769SOL    HW221207   4.346   0.552   2.068  1.2225  1.2905  1.2239
 6770SOL     OW21208   6.248   4.832   1.585  0.1742 -0.2345 -0.1498
 6770SOL    HW121209   6.228   4.867   1.677 -0.6301 -0.6525 -0.1552
 6770SOL    HW221210   6.314   4.893   1.540 -0.8221  1.0259  0.0212
 6771SOL     OW21211   4.431   2.429   3.000 -0.0947  0.1078 -1.4143
 6771SOL    HW121212   4.478   2.380   2.927  0.3446  0.2178 -1.2042
 6771SOL    HW221213   4.476   2.517   3.016  0.8231 -0.6119  0.1176
 6772SOL     OW21214   3.298   1.244   4.273 -0.3729 -0.4542  0.2910
 6772SOL    HW121215   3.304   1.206   4.365 -0.3272 -2.6826 -0.5721
 6772SOL    HW221216   3.382   1.221   4.222  1.2538  3.7670  0.6722
 6773SOL     OW21217   5.965   5.159   1.859  0.3784 -0.0928  0.1109
 6773SOL    HW121218   5.946   5.063   1.883 -0.2203  0.1671  0.6788
 6773SOL    HW221219   5.884   5.214   1.874 -0.1789  0.0493 -2.8642
 6774SOL     OW21220   0.849   3.381   6.837 -0.0646 -0.0050  0.0655
 6774SOL    HW121221   0.907   3.386   6.919 -2.0406  1.4787  1.4522
 6774SOL    HW221222   0.896   3.327   6.767  1.1501 -2.4968  2.5900
 6775SOL     OW21223   2.517   3.836   1.507  0.3174  0.7680 -0.4068
 6775SOL    HW121224   2.512   3.926   1.462  1.7035  0.7747 -0.5739
 6775SOL    HW221225   2.465   3.770   1.453  1.2501  0.9654 -1.5972
 6776SOL     OW21226   3.426   3.868   6.444  0.4623  0.4580  0.2370
 6776SOL    HW121227   3.482   3.949   6.460  0.8954  0.0707  0.6871
 6776SOL    HW221228   3.342   3.895   6.396  0.5055  1.1993  0.5682
 6777SOL     OW21229   2.525   4.400   6.893 -0.0512 -0.1114  0.4008
 6777SOL    HW121230   2.512   4.490   6.851  2.9239  0.7393  1.0897
 6777SOL    HW221231   2.451   4.383   6.958 -1.2446  1.3332 -0.5061
 6778SOL     OW21232   4.550   4.615   3.655  0.3748  0.0781  0.6287
 6778SOL    HW121233   4.542   4.607   3.555  0.8963  1.5847  0.4403
 6778SOL    HW221234   4.610   4.543   3.689 -0.0609 -0.6519 -0.0953
 6779SOL     OW21235   4.512   4.613   5.436  0.3354  0.2546 -0.2873
 6779SOL    HW121236   4.519   4.514   5.446  0.4710  0.2111 -0.7925
 6779SOL    HW221237   4.429   4.645   5.480  0.8003  0.0464  0.7633
 6780SOL     OW21238   0.561   4.420   0.962  0.0830  0.4935 -0.1571
 6780SOL    HW121239   0.485   4.446   0.902  1.7448  2.7585 -1.4229
 6780SOL    HW221240   0.647   4.430   0.914  1.3445 -0.5692  1.7180
 6781SOL     OW21241   6.565   6.979   6.213  0.0953  0.4203 -0.0754
 6781SOL    HW121242   6.525   7.005   6.300  0.8604 -0.1119  0.4508
 6781SOL    HW221243   6.552   7.052   6.146 -1.2763  0.4645  0.2214
 6782SOL     OW21244   0.618   0.083   3.266 -0.0923 -0.3509  0.2921
 6782SOL    HW121245   0.681   0.051   3.195 -1.1438 -2.0527  0.0752
 6782SOL    HW221246   0.541   0.129   3.223 -0.8753 -1.6396  0.2850
 6783SOL     OW21247   5.554   0.803   4.216 -0.4101 -0.0606 -0.4686
 6783SOL    HW121248   5.605   0.719   4.192 -0.1545  0.0040 -0.1579
 6783SOL    HW221249   5.604   0.882   4.181 -0.7638 -0.0460 -0.9540
 6784SOL     OW21250   4.068   1.649   0.715  0.3666  0.0019 -0.5132
 6784SOL    HW121251   4.043   1.556   0.742 -0.9684  0.7646  1.0515
 6784SOL    HW221252   3.986   1.699   0.686  0.8667  1.0426 -0.1877
 6785SOL     OW21253   6.405   4.222   3.282  0.5588  0.3373  0.4221
 6785SOL    HW121254   6.382   4.182   3.194  1.8964  0.7076 -0.1234
 6785SOL    HW221255   6.338   4.293   3.306  1.5562  2.0143 -1.5208
 6786SOL     OW21256   3.129   3.393   0.817  0.1260  0.3071  1.2149
 6786SOL    HW121257   3.190   3.336   0.763 -0.5020 -0.2444  1.0682
 6786SOL    HW221258   3.126   3.485   0.779  2.0537  0.8096  2.1334
 6787SOL     OW21259   2.363   3.652   1.379 -0.7672  0.0917  0.1290
 6787SOL    HW121260   2.368   3.582   1.450 -1.1405  1.2742  1.3730
 6787SOL    HW221261   2.270   3.687   1.374 -0.8252 -0.1851 -1.1975
 6788SOL     OW21262   2.147   3.457   1.523 -0.5491  0.2494  0.0517
 6788SOL    HW121263   2.207   3.502   1.590  0.5895 -2.3422  0.8912
 6788SOL    HW221264   2.054   3.453   1.560 -0.6457  1.6679  0.0339
 6789SOL     OW21265   1.322   0.413   3.076  0.2607 -0.5961  0.0869
 6789SOL    HW121266   1.332   0.320   3.112 -0.3602 -0.5910  0.2864
 6789SOL    HW221267   1.316   0.410   2.976  2.0278 -0.6076 -0.0511
 6790SOL     OW21268   3.595   3.404   5.784 -0.2858  0.4637  0.2057
 6790SOL    HW121269   3.525   3.475   5.770  0.2607  0.8786 -0.5026
 6790SOL    HW221270   3.590   3.337   5.710  0.7388  1.0728 -0.4393
 6791SOL     OW21271   4.125   2.836   1.636  0.0099 -0.2151  0.4723
 6791SOL    HW121272   4.035   2.795   1.621  0.5691 -1.3343  0.0872
 6791SOL    HW221273   4.120   2.897   1.715 -1.4129  0.8110 -0.3546
 6792SOL     OW21274   6.552   6.831   5.683  0.0475  0.0669  0.0068
 6792SOL    HW121275   6.621   6.897   5.651 -0.5931  0.6993 -0.0765
 6792SOL    HW221276   6.515   6.782   5.604 -0.7022  0.8177 -0.1231
 6793SOL     OW21277   0.466   3.726   6.572  0.2928 -0.4111  0.0737
 6793SOL    HW121278   0.480   3.790   6.497  1.0670  0.2444  0.7543
 6793SOL    HW221279   0.369   3.703   6.579  0.1500 -0.1045 -0.8097
 6794SOL     OW21280   4.149   0.976   6.004 -0.0039 -0.4634  0.7115
 6794SOL    HW121281   4.102   1.063   5.995  0.4871 -0.2032  0.6195
 6794SOL    HW221282   4.182   0.946   5.914  0.5547 -0.3280  0.8680
 6795SOL     OW21283   3.833   4.318   0.763 -0.0192 -0.3305 -0.1342
 6795SOL    HW121284   3.869   4.410   0.744  0.8232 -0.2062  1.7809
 6795SOL    HW221285   3.734   4.323   0.776  0.0279  0.3314  0.0195
 6796SOL     OW21286   6.530   2.539   2.001  0.0220 -0.1869 -0.1743
 6796SOL    HW121287   6.434   2.514   1.995 -0.8471  2.6540  0.2054
 6796SOL    HW221288   6.554   2.597   1.924  0.6043  1.4262  1.1556
 6797SOL     OW21289   0.457   3.575   1.661 -0.4157 -0.1673 -0.2635
 6797SOL    HW121290   0.399   3.649   1.695  0.3949  1.0881 -1.5148
 6797SOL    HW221291   0.531   3.558   1.726 -0.5881  0.1496  0.0157
 6798SOL     OW21292   0.243   6.301   3.562  0.4288  0.0346  0.2211
 6798SOL    HW121293   0.323   6.275   3.616 -0.5312  0.9109  2.1753
 6798SOL    HW221294   0.241   6.400   3.551  0.5622 -0.1158 -1.4344
 6799SOL     OW21295   0.488   6.083   6.835  0.4483 -0.1873 -0.1291
 6799SOL    HW121296   0.498   6.120   6.743  2.5699 -1.7211 -0.5929
 6799SOL    HW221297   0.428   6.003   6.833 -2.1330  1.6150  0.4547
 6800SOL     OW21298   3.386   3.726   0.149  0.5742  0.0971 -0.0803
 6800SOL    HW121299   3.444   3.754   0.224 -0.2192  0.0996  0.5482
 6800SOL    HW221300   3.290   3.744   0.172  0.1850 -1.4162 -0.3998
 6801SOL     OW21301   0.674   6.011   2.530  0.2030 -0.1192  0.8365
 6801SOL    HW121302   0.724   5.963   2.602 -0.8049 -0.6201  1.2285
 6801SOL    HW221303   0.649   6.102   2.562  2.8618  1.0883 -0.2159
 6802SOL     OW21304   3.767   4.713   6.188 -0.2103  0.2570  0.2679
 6802SOL    HW121305   3.768   4.788   6.253  1.0048 -1.4624  2.3586
 6802SOL    HW221306   3.685   4.657   6.202  0.1824 -0.2650  0.5069
 6803SOL     OW21307   6.503   3.562   5.094  0.2935  0.1939 -0.6282
 6803SOL    HW121308   6.583   3.528   5.046 -0.1773  0.0175 -1.2940
 6803SOL    HW221309   6.466   3.489   5.152 -0.0890 -0.1104 -1.2425
 6804SOL     OW21310   2.927   6.369   2.912 -0.2199 -0.0135 -0.3470
 6804SOL    HW121311   2.855   6.360   2.844  1.8343 -0.7361 -2.5948
 6804SOL    HW221312   2.946   6.280   2.954  0.0789 -0.0541 -0.5636
 6805SOL     OW21313   4.636   6.011   4.125  0.7242  0.4490 -0.0228
 6805SOL    HW121314   4.604   6.105   4.112 -1.4011 -0.1931  0.1818
 6805SOL    HW221315   4.631   5.962   4.039 -2.3350 -0.6035  0.6222
 6806SOL     OW21316   5.119   2.224   2.939 -0.0037  0.1378 -0.0355
 6806SOL    HW121317   5.036   2.246   2.888  0.8244  1.1846 -0.9520
 6806SOL    HW221318   5.113   2.129   2.972 -1.4711  0.1373 -0.2288
 6807SOL     OW21319   4.377   1.450   0.967  1.1285 -0.3373  0.5669
 6807SOL    HW121320   4.346   1.526   1.024 -0.2523 -0.1469 -0.3728
 6807SOL    HW221321   4.442   1.484   0.898  0.9988 -0.1210  0.5503
 6808SOL     OW21322   6.949   1.383   5.279 -0.0748  0.0535 -0.3400
 6808SOL    HW121323   6.919   1.391   5.183 -3.0228  1.7791  0.5843
 6808SOL    HW221324   6.904   1.304   5.321 -1.2586  1.0351  0.3284
 6809SOL     OW21325   0.476   3.699   0.905  0.7305  0.2738  0.2895
 6809SOL    HW121326   0.475   3.785   0.854  1.2614  0.1683  0.0860
 6809SOL    HW221327   0.561   3.694   0.958  0.8569 -0.2632  0.0440
 6810SOL     OW21328   1.568   6.337   3.150  0.1865 -0.3878 -0.7505
 6810SOL    HW121329   1.640   6.403   3.168 -1.4213  1.4613 -0.7167
 6810SOL    HW221330   1.583   6.255   3.205  1.3553  0.6256  0.5069
 6811SOL     OW21331   4.708   3.973   6.657 -0.2159  0.0492 -0.3756
 6811SOL    HW121332   4.693   3.988   6.560 -0.1247 -0.2782 -0.4390
 6811SOL    HW221333   4.647   3.901   6.690  0.3406 -0.4303 -0.3712
 6812SOL     OW21334   3.793   3.462   4.378 -0.2034 -0.0562  0.0729
 6812SOL    HW121335   3.802   3.363   4.387 -0.6303 -0.0401  0.6997
 6812SOL    HW221336   3.714   3.494   4.429  0.3107  0.6957  0.4224
 6813SOL     OW21337   4.668   1.469   1.663 -0.1413  0.4637  0.4072
 6813SOL    HW121338   4.590   1.432   1.613  2.0729  0.0220 -3.1583
 6813SOL    HW221339   4.741   1.492   1.598  2.7777  0.7174  3.4656
 6814SOL     OW21340   3.272   2.019   0.683 -0.4885  0.4626  0.3463
 6814SOL    HW121341   3.251   1.951   0.613 -0.4835 -0.7823  1.5017
 6814SOL    HW221342   3.366   2.051   0.671  0.4901 -1.7798  1.3280
 6815SOL     OW21343   2.181   1.678   0.440 -0.1471 -0.1789  0.0771
 6815SOL    HW121344   2.222   1.639   0.357 -0.0558 -0.6406  0.3387
 6815SOL    HW221345   2.228   1.763   0.463  1.0012 -0.9371  0.6426
 6816SOL     OW21346   5.909   5.171   5.450 -0.1176  0.4392 -0.2209
 6816SOL    HW121347   5.911   5.073   5.431 -0.1790  0.2459  0.7055
 6816SOL    HW221348   5.821   5.209   5.422 -0.5449 -0.0103  0.4651
 6817SOL     OW21349   6.730   2.605   4.068 -0.4313 -0.5645  0.0295
 6817SOL    HW121350   6.705   2.511   4.090 -1.1003 -0.3785  0.0791
 6817SOL    HW221351   6.724   2.619   3.969 -0.9336 -0.4018  0.0834
 6818SOL     OW21352   3.780   4.909   2.114 -0.0279  0.0898  0.6266
 6818SOL    HW121353   3.722   4.891   2.035 -1.1858  1.5764  1.0982
 6818SOL    HW221354   3.815   4.822   2.150  2.1694 -0.5322 -2.6439
 6819SOL     OW21355   3.516   2.060   5.891 -0.4346 -0.1324 -0.3670
 6819SOL    HW121356   3.519   2.132   5.960 -0.2952  0.0803 -0.5965
 6819SOL    HW221357   3.495   1.972   5.936 -3.9503  0.5078 -0.4493
 6820SOL     OW21358   0.796   4.625   3.739  0.2058  0.0643 -0.1357
 6820SOL    HW121359   0.749   4.541   3.768 -0.4672 -0.2430 -1.9756
 6820SOL    HW221360   0.894   4.613   3.750  0.0939 -0.8396 -0.0207
 6821SOL     OW21361   0.109   1.933   4.748  0.2002 -0.3875  0.2485
 6821SOL    HW121362   0.083   1.897   4.658  0.3125  0.5371 -0.1586
 6821SOL    HW221363   0.123   2.031   4.742  0.3037 -0.3316  1.2651
 6822SOL     OW21364   5.087   2.830   6.622 -0.1389  0.3131  0.2812
 6822SOL    HW121365   5.162   2.766   6.605  0.6704  1.0432  0.9838
 6822SOL    HW221366   5.034   2.844   6.539  0.8091  0.1642 -0.3532
 6823SOL     OW21367   3.575   3.353   3.838 -0.3736  0.2619  0.3956
 6823SOL    HW121368   3.533   3.310   3.918 -1.8544  0.4806 -0.2184
 6823SOL    HW221369   3.508   3.411   3.792 -0.1762 -1.2236 -2.0034
 6824SOL     OW21370   0.298   3.238   5.235 -0.1600  0.5605 -0.5434
 6824SOL    HW121371   0.352   3.313   5.196  1.9864 -0.8332 -0.3926
 6824SOL    HW221372   0.213   3.228   5.184  0.3512  1.9241 -1.7168
 6825SOL     OW21373   3.502   6.131   3.760 -0.1779 -0.1169 -0.2505
 6825SOL    HW121374   3.538   6.223   3.740  0.6621 -0.4703 -0.3997
 6825SOL    HW221375   3.422   6.114   3.703 -1.3239  1.1248  0.8930
 6826SOL     OW21376   0.806   4.605   1.713 -0.2331  0.2535 -0.5373
 6826SOL    HW121377   0.779   4.697   1.685  0.2330  1.1044  1.6178
 6826SOL    HW221378   0.868   4.610   1.791 -0.9124 -1.9228  0.2307
 6827SOL     OW21379   4.112   5.429   6.454 -0.3030 -0.0906 -0.5433
 6827SOL    HW121380   4.130   5.352   6.516  0.3539 -0.2392 -0.9066
 6827SOL    HW221381   4.094   5.395   6.362 -0.3944  0.1683 -0.6224
 6828SOL     OW21382   2.728   1.637   1.949 -0.6673 -0.0676 -0.1859
 6828SOL    HW121383   2.717   1.549   1.996 -0.0725  0.2487  0.5575
 6828SOL    HW221384   2.775   1.623   1.862 -1.1516 -0.5631 -0.3772
 6829SOL     OW21385   5.714   4.819   4.126  0.0747  0.4097  0.5441
 6829SOL    HW121386   5.702   4.787   4.220  2.3242 -1.0128  0.4107
 6829SOL    HW221387   5.638   4.879   4.102 -1.5046 -0.6285  2.6327
 6830SOL     OW21388   5.168   1.627   4.772  0.3702 -0.5255 -0.3405
 6830SOL    HW121389   5.095   1.569   4.735  2.1467 -1.1313 -3.2275
 6830SOL    HW221390   5.198   1.591   4.860 -1.7530 -1.1473  0.1850
 6831SOL     OW21391   2.528   1.045   0.343 -0.0490 -0.1393  0.3823
 6831SOL    HW121392   2.581   1.088   0.270  0.0330  1.2635  1.2392
 6831SOL    HW221393   2.461   0.983   0.303 -0.4657  1.1088 -0.9190
 6832SOL     OW21394   1.952   5.191   1.790 -0.3269  0.5638  0.2204
 6832SOL    HW121395   2.026   5.258   1.778  0.5181  0.1253  2.3971
 6832SOL    HW221396   1.983   5.120   1.854 -2.5254  0.1882  0.9323
 6833SOL     OW21397   4.610   4.981   6.589  0.0868  0.0558 -0.2923
 6833SOL    HW121398   4.681   4.920   6.625  0.3549  0.3500 -0.3245
 6833SOL    HW221399   4.612   5.068   6.638 -1.7222 -0.7153  1.2817
 6834SOL     OW21400   6.465   0.410   2.635  0.4891  0.3385  0.0908
 6834SOL    HW121401   6.550   0.437   2.680  0.7493  0.2541 -0.3408
 6834SOL    HW221402   6.474   0.422   2.536  0.0949  0.0720  0.0187
 6835SOL     OW21403   2.300   1.465   4.410  0.0949 -0.0446 -0.3273
 6835SOL    HW121404   2.306   1.404   4.331  1.4696  0.9737 -1.0566
 6835SOL    HW221405   2.372   1.441   4.475  0.4647  0.5939 -0.4891
 6836SOL     OW21406   5.869   4.599   0.244  0.3729  0.1402  0.4228
 6836SOL    HW121407   5.915   4.652   0.173 -1.7690 -0.7563 -1.7709
 6836SOL    HW221408   5.932   4.528   0.278  1.5376  0.7614 -0.3538
 6837SOL     OW21409   1.948   3.027   4.035 -0.2228 -0.3750  0.2691
 6837SOL    HW121410   1.918   3.001   3.943  1.1501 -3.6178  0.5969
 6837SOL    HW221411   2.025   3.090   4.028 -0.8286  0.2864 -0.7362
 6838SOL     OW21412   2.318   6.289   0.476 -0.1285 -0.0629  0.2412
 6838SOL    HW121413   2.233   6.256   0.516 -0.6697  0.0729 -0.7670
 6838SOL    HW221414   2.382   6.213   0.465 -0.2938 -0.2497  0.5628
 6839SOL     OW21415   4.268   1.751   6.106  0.1424 -0.2901 -0.1185
 6839SOL    HW121416   4.323   1.695   6.168  2.6988  0.4721 -1.5412
 6839SOL    HW221417   4.245   1.838   6.151 -1.1500 -1.1469  0.9675
 6840SOL     OW21418   1.166   2.387   4.939  0.0907 -0.3048  0.5183
 6840SOL    HW121419   1.214   2.472   4.959 -4.0270  2.0943  1.5093
 6840SOL    HW221420   1.122   2.394   4.850  0.3934 -1.8107  0.2277
 6841SOL     OW21421   3.320   3.966   6.808  0.8141 -0.3185 -0.5264
 6841SOL    HW121422   3.296   4.063   6.797  1.2213 -0.2721 -1.0830
 6841SOL    HW221423   3.353   3.930   6.720  0.3025 -1.0660 -0.4254
 6842SOL     OW21424   3.082   2.610   0.447  0.4977  0.3915  0.5619
 6842SOL    HW121425   3.056   2.681   0.381  1.5711 -0.7558 -1.1703
 6842SOL    HW221426   3.024   2.619   0.528  0.4529  3.0864  0.3436
 6843SOL     OW21427   6.139   0.068   1.333  0.2730  0.1123 -0.0417
 6843SOL    HW121428   6.148  -0.028   1.309 -0.5142  0.3674 -1.4789
 6843SOL    HW221429   6.132   0.077   1.433 -3.8819 -1.7600  0.0673
 6844SOL     OW21430   4.968   0.621   5.239 -0.0036 -0.2099  0.7478
 6844SOL    HW121431   4.946   0.695   5.302 -1.8841 -1.1090  1.2342
 6844SOL    HW221432   5.010   0.546   5.289  2.5931  0.7338  0.1368
 6845SOL     OW21433   5.587   2.902   3.383  0.2052 -0.3586 -0.1361
 6845SOL    HW121434   5.594   2.855   3.295 -0.4391 -2.1845  0.7295
 6845SOL    HW221435   5.679   2.921   3.418  0.5804 -2.5728  0.2482
 6846SOL     OW21436   3.655   3.585   6.126  0.3060  0.1028 -0.0428
 6846SOL    HW121437   3.738   3.573   6.071  1.1927 -1.9147  1.5851
 6846SOL    HW221438   3.575   3.562   6.071  1.0673 -0.7859 -0.8256
 6847SOL     OW21439   0.481   4.053   4.187  0.3388  0.3649  0.0292
 6847SOL    HW121440   0.497   4.150   4.202  0.5886  0.5077 -1.0626
 6847SOL    HW221441   0.561   4.001   4.214  0.6605  0.5807 -0.4977
 6848SOL     OW21442   5.368   3.828   2.647 -0.1819 -0.0862  0.3054
 6848SOL    HW121443   5.384   3.741   2.600  0.4510 -1.2490  2.5377
 6848SOL    HW221444   5.313   3.813   2.728  0.3707  1.5330  1.0331
 6849SOL     OW21445   1.932   3.484   5.618 -0.4613 -0.9361 -0.2096
 6849SOL    HW121446   1.879   3.420   5.673  0.4393 -0.3788  1.3584
 6849SOL    HW221447   1.981   3.548   5.678  0.9889 -0.6377 -1.6329
 6850SOL     OW21448   1.706   3.275   0.771 -0.2230  0.1213 -0.3269
 6850SOL    HW121449   1.766   3.336   0.720  0.2536 -0.4306 -0.4319
 6850SOL    HW221450   1.702   3.305   0.866  1.1292 -0.4937 -0.0546
 6851SOL     OW21451   1.143   1.976   1.501  0.4833  0.4856  0.0649
 6851SOL    HW121452   1.115   2.028   1.582 -2.3608  2.4257 -1.9538
 6851SOL    HW221453   1.235   2.004   1.474  0.7252  1.2212  1.5579
 6852SOL     OW21454   3.561   5.124   0.304  0.2209  0.3505  0.6572
 6852SOL    HW121455   3.608   5.092   0.222 -0.1272 -1.2852  1.0801
 6852SOL    HW221456   3.518   5.212   0.284  1.2769  0.6503 -0.4957
 6853SOL     OW21457   4.818   3.564   5.656  0.3954 -0.2283  0.3231
 6853SOL    HW121458   4.791   3.476   5.618  0.7012  0.0719 -0.6132
 6853SOL    HW221459   4.793   3.637   5.592  0.7596  0.3058  0.7805
 6854SOL     OW21460   0.141   1.427   5.042  0.2281  0.6281 -0.8520
 6854SOL    HW121461   0.108   1.492   5.111 -0.4871  0.4690 -1.0363
 6854SOL    HW221462   0.163   1.340   5.086 -0.9715  0.2721 -0.9196
 6855SOL     OW21463   3.098   6.529   2.666 -0.5651  0.8972  0.3060
 6855SOL    HW121464   3.057   6.575   2.745 -0.7966 -0.6821  1.1363
 6855SOL    HW221465   3.026   6.501   2.603 -0.5008  0.7985  0.2771
 6856SOL     OW21466   0.925   3.094   0.014  0.0713 -0.0306  0.1689
 6856SOL    HW121467   0.982   3.101  -0.068 -1.3295  0.2456 -0.8131
 6856SOL    HW221468   0.837   3.138  -0.002 -0.1713  0.2142  1.9059
 6857SOL     OW21469   0.628   3.831   4.515  0.0952 -0.8404  0.4195
 6857SOL    HW121470   0.628   3.862   4.610  0.9598  1.4573 -0.2722
 6857SOL    HW221471   0.534   3.834   4.480  0.2929  3.0447 -0.1499
 6858SOL     OW21472   3.488   3.377   0.559 -0.0698  0.1714  0.1014
 6858SOL    HW121473   3.584   3.358   0.574  0.2660  1.8565  0.3410
 6858SOL    HW221474   3.432   3.303   0.597  1.0261  0.4801  2.4758
 6859SOL     OW21475   1.417   1.102   0.413  0.2060 -0.2907 -0.7451
 6859SOL    HW121476   1.351   1.040   0.371 -0.3981  1.4708 -2.5220
 6859SOL    HW221477   1.445   1.171   0.347  1.1982  1.0806  1.0127
 6860SOL     OW21478   6.930   4.872   2.513 -0.2264  0.4413  0.1007
 6860SOL    HW121479   6.865   4.917   2.452  1.8345  2.1597 -0.9745
 6860SOL    HW221480   6.924   4.913   2.604 -2.3145 -1.1619  0.7842
 6861SOL     OW21481   5.563   4.198   1.523 -0.6278 -0.1202 -0.4470
 6861SOL    HW121482   5.568   4.285   1.572 -0.1836 -1.2969  1.7084
 6861SOL    HW221483   5.478   4.151   1.546  0.6840 -1.8050  1.2633
 6862SOL     OW21484   0.259   5.630   0.458  0.1721 -0.4796  0.1481
 6862SOL    HW121485   0.357   5.620   0.446  0.7423 -0.6684  3.7460
 6862SOL    HW221486   0.220   5.542   0.489 -1.0231 -0.2406 -0.6112
 6863SOL     OW21487   6.128   5.714   5.514 -0.2560  0.4223  0.3936
 6863SOL    HW121488   6.223   5.743   5.505 -1.0292  2.9567 -0.1346
 6863SOL    HW221489   6.119   5.657   5.596  1.6419  0.2987  0.5665
 6864SOL     OW21490   2.991   5.336   4.160 -0.2172 -0.2833  0.0134
 6864SOL    HW121491   2.976   5.349   4.062 -0.7369  0.9367  0.2273
 6864SOL    HW221492   3.068   5.274   4.175  0.3493  0.1029 -1.1738
 6865SOL     OW21493   2.367   2.452   5.785 -0.4219  0.0622  0.0327
 6865SOL    HW121494   2.326   2.506   5.859  1.7182  1.4628  0.2800
 6865SOL    HW221495   2.330   2.483   5.698 -0.3220  0.9135  0.2841
 6866SOL     OW21496   5.476   5.815   2.239  0.8303 -0.5700 -0.1017
 6866SOL    HW121497   5.456   5.854   2.150  1.8095 -0.5724 -0.3240
 6866SOL    HW221498   5.390   5.797   2.287  0.3253  0.2977 -0.6595
 6867SOL     OW21499   4.173   3.354   6.183  0.0951 -0.2259 -0.0416
 6867SOL    HW121500   4.091   3.409   6.200  0.9270  1.5817 -1.4845
 6867SOL    HW221501   4.180   3.333   6.086  0.8499 -1.2129  0.2050
 6868SOL     OW21502   3.440   6.603   5.180  0.5001  0.3245  0.0511
 6868SOL    HW121503   3.363   6.614   5.117  0.0580 -2.2832  0.0278
 6868SOL    HW221504   3.452   6.687   5.233 -1.5988  1.2107 -0.7706
 6869SOL     OW21505   6.139   1.493   5.860  0.2428 -0.6555  0.9274
 6869SOL    HW121506   6.173   1.513   5.952  1.4342  0.1671  0.3284
 6869SOL    HW221507   6.194   1.542   5.793 -0.9858 -0.7699 -0.1983
 6870SOL     OW21508   0.961   4.285   1.627  0.6276 -0.4087 -0.5544
 6870SOL    HW121509   1.017   4.324   1.700  0.3930 -0.8819 -0.1169
 6870SOL    HW221510   0.992   4.321   1.539  1.0801 -0.0305 -0.2480
 6871SOL     OW21511   6.844   3.033   2.047  0.9232 -0.4817 -0.2801
 6871SOL    HW121512   6.838   3.096   1.970 -0.4411 -0.9597 -0.6020
 6871SOL    HW221513   6.789   3.068   2.123 -0.9572 -1.8703 -0.9288
 6872SOL     OW21514   1.740   5.635   1.287 -0.2064  0.6267  1.0262
 6872SOL    HW121515   1.757   5.636   1.386 -0.3114  2.9639  1.0699
 6872SOL    HW221516   1.662   5.694   1.266 -0.4087 -0.1138 -0.4458
 6873SOL     OW21517   1.288   6.417   4.841 -0.4685  0.1066  0.2893
 6873SOL    HW121518   1.356   6.346   4.825 -0.5003  0.2962 -0.7313
 6873SOL    HW221519   1.230   6.390   4.918 -0.3089 -0.8344  0.0941
 6874SOL     OW21520   0.477   5.632   2.429  0.2608 -0.1668 -0.1675
 6874SOL    HW121521   0.538   5.690   2.374 -0.3602  0.9000  0.2443
 6874SOL    HW221522   0.425   5.689   2.492  0.2051 -1.2712  0.8201
 6875SOL     OW21523   3.409   3.421   1.135  0.2104  0.2422 -0.6308
 6875SOL    HW121524   3.392   3.516   1.109  2.5656  0.5058 -1.4111
 6875SOL    HW221525   3.434   3.416   1.231 -1.2295  0.1974 -0.2313
 6876SOL     OW21526   2.706   0.154   4.149 -0.3392  0.2552 -0.3707
 6876SOL    HW121527   2.698   0.251   4.127  0.1149  0.8884  1.9626
 6876SOL    HW221528   2.796   0.121   4.123 -0.8027  0.2010 -1.9772
 6877SOL     OW21529   3.855   3.058   1.311 -0.1879 -0.0853  0.3608
 6877SOL    HW121530   3.863   3.068   1.410  0.5608 -0.2955  0.3269
 6877SOL    HW221531   3.931   3.003   1.277 -0.1164  0.4826 -0.4136
 6878SOL     OW21532   2.334   2.780   4.431 -0.7058 -0.0986 -0.0483
 6878SOL    HW121533   2.397   2.735   4.369 -0.9149  0.1815 -0.4678
 6878SOL    HW221534   2.255   2.720   4.447 -0.3403 -0.4566  0.4903
 6879SOL     OW21535   3.132   1.611   0.777 -0.6374 -0.4335  0.0023
 6879SOL    HW121536   3.109   1.701   0.815  0.4782 -0.2009  0.1653
 6879SOL    HW221537   3.146   1.620   0.678 -3.9340 -1.1123 -0.6387
 6880SOL     OW21538   0.726   6.116   0.136 -0.5671 -0.9510  0.5165
 6880SOL    HW121539   0.645   6.161   0.100 -0.8843 -1.0318  1.1161
 6880SOL    HW221540   0.807   6.148   0.087 -0.8248  0.0107  0.6990
 6881SOL     OW21541   0.386   2.662   1.456 -0.3235  0.7188  0.0313
 6881SOL    HW121542   0.435   2.649   1.542 -0.7334  2.0370  0.4917
 6881SOL    HW221543   0.447   2.708   1.390 -0.3437  0.6684 -0.0222
 6882SOL     OW21544   1.950   0.819   6.572  0.2603  0.7516 -0.0578
 6882SOL    HW121545   1.930   0.786   6.664  2.5909  1.3563  0.7300
 6882SOL    HW221546   1.887   0.776   6.506 -0.7988 -0.4359  1.6613
 6883SOL     OW21547   6.452   1.984   5.681  0.8459 -0.1832 -0.6153
 6883SOL    HW121548   6.529   2.048   5.674  0.1340  0.9425  1.1693
 6883SOL    HW221549   6.483   1.900   5.726  1.3675 -0.3679 -1.3005
 6884SOL     OW21550   1.551   1.999   3.034 -0.0826 -0.0711 -0.3172
 6884SOL    HW121551   1.650   2.002   3.017 -0.0320 -0.1156 -0.0455
 6884SOL    HW221552   1.502   2.011   2.948  0.1515  0.9597 -0.3176
 6885SOL     OW21553   5.809   6.245   4.132  0.3607 -0.4122 -0.0290
 6885SOL    HW121554   5.717   6.208   4.140  0.3475 -0.2081  0.8643
 6885SOL    HW221555   5.868   6.204   4.202 -0.1734  2.7959  2.5054
 6886SOL     OW21556   0.170   1.922   3.968 -0.1647  0.1074 -0.5335
 6886SOL    HW121557   0.231   1.927   3.889 -0.6975 -1.8440 -1.1340
 6886SOL    HW221558   0.094   1.860   3.947  0.3292 -1.4604  1.8948
 6887SOL     OW21559   4.200   4.188   1.656  0.4223  0.4296  0.2146
 6887SOL    HW121560   4.280   4.191   1.716 -0.1574 -0.5364  1.0582
 6887SOL    HW221561   4.197   4.272   1.601  1.2213  1.1360  1.2008
 6888SOL     OW21562   5.358   4.881   6.793  0.4288  0.1411 -0.4032
 6888SOL    HW121563   5.316   4.939   6.862  1.1688  0.9176 -0.5960
 6888SOL    HW221564   5.380   4.792   6.834  0.5402  0.4706  0.2743
 6889SOL     OW21565   0.850   1.222   6.918  0.3952  0.1000 -0.7355
 6889SOL    HW121566   0.876   1.196   6.824 -0.2328  0.0623 -0.9005
 6889SOL    HW221567   0.853   1.321   6.927  2.5851  0.0412 -0.1648
 6890SOL     OW21568   3.262   4.923   2.936 -0.3034 -1.1089 -0.2087
 6890SOL    HW121569   3.347   4.892   2.978 -0.0968 -0.8089 -0.3903
 6890SOL    HW221570   3.283   4.960   2.845 -0.2271  1.3106  0.7246
 6891SOL     OW21571   0.996   3.217   1.775  0.0123  0.1109 -0.6470
 6891SOL    HW121572   1.030   3.195   1.867  0.6267 -0.1018 -0.9187
 6891SOL    HW221573   1.013   3.313   1.755  0.2473  0.0650 -0.6827
 6892SOL     OW21574   4.482   2.558   4.799  0.2594 -0.0656  0.4574
 6892SOL    HW121575   4.468   2.624   4.873  0.2007 -0.1318  0.5053
 6892SOL    HW221576   4.549   2.490   4.827 -0.0710 -0.3331  0.6090
 6893SOL     OW21577   5.601   3.003   6.722  0.2862  0.4155 -0.5240
 6893SOL    HW121578   5.609   3.102   6.713 -1.5292  0.8798  1.9275
 6893SOL    HW221579   5.616   2.976   6.817  0.1047 -1.5909 -1.0169
 6894SOL     OW21580   4.572   4.399   2.602  0.0990  0.2000 -0.1296
 6894SOL    HW121581   4.636   4.332   2.565 -0.2298 -0.2780  0.1686
 6894SOL    HW221582   4.521   4.440   2.527 -0.7826 -0.9905 -0.1990
 6895SOL     OW21583   2.638   6.685   6.280  0.8838  0.0273 -0.0789
 6895SOL    HW121584   2.647   6.637   6.368  0.1903  0.6006  0.3084
 6895SOL    HW221585   2.649   6.619   6.205  1.0643 -0.5385  0.4379
 6896SOL     OW21586   1.741   1.372   3.204 -0.8072  0.6111 -0.3163
 6896SOL    HW121587   1.825   1.333   3.164 -0.5645  0.7615  0.0470
 6896SOL    HW221588   1.666   1.361   3.139 -0.6141  0.0383 -0.4522
 6897SOL     OW21589   5.634   3.076   5.261 -0.3745  0.0092 -0.3587
 6897SOL    HW121590   5.539   3.104   5.244 -0.2123  1.3743  0.8315
 6897SOL    HW221591   5.693   3.114   5.191 -0.4793  0.7317 -0.0693
 6898SOL     OW21592   3.818   1.504   3.375 -0.2642  0.6151  0.2770
 6898SOL    HW121593   3.804   1.429   3.310 -1.5453 -1.0800  2.3503
 6898SOL    HW221594   3.781   1.588   3.337  1.4215  0.3250 -2.2239
 6899SOL     OW21595   4.469   6.323   2.644  0.2426  0.2401 -0.3440
 6899SOL    HW121596   4.378   6.363   2.650 -0.0271 -0.3809 -0.1951
 6899SOL    HW221597   4.472   6.256   2.571  0.8395  0.8888 -0.9324
 6900SOL     OW21598   6.049   3.939   4.708  0.2111  0.1903  0.5793
 6900SOL    HW121599   6.008   4.026   4.680  1.5078  0.6319 -0.0143
 6900SOL    HW221600   6.109   3.955   4.786  0.3984 -0.1794  0.5099
 6901SOL     OW21601   6.148   4.970   0.937  0.1449 -0.4582  0.5736
 6901SOL    HW121602   6.186   5.062   0.946  1.0907 -0.7115 -0.5171
 6901SOL    HW221603   6.186   4.927   0.855  0.5281 -2.2110  1.6310
 6902SOL     OW21604   6.492   6.249   5.402 -0.0110 -0.2748  0.1365
 6902SOL    HW121605   6.496   6.158   5.444  0.3874  0.4134  1.6163
 6902SOL    HW221606   6.503   6.319   5.472  2.2761  0.8952 -1.2675
 6903SOL     OW21607   3.871   5.079   4.357 -0.1320  0.3139 -0.3074
 6903SOL    HW121608   3.802   5.045   4.293  0.0416  1.4434 -1.1363
 6903SOL    HW221609   3.959   5.086   4.309  0.1572  0.5466  0.2545
 6904SOL     OW21610   6.758   6.991   0.486  0.4984  0.7451 -0.0751
 6904SOL    HW121611   6.762   7.085   0.454  0.5186  0.2477 -1.6398
 6904SOL    HW221612   6.688   6.941   0.434 -0.4199  0.2000  1.6144
 6905SOL     OW21613   5.328   4.431   0.765  0.1908  0.1024  0.0021
 6905SOL    HW121614   5.341   4.461   0.860  2.1070  1.1901 -0.5611
 6905SOL    HW221615   5.280   4.343   0.765  0.2273  0.0296  1.9801
 6906SOL     OW21616   4.526   2.076   3.031  0.1252  0.2155  0.1018
 6906SOL    HW121617   4.593   2.010   2.996 -0.0743  0.0844 -0.0351
 6906SOL    HW221618   4.565   2.126   3.109  0.4761  0.3237 -0.1420
 6907SOL     OW21619   0.575   1.891   3.586 -0.2890  0.3714 -0.4081
 6907SOL    HW121620   0.650   1.872   3.522 -0.7248 -0.7091 -0.6128
 6907SOL    HW221621   0.568   1.990   3.599 -0.5219  0.6736 -2.4343
 6908SOL     OW21622   1.434   4.639   5.997  0.2261  0.4341  0.0857
 6908SOL    HW121623   1.521   4.617   5.955  1.6580 -1.6336  3.7240
 6908SOL    HW221624   1.367   4.659   5.926  2.6284 -1.6998 -3.0321
 6909SOL     OW21625   6.671   4.463   2.785 -0.3565 -0.0994 -0.4187
 6909SOL    HW121626   6.673   4.393   2.713 -1.7815 -0.3125 -0.2966
 6909SOL    HW221627   6.730   4.539   2.759  3.0454 -2.2448  0.4748
 6910SOL     OW21628   0.841   3.964   3.276 -0.1972 -0.0509  0.1206
 6910SOL    HW121629   0.835   3.910   3.192 -1.9671  0.5325 -0.1859
 6910SOL    HW221630   0.865   3.905   3.352 -0.1350 -0.8944 -0.5399
 6911SOL     OW21631   3.813   1.296   4.304  0.3239 -0.1862  0.0766
 6911SOL    HW121632   3.755   1.377   4.305  0.6130  0.0205  1.0380
 6911SOL    HW221633   3.851   1.281   4.396 -1.5935 -2.7434  0.5671
 6912SOL     OW21634   0.261   1.676   0.254  0.2928 -0.4219 -0.2869
 6912SOL    HW121635   0.313   1.595   0.231  0.5679 -0.5613  0.7694
 6912SOL    HW221636   0.293   1.753   0.199 -0.7336 -1.2441 -2.1148
 6913SOL     OW21637   6.331   0.604   3.432  0.1954 -0.1162  0.1489
 6913SOL    HW121638   6.396   0.556   3.374  1.9192 -0.1457  1.9927
 6913SOL    HW221639   6.309   0.547   3.512 -0.9423  0.5064  0.3002
 6914SOL     OW21640   5.601   4.229   3.419  0.7988 -1.0506  0.4889
 6914SOL    HW121641   5.562   4.254   3.507 -1.0506 -0.9484 -0.3146
 6914SOL    HW221642   5.528   4.217   3.352  2.0895 -1.9946 -0.8279
 6915SOL     OW21643   1.001   2.833   1.312 -0.0862  0.2433  0.1062
 6915SOL    HW121644   1.081   2.890   1.331  0.5158 -0.1280 -1.1646
 6915SOL    HW221645   1.025   2.737   1.326  0.5621 -0.1067 -2.7632
 6916SOL     OW21646   5.328   3.312   4.425 -0.0365 -0.1354 -0.2178
 6916SOL    HW121647   5.271   3.273   4.353  1.0138  0.7258 -1.5673
 6916SOL    HW221648   5.384   3.240   4.467 -2.1218 -1.0144  1.2120
 6917SOL     OW21649   5.937   5.786   2.089  0.1904 -0.3625 -0.3433
 6917SOL    HW121650   5.891   5.863   2.132  1.7424 -0.0037  0.7332
 6917SOL    HW221651   6.003   5.819   2.022  0.6085 -0.7569 -0.1348
 6918SOL     OW21652   1.418   1.541   3.954 -0.7064 -0.1930  0.4401
 6918SOL    HW121653   1.406   1.570   3.859 -1.8012  2.6795  1.3394
 6918SOL    HW221654   1.480   1.604   4.001 -0.3430 -1.4352  1.6962
 6919SOL     OW21655   6.863   0.100   4.895 -0.1988  0.3338  0.2718
 6919SOL    HW121656   6.941   0.153   4.929 -0.4694 -0.4661  2.3124
 6919SOL    HW221657   6.821   0.050   4.972 -3.4507  1.6421 -0.4887
 6920SOL     OW21658   6.212   1.084   5.117 -0.1126  0.2993  0.4042
 6920SOL    HW121659   6.153   1.087   5.197 -0.8275 -0.5073 -0.0743
 6920SOL    HW221660   6.156   1.081   5.034  0.5751 -0.7969 -0.0507
 6921SOL     OW21661   3.998   0.250   4.104  0.4272  0.6212  0.1161
 6921SOL    HW121662   4.002   0.325   4.038  3.3911 -0.6678 -1.3828
 6921SOL    HW221663   4.081   0.251   4.161 -0.8746  0.1790  2.1473
 6922SOL     OW21664   2.966   5.918   5.521  0.1705  0.5158 -0.3701
 6922SOL    HW121665   2.900   5.928   5.447 -0.8187  2.0081  0.6476
 6922SOL    HW221666   3.059   5.917   5.483 -0.3749 -1.5152 -1.8123
 6923SOL     OW21667   6.746   6.280   1.116 -0.1470  0.2490  0.3201
 6923SOL    HW121668   6.742   6.355   1.049 -1.5453 -1.2491 -1.3445
 6923SOL    HW221669   6.838   6.241   1.115  0.0831  0.7732 -0.1165
 6924SOL     OW21670   3.159   4.516   0.474 -0.3097  0.6162 -0.1703
 6924SOL    HW121671   3.253   4.519   0.440 -0.0988 -0.3447  0.2774
 6924SOL    HW221672   3.137   4.422   0.500 -0.9802  1.0516  0.8955
 6925SOL     OW21673   5.170   5.557   5.419 -0.5952  0.2833 -0.5373
 6925SOL    HW121674   5.187   5.641   5.470  0.8955 -0.6370  0.5558
 6925SOL    HW221675   5.253   5.532   5.368 -1.0727 -0.4271 -0.9801
 6926SOL     OW21676   0.801   1.213   0.804  0.0921 -0.2749  0.1605
 6926SOL    HW121677   0.887   1.193   0.757  0.6896  1.9754  0.1557
 6926SOL    HW221678   0.770   1.305   0.779 -3.6908 -1.8480 -1.7702
 6927SOL     OW21679   1.189   0.982   0.089 -0.0309 -0.1194 -0.8059
 6927SOL    HW121680   1.090   0.994   0.094  0.2009  1.5810  1.2027
 6927SOL    HW221681   1.234   1.071   0.100  1.7405 -1.0544 -0.0737
 6928SOL     OW21682   0.375   5.536   6.741 -0.6117 -0.3690  0.1104
 6928SOL    HW121683   0.322   5.460   6.704  1.5205 -1.0695 -1.7488
 6928SOL    HW221684   0.453   5.500   6.793  0.0730  0.5232 -0.2670
 6929SOL     OW21685   4.372   6.281   1.125 -0.0906 -0.1444 -0.1168
 6929SOL    HW121686   4.338   6.241   1.039 -0.8353  1.8820 -0.8039
 6929SOL    HW221687   4.368   6.212   1.197  0.1017 -1.7613 -1.5749
 6930SOL     OW21688   1.938   1.320   1.370 -0.3186  0.0297  0.6607
 6930SOL    HW121689   2.013   1.274   1.323 -0.0842 -0.0156  1.0676
 6930SOL    HW221690   1.963   1.334   1.466 -0.4506  0.8597  0.5809
 6931SOL     OW21691   6.215   2.942   2.362 -0.0519  0.2111  0.0976
 6931SOL    HW121692   6.277   3.017   2.338  0.4688 -0.4403 -0.6570
 6931SOL    HW221693   6.268   2.860   2.382 -0.5024  0.5134  2.9017
 6932SOL     OW21694   5.627   5.665   2.412 -0.0912 -0.4397 -0.0995
 6932SOL    HW121695   5.575   5.715   2.344  0.7353  1.9572  0.9143
 6932SOL    HW221696   5.576   5.662   2.498  1.1334  1.5209  0.7663
 6933SOL     OW21697   2.696   6.179   6.117  0.5293 -0.1411  0.6433
 6933SOL    HW121698   2.747   6.110   6.065  0.6995  0.0310  0.5791
 6933SOL    HW221699   2.646   6.134   6.192  0.4699 -0.3596  0.4736
 6934SOL     OW21700   4.785   2.065   0.481  0.6139 -0.6033 -0.5566
 6934SOL    HW121701   4.872   2.046   0.528 -0.1722  0.5622  1.5323
 6934SOL    HW221702   4.717   1.998   0.509  0.6068 -1.0256 -1.5528
 6935SOL     OW21703   2.981   4.884   2.708  0.5638  0.5917  0.6585
 6935SOL    HW121704   3.077   4.910   2.709  0.6774  0.5888 -2.1825
 6935SOL    HW221705   2.949   4.875   2.613 -2.3242  0.8628  1.4912
 6936SOL     OW21706   0.210   1.863   4.489 -0.0132  0.7283 -0.4696
 6936SOL    HW121707   0.149   1.882   4.412  0.0149  0.2066 -0.6292
 6936SOL    HW221708   0.275   1.938   4.500  0.4130  0.5215 -1.3787
 6937SOL     OW21709   5.359   5.931   6.078  0.4049 -0.3302  0.3181
 6937SOL    HW121710   5.428   6.003   6.068  1.5280 -1.5854 -1.4253
 6937SOL    HW221711   5.280   5.952   6.020 -1.1701  1.4918  2.8647
 6938SOL     OW21712   6.664   2.148   5.052 -0.4611  0.0535 -0.1423
 6938SOL    HW121713   6.749   2.105   5.021 -0.5337 -0.0438 -0.2100
 6938SOL    HW221714   6.637   2.219   4.987  0.7328  1.6279  1.0034
 6939SOL     OW21715   5.209   4.459   2.537 -0.1937  0.1284  0.4887
 6939SOL    HW121716   5.233   4.485   2.443 -2.7417  1.5875  0.1411
 6939SOL    HW221717   5.262   4.514   2.601 -0.9492  1.7558 -0.2035
 6940SOL     OW21718   2.703   4.188   0.180 -0.1566 -0.4193  0.0883
 6940SOL    HW121719   2.762   4.267   0.165 -2.9541  1.6292 -1.1240
 6940SOL    HW221720   2.627   4.215   0.240 -2.4640 -1.4036 -2.2120
 6941SOL     OW21721   3.268   3.784   2.184 -0.0058 -0.0489  0.5040
 6941SOL    HW121722   3.173   3.796   2.156  0.1802 -1.2680 -0.8194
 6941SOL    HW221723   3.271   3.752   2.279 -0.7990  1.6812  1.1552
 6942SOL     OW21724   5.752   0.289   2.156 -0.8383  0.1787  0.1219
 6942SOL    HW121725   5.707   0.378   2.161 -0.7019  0.1983  1.3576
 6942SOL    HW221726   5.723   0.233   2.233  0.0923 -0.3570  0.0949
 6943SOL     OW21727   3.310   5.550   6.843  0.4680 -0.5108 -0.0728
 6943SOL    HW121728   3.407   5.529   6.858  0.8540  0.7154 -0.6916
 6943SOL    HW221729   3.297   5.649   6.843 -1.0699 -0.6693  1.5807
 6944SOL     OW21730   4.757   3.644   6.533 -0.6957 -0.4832 -0.2109
 6944SOL    HW121731   4.820   3.571   6.505 -1.5351 -1.9191  1.4459
 6944SOL    HW221732   4.807   3.716   6.580 -0.3228 -2.1746  2.1906
 6945SOL     OW21733   0.814   2.693   6.955  0.1908  0.0137  0.0174
 6945SOL    HW121734   0.761   2.708   7.038  0.2174 -0.0064  0.0381
 6945SOL    HW221735   0.840   2.597   6.948  0.0284 -0.0214 -0.1082
 6946SOL     OW21736   4.332   5.623   1.410  0.3126 -0.3212  0.2463
 6946SOL    HW121737   4.334   5.701   1.472  1.5000 -1.0728  1.1912
 6946SOL    HW221738   4.269   5.642   1.335 -1.0427  0.6708  1.5788
 6947SOL     OW21739   6.377   3.713   1.642  0.4454 -0.0161  0.2788
 6947SOL    HW121740   6.324   3.644   1.693  1.7643 -1.7276 -0.5426
 6947SOL    HW221741   6.406   3.785   1.704 -0.9979 -0.1668  1.1829
 6948SOL     OW21742   1.787   6.174   6.583  0.1213  0.4406  0.1606
 6948SOL    HW121743   1.722   6.109   6.622 -0.5395  2.1581  2.1216
 6948SOL    HW221744   1.760   6.196   6.489 -1.9448  0.8129  0.7876
 6949SOL     OW21745   2.338   2.679   3.396  0.8062  0.4140  0.0522
 6949SOL    HW121746   2.339   2.769   3.353 -0.2184 -0.0739 -1.0281
 6949SOL    HW221747   2.251   2.664   3.442  1.2684  0.2697  0.9082
 6950SOL     OW21748   1.453   0.391   3.992 -0.1992  0.4624 -0.8014
 6950SOL    HW121749   1.497   0.447   4.062 -1.2188  1.7328 -1.1258
 6950SOL    HW221750   1.469   0.433   3.902  3.2896 -2.4589 -1.8073
 6951SOL     OW21751   6.316   5.536   6.890  0.1181 -0.0204 -0.1349
 6951SOL    HW121752   6.398   5.592   6.875 -1.2211  1.9662 -0.4918
 6951SOL    HW221753   6.281   5.506   6.801 -1.2178  1.7625 -0.2618
 6952SOL     OW21754   2.966   6.746   2.368 -0.7131 -0.1569  0.3094
 6952SOL    HW121755   2.982   6.782   2.460 -1.4071  2.2618 -0.4437
 6952SOL    HW221756   3.051   6.748   2.316  0.1729 -3.3799  1.3718
 6953SOL     OW21757   5.763   5.183   0.600  0.3033  0.1411 -0.4229
 6953SOL    HW121758   5.687   5.209   0.540  0.2712  0.1596 -0.3741
 6953SOL    HW221759   5.759   5.084   0.617  1.0144 -0.0806 -1.4293
 6954SOL     OW21760   1.009   3.988   2.579  0.2749 -0.2660 -0.1587
 6954SOL    HW121761   1.107   3.987   2.558 -0.0631 -1.1991 -1.7988
 6954SOL    HW221762   0.957   3.957   2.500 -1.3567  0.0011  0.7606
 6955SOL     OW21763   5.476   1.304   4.027 -0.0688  0.0449  0.4815
 6955SOL    HW121764   5.527   1.282   4.110 -2.0345 -1.2988  1.4157
 6955SOL    HW221765   5.454   1.401   4.025  0.0741  0.1072  1.5112
 6956SOL     OW21766   5.195   6.128   3.497  0.0574 -0.0656 -0.7130
 6956SOL    HW121767   5.234   6.064   3.564  0.6257  0.5895 -0.3988
 6956SOL    HW221768   5.138   6.078   3.432 -0.5823 -0.7135  0.3137
 6957SOL     OW21769   0.026   5.548   1.037 -0.1066 -0.2295  0.6045
 6957SOL    HW121770   0.066   5.492   0.965  0.1217  1.9087 -1.0394
 6957SOL    HW221771   0.098   5.586   1.095 -0.1145  0.0029  0.4602
 6958SOL     OW21772   3.209   3.332   4.517  0.2537  0.0459  0.2525
 6958SOL    HW121773   3.172   3.405   4.459 -1.4858  0.3898  1.7161
 6958SOL    HW221774   3.185   3.350   4.612 -1.0803 -2.9110  0.5668
 6959SOL     OW21775   1.739   2.887   2.197  0.2211 -0.0699  0.1843
 6959SOL    HW121776   1.807   2.839   2.251  1.2295 -1.9022 -2.4685
 6959SOL    HW221777   1.647   2.857   2.223  0.7129 -1.3410  0.4816
 6960SOL     OW21778   3.417   4.032   0.416 -0.8787  0.6971  0.5121
 6960SOL    HW121779   3.350   4.058   0.347 -1.2185  0.4155  0.7256
 6960SOL    HW221780   3.419   3.932   0.424  0.1928  0.6643 -0.0933
 6961SOL     OW21781   6.094   2.356   4.786  0.1815 -0.0600 -0.0942
 6961SOL    HW121782   6.085   2.292   4.710 -2.1237  1.4523 -1.2317
 6961SOL    HW221783   6.008   2.359   4.837  1.3694 -0.3088  2.0160
 6962SOL     OW21784   5.680   4.627   2.042 -0.1240  0.1032  0.0281
 6962SOL    HW121785   5.649   4.677   2.123 -0.6931 -0.1062 -0.0508
 6962SOL    HW221786   5.615   4.641   1.967  0.9329  1.1335 -0.7283
 6963SOL     OW21787   5.252   3.814   0.404  0.2745  0.1182  0.2131
 6963SOL    HW121788   5.294   3.808   0.494  0.3223 -1.3694  0.1255
 6963SOL    HW221789   5.179   3.883   0.405 -1.2117 -1.3652  2.0465
 6964SOL     OW21790   4.062   0.059   5.661  0.5282 -0.0619 -0.2318
 6964SOL    HW121791   4.029   0.077   5.569 -2.3116 -1.1457  0.4663
 6964SOL    HW221792   4.139  -0.004   5.657 -0.9887 -1.9716 -1.8549
 6965SOL     OW21793   2.158   2.350   0.677  0.3421 -0.3596  0.3819
 6965SOL    HW121794   2.109   2.343   0.590  0.8398  1.6843 -0.1284
 6965SOL    HW221795   2.167   2.260   0.718  0.9514 -1.5618 -2.1880
 6966SOL     OW21796   2.016   6.864   1.294  0.6340 -0.3271  0.2831
 6966SOL    HW121797   1.970   6.867   1.205  0.9720 -0.0151  0.1133
 6966SOL    HW221798   1.949   6.864   1.367  0.3533 -0.5135  0.0286
 6967SOL     OW21799   4.748   1.138   5.410 -0.4976  0.0409 -0.2886
 6967SOL    HW121800   4.691   1.058   5.389 -0.7363  0.8112 -2.9493
 6967SOL    HW221801   4.703   1.220   5.376  1.1861  0.9443 -0.4252
 6968SOL     OW21802   3.643   1.263   2.253  0.2870 -0.0321  0.2094
 6968SOL    HW121803   3.713   1.294   2.318  0.1436  1.2438 -0.2232
 6968SOL    HW221804   3.631   1.332   2.181 -0.3124 -0.9439 -0.5908
 6969SOL     OW21805   2.672   1.317   0.549  0.5081 -0.8080 -0.2082
 6969SOL    HW121806   2.596   1.365   0.504 -1.7456 -2.4124  1.6369
 6969SOL    HW221807   2.727   1.270   0.480 -1.8845 -1.9100 -1.5095
 6970SOL     OW21808   3.837   4.139   4.989 -0.8352  0.5480  0.6592
 6970SOL    HW121809   3.901   4.178   5.055 -0.7072 -0.1180  0.9404
 6970SOL    HW221810   3.875   4.055   4.951 -0.4783  1.4277 -1.0090
 6971SOL     OW21811   5.281   3.220   6.267  0.7686 -0.2754  0.8273
 6971SOL    HW121812   5.239   3.178   6.348 -0.8420 -0.6291 -0.1529
 6971SOL    HW221813   5.214   3.278   6.221  1.6040 -0.2174 -0.3529
 6972SOL     OW21814   5.503   2.642   0.722 -0.2052  0.1755  0.2989
 6972SOL    HW121815   5.417   2.628   0.673 -0.2808  0.2890  0.3992
 6972SOL    HW221816   5.533   2.736   0.709 -1.3196  0.8447  2.2047
 6973SOL     OW21817   2.605   1.626   3.985  0.2113 -0.4280  0.8748
 6973SOL    HW121818   2.522   1.650   3.935  0.2479 -1.4522  0.2779
 6973SOL    HW221819   2.594   1.648   4.082 -0.6494 -0.3049  0.7554
 6974SOL     OW21820   3.506   3.490   3.030  0.3649  0.0998 -0.7099
 6974SOL    HW121821   3.503   3.511   2.933  0.4575  1.7990 -0.3784
 6974SOL    HW221822   3.450   3.556   3.080 -0.2942 -1.1861  0.3454
 6975SOL     OW21823   2.030   6.986   5.992 -0.1727 -0.3596  0.3648
 6975SOL    HW121824   2.057   6.893   6.016 -1.1651 -0.5915  0.5937
 6975SOL    HW221825   1.958   6.984   5.923 -1.2529  0.2003  1.4498
 6976SOL     OW21826   6.370   3.147   4.153 -0.1688  0.4581  0.3252
 6976SOL    HW121827   6.384   3.199   4.068  0.1029  3.1367  1.9031
 6976SOL    HW221828   6.330   3.207   4.222 -0.0903 -1.5626  2.2138
 6977SOL     OW21829   2.992   3.181   2.925  0.7274  0.4600  0.0977
 6977SOL    HW121830   2.917   3.207   2.987  0.9474 -1.3687  1.1889
 6977SOL    HW221831   2.965   3.202   2.831 -3.2250 -4.0339 -0.1786
 6978SOL     OW21832   5.270   2.075   1.818  0.9537  0.0622  0.2889
 6978SOL    HW121833   5.308   2.126   1.741 -0.0997  0.8009  0.2367
 6978SOL    HW221834   5.216   1.999   1.784 -0.3362  0.9708  0.2341
 6979SOL     OW21835   6.410   4.526   3.160 -0.3951 -0.2357  0.0146
 6979SOL    HW121836   6.483   4.469   3.124  1.2158  1.5717  0.2563
 6979SOL    HW221837   6.428   4.621   3.137 -0.3632  0.7990  3.6649
 6980SOL     OW21838   2.238   1.120   2.948 -0.9193 -0.4057 -0.6311
 6980SOL    HW121839   2.315   1.176   2.981  0.8673 -1.0259 -3.4089
 6980SOL    HW221840   2.225   1.043   3.010 -1.7942  1.6337  1.8897
 6981SOL     OW21841   2.341   3.018   6.002 -0.1744 -0.2878 -0.9354
 6981SOL    HW121842   2.422   3.047   5.951 -1.1471  1.6115 -1.4749
 6981SOL    HW221843   2.315   3.089   6.067 -0.5448 -1.5319  0.3362
 6982SOL     OW21844   0.656   2.665   2.813 -0.4252 -0.3295  0.5698
 6982SOL    HW121845   0.613   2.724   2.882  1.9223  1.2711  0.7763
 6982SOL    HW221846   0.594   2.654   2.736 -2.2359 -0.3270  1.9590
 6983SOL     OW21847   4.038   2.181   5.044 -0.0770 -0.2025  0.2182
 6983SOL    HW121848   4.110   2.250   5.049  0.2354 -0.5574  0.7914
 6983SOL    HW221849   3.985   2.182   5.129 -0.1539 -0.5791  0.1777
 6984SOL     OW21850   1.953   1.291   3.037 -0.0056  0.1229 -0.4393
 6984SOL    HW121851   1.994   1.253   2.955  1.1216 -1.9620  1.0128
 6984SOL    HW221852   1.979   1.388   3.045  1.9313 -0.2797 -1.2640
 6985SOL     OW21853   5.434   4.288   5.245  0.5011  0.2400 -0.3504
 6985SOL    HW121854   5.468   4.197   5.219 -1.4305 -0.4681 -0.5305
 6985SOL    HW221855   5.419   4.342   5.162 -0.4759 -0.0910 -0.4026
 6986SOL     OW21856   2.348   5.960   6.536 -0.4809 -0.1789 -0.2388
 6986SOL    HW121857   2.249   5.976   6.541 -0.5882  0.0314 -2.1958
 6986SOL    HW221858   2.388   5.970   6.627 -2.1544  0.3722  0.4795
 6987SOL     OW21859   0.863   1.645   5.679  0.1661 -0.6182  0.0139
 6987SOL    HW121860   0.854   1.744   5.688  2.2716 -0.4357  0.5631
 6987SOL    HW221861   0.931   1.611   5.744  1.0413 -2.1106 -1.5809
 6988SOL     OW21862   2.067   5.816   5.112 -0.1256 -0.0517  0.2322
 6988SOL    HW121863   2.033   5.789   5.202 -0.7109 -0.0879  0.0050
 6988SOL    HW221864   2.012   5.771   5.041  1.8062 -1.9331 -0.1655
 6989SOL     OW21865   6.444   4.863   1.203 -0.3432  0.5370 -0.0428
 6989SOL    HW121866   6.529   4.881   1.252 -0.2297 -1.7260  0.6974
 6989SOL    HW221867   6.462   4.857   1.105  0.1912  0.8751  0.0352
 6990SOL     OW21868   3.511   3.191   0.286 -0.0992 -0.8334 -0.4748
 6990SOL    HW121869   3.563   3.163   0.206 -0.1183 -0.7595 -0.5129
 6990SOL    HW221870   3.525   3.289   0.303  0.6687 -1.0443  0.1761
 6991SOL     OW21871   5.355   4.955   2.901  0.3061 -0.5782 -0.7169
 6991SOL    HW121872   5.443   4.920   2.867 -0.4592 -4.7370  0.9076
 6991SOL    HW221873   5.370   5.003   2.987  1.1740  1.1924 -1.7923
 6992SOL     OW21874   5.743   5.371   7.000  0.4848 -0.4105 -0.0068
 6992SOL    HW121875   5.842   5.378   7.004  0.4655  0.4327 -0.6729
 6992SOL    HW221876   5.704   5.460   6.974 -0.4627 -0.6468  0.5426
 6993SOL     OW21877   4.623   0.912   0.496  0.0842 -0.3032 -0.0102
 6993SOL    HW121878   4.558   0.886   0.425  1.4919 -2.9625 -0.4739
 6993SOL    HW221879   4.703   0.852   0.491  1.5747  1.3698  1.9566
 6994SOL     OW21880   1.734   0.716   4.483 -0.4885  0.1344  0.1570
 6994SOL    HW121881   1.745   0.648   4.410 -0.6612 -0.9088  1.0941
 6994SOL    HW221882   1.790   0.796   4.461  1.2584 -1.0735 -0.0505
 6995SOL     OW21883   6.059   3.764   6.908  0.2162 -0.3687 -0.3798
 6995SOL    HW121884   6.086   3.853   6.873  0.0143 -0.1567  0.0056
 6995SOL    HW221885   6.141   3.714   6.939  0.2853 -0.1574 -0.2195
 6996SOL     OW21886   2.593   1.311   6.179  0.4261 -0.2179 -0.0291
 6996SOL    HW121887   2.563   1.280   6.088 -0.0073 -1.2727  0.4513
 6996SOL    HW221888   2.693   1.303   6.185  0.5428  0.6254 -0.6781
 6997SOL     OW21889   1.393   3.608   4.531  0.0730  0.0256  0.2870
 6997SOL    HW121890   1.315   3.671   4.529  1.0317  1.2281 -0.4690
 6997SOL    HW221891   1.447   3.625   4.613 -0.0075 -0.2583  0.4009
 6998SOL     OW21892   6.711   0.544   2.928  0.2044 -0.2135  0.1826
 6998SOL    HW121893   6.645   0.471   2.948  2.3630 -2.4824 -0.5156
 6998SOL    HW221894   6.795   0.505   2.892  2.4117  2.4550  1.9980
 6999SOL     OW21895   5.573   3.363   5.664 -0.1690  0.2504 -0.0332
 6999SOL    HW121896   5.630   3.333   5.588 -1.7877 -0.5163 -0.9953
 6999SOL    HW221897   5.602   3.316   5.748  0.3290 -0.4598 -0.5867
 7000SOL     OW21898   4.944   5.751   1.804  0.8809 -0.4809 -0.5736
 7000SOL    HW121899   4.931   5.731   1.707 -0.0747 -3.5958  0.0621
 7000SOL    HW221900   4.855   5.755   1.849  1.3594 -0.3209  0.3771
 7001SOL     OW21901   6.372   3.799   6.300  0.1224  0.0938 -0.2555
 7001SOL    HW121902   6.298   3.865   6.317 -0.0052 -0.2201  0.4646
 7001SOL    HW221903   6.444   3.813   6.368 -0.8584 -1.8908  1.3103
 7002SOL     OW21904   0.671   4.025   2.913  0.1930 -0.0042  0.4865
 7002SOL    HW121905   0.623   4.073   2.840  1.9274  1.2764  0.1073
 7002SOL    HW221906   0.683   4.087   2.991  1.2688 -0.2418  0.5290
 7003SOL     OW21907   5.593   4.524   1.605  0.4800  0.1300  0.0278
 7003SOL    HW121908   5.508   4.503   1.557  0.7840  0.9052 -0.8893
 7003SOL    HW221909   5.650   4.583   1.547  1.2047  0.4406  1.0285
 7004SOL     OW21910   0.207   5.652   6.101 -0.0439 -0.0354 -0.3223
 7004SOL    HW121911   0.112   5.647   6.132 -0.6632 -2.7433 -2.2460
 7004SOL    HW221912   0.268   5.615   6.171 -0.7662 -0.8992 -0.1380
 7005SOL     OW21913   5.885   6.969   0.113  0.4832 -0.2894  0.4175
 7005SOL    HW121914   5.909   7.011   0.025  0.1279 -0.3643  0.2810
 7005SOL    HW221915   5.810   6.905   0.099 -1.7700  2.0156  1.2820
 7006SOL     OW21916   5.971   0.144   6.463  0.3421  0.7081 -0.5288
 7006SOL    HW121917   5.992   0.176   6.555 -1.2235 -0.4654  0.2747
 7006SOL    HW221918   5.873   0.156   6.444  0.7311  1.4836 -2.2813
 7007SOL     OW21919   3.464   1.955   5.613  0.3696  0.1297 -0.8930
 7007SOL    HW121920   3.410   1.989   5.536  2.5632  1.0817 -2.0936
 7007SOL    HW221921   3.457   2.019   5.690 -1.1361 -0.3908 -0.5483
 7008SOL     OW21922   0.140   5.557   5.051 -0.2634  0.2205  0.2710
 7008SOL    HW121923   0.053   5.602   5.031  0.3647  1.3220 -0.0074
 7008SOL    HW221924   0.132   5.507   5.138 -0.7464  1.4642  0.9614
 7009SOL     OW21925   3.469   5.602   2.477  0.4726 -0.3786  0.1148
 7009SOL    HW121926   3.501   5.518   2.521  1.0649 -0.3689 -0.2843
 7009SOL    HW221927   3.391   5.639   2.528 -0.8611 -2.0390 -0.6114
 7010SOL     OW21928   4.799   4.726   3.396 -0.2440 -0.0495  0.3600
 7010SOL    HW121929   4.820   4.629   3.385  1.8574  0.4830 -0.7002
 7010SOL    HW221930   4.820   4.754   3.490 -1.4866 -0.7347  0.8636
 7011SOL     OW21931   2.886   0.444   1.022 -0.0354  0.2507  0.1706
 7011SOL    HW121932   2.804   0.453   1.079  1.3788  0.8587  2.2465
 7011SOL    HW221933   2.875   0.367   0.959 -1.9347 -0.0750  0.8390
 7012SOL     OW21934   2.549   4.120   1.731  0.0904  0.4576  0.1679
 7012SOL    HW121935   2.453   4.124   1.759 -0.0548  0.7583 -0.3680
 7012SOL    HW221936   2.587   4.213   1.729  0.7315  0.2468  1.5241
 7013SOL     OW21937   3.127   0.997   6.009 -0.1609 -0.3850  0.2393
 7013SOL    HW121938   3.071   0.936   6.065 -1.5533  0.8317  0.2540
 7013SOL    HW221939   3.096   1.092   6.023  0.6179  0.1157 -1.2640
 7014SOL     OW21940   4.646   4.534   0.894 -0.1958  0.1099  0.0431
 7014SOL    HW121941   4.701   4.497   0.819  1.1015  2.6086 -0.3647
 7014SOL    HW221942   4.552   4.547   0.863 -0.3250 -1.3584 -0.2466
 7015SOL     OW21943   4.332   4.662   3.422 -0.1085 -0.2990  0.0621
 7015SOL    HW121944   4.288   4.691   3.506 -1.0699  0.2358 -0.6171
 7015SOL    HW221945   4.269   4.672   3.345  1.7725  2.4794 -1.3004
 7016SOL     OW21946   4.477   5.446   6.819  0.3482  0.3943 -0.0714
 7016SOL    HW121947   4.473   5.350   6.792  0.4132  0.2500  0.4153
 7016SOL    HW221948   4.400   5.496   6.779  0.6116  0.2571 -0.7644
 7017SOL     OW21949   1.847   2.993   2.662 -0.4484  0.0747 -0.6490
 7017SOL    HW121950   1.808   3.016   2.573 -1.4430  0.5196 -0.1158
 7017SOL    HW221951   1.914   2.920   2.651  0.6286  1.1973 -1.9845
 7018SOL     OW21952   6.718   0.917   3.469 -0.2687  0.3243  0.3581
 7018SOL    HW121953   6.666   0.864   3.535 -0.7041 -2.6510 -2.1600
 7018SOL    HW221954   6.811   0.880   3.462 -0.2178  0.6129 -0.6850
 7019SOL     OW21955   3.126   4.895   1.832 -0.1944 -0.3301 -0.1674
 7019SOL    HW121956   3.083   4.812   1.796 -1.4292  0.3208 -0.2278
 7019SOL    HW221957   3.069   4.975   1.810  0.6038  0.4542  0.5263
 7020SOL     OW21958   2.082   3.411   0.188 -0.1037 -0.3993 -0.2428
 7020SOL    HW121959   2.101   3.322   0.230  0.8686 -0.1385 -0.1030
 7020SOL    HW221960   2.069   3.480   0.259  0.3576 -0.1899 -0.3614
 7021SOL     OW21961   1.926   3.746   4.540  0.0498  0.8683 -0.2874
 7021SOL    HW121962   1.975   3.822   4.583 -0.5969  1.1196  0.0354
 7021SOL    HW221963   1.830   3.773   4.526 -0.2465  0.0270  0.0544
 7022SOL     OW21964   6.951   1.050   0.992 -0.1031 -0.1021 -0.4572
 7022SOL    HW121965   7.003   1.130   0.964 -0.9901  0.1462 -1.4504
 7022SOL    HW221966   6.863   1.049   0.945  0.3909 -2.3113 -1.4514
 7023SOL     OW21967   6.157   1.760   6.671 -0.0311 -0.2253  0.9677
 7023SOL    HW121968   6.231   1.787   6.732  0.7605 -0.1933  0.0301
 7023SOL    HW221969   6.077   1.818   6.687  0.0632 -0.3892  2.1289
 7024SOL     OW21970   3.452   2.894   2.949 -0.2413 -0.6151 -0.2174
 7024SOL    HW121971   3.367   2.943   2.967 -0.0066  0.5187 -1.9640
 7024SOL    HW221972   3.470   2.893   2.851  2.1281 -0.1515  0.1477
 7025SOL     OW21973   2.896   0.595   0.453 -0.0571 -0.0529  0.5052
 7025SOL    HW121974   2.797   0.610   0.454 -0.3906 -1.8160 -0.8268
 7025SOL    HW221975   2.916   0.505   0.492  0.6076 -1.3535 -2.5721
 7026SOL     OW21976   3.072   1.718   1.428 -0.1520 -0.0927  0.1740
 7026SOL    HW121977   3.100   1.705   1.333 -0.9612 -2.2156  0.1527
 7026SOL    HW221978   3.095   1.810   1.458  1.4757  0.1323 -1.5995
 7027SOL     OW21979   2.568   6.460   2.811 -0.3100  0.7071 -0.0140
 7027SOL    HW121980   2.479   6.506   2.813 -0.7079 -0.0505  0.2084
 7027SOL    HW221981   2.640   6.525   2.836 -0.9082  1.0959  0.7488
 7028SOL     OW21982   3.000   0.120   4.667 -0.0106 -0.2066  0.8311
 7028SOL    HW121983   3.086   0.140   4.715  1.4057 -0.3488 -1.5007
 7028SOL    HW221984   2.979   0.194   4.603  0.1344 -1.6043 -0.9211
 7029SOL     OW21985   1.554   3.315   4.802 -0.2140 -0.2590  0.0967
 7029SOL    HW121986   1.619   3.346   4.732  1.0516  1.0696  1.7846
 7029SOL    HW221987   1.511   3.230   4.771  2.2181 -1.1390 -1.1602
 7030SOL     OW21988   0.186   1.928   6.595  0.1083 -0.8295  0.6961
 7030SOL    HW121989   0.153   1.927   6.501 -0.3099  0.5883  0.8019
 7030SOL    HW221990   0.114   1.966   6.655  0.2775 -1.9111  1.6318
 7031SOL     OW21991   4.371   6.707   0.139  0.1742 -0.4287  0.4526
 7031SOL    HW121992   4.288   6.682   0.089  0.0185  3.1618 -1.3960
 7031SOL    HW221993   4.451   6.669   0.092 -0.1598  0.4618 -0.8903
 7032SOL     OW21994   2.926   6.786   1.879  0.4036  0.0125 -0.2253
 7032SOL    HW121995   3.001   6.747   1.825 -0.7225 -2.0518 -0.3809
 7032SOL    HW221996   2.896   6.871   1.835  0.4614 -0.8685 -2.0706
 7033SOL     OW21997   1.757   3.711   4.859 -0.1100 -0.2990 -0.4933
 7033SOL    HW121998   1.825   3.640   4.874 -0.1454 -0.0317  1.1982
 7033SOL    HW221999   1.783   3.793   4.911 -1.1770  0.1740 -0.6745
 7034SOL     OW22000   6.691   0.035   3.461  0.7143  0.1854  0.0697
 7034SOL    HW122001   6.634   0.082   3.529 -1.8231 -1.2960 -0.8763
 7034SOL    HW222002   6.721   0.101   3.391  1.0526  1.2034  1.1522
 7035SOL     OW22003   1.968   6.476   2.481  0.0959 -0.2343  0.6474
 7035SOL    HW122004   1.868   6.481   2.477 -0.0058 -0.7754 -4.2509
 7035SOL    HW222005   1.997   6.380   2.482  0.2506 -0.4067 -3.1752
 7036SOL     OW22006   0.414   1.544   2.050  0.2571  0.4382  0.4756
 7036SOL    HW122007   0.337   1.529   1.989  0.1691  0.0189  0.6905
 7036SOL    HW222008   0.387   1.606   2.124 -0.1657 -0.4912  1.1104
 7037SOL     OW22009   1.705   1.836   5.467  0.1038 -0.4331  0.0026
 7037SOL    HW122010   1.766   1.914   5.452 -1.2796  0.6415 -0.1392
 7037SOL    HW222011   1.707   1.776   5.387 -0.0896  0.3317 -0.5798
 7038SOL     OW22012   2.247   6.708   5.152  0.2233  0.0595 -0.0126
 7038SOL    HW122013   2.168   6.769   5.163 -0.2612 -0.5342 -0.1673
 7038SOL    HW222014   2.226   6.619   5.190  1.3420  0.3028  1.2358
 7039SOL     OW22015   1.930   6.127   4.722 -0.6663  0.2106  0.0633
 7039SOL    HW122016   1.912   6.030   4.704  1.3554  0.0032 -1.1077
 7039SOL    HW222017   1.914   6.146   4.819  0.3152 -1.6551  0.6492
 7040SOL     OW22018   4.783   1.908   4.584 -0.0744  0.1902  0.0040
 7040SOL    HW122019   4.881   1.910   4.564  0.3392 -1.6239  1.6202
 7040SOL    HW222020   4.753   1.999   4.613  1.0976  0.7835 -0.5895
 7041SOL     OW22021   1.086   2.385   2.621  0.1500  1.0109 -0.0817
 7041SOL    HW122022   1.122   2.342   2.538  0.2390  0.1767  0.3834
 7041SOL    HW222023   0.993   2.416   2.604 -0.4357 -0.6212 -0.0263
 7042SOL     OW22024   2.961   5.284   3.658 -0.2170  0.0754  0.0689
 7042SOL    HW122025   2.957   5.356   3.728  1.1156  0.8046 -0.5769
 7042SOL    HW222026   2.941   5.196   3.701  0.3582  0.5307  1.3405
 7043SOL     OW22027   1.114   5.943   2.560 -0.8416 -0.3491  0.5178
 7043SOL    HW122028   1.086   5.924   2.654 -0.8007 -1.2861  0.3507
 7043SOL    HW222029   1.038   5.921   2.498 -0.7663 -0.0194  0.3088
 7044SOL     OW22030   4.049   6.936   4.207 -0.0319  0.5631  0.0438
 7044SOL    HW122031   3.987   7.015   4.207  0.0526  0.6435  0.8281
 7044SOL    HW222032   4.118   6.949   4.278  0.3910  0.0942 -0.2785
 7045SOL     OW22033   5.743   6.010   1.784  0.3138 -0.0622 -0.0267
 7045SOL    HW122034   5.721   5.963   1.869 -1.2604  0.1816 -0.2566
 7045SOL    HW222035   5.736   5.946   1.707 -2.0278  0.4755 -0.3634
 7046SOL     OW22036   5.177   1.381   4.047 -0.3419 -0.4734  0.2003
 7046SOL    HW122037   5.229   1.450   4.097  0.7083 -0.9064 -0.2735
 7046SOL    HW222038   5.226   1.294   4.048 -1.3414 -1.0620  0.2460
 7047SOL     OW22039   0.871   1.626   1.707 -0.6932  0.4261  0.3789
 7047SOL    HW122040   0.820   1.703   1.667 -0.5546  0.6313  0.5923
 7047SOL    HW222041   0.810   1.548   1.718 -0.7355  0.3674 -0.2337
 7048SOL     OW22042   5.186   0.485   3.117  0.0041 -0.4196  0.0038
 7048SOL    HW122043   5.261   0.443   3.169  0.5677 -0.2280 -0.6356
 7048SOL    HW222044   5.223   0.560   3.061 -0.2922 -1.6459 -1.9175
 7049SOL     OW22045   4.361   6.548   1.476 -0.6797  0.1609  0.1633
 7049SOL    HW122046   4.402   6.486   1.544  2.3069  2.6542  0.8997
 7049SOL    HW222047   4.299   6.611   1.522 -2.5165 -1.1988 -0.3395
 7050SOL     OW22048   3.990   6.523   1.678  0.2266  0.7272 -0.3009
 7050SOL    HW122049   4.044   6.594   1.634  2.1156  0.0729  0.8551
 7050SOL    HW222050   4.028   6.503   1.769 -1.0966 -0.7705 -0.0302
 7051SOL     OW22051   0.111   6.024   2.317 -0.1687  0.2955  0.5796
 7051SOL    HW122052   0.189   6.019   2.255 -0.8501 -0.6749 -0.2375
 7051SOL    HW222053   0.057   6.106   2.298  0.4719  0.8154  0.9535
 7052SOL     OW22054   6.080   6.835   3.282 -0.0761 -0.2098 -0.4736
 7052SOL    HW122055   5.996   6.888   3.271 -0.2479 -0.7394 -1.9409
 7052SOL    HW222056   6.083   6.763   3.212  1.7275 -0.0086 -0.6397
 7053SOL     OW22057   1.284   4.807   3.782 -0.3290  0.1022 -0.1601
 7053SOL    HW122058   1.261   4.902   3.762  0.6433  0.3320 -0.2494
 7053SOL    HW222059   1.343   4.771   3.709 -2.4355 -1.2784 -1.2873
 7054SOL     OW22060   4.932   5.133   3.079 -0.0098 -0.4964 -0.0764
 7054SOL    HW122061   4.958   5.065   3.148 -0.8140  0.1860  0.9197
 7054SOL    HW222062   4.877   5.089   3.008  1.4334 -1.3619 -0.7148
 7055SOL     OW22063   2.385   0.407   5.690 -0.4929  0.1200  0.0248
 7055SOL    HW122064   2.454   0.478   5.677 -0.8850  0.1765 -2.3956
 7055SOL    HW222065   2.415   0.343   5.760  1.9125  0.2830 -0.7515
 7056SOL     OW22066   1.927   0.433   0.919 -0.2045  0.1143 -0.2740
 7056SOL    HW122067   1.916   0.508   0.984 -0.1200  0.4569 -0.6559
 7056SOL    HW222068   1.927   0.346   0.969  0.0043  0.3809  0.1996
 7057SOL     OW22069   3.614   6.697   2.639  0.5184 -0.0149  0.1165
 7057SOL    HW122070   3.516   6.681   2.632 -0.0036  2.1941  1.3525
 7057SOL    HW222071   3.632   6.795   2.641  2.6540 -0.3512  1.0126
 7058SOL     OW22072   5.341   3.461   0.489 -0.3172  0.0067  0.1769
 7058SOL    HW122073   5.326   3.499   0.580  0.0739 -1.0117  0.6817
 7058SOL    HW222074   5.270   3.393   0.470 -1.0989  1.0497 -0.7741
 7059SOL     OW22075   6.059   1.491   3.915  0.1299 -0.3938 -0.9721
 7059SOL    HW122076   6.113   1.535   3.987 -2.2864  1.7664 -0.3427
 7059SOL    HW222077   6.079   1.393   3.914  0.3792 -0.5028  2.5773
 7060SOL     OW22078   2.198   5.458   2.362 -0.3785  0.1365 -0.1946
 7060SOL    HW122079   2.213   5.377   2.305  0.5217 -0.8021  1.3028
 7060SOL    HW222080   2.100   5.477   2.368 -0.6344 -1.0701 -0.2871
 7061SOL     OW22081   0.127   3.528   0.369 -0.0524  0.3796 -0.1794
 7061SOL    HW122082   0.190   3.450   0.365 -1.1295 -0.5066 -0.5895
 7061SOL    HW222083   0.176   3.612   0.346  1.5468  0.1174  1.9635
 7062SOL     OW22084   3.977   1.472   3.747 -0.0483 -0.3439 -0.3695
 7062SOL    HW122085   3.911   1.432   3.810 -1.6947 -0.0484 -1.8281
 7062SOL    HW222086   3.947   1.563   3.720  2.8314  1.3984  1.6714
 7063SOL     OW22087   6.908   4.503   0.250 -0.1628  0.0561  0.2400
 7063SOL    HW122088   6.960   4.495   0.335  0.7124  0.4030 -0.2485
 7063SOL    HW222089   6.813   4.524   0.271 -0.1600 -0.7684  1.1596
 7064SOL     OW22090   4.887   1.400   6.534 -0.2757  0.0881 -0.4027
 7064SOL    HW122091   4.792   1.374   6.551 -0.2745  0.2420 -0.1606
 7064SOL    HW222092   4.907   1.485   6.581  0.3625 -0.6160  0.6494
 7065SOL     OW22093   4.389   5.239   5.486  1.3801  0.2023  0.4327
 7065SOL    HW122094   4.358   5.212   5.395  2.3086 -2.1353  0.7429
 7065SOL    HW222095   4.375   5.337   5.498 -1.6388  0.0590 -1.0556
 7066SOL     OW22096   3.733   0.907   0.017  0.0816 -0.0731  0.5822
 7066SOL    HW122097   3.703   0.968  -0.056 -3.8127  0.1218  2.0647
 7066SOL    HW222098   3.710   0.813  -0.007  1.4098 -0.3652  0.4109
 7067SOL     OW22099   1.450   4.305   6.068  0.4151 -0.2782 -0.2497
 7067SOL    HW122100   1.447   4.285   6.166 -1.6959 -0.2584 -0.2766
 7067SOL    HW222101   1.510   4.384   6.053  0.5291 -0.0923  1.0438
 7068SOL     OW22102   0.522   3.322   3.094 -0.1471 -0.0898 -0.0423
 7068SOL    HW122103   0.449   3.331   3.162  1.8527 -1.0700  2.3618
 7068SOL    HW222104   0.502   3.244   3.035 -0.7916 -0.7023  0.9485
 7069SOL     OW22105   1.339   0.951   6.662 -0.3476 -0.3121  0.4542
 7069SOL    HW122106   1.252   0.986   6.626 -0.2545 -1.8526 -1.4763
 7069SOL    HW222107   1.383   1.022   6.717 -3.0959  0.2886  2.0659
 7070SOL     OW22108   1.433   6.604   5.850 -0.2196  0.3807  0.4264
 7070SOL    HW122109   1.530   6.596   5.871  0.0472  0.9676 -0.5030
 7070SOL    HW222110   1.418   6.687   5.797 -0.9274 -0.7201 -1.1639
 7071SOL     OW22111   5.470   4.574   0.374 -0.1591 -0.2608 -0.2793
 7071SOL    HW122112   5.531   4.553   0.297 -0.8636  0.8856 -1.1883
 7071SOL    HW222113   5.503   4.656   0.421 -0.3506 -0.3157 -0.0494
 7072SOL     OW22114   1.575   4.146   5.679  0.1771 -0.1281 -0.0425
 7072SOL    HW122115   1.564   4.123   5.776  1.1462  1.1023  0.3763
 7072SOL    HW222116   1.672   4.150   5.655 -0.0316  0.2297 -0.8926
 7073SOL     OW22117   4.060   6.119   3.972 -0.3291  0.2867 -0.9300
 7073SOL    HW122118   4.019   6.034   4.004 -0.1001 -0.7648 -3.2319
 7073SOL    HW222119   4.051   6.190   4.043  0.3265 -1.8662  1.4607
 7074SOL     OW22120   1.018   1.240   1.752  0.2715  0.5643 -0.7017
 7074SOL    HW122121   1.058   1.323   1.714  0.5706  1.7484  1.9821
 7074SOL    HW222122   1.058   1.221   1.842 -0.3131 -2.1041 -0.9144
 7075SOL     OW22123   2.323   4.685   2.894 -0.1930 -0.4937  0.4313
 7075SOL    HW122124   2.239   4.735   2.914 -0.7747 -1.5580  0.6811
 7075SOL    HW222125   2.301   4.595   2.858  0.8365 -0.1039 -1.3333
 7076SOL     OW22126   0.046   4.019   0.807  0.1188 -0.0660  0.1351
 7076SOL    HW122127   0.065   4.002   0.904  0.4759 -1.1639 -0.1074
 7076SOL    HW222128   0.099   4.097   0.775 -0.3529  0.5938  0.9296
 7077SOL     OW22129   1.687   3.144   2.133 -0.9676  0.3132  0.5261
 7077SOL    HW122130   1.634   3.175   2.213 -1.0217  0.2203  0.5255
 7077SOL    HW222131   1.712   3.049   2.145  0.6126  0.7948  1.2964
 7078SOL     OW22132   5.965   5.820   6.200  0.2969  0.5018  0.3441
 7078SOL    HW122133   6.041   5.830   6.136  0.3271  2.6085  0.6236
 7078SOL    HW222134   5.968   5.730   6.243  1.5469 -0.1270 -0.9912
 7079SOL     OW22135   1.482   0.376   4.886  0.0318 -0.0513  0.3339
 7079SOL    HW122136   1.487   0.473   4.866  0.2691 -0.1043  0.1336
 7079SOL    HW222137   1.394   0.356   4.930  0.7269  0.5341  2.0289
 7080SOL     OW22138   3.628   0.911   2.469 -0.0584  0.0449  0.2130
 7080SOL    HW122139   3.727   0.898   2.465  0.8721  5.1735 -1.3766
 7080SOL    HW222140   3.599   0.921   2.565  1.6608  1.6695  0.6244
 7081SOL     OW22141   3.701   5.384   5.232 -0.5280 -0.2825 -0.3072
 7081SOL    HW122142   3.698   5.466   5.175 -1.4931  1.1707  1.7131
 7081SOL    HW222143   3.786   5.383   5.284 -0.8041 -0.1731  0.1598
 7082SOL     OW22144   5.788   2.429   1.428 -0.1795 -0.3680 -0.1823
 7082SOL    HW122145   5.850   2.443   1.506  0.1102 -3.5849  0.3207
 7082SOL    HW222146   5.709   2.489   1.437 -0.3739 -0.9094  2.8788
 7083SOL     OW22147   0.245   3.010   1.202  0.1224 -0.7374 -0.0318
 7083SOL    HW122148   0.321   3.017   1.266  0.7945 -0.9377 -0.8025
 7083SOL    HW222149   0.163   3.049   1.244  0.9591  0.7479  0.2780
 7084SOL     OW22150   6.049   5.736   3.543  0.7017 -0.2882 -0.3494
 7084SOL    HW122151   6.124   5.711   3.605 -0.8136 -1.4263  1.1326
 7084SOL    HW222152   5.999   5.814   3.582 -1.7304 -2.4906  1.2762
 7085SOL     OW22153   6.761   1.472   2.308  0.0667  0.2109 -0.6199
 7085SOL    HW122154   6.673   1.434   2.280  0.0297 -0.1474 -0.0266
 7085SOL    HW222155   6.804   1.518   2.230 -0.3677 -0.1384 -1.0671
 7086SOL     OW22156   5.401   0.690   6.669 -0.3804 -0.0055  0.0825
 7086SOL    HW122157   5.445   0.692   6.759 -0.7218 -1.2103  0.2973
 7086SOL    HW222158   5.352   0.603   6.658 -1.8376  0.8563 -0.5615
 7087SOL     OW22159   5.738   3.715   1.011  0.2272 -0.8808 -1.0062
 7087SOL    HW122160   5.670   3.678   1.074 -0.2977 -0.8714 -1.5546
 7087SOL    HW222161   5.819   3.657   1.012  1.0853  0.2249  1.2084
 7088SOL     OW22162   5.567   3.746   5.830 -0.4395  0.2993  0.1821
 7088SOL    HW122163   5.472   3.729   5.857 -0.9108  1.0931 -0.9290
 7088SOL    HW222164   5.585   3.701   5.743 -0.2750  1.4237 -0.3825
 7089SOL     OW22165   3.327   5.911   1.873 -0.3889 -0.4057  0.1081
 7089SOL    HW122166   3.300   5.851   1.948  1.9436 -0.0613  1.3145
 7089SOL    HW222167   3.379   5.989   1.910  0.0521  0.2535 -1.7853
 7090SOL     OW22168   3.234   1.573   0.211  0.2443 -0.3830 -0.6730
 7090SOL    HW122169   3.312   1.575   0.274 -0.7870  0.8116  0.6335
 7090SOL    HW222170   3.264   1.598   0.119  1.3234  0.5308 -0.0943
 7091SOL     OW22171   2.711   6.499   0.363 -0.6073  0.2702 -0.1356
 7091SOL    HW122172   2.701   6.400   0.370 -0.4115  0.1642 -1.2025
 7091SOL    HW222173   2.708   6.526   0.267  1.4965  1.0760 -0.0297
 7092SOL     OW22174   3.736   1.357   0.137 -0.6367 -0.4233  0.4584
 7092SOL    HW122175   3.794   1.352   0.218  0.6755 -1.9587 -0.5014
 7092SOL    HW222176   3.735   1.450   0.101  0.0993 -0.0807  1.3055
 7093SOL     OW22177   2.507   1.793   6.776  0.1202  0.2273 -0.1663
 7093SOL    HW122178   2.420   1.808   6.730  0.0443 -0.6644 -0.3415
 7093SOL    HW222179   2.579   1.779   6.708 -0.2060 -2.3111 -0.0996
 7094SOL     OW22180   1.585   6.859   6.036 -0.1387 -0.1270 -0.5525
 7094SOL    HW122181   1.592   6.903   6.126 -0.0815 -0.2086 -0.5164
 7094SOL    HW222182   1.663   6.887   5.979  0.6520 -1.2284 -0.0635
 7095SOL     OW22183   3.208   4.813   5.856 -0.6915  0.1461  0.1535
 7095SOL    HW122184   3.293   4.862   5.839 -0.7744  0.2090 -0.0831
 7095SOL    HW222185   3.206   4.730   5.800 -0.7242  0.0726  0.2638
 7096SOL     OW22186   5.142   0.667   1.556 -0.4435  0.4850  0.0373
 7096SOL    HW122187   5.104   0.604   1.624  2.6081  0.2427  1.6973
 7096SOL    HW222188   5.188   0.614   1.484  2.9185  0.5563  1.9052
 7097SOL     OW22189   6.416   0.639   2.960 -0.0187 -0.1869 -0.7120
 7097SOL    HW122190   6.320   0.612   2.965 -1.0016  2.9648  0.1756
 7097SOL    HW222191   6.473   0.568   3.000 -2.1140 -1.5567  0.0393
 7098SOL     OW22192   1.315   6.681   4.786 -0.6087  0.3958 -0.0857
 7098SOL    HW122193   1.397   6.725   4.823 -0.3772 -1.3145  1.5914
 7098SOL    HW222194   1.313   6.585   4.816 -3.8670  0.7052  1.0393
 7099SOL     OW22195   4.126   2.138   4.396  0.3060  0.2671 -0.3278
 7099SOL    HW122196   4.090   2.145   4.303 -1.7307 -1.9671  0.1980
 7099SOL    HW222197   4.216   2.094   4.393 -0.1723 -0.7024 -1.1925
 7100SOL     OW22198   6.871   2.480   5.953  0.0340 -0.4620 -0.0241
 7100SOL    HW122199   6.771   2.476   5.950 -0.1098  1.4687 -3.2281
 7100SOL    HW222200   6.909   2.395   5.916 -0.4173 -0.9825  0.6861
 7101SOL     OW22201   3.523   5.792   5.275  0.7333  0.0805  0.3972
 7101SOL    HW122202   3.585   5.728   5.231  0.9976 -0.2852  1.2907
 7101SOL    HW222203   3.477   5.747   5.352  0.8303  0.9182  0.9579
 7102SOL     OW22204   4.748   6.709   2.291  0.6694 -0.0577  0.0443
 7102SOL    HW122205   4.696   6.651   2.229  0.8374  0.1543 -0.2945
 7102SOL    HW222206   4.714   6.696   2.385  0.6278 -0.6096 -0.0444
 7103SOL     OW22207   4.444   5.232   1.731 -0.2959 -0.0010  0.2881
 7103SOL    HW122208   4.529   5.194   1.694 -1.0004  0.2114 -1.6629
 7103SOL    HW222209   4.370   5.220   1.664 -1.0897  2.7142  0.5814
 7104SOL     OW22210   5.398   1.574   4.019 -0.1327  0.2118 -0.0290
 7104SOL    HW122211   5.384   1.611   4.111  0.5180  0.4676 -0.0220
 7104SOL    HW222212   5.367   1.641   3.951  0.7888  0.6716 -0.0120
 7105SOL     OW22213   3.561   3.905   3.991  0.7183  0.1847 -0.0601
 7105SOL    HW122214   3.610   3.850   3.924  0.6973 -0.0485  0.1151
 7105SOL    HW222215   3.525   3.987   3.946  3.7803  1.9090  0.4214
 7106SOL     OW22216   3.255   2.133   1.814  0.1850  0.1894 -0.1413
 7106SOL    HW122217   3.185   2.107   1.881  0.7885  0.4739  0.6210
 7106SOL    HW222218   3.237   2.226   1.782  0.6242  0.5460  0.6213
 7107SOL     OW22219   5.509   0.304   6.430  0.7448 -0.1086 -0.3441
 7107SOL    HW122220   5.482   0.217   6.389 -0.6875 -0.0151  0.3104
 7107SOL    HW222221   5.504   0.296   6.530 -0.1534  0.9158 -0.2847
 7108SOL     OW22222   2.694   6.968   2.425 -0.3722 -0.4162 -0.3151
 7108SOL    HW122223   2.793   6.968   2.434 -0.2904 -0.2156 -1.1017
 7108SOL    HW222224   2.659   7.061   2.425 -0.2968 -0.3299 -2.3547
 7109SOL     OW22225   2.288   6.588   6.903 -0.0366 -0.5534 -0.2865
 7109SOL    HW122226   2.201   6.609   6.947 -0.5066  1.1215 -1.8994
 7109SOL    HW222227   2.326   6.505   6.944 -2.1754 -1.1152  0.7349
 7110SOL     OW22228   4.073   5.751   5.268  0.1464  0.3519  0.4397
 7110SOL    HW122229   4.065   5.821   5.339  0.9142  0.4385  0.4470
 7110SOL    HW222230   4.092   5.663   5.310 -0.4943  0.1942  0.4086
 7111SOL     OW22231   6.628   2.977   4.461 -0.0148 -0.4454 -0.1489
 7111SOL    HW122232   6.692   3.015   4.527 -2.1094 -0.2223  1.8653
 7111SOL    HW222233   6.629   3.032   4.378  0.5532  1.0682  0.8292
 7112SOL     OW22234   2.520   4.472   4.463  0.3390 -0.4719  0.2968
 7112SOL    HW122235   2.612   4.499   4.435  0.3716 -0.7204  0.1541
 7112SOL    HW222236   2.521   4.449   4.561 -0.1425  2.0382  0.9670
 7113SOL     OW22237   3.956   5.201   6.593 -0.0766 -0.0368 -0.3768
 7113SOL    HW122238   3.969   5.146   6.510  1.0042 -0.8976  0.3215
 7113SOL    HW222239   4.046   5.224   6.631 -0.4463  3.0789 -1.1438
 7114SOL     OW22240   5.959   6.220   2.638  0.4070  0.6112 -0.1068
 7114SOL    HW122241   5.859   6.222   2.636  0.3977  0.2757 -0.1537
 7114SOL    HW222242   5.992   6.145   2.580  0.7375  1.6866 -1.3594
 7115SOL     OW22243   5.542   5.078   0.150 -0.1671 -0.3338  0.2351
 7115SOL    HW122244   5.567   5.100   0.245  0.6666 -0.2971  0.0166
 7115SOL    HW222245   5.444   5.089   0.138 -0.3994 -1.1263  1.3034
 7116SOL     OW22246   6.101   0.110   2.527  0.2566 -0.8326 -0.4297
 7116SOL    HW122247   6.025   0.172   2.505 -0.0246 -0.2894  1.7785
 7116SOL    HW222248   6.064   0.019   2.546  0.3601 -1.0035 -1.0447
 7117SOL     OW22249   4.443   0.354   3.214  0.3786 -0.1614  0.4611
 7117SOL    HW122250   4.389   0.343   3.130  0.1804  1.4047  0.3501
 7117SOL    HW222251   4.540   0.348   3.192  0.3700  1.4395 -0.1189
 7118SOL     OW22252   3.426   3.313   5.317 -0.1962  0.1403 -0.2429
 7118SOL    HW122253   3.359   3.387   5.323  0.2284  0.5141 -0.0562
 7118SOL    HW222254   3.388   3.238   5.263 -1.0628  0.0137  0.5297
 7119SOL     OW22255   6.120   6.724   4.761 -0.3278  0.5263  0.0236
 7119SOL    HW122256   6.025   6.736   4.790  0.0808  1.4057  1.0549
 7119SOL    HW222257   6.176   6.700   4.840  0.1956 -0.7959 -0.7074
 7120SOL     OW22258   6.293   2.082   1.051  0.0899  0.3499 -0.4117
 7120SOL    HW122259   6.308   2.018   0.975 -0.4128 -0.0627 -0.1763
 7120SOL    HW222260   6.253   2.032   1.129  1.4850  0.5577  0.4825
 7121SOL     OW22261   1.089   0.004   4.318  0.0741 -0.0548  0.6417
 7121SOL    HW122262   1.128   0.029   4.230  2.0809  0.4268  1.5928
 7121SOL    HW222263   1.111   0.075   4.385 -0.6954 -0.7979  1.7159
 7122SOL     OW22264   3.998   5.688   6.503  0.1663 -0.0462 -0.6789
 7122SOL    HW122265   3.900   5.672   6.493  0.2379 -1.1186  0.1740
 7122SOL    HW222266   4.047   5.602   6.493  0.9001  0.2476  0.2688
 7123SOL     OW22267   5.584   5.715   5.353  0.2221 -0.4504  0.6554
 7123SOL    HW122268   5.654   5.714   5.281  1.1001 -1.0678  1.5028
 7123SOL    HW222269   5.518   5.642   5.336  1.0419 -1.3007  1.0524
 7124SOL     OW22270   1.058   1.929   3.915  0.4035 -0.3044 -0.2985
 7124SOL    HW122271   1.018   2.015   3.882 -0.7315 -0.9360 -0.6180
 7124SOL    HW222272   1.021   1.908   4.006  1.2434 -0.0959  0.1034
 7125SOL     OW22273   6.328   2.208   2.068 -0.1837 -0.9743  0.1298
 7125SOL    HW122274   6.426   2.193   2.059 -0.2819 -0.6586 -2.1803
 7125SOL    HW222275   6.306   2.302   2.043 -0.8974 -0.4450  2.5414
 7126SOL     OW22276   4.387   0.808   1.315 -0.0057  0.1385 -0.8577
 7126SOL    HW122277   4.449   0.857   1.377  0.6000  1.0946 -2.1590
 7126SOL    HW222278   4.410   0.711   1.314 -1.9765 -0.5397  2.6734
 7127SOL     OW22279   3.939   1.110   4.909 -0.3304  0.2391  0.2588
 7127SOL    HW122280   3.933   1.209   4.895 -1.9678 -0.0797 -1.6812
 7127SOL    HW222281   3.984   1.067   4.831 -0.6798 -0.6549  0.5322
 7128SOL     OW22282   2.906   3.403   4.857  0.9033  0.1353  0.3320
 7128SOL    HW122283   2.895   3.475   4.926  1.5888  0.4605  0.1007
 7128SOL    HW222284   2.826   3.343   4.860  0.6192  0.5320  0.9604
 7129SOL     OW22285   0.912   2.864   6.683  0.1182  0.1716  0.6098
 7129SOL    HW122286   0.905   2.798   6.757  1.3307 -0.1492  0.4548
 7129SOL    HW222287   1.008   2.880   6.660 -0.0982  2.4727  1.0506
 7130SOL     OW22288   3.469   1.429   3.991  0.7866  0.3328  0.5648
 7130SOL    HW122289   3.509   1.516   3.962 -1.3179  0.7462 -1.3446
 7130SOL    HW222290   3.416   1.443   4.075  0.3942  0.9228  0.2249
 7131SOL     OW22291   4.082   6.690   1.306  0.1280  0.0764 -0.1806
 7131SOL    HW122292   4.152   6.626   1.275 -0.7483  0.1464 -2.4608
 7131SOL    HW222293   3.992   6.658   1.278 -0.5455  1.2057  0.5912
 7132SOL     OW22294   6.706   3.914   1.028 -0.3289  0.0365 -0.0055
 7132SOL    HW122295   6.712   3.843   1.098  0.2744  0.0183 -0.0704
 7132SOL    HW222296   6.635   3.889   0.961  0.5581 -1.0125 -0.5862
 7133SOL     OW22297   3.686   5.193   3.964 -0.1897  0.3608  0.0437
 7133SOL    HW122298   3.760   5.182   3.897 -0.8258 -0.0037 -0.6176
 7133SOL    HW222299   3.701   5.131   4.040 -1.2142 -1.7422 -1.3768
 7134SOL     OW22300   4.849   5.388   3.075  0.4256  0.2329 -0.4470
 7134SOL    HW122301   4.803   5.420   3.158 -0.0097 -0.6939 -0.3124
 7134SOL    HW222302   4.890   5.298   3.092 -3.5948 -2.2888 -2.4013
 7135SOL     OW22303   3.051   2.808   1.229  0.2576  0.2935  0.3664
 7135SOL    HW122304   3.011   2.726   1.188  1.6799 -1.3086  1.9875
 7135SOL    HW222305   3.097   2.862   1.159  0.0162 -0.7503 -0.6193
 7136SOL     OW22306   3.736   1.526   0.945  0.2509 -0.2703 -0.5831
 7136SOL    HW122307   3.705   1.552   1.037  0.2576 -2.1630 -0.0132
 7136SOL    HW222308   3.836   1.536   0.941  0.1357  1.0271 -0.8242
 7137SOL     OW22309   3.555   2.182   1.458  0.0899  0.7034  0.0684
 7137SOL    HW122310   3.493   2.201   1.382  1.4007  0.4176 -1.1141
 7137SOL    HW222311   3.619   2.257   1.468 -0.6701  1.1971  1.5647
 7138SOL     OW22312   1.456   1.387   1.285 -0.1697  0.6102  0.4883
 7138SOL    HW122313   1.549   1.405   1.318 -0.0491  0.0583  0.4514
 7138SOL    HW222314   1.405   1.335   1.353 -0.2190  0.2842  0.2058
 7139SOL     OW22315   5.204   6.557   3.066  0.5206 -0.0632  0.2852
 7139SOL    HW122316   5.302   6.550   3.083  0.9734  1.2325 -1.5031
 7139SOL    HW222317   5.162   6.618   3.134  0.7519 -1.2752  1.5682
 7140SOL     OW22318   5.960   3.005   0.835  0.7264  0.1074  0.2953
 7140SOL    HW122319   6.043   2.949   0.833  0.5713 -0.1083 -0.8410
 7140SOL    HW222320   5.881   2.947   0.818  0.4401  0.4792  0.3601
 7141SOL     OW22321   3.408   5.299   2.564 -0.0083  0.1744 -0.3967
 7141SOL    HW122322   3.499   5.260   2.580  0.5612  1.1718 -1.1064
 7141SOL    HW222323   3.355   5.234   2.509 -0.2017 -0.9811  1.0878
 7142SOL     OW22324   2.333   1.260   4.242 -0.0458 -0.2758  0.2591
 7142SOL    HW122325   2.411   1.228   4.188  0.2108  0.8375 -0.0577
 7142SOL    HW222326   2.298   1.184   4.298 -0.1845 -1.3930 -1.2775
 7143SOL     OW22327   2.354   5.009   6.154 -0.6297 -0.3607  0.3112
 7143SOL    HW122328   2.449   4.991   6.180 -1.3378 -2.1104  1.9151
 7143SOL    HW222329   2.327   5.100   6.186  0.1241 -0.3715  0.9994
 7144SOL     OW22330   1.192   0.905   5.098 -0.4068 -0.0617  0.3753
 7144SOL    HW122331   1.283   0.927   5.064  0.1896 -1.6593  0.8703
 7144SOL    HW222332   1.185   0.807   5.117 -2.7210 -0.2613 -1.1036
 7145SOL     OW22333   3.197   2.523   6.521  0.5229  0.0742 -0.2117
 7145SOL    HW122334   3.135   2.450   6.549 -0.2624  0.7924  0.0036
 7145SOL    HW222335   3.169   2.558   6.431 -0.2454  1.2941  0.4654
 7146SOL     OW22336   2.539   1.418   3.759  0.5074  0.4587 -0.3796
 7146SOL    HW122337   2.466   1.351   3.769  0.5241  0.3635 -0.8488
 7146SOL    HW222338   2.550   1.469   3.844  1.3537 -1.0071  0.4381
 7147SOL     OW22339   5.240   5.333   2.274 -0.4800 -0.1052  0.4566
 7147SOL    HW122340   5.155   5.373   2.309 -0.4280  0.5871 -0.1758
 7147SOL    HW222341   5.232   5.233   2.271 -1.1571 -0.0623  0.6936
 7148SOL     OW22342   5.453   0.298   6.701  0.9685  0.2053 -0.2777
 7148SOL    HW122343   5.413   0.207   6.696 -1.9351  1.4016 -0.3436
 7148SOL    HW222344   5.491   0.313   6.792  0.7560 -0.7481 -0.0221
 7149SOL     OW22345   0.057   6.323   3.351 -0.1987 -0.9904 -0.2964
 7149SOL    HW122346   0.109   6.367   3.279  0.0017  0.9557  0.9495
 7149SOL    HW222347   0.115   6.308   3.431 -1.0313 -0.6260  0.4050
 7150SOL     OW22348   4.092   4.330   0.146  0.6785 -0.0450 -0.3320
 7150SOL    HW122349   4.152   4.253   0.123  0.2988 -0.2191 -0.7536
 7150SOL    HW222350   4.131   4.380   0.223  2.4669  1.0768 -1.8578
 7151SOL     OW22351   3.053   6.402   1.252 -0.0987 -0.2066 -0.7885
 7151SOL    HW122352   2.994   6.389   1.331  1.3725 -0.8406  0.2398
 7151SOL    HW222353   3.012   6.470   1.191 -0.9717  0.7598  0.8062
 7152SOL     OW22354   6.516   1.218   0.473 -0.4883 -0.7436  0.7185
 7152SOL    HW122355   6.503   1.301   0.418 -0.7571 -1.1649  0.1233
 7152SOL    HW222356   6.504   1.138   0.414 -2.8817 -1.2635  1.7916
 7153SOL     OW22357   4.110   5.686   1.213  0.8678  0.1982 -0.9378
 7153SOL    HW122358   4.120   5.622   1.137  1.9651 -0.3916 -0.3323
 7153SOL    HW222359   4.041   5.652   1.277  0.3553  0.4055 -1.3762
 7154SOL     OW22360   5.207   0.811   3.276  0.2445  0.4803  0.2500
 7154SOL    HW122361   5.150   0.747   3.329  1.2812  0.0841  0.9111
 7154SOL    HW222362   5.165   0.825   3.187 -1.4450  1.0179  1.0866
 7155SOL     OW22363   2.161   1.168   1.755 -0.4511  0.3612 -0.5047
 7155SOL    HW122364   2.214   1.100   1.805 -1.2457  0.3641  0.3832
 7155SOL    HW222365   2.216   1.206   1.681  0.3751 -0.4499 -0.3237
 7156SOL     OW22366   4.976   1.013   3.350  0.1748  0.0141 -0.4120
 7156SOL    HW122367   5.058   0.969   3.315 -0.8536 -2.1775 -0.2758
 7156SOL    HW222368   4.931   1.064   3.277 -0.4299 -2.1192 -1.6325
 7157SOL     OW22369   4.902   3.495   0.808 -0.1024  0.1278 -0.3635
 7157SOL    HW122370   4.802   3.492   0.819 -0.0756 -1.1944 -0.3038
 7157SOL    HW222371   4.926   3.563   0.739 -1.0997 -0.0103 -0.8649
 7158SOL     OW22372   0.333   2.779   3.756 -0.1123 -0.1411 -0.0974
 7158SOL    HW122373   0.355   2.682   3.756 -1.7812 -0.5438 -0.0415
 7158SOL    HW222374   0.259   2.797   3.821  1.4841  1.5185  1.3760
 7159SOL     OW22375   5.568   5.804   4.740  0.2710 -0.0778 -0.1591
 7159SOL    HW122376   5.507   5.869   4.787 -2.4427 -2.2245 -0.4598
 7159SOL    HW222377   5.621   5.753   4.808  0.4547  0.6014  0.2195
 7160SOL     OW22378   6.893   0.369   3.644  0.1792  0.0790  0.1587
 7160SOL    HW122379   6.800   0.396   3.671 -0.6090  0.5841 -2.6930
 7160SOL    HW222380   6.943   0.450   3.613  1.7119 -0.1540  1.8613
 7161SOL     OW22381   3.198   3.027   3.005 -0.5752 -0.0309 -0.3878
 7161SOL    HW122382   3.211   3.085   3.086  1.3659  2.3989 -2.3033
 7161SOL    HW222383   3.107   3.044   2.967 -1.5711 -1.3063  1.2700
 7162SOL     OW22384   6.969   4.771   0.230 -0.2124  0.5812 -0.4371
 7162SOL    HW122385   6.943   4.675   0.243 -0.0144  0.6563  0.5917
 7162SOL    HW222386   7.049   4.776   0.170 -1.6141  0.2655 -2.4271
 7163SOL     OW22387   0.037   1.374   2.852 -0.0686  0.3572  0.3737
 7163SOL    HW122388  -0.008   1.299   2.900  2.8734 -3.7424 -2.6568
 7163SOL    HW222389  -0.010   1.392   2.766  0.4158  0.5604  0.1457
 7164SOL     OW22390   2.950   0.053   6.268 -0.0336  0.1157  0.1834
 7164SOL    HW122391   3.028   0.116   6.275  0.8076 -0.9301  0.4682
 7164SOL    HW222392   2.882   0.090   6.204  1.2155  0.5098 -0.9517
 7165SOL     OW22393   5.961   6.954   0.597 -0.2693  0.2571 -0.1225
 7165SOL    HW122394   6.007   6.950   0.509 -0.3261  1.8595 -0.2536
 7165SOL    HW222395   6.019   7.004   0.662 -0.4442 -0.4807  0.6120
 7166SOL     OW22396   0.106   0.021   5.246  0.2698  0.2544 -0.1698
 7166SOL    HW122397   0.202   0.037   5.271  0.3563 -0.1625 -0.2133
 7166SOL    HW222398   0.071   0.099   5.195  0.8784  0.0121 -0.9911
 7167SOL     OW22399   6.608   2.422   4.946  0.3065 -0.0138 -0.2787
 7167SOL    HW122400   6.525   2.413   5.002  1.2108  0.0041  1.1110
 7167SOL    HW222401   6.667   2.493   4.985  0.8592  0.1790 -1.4205
 7168SOL     OW22402   2.886   0.328   2.807  0.0944  0.2845  0.2559
 7168SOL    HW122403   2.848   0.249   2.855 -1.1734  0.8875  0.2943
 7168SOL    HW222404   2.874   0.316   2.709 -0.7016  0.7172  0.2960
 7169SOL     OW22405   2.263   4.057   5.362 -0.1611  0.3443 -0.1070
 7169SOL    HW122406   2.331   4.009   5.306 -1.4471 -0.8035 -0.7786
 7169SOL    HW222407   2.247   4.148   5.325  1.6333  0.9800  0.6058
 7170SOL     OW22408   5.609   0.606   0.706  0.2549 -0.2824  0.3739
 7170SOL    HW122409   5.614   0.550   0.789 -0.0169  0.1285  0.6780
 7170SOL    HW222410   5.636   0.552   0.627  1.1579 -0.4962  0.8160
 7171SOL     OW22411   5.411   5.697   2.599  0.2024 -0.0194 -0.1030
 7171SOL    HW122412   5.331   5.751   2.574 -0.0236 -1.6362 -3.6418
 7171SOL    HW222413   5.381   5.611   2.640  0.2325  0.1994  0.3755
 7172SOL     OW22414   1.505   1.137   5.459  0.0886 -0.4605  0.2881
 7172SOL    HW122415   1.421   1.098   5.421 -1.3528  0.0225  2.8017
 7172SOL    HW222416   1.549   1.195   5.390 -2.3486  0.3217 -0.6949
 7173SOL     OW22417   6.657   4.727   4.728  0.0487 -0.3223  0.6322
 7173SOL    HW122418   6.637   4.652   4.665  0.3073 -1.4487  1.8612
 7173SOL    HW222419   6.753   4.723   4.756  0.7140  1.8466 -1.0318
 7174SOL     OW22420   0.473   3.823   1.342 -0.0901 -0.2215  0.6219
 7174SOL    HW122421   0.384   3.844   1.383 -0.6492 -0.5383 -0.3999
 7174SOL    HW222422   0.469   3.732   1.299 -0.0895  0.7883 -1.6391
 7175SOL     OW22423   6.443   2.777   4.470 -0.0538  0.4130 -0.6540
 7175SOL    HW122424   6.363   2.798   4.414  0.6700  1.0554 -1.4738
 7175SOL    HW222425   6.508   2.853   4.466 -0.0440  0.5498  1.2109
 7176SOL     OW22426   2.624   0.804   3.310  0.3789 -0.1554 -0.1992
 7176SOL    HW122427   2.603   0.900   3.297  0.2835 -0.0010  0.9979
 7176SOL    HW222428   2.653   0.764   3.223  1.5596  1.2337 -0.4775
 7177SOL     OW22429   6.991   5.438   5.627  0.2288 -0.0616 -0.0458
 7177SOL    HW122430   6.898   5.409   5.605 -0.4202  1.1214  0.9977
 7177SOL    HW222431   6.990   5.534   5.656  1.4896 -0.5412  1.7574
 7178SOL     OW22432   1.397   1.758   5.775 -0.7251  0.5595 -0.1888
 7178SOL    HW122433   1.477   1.816   5.756 -0.9304  0.6990 -0.6440
 7178SOL    HW222434   1.319   1.790   5.721 -1.3369  0.9596  0.8875
 7179SOL     OW22435   1.638   4.602   6.415 -0.6456  0.1135 -0.0829
 7179SOL    HW122436   1.581   4.641   6.343  2.4643  0.9496 -2.2582
 7179SOL    HW222437   1.647   4.503   6.400 -2.7535 -0.3612  1.2885
 7180SOL     OW22438   2.217   5.153   1.092 -0.1159 -0.0091 -0.2153
 7180SOL    HW122439   2.289   5.195   1.147 -0.9097  1.3009 -0.1218
 7180SOL    HW222440   2.154   5.104   1.153 -2.0021  2.9043  0.4321
 7181SOL     OW22441   1.207   1.801   4.657 -0.0715  0.0542 -0.2124
 7181SOL    HW122442   1.165   1.880   4.702 -0.3562  0.0589 -0.4856
 7181SOL    HW222443   1.302   1.793   4.686 -0.7855 -1.1561  2.0397
 7182SOL     OW22444   6.986   2.252   4.264  0.5277 -0.2962 -0.0645
 7182SOL    HW122445   7.013   2.348   4.258 -2.7062  0.6685 -1.3352
 7182SOL    HW222446   7.014   2.205   4.180 -0.3791  0.3110 -0.7296
 7183SOL     OW22447   1.241   6.535   1.229  0.0405 -0.0014  0.2606
 7183SOL    HW122448   1.318   6.473   1.212  0.1714 -0.5627  2.5363
 7183SOL    HW222449   1.256   6.621   1.182  0.6960 -1.0608 -1.5737
 7184SOL     OW22450   6.806   3.109   4.593  0.7310 -0.4768 -0.0953
 7184SOL    HW122451   6.838   3.049   4.667 -2.3710  0.2754  2.0472
 7184SOL    HW222452   6.776   3.196   4.631  2.9675  1.6908 -2.8684
 7185SOL     OW22453   5.088   6.765   4.459 -0.2995  0.0224 -0.1329
 7185SOL    HW122454   5.060   6.798   4.368  1.3993  0.2124 -0.6242
 7185SOL    HW222455   5.176   6.719   4.452  0.3330  0.8923  1.5748
 7186SOL     OW22456   0.727   0.101   6.544 -0.1192  0.0642 -0.8497
 7186SOL    HW122457   0.792   0.175   6.523  1.4588 -1.2553 -0.8493
 7186SOL    HW222458   0.695   0.060   6.458  1.9830 -1.6644 -0.9186
 7187SOL     OW22459   3.096   4.036   4.682  0.5554  0.5318 -0.3766
 7187SOL    HW122460   3.098   4.136   4.681 -0.2885  0.5536 -1.9491
 7187SOL    HW222461   3.091   4.001   4.589 -1.9214 -0.9109  0.1916
 7188SOL     OW22462   3.545   3.052   0.514  0.3059  0.1544  0.7744
 7188SOL    HW122463   3.633   3.043   0.560  0.5833  0.6947  0.3614
 7188SOL    HW222464   3.552   3.121   0.442 -0.4930  0.3005  0.8308
 7189SOL     OW22465   5.174   1.813   6.089 -0.7944 -0.0441 -0.1921
 7189SOL    HW122466   5.196   1.741   6.155 -1.4006  1.2848  1.5353
 7189SOL    HW222467   5.108   1.779   6.022 -1.4616 -0.9360  0.9015
 7190SOL     OW22468   4.643   4.678   0.032  0.3280 -0.3343 -0.2597
 7190SOL    HW122469   4.621   4.694  -0.064 -0.8629  2.1224  0.3388
 7190SOL    HW222470   4.740   4.659   0.041  0.7548  0.8632 -1.8400
 7191SOL     OW22471   1.243   2.215   4.682 -0.0447  0.5356 -0.1782
 7191SOL    HW122472   1.307   2.149   4.642  0.5100  1.0047 -0.0734
 7191SOL    HW222473   1.293   2.297   4.711 -0.6156  0.6987  0.3729
 7192SOL     OW22474   0.278   3.862   5.208 -0.3885 -0.3536 -0.0333
 7192SOL    HW122475   0.274   3.866   5.308 -3.7288  0.4600 -0.0710
 7192SOL    HW222476   0.201   3.807   5.174  0.3701 -0.1806 -2.2036
 7193SOL     OW22477   3.617   0.643   3.680  0.0107 -0.1007  0.5502
 7193SOL    HW122478   3.685   0.640   3.754  0.4003 -0.0998  0.1950
 7193SOL    HW222479   3.619   0.732   3.636 -0.9926  0.2786  1.2454
 7194SOL     OW22480   0.769   1.851   3.401 -0.1191 -0.5677 -0.1542
 7194SOL    HW122481   0.763   1.755   3.373  1.9418 -0.6153 -0.6444
 7194SOL    HW222482   0.805   1.905   3.324 -0.7068  0.4956  0.3075
 7195SOL     OW22483   6.584   2.637   1.072 -0.5785 -0.4289  0.0917
 7195SOL    HW122484   6.682   2.648   1.091 -0.7827 -0.5107  1.2245
 7195SOL    HW222485   6.553   2.712   1.014  0.0895 -0.2551 -0.0585
 7196SOL     OW22486   4.053   3.329   2.906 -0.5112 -0.3697 -0.1410
 7196SOL    HW122487   4.079   3.401   2.969  1.5111 -1.1983  0.0581
 7196SOL    HW222488   4.013   3.253   2.957  1.5406 -1.2331  0.3055
 7197SOL     OW22489   6.624   2.820   4.915  0.3779 -0.0834 -0.0603
 7197SOL    HW122490   6.587   2.848   5.004  1.4951 -0.2116  0.4565
 7197SOL    HW222491   6.549   2.815   4.849 -0.4294  0.3060  0.7911
 7198SOL     OW22492   0.249   6.757   0.182 -0.2238  0.3029  0.1954
 7198SOL    HW122493   0.157   6.734   0.213 -1.0765  1.0613 -1.5915
 7198SOL    HW222494   0.257   6.857   0.173 -0.0780  0.1536 -1.9276
 7199SOL     OW22495   1.025   6.603   2.535 -0.3095  0.3217  0.6511
 7199SOL    HW122496   1.115   6.647   2.538 -0.7049  1.1072  1.1436
 7199SOL    HW222497   0.967   6.641   2.607 -0.6304 -1.0722  1.1640
 7200SOL     OW22498   1.217   2.959   1.050  0.3669 -0.2047 -0.4558
 7200SOL    HW122499   1.242   2.987   1.143  0.0339  0.8897 -0.6784
 7200SOL    HW222500   1.253   3.024   0.984 -0.9706  0.0816 -0.9518
 7201SOL     OW22501   0.415   5.381   4.988  0.0647 -0.2438 -0.6779
 7201SOL    HW122502   0.351   5.446   5.029 -0.2813 -0.9360 -0.1125
 7201SOL    HW222503   0.467   5.335   5.060  0.4499 -0.4536 -1.0825
 7202SOL     OW22504   4.492   1.840   5.653  0.4053 -0.4517  0.3831
 7202SOL    HW122505   4.541   1.776   5.713  0.9337 -2.0680 -1.6874
 7202SOL    HW222506   4.558   1.889   5.596 -0.0133  1.8160  1.7209
 7203SOL     OW22507   6.892   1.132   2.507  0.4834 -0.5089 -0.0953
 7203SOL    HW122508   6.802   1.089   2.503 -0.7313  1.9807 -2.1689
 7203SOL    HW222509   6.941   1.115   2.422  0.1076  1.7353 -0.8343
 7204SOL     OW22510   6.098   0.212   0.073 -0.3315 -0.4568 -0.0691
 7204SOL    HW122511   6.057   0.228   0.163 -3.0780 -0.2202 -1.2780
 7204SOL    HW222512   6.087   0.294   0.016  0.9922 -0.7541 -0.7932
 7205SOL     OW22513   0.897   4.805   4.774  0.4264 -0.0715  0.0806
 7205SOL    HW122514   0.936   4.892   4.745  0.2513 -0.4071 -1.2493
 7205SOL    HW222515   0.868   4.753   4.693  0.3847 -1.2965  0.8520
 7206SOL     OW22516   1.351   3.857   1.161  0.6958  0.1845  0.2786
 7206SOL    HW122517   1.327   3.846   1.258  0.3485 -1.9598  0.0040
 7206SOL    HW222518   1.447   3.885   1.154 -0.0562  3.4721  1.2521
 7207SOL     OW22519   2.082   1.756   4.060  0.0194 -0.4864  0.1291
 7207SOL    HW122520   2.158   1.717   4.112  1.2357  2.2873  0.6135
 7207SOL    HW222521   2.104   1.757   3.963  0.4957 -0.0080  0.2356
 7208SOL     OW22522   2.904   1.036   3.914  0.2640 -0.3366 -0.0171
 7208SOL    HW122523   2.991   0.992   3.890 -0.1792 -2.3680  1.7947
 7208SOL    HW222524   2.918   1.135   3.925  2.1838 -0.5360 -0.3872
 7209SOL     OW22525   1.090   3.942   2.870  0.4654  0.0150  0.0148
 7209SOL    HW122526   1.025   3.973   2.800  0.2011  0.4223  0.4304
 7209SOL    HW222527   1.111   4.018   2.931 -0.4059 -0.6912  1.2286
 7210SOL     OW22528   4.358   1.491   3.573  0.5179  0.2510 -0.7298
 7210SOL    HW122529   4.379   1.433   3.494 -0.9695 -1.8241  0.3112
 7210SOL    HW222530   4.328   1.434   3.649  0.9423  2.2794  1.0474
 7211SOL     OW22531   3.250   6.167   0.794 -0.5413  0.9275  0.3661
 7211SOL    HW122532   3.170   6.211   0.836 -0.7614 -0.9053  1.9929
 7211SOL    HW222533   3.226   6.138   0.701 -2.9272 -2.3125  1.7988
 7212SOL     OW22534   0.146   4.205   6.645  0.2907 -0.6339 -0.3521
 7212SOL    HW122535   0.076   4.138   6.623  1.2364 -1.2678 -1.5858
 7212SOL    HW222536   0.118   4.257   6.726 -0.0103 -3.2075  1.3407
 7213SOL     OW22537   4.463   5.935   5.617  0.1327 -0.5706 -0.3510
 7213SOL    HW122538   4.417   5.937   5.706  0.4893  0.3480 -0.1743
 7213SOL    HW222539   4.422   5.865   5.560 -2.9520  1.5418 -0.9629
 7214SOL     OW22540   1.179   0.244   6.663 -0.0746  0.1689  0.5652
 7214SOL    HW122541   1.123   0.300   6.603  1.1977 -1.6840 -2.6192
 7214SOL    HW222542   1.274   0.274   6.658  0.4118 -1.3815 -0.1757
 7215SOL     OW22543   6.836   1.134   5.333 -0.6078  0.3048  0.7922
 7215SOL    HW122544   6.871   1.098   5.246 -1.7206  1.4922 -0.1947
 7215SOL    HW222545   6.736   1.137   5.330 -0.6469  0.7926  1.9427
 7216SOL     OW22546   0.701   0.938   0.619 -0.1365  0.6227  0.4345
 7216SOL    HW122547   0.754   0.856   0.642  1.1479  1.0354 -0.9619
 7216SOL    HW222548   0.758   1.019   0.625 -0.7536  1.1517 -0.5278
 7217SOL     OW22549   0.840   5.740   5.355  0.6308 -0.2130 -0.5155
 7217SOL    HW122550   0.935   5.748   5.384  0.2863  0.3615  0.4846
 7217SOL    HW222551   0.823   5.646   5.326  0.8113 -1.0885  1.9401
 7218SOL     OW22552   6.483   3.662   4.583 -0.8088 -1.1768  0.2689
 7218SOL    HW122553   6.461   3.669   4.681  0.3002 -0.3306  0.4712
 7218SOL    HW222554   6.580   3.681   4.569 -1.3251  0.7461 -1.2130
 7219SOL     OW22555   3.058   6.010   1.072  0.8053  0.3982 -0.1662
 7219SOL    HW122556   3.102   6.070   1.138  0.4506 -0.7205  1.1370
 7219SOL    HW222557   3.127   5.968   1.013  1.3099  0.0981  0.6249
 7220SOL     OW22558   6.181   2.665   4.165  0.8047  0.2281 -0.2128
 7220SOL    HW122559   6.217   2.751   4.203  0.0009  0.4200  0.1470
 7220SOL    HW222560   6.167   2.599   4.239  0.8448  0.0023 -0.4053
 7221SOL     OW22561   3.325   5.264   4.575 -0.3085 -0.3355 -0.1501
 7221SOL    HW122562   3.312   5.341   4.638  0.3957  0.3171 -0.7671
 7221SOL    HW222563   3.329   5.299   4.481 -0.0698 -1.1442 -0.4495
 7222SOL     OW22564   6.183   5.689   3.318  0.0115  0.4300  0.6294
 7222SOL    HW122565   6.141   5.728   3.400  0.8133 -0.3281  1.4195
 7222SOL    HW222566   6.113   5.676   3.247 -0.7310  0.8712  1.2699
 7223SOL     OW22567   2.821   1.515   0.337 -0.1549 -0.1534 -0.0938
 7223SOL    HW122568   2.879   1.538   0.415  1.3590 -2.6094 -0.3800
 7223SOL    HW222569   2.832   1.584   0.266 -0.4663  1.3581  1.2655
 7224SOL     OW22570   4.574   4.476   4.538  0.2496 -0.0480  1.0491
 7224SOL    HW122571   4.600   4.383   4.563  0.9226 -0.3973 -0.8242
 7224SOL    HW222572   4.495   4.473   4.477  1.2724  0.4849 -0.3459
 7225SOL     OW22573   2.238   4.825   0.694  0.4712  0.5504 -0.3391
 7225SOL    HW122574   2.142   4.846   0.679  0.1965  0.1730  0.8341
 7225SOL    HW222575   2.291   4.856   0.615 -0.4711  1.6528 -0.5638
 7226SOL     OW22576   3.867   5.504   0.258 -0.1855 -0.4509 -0.2673
 7226SOL    HW122577   3.798   5.570   0.231 -1.2485 -0.6586  1.7509
 7226SOL    HW222578   3.927   5.544   0.327 -1.0354 -1.6405  1.2133
 7227SOL     OW22579   2.563   6.875   3.346  0.1453 -0.1188  0.0691
 7227SOL    HW122580   2.522   6.882   3.436 -0.7384 -0.0484 -0.3241
 7227SOL    HW222581   2.517   6.803   3.293  0.6184 -0.1305 -0.3408
 7228SOL     OW22582   1.600   1.748   3.552 -0.4879  0.2902  0.0220
 7228SOL    HW122583   1.572   1.832   3.505 -1.9222  0.5506  1.2576
 7228SOL    HW222584   1.601   1.672   3.487  2.5120  1.4739 -1.5386
 7229SOL     OW22585   0.024   5.314   5.932  0.5606 -0.3377 -0.0913
 7229SOL    HW122586   0.084   5.391   5.950 -1.6573  1.5114 -0.0855
 7229SOL    HW222587  -0.009   5.318   5.838  0.1533 -1.0897  0.0075
 7230SOL     OW22588   3.378   5.816   4.805  0.3685 -0.4039  0.4188
 7230SOL    HW122589   3.367   5.802   4.707 -1.4516 -0.8308  0.6380
 7230SOL    HW222590   3.434   5.897   4.821 -1.4354  1.2397 -1.0263
 7231SOL     OW22591   3.574   0.243   1.004 -0.3413 -0.0761 -0.1745
 7231SOL    HW122592   3.517   0.308   1.054  1.5221  0.7335  1.0079
 7231SOL    HW222593   3.627   0.293   0.935  0.2493 -0.5095 -0.0401
 7232SOL     OW22594   4.057   0.278   2.295 -0.4001  0.0593  0.4967
 7232SOL    HW122595   4.102   0.285   2.385  0.2129 -1.4848  0.3371
 7232SOL    HW222596   3.993   0.202   2.296 -2.4638  1.6883  0.4320
 7233SOL     OW22597   1.590   0.609   5.939  0.0146 -0.4190 -0.2751
 7233SOL    HW122598   1.538   0.671   5.997  0.2013 -0.6049  0.0929
 7233SOL    HW222599   1.561   0.620   5.844  0.5518  0.7651 -0.3247
 7234SOL     OW22600   5.817   4.254   2.768  0.3185  0.4823 -0.1494
 7234SOL    HW122601   5.725   4.284   2.792 -0.0583 -1.0323  0.3706
 7234SOL    HW222602   5.879   4.274   2.844  0.6279  2.2368 -0.8075
 7235SOL     OW22603   0.336   6.435   2.735 -0.8606  0.3459 -0.4350
 7235SOL    HW122604   0.430   6.468   2.734 -0.1753 -1.3149  1.4906
 7235SOL    HW222605   0.287   6.476   2.811 -0.7527 -1.0378  0.4159
 7236SOL     OW22606   1.184   3.758   4.506 -0.5218  0.3780 -0.4351
 7236SOL    HW122607   1.109   3.709   4.462 -0.3512  0.2115 -0.5417
 7236SOL    HW222608   1.148   3.837   4.555 -0.7068  0.6185 -0.9508
 7237SOL     OW22609   6.519   1.078   5.552 -0.6647  0.2123 -0.0404
 7237SOL    HW122610   6.438   1.113   5.598 -1.1083  1.3276 -1.5995
 7237SOL    HW222611   6.495   1.046   5.460  0.2929 -1.4502  0.2343
 7238SOL     OW22612   3.708   2.850   6.219 -0.3367 -0.0616 -0.1325
 7238SOL    HW122613   3.626   2.906   6.210  0.0836  1.0852  2.3220
 7238SOL    HW222614   3.765   2.861   6.137 -2.0629  0.0082 -1.3733
 7239SOL     OW22615   6.598   4.462   1.714 -0.1381 -0.4465 -0.2975
 7239SOL    HW122616   6.614   4.513   1.630 -0.0210  1.3450  0.7762
 7239SOL    HW222617   6.503   4.430   1.717 -0.6146  0.9072 -0.3868
 7240SOL     OW22618   4.458   2.089   6.646 -0.0299 -0.0942  0.3793
 7240SOL    HW122619   4.389   2.156   6.675  0.2252 -0.0250  0.8481
 7240SOL    HW222620   4.487   2.035   6.725 -0.3256 -0.8541 -0.0209
 7241SOL     OW22621   1.947   2.992   0.563 -0.5059  0.2048  0.5033
 7241SOL    HW122622   1.894   2.909   0.584 -0.1177 -0.6254 -1.5559
 7241SOL    HW222623   1.915   3.031   0.477  0.6956  1.0293  0.4042
 7242SOL     OW22624   6.607   0.546   6.001  0.3481 -0.3470  0.3553
 7242SOL    HW122625   6.616   0.497   6.088  2.2956 -1.8653 -0.5987
 7242SOL    HW222626   6.646   0.637   6.009  2.4666 -1.2224  0.5909
 7243SOL     OW22627   0.033   3.891   0.258 -0.5721 -0.0374 -0.0098
 7243SOL    HW122628   0.040   3.951   0.337  1.9317 -0.3219  0.0882
 7243SOL    HW222629   0.117   3.836   0.251 -1.5920 -1.4934 -1.6970
 7244SOL     OW22630   4.786   6.580   2.004 -0.2038 -0.2145 -0.0023
 7244SOL    HW122631   4.708   6.603   2.062 -0.7832 -0.3615 -0.7097
 7244SOL    HW222632   4.820   6.662   1.959 -0.7485 -0.3492 -0.6653
 7245SOL     OW22633   0.706   2.012   6.205  0.5881 -0.4236  0.2051
 7245SOL    HW122634   0.614   2.038   6.236  0.8186 -0.0173  0.5649
 7245SOL    HW222635   0.773   2.036   6.276  0.8363 -1.9045  0.5212
 7246SOL     OW22636   3.172   0.267   5.020 -0.0760  0.0410 -0.2265
 7246SOL    HW122637   3.164   0.327   4.941 -0.6885  0.4772  0.1562
 7246SOL    HW222638   3.198   0.321   5.101 -3.0915  0.3039  0.6970
 7247SOL     OW22639   3.183   2.233   5.798 -0.3055 -0.7115  0.0883
 7247SOL    HW122640   3.275   2.246   5.760 -0.7070 -0.8301 -0.9788
 7247SOL    HW222641   3.146   2.321   5.825 -0.9947 -0.2293 -2.2372
 7248SOL     OW22642   2.945   0.012   2.504 -0.1120 -0.0501  0.0442
 7248SOL    HW122643   2.978  -0.020   2.592 -0.8064 -2.1335 -0.4042
 7248SOL    HW222644   3.021   0.054   2.454 -0.2296  3.6495  2.5563
 7249SOL     OW22645   5.361   4.332   2.157 -0.0356 -0.2293  0.5124
 7249SOL    HW122646   5.292   4.273   2.115 -0.4986 -0.1355  1.1328
 7249SOL    HW222647   5.444   4.279   2.174 -0.7023 -0.9042  1.7524
 7250SOL     OW22648   4.634   4.361   3.881 -0.0095 -0.1995  0.4038
 7250SOL    HW122649   4.642   4.368   3.781 -0.3452  0.6817  0.4334
 7250SOL    HW222650   4.658   4.268   3.909 -2.0762 -1.1696 -0.7355
 7251SOL     OW22651   1.857   0.478   5.478  0.5004  0.5633  0.3135
 7251SOL    HW122652   1.833   0.527   5.394  0.9333 -0.4541 -0.4204
 7251SOL    HW222653   1.940   0.424   5.463  0.6608  0.4636  1.4413
 7252SOL     OW22654   3.270   3.467   0.117 -0.2556 -0.2611 -0.0588
 7252SOL    HW122655   3.197   3.526   0.082 -0.3058 -0.1017  0.3035
 7252SOL    HW222656   3.359   3.505   0.092 -0.2981 -0.5700 -0.6839
 7253SOL     OW22657   1.311   6.392   6.184  0.0101 -0.3230  0.0945
 7253SOL    HW122658   1.338   6.414   6.278 -2.5472  0.3472  0.7270
 7253SOL    HW222659   1.270   6.301   6.183  2.0193 -1.2975 -0.8502
 7254SOL     OW22660   4.162   4.442   6.723  0.1346  0.2247  0.4804
 7254SOL    HW122661   4.092   4.375   6.749  1.3238 -0.7825  1.1866
 7254SOL    HW222662   4.119   4.532   6.713 -1.4028 -0.5096  0.0668
 7255SOL     OW22663   5.978   4.717   0.036 -0.1698 -0.3521 -0.7037
 7255SOL    HW122664   6.045   4.676  -0.026 -0.2952 -1.7591  0.0409
 7255SOL    HW222665   6.011   4.805   0.069  1.4182 -1.1089 -0.1938
 7256SOL     OW22666   2.979   6.169   6.440 -0.5447 -0.6101  0.2646
 7256SOL    HW122667   2.989   6.137   6.346  0.1527  0.0428  0.1054
 7256SOL    HW222668   2.883   6.191   6.458 -0.9038 -1.9724  0.1273
 7257SOL     OW22669   6.770   2.620   5.001 -0.2247  0.0414  0.7558
 7257SOL    HW122670   6.735   2.686   4.934  1.0058  0.1269  0.1555
 7257SOL    HW222671   6.791   2.666   5.087  0.5178  0.4273  0.3763
 7258SOL     OW22672   5.672   3.222   3.141 -0.1642  0.1128  0.3081
 7258SOL    HW122673   5.683   3.301   3.080  1.0147  0.4261  0.8850
 7258SOL    HW222674   5.616   3.248   3.220 -2.4879 -0.5546 -1.0467
 7259SOL     OW22675   6.662   3.260   2.591  0.7109 -0.3732 -0.3400
 7259SOL    HW122676   6.715   3.226   2.513  2.1836 -0.9235  0.8325
 7259SOL    HW222677   6.714   3.333   2.637 -1.0720  1.4456 -1.0638
 7260SOL     OW22678   4.591   1.674   1.082 -0.0138 -0.2696  0.1680
 7260SOL    HW122679   4.592   1.644   0.986 -0.7015 -2.1645  0.7197
 7260SOL    HW222680   4.658   1.747   1.094  0.5854 -0.4689 -1.6045
 7261SOL     OW22681   6.432   4.753   6.570 -0.5194 -0.1698  0.1038
 7261SOL    HW122682   6.511   4.763   6.631 -0.1838 -3.3880  0.3551
 7261SOL    HW222683   6.454   4.688   6.498 -1.6901  1.8476 -2.2132
 7262SOL     OW22684   4.494   0.963   6.913  0.4165  0.1088  0.1242
 7262SOL    HW122685   4.422   0.996   6.852  1.2505  0.1517 -0.8591
 7262SOL    HW222686   4.507   1.029   6.987 -0.1464  0.3907 -0.0195
 7263SOL     OW22687   1.967   4.843   0.611 -0.5408  0.2508  0.2173
 7263SOL    HW122688   1.953   4.928   0.560 -2.3836 -0.6659 -0.9161
 7263SOL    HW222689   1.889   4.827   0.671 -0.9716 -1.3733 -0.7116
 7264SOL     OW22690   3.990   0.674   0.107 -0.1781 -0.0655 -0.0156
 7264SOL    HW122691   4.016   0.599   0.046 -2.7652 -0.7135 -0.4076
 7264SOL    HW222692   3.891   0.678   0.116  0.0168  1.5279  2.3138
 7265SOL     OW22693   5.577   3.619   5.553 -0.0418  0.1430  0.3740
 7265SOL    HW122694   5.580   3.547   5.623  1.5194 -0.9035 -0.6870
 7265SOL    HW222695   5.559   3.577   5.464 -0.0513  1.1919 -0.1260
 7266SOL     OW22696   5.883   1.513   6.073 -0.0346  0.0180  0.8398
 7266SOL    HW122697   5.865   1.415   6.078  3.0304 -0.6642  0.7340
 7266SOL    HW222698   5.891   1.541   5.978 -2.1060  0.7103  0.8161
 7267SOL     OW22699   4.176   6.136   5.938  0.4499  0.1299  0.2721
 7267SOL    HW122700   4.150   6.215   5.882  0.8807  2.1425  2.7083
 7267SOL    HW222701   4.215   6.168   6.024  2.4698 -2.7832  0.5935
 7268SOL     OW22702   6.722   6.496   5.110 -1.1442  0.2647 -0.4381
 7268SOL    HW122703   6.730   6.472   5.014 -1.6204  0.5582 -0.5552
 7268SOL    HW222704   6.656   6.435   5.155  0.0413 -0.7254  0.0143
 7269SOL     OW22705   2.694   5.829   6.750 -0.2362 -0.8746  0.3648
 7269SOL    HW122706   2.632   5.762   6.709  0.9234 -0.5373 -2.0944
 7269SOL    HW222707   2.641   5.907   6.783 -1.2569 -1.2795 -0.2618
 7270SOL     OW22708   5.818   0.439   2.669  0.1472 -0.2368 -0.7474
 7270SOL    HW122709   5.723   0.410   2.677 -0.0695  0.5000 -0.5152
 7270SOL    HW222710   5.822   0.539   2.669  0.7530 -0.2291 -2.7467
 7271SOL     OW22711   2.124   6.080   3.767 -0.5546  0.2692 -0.2355
 7271SOL    HW122712   2.213   6.118   3.793 -0.8667  0.2201  0.9603
 7271SOL    HW222713   2.056   6.107   3.835 -1.0752 -1.2375 -0.1352
 7272SOL     OW22714   0.147   5.721   3.563 -0.4623  0.8356 -0.1067
 7272SOL    HW122715   0.129   5.810   3.604 -0.8866  1.4769 -1.6036
 7272SOL    HW222716   0.172   5.733   3.466  0.6485 -0.5887 -0.0407
 7273SOL     OW22717   4.329   4.058   5.996 -0.2847  0.0637  0.6008
 7273SOL    HW122718   4.281   4.041   5.909 -2.1073  0.2485  1.5198
 7273SOL    HW222719   4.424   4.028   5.988 -0.9751 -2.0299 -0.7581
 7274SOL     OW22720   0.493   3.892   6.340  0.1893  0.6455  0.3119
 7274SOL    HW122721   0.540   3.808   6.311  2.1711  1.4812  0.9894
 7274SOL    HW222722   0.416   3.909   6.279 -0.0807 -1.5003 -0.0155
 7275SOL     OW22723   1.313   6.471   2.247  0.1328  0.2406  0.4383
 7275SOL    HW122724   1.223   6.430   2.233 -0.9509  2.7870 -0.6900
 7275SOL    HW222725   1.384   6.409   2.213 -1.4578 -0.2075 -2.3547
 7276SOL     OW22726   6.210   1.601   4.151 -0.3272 -0.3329 -0.2933
 7276SOL    HW122727   6.181   1.690   4.186 -2.0345 -0.9981  0.0892
 7276SOL    HW222728   6.189   1.530   4.218 -2.4013 -1.4682 -1.9991
 7277SOL     OW22729   3.443   0.440   3.882 -0.5944 -0.5528 -0.1023
 7277SOL    HW122730   3.462   0.536   3.900 -1.7208 -0.0784 -1.3185
 7277SOL    HW222731   3.518   0.401   3.829 -1.5623  0.5340 -2.3726
 7278SOL     OW22732   5.517   4.283   1.885  0.0258  0.6490  0.3089
 7278SOL    HW122733   5.501   4.204   1.944  1.4415 -0.4971 -0.7443
 7278SOL    HW222734   5.612   4.280   1.852 -0.5434  1.5750 -1.5185
 7279SOL     OW22735   5.008   6.952   6.692 -0.7105  0.0413  0.1059
 7279SOL    HW122736   5.046   7.028   6.745 -1.5268 -0.7700  1.9388
 7279SOL    HW222737   4.921   6.924   6.732 -1.6515 -0.2893 -2.0195
 7280SOL     OW22738   5.912   6.358   4.806  0.1221  0.4772 -0.1696
 7280SOL    HW122739   5.963   6.355   4.892  1.1802 -0.5377 -0.7977
 7280SOL    HW222740   5.873   6.449   4.794  1.1285  1.0624  0.7165
 7281SOL     OW22741   2.214   2.080   0.247 -0.6102  0.3334 -0.7396
 7281SOL    HW122742   2.262   2.150   0.195  0.6433 -0.5835 -0.8649
 7281SOL    HW222743   2.171   2.015   0.183 -2.6284  1.4825 -0.6472
 7282SOL     OW22744   4.398   0.019   2.854 -0.1392  0.5044  0.0844
 7282SOL    HW122745   4.410   0.114   2.883  0.5198  0.2409  0.7101
 7282SOL    HW222746   4.464  -0.039   2.901  0.4534 -0.0662 -1.3725
 7283SOL     OW22747   4.097   6.972   2.064  0.1962 -0.9948 -0.1277
 7283SOL    HW122748   4.132   7.063   2.044  0.0497 -1.0464 -0.6414
 7283SOL    HW222749   4.129   6.942   2.154  0.5763 -0.6036 -0.1324
 7284SOL     OW22750   0.396   1.760   4.087 -0.4069  0.2349  0.4415
 7284SOL    HW122751   0.458   1.814   4.030 -0.5317  1.2785  1.2560
 7284SOL    HW222752   0.303   1.798   4.081 -1.0287 -1.3609 -0.8324
 7285SOL     OW22753   4.730   3.807   1.105 -0.4165  0.4415  0.1751
 7285SOL    HW122754   4.740   3.712   1.135  0.0064  0.3056 -0.3837
 7285SOL    HW222755   4.774   3.819   1.016 -0.3553  1.1930  0.3009
 7286SOL     OW22756   3.031   1.883   0.368 -0.2480 -0.0359  0.2103
 7286SOL    HW122757   2.999   1.811   0.306  1.9544 -0.1313 -0.9166
 7286SOL    HW222758   3.068   1.959   0.315  0.7922  0.3210  1.4056
 7287SOL     OW22759   5.740   1.959   6.561 -0.2956  0.0915 -0.2828
 7287SOL    HW122760   5.687   1.876   6.549  1.2509 -0.6639 -2.6194
 7287SOL    HW222761   5.689   2.038   6.527 -0.2884 -0.5012 -1.7188
 7288SOL     OW22762   2.486   1.150   6.579  0.0418 -0.3528 -0.1159
 7288SOL    HW122763   2.484   1.062   6.530 -1.5032 -0.4794  0.1347
 7288SOL    HW222764   2.441   1.139   6.668  0.5172  0.5157  0.2345
 7289SOL     OW22765   5.308   1.895   2.979  0.3127 -0.0845  0.0972
 7289SOL    HW122766   5.243   1.877   3.053  1.2503 -1.1288  0.7033
 7289SOL    HW222767   5.270   1.864   2.892 -0.5274  0.5344  0.2296
 7290SOL     OW22768   2.868   1.152   4.822 -0.2569 -0.0496 -0.4676
 7290SOL    HW122769   2.840   1.241   4.858 -0.1010  0.3688 -1.3475
 7290SOL    HW222770   2.795   1.085   4.835  0.5457 -0.4774  2.4917
 7291SOL     OW22771   1.430   6.267   2.518 -0.1494 -0.1145 -0.4472
 7291SOL    HW122772   1.341   6.300   2.548  0.0508  0.0764 -0.0632
 7291SOL    HW222773   1.428   6.167   2.514 -0.8364 -0.0682 -1.8710
 7292SOL     OW22774   2.899   0.196   5.852 -0.1596  0.0879 -0.1448
 7292SOL    HW122775   2.808   0.182   5.813 -0.6345  0.9691  0.6191
 7292SOL    HW222776   2.943   0.274   5.808  0.1693 -0.2453 -0.4102
 7293SOL     OW22777   2.054   2.528   6.626  0.2266 -0.1538  0.0952
 7293SOL    HW122778   2.045   2.620   6.664 -0.4349  0.6040 -1.8246
 7293SOL    HW222779   2.151   2.505   6.616  0.4614 -0.5821  2.5882
 7294SOL     OW22780   2.114   4.349   0.566  0.2163  0.8871 -0.0207
 7294SOL    HW122781   2.075   4.264   0.531  0.2233  0.3459  1.2520
 7294SOL    HW222782   2.181   4.384   0.500 -0.6506  0.5602 -1.1062
 7295SOL     OW22783   6.547   3.159   0.251 -0.1258  0.4435  0.5696
 7295SOL    HW122784   6.498   3.074   0.269  2.1661 -1.0709 -0.0377
 7295SOL    HW222785   6.555   3.212   0.336 -0.0588 -0.7817  1.3420
 7296SOL     OW22786   0.017   6.760   3.082 -0.0511  0.0293  0.3334
 7296SOL    HW122787  -0.054   6.790   3.018  0.5437  0.2568 -0.2354
 7296SOL    HW222788   0.006   6.807   3.169 -0.5586  0.1097  0.2274
 7297SOL     OW22789   5.420   3.876   0.993 -0.3115  0.0921 -0.3645
 7297SOL    HW122790   5.435   3.944   0.922  2.2118  1.8474  1.6241
 7297SOL    HW222791   5.507   3.859   1.041 -1.1719 -3.4720  0.2252
 7298SOL     OW22792   6.429   3.879   4.391 -0.0219 -0.2269 -0.1157
 7298SOL    HW122793   6.330   3.877   4.374  0.0865 -1.0135 -0.7014
 7298SOL    HW222794   6.454   3.806   4.455  0.3362 -0.7862 -0.8836
 7299SOL     OW22795   1.412   1.562   2.086 -0.1841 -0.4185 -0.1056
 7299SOL    HW122796   1.381   1.651   2.119 -0.9837 -1.1167  1.0966
 7299SOL    HW222797   1.376   1.546   1.994 -1.1589 -0.0658  0.2052
 7300SOL     OW22798   5.706   5.144   3.510 -0.1548  0.2957 -0.2845
 7300SOL    HW122799   5.620   5.097   3.531  1.2012 -2.5606 -0.6781
 7300SOL    HW222800   5.781   5.098   3.556  1.2615  2.6327 -0.0771
 7301SOL     OW22801   5.654   0.856   3.914  0.2927  0.1157 -0.7953
 7301SOL    HW122802   5.675   0.770   3.962  0.8259 -0.3762 -1.8885
 7301SOL    HW222803   5.561   0.851   3.876  0.4396 -0.0943 -1.1230
 7302SOL     OW22804   6.583   3.476   5.923 -0.0681 -0.1841  0.5606
 7302SOL    HW122805   6.523   3.530   5.981 -0.7381  0.9379 -1.1090
 7302SOL    HW222806   6.661   3.442   5.977 -0.4436  1.1372  1.9896
 7303SOL     OW22807   4.448   6.204   5.547  0.7181  0.1232 -0.2830
 7303SOL    HW122808   4.477   6.225   5.640 -2.4097  0.4396  0.7234
 7303SOL    HW222809   4.397   6.118   5.547 -2.0271  1.6459 -1.0366
 7304SOL     OW22810   3.114   3.823   6.947 -0.7804 -0.0203  0.8939
 7304SOL    HW122811   3.193   3.856   6.896 -1.3931  0.7932  0.4426
 7304SOL    HW222812   3.050   3.778   6.885 -1.2968  0.5298  1.0167
 7305SOL     OW22813   5.018   2.138   1.564  0.5186 -0.6288  0.0627
 7305SOL    HW122814   4.963   2.200   1.508 -0.6860 -1.8123 -0.1108
 7305SOL    HW222815   5.063   2.071   1.506  2.5680  0.5921  0.1602
 7306SOL     OW22816   5.732   3.139   2.636 -0.7532  0.9582  0.2306
 7306SOL    HW122817   5.802   3.087   2.587 -0.3604  2.3242 -0.7118
 7306SOL    HW222818   5.756   3.236   2.637 -2.5423  1.4394  0.0279
 7307SOL     OW22819   2.453   0.684   0.700  0.3393 -0.1908 -0.8455
 7307SOL    HW122820   2.409   0.742   0.632  1.6902  0.1634 -1.4643
 7307SOL    HW222821   2.542   0.723   0.724 -0.8021  0.7281  2.5322
 7308SOL     OW22822   1.008   3.534   5.975  0.7539 -0.1412  0.1485
 7308SOL    HW122823   1.088   3.485   6.009 -0.1600 -2.0191 -0.2994
 7308SOL    HW222824   0.926   3.503   6.024  0.2958  1.9220  0.7737
 7309SOL     OW22825   4.881   0.183   5.721  0.5300 -0.3549 -0.1150
 7309SOL    HW122826   4.864   0.105   5.781 -0.1787 -1.3612 -1.5673
 7309SOL    HW222827   4.917   0.151   5.633  3.0081  1.1891  0.2353
 7310SOL     OW22828   1.882   2.728   0.151  0.2821  0.3322  0.1731
 7310SOL    HW122829   1.932   2.667   0.089 -1.8174 -1.6888  0.3252
 7310SOL    HW222830   1.842   2.674   0.226  0.1587  2.2556  1.5528
 7311SOL     OW22831   2.264   2.424   3.886  0.6414  0.5283  0.2823
 7311SOL    HW122832   2.268   2.421   3.986  1.1698  1.4897  0.2981
 7311SOL    HW222833   2.348   2.465   3.850 -0.4837  2.3102 -0.4355
 7312SOL     OW22834   5.495   2.787   6.015  0.0657 -0.4529  0.0561
 7312SOL    HW122835   5.556   2.835   5.952 -1.9294  0.7053 -1.0984
 7312SOL    HW222836   5.424   2.850   6.048 -2.8437 -2.5106 -1.7302
 7313SOL     OW22837   2.715   1.939   6.924  0.0691 -0.2983 -0.2573
 7313SOL    HW122838   2.649   1.886   6.871 -2.0909  1.5123  0.4278
 7313SOL    HW222839   2.727   2.029   6.881  2.6555 -0.7979 -0.7141
 7314SOL     OW22840   0.521   5.729   5.461 -0.0995 -0.6480  0.0010
 7314SOL    HW122841   0.430   5.746   5.423 -0.0359 -0.2883  0.0060
 7314SOL    HW222842   0.586   5.794   5.422  0.1030 -0.7300  0.2003
 7315SOL     OW22843   5.824   2.059   3.846  0.1140  0.4584 -0.2236
 7315SOL    HW122844   5.763   2.008   3.787  1.2385 -1.7328  0.4089
 7315SOL    HW222845   5.917   2.056   3.810  1.1440 -2.2376  2.2579
 7316SOL     OW22846   2.243   5.394   4.553 -0.3123 -0.3810  0.1392
 7316SOL    HW122847   2.280   5.381   4.645 -0.4474  1.0543  0.4198
 7316SOL    HW222848   2.174   5.324   4.534  0.9506 -1.7684  0.4367
 7317SOL     OW22849   5.947   1.505   4.240  0.0338  0.2836  0.2294
 7317SOL    HW122850   5.862   1.540   4.201  0.5935  1.0179 -0.3478
 7317SOL    HW222851   5.956   1.408   4.217 -0.2327  0.4110 -0.4300
 7318SOL     OW22852   0.227   0.579   0.649  0.3870  0.4318  0.5039
 7318SOL    HW122853   0.272   0.588   0.738 -0.9222 -2.4914  1.5855
 7318SOL    HW222854   0.296   0.568   0.577  1.4745 -0.8886  1.6912
 7319SOL     OW22855   5.999   4.401   5.943  0.2132 -0.2712  0.2639
 7319SOL    HW122856   5.944   4.318   5.930 -0.7015 -0.4389  4.0394
 7319SOL    HW222857   6.061   4.388   6.020 -0.0744  2.5771  1.0980
 7320SOL     OW22858   6.352   3.094   1.727 -0.5334 -0.1747 -0.0654
 7320SOL    HW122859   6.301   3.082   1.641 -0.9891 -0.4045  0.2332
 7320SOL    HW222860   6.425   3.026   1.732  1.1100  1.3734 -1.4093
 7321SOL     OW22861   2.961   6.829   6.843 -0.0410 -0.4717 -0.0509
 7321SOL    HW122862   3.015   6.889   6.903  0.4543  0.1877 -1.1260
 7321SOL    HW222863   2.995   6.735   6.849  1.8003  0.0610 -1.2973
 7322SOL     OW22864   0.192   3.781   2.302  0.4727 -0.4198  0.3846
 7322SOL    HW122865   0.143   3.738   2.226 -0.8526  2.6817 -0.6827
 7322SOL    HW222866   0.176   3.730   2.386  0.5331 -2.9666 -1.0561
 7323SOL     OW22867   2.339   2.163   1.103  0.0067  0.4580 -0.0750
 7323SOL    HW122868   2.394   2.198   1.178  0.1335 -1.5729  0.8426
 7323SOL    HW222869   2.305   2.240   1.048  1.6826  1.8797  0.7659
 7324SOL     OW22870   4.365   4.877   2.954  0.5060 -0.2312 -0.3786
 7324SOL    HW122871   4.349   4.824   2.871 -1.1960 -0.7865  0.2583
 7324SOL    HW222872   4.311   4.961   2.951  1.2571  0.2617 -0.2893
 7325SOL     OW22873   4.550   5.190   0.149  0.1317 -0.1718  0.5756
 7325SOL    HW122874   4.594   5.154   0.067  1.1578 -0.3532  1.1943
 7325SOL    HW222875   4.483   5.259   0.123 -1.8896 -2.4437 -0.6641
 7326SOL     OW22876   4.957   5.705   4.989 -0.0494  0.2934  0.2746
 7326SOL    HW122877   5.030   5.682   5.053  1.0330  3.1194  0.2120
 7326SOL    HW222878   4.870   5.668   5.022  0.7941  0.0323  2.3406
 7327SOL     OW22879   5.859   1.534   5.525 -0.4322  0.2442  0.0408
 7327SOL    HW122880   5.811   1.621   5.535 -1.2006  0.1486 -2.1727
 7327SOL    HW222881   5.819   1.483   5.448  2.8380 -0.0870 -1.6356
 7328SOL     OW22882   4.766   2.267   5.411 -0.7420  0.5535 -0.3828
 7328SOL    HW122883   4.846   2.219   5.374 -0.2002  1.2743 -0.1694
 7328SOL    HW222884   4.748   2.349   5.357 -0.0163  1.5565  0.8435
 7329SOL     OW22885   4.923   4.489   1.231 -0.1010  0.1128  0.4448
 7329SOL    HW122886   4.840   4.527   1.192 -0.0003  0.0051  0.1264
 7329SOL    HW222887   4.932   4.520   1.326  0.4176  1.5789 -0.0648
 7330SOL     OW22888   2.948   3.883   1.864 -0.3221 -0.5016  0.3707
 7330SOL    HW122889   3.036   3.858   1.823  0.1941  0.6251  0.7692
 7330SOL    HW222890   2.887   3.917   1.793  0.3820  0.9274  0.4058
 7331SOL     OW22891   0.405   6.082   2.768  0.3591 -0.1129 -0.3819
 7331SOL    HW122892   0.491   6.124   2.738 -0.5037  3.0486  1.1108
 7331SOL    HW222893   0.333   6.104   2.703 -0.1138  0.7974  0.4300
 7332SOL     OW22894   2.435   4.642   6.041  0.5121  0.3846  0.3414
 7332SOL    HW122895   2.488   4.636   5.956  3.0328 -0.1914  1.8457
 7332SOL    HW222896   2.420   4.550   6.077 -1.3808  0.5578  0.1076
 7333SOL     OW22897   5.617   3.929   3.347 -0.1281  0.0397 -0.1469
 7333SOL    HW122898   5.631   4.028   3.345 -1.3762  0.2358  0.3173
 7333SOL    HW222899   5.705   3.884   3.362  0.4695  1.0627 -0.4463
 7334SOL     OW22900   3.692   6.810   0.375 -0.4771  0.1390  0.3272
 7334SOL    HW122901   3.662   6.905   0.366 -0.6375  0.0035 -0.7325
 7334SOL    HW222902   3.684   6.782   0.471 -0.6558  1.1123  0.6158
 7335SOL     OW22903   0.969   2.827   4.061  0.0036  0.0397  0.1942
 7335SOL    HW122904   0.915   2.878   3.994  1.7321  0.4315 -0.9641
 7335SOL    HW222905   0.960   2.870   4.151  0.8918  2.0298 -0.6218
 7336SOL     OW22906   3.416   6.478   4.045  0.4859  0.7288  0.2138
 7336SOL    HW122907   3.473   6.536   3.987 -0.0826  1.3143  0.2310
 7336SOL    HW222908   3.471   6.440   4.119  0.4296  3.0262  1.5158
 7337SOL     OW22909   5.758   3.534   3.335  0.2143  0.0700 -0.3238
 7337SOL    HW122910   5.815   3.470   3.386 -0.1265 -1.5525 -1.8546
 7337SOL    HW222911   5.765   3.625   3.375 -0.5532 -1.1812  2.9869
 7338SOL     OW22912   5.026   2.790   2.188 -0.0295 -0.1133 -1.2565
 7338SOL    HW122913   4.997   2.876   2.230  0.5906  0.2287 -1.5092
 7338SOL    HW222914   4.946   2.739   2.157 -0.4641 -0.1022 -0.1943
 7339SOL     OW22915   4.487   5.689   2.190 -0.0620 -0.0947  0.1569
 7339SOL    HW122916   4.483   5.626   2.112  1.3342 -0.9141  0.7081
 7339SOL    HW222917   4.441   5.648   2.268 -2.3046  1.1279 -0.4419
 7340SOL     OW22918   1.206   1.715   7.015 -0.4622  0.5063  0.1892
 7340SOL    HW122919   1.167   1.774   7.085  0.3594 -0.4335  1.4978
 7340SOL    HW222920   1.190   1.619   7.039  2.4517  0.0530  0.7892
 7341SOL     OW22921   6.728   0.942   6.281  0.1991  0.4493 -0.0954
 7341SOL    HW122922   6.746   0.896   6.195  0.0960 -0.0748  0.1632
 7341SOL    HW222923   6.752   0.882   6.357 -0.0879  0.7591  0.2442
 7342SOL     OW22924   0.063   1.058   1.421  0.0352 -0.1606 -0.1618
 7342SOL    HW122925  -0.012   1.098   1.368 -0.2211 -1.6162 -0.9547
 7342SOL    HW222926   0.039   0.965   1.448 -1.0118  1.2539  4.9364
 7343SOL     OW22927   5.258   3.176   6.871  0.5724 -0.1890  0.0137
 7343SOL    HW122928   5.165   3.158   6.902  0.6704 -0.7021  0.0150
 7343SOL    HW222929   5.289   3.263   6.909 -0.3469  0.6021 -0.9905
 7344SOL     OW22930   2.328   6.306   5.700 -0.4149  0.5425  0.0737
 7344SOL    HW122931   2.389   6.234   5.734  0.1696 -0.1920 -2.3159
 7344SOL    HW222932   2.354   6.393   5.739  0.7377 -0.1200  0.8262
 7345SOL     OW22933   4.760   2.321   4.424 -0.5742  0.2350  0.6262
 7345SOL    HW122934   4.842   2.340   4.371 -1.2271  0.3337 -0.3837
 7345SOL    HW222935   4.679   2.347   4.371 -1.2401  0.8067  1.8846
 7346SOL     OW22936   2.133   4.422   3.310 -0.2280  0.5010 -0.4435
 7346SOL    HW122937   2.185   4.431   3.395  0.3567 -0.1847 -0.7140
 7346SOL    HW222938   2.180   4.359   3.249 -1.7036 -0.6792 -0.4361
 7347SOL     OW22939   6.879   2.772   1.606 -1.0610  0.4555 -0.1507
 7347SOL    HW122940   6.931   2.858   1.607 -2.1944  1.2824  3.4420
 7347SOL    HW222941   6.791   2.787   1.561 -1.6613  1.5514  1.2883
 7348SOL     OW22942   0.421   5.174   2.385  0.0239 -0.8470  0.1062
 7348SOL    HW122943   0.334   5.140   2.422 -0.8790  2.5648  1.5545
 7348SOL    HW222944   0.486   5.187   2.460  0.4941  0.0141 -0.4384
 7349SOL     OW22945   4.720   5.189   2.672  0.0777 -0.5546  0.2880
 7349SOL    HW122946   4.684   5.184   2.765 -0.6820 -0.8471 -0.0200
 7349SOL    HW222947   4.646   5.178   2.607  0.4077  0.9116 -0.3713
 7350SOL     OW22948   2.635   1.256   4.151 -0.6353  0.0662 -0.2928
 7350SOL    HW122949   2.639   1.305   4.238 -0.3997 -0.9370  0.2761
 7350SOL    HW222950   2.710   1.287   4.093  1.2820 -1.5739  1.1488
 7351SOL     OW22951   5.215   5.414   3.028  0.3447  0.0691  0.0190
 7351SOL    HW122952   5.251   5.347   2.963  1.7794  1.0584 -0.2589
 7351SOL    HW222953   5.183   5.495   2.980  0.9231  0.5934  0.4977
 7352SOL     OW22954   2.252   1.702   3.804 -0.3339 -0.3794  0.4151
 7352SOL    HW122955   2.289   1.641   3.733 -1.0977 -1.7425  1.1473
 7352SOL    HW222956   2.206   1.779   3.760  0.8226 -0.1887 -0.5375
 7353SOL     OW22957   1.002   0.726   6.266 -0.0372  0.0951 -0.4174
 7353SOL    HW122958   0.955   0.709   6.353  0.1409  0.5958 -0.2212
 7353SOL    HW222959   1.010   0.640   6.215 -0.7782 -0.0742 -0.2599
 7354SOL     OW22960   2.169   1.714   5.962  0.1576  0.0056 -0.0529
 7354SOL    HW122961   2.203   1.723   6.056  0.1279 -0.0282 -0.0391
 7354SOL    HW222962   2.070   1.718   5.962  0.1327 -0.5854 -0.0178
 7355SOL     OW22963   3.045   2.335   0.402 -0.5132 -0.2533  0.5134
 7355SOL    HW122964   3.081   2.291   0.485 -0.1127  1.5641  1.3573
 7355SOL    HW222965   3.043   2.434   0.416 -1.0814  0.0357 -1.4255
 7356SOL     OW22966   4.100   2.770   0.226  0.0023 -0.1384 -0.0221
 7356SOL    HW122967   4.025   2.805   0.283 -0.2621 -0.3725 -0.2244
 7356SOL    HW222968   4.077   2.679   0.193  0.7808 -0.6133  0.6807
 7357SOL     OW22969   3.369   4.208   0.682 -0.9762 -0.1942  0.1014
 7357SOL    HW122970   3.390   4.120   0.726 -1.3174  0.5864  1.9277
 7357SOL    HW222971   3.442   4.231   0.618  0.7677 -0.3276  1.9495
 7358SOL     OW22972   5.955   4.408   3.174  0.2516  0.0364  0.2820
 7358SOL    HW122973   5.954   4.326   3.118  1.2598 -0.5550  1.0912
 7358SOL    HW222974   6.038   4.461   3.155  0.7976 -0.3633  1.4505
 7359SOL     OW22975   3.758   1.653   6.460  0.1761  0.1263 -0.0457
 7359SOL    HW122976   3.855   1.678   6.454 -0.3289  1.9099 -1.4337
 7359SOL    HW222977   3.727   1.619   6.371 -0.6690  0.3585  0.1509
 7360SOL     OW22978   1.423   3.510   1.672 -0.0062  0.0912  0.5933
 7360SOL    HW122979   1.486   3.435   1.691 -1.6719 -1.0296  2.0502
 7360SOL    HW222980   1.395   3.508   1.576  1.3558  0.0050  0.1764
 7361SOL     OW22981   4.080   1.171   2.221 -0.4204  0.2743  0.2737
 7361SOL    HW122982   4.032   1.257   2.201 -0.5917 -0.0159 -0.6340
 7361SOL    HW222983   4.171   1.191   2.257  0.3501  0.8896 -1.8541
 7362SOL     OW22984   3.128   5.044   6.244 -0.5176  0.2983 -0.1996
 7362SOL    HW122985   3.122   5.143   6.242 -0.5964  0.2956 -0.0809
 7362SOL    HW222986   3.133   5.012   6.339  0.4624  0.2466 -0.2542
 7363SOL     OW22987   4.259   0.261   1.300  0.1866 -0.0863 -0.2001
 7363SOL    HW122988   4.212   0.196   1.240  1.4420 -0.5704 -0.7009
 7363SOL    HW222989   4.348   0.224   1.325  0.7030  1.2172 -0.0396
 7364SOL     OW22990   3.311   6.073   2.278  0.0704  0.4098  0.4855
 7364SOL    HW122991   3.274   6.086   2.186  1.9759  0.2839 -0.3449
 7364SOL    HW222992   3.360   6.155   2.308  2.2512 -0.6150 -0.0231
 7365SOL     OW22993   2.183   0.458   3.339  0.4115  0.1451  0.1883
 7365SOL    HW122994   2.085   0.475   3.345  0.6098  1.0339  1.5417
 7365SOL    HW222995   2.200   0.375   3.286 -0.8354  1.9296 -3.2959
 7366SOL     OW22996   2.131   6.487   5.278  0.6468 -0.3505 -0.5025
 7366SOL    HW122997   2.174   6.404   5.312 -1.8386 -1.6184 -0.2240
 7366SOL    HW222998   2.031   6.478   5.285  0.2827  2.3589 -1.1963
 7367SOL     OW22999   3.805   2.822   6.476 -0.6042  0.1827 -0.5639
 7367SOL    HW123000   3.788   2.821   6.377 -1.6250 -1.8156 -0.4167
 7367SOL    HW223001   3.720   2.802   6.525 -0.1165  1.1639  0.7513
 7368SOL     OW23002   3.229   2.770   1.754  0.5975 -0.0987  0.2126
 7368SOL    HW123003   3.177   2.788   1.837  1.7564  0.1297  0.9110
 7368SOL    HW223004   3.194   2.687   1.710 -0.5215  0.2025  0.5018
 7369SOL     OW23005   4.953   2.475   0.692  0.4188 -0.0471 -0.4638
 7369SOL    HW123006   4.959   2.550   0.758  0.1772 -1.4759  1.2727
 7369SOL    HW223007   4.935   2.512   0.601 -2.2037  1.8749  0.7168
 7370SOL     OW23008   0.800   2.838   1.098 -0.4269  0.0444 -0.5413
 7370SOL    HW123009   0.722   2.777   1.114  0.2494 -0.7728 -0.2601
 7370SOL    HW223010   0.875   2.813   1.160 -0.1855  1.2697 -0.3194
 7371SOL     OW23011   3.698   6.864   2.900  0.1949  0.4156 -0.3324
 7371SOL    HW123012   3.665   6.798   2.967  0.4562  0.1423 -0.4705
 7371SOL    HW223013   3.669   6.835   2.808 -0.0266  0.7030 -0.3544
 7372SOL     OW23014   2.399   0.707   3.980 -0.0855  0.5560 -0.1877
 7372SOL    HW123015   2.478   0.698   3.919  0.8542  1.2828  0.8668
 7372SOL    HW223016   2.359   0.798   3.971  2.0038  1.8936  2.3972
 7373SOL     OW23017   6.831   1.724   5.074 -0.8709  0.1948  0.6777
 7373SOL    HW123018   6.817   1.756   4.980 -0.4953  0.4521  0.7101
 7373SOL    HW223019   6.899   1.781   5.119  0.4466 -1.1612  0.4710
 7374SOL     OW23020   2.084   2.277   4.394 -0.2124 -0.0557 -0.0365
 7374SOL    HW123021   1.996   2.265   4.441 -0.7274  2.3154 -0.2455
 7374SOL    HW223022   2.146   2.203   4.419 -1.0000  0.2142  3.0781
 7375SOL     OW23023   3.273   2.728   1.375 -0.2841  0.2536  0.2225
 7375SOL    HW123024   3.308   2.815   1.341 -2.3885  0.7048 -0.9446
 7375SOL    HW223025   3.173   2.727   1.370 -0.3415 -2.1387  0.4352
 7376SOL     OW23026   1.845   1.665   2.283  0.6384  0.0818 -0.6596
 7376SOL    HW123027   1.928   1.615   2.307 -0.2574 -0.4051  1.7189
 7376SOL    HW223028   1.765   1.611   2.309 -0.5368  0.1116 -3.7525
 7377SOL     OW23029   4.898   3.855   0.862  0.0612 -0.5005  0.1059
 7377SOL    HW123030   4.979   3.809   0.898  0.6753  0.2256 -0.3186
 7377SOL    HW223031   4.909   3.869   0.763 -1.0374 -1.3181 -0.1502
 7378SOL     OW23032   2.763   0.664   4.409 -0.5272 -0.7787  0.0864
 7378SOL    HW123033   2.844   0.651   4.352 -0.4252  0.8425 -0.1933
 7378SOL    HW223034   2.681   0.657   4.353 -0.4227  0.9477 -0.3396
 7379SOL     OW23035   3.342   0.752   1.680  0.2413 -0.6288 -0.0819
 7379SOL    HW123036   3.380   0.841   1.655 -0.2435 -0.8151 -1.5497
 7379SOL    HW223037   3.257   0.765   1.731  1.0333 -0.2486  1.1844
 7380SOL     OW23038   5.107   4.579   3.004  0.1143 -0.0730  1.0536
 7380SOL    HW123039   5.017   4.568   2.960  0.4618 -0.7676  0.4909
 7380SOL    HW223040   5.119   4.509   3.074  0.2682 -0.0756  1.0263
 7381SOL     OW23041   4.321   2.561   0.525 -0.3023 -0.2570 -0.3536
 7381SOL    HW123042   4.409   2.564   0.479 -1.0762 -0.0694 -1.8949
 7381SOL    HW223043   4.287   2.467   0.528  0.1437 -0.4071  0.6933
 7382SOL     OW23044   6.489   1.490   5.877  0.2964 -0.2220 -0.3778
 7382SOL    HW123045   6.516   1.458   5.787  0.5934  0.1878 -0.4370
 7382SOL    HW223046   6.474   1.412   5.937  0.2613 -0.4903 -0.7331
 7383SOL     OW23047   2.259   2.413   1.376  0.1853  0.3336  0.4520
 7383SOL    HW123048   2.219   2.347   1.314  0.9213  0.0759  0.2343
 7383SOL    HW223049   2.222   2.401   1.468  1.7557 -1.7411  0.8811
 7384SOL     OW23050   6.760   0.428   4.210  0.2677  0.3090 -0.3400
 7384SOL    HW123051   6.782   0.407   4.114  1.5813 -1.1048  0.2264
 7384SOL    HW223052   6.840   0.409   4.267 -0.0337  2.4286  0.9067
 7385SOL     OW23053   0.814   0.124   2.071 -0.0693  0.0276 -0.5030
 7385SOL    HW123054   0.849   0.081   2.154 -0.1749  1.1747  0.1606
 7385SOL    HW223055   0.850   0.217   2.064 -0.9510  0.3358 -1.1469
 7386SOL     OW23056   6.872   3.387   6.976 -0.3557 -0.6623 -0.2499
 7386SOL    HW123057   6.841   3.293   6.992 -0.1446 -0.6958 -0.0270
 7386SOL    HW223058   6.889   3.431   7.064 -1.2820 -0.1348 -0.3290
 7387SOL     OW23059   6.866   3.967   5.549 -0.0475  0.2698 -0.0250
 7387SOL    HW123060   6.902   3.994   5.459 -0.9970  0.8514 -0.2470
 7387SOL    HW223061   6.766   3.966   5.546 -0.0758 -0.3901  0.8406
 7388SOL     OW23062   1.267   4.237   3.287  0.2788 -0.2130  0.1290
 7388SOL    HW123063   1.259   4.228   3.188  0.9628  1.4834 -0.1057
 7388SOL    HW223064   1.177   4.221   3.329  0.1596 -1.8390 -0.6429
 7389SOL     OW23065   0.443   3.040   0.228  0.3020  0.1975 -0.2391
 7389SOL    HW123066   0.368   3.090   0.185  0.4267  0.4278 -0.1857
 7389SOL    HW223067   0.406   2.957   0.272 -0.0964  0.8931  0.7681
 7390SOL     OW23068   2.515   2.371   2.180  0.6097  0.3998  0.3972
 7390SOL    HW123069   2.536   2.316   2.100  1.6784  0.7710  0.4075
 7390SOL    HW223070   2.599   2.397   2.226  0.2034  2.5768  0.0276
 7391SOL     OW23071   3.954   3.236   3.149  0.5542  0.1209  0.0272
 7391SOL    HW123072   4.031   3.272   3.201  1.2662 -1.0763 -0.1711
 7391SOL    HW223073   3.879   3.213   3.212  0.9170 -0.0779  0.3885
 7392SOL     OW23074   2.542   5.165   0.584 -0.0244 -0.7415  0.8184
 7392SOL    HW123075   2.546   5.170   0.684  1.8454  1.1217  0.7396
 7392SOL    HW223076   2.513   5.254   0.548  0.1491 -1.1263 -0.2947
 7393SOL     OW23077   4.801   2.791   2.806  0.0967  0.1134 -0.0746
 7393SOL    HW123078   4.817   2.817   2.711  2.5920 -0.0463  0.2176
 7393SOL    HW223079   4.794   2.692   2.813 -3.0384  0.2141 -0.3826
 7394SOL     OW23080   1.447   3.913   4.841 -0.0245 -0.5113  0.1190
 7394SOL    HW123081   1.397   3.874   4.919 -1.7189 -1.6462 -1.4348
 7394SOL    HW223082   1.509   3.844   4.804  0.8760  0.0677  0.5398
 7395SOL     OW23083   2.442   2.930   1.010  0.0216 -0.4048  0.4741
 7395SOL    HW123084   2.388   2.976   1.081 -0.1020  0.5860 -0.2337
 7395SOL    HW223085   2.401   2.948   0.920  0.8957 -0.5782  0.0272
 7396SOL     OW23086   1.894   1.941   0.949 -0.2690  0.0952  0.0724
 7396SOL    HW123087   1.961   1.975   1.015  0.5381  0.1039 -0.7308
 7396SOL    HW223088   1.832   1.877   0.994 -0.6671  1.2129  1.1808
 7397SOL     OW23089   5.415   4.567   5.469  0.1808 -0.6045  0.6560
 7397SOL    HW123090   5.491   4.565   5.534  1.7558 -0.8889 -1.1008
 7397SOL    HW223091   5.380   4.661   5.462  0.3003 -0.4888  1.5669
 7398SOL     OW23092   0.923   0.350   1.705 -0.3640 -0.0452 -0.2432
 7398SOL    HW123093   0.873   0.422   1.657  1.3302  0.0085 -2.0734
 7398SOL    HW223094   0.859   0.295   1.759 -1.8011  2.3724  0.7076
 7399SOL     OW23095   0.556   2.939   3.781 -0.2457  0.2996 -0.0922
 7399SOL    HW123096   0.470   2.899   3.750 -1.7581  2.3980  1.0689
 7399SOL    HW223097   0.600   2.878   3.847 -0.9210 -0.7240 -0.5649
 7400SOL     OW23098   3.166   4.079   4.258  0.1482 -0.1105  0.0129
 7400SOL    HW123099   3.242   4.119   4.309 -1.4725  2.5619  0.5362
 7400SOL    HW223100   3.130   4.001   4.308  1.4498 -0.3687  0.6001
 7401SOL     OW23101   2.189   1.904   3.367 -0.3336 -0.0603  0.0987
 7401SOL    HW123102   2.204   1.890   3.269 -0.4329  0.3273  0.0265
 7401SOL    HW223103   2.150   1.820   3.407  0.8694 -0.6539  0.0593
 7402SOL     OW23104   1.969   4.376   6.491 -0.1714  0.2642 -0.4581
 7402SOL    HW123105   1.994   4.469   6.463  0.9922  0.1423  0.1093
 7402SOL    HW223106   1.994   4.363   6.587 -1.8666 -0.1011 -0.0392
 7403SOL     OW23107   1.560   3.015   3.901  0.1419 -0.1938  0.2581
 7403SOL    HW123108   1.608   3.048   3.982  0.1663  0.2157  0.0797
 7403SOL    HW223109   1.625   2.972   3.838  0.0852 -0.7430  0.5653
 7404SOL     OW23110   3.910   4.577   1.430  0.6675 -0.2501  0.4022
 7404SOL    HW123111   4.005   4.606   1.415  0.9318 -0.2084  1.9980
 7404SOL    HW223112   3.904   4.478   1.424  0.7835 -0.2479  0.2228
 7405SOL     OW23113   3.100   5.316   5.331  0.2606 -0.5143  0.4326
 7405SOL    HW123114   3.197   5.292   5.335  0.6027  0.2120 -1.9203
 7405SOL    HW223115   3.051   5.248   5.275 -0.5479 -0.6982  1.3309
 7406SOL     OW23116   6.677   6.970   5.073 -0.2278  0.1178 -0.5467
 7406SOL    HW123117   6.687   6.892   5.011 -2.5305 -1.3794  0.8323
 7406SOL    HW223118   6.693   6.941   5.167  0.5190  1.7372 -0.1340
 7407SOL     OW23119   1.936   5.962   5.627 -0.4019 -0.1752  0.4500
 7407SOL    HW123120   1.959   5.980   5.723  2.0688  2.4154 -0.4997
 7407SOL    HW223121   2.005   6.004   5.567 -2.5000 -0.6364 -2.5227
 7408SOL     OW23122   4.488   3.167   5.939 -0.3007  0.5929  0.2136
 7408SOL    HW123123   4.554   3.116   5.994 -0.0151 -0.1821 -0.8033
 7408SOL    HW223124   4.534   3.243   5.893 -0.2690  0.4977  0.0862
 7409SOL     OW23125   5.655   3.321   0.032  0.4483  0.2379  0.4564
 7409SOL    HW123126   5.749   3.293   0.051  1.6583  1.2535 -3.1686
 7409SOL    HW223127   5.639   3.412   0.071  0.5011 -0.4069  2.0750
 7410SOL     OW23128   1.529   3.154   0.619  0.0004 -0.0184  0.5771
 7410SOL    HW123129   1.611   3.186   0.666  0.4200 -1.7480  1.0873
 7410SOL    HW223130   1.541   3.165   0.520 -0.1491  1.9292  0.7301
 7411SOL     OW23131   2.507   0.959   5.193 -0.2156  0.2760  0.0156
 7411SOL    HW123132   2.543   0.875   5.154 -1.5397  0.7544 -2.5185
 7411SOL    HW223133   2.583   1.021   5.215  0.9610 -2.2456  4.0831
 7412SOL     OW23134   3.388   6.832   0.915  0.0979 -0.2851  0.4892
 7412SOL    HW123135   3.459   6.902   0.911  0.1630 -0.4153 -1.2851
 7412SOL    HW223136   3.429   6.742   0.928  0.1105 -0.1738  1.2875
 7413SOL     OW23137   4.709   4.962   4.029  0.0579 -0.5252  0.6008
 7413SOL    HW123138   4.746   5.045   4.068  0.0685 -0.2617  0.0426
 7413SOL    HW223139   4.709   4.969   3.929  2.6502 -2.2758  0.3803
 7414SOL     OW23140   2.001   1.558   3.079  0.5355 -0.7989  0.8122
 7414SOL    HW123141   2.000   1.613   2.996  3.0911  1.9429  2.3946
 7414SOL    HW223142   1.923   1.583   3.137 -0.0160 -1.1385  0.2377
 7415SOL     OW23143   1.286   5.473   4.900  0.1742  0.1097  0.0097
 7415SOL    HW123144   1.190   5.463   4.926  0.1376  0.8283  0.1837
 7415SOL    HW223145   1.292   5.524   4.814  0.4117  0.6334  0.3263
 7416SOL     OW23146   3.004   1.783   3.982 -0.1959 -0.9390  0.3738
 7416SOL    HW123147   3.072   1.821   4.044  0.7088 -1.3800 -0.3293
 7416SOL    HW223148   2.929   1.848   3.969  0.4139 -0.1834  0.6448
 7417SOL     OW23149   1.930   3.467   2.177  0.0631  0.1385 -0.2601
 7417SOL    HW123150   1.977   3.380   2.168 -2.6472 -1.3688 -0.8284
 7417SOL    HW223151   1.922   3.511   2.088 -2.5126 -1.3095 -0.8249
 7418SOL     OW23152   1.905   5.020   6.244 -0.5069  0.1580  0.2336
 7418SOL    HW123153   1.877   4.935   6.288  0.0365 -0.5509 -0.7639
 7418SOL    HW223154   1.977   5.002   6.177  1.1202  1.6990  1.4721
 7419SOL     OW23155   4.931   3.871   2.930  0.4251 -0.0817  0.6156
 7419SOL    HW123156   4.880   3.791   2.961 -0.8701  1.5297  2.9091
 7419SOL    HW223157   5.028   3.859   2.951  0.2367 -0.9882  1.0282
 7420SOL     OW23158   0.694   6.588   0.802 -0.1020  0.2203  0.4190
 7420SOL    HW123159   0.678   6.686   0.818  2.4374  0.7016  0.3924
 7420SOL    HW223160   0.663   6.536   0.882  0.0837  1.2211  1.1611
 7421SOL     OW23161   5.017   3.691   0.087  0.4027  0.0494  0.4997
 7421SOL    HW123162   4.947   3.745   0.134 -0.5526 -0.4443 -0.2996
 7421SOL    HW223163   5.046   3.615   0.146 -0.1995 -0.1054  0.6033
 7422SOL     OW23164   0.263   5.605   0.776 -0.5666  0.1757 -0.0876
 7422SOL    HW123165   0.259   5.614   0.677 -0.3465 -2.1919 -0.3685
 7422SOL    HW223166   0.175   5.572   0.811 -0.2981 -0.1048  0.3474
 7423SOL     OW23167   6.745   3.075   5.757  0.2761 -0.7969  0.5418
 7423SOL    HW123168   6.672   3.128   5.800 -0.7860 -0.8563 -1.1031
 7423SOL    HW223169   6.739   2.980   5.787  1.1414 -0.3592  2.1937
 7424SOL     OW23170   6.997   0.865   6.027 -0.2325 -0.1480  0.5343
 7424SOL    HW123171   7.009   0.792   6.094  0.7507 -1.6118 -1.1527
 7424SOL    HW223172   6.901   0.873   6.002 -0.4465 -0.3345  1.2730
 7425SOL     OW23173   5.992   6.673   0.854 -0.0729 -0.6889  0.7691
 7425SOL    HW123174   6.024   6.767   0.866  1.8811 -1.1183 -0.5725
 7425SOL    HW223175   6.014   6.619   0.935  0.5631 -0.4435  0.7613
 7426SOL     OW23176   4.038   1.720   6.503  0.4723 -0.1981  0.0856
 7426SOL    HW123177   4.090   1.781   6.562 -1.0495  0.1980  1.0867
 7426SOL    HW223178   4.089   1.635   6.488  2.5873  1.2149 -1.2680
 7427SOL     OW23179   3.141   0.892   3.825  0.3487  0.1750  0.2436
 7427SOL    HW123180   3.233   0.928   3.836  0.3885 -0.0186  0.5527
 7427SOL    HW223181   3.122   0.876   3.728  0.4363  0.7481  0.1305
 7428SOL     OW23182   3.074   1.675   4.887 -0.4246 -0.5185  0.4653
 7428SOL    HW123183   3.148   1.615   4.859  1.6978  1.2091  2.0479
 7428SOL    HW223184   3.036   1.642   4.974  2.0249  1.2722  2.3544
 7429SOL     OW23185   0.263   1.376   5.452  0.3819 -0.1415  0.0107
 7429SOL    HW123186   0.325   1.335   5.518  0.9996  0.5341 -0.1313
 7429SOL    HW223187   0.259   1.475   5.468  0.8433  0.0915 -1.1894
 7430SOL     OW23188   5.484   2.868   2.788  0.6046  0.1467  0.6164
 7430SOL    HW123189   5.571   2.870   2.738 -0.4327  0.2125 -1.2746
 7430SOL    HW223190   5.488   2.934   2.863  1.9360  0.6531  0.1444
 7431SOL     OW23191   1.818   0.961   4.361  0.0502  0.5956  0.0780
 7431SOL    HW123192   1.841   0.978   4.265  0.1400 -0.3864 -0.0835
 7431SOL    HW223193   1.742   1.019   4.388  0.7584  1.7182 -0.2533
 7432SOL     OW23194   1.518   0.973   2.911  0.2929  0.0711  0.2529
 7432SOL    HW123195   1.494   0.881   2.879 -1.2274 -0.0326  1.5604
 7432SOL    HW223196   1.587   1.012   2.850  0.9583 -1.9095 -0.3582
 7433SOL     OW23197   5.248   0.455   6.597 -0.5832 -0.5126 -0.1366
 7433SOL    HW123198   5.325   0.395   6.618  0.2323  0.3886 -0.4566
 7433SOL    HW223199   5.169   0.400   6.568  0.1078 -1.4246 -0.3356
 7434SOL     OW23200   6.255   6.149   5.312 -0.7051 -0.0910  0.4081
 7434SOL    HW123201   6.344   6.191   5.330  0.0783 -1.5077  0.0018
 7434SOL    HW223202   6.258   6.099   5.225 -2.1752  0.5572 -0.0451
 7435SOL     OW23203   4.173   4.787   0.961  0.0033  0.0167 -0.2169
 7435SOL    HW123204   4.103   4.778   0.890  0.9353  1.1295 -1.3099
 7435SOL    HW223205   4.190   4.697   1.002 -1.1668 -0.4847 -0.7775
 7436SOL     OW23206   5.606   6.874   6.925  0.7101 -0.2950  0.2683
 7436SOL    HW123207   5.660   6.827   6.994  1.0234  1.4572  1.2562
 7436SOL    HW223208   5.509   6.871   6.950  1.0093  2.4239  2.2079
 7437SOL     OW23209   2.596   5.723   1.547  0.1704 -0.7146  0.0327
 7437SOL    HW123210   2.546   5.735   1.633 -0.4574 -3.6634  0.1742
 7437SOL    HW223211   2.664   5.796   1.538 -1.7783  1.4428  1.5015
 7438SOL     OW23212   3.075   5.493   6.439  0.0972  0.6410  0.4299
 7438SOL    HW123213   3.010   5.565   6.463  0.0358  0.3494  1.1696
 7438SOL    HW223214   3.141   5.482   6.514  0.1580 -0.0037  0.2840
 7439SOL     OW23215   1.651   6.881   5.079  0.0750  0.0367 -0.1152
 7439SOL    HW123216   1.692   6.901   4.990  0.0845  1.5431  0.2126
 7439SOL    HW223217   1.552   6.894   5.074  0.1790  1.0752  0.3335
 7440SOL     OW23218   6.198   3.643   4.460 -0.0404 -0.2633  0.3774
 7440SOL    HW123219   6.288   3.615   4.494  0.5456  2.0670  0.8930
 7440SOL    HW223220   6.135   3.566   4.467  1.6918 -1.7229  0.7498
 7441SOL     OW23221   6.061   0.452   3.792 -0.1623 -0.3198 -0.5403
 7441SOL    HW123222   5.964   0.468   3.774 -0.3767 -0.6408  0.2890
 7441SOL    HW223223   6.101   0.533   3.834 -0.2970 -0.5172 -0.0252
 7442SOL     OW23224   5.742   0.950   6.657  0.1404 -0.3772  0.1288
 7442SOL    HW123225   5.806   1.018   6.621 -0.7896 -0.8253 -2.6539
 7442SOL    HW223226   5.689   0.990   6.731  0.9542  1.2732 -0.1365
 7443SOL     OW23227   5.546   4.618   1.202  0.1554 -0.2958  0.2135
 7443SOL    HW123228   5.587   4.530   1.227  0.5482 -0.1592  0.0600
 7443SOL    HW223229   5.609   4.692   1.226 -0.7488  0.0589  1.6371
 7444SOL     OW23230   4.555   1.711   5.941 -0.0263  0.3070 -0.0386
 7444SOL    HW123231   4.476   1.667   5.985 -0.4719  0.2710 -0.8584
 7444SOL    HW223232   4.638   1.660   5.963 -0.1053  0.7995  1.4904
 7445SOL     OW23233   3.528   1.426   0.798  0.1677 -0.1343  0.1380
 7445SOL    HW123234   3.485   1.360   0.860 -1.1568  0.6975  0.1536
 7445SOL    HW223235   3.621   1.446   0.828 -0.0730 -0.5719  1.2100
 7446SOL     OW23236   3.821   2.744   6.771 -0.0959  0.7844  0.3694
 7446SOL    HW123237   3.744   2.791   6.727  0.0263  0.9503  0.3302
 7446SOL    HW223238   3.815   2.756   6.870 -1.3013 -0.9963  0.5544
 7447SOL     OW23239   5.698   5.267   6.680  0.0290 -0.2938 -0.0827
 7447SOL    HW123240   5.618   5.249   6.622  0.0310 -1.7129  0.3182
 7447SOL    HW223241   5.669   5.316   6.763 -0.0722  1.1359 -0.9239
 7448SOL     OW23242   5.421   6.060   3.978  0.2236 -0.2987 -0.1511
 7448SOL    HW123243   5.462   6.053   3.888  2.9915 -0.7462  1.0501
 7448SOL    HW223244   5.447   5.981   4.034 -1.8038 -0.2758  0.9530
 7449SOL     OW23245   0.978   3.871   6.991 -0.3490 -0.1338  0.3111
 7449SOL    HW123246   0.913   3.804   7.027  0.6011  0.1048  2.6690
 7449SOL    HW223247   1.053   3.823   6.946 -0.7634 -0.5477  0.0547
 7450SOL     OW23248   5.857   0.734   6.911 -0.0241 -0.2954 -0.0915
 7450SOL    HW123249   5.817   0.689   6.831 -0.8140  0.6654 -0.2551
 7450SOL    HW223250   5.854   0.833   6.899  0.1915 -0.1465  0.9665
 7451SOL     OW23251   5.278   4.646   1.659 -0.2255  0.5162  0.1861
 7451SOL    HW123252   5.254   4.605   1.747  0.6523 -0.0938  0.1478
 7451SOL    HW223253   5.220   4.726   1.643 -0.2904  0.7295  1.3923
 7452SOL     OW23254   0.110   4.610   3.668  0.0750  0.0213  0.4119
 7452SOL    HW123255   0.140   4.677   3.736 -3.1152 -0.3329  2.3947
 7452SOL    HW223256   0.136   4.518   3.698 -0.6100 -0.0685  0.7428
 7453SOL     OW23257   5.604   0.122   5.681  0.8678  0.0574 -0.3063
 7453SOL    HW123258   5.670   0.197   5.684  1.6266 -0.4044 -2.9397
 7453SOL    HW223259   5.521   0.152   5.632 -0.8805  0.5511  2.7274
 7454SOL     OW23260   0.570   0.046   0.347 -0.2608 -0.8310 -0.0066
 7454SOL    HW123261   0.476   0.074   0.368 -0.1468 -1.0802  0.8542
 7454SOL    HW223262   0.629   0.067   0.424  0.3458 -0.9314 -0.4365
 7455SOL     OW23263   0.482   3.842   2.304  0.0902 -0.2770  0.5200
 7455SOL    HW123264   0.506   3.748   2.327 -0.7962 -1.1283 -1.7625
 7455SOL    HW223265   0.383   3.848   2.288  0.3205  0.6878 -0.7423
 7456SOL     OW23266   2.832   1.545   3.818 -0.2117  0.3281  0.4408
 7456SOL    HW123267   2.770   1.578   3.890  0.1737  1.9511  0.0755
 7456SOL    HW223268   2.840   1.614   3.746  0.5366 -0.6588 -0.4687
 7457SOL     OW23269   1.664   0.757   3.577  0.4525 -0.4158 -0.6023
 7457SOL    HW123270   1.684   0.842   3.528 -3.6267  1.3718  0.4122
 7457SOL    HW223271   1.586   0.711   3.534 -0.0414 -1.4132  1.2481
 7458SOL     OW23272   3.346   0.330   6.335  0.3268  0.1881  0.5300
 7458SOL    HW123273   3.410   0.284   6.274  0.5709  0.7136  0.3851
 7458SOL    HW223274   3.368   0.427   6.340  0.1284  0.2064  1.2288
 7459SOL     OW23275   6.485   0.221   1.320 -0.3180  0.8316 -0.2383
 7459SOL    HW123276   6.386   0.215   1.309 -0.5014  2.0639  0.5823
 7459SOL    HW223277   6.525   0.263   1.239 -0.3981 -0.1000 -0.7739
 7460SOL     OW23278   3.008   5.382   0.166  0.0218 -0.0064  0.0025
 7460SOL    HW123279   2.995   5.282   0.168  2.1411 -0.4465 -2.7171
 7460SOL    HW223280   3.040   5.412   0.256 -0.3456 -1.8272  0.8032
 7461SOL     OW23281   6.032   4.985   5.931 -0.1211  0.1306 -0.0443
 7461SOL    HW123282   6.095   5.057   5.960 -1.6745  0.7776  2.0013
 7461SOL    HW223283   5.938   5.018   5.940 -0.8744 -2.0572  0.6961
 7462SOL     OW23284   2.492   4.691   0.410 -0.3063  0.2496  0.0406
 7462SOL    HW123285   2.552   4.713   0.333  1.2210  0.9826  1.3742
 7462SOL    HW223286   2.442   4.772   0.439 -0.1512  0.2162  0.4143
 7463SOL     OW23287   4.074   4.317   6.364 -0.1559  0.1709 -0.6729
 7463SOL    HW123288   4.095   4.248   6.433  1.4994  2.2975  1.1282
 7463SOL    HW223289   4.092   4.280   6.273 -1.7150 -2.4947 -0.0026
 7464SOL     OW23290   0.286   6.552   6.070 -0.3139 -0.3317  0.2961
 7464SOL    HW123291   0.204   6.510   6.109 -0.7548  0.5108  0.2984
 7464SOL    HW223292   0.311   6.503   5.987 -1.4404  0.0444 -0.2887
 7465SOL     OW23293   3.167   3.927   1.358 -0.7360 -0.2735 -0.0795
 7465SOL    HW123294   3.135   4.022   1.361 -1.3015 -0.4127 -1.1632
 7465SOL    HW223295   3.113   3.872   1.423 -0.3236  0.1529  0.6407
 7466SOL     OW23296   1.049   1.510   6.740  0.0679  0.2790  0.3265
 7466SOL    HW123297   0.968   1.496   6.798 -0.1149  0.8589  0.2144
 7466SOL    HW223298   1.067   1.608   6.731 -0.2977  0.2329 -1.1287
 7467SOL     OW23299   1.242   2.405   5.222  0.4710 -0.4728  0.1168
 7467SOL    HW123300   1.171   2.449   5.277  1.5801  1.9350 -0.2425
 7467SOL    HW223301   1.206   2.383   5.132  0.1854  0.9800 -0.1582
 7468SOL     OW23302   5.333   0.216   2.932  0.4325  0.5009  1.2561
 7468SOL    HW123303   5.339   0.220   2.832 -1.5504 -0.7939  1.0173
 7468SOL    HW223304   5.238   0.230   2.960  0.5595 -1.2554  2.7836
 7469SOL     OW23305   6.777   1.865   5.615  0.0947  0.5413  0.0813
 7469SOL    HW123306   6.693   1.890   5.568  0.2796  2.2830  0.6058
 7469SOL    HW223307   6.812   1.779   5.578 -2.0161 -0.3411  0.0077
 7470SOL     OW23308   4.609   4.979   2.989 -0.6805 -0.1151 -0.0542
 7470SOL    HW123309   4.679   4.908   2.995 -0.6151 -0.0283  0.1985
 7470SOL    HW223310   4.524   4.938   2.955 -0.2736 -0.0561 -1.1867
 7471SOL     OW23311   5.124   5.346   0.102  0.8820  0.1167  0.4512
 7471SOL    HW123312   5.170   5.364   0.016  0.1040  0.0675  0.0199
 7471SOL    HW223313   5.046   5.286   0.086 -0.9302  2.2723  0.7460
 7472SOL     OW23314   5.472   0.331   3.904  0.4387 -0.0671 -0.2832
 7472SOL    HW123315   5.459   0.257   3.838 -0.5293  1.8103 -2.3114
 7472SOL    HW223316   5.570   0.343   3.922  0.7290 -0.5565 -1.4588
 7473SOL     OW23317   6.358   1.054   4.622 -0.9567 -0.4761 -0.5578
 7473SOL    HW123318   6.276   1.026   4.671 -0.2465 -1.7236 -0.0364
 7473SOL    HW223319   6.356   1.153   4.607 -1.9205 -0.3006  0.6158
 7474SOL     OW23320   5.101   1.018   0.750  0.0368 -0.0225  0.0264
 7474SOL    HW123321   5.096   0.996   0.653 -0.2576 -0.5381  0.1576
 7474SOL    HW223322   5.031   0.968   0.800  1.8163 -1.8237  0.8704
 7475SOL     OW23323   4.176   2.321   0.977 -0.1184  0.1581  0.0897
 7475SOL    HW123324   4.081   2.349   0.989  0.6223  1.8160  3.1926
 7475SOL    HW223325   4.230   2.399   0.945  0.5620 -0.0768  0.6335
 7476SOL     OW23326   1.294   2.857   3.228 -0.4213 -0.5899  1.1217
 7476SOL    HW123327   1.195   2.864   3.245 -0.3814 -2.1109  2.1071
 7476SOL    HW223328   1.331   2.778   3.276  1.0179 -0.9370 -0.4507
 7477SOL     OW23329   6.231   2.254   6.144  0.8380 -0.4717 -0.3591
 7477SOL    HW123330   6.238   2.309   6.228  0.8428 -1.4096  0.2683
 7477SOL    HW223331   6.177   2.172   6.163  1.9268 -1.3448 -0.9394
 7478SOL     OW23332   4.870   2.533   6.073 -0.0481 -0.2152 -0.7237
 7478SOL    HW123333   4.772   2.554   6.082 -0.0586 -0.3297 -0.5762
 7478SOL    HW223334   4.912   2.530   6.163  0.2679  0.6766 -0.8315
 7479SOL     OW23335   4.390   1.643   6.750 -0.4723 -0.1090  0.0476
 7479SOL    HW123336   4.430   1.553   6.769 -2.7744 -0.9205  1.3629
 7479SOL    HW223337   4.456   1.714   6.775  0.3154 -1.3766  1.8096
 7480SOL     OW23338   2.263   4.222   2.854 -0.0696  0.1795  0.1575
 7480SOL    HW123339   2.262   4.308   2.805 -0.1328 -1.0774 -2.1938
 7480SOL    HW223340   2.170   4.194   2.875 -0.1197  0.1388 -0.1159
 7481SOL     OW23341   6.575   2.937   2.236  0.0060 -0.4266  0.1591
 7481SOL    HW123342   6.576   2.912   2.333 -1.1076 -0.4280  0.1887
 7481SOL    HW223343   6.667   2.928   2.199  0.7846  1.1045  1.5849
 7482SOL     OW23344   6.029   3.065   2.544 -0.4450 -0.3721  0.3553
 7482SOL    HW123345   6.072   3.075   2.633 -0.3838 -0.5557  0.3469
 7482SOL    HW223346   6.093   3.021   2.481  0.7932  2.6847 -0.7348
 7483SOL     OW23347   4.682   2.154   4.647  0.2215 -0.3068 -0.1526
 7483SOL    HW123348   4.645   2.219   4.714  0.5460 -1.0255  0.7470
 7483SOL    HW223349   4.692   2.199   4.559  0.0191  0.7421  0.3469
 7484SOL     OW23350   2.404   6.562   5.837 -0.3032  0.1708 -0.7622
 7484SOL    HW123351   2.489   6.582   5.887 -0.2541  0.2962 -0.8931
 7484SOL    HW223352   2.375   6.644   5.788 -0.9714  0.3799 -0.0291
 7485SOL     OW23353   3.602   0.932   4.632 -0.2428  0.4884 -0.5548
 7485SOL    HW123354   3.651   1.011   4.668 -1.1749  0.5554  0.6335
 7485SOL    HW223355   3.506   0.955   4.617 -0.7554 -0.6275  0.7228
 7486SOL     OW23356   0.839   5.857   0.174  0.1498 -0.3476  0.3720
 7486SOL    HW123357   0.835   5.956   0.190 -0.7807 -0.6582  2.3376
 7486SOL    HW223358   0.761   5.829   0.119 -0.5022 -0.1997  1.2023
 7487SOL     OW23359   4.199   0.859   2.518 -0.3504  0.3593 -0.2520
 7487SOL    HW123360   4.236   0.817   2.435 -3.7728 -1.0462 -1.2542
 7487SOL    HW223361   4.199   0.792   2.592  2.0612  1.4071  0.8276
 7488SOL     OW23362   3.037   0.325   4.306 -0.0330 -0.0861  0.2586
 7488SOL    HW123363   3.124   0.330   4.355 -0.1857 -0.0258  0.5277
 7488SOL    HW223364   3.038   0.248   4.243  0.3622  0.1497 -0.0306
 7489SOL     OW23365   5.948   1.605   1.037 -0.0580  0.1462  0.3452
 7489SOL    HW123366   5.899   1.541   1.096  1.3879  0.6780  2.2300
 7489SOL    HW223367   6.022   1.557   0.991 -1.2610 -0.2961 -1.2209
 7490SOL     OW23368   2.185   1.991   2.419  0.1688 -0.0056 -0.1140
 7490SOL    HW123369   2.113   2.020   2.355  1.4674  2.6252 -0.5362
 7490SOL    HW223370   2.252   2.065   2.429  1.8964 -1.6913  1.6194
 7491SOL     OW23371   5.307   2.917   1.305  0.4956 -0.3779 -0.2500
 7491SOL    HW123372   5.390   2.968   1.286  0.1502  0.6110  0.7940
 7491SOL    HW223373   5.326   2.846   1.373  0.7045 -0.8676 -0.8059
 7492SOL     OW23374   3.275   1.084   5.697 -0.3270  0.1959 -0.6124
 7492SOL    HW123375   3.272   1.101   5.599 -2.6592 -0.4980 -0.7258
 7492SOL    HW223376   3.279   0.986   5.715 -0.4472  0.2939 -0.0064
 7493SOL     OW23377   5.632   3.489   4.828 -0.6921 -0.4543 -0.2088
 7493SOL    HW123378   5.706   3.540   4.871 -1.0405  0.1748 -0.3360
 7493SOL    HW223379   5.563   3.554   4.794 -0.8636 -0.9871 -0.8821
 7494SOL     OW23380   4.894   0.352   4.901  0.0783 -0.5386 -0.3241
 7494SOL    HW123381   4.804   0.380   4.935  0.4196  0.1816  0.0192
 7494SOL    HW223382   4.959   0.350   4.977 -0.3703 -4.5327  0.1800
 7495SOL     OW23383   2.208   3.982   4.442  0.3268 -0.0054  0.0577
 7495SOL    HW123384   2.162   3.960   4.528 -1.0843  0.9004 -0.4234
 7495SOL    HW223385   2.211   3.900   4.384 -0.0977 -0.2443  0.3676
 7496SOL     OW23386   5.286   3.294   4.749 -0.2015 -0.3091 -0.0001
 7496SOL    HW123387   5.294   3.216   4.688 -1.8812  0.5063 -1.3572
 7496SOL    HW223388   5.217   3.358   4.713 -0.0771  0.9975  1.9114
 7497SOL     OW23389   2.335   6.092   1.316  0.3752 -0.1137  0.3414
 7497SOL    HW123390   2.413   6.091   1.378 -0.2856  0.2357  1.1879
 7497SOL    HW223391   2.276   6.169   1.338  0.3245  0.2547 -0.9812
 7498SOL     OW23392   1.200   2.249   3.017  0.1280  0.0514  0.3223
 7498SOL    HW123393   1.279   2.214   2.967  0.0935 -0.4284  0.5954
 7498SOL    HW223394   1.188   2.347   2.997  2.3192  0.7887  2.2958
 7499SOL     OW23395   4.175   1.680   4.546 -0.2709 -0.2558  0.2495
 7499SOL    HW123396   4.210   1.760   4.595 -1.9531  0.6659  0.0397
 7499SOL    HW223397   4.141   1.709   4.456 -1.5078 -1.0782  0.4301
 7500SOL     OW23398   3.868   5.700   3.683  0.2408  0.7389 -0.7717
 7500SOL    HW123399   3.843   5.613   3.726  0.7055  0.8612 -0.2408
 7500SOL    HW223400   3.804   5.771   3.710  1.1665  1.0656  0.6268
 7501SOL     OW23401   5.188   4.158   3.843  0.3486  0.2267  0.3854
 7501SOL    HW123402   5.182   4.243   3.790 -0.6782 -1.0221 -1.6222
 7501SOL    HW223403   5.282   4.142   3.870  0.8719  1.0756 -0.8289
 7502SOL     OW23404   2.731   6.808   2.781 -0.4083  0.3832  0.3536
 7502SOL    HW123405   2.739   6.732   2.845  2.6724  0.1066 -0.2076
 7502SOL    HW223406   2.698   6.775   2.693 -1.7320  0.2347  0.8839
 7503SOL     OW23407   2.436   6.963   0.751 -0.1894  0.4120 -0.2047
 7503SOL    HW123408   2.365   6.895   0.732  0.4862 -0.1234 -0.8419
 7503SOL    HW223409   2.426   7.040   0.688  0.2333  0.0008 -0.7816
 7504SOL     OW23410   2.428   6.357   6.963  0.4707 -0.7228  0.6405
 7504SOL    HW123411   2.390   6.278   7.011  3.3048 -2.5176  0.1843
 7504SOL    HW223412   2.437   6.336   6.866 -1.4345  1.3520 -0.0553
 7505SOL     OW23413   2.210   0.390   0.579  0.9338  0.2441 -0.6627
 7505SOL    HW123414   2.155   0.420   0.656 -0.0837  0.3170 -1.4017
 7505SOL    HW223415   2.168   0.310   0.537  1.2906  0.4096 -1.3459
 7506SOL     OW23416   2.990   1.576   4.132  0.1971 -0.6493  0.0035
 7506SOL    HW123417   2.921   1.505   4.117  1.0116 -1.3025 -0.7505
 7506SOL    HW223418   2.966   1.658   4.080 -2.7014  1.0782  3.6330
 7507SOL     OW23419   0.417   2.769   5.771 -0.4313  0.2197 -0.1489
 7507SOL    HW123420   0.506   2.723   5.771 -0.6957 -0.3960 -1.8630
 7507SOL    HW223421   0.431   2.868   5.763  0.1089  0.2362  0.8678
 7508SOL     OW23422   2.978   4.754   0.853 -0.2067  0.3797 -0.4233
 7508SOL    HW123423   2.921   4.824   0.896  0.3743  1.1454 -0.8682
 7508SOL    HW223424   2.969   4.668   0.903 -3.5252 -0.2006 -1.7701
 7509SOL     OW23425   6.240   3.224   0.842  0.5323 -0.2348 -0.1396
 7509SOL    HW123426   6.230   3.141   0.786  1.5227  0.6321 -1.6856
 7509SOL    HW223427   6.175   3.293   0.811  0.0126 -0.2594  0.8536
 7510SOL     OW23428   4.061   2.979   5.425 -0.0979  0.4702  0.1020
 7510SOL    HW123429   4.075   2.981   5.524 -2.4834  1.3922  0.4787
 7510SOL    HW223430   4.065   2.885   5.393 -0.9287 -0.0101  1.3459
 7511SOL     OW23431   1.862   5.833   4.901  0.1970  0.1284  0.5394
 7511SOL    HW123432   1.765   5.824   4.878  0.5059 -1.5723 -0.2350
 7511SOL    HW223433   1.917   5.829   4.818  1.0219 -0.7776  1.0976
 7512SOL     OW23434   3.547   1.896   6.325 -0.6571 -0.1938 -0.3330
 7512SOL    HW123435   3.467   1.954   6.308 -0.2909  0.7667  1.0546
 7512SOL    HW223436   3.519   1.816   6.377 -0.8291 -0.2135 -0.4540
 7513SOL     OW23437   2.350   2.130   1.943 -0.0790  0.0955 -1.2045
 7513SOL    HW123438   2.290   2.209   1.930  0.4822  0.3853 -2.1364
 7513SOL    HW223439   2.445   2.159   1.931  0.1893 -0.5371 -0.6148
 7514SOL     OW23440   1.515   6.363   5.667  0.2021  0.4761  0.2806
 7514SOL    HW123441   1.468   6.421   5.733  1.1249  1.7321 -0.1109
 7514SOL    HW223442   1.596   6.411   5.633  0.2326 -0.4906 -1.1020
 7515SOL     OW23443   6.279   6.045   3.199 -0.1323  0.5388  0.1308
 7515SOL    HW123444   6.222   5.989   3.139 -0.3272 -2.3279  2.7749
 7515SOL    HW223445   6.368   6.059   3.156  0.6690 -3.5960  0.0105
 7516SOL     OW23446   1.059   3.657   6.802 -0.1253  0.1803  0.4735
 7516SOL    HW123447   1.152   3.641   6.769 -0.0252  1.5617  0.0034
 7516SOL    HW223448   0.993   3.627   6.733 -0.0268 -0.5502  0.6925
 7517SOL     OW23449   2.739   2.447   1.331 -0.0648  0.5474 -0.1594
 7517SOL    HW123450   2.795   2.455   1.413  1.8000 -1.2075 -1.1407
 7517SOL    HW223451   2.783   2.496   1.256  0.0539 -0.5809 -0.8639
 7518SOL     OW23452   4.509   2.437   4.283 -0.0428  0.3174 -0.2292
 7518SOL    HW123453   4.441   2.367   4.259  1.9091 -0.8096 -3.0628
 7518SOL    HW223454   4.547   2.477   4.199  2.8744  0.7793  1.1679
 7519SOL     OW23455   6.613   6.240   4.747  0.2968  0.2696  0.2573
 7519SOL    HW123456   6.669   6.319   4.772  0.1511  1.3565 -2.4470
 7519SOL    HW223457   6.534   6.234   4.808  2.0038  0.1606  2.5941
 7520SOL     OW23458   1.869   0.805   2.414 -0.1400 -0.8760 -0.0406
 7520SOL    HW123459   1.845   0.712   2.386 -0.5135 -0.2953 -1.7840
 7520SOL    HW223460   1.955   0.831   2.371  0.2958 -0.6327  0.9637
 7521SOL     OW23461   2.719   1.686   4.485 -0.1606 -0.3682 -0.1832
 7521SOL    HW123462   2.796   1.640   4.530  1.2420 -1.0140 -2.9940
 7521SOL    HW223463   2.669   1.740   4.552  0.8927 -2.3186  2.3707
 7522SOL     OW23464   2.003   1.106   6.630 -0.3400  0.0475  0.0002
 7522SOL    HW123465   1.995   1.008   6.608  0.5724  0.0003 -0.1562
 7522SOL    HW223466   1.940   1.158   6.572  0.0420 -0.3360 -0.7720
 7523SOL     OW23467   6.329   0.289   5.701 -0.6178 -0.2746 -0.6243
 7523SOL    HW123468   6.323   0.388   5.717 -2.3153 -0.3174 -0.8126
 7523SOL    HW223469   6.424   0.264   5.685  0.3189  0.8416  2.4331
 7524SOL     OW23470   5.666   1.987   5.419  0.6238 -0.5274  0.5193
 7524SOL    HW123471   5.737   2.002   5.350 -1.5232  0.5709 -1.6239
 7524SOL    HW223472   5.647   2.073   5.466 -1.3960  0.0708 -1.2143
 7525SOL     OW23473   5.778   6.537   5.145 -0.5732  0.5083 -0.1291
 7525SOL    HW123474   5.813   6.497   5.229 -1.1741 -0.5497 -0.3626
 7525SOL    HW223475   5.718   6.471   5.099 -1.3726  1.5841 -0.6726
 7526SOL     OW23476   1.776   2.546   2.098 -0.6187 -0.0678 -0.0028
 7526SOL    HW123477   1.861   2.508   2.134 -0.9683 -1.4169 -0.5268
 7526SOL    HW223478   1.797   2.626   2.041  0.0898  0.8976  1.5622
 7527SOL     OW23479   1.495   7.000   4.106 -0.5283  0.1571 -0.1375
 7527SOL    HW123480   1.532   6.988   4.014  0.7251 -0.7276  0.4404
 7527SOL    HW223481   1.450   7.089   4.113  1.0819  1.0879 -1.0536
 7528SOL     OW23482   5.349   3.218   5.981  0.4601 -0.2897  0.0096
 7528SOL    HW123483   5.442   3.202   6.014 -0.0684 -1.8531  0.8681
 7528SOL    HW223484   5.284   3.186   6.050 -0.7005 -1.4228 -1.5465
 7529SOL     OW23485   4.971   0.279   4.502  0.2501 -0.3970  0.3720
 7529SOL    HW123486   4.991   0.243   4.411  0.1659 -0.5223  0.4037
 7529SOL    HW223487   5.046   0.339   4.531  0.7524 -1.1481  0.6414
 7530SOL     OW23488   6.667   1.598   2.018  0.1367  0.3632  0.1717
 7530SOL    HW123489   6.599   1.525   2.023  0.9684 -0.4289  0.1880
 7530SOL    HW223490   6.627   1.678   1.972 -0.8497 -0.0124  0.3415
 7531SOL     OW23491   5.398   2.629   2.890 -0.4256  0.1723 -0.2854
 7531SOL    HW123492   5.336   2.636   2.811  0.7025  1.5864 -1.0840
 7531SOL    HW223493   5.449   2.714   2.899  4.0496 -2.0275 -1.8677
 7532SOL     OW23494   5.775   0.106   5.198 -0.0139  0.2759 -0.1940
 7532SOL    HW123495   5.843   0.039   5.168 -0.1390 -1.8488  3.6659
 7532SOL    HW223496   5.815   0.165   5.267 -0.7834  2.3575 -1.4437
 7533SOL     OW23497   4.612   1.883   0.594  0.5024  0.1638  0.5485
 7533SOL    HW123498   4.564   1.835   0.520  0.0733  1.3927 -0.0006
 7533SOL    HW223499   4.547   1.909   0.665  0.8163 -0.4872  1.0816
 7534SOL     OW23500   5.954   5.260   2.646  0.1365 -0.4890 -0.7761
 7534SOL    HW123501   5.980   5.180   2.701 -0.5944 -1.2269 -1.4644
 7534SOL    HW223502   5.920   5.229   2.557 -2.7968  0.3644 -0.0681
 7535SOL     OW23503   1.033   0.024   5.340 -0.2554 -0.2042  0.2597
 7535SOL    HW123504   1.112   0.011   5.399  0.6592  1.3679 -0.5658
 7535SOL    HW223505   1.029  -0.049   5.272  2.7230  1.5721 -2.0665
 7536SOL     OW23506   5.717   6.753   4.276  0.0561 -0.3203 -0.0046
 7536SOL    HW123507   5.785   6.816   4.242 -0.9392  0.8040  0.0233
 7536SOL    HW223508   5.750   6.659   4.267  1.2793  0.1619 -0.6675
 7537SOL     OW23509   1.734   4.832   0.762 -0.2252  0.3017 -0.0191
 7537SOL    HW123510   1.727   4.813   0.860 -1.8630 -1.7090 -0.4510
 7537SOL    HW223511   1.654   4.885   0.733 -0.8618 -0.9232 -0.5923
 7538SOL     OW23512   1.802   2.576   3.224 -0.0229  0.7231  0.0965
 7538SOL    HW123513   1.865   2.653   3.214 -0.8741  1.2570 -1.6877
 7538SOL    HW223514   1.756   2.581   3.312  0.4888  1.8343  0.3159
 7539SOL     OW23515   1.468   4.028   1.646 -0.5149 -0.2464 -0.0558
 7539SOL    HW123516   1.443   4.027   1.549  1.9881  0.2743 -0.7778
 7539SOL    HW223517   1.478   4.123   1.677  1.8816 -0.3723 -0.2601
 7540SOL     OW23518   3.834   6.467   4.892  0.2813  0.1320 -0.4288
 7540SOL    HW123519   3.847   6.562   4.863 -0.5574  0.5814  0.5732
 7540SOL    HW223520   3.922   6.421   4.896  1.3232  2.0561  2.8499
 7541SOL     OW23521   1.627   6.145   0.723  0.2099  0.1998  0.0504
 7541SOL    HW123522   1.626   6.172   0.627  1.3552 -1.7449 -0.5562
 7541SOL    HW223523   1.715   6.103   0.745  0.6104  2.0974  2.4203
 7542SOL     OW23524   6.960   6.375   5.366  0.6400  0.5413  0.0146
 7542SOL    HW123525   6.966   6.465   5.409  1.0284  0.8024 -0.5636
 7542SOL    HW223526   7.023   6.372   5.287 -2.0898  1.1009 -2.3490
 7543SOL     OW23527   3.271   0.624   6.305 -0.1569  0.4337  0.5236
 7543SOL    HW123528   3.252   0.601   6.209  0.6901  0.9257  0.2308
 7543SOL    HW223529   3.293   0.721   6.312 -2.0800  0.8394  1.5152
 7544SOL     OW23530   6.164   4.428   5.665 -0.2149 -0.4276  0.4729
 7544SOL    HW123531   6.065   4.428   5.678 -0.0420 -0.4216  2.1096
 7544SOL    HW223532   6.209   4.405   5.752  1.2935  2.5837  0.6282
 7545SOL     OW23533   6.538   0.426   6.290  0.4343  0.6132 -0.1253
 7545SOL    HW123534   6.462   0.370   6.260 -0.4142  1.0428  1.1449
 7545SOL    HW223535   6.524   0.520   6.259  1.1855  0.4156 -1.1128
 7546SOL     OW23536   4.752   2.718   2.143 -0.3545 -0.1758  0.2910
 7546SOL    HW123537   4.696   2.698   2.223 -1.1751  1.9120  0.3065
 7546SOL    HW223538   4.740   2.814   2.117  3.9327  0.7419  0.8657
 7547SOL     OW23539   4.761   6.523   1.082 -0.6120  0.0730 -0.0910
 7547SOL    HW123540   4.710   6.568   1.155  0.0259  0.3035  0.2292
 7547SOL    HW223541   4.733   6.427   1.076 -1.4702  0.3311 -0.3016
 7548SOL     OW23542   4.664   1.326   6.001 -0.2645  0.1423 -0.1163
 7548SOL    HW123543   4.587   1.307   5.941 -0.3473  4.1808 -1.5564
 7548SOL    HW223544   4.637   1.394   6.069  1.6883  0.6634  0.1848
 7549SOL     OW23545   2.170   2.365   5.554  0.3890 -0.2866 -0.8559
 7549SOL    HW123546   2.113   2.438   5.516 -0.1299 -0.6523 -0.7744
 7549SOL    HW223547   2.228   2.327   5.482 -0.0232 -0.4405 -1.1044
 7550SOL     OW23548   0.697   4.844   3.031 -0.1576 -0.3442  0.2579
 7550SOL    HW123549   0.618   4.792   3.000 -0.4585  0.5279 -0.4946
 7550SOL    HW223550   0.699   4.846   3.131 -2.3130  1.3430  0.3467
 7551SOL     OW23551   5.290   2.348   5.268 -0.1896  0.1972  0.1456
 7551SOL    HW123552   5.291   2.272   5.203 -0.4541 -0.3067  0.7250
 7551SOL    HW223553   5.379   2.395   5.265 -0.0617 -0.0634 -0.2929
 7552SOL     OW23554   1.811   4.808   3.586 -0.3197  0.1813 -0.1302
 7552SOL    HW123555   1.908   4.827   3.567 -0.4538  0.2969 -0.7144
 7552SOL    HW223556   1.771   4.760   3.509 -0.2773 -1.5516  0.8736
 7553SOL     OW23557   4.802   4.712   4.089 -0.3214  0.3189  0.0000
 7553SOL    HW123558   4.722   4.670   4.134  0.0855  0.8841  1.3124
 7553SOL    HW223559   4.780   4.806   4.064 -0.4441  0.1002 -0.7416
 7554SOL     OW23560   4.009   6.375   6.735  0.0024 -0.3437 -0.0428
 7554SOL    HW123561   3.990   6.472   6.749 -2.9183 -0.6957 -0.8322
 7554SOL    HW223562   3.926   6.329   6.702  1.2180 -3.1678  0.4960
 7555SOL     OW23563   3.034   4.490   6.853  0.1466  0.1989  0.0616
 7555SOL    HW123564   2.945   4.537   6.857  0.1791  0.4214 -1.4477
 7555SOL    HW223565   3.037   4.420   6.925 -2.5114 -1.9630 -1.7255
 7556SOL     OW23566   0.830   2.379   6.592 -0.0265  0.1756 -0.2104
 7556SOL    HW123567   0.745   2.371   6.540 -0.2488 -0.7164  0.2798
 7556SOL    HW223568   0.893   2.440   6.543 -0.8751  0.7163 -0.6599
 7557SOL     OW23569   3.662   6.445   0.563 -0.0730 -0.5305 -0.0258
 7557SOL    HW123570   3.715   6.475   0.484  1.3133 -0.0866  1.0325
 7557SOL    HW223571   3.667   6.515   0.635 -0.0992 -1.5311  0.9882
 7558SOL     OW23572   1.698   3.002   4.879 -0.1912 -0.3967  0.9942
 7558SOL    HW123573   1.725   3.098   4.892 -0.1005 -0.5460  2.0354
 7558SOL    HW223574   1.617   2.982   4.934  0.1371 -1.0607  1.2592
 7559SOL     OW23575   5.181   2.380   6.399 -0.5828  0.9917 -0.3661
 7559SOL    HW123576   5.175   2.343   6.492 -2.5846  1.5742 -0.2144
 7559SOL    HW223577   5.175   2.305   6.334  3.0876  0.2926 -0.1391
 7560SOL     OW23578   0.403   0.139   0.645  0.2386 -0.1057  0.0482
 7560SOL    HW123579   0.347   0.152   0.563 -0.9547  0.6133  0.9419
 7560SOL    HW223580   0.364   0.192   0.721  1.6680 -0.2618  0.9260
 7561SOL     OW23581   6.526   3.136   5.319 -0.2175 -0.1133  0.2495
 7561SOL    HW123582   6.466   3.109   5.394  0.2526 -1.0597  0.2956
 7561SOL    HW223583   6.611   3.174   5.355 -0.7033  1.0700  0.1835
 7562SOL     OW23584   7.013   5.145   5.658  0.7936  0.5183  1.1985
 7562SOL    HW123585   7.045   5.240   5.660  1.6161  0.3893 -1.4979
 7562SOL    HW223586   7.087   5.085   5.630 -0.4622 -0.4646 -0.2184
 7563SOL     OW23587   2.787   6.989   4.720 -0.2614  0.2436 -0.0437
 7563SOL    HW123588   2.799   6.903   4.672  2.0275 -0.0294  0.8869
 7563SOL    HW223589   2.859   7.053   4.693  0.3968  0.4781  2.0830
 7564SOL     OW23590   3.484   6.761   4.535  0.1543  0.1232 -0.4651
 7564SOL    HW123591   3.580   6.744   4.558 -0.0572 -0.3635  0.0860
 7564SOL    HW223592   3.460   6.855   4.558  0.5939  0.3554 -0.9396
 7565SOL     OW23593   6.451   2.871   5.665  0.0142  0.3078  0.2739
 7565SOL    HW123594   6.530   2.840   5.718  1.1085 -0.0996 -1.4934
 7565SOL    HW223595   6.453   2.970   5.655  0.0400  0.3423  0.6301
 7566SOL     OW23596   2.998   0.094   4.150  0.3347 -0.1573 -0.0927
 7566SOL    HW123597   3.025  -0.001   4.167  1.8321  0.5146  1.6332
 7566SOL    HW223598   2.987   0.108   4.052  1.7153 -1.7236 -0.5304
 7567SOL     OW23599   0.709   0.874   5.009  0.3954 -0.1590 -0.7374
 7567SOL    HW123600   0.769   0.936   4.959  0.4730 -0.2174 -0.7182
 7567SOL    HW223601   0.760   0.790   5.032  1.2120  0.8979  1.6854
 7568SOL     OW23602   5.948   5.126   2.153 -0.0104 -0.1884 -0.3098
 7568SOL    HW123603   5.895   5.178   2.087 -0.2098  0.3859  0.2901
 7568SOL    HW223604   6.043   5.120   2.122  0.3684  1.8461  0.3094
 7569SOL     OW23605   3.593   2.590   6.358  0.1957 -0.1079  0.0258
 7569SOL    HW123606   3.606   2.679   6.314  1.7026  0.3019  1.2400
 7569SOL    HW223607   3.634   2.519   6.301 -0.0203  0.1026 -0.3993
 7570SOL     OW23608   0.698   3.701   3.899  0.4168 -0.1822  0.5275
 7570SOL    HW123609   0.674   3.652   3.983 -1.7395  0.1072  0.1532
 7570SOL    HW223610   0.670   3.648   3.820  1.2847  0.1079  0.0058
 7571SOL     OW23611   6.051   2.798   3.004  0.6760  0.2252  0.5620
 7571SOL    HW123612   6.027   2.895   3.009  1.8526  0.5032  1.2818
 7571SOL    HW223613   6.082   2.766   3.094 -0.8064 -1.1451  0.6450
 7572SOL     OW23614   6.069   0.124   2.804  0.2527  0.5417  0.1252
 7572SOL    HW123615   6.020   0.167   2.729 -1.8564 -2.0465 -0.1090
 7572SOL    HW223616   6.161   0.099   2.773 -0.0652  0.8341 -1.1230
 7573SOL     OW23617   5.448   6.561   5.845  0.1515  0.4229  0.2984
 7573SOL    HW123618   5.396   6.609   5.915  0.2901 -2.0456  2.2260
 7573SOL    HW223619   5.388   6.502   5.793  0.6166 -0.6703  0.9680
 7574SOL     OW23620   5.718   2.334   4.216  0.1425  0.6101 -0.4329
 7574SOL    HW123621   5.649   2.337   4.288  0.1887  0.3595 -0.3776
 7574SOL    HW223622   5.699   2.257   4.154 -0.1413  1.0775 -0.9334
 7575SOL     OW23623   6.290   5.228   1.030 -0.4625 -0.3237  0.3603
 7575SOL    HW123624   6.251   5.304   0.979 -0.6494 -0.8802 -0.3524
 7575SOL    HW223625   6.355   5.262   1.097 -1.1562  0.5138  0.6190
 7576SOL     OW23626   5.866   2.898   0.187 -0.1751 -1.0776 -0.4291
 7576SOL    HW123627   5.946   2.906   0.247  0.7718 -1.1288 -1.6485
 7576SOL    HW223628   5.785   2.927   0.237  0.7407 -0.0159  0.5182
 7577SOL     OW23629   6.145   6.729   6.187  0.8835 -0.1122 -0.6392
 7577SOL    HW123630   6.101   6.795   6.248  1.7261  0.8805 -1.0780
 7577SOL    HW223631   6.193   6.778   6.114  0.8295 -1.2445 -1.4575
 7578SOL     OW23632   1.845   3.479   2.646 -0.0930  0.3483 -0.3408
 7578SOL    HW123633   1.942   3.463   2.625  0.0718  0.7307  0.1063
 7578SOL    HW223634   1.792   3.398   2.621  0.4005 -0.0207 -0.2092
 7579SOL     OW23635   6.489   0.857   2.773 -0.8170  0.6815 -0.1174
 7579SOL    HW123636   6.462   0.806   2.855  0.2801 -0.2724 -0.3323
 7579SOL    HW223637   6.587   0.873   2.774 -1.0295  2.1248 -0.4529
 7580SOL     OW23638   1.647   4.178   1.484  0.2984 -0.2894  0.2803
 7580SOL    HW123639   1.663   4.079   1.478  1.5130 -0.0528 -0.6751
 7580SOL    HW223640   1.578   4.204   1.416 -1.0754 -0.6618  1.4811
 7581SOL     OW23641   0.899   2.723   0.818  0.0524  0.2393  0.0320
 7581SOL    HW123642   0.937   2.812   0.843 -1.2033  0.3071  1.9597
 7581SOL    HW223643   0.804   2.719   0.849 -0.2228 -1.4152 -0.9434
 7582SOL     OW23644   4.945   0.603   3.202 -0.1472 -0.7264 -0.2450
 7582SOL    HW123645   5.040   0.572   3.191  0.1238  0.0250 -0.0475
 7582SOL    HW223646   4.889   0.566   3.128  0.4067 -0.7256 -0.6667
 7583SOL     OW23647   5.198   3.834   3.001 -0.2218  0.1470 -0.2278
 7583SOL    HW123648   5.260   3.818   3.078  0.3159  0.3473 -0.6164
 7583SOL    HW223649   5.211   3.762   2.932 -0.4456  0.1715 -0.2974
 7584SOL     OW23650   1.682   6.495   2.184  0.3656 -0.0782  0.9270
 7584SOL    HW123651   1.727   6.572   2.138  0.1941 -0.0556  0.7970
 7584SOL    HW223652   1.607   6.530   2.240 -0.3852 -0.2495  0.0424
 7585SOL     OW23653   0.154   1.588   0.505 -0.4468 -0.4559 -0.0803
 7585SOL    HW123654   0.192   1.659   0.446 -1.0305 -0.7230 -0.7930
 7585SOL    HW223655   0.074   1.547   0.461 -1.2817 -0.2435  1.1501
 7586SOL     OW23656   0.627   0.485   0.608  0.4992  0.0423  0.5278
 7586SOL    HW123657   0.564   0.520   0.538  0.3942  0.4871  0.8454
 7586SOL    HW223658   0.580   0.480   0.696  1.2753  1.6756  1.0802
 7587SOL     OW23659   3.754   0.956   6.591 -0.2755  0.7765  0.1011
 7587SOL    HW123660   3.706   0.890   6.533  1.3449  0.1632 -0.6047
 7587SOL    HW223661   3.844   0.977   6.551 -0.1799  2.3376  1.0578
 7588SOL     OW23662   0.567   3.129   5.136  0.3332  0.0403  0.4612
 7588SOL    HW123663   0.618   3.108   5.220  0.9676 -2.7057 -0.4933
 7588SOL    HW223664   0.487   3.069   5.131 -1.1601  1.9722  0.2945
 7589SOL     OW23665   0.191   2.135   2.332 -0.1521 -0.3481 -0.2074
 7589SOL    HW123666   0.184   2.119   2.233 -0.2034  0.0901 -0.2785
 7589SOL    HW223667   0.280   2.177   2.352  0.1245 -1.0234  0.0173
 7590SOL     OW23668   6.496   0.009   0.669 -0.5216 -0.0995  0.0565
 7590SOL    HW123669   6.465  -0.085   0.688  0.5428 -0.9567 -2.1434
 7590SOL    HW223670   6.468   0.068   0.744 -1.7003 -2.0625  1.2679
 7591SOL     OW23671   3.817   0.983   6.228 -0.1452 -0.0279 -0.3201
 7591SOL    HW123672   3.838   1.077   6.256  0.0067 -0.1041 -0.1769
 7591SOL    HW223673   3.901   0.929   6.229 -0.1385 -0.0270 -0.9375
 7592SOL     OW23674   4.349   6.162   4.628 -0.6299  0.1925  0.0267
 7592SOL    HW123675   4.284   6.127   4.561 -0.2747  0.5879 -0.5446
 7592SOL    HW223676   4.389   6.087   4.679 -0.0410 -0.2310 -1.0229
 7593SOL     OW23677   5.767   2.785   6.726 -1.0794  0.3143 -0.1125
 7593SOL    HW123678   5.710   2.858   6.690  3.4447  3.7450 -1.1441
 7593SOL    HW223679   5.770   2.791   6.826 -1.6623  0.7198 -0.1124
 7594SOL     OW23680   1.822   3.851   0.681 -0.0185 -0.1999 -0.1671
 7594SOL    HW123681   1.873   3.889   0.759  1.8051 -0.4165 -1.1885
 7594SOL    HW223682   1.823   3.917   0.606  0.5537 -1.0326 -0.9084
 7595SOL     OW23683   5.526   4.010   4.214 -0.7779 -0.0440 -0.3871
 7595SOL    HW123684   5.444   3.953   4.218  0.1326 -1.3581  2.6186
 7595SOL    HW223685   5.598   3.960   4.165 -0.4755 -0.8760  0.8471
 7596SOL     OW23686   2.384   5.871   4.115  0.0521 -0.0381 -0.0852
 7596SOL    HW123687   2.353   5.860   4.021 -0.4431 -3.3965  0.3450
 7596SOL    HW223688   2.484   5.869   4.117  0.0537 -0.6665 -0.5026
 7597SOL     OW23689   2.247   6.442   4.893  0.1449  0.1707  0.2452
 7597SOL    HW123690   2.307   6.518   4.866  0.3243 -0.6444 -1.8232
 7597SOL    HW223691   2.253   6.369   4.824 -0.5849 -1.4216  1.8021
 7598SOL     OW23692   0.138   3.350   1.165 -0.1744  0.1055 -0.3810
 7598SOL    HW123693   0.199   3.348   1.086 -1.3728  1.0802 -1.3813
 7598SOL    HW223694   0.192   3.358   1.249  1.0875  2.2830 -1.3000
 7599SOL     OW23695   4.638   3.543   0.142  0.8633 -0.1786 -0.0567
 7599SOL    HW123696   4.615   3.449   0.168 -1.2508 -0.1788 -1.6725
 7599SOL    HW223697   4.555   3.592   0.116  2.2003  1.4104 -1.6205
 7600SOL     OW23698   2.029   1.962   2.192 -0.7890 -0.0365 -0.1063
 7600SOL    HW123699   1.960   2.026   2.158 -1.0610  0.0357  0.5778
 7600SOL    HW223700   2.036   1.885   2.129 -0.5072  0.6218 -0.9063
 7601SOL     OW23701   6.851   5.123   3.432  0.2654  0.4634  0.1978
 7601SOL    HW123702   6.879   5.064   3.357 -0.1502 -0.9240  1.1005
 7601SOL    HW223703   6.908   5.105   3.512 -0.7881  0.2343  0.9242
 7602SOL     OW23704   1.839   3.525   1.316 -0.1980  0.2593  0.4539
 7602SOL    HW123705   1.906   3.496   1.248 -0.6623 -1.4585  0.6773
 7602SOL    HW223706   1.886   3.567   1.394  0.5009  0.2682  0.0345
 7603SOL     OW23707   2.057   0.600   0.256 -0.6105 -0.1473 -0.7035
 7603SOL    HW123708   2.045   0.612   0.158 -0.0931  1.6036 -0.5887
 7603SOL    HW223709   2.022   0.510   0.283 -0.5370 -0.7586 -2.5039
 7604SOL     OW23710   0.638   2.596   5.795 -0.6253  0.4425  0.4520
 7604SOL    HW123711   0.594   2.520   5.747 -0.5596  0.1632  0.8292
 7604SOL    HW223712   0.703   2.641   5.734 -0.1699 -0.2252  0.4399
 7605SOL     OW23713   0.987   0.584   1.315 -0.0829 -0.3661  0.0251
 7605SOL    HW123714   1.038   0.502   1.339 -0.4787 -0.8103 -0.5898
 7605SOL    HW223715   0.892   0.574   1.345  0.1798  0.4705  1.2047
 7606SOL     OW23716   6.468   3.401   4.478  0.1960  0.4278 -0.0501
 7606SOL    HW123717   6.486   3.471   4.546 -2.4162  0.9272  0.2350
 7606SOL    HW223718   6.466   3.311   4.522  1.6519  0.3531 -0.0836
 7607SOL     OW23719   5.101   6.448   2.329  0.7000 -0.2659 -0.0017
 7607SOL    HW123720   5.041   6.375   2.362 -0.2075  0.2739 -0.4286
 7607SOL    HW223721   5.046   6.521   2.289  1.6584  0.1201 -0.6547
 7608SOL     OW23722   4.786   1.493   5.198 -0.0489  0.0737 -0.2548
 7608SOL    HW123723   4.778   1.590   5.221  0.5728 -0.0047  0.3082
 7608SOL    HW223724   4.699   1.447   5.218 -0.7262  0.7220 -1.6036
 7609SOL     OW23725   0.758   4.454   5.074  0.1767  0.5010  0.2904
 7609SOL    HW123726   0.774   4.366   5.030 -1.4539  0.6638 -0.7210
 7609SOL    HW223727   0.760   4.442   5.173 -0.1651 -0.7233  0.1710
 7610SOL     OW23728   4.047   4.458   5.768 -0.2063  0.1366  0.1142
 7610SOL    HW123729   3.980   4.448   5.694  0.8787  0.4365 -0.9392
 7610SOL    HW223730   4.001   4.448   5.856 -1.7247  0.7919 -0.5644
 7611SOL     OW23731   5.401   4.360   6.140 -0.6841  0.1702 -0.3258
 7611SOL    HW123732   5.424   4.328   6.048  1.1872 -1.3068  0.5772
 7611SOL    HW223733   5.461   4.315   6.207 -1.4326  1.8093  1.5529
 7612SOL     OW23734   3.914   1.398   2.130 -0.1582 -0.0721 -0.9109
 7612SOL    HW123735   3.894   1.423   2.225  0.1176 -1.3558 -0.4991
 7612SOL    HW223736   3.832   1.359   2.088  0.5975 -2.6945 -0.1033
 7613SOL     OW23737   6.672   1.210   0.710 -0.0483 -0.2529 -0.6981
 7613SOL    HW123738   6.676   1.116   0.744 -2.3835  0.0142  0.5110
 7613SOL    HW223739   6.621   1.212   0.623  0.7816 -0.1927 -1.1939
 7614SOL     OW23740   0.420   3.030   1.453  0.3994 -0.3252 -0.1665
 7614SOL    HW123741   0.393   2.968   1.527 -2.7494  1.3399  0.2408
 7614SOL    HW223742   0.461   3.112   1.492 -0.2661  0.0872 -0.3286
 7615SOL     OW23743   4.980   3.038   4.549 -0.1231  0.3334 -0.4928
 7615SOL    HW123744   4.968   3.034   4.648 -2.2318 -2.0685 -0.7334
 7615SOL    HW223745   4.951   3.127   4.515 -1.6575  0.3938  0.8326
 7616SOL     OW23746   5.307   7.015   1.715 -0.3249 -0.0824  0.0181
 7616SOL    HW123747   5.362   6.978   1.791 -2.5479  0.7958  2.1889
 7616SOL    HW223748   5.345   7.102   1.686  0.5404 -0.4157  0.1090
 7617SOL     OW23749   5.942   5.530   3.398  0.0955 -0.2069 -0.0449
 7617SOL    HW123750   6.024   5.474   3.406  1.8718  2.2440 -0.1549
 7617SOL    HW223751   5.948   5.608   3.461 -1.9455  0.3065 -0.3886
 7618SOL     OW23752   1.491   1.142   6.762 -0.3040 -0.2030  0.3275
 7618SOL    HW123753   1.505   1.140   6.663 -1.5866 -0.8410  0.1368
 7618SOL    HW223754   1.469   1.236   6.790 -3.3706 -0.5450 -0.5613
 7619SOL     OW23755   0.621   2.961   5.501 -0.1968  0.0915  0.5375
 7619SOL    HW123756   0.661   3.043   5.460  0.0773 -1.0470 -1.6047
 7619SOL    HW223757   0.629   2.966   5.601  1.7734  1.6637  0.3599
 7620SOL     OW23758   4.081   4.192   1.273  0.5576 -0.0293 -0.7212
 7620SOL    HW123759   4.175   4.199   1.306  0.5440  2.2746 -1.0316
 7620SOL    HW223760   4.065   4.101   1.236  2.0472 -1.1043  1.1364
 7621SOL     OW23761   0.640   0.331   1.246  0.1288 -0.1535 -0.3048
 7621SOL    HW123762   0.642   0.299   1.151 -0.5752  1.9521 -1.0717
 7621SOL    HW223763   0.560   0.293   1.291  0.8328 -1.7262 -0.3088
 7622SOL     OW23764   4.636   3.408   0.744 -0.3330  0.2388 -0.5006
 7622SOL    HW123765   4.658   3.332   0.805  0.3580  1.0822  0.3410
 7622SOL    HW223766   4.537   3.425   0.747 -0.3454  0.0953  0.2009
 7623SOL     OW23767   4.095   3.686   1.792 -0.0190  0.0677  0.4253
 7623SOL    HW123768   4.153   3.760   1.758 -0.1206 -0.1252 -0.1793
 7623SOL    HW223769   4.006   3.689   1.746 -0.1634 -0.1889  0.6852
 7624SOL     OW23770   0.872   4.166   2.186 -0.3686 -0.9185 -0.1593
 7624SOL    HW123771   0.792   4.225   2.175  0.1666 -0.1728 -0.1019
 7624SOL    HW223772   0.847   4.087   2.241 -0.6984  0.0588  1.1493
 7625SOL     OW23773   4.854   0.923   0.216 -0.1971 -0.1654  0.7934
 7625SOL    HW123774   4.900   1.005   0.183  0.2787  0.1360  2.1570
 7625SOL    HW223775   4.797   0.885   0.143  1.3378  0.0707 -0.5917
 7626SOL     OW23776   5.545   6.993   5.321  0.0364 -0.5739 -0.1914
 7626SOL    HW123777   5.618   7.046   5.278 -0.7021 -0.6418 -1.6160
 7626SOL    HW223778   5.573   6.963   5.412  0.8303  1.4562  0.2792
 7627SOL     OW23779   3.551   2.816   0.747  0.5030  0.0726  0.2746
 7627SOL    HW123780   3.629   2.846   0.692  0.2527 -2.4864 -1.6538
 7627SOL    HW223781   3.574   2.732   0.796 -1.3845 -1.7094 -1.6423
 7628SOL     OW23782   3.099   2.073   0.186 -0.0087 -0.3525  0.0110
 7628SOL    HW123783   3.170   2.124   0.235  1.7130 -0.4466 -2.2163
 7628SOL    HW223784   3.079   2.119   0.100 -0.3415 -2.0076 -0.8409
 7629SOL     OW23785   5.530   3.168   3.424  0.1865 -0.3561 -0.7057
 7629SOL    HW123786   5.442   3.201   3.390 -0.5791 -0.0641  1.3977
 7629SOL    HW223787   5.549   3.078   3.385 -0.4985  0.0427 -2.0276
 7630SOL     OW23788   0.869   1.485   4.986  0.1947 -0.0099  0.1664
 7630SOL    HW123789   0.924   1.498   4.903  0.6733  0.5271  0.5570
 7630SOL    HW223790   0.881   1.564   5.046 -2.8360  1.2550 -0.7206
 7631SOL     OW23791   3.239   0.092   6.376 -0.2414 -0.2049  0.3440
 7631SOL    HW123792   3.241   0.045   6.464 -1.8003  1.1298  1.1599
 7631SOL    HW223793   3.286   0.180   6.384 -4.2360  2.1410  1.4032
 7632SOL     OW23794   5.244   5.505   0.810  0.6911 -0.1183 -0.6064
 7632SOL    HW123795   5.260   5.424   0.753  0.3525 -1.3284  0.9477
 7632SOL    HW223796   5.149   5.506   0.840  1.1728 -0.2507  0.9931
 7633SOL     OW23797   6.379   6.575   6.215 -0.3781 -0.1677 -0.7520
 7633SOL    HW123798   6.348   6.485   6.245 -1.5452  0.6136  0.4968
 7633SOL    HW223799   6.307   6.642   6.232  1.2679  1.3946  0.4594
 7634SOL     OW23800   1.126   1.467   1.611  0.2401 -0.5361 -0.0597
 7634SOL    HW123801   1.103   1.412   1.531 -0.4271 -1.6733  0.8729
 7634SOL    HW223802   1.063   1.545   1.617 -1.7870 -2.1431  0.9931
 7635SOL     OW23803   2.754   4.736   4.054 -0.8670  0.0685  0.4742
 7635SOL    HW123804   2.661   4.700   4.067 -0.9585  0.8314  2.2673
 7635SOL    HW223805   2.813   4.704   4.128  0.3905 -0.5792 -0.7690
 7636SOL     OW23806   0.732   6.519   3.416  0.5084 -0.1316 -0.0260
 7636SOL    HW123807   0.786   6.539   3.334  2.0656 -0.8658  0.7627
 7636SOL    HW223808   0.750   6.425   3.446 -1.3759 -0.4558  0.1982
 7637SOL     OW23809   2.127   6.233   3.466 -0.2792  0.4266 -0.2789
 7637SOL    HW123810   2.103   6.193   3.554  0.6057 -0.4726 -0.4251
 7637SOL    HW223811   2.226   6.248   3.461 -0.2051 -0.2718 -1.3960
 7638SOL     OW23812   2.529   4.915   2.176  0.2412  0.3673  0.0330
 7638SOL    HW123813   2.595   4.977   2.135  1.4367 -0.8482  0.0521
 7638SOL    HW223814   2.561   4.886   2.266  0.2912 -1.1345 -0.4357
 7639SOL     OW23815   6.479   0.423   0.436 -0.4774  0.0445  0.2216
 7639SOL    HW123816   6.437   0.430   0.527 -0.7197  1.0197  0.0520
 7639SOL    HW223817   6.527   0.336   0.428 -1.3563 -0.5206  0.8972
 7640SOL     OW23818   3.485   1.607   0.355  0.2064  0.1070 -0.1698
 7640SOL    HW123819   3.547   1.679   0.325 -1.5062  1.8407  0.2130
 7640SOL    HW223820   3.498   1.589   0.452  1.5398 -1.0960 -0.5434
 7641SOL     OW23821   0.066   5.010   2.168  0.2712 -0.2609 -0.4736
 7641SOL    HW123822   0.062   4.910   2.178  0.1580 -0.3351 -1.2115
 7641SOL    HW223823   0.012   5.053   2.240 -0.7010 -0.7761 -0.8799
 7642SOL     OW23824   6.306   1.734   3.748 -0.0446  0.4449 -0.1968
 7642SOL    HW123825   6.347   1.662   3.804 -1.1471 -1.6455 -1.9099
 7642SOL    HW223826   6.375   1.803   3.726  1.0948 -0.1228  1.4048
 7643SOL     OW23827   6.117   0.921   1.828  0.2120  0.5570 -0.1738
 7643SOL    HW123828   6.202   0.914   1.776 -0.2150 -0.0399 -0.7912
 7643SOL    HW223829   6.061   0.839   1.814 -0.7138  1.1798 -0.2016
 7644SOL     OW23830   4.831   0.203   1.527 -0.2026 -0.0402 -0.1109
 7644SOL    HW123831   4.852   0.275   1.461  0.3825  0.1590  0.2833
 7644SOL    HW223832   4.867   0.116   1.495 -0.3577 -0.0410 -0.2873
 7645SOL     OW23833   2.927   3.357   4.057  0.2960 -0.0330 -0.0999
 7645SOL    HW123834   2.832   3.385   4.069  0.4991  0.4554  0.3998
 7645SOL    HW223835   2.945   3.275   4.111  0.0457 -0.3859 -0.5439
 7646SOL     OW23836   1.733   2.867   3.363 -0.5262  0.2334 -0.8317
 7646SOL    HW123837   1.661   2.809   3.400  0.7858 -2.4533 -2.2534
 7646SOL    HW223838   1.705   2.903   3.274 -0.2226 -0.5945 -1.2646
 7647SOL     OW23839   0.318   2.819   3.274 -0.0520 -0.2336  0.0409
 7647SOL    HW123840   0.340   2.905   3.227  0.5961 -0.1377  0.5051
 7647SOL    HW223841   0.322   2.833   3.373  2.2936 -1.3024  0.1748
 7648SOL     OW23842   2.129   2.414   2.722  0.4432 -0.4010  0.1023
 7648SOL    HW123843   2.102   2.334   2.776  0.7678 -0.4614  0.1744
 7648SOL    HW223844   2.048   2.470   2.703 -0.2525 -1.9618 -1.9559
 7649SOL     OW23845   6.996   1.765   3.864 -0.3858  0.3288 -0.0512
 7649SOL    HW123846   6.965   1.827   3.792 -1.9451 -1.6672 -1.1915
 7649SOL    HW223847   7.011   1.674   3.827 -1.2011 -0.7696  2.1111
 7650SOL     OW23848   4.645   5.522   4.864  0.4246  0.5522  0.2795
 7650SOL    HW123849   4.670   5.617   4.844 -2.0243  1.5564  1.5762
 7650SOL    HW223850   4.674   5.499   4.956  2.2321 -0.4772 -0.5067
 7651SOL     OW23851   0.811   0.055   3.063 -0.1026 -0.0484  0.5832
 7651SOL    HW123852   0.854   0.082   2.977  0.2352 -2.3597 -0.0461
 7651SOL    HW223853   0.871   0.079   3.139  0.8371 -0.3735 -0.0404
 7652SOL     OW23854   6.237   2.023   3.993 -0.0508 -0.0303  0.0833
 7652SOL    HW123855   6.175   1.955   3.954  0.0268 -0.0978  0.0767
 7652SOL    HW223856   6.329   2.010   3.956 -0.1689  0.4910 -0.4078
 7653SOL     OW23857   1.045   3.100   0.273  0.2777  0.9313  0.1393
 7653SOL    HW123858   1.001   3.121   0.186  1.8734  3.0209 -0.2395
 7653SOL    HW223859   1.073   3.184   0.318 -0.6307 -0.0722  2.8191
 7654SOL     OW23860   5.306   3.693   3.804  0.6918  0.3299  0.2764
 7654SOL    HW123861   5.305   3.593   3.812  2.8624  0.1972 -0.4616
 7654SOL    HW223862   5.310   3.719   3.708 -0.0255  1.1523  0.4556
 7655SOL     OW23863   3.237   1.584   4.580  0.4170 -0.0782 -0.1591
 7655SOL    HW123864   3.204   1.678   4.571 -1.8643 -0.9073 -1.2235
 7655SOL    HW223865   3.223   1.536   4.494 -1.8745 -2.3523  1.3161
 7656SOL     OW23866   4.734   3.315   5.521 -0.3641  0.5178  0.2223
 7656SOL    HW123867   4.641   3.288   5.547  0.9307 -2.3199  2.6517
 7656SOL    HW223868   4.751   3.290   5.426 -1.1227 -2.2469  0.7135
 7657SOL     OW23869   1.258   3.730   4.982 -0.3369 -0.1044  0.3269
 7657SOL    HW123870   1.190   3.789   5.025 -0.0359  0.5056 -0.0208
 7657SOL    HW223871   1.229   3.707   4.889  0.2979  0.8121 -0.1105
 7658SOL     OW23872   4.559   6.368   0.662  0.1834 -0.5001  0.0880
 7658SOL    HW123873   4.580   6.455   0.708 -1.2074 -0.6362  1.0528
 7658SOL    HW223874   4.483   6.382   0.599 -0.4289 -1.1278  0.6762
 7659SOL     OW23875   3.767   3.791   6.942  0.1238  0.2341  0.3366
 7659SOL    HW123876   3.689   3.757   6.890  0.2507 -0.5790  0.6681
 7659SOL    HW223877   3.737   3.864   7.004  0.2484  2.3705 -1.9825
 7660SOL     OW23878   6.069   5.754   4.691  0.4445  0.4292  0.5353
 7660SOL    HW123879   6.084   5.662   4.655  0.8701  0.9600 -0.7087
 7660SOL    HW223880   5.993   5.797   4.641  0.5565  0.9145  0.7843
 7661SOL     OW23881   3.190   3.265   6.318 -0.0318  0.4741  0.1630
 7661SOL    HW123882   3.268   3.316   6.354  0.7517 -0.8737  0.4538
 7661SOL    HW223883   3.124   3.250   6.391 -0.2646  1.0547  0.0769
 7662SOL     OW23884   1.733   1.123   2.765 -0.7652  0.0131  0.2109
 7662SOL    HW123885   1.731   1.090   2.671  2.5032  1.2141 -0.3973
 7662SOL    HW223886   1.725   1.223   2.766 -1.8259 -0.0666  1.3122
 7663SOL     OW23887   4.644   5.019   5.114  0.4566 -0.6262  0.1212
 7663SOL    HW123888   4.710   5.010   5.039  0.3740 -1.8636  0.1631
 7663SOL    HW223889   4.554   5.042   5.077  0.7950  0.5424  0.0139
 7664SOL     OW23890   4.503   1.815   3.457 -0.1821  0.0538  0.3021
 7664SOL    HW123891   4.423   1.867   3.488  0.5005  1.2977  0.0487
 7664SOL    HW223892   4.582   1.837   3.514  0.6962  1.1481 -1.2716
 7665SOL     OW23893   0.344   0.764   2.639 -0.3833  0.2224 -0.3065
 7665SOL    HW123894   0.419   0.709   2.601 -1.3356 -0.0269 -1.9650
 7665SOL    HW223895   0.336   0.849   2.587 -2.2409 -0.4834 -1.2734
 7666SOL     OW23896   0.856   5.510   3.479 -0.5341  0.5866  0.7069
 7666SOL    HW123897   0.914   5.566   3.537  0.7749  1.0525 -0.9539
 7666SOL    HW223898   0.763   5.508   3.515 -0.0374  1.8311  2.1134
 7667SOL     OW23899   2.391   6.020   1.710  0.0201  0.4407 -0.0343
 7667SOL    HW123900   2.413   5.924   1.730 -2.5290  0.0371  1.2041
 7667SOL    HW223901   2.475   6.074   1.713  2.0535 -2.0361 -3.3815
 7668SOL     OW23902   3.895   5.887   1.577  0.2255  0.5441  0.2605
 7668SOL    HW123903   3.806   5.865   1.536  0.3301  1.8479 -0.7249
 7668SOL    HW223904   3.881   5.945   1.657  0.0575 -1.5074  1.7806
 7669SOL     OW23905   4.609   1.519   5.696  0.1568 -0.0718 -0.3589
 7669SOL    HW123906   4.622   1.556   5.787 -2.6502  3.7828 -1.2630
 7669SOL    HW223907   4.688   1.542   5.639  0.4006  0.6412  0.2474
 7670SOL     OW23908   1.019   6.504   2.273  0.5248 -0.1230  0.4342
 7670SOL    HW123909   1.031   6.568   2.349 -0.0941 -0.4757  0.8341
 7670SOL    HW223910   0.956   6.432   2.299  0.2022 -0.1828 -0.4581
 7671SOL     OW23911   6.510   6.376   0.733 -0.3587  0.2933  0.4967
 7671SOL    HW123912   6.485   6.287   0.770  0.1924  0.4685  1.3182
 7671SOL    HW223913   6.439   6.408   0.671  0.9405 -2.2682 -2.5927
 7672SOL     OW23914   5.602   4.931   2.800 -0.2532 -0.0540  0.6472
 7672SOL    HW123915   5.621   4.964   2.707 -1.0019 -1.2299  0.0523
 7672SOL    HW223916   5.679   4.876   2.832 -0.6316 -0.9541  0.0729
 7673SOL     OW23917   1.271   4.630   1.236  0.0773 -0.3985  0.1004
 7673SOL    HW123918   1.299   4.643   1.331 -0.7501 -0.4255  0.3641
 7673SOL    HW223919   1.180   4.588   1.235 -1.0200  1.8581 -0.6606
 7674SOL     OW23920   3.849   1.572   2.922 -0.3814 -0.2108 -0.0971
 7674SOL    HW123921   3.904   1.519   2.987 -0.1884  0.4583  0.2950
 7674SOL    HW223922   3.757   1.584   2.960 -0.8570 -1.4524 -0.8161
 7675SOL     OW23923   2.335   5.990   3.380 -0.3119 -0.6602  0.2871
 7675SOL    HW123924   2.371   6.057   3.445 -2.2686  0.5427  0.2313
 7675SOL    HW223925   2.410   5.940   3.337  1.1352  0.4416  1.4472
 7676SOL     OW23926   2.341   1.052   5.373  0.1430 -0.2427 -0.8816
 7676SOL    HW123927   2.402   1.093   5.440  0.5906 -0.6391 -1.0386
 7676SOL    HW223928   2.395   1.005   5.303 -0.3180  0.0969 -1.4772
 7677SOL     OW23929   6.993   6.373   2.067  0.3447 -0.1231  0.3019
 7677SOL    HW123930   6.996   6.325   1.980 -0.3456 -0.2094  0.3181
 7677SOL    HW223931   7.057   6.450   2.065  0.6300 -0.3656 -0.1286
 7678SOL     OW23932   0.240   2.803   5.547  0.4880 -0.2957  0.5061
 7678SOL    HW123933   0.301   2.796   5.627  0.9175  1.8205  0.4356
 7678SOL    HW223934   0.292   2.837   5.469 -0.5900  0.8490  0.2453
 7679SOL     OW23935   1.217   6.542   3.572 -0.0588 -0.2613 -0.1150
 7679SOL    HW123936   1.235   6.573   3.666  0.1011  0.3786 -0.3558
 7679SOL    HW223937   1.214   6.442   3.571  1.3645 -0.3278  0.3139
 7680SOL     OW23938   0.382   6.263   5.048  0.0612 -0.8782  0.4088
 7680SOL    HW123939   0.298   6.284   5.097  0.7701  0.4982  1.0948
 7680SOL    HW223940   0.394   6.327   4.973  0.1254 -1.5561 -0.1758
 7681SOL     OW23941   1.474   1.555   6.144 -0.1425  0.3558 -0.0971
 7681SOL    HW123942   1.467   1.535   6.046  1.3178 -1.6234  0.1468
 7681SOL    HW223943   1.423   1.487   6.196  1.7683 -0.6156  0.6088
 7682SOL     OW23944   4.902   0.657   3.831 -0.0329 -0.1113  0.4512
 7682SOL    HW123945   4.868   0.662   3.737  0.2785  0.6367  0.3773
 7682SOL    HW223946   4.955   0.739   3.852  0.4148 -0.5542  1.0817
 7683SOL     OW23947   0.661   1.248   4.204 -0.5244  0.5295  0.3090
 7683SOL    HW123948   0.700   1.291   4.123 -0.5808 -0.8153 -0.4555
 7683SOL    HW223949   0.568   1.284   4.220 -1.4741 -0.9118 -1.6519
 7684SOL     OW23950   3.421   2.072   2.721  0.2384 -0.0902  0.4818
 7684SOL    HW123951   3.343   2.118   2.680 -1.7702 -1.2160  2.7819
 7684SOL    HW223952   3.428   1.979   2.685 -1.8090 -1.2392  2.7948
 7685SOL     OW23953   3.948   0.757   5.444  0.3287  0.4728 -0.3296
 7685SOL    HW123954   4.024   0.703   5.409  0.3055  0.5184 -0.4515
 7685SOL    HW223955   3.939   0.841   5.390  2.5355  2.3170  1.9132
 7686SOL     OW23956   5.908   0.453   3.393  0.1482 -0.2401  0.0185
 7686SOL    HW123957   5.930   0.551   3.389 -1.0838  0.1297  1.5567
 7686SOL    HW223958   5.809   0.441   3.390  0.2830 -1.4354 -0.0089
 7687SOL     OW23959   2.799   5.778   5.067  0.5014  0.6489 -0.7742
 7687SOL    HW123960   2.829   5.682   5.069 -1.8850 -0.2000 -1.5580
 7687SOL    HW223961   2.757   5.797   4.979  1.4956  2.6611 -0.8673
 7688SOL     OW23962   1.349   5.007   0.889  0.4077 -0.1185 -0.1704
 7688SOL    HW123963   1.362   4.963   0.977  0.5908  0.3279  0.0270
 7688SOL    HW223964   1.258   5.048   0.885  1.3976  2.4626  0.9937
 7689SOL     OW23965   3.741   0.119   2.755 -0.1481 -0.7020  0.2489
 7689SOL    HW123966   3.715   0.078   2.843 -1.0169 -0.7933 -0.0367
 7689SOL    HW223967   3.697   0.208   2.746  0.6966 -0.2738  0.3088
 7690SOL     OW23968   4.405   4.590   0.770 -0.0167  0.1272 -0.1335
 7690SOL    HW123969   4.428   4.678   0.812  1.9282 -1.1246  1.6124
 7690SOL    HW223970   4.420   4.595   0.672 -0.7029  1.9375 -0.1885
 7691SOL     OW23971   4.021   6.163   2.866 -0.1582  0.1923  0.5908
 7691SOL    HW123972   3.962   6.115   2.801  0.4213 -0.1844  0.3402
 7691SOL    HW223973   3.970   6.180   2.950  0.0312 -2.1127  1.2331
 7692SOL     OW23974   5.105   0.754   1.269 -0.1916  0.2202 -0.4229
 7692SOL    HW123975   5.050   0.824   1.223 -0.1863 -0.7625 -2.0026
 7692SOL    HW223976   5.059   0.726   1.353 -1.8062 -0.1137 -1.3768
 7693SOL     OW23977   3.660   6.642   1.509 -0.6041  0.6736 -0.0543
 7693SOL    HW123978   3.754   6.629   1.540 -0.5767 -0.0689 -0.4308
 7693SOL    HW223979   3.641   6.580   1.433 -1.9867 -0.5534  1.2372
 7694SOL     OW23980   5.855   4.324   5.682  0.5411 -0.0682  0.5902
 7694SOL    HW123981   5.833   4.421   5.690  0.9722  0.1551 -0.6721
 7694SOL    HW223982   5.910   4.309   5.600 -0.0889 -1.4831  0.4003
 7695SOL     OW23983   4.375   1.673   2.431  0.2521  0.3567 -0.2725
 7695SOL    HW123984   4.320   1.717   2.501  1.1136 -0.3579  0.8805
 7695SOL    HW223985   4.318   1.609   2.380  0.3428 -1.8286  2.1737
 7696SOL     OW23986   1.291   1.405   6.284  0.0959 -0.0401  0.0553
 7696SOL    HW123987   1.285   1.315   6.241 -0.5548 -0.1747  0.4182
 7696SOL    HW223988   1.218   1.415   6.352 -0.8931  1.3687 -1.1328
 7697SOL     OW23989   3.298   0.046   2.646 -0.1378  0.1094 -0.2855
 7697SOL    HW123990   3.248  -0.038   2.667 -0.1264  0.3019  0.5396
 7697SOL    HW223991   3.238   0.125   2.658  1.0081  0.5978  3.5257
 7698SOL     OW23992   0.328   1.380   6.883  0.0931 -0.7609 -0.1769
 7698SOL    HW123993   0.253   1.332   6.838  0.7570 -1.6715 -0.3545
 7698SOL    HW223994   0.395   1.313   6.915  0.4392 -0.0193  0.7005
 7699SOL     OW23995   2.712   4.722   0.644  0.5207  0.1953  0.1779
 7699SOL    HW123996   2.771   4.672   0.581 -1.8857 -0.7710 -1.4463
 7699SOL    HW223997   2.749   4.814   0.659  0.2771  1.2797 -4.3486
 7700SOL     OW23998   4.976   5.383   0.787 -0.0162 -0.0673  0.7113
 7700SOL    HW123999   5.028   5.319   0.845  0.0951  0.2031  0.9160
 7700SOL    HW224000   4.972   5.472   0.833 -1.1249 -0.2243  0.9490
 7701SOL     OW24001   6.746   0.095   0.897  0.1487 -0.1056 -0.7370
 7701SOL    HW124002   6.761  -0.003   0.894 -0.4440 -0.2165 -0.1906
 7701SOL    HW224003   6.835   0.142   0.902  0.4104 -0.6501 -0.0550
 7702SOL     OW24004   3.616   5.930   0.649 -0.0352  0.1208  0.4365
 7702SOL    HW124005   3.635   6.027   0.637 -1.5997  0.4118  0.1464
 7702SOL    HW224006   3.594   5.912   0.745 -2.8210  0.6849 -0.0057
 7703SOL     OW24007   5.643   0.097   3.246 -0.3746  0.8432  0.1705
 7703SOL    HW124008   5.551   0.079   3.212 -0.1462  1.2560 -0.7044
 7703SOL    HW224009   5.688   0.163   3.186  1.2148 -0.8487 -0.6029
 7704SOL     OW24010   0.630   1.915   4.015  0.5025 -0.7774  0.3464
 7704SOL    HW124011   0.713   1.865   4.041  1.0269 -0.3260 -0.4025
 7704SOL    HW224012   0.604   1.976   4.090  2.1918  0.7555 -0.2111
 7705SOL     OW24013   2.652   4.814   0.209  0.2967  0.3057 -0.4151
 7705SOL    HW124014   2.582   4.849   0.147  0.3367  0.8258 -0.1721
 7705SOL    HW224015   2.679   4.886   0.272  0.9607  0.0626 -0.4203
 7706SOL     OW24016   3.457   4.046   2.677 -0.4454 -0.5048  0.3853
 7706SOL    HW124017   3.502   3.959   2.654  1.5609  1.1378 -2.7447
 7706SOL    HW224018   3.372   4.054   2.625 -0.4081 -0.4247  0.3358
 7707SOL     OW24019   0.395   6.389   6.695  0.0182 -0.3335 -0.3105
 7707SOL    HW124020   0.413   6.310   6.636  1.3923 -0.1585 -0.1459
 7707SOL    HW224021   0.356   6.463   6.640 -3.4523 -1.8003 -0.1039
 7708SOL     OW24022   0.603   6.253   2.658  0.4820  0.1850  0.2956
 7708SOL    HW124023   0.515   6.293   2.635  0.0838 -0.7294  0.1963
 7708SOL    HW224024   0.657   6.318   2.712 -1.0076  0.0451  2.0314
 7709SOL     OW24025   0.872   4.210   2.644  0.1826  0.4059  0.1264
 7709SOL    HW124026   0.925   4.128   2.623  1.2854  1.0263  0.4188
 7709SOL    HW224027   0.811   4.231   2.567  0.3164 -0.3438 -0.1917
 7710SOL     OW24028   2.152   3.555   0.939 -0.2071  0.3918  0.1470
 7710SOL    HW124029   2.248   3.524   0.937 -0.1944  0.4272  0.2038
 7710SOL    HW224030   2.147   3.645   0.981 -0.2345  0.5123 -0.1158
 7711SOL     OW24031   5.649   6.686   4.924 -1.0396  0.3335  0.2361
 7711SOL    HW124032   5.597   6.763   4.960 -0.8689 -0.1015  1.4629
 7711SOL    HW224033   5.664   6.618   4.996 -2.3993 -1.5343 -1.1311
 7712SOL     OW24034   0.122   6.160   6.522  0.6984  0.1532 -0.1083
 7712SOL    HW124035   0.106   6.243   6.576 -1.7378 -0.7939  0.7640
 7712SOL    HW224036   0.162   6.185   6.434 -1.6394  2.5144 -0.6257
 7713SOL     OW24037   2.813   5.704   5.926 -0.8866  0.0494  0.1639
 7713SOL    HW124038   2.842   5.670   6.016 -2.3082 -2.3110 -0.1786
 7713SOL    HW224039   2.894   5.729   5.873  0.2285 -1.7940  0.8952
 7714SOL     OW24040   6.746   6.495   6.233  0.5345 -0.3420 -0.6379
 7714SOL    HW124041   6.755   6.424   6.162 -1.4086 -0.6417 -0.6336
 7714SOL    HW224042   6.711   6.579   6.192 -0.8044 -0.5789 -0.0479
 7715SOL     OW24043   3.226   2.530   6.969 -0.7758  0.3463 -0.0861
 7715SOL    HW124044   3.323   2.538   6.947 -0.9500 -0.1907 -1.1283
 7715SOL    HW224045   3.172   2.580   6.901 -1.2233  0.6385  0.4853
 7716SOL     OW24046   6.876   5.764   3.917 -0.1943  0.1021  0.2979
 7716SOL    HW124047   6.956   5.813   3.952  0.3162  0.0795 -0.8075
 7716SOL    HW224048   6.831   5.716   3.993  0.7203  0.2705  0.9679
 7717SOL     OW24049   1.737   3.301   5.746 -0.1404  0.5491  0.0564
 7717SOL    HW124050   1.774   3.219   5.704  0.5171  0.7457  0.2318
 7717SOL    HW224051   1.638   3.292   5.757 -0.1118 -0.0923 -0.1939
 7718SOL     OW24052   0.835   4.129   0.885 -0.5666 -0.2554  0.4545
 7718SOL    HW124053   0.931   4.106   0.869 -1.1173 -1.5333 -1.3413
 7718SOL    HW224054   0.829   4.221   0.925  1.3604  0.2085 -0.1915
 7719SOL     OW24055   1.658   4.344   4.971 -0.3343  0.3390 -0.3078
 7719SOL    HW124056   1.675   4.320   4.876 -0.1772  1.9634 -0.7288
 7719SOL    HW224057   1.622   4.437   4.976  1.6892  1.1327  1.3287
 7720SOL     OW24058   5.065   1.355   6.348  0.4219  0.2256  0.4022
 7720SOL    HW124059   5.036   1.296   6.273 -0.6258  1.3106 -0.0787
 7720SOL    HW224060   4.993   1.357   6.418  0.4251  0.9520  0.3900
 7721SOL     OW24061   2.714   0.065   2.815 -0.5247 -0.0976  0.3794
 7721SOL    HW124062   2.643   0.101   2.754  0.6274  0.4604 -0.6827
 7721SOL    HW224063   2.731  -0.031   2.794 -1.3736 -0.4020  1.0475
 7722SOL     OW24064   0.296   5.541   3.922 -0.0835 -0.0389 -0.4117
 7722SOL    HW124065   0.392   5.519   3.938  0.0279  1.1506  0.6624
 7722SOL    HW224066   0.238   5.482   3.979  0.0479 -0.0882 -0.3298
 7723SOL     OW24067   5.446   4.040   6.507  0.0228 -0.4003  0.1600
 7723SOL    HW124068   5.481   4.016   6.598  0.2458 -0.5233  0.0457
 7723SOL    HW224069   5.362   4.092   6.516  0.4512  0.2541  0.4557
 7724SOL     OW24070   4.542   3.162   6.799 -0.5455  0.5646 -0.1758
 7724SOL    HW124071   4.529   3.097   6.874 -3.4164  0.1565 -0.9115
 7724SOL    HW224072   4.637   3.193   6.798 -0.1201 -0.3153  2.8558
 7725SOL     OW24073   6.214   2.199   5.128  0.0755 -0.3990  0.1450
 7725SOL    HW124074   6.270   2.126   5.088  1.7585  1.0414 -0.2889
 7725SOL    HW224075   6.143   2.226   5.063  0.3679 -0.6670 -0.2926
 7726SOL     OW24076   0.893   4.743   5.323 -0.1973 -0.4867 -0.1641
 7726SOL    HW124077   0.811   4.785   5.284  0.5235  2.0684  0.8461
 7726SOL    HW224078   0.974   4.785   5.283  0.5784 -0.4371  1.4004
 7727SOL     OW24079   4.758   4.230   0.619  0.1212 -1.0049 -0.4378
 7727SOL    HW124080   4.681   4.182   0.660  0.0169 -0.8200 -0.4151
 7727SOL    HW224081   4.777   4.192   0.528  1.3886 -2.5198  0.4119
 7728SOL     OW24082   2.171   3.215   5.072 -0.1709  0.5401 -0.1846
 7728SOL    HW124083   2.088   3.161   5.085 -0.7507  0.4858 -3.3407
 7728SOL    HW224084   2.249   3.152   5.064 -0.1531  0.4700  0.4242
 7729SOL     OW24085   6.925   1.634   2.120  0.1513 -0.1777 -0.0844
 7729SOL    HW124086   6.828   1.623   2.099  0.0929  0.7944 -0.3338
 7729SOL    HW224087   6.980   1.580   2.055 -0.1942 -0.3503 -0.2351
 7730SOL     OW24088   5.509   5.776   6.817 -0.5650 -0.0802 -0.1599
 7730SOL    HW124089   5.449   5.856   6.807  0.9034  1.1784  0.5521
 7730SOL    HW224090   5.558   5.760   6.731  0.4904  0.9792  0.2072
 7731SOL     OW24091   6.168   4.811   1.312  0.1344 -0.3884  0.0729
 7731SOL    HW124092   6.134   4.729   1.358 -0.7391 -0.1284 -0.0979
 7731SOL    HW224093   6.267   4.804   1.300  0.3011 -0.6883  1.5222
 7732SOL     OW24094   5.728   0.921   5.401  0.2172  0.2492 -0.0975
 7732SOL    HW124095   5.714   0.823   5.413 -0.3323  0.0140 -2.2361
 7732SOL    HW224096   5.641   0.965   5.378  0.5787  1.1205  0.1545
 7733SOL     OW24097   6.579   5.429   0.480 -0.5636  0.4619  1.1370
 7733SOL    HW124098   6.515   5.364   0.522 -1.8802 -0.3763 -1.8641
 7733SOL    HW224099   6.535   5.519   0.472 -0.3602  0.5898  1.4521
 7734SOL     OW24100   1.913   4.233   3.445 -0.4418 -0.3477 -0.4405
 7734SOL    HW124101   1.982   4.196   3.383 -0.7718 -1.1706 -0.3327
 7734SOL    HW224102   1.938   4.210   3.539 -0.7730 -0.4960 -0.3891
 7735SOL     OW24103   5.395   5.665   0.193 -0.5459 -0.2178  0.1309
 7735SOL    HW124104   5.437   5.604   0.260 -0.1794 -0.1089  0.0060
 7735SOL    HW224105   5.461   5.737   0.168 -0.8740  0.0660  0.0729
 7736SOL     OW24106   3.230   2.081   6.034 -0.2929  0.2770 -0.5004
 7736SOL    HW124107   3.320   2.102   6.072 -0.7985  0.7016  0.4846
 7736SOL    HW224108   3.216   2.137   5.951  0.1459  0.5837 -0.3728
 7737SOL     OW24109   2.970   3.252   1.697  0.0194  0.3736 -0.2033
 7737SOL    HW124110   2.877   3.215   1.699 -0.1702  0.8854  0.7149
 7737SOL    HW224111   3.017   3.230   1.782  0.4824  0.7878 -0.3457
 7738SOL     OW24112   2.009   6.688   6.333 -0.1953  0.1314 -0.8123
 7738SOL    HW124113   2.014   6.604   6.387 -0.7569  0.2976 -0.4857
 7738SOL    HW224114   2.081   6.750   6.361 -1.1162  0.6508  0.5333
 7739SOL     OW24115   1.409   1.403   2.497 -0.0303 -0.4937 -0.5317
 7739SOL    HW124116   1.395   1.313   2.538  0.3828 -0.3032  0.0355
 7739SOL    HW224117   1.472   1.457   2.554 -0.4839  0.2519 -0.7212
 7740SOL     OW24118   2.113   1.335   2.805 -0.5216  0.4548  0.3360
 7740SOL    HW124119   2.160   1.270   2.863 -0.8485 -0.1719 -0.0917
 7740SOL    HW224120   2.054   1.286   2.740 -0.7060  1.1653 -0.0462
 7741SOL     OW24121   3.445   6.056   5.208 -0.2157  0.5781 -0.1911
 7741SOL    HW124122   3.480   5.966   5.235 -2.0461 -0.4953 -1.1952
 7741SOL    HW224123   3.435   6.113   5.290 -0.1715 -0.5556  0.6381
 7742SOL     OW24124   2.528   2.385   4.326  0.2587  0.0053 -0.3703
 7742SOL    HW124125   2.449   2.392   4.265  0.7850  2.2726 -0.8744
 7742SOL    HW224126   2.499   2.408   4.419  0.1344 -0.1376 -0.3721
 7743SOL     OW24127   4.673   0.913   6.003 -0.1229 -0.1345  0.2106
 7743SOL    HW124128   4.616   0.832   5.989 -0.4390  0.0730  0.2882
 7743SOL    HW224129   4.640   0.963   6.083  1.0883 -0.8237  1.1982
 7744SOL     OW24130   1.999   6.257   2.792 -0.1406  0.1545 -0.3237
 7744SOL    HW124131   2.022   6.183   2.730  0.8125 -0.2703  0.5115
 7744SOL    HW224132   2.065   6.260   2.868 -2.3783 -0.6373  1.7870
 7745SOL     OW24133   3.059   1.559   0.509  0.1159 -0.0579  0.1267
 7745SOL    HW124134   3.018   1.468   0.507  1.0300 -0.5243  1.3773
 7745SOL    HW224135   3.130   1.566   0.439 -0.4685 -0.0390 -0.4732
 7746SOL     OW24136   2.872   6.183   6.978 -0.0521 -0.2162 -0.4887
 7746SOL    HW124137   2.864   6.130   6.894 -0.7168 -0.0580 -0.5287
 7746SOL    HW224138   2.955   6.155   7.027 -0.5927 -1.5683 -0.3140
 7747SOL     OW24139   0.950   5.000   1.649 -0.1372 -0.0126  0.2163
 7747SOL    HW124140   0.957   5.000   1.549 -2.3186 -1.5803 -0.0114
 7747SOL    HW224141   0.860   4.966   1.676  1.3246 -2.2595  2.7423
 7748SOL     OW24142   3.294   3.064   5.497 -0.1838 -0.2709 -0.0374
 7748SOL    HW124143   3.240   2.989   5.459  0.3673 -0.0582 -1.2913
 7748SOL    HW224144   3.390   3.053   5.469  0.0849  0.3677  0.6060
 7749SOL     OW24145   3.482   2.903   3.657  0.5894 -0.5807 -0.6301
 7749SOL    HW124146   3.411   2.972   3.673  0.3117 -0.6461 -1.5534
 7749SOL    HW224147   3.545   2.902   3.735 -2.0780 -2.5894  1.7395
 7750SOL     OW24148   5.744   5.041   5.894 -0.4379  0.0802  0.3036
 7750SOL    HW124149   5.695   4.966   5.850 -0.3794  0.6871 -0.8413
 7750SOL    HW224150   5.689   5.076   5.971 -1.3430  0.0877 -0.3214
 7751SOL     OW24151   0.417   2.965   2.082  0.8054 -0.1048  0.2152
 7751SOL    HW124152   0.421   3.065   2.090 -1.8041  0.2746 -1.7217
 7751SOL    HW224153   0.360   2.928   2.155 -2.2850  0.5062 -1.6850
 7752SOL     OW24154   6.594   5.727   4.195  0.3748 -0.1848  0.4608
 7752SOL    HW124155   6.655   5.654   4.166  0.4932 -0.0303  0.3191
 7752SOL    HW224156   6.538   5.696   4.272 -0.2459 -0.7502 -0.2032
 7753SOL     OW24157   2.662   6.859   4.987  0.3699 -0.5926 -0.2870
 7753SOL    HW124158   2.719   6.887   4.910  0.3683 -0.1061 -0.1129
 7753SOL    HW224159   2.662   6.931   5.057 -2.3462  0.4898 -1.2892
 7754SOL     OW24160   5.284   6.860   0.286 -0.1249 -0.0162 -0.2180
 7754SOL    HW124161   5.265   6.932   0.219 -0.4973  0.6796  0.6251
 7754SOL    HW224162   5.203   6.803   0.299 -0.0961 -0.0640 -0.2439
 7755SOL     OW24163   6.780   6.462   4.833 -0.1714  0.8457 -0.2479
 7755SOL    HW124164   6.807   6.523   4.758  1.0542 -1.4804 -1.8276
 7755SOL    HW224165   6.861   6.435   4.884 -0.4494 -0.6533 -0.5653
 7756SOL     OW24166   0.391   0.700   2.016  0.6060 -0.2859 -0.5407
 7756SOL    HW124167   0.403   0.796   1.991  0.4029  0.1326  0.8763
 7756SOL    HW224168   0.297   0.672   1.999  0.0211  0.4762  1.1890
 7757SOL     OW24169   5.218   5.675   4.092  0.1273  0.2470 -0.0858
 7757SOL    HW124170   5.209   5.728   4.177  1.8221  0.8244 -0.2322
 7757SOL    HW224171   5.271   5.592   4.111 -1.0439 -0.5636 -0.2275
 7758SOL     OW24172   2.048   3.459   1.173  0.2632 -0.0089  0.2951
 7758SOL    HW124173   2.114   3.412   1.231  1.8703  1.3127 -0.3903
 7758SOL    HW224174   2.090   3.481   1.085 -0.1006  3.3126  0.7991
 7759SOL     OW24175   1.704   6.897   5.369  0.1618 -0.0927  0.1989
 7759SOL    HW124176   1.704   6.811   5.420  2.2844  0.6232  1.5089
 7759SOL    HW224177   1.673   6.879   5.275 -2.0681 -1.7538  1.1662
 7760SOL     OW24178   6.000   2.343   2.767  0.3131 -0.1344 -0.1683
 7760SOL    HW124179   6.043   2.253   2.775 -0.2159 -0.2628  1.6164
 7760SOL    HW224180   5.919   2.336   2.709 -0.3402 -1.0804  0.8049
 7761SOL     OW24181   1.953   1.148   5.879  0.0295 -0.0080 -0.0802
 7761SOL    HW124182   2.028   1.185   5.934 -0.6766  1.0618  0.1744
 7761SOL    HW224183   1.890   1.098   5.938 -0.4596  0.7082  0.0095
 7762SOL     OW24184   5.388   2.205   6.637  0.3679  0.0858  0.2509
 7762SOL    HW124185   5.423   2.173   6.549  1.2316 -0.2303  0.6964
 7762SOL    HW224186   5.402   2.304   6.645  1.0623 -0.0174  0.3699
 7763SOL     OW24187   6.893   2.582   1.863  0.1601  0.0851  0.7097
 7763SOL    HW124188   6.860   2.642   1.791  0.6067  0.4814  0.8273
 7763SOL    HW224189   6.850   2.492   1.854  1.5108 -0.4401 -1.1377
 7764SOL     OW24190   3.272   3.247   2.836  0.0355 -0.1189 -0.7072
 7764SOL    HW124191   3.274   3.184   2.914 -0.5264 -0.0361 -0.6189
 7764SOL    HW224192   3.221   3.205   2.761  1.0467 -0.4276 -1.2444
 7765SOL     OW24193   6.028   2.962   4.343 -0.0930 -0.1098 -0.1714
 7765SOL    HW124194   6.004   3.058   4.326 -1.4797 -0.2861  0.6908
 7765SOL    HW224195   5.947   2.904   4.334  0.6020 -1.1297 -0.0791
 7766SOL     OW24196   5.119   1.789   6.680 -0.0636 -0.2481 -0.3392
 7766SOL    HW124197   5.061   1.862   6.644  0.7756  0.1898 -0.8557
 7766SOL    HW224198   5.188   1.765   6.611 -0.9327 -2.2218 -0.5556
 7767SOL     OW24199   2.710   5.735   3.094 -0.3507  1.1330 -0.1592
 7767SOL    HW124200   2.649   5.771   3.024 -0.2751  1.3129 -0.1347
 7767SOL    HW224201   2.787   5.798   3.106  2.2756 -1.1057 -3.3181
 7768SOL     OW24202   3.216   4.229   1.331  0.5178 -0.4870  0.3617
 7768SOL    HW124203   3.248   4.264   1.244  0.0123 -1.2969 -0.1644
 7768SOL    HW224204   3.293   4.221   1.395  1.1897 -1.4272 -0.5401
 7769SOL     OW24205   5.845   6.588   1.524 -0.3325  0.3704  1.1284
 7769SOL    HW124206   5.791   6.509   1.553 -1.1190  0.6389  0.4157
 7769SOL    HW224207   5.909   6.612   1.597  1.2236 -2.0437  0.6735
 7770SOL     OW24208   1.838   6.099   1.127 -0.3174 -0.7437  0.0857
 7770SOL    HW124209   1.910   6.034   1.101 -0.3731 -1.6407  2.0302
 7770SOL    HW224210   1.874   6.192   1.125  0.7910 -1.1508  0.6843
 7771SOL     OW24211   1.836   3.439   3.964  0.2952 -0.4813 -0.0643
 7771SOL    HW124212   1.852   3.364   3.900 -0.8346 -0.2403 -0.6472
 7771SOL    HW224213   1.831   3.525   3.914  0.6241 -0.1324  0.4936
 7772SOL     OW24214   4.677   2.674   3.489 -0.4726  0.0449  0.2554
 7772SOL    HW124215   4.708   2.720   3.406  0.8192 -0.6876  0.3128
 7772SOL    HW224216   4.748   2.680   3.559 -1.2571  0.0258  1.0653
 7773SOL     OW24217   2.554   4.888   6.436 -0.0523  0.1545  0.1132
 7773SOL    HW124218   2.573   4.858   6.342 -2.3164 -2.6446  0.4086
 7773SOL    HW224219   2.636   4.878   6.492  0.6760 -0.5331 -1.0245
 7774SOL     OW24220   5.130   1.755   5.218 -0.0335  0.3022 -0.3404
 7774SOL    HW124221   5.034   1.730   5.206 -0.0968  0.1336  0.5069
 7774SOL    HW224222   5.175   1.686   5.274  0.5974  0.3612 -0.7664
 7775SOL     OW24223   5.815   5.861   3.329  0.9353  0.1490  0.0096
 7775SOL    HW124224   5.756   5.781   3.319  0.1221  0.8549 -1.1293
 7775SOL    HW224225   5.889   5.856   3.263 -0.0006  1.0567 -1.1503
 7776SOL     OW24226   3.412   2.372   5.698  0.3631  0.0286  0.2200
 7776SOL    HW124227   3.376   2.458   5.734  1.8290  0.3286  1.0322
 7776SOL    HW224228   3.401   2.371   5.598  1.3347  1.6706  0.0576
 7777SOL     OW24229   2.162   0.523   5.821 -0.0156  0.0252  0.0249
 7777SOL    HW124230   2.233   0.488   5.760  2.0611 -1.1259  2.8557
 7777SOL    HW224231   2.092   0.453   5.834 -0.4040  0.2310 -0.8733
 7778SOL     OW24232   5.258   6.852   3.815  0.0455  0.5812  0.5263
 7778SOL    HW124233   5.290   6.763   3.848 -0.5894  0.4042  0.6890
 7778SOL    HW224234   5.201   6.839   3.733  0.3715  0.8860  0.2454
 7779SOL     OW24235   3.129   1.906   1.151  0.5504  0.1449 -0.2325
 7779SOL    HW124236   3.132   1.994   1.198  0.6920 -0.8538  1.7474
 7779SOL    HW224237   3.220   1.864   1.152  0.6823  0.3174 -1.9220
 7780SOL     OW24238   2.848   1.083   5.387  0.0157  0.0169  0.5165
 7780SOL    HW124239   2.893   1.027   5.318 -0.2655  1.2618 -0.7267
 7780SOL    HW224240   2.773   1.134   5.345 -1.4055 -0.6216  2.1549
 7781SOL     OW24241   6.204   4.036   5.618  0.2463  0.1910 -0.0111
 7781SOL    HW124242   6.230   4.020   5.523  0.4012 -0.4612  0.1349
 7781SOL    HW224243   6.263   4.107   5.658  0.4808  0.1386 -0.2661
 7782SOL     OW24244   0.069   6.065   4.454  0.8420 -0.1765  0.1762
 7782SOL    HW124245  -0.016   6.015   4.436  1.5729 -0.6918 -2.1105
 7782SOL    HW224246   0.133   6.005   4.501  1.0015 -0.7621 -0.7759
 7783SOL     OW24247   4.035   6.795   5.281  0.3481  0.4350 -0.0391
 7783SOL    HW124248   4.063   6.769   5.189  0.9357 -1.7921  0.7039
 7783SOL    HW224249   3.935   6.798   5.286  0.0097 -3.9270  0.1911
 7784SOL     OW24250   3.499   2.131   1.152  0.2775  0.1572 -0.5095
 7784SOL    HW124251   3.488   2.043   1.200 -1.6835 -0.5805 -2.1998
 7784SOL    HW224252   3.587   2.131   1.104 -0.0692 -1.2617 -1.2011
 7785SOL     OW24253   1.492   0.408   5.524 -0.2815 -0.7059  0.0692
 7785SOL    HW124254   1.551   0.391   5.603 -0.3793 -0.3682  0.2153
 7785SOL    HW224255   1.538   0.375   5.441  0.7873  0.8925 -0.0212
 7786SOL     OW24256   4.120   4.909   5.848 -0.4406  0.0472 -0.1482
 7786SOL    HW124257   4.177   4.982   5.810 -0.6239  0.1706 -0.1893
 7786SOL    HW224258   4.031   4.947   5.875 -1.2429 -0.4797 -1.8522
 7787SOL     OW24259   0.201   2.782   5.184 -0.2713  0.5520  0.1485
 7787SOL    HW124260   0.132   2.720   5.220 -1.9400  0.6057 -2.6145
 7787SOL    HW224261   0.226   2.849   5.253 -2.5300  0.1278  1.4668
 7788SOL     OW24262   0.108   0.248   1.625  0.5253  0.1321  0.0897
 7788SOL    HW124263   0.167   0.326   1.645  1.2170 -0.4333  0.2871
 7788SOL    HW224264   0.108   0.185   1.704  0.1854 -0.1945 -0.1679
 7789SOL     OW24265   2.361   5.270   2.204  0.1527  0.0298 -0.4080
 7789SOL    HW124266   2.447   5.274   2.254  1.0684 -0.8941 -1.8430
 7789SOL    HW224267   2.323   5.178   2.210 -0.4541  0.2909 -0.2352
 7790SOL     OW24268   6.390   4.812   3.098 -0.1285  0.0125  0.2050
 7790SOL    HW124269   6.379   4.911   3.096 -0.0400  0.0504  1.2245
 7790SOL    HW224270   6.316   4.771   3.152 -0.4794 -0.5372 -0.6568
 7791SOL     OW24271   3.819   6.661   5.958  0.0889 -0.4084 -0.0427
 7791SOL    HW124272   3.804   6.651   6.056 -0.0991 -2.3843 -0.2452
 7791SOL    HW224273   3.778   6.584   5.910 -0.1814  0.7340 -1.7264
 7792SOL     OW24274   0.859   5.158   5.086  0.2356  0.9342 -0.5277
 7792SOL    HW124275   0.932   5.099   5.049 -0.4749 -1.3579  1.4399
 7792SOL    HW224276   0.891   5.199   5.172 -0.2667  1.1252 -0.4322
 7793SOL     OW24277   1.585   1.086   4.456  0.0801 -0.5019 -0.1569
 7793SOL    HW124278   1.509   1.047   4.507  1.1136 -2.7120 -0.1980
 7793SOL    HW224279   1.628   1.159   4.510 -0.7411 -0.6890  0.7783
 7794SOL     OW24280   6.911   6.672   3.535 -0.2767  0.6528  0.0590
 7794SOL    HW124281   7.007   6.697   3.532 -0.3873  1.1119  0.1866
 7794SOL    HW224282   6.895   6.609   3.611  0.2333 -0.8522 -1.0287
 7795SOL     OW24283   3.638   4.685   5.380 -0.7045  0.1670  0.1960
 7795SOL    HW124284   3.584   4.603   5.401 -0.0798  0.2978  2.5391
 7795SOL    HW224285   3.577   4.758   5.352 -1.5141 -0.3868  0.4722
 7796SOL     OW24286   3.869   3.048   3.904 -0.1395 -0.1066 -0.4375
 7796SOL    HW124287   3.926   3.047   3.822 -0.2282  0.6238 -0.5150
 7796SOL    HW224288   3.782   3.002   3.885 -0.0936 -0.0826 -0.7031
 7797SOL     OW24289   1.150   5.117   2.362  0.5490  0.6466  0.2439
 7797SOL    HW124290   1.167   5.215   2.351  1.2029  0.3329 -1.9599
 7797SOL    HW224291   1.053   5.098   2.350  0.8325  0.6894 -3.0628
 7798SOL     OW24292   2.281   5.753   5.594  0.2800 -0.9994 -0.1957
 7798SOL    HW124293   2.334   5.809   5.657  1.7164 -2.1527 -0.3109
 7798SOL    HW224294   2.194   5.727   5.636  0.6646 -0.6968  0.8016
 7799SOL     OW24295   6.795   5.746   2.142  0.4136  0.3513 -0.3724
 7799SOL    HW124296   6.786   5.730   2.044  0.3725  0.0008 -0.3104
 7799SOL    HW224297   6.879   5.797   2.160 -0.4785  2.0681 -0.7813
 7800SOL     OW24298   5.568   5.673   2.836 -0.2482 -0.3556 -0.5235
 7800SOL    HW124299   5.642   5.608   2.819 -0.6162 -0.5866 -1.3022
 7800SOL    HW224300   5.512   5.682   2.754 -0.4591  0.6254 -0.2888
 7801SOL     OW24301   3.086   2.093   2.060 -0.0866 -0.0344 -0.8664
 7801SOL    HW124302   3.122   2.081   2.152 -0.0464 -0.4352 -0.9318
 7801SOL    HW224303   3.032   2.177   2.055  2.6387  1.8421 -1.2963
 7802SOL     OW24304   0.137   2.762   1.324 -0.2360 -0.1862  0.5646
 7802SOL    HW124305   0.222   2.775   1.375 -0.1054 -0.5789  0.4533
 7802SOL    HW224306   0.132   2.667   1.292 -1.1055 -0.4072  1.2954
 7803SOL     OW24307   3.035   2.389   6.152  0.1898 -0.5491  0.1324
 7803SOL    HW124308   3.038   2.480   6.193 -0.5888  0.2520 -1.4975
 7803SOL    HW224309   3.016   2.321   6.223  1.1489  0.4879  1.4324
 7804SOL     OW24310   4.906   0.759   4.996  0.1492 -0.6720  0.1400
 7804SOL    HW124311   4.933   0.722   5.084 -1.0109 -0.5795  0.5532
 7804SOL    HW224312   4.829   0.707   4.959  0.2814 -0.3848 -0.5642
 7805SOL     OW24313   5.014   0.293   3.036  0.4933  0.5403 -0.1334
 7805SOL    HW124314   5.065   0.378   3.049 -1.7443  1.7584  1.3662
 7805SOL    HW224315   5.015   0.241   3.122  0.3117 -0.0494 -0.4860
 7806SOL     OW24316   5.593   2.061   5.901 -0.3062  0.0241  0.6384
 7806SOL    HW124317   5.531   2.110   5.839 -1.1335 -2.3306 -0.5201
 7806SOL    HW224318   5.541   1.996   5.956  0.8266 -0.0852  1.6229
 7807SOL     OW24319   6.172   4.246   6.444  0.4911 -0.2645  0.3095
 7807SOL    HW124320   6.267   4.231   6.472  0.8638 -0.1649 -0.8629
 7807SOL    HW224321   6.121   4.160   6.456  1.2787 -0.9676 -1.1483
 7808SOL     OW24322   5.220   1.855   2.721 -0.1595 -0.6243 -0.2940
 7808SOL    HW124323   5.138   1.895   2.680  1.1265  0.9229 -1.4538
 7808SOL    HW224324   5.299   1.876   2.665  0.9060 -3.0949  0.1842
 7809SOL     OW24325   4.427   6.211   3.010 -0.1379  0.0842 -0.4171
 7809SOL    HW124326   4.519   6.239   2.983  0.2759 -0.6998  0.1372
 7809SOL    HW224327   4.387   6.279   3.071  0.4641 -0.0296  0.1191
 7810SOL     OW24328   2.852   1.660   0.751  0.5860  0.4674  0.6974
 7810SOL    HW124329   2.822   1.755   0.758 -1.0473  0.1569 -1.0671
 7810SOL    HW224330   2.940   1.655   0.705  0.5856  1.1136  0.6288
 7811SOL     OW24331   6.502   2.498   3.816  0.2764 -0.4031  0.2268
 7811SOL    HW124332   6.496   2.566   3.890 -1.7816 -0.5719  0.2607
 7811SOL    HW224333   6.427   2.512   3.752  0.7845 -1.6286 -0.6640
 7812SOL     OW24334   1.389   2.075   1.651  0.1391  0.0474 -0.0617
 7812SOL    HW124335   1.401   2.159   1.705  0.9780  0.2301 -0.5046
 7812SOL    HW224336   1.428   2.089   1.560 -0.6161 -0.4983 -0.4773
 7813SOL     OW24337   3.948   2.061   5.570  0.2243 -0.2176 -0.4792
 7813SOL    HW124338   3.979   2.154   5.592 -2.1367 -0.2732  4.3613
 7813SOL    HW224339   4.018   1.995   5.599  0.5190 -0.0653 -0.8305
 7814SOL     OW24340   0.210   1.041   3.062  0.2127 -0.1210 -0.0704
 7814SOL    HW124341   0.255   0.986   2.992 -1.6567 -1.2868 -0.4278
 7814SOL    HW224342   0.255   1.130   3.068  0.9060 -0.2560 -2.2311
 7815SOL     OW24343   5.394   0.828   1.375 -0.0250  0.8322 -0.1885
 7815SOL    HW124344   5.401   0.916   1.422 -0.8020 -0.0313  1.6453
 7815SOL    HW224345   5.298   0.804   1.363  0.1273 -0.6586  1.1799
 7816SOL     OW24346   1.618   2.557   4.763 -0.6695  0.6346  0.2696
 7816SOL    HW124347   1.711   2.584   4.737  0.1212 -0.7794  1.4581
 7816SOL    HW224348   1.564   2.541   4.681  0.7525 -0.5174 -0.5008
 7817SOL     OW24349   1.137   5.609   0.843  0.6970 -0.2783  0.1038
 7817SOL    HW124350   1.124   5.518   0.805  0.0993  0.6543 -2.1195
 7817SOL    HW224351   1.051   5.660   0.839  1.3187  0.8133  0.0061
 7818SOL     OW24352   5.584   1.997   2.257  0.3061  0.2560  0.3840
 7818SOL    HW124353   5.584   2.076   2.195 -2.1859 -1.3126 -1.7956
 7818SOL    HW224354   5.514   2.010   2.328  0.2590  0.2271  0.3427
 7819SOL     OW24355   1.738   2.992   0.868  0.7223 -0.5273 -0.3662
 7819SOL    HW124356   1.658   3.050   0.857  1.3956  0.3857 -0.4996
 7819SOL    HW224357   1.785   2.983   0.780 -0.0603 -2.3230 -0.6591
 7820SOL     OW24358   6.720   2.201   4.421 -0.0090 -0.2428  0.3317
 7820SOL    HW124359   6.804   2.243   4.386  0.3743 -1.8692 -0.8497
 7820SOL    HW224360   6.704   2.231   4.514  0.9687  1.4016  0.0069
 7821SOL     OW24361   6.192   4.519   0.559 -0.5235 -0.8247 -0.3074
 7821SOL    HW124362   6.238   4.607   0.544  0.2694 -1.0384  0.7150
 7821SOL    HW224363   6.141   4.494   0.477  1.6294 -0.8188 -1.7605
 7822SOL     OW24364   0.620   0.480   6.208 -0.0859  0.4009  0.0751
 7822SOL    HW124365   0.664   0.515   6.291 -1.0064  1.1674  0.2514
 7822SOL    HW224366   0.663   0.393   6.182 -0.0914 -0.0898  1.6068
 7823SOL     OW24367   2.201   3.897   3.480 -0.1248 -0.1199  0.2452
 7823SOL    HW124368   2.155   3.976   3.439  0.7384  0.4607  0.3706
 7823SOL    HW224369   2.284   3.927   3.527 -0.4996 -0.9129  1.4810
 7824SOL     OW24370   6.777   0.408   5.620  0.2781  0.4421  0.1775
 7824SOL    HW124371   6.719   0.486   5.647 -0.2488  0.2902 -0.4763
 7824SOL    HW224372   6.822   0.429   5.533 -1.5479 -0.7829 -1.1415
 7825SOL     OW24373   2.303   2.882   6.254 -0.0159  0.1980 -0.1684
 7825SOL    HW124374   2.219   2.926   6.285  0.9056  1.5639  0.5025
 7825SOL    HW224375   2.321   2.907   6.159 -0.7338 -0.6898 -0.5462
 7826SOL     OW24376   6.969   6.965   0.666 -0.7364 -0.1483 -0.4773
 7826SOL    HW124377   7.008   7.044   0.714 -1.5403 -0.1081  0.1297
 7826SOL    HW224378   6.911   6.997   0.591 -0.8000 -0.1702 -0.4373
 7827SOL     OW24379   1.941   4.548   0.559  0.1057 -0.3679 -0.7152
 7827SOL    HW124380   1.954   4.620   0.626 -1.6704 -0.9509  0.3329
 7827SOL    HW224381   2.012   4.478   0.570  1.0574  0.5576 -0.8734
 7828SOL     OW24382   6.246   4.027   0.089  0.4767 -0.3760  0.5194
 7828SOL    HW124383   6.249   4.090   0.167  1.9399  0.3498 -0.0713
 7828SOL    HW224384   6.332   4.035   0.037 -0.4146 -0.8950 -1.1090
 7829SOL     OW24385   2.736   2.976   1.301  0.4640  0.2863  0.2584
 7829SOL    HW124386   2.748   2.898   1.240 -0.5167  0.7602 -0.5680
 7829SOL    HW224387   2.707   2.944   1.391  1.5679 -0.3936  0.3886
 7830SOL     OW24388   1.700   5.187   5.347  0.3296  0.1667  0.2523
 7830SOL    HW124389   1.746   5.275   5.360 -1.6443  0.9850  2.5913
 7830SOL    HW224390   1.616   5.202   5.295  0.0982 -0.3560  0.4734
 7831SOL     OW24391   2.024   2.714   1.715 -0.5019 -0.2145 -0.0649
 7831SOL    HW124392   1.994   2.762   1.632 -0.5111  0.8436  0.5435
 7831SOL    HW224393   1.955   2.724   1.786  0.1043 -0.0096  0.4977
 7832SOL     OW24394   5.751   5.958   4.624 -0.4385 -0.3745  0.3213
 7832SOL    HW124395   5.691   5.914   4.692 -0.0985  0.9956  1.5704
 7832SOL    HW224396   5.782   6.046   4.660  1.9195 -0.7939 -0.5186
 7833SOL     OW24397   1.522   2.102   4.872  0.2334 -0.1739  0.0437
 7833SOL    HW124398   1.476   2.180   4.829  0.6555 -0.2214 -0.5047
 7833SOL    HW224399   1.583   2.135   4.945 -1.6735 -0.2044  1.7358
 7834SOL     OW24400   1.225   2.683   0.992  0.5390 -0.2321 -0.7536
 7834SOL    HW124401   1.193   2.665   0.898 -0.1386 -0.7634 -0.4300
 7834SOL    HW224402   1.215   2.780   1.012  0.6227 -0.1238 -1.2118
 7835SOL     OW24403   5.391   1.771   4.713  0.4921 -0.3448 -0.0027
 7835SOL    HW124404   5.468   1.720   4.752  0.4628  0.0777  0.6247
 7835SOL    HW224405   5.306   1.722   4.730  0.2748  0.6095  1.9607
 7836SOL     OW24406   2.389   4.069   6.874  0.3886 -0.4611 -0.0896
 7836SOL    HW124407   2.461   4.077   6.943  1.3797  1.7450 -1.2577
 7836SOL    HW224408   2.386   3.976   6.839  2.1910 -0.7847  0.5235
 7837SOL     OW24409   6.791   5.932   0.784  0.5879  0.1618 -0.2360
 7837SOL    HW124410   6.696   5.960   0.765  1.1445  1.3025 -1.5771
 7837SOL    HW224411   6.793   5.869   0.861 -1.3909 -0.8603 -0.9635
 7838SOL     OW24412   4.797   6.409   1.749  0.0965 -0.6455  0.4534
 7838SOL    HW124413   4.764   6.468   1.823  0.7464 -1.7091  1.6223
 7838SOL    HW224414   4.785   6.313   1.775 -0.8662 -1.0711 -1.3803
 7839SOL     OW24415   4.581   4.887   4.272  0.4956 -0.4010  0.3178
 7839SOL    HW124416   4.587   4.964   4.335 -0.9184 -1.6433  2.0906
 7839SOL    HW224417   4.616   4.914   4.182 -0.8443  2.6057  0.5801
 7840SOL     OW24418   6.586   5.409   3.758 -0.0059 -0.3280  0.0437
 7840SOL    HW124419   6.627   5.342   3.819  1.6284  1.4839  1.0641
 7840SOL    HW224420   6.653   5.435   3.688 -0.8072 -0.1662 -0.6770
 7841SOL     OW24421   4.128   0.472   6.917  0.2367  0.1001  0.2761
 7841SOL    HW124422   4.050   0.417   6.886  0.1977 -1.0250  2.2116
 7841SOL    HW224423   4.183   0.418   6.980  2.8707  0.7206 -1.3690
 7842SOL     OW24424   2.398   2.173   2.386 -0.2737  0.7930 -0.2276
 7842SOL    HW124425   2.449   2.092   2.358 -1.0989  0.0124  0.4714
 7842SOL    HW224426   2.423   2.250   2.327  1.4669  0.3668 -0.0877
 7843SOL     OW24427   0.545   0.355   2.314 -0.0900 -0.2657  0.2143
 7843SOL    HW124428   0.486   0.432   2.287 -2.1778 -1.6007  0.7821
 7843SOL    HW224429   0.635   0.391   2.342 -0.1763  1.7309 -1.8045
 7844SOL     OW24430   3.250   1.438   1.919  0.2670  0.2870  0.1413
 7844SOL    HW124431   3.175   1.414   1.981  1.1096  1.4247  1.6740
 7844SOL    HW224432   3.319   1.365   1.920  0.0962  0.1260  0.2416
 7845SOL     OW24433   5.329   1.987   2.322  0.1578 -0.6034 -0.0377
 7845SOL    HW124434   5.325   1.889   2.303 -0.1837 -0.5953 -0.0104
 7845SOL    HW224435   5.239   2.029   2.304  0.8529  0.0878 -2.1673
 7846SOL     OW24436   0.507   1.279   0.550  0.4968 -0.1482 -0.1377
 7846SOL    HW124437   0.439   1.223   0.501  0.1037 -0.1059  0.3484
 7846SOL    HW224438   0.587   1.223   0.570 -0.4046 -0.9348  1.4611
 7847SOL     OW24439   6.880   0.745   2.564  0.2000 -0.2158  0.4254
 7847SOL    HW124440   6.842   0.782   2.649 -0.1718 -0.9341  0.5783
 7847SOL    HW224441   6.968   0.788   2.545 -0.8199  1.7370 -0.1067
 7848SOL     OW24442   3.199   3.768   5.551  0.0271  0.1807 -0.0636
 7848SOL    HW124443   3.185   3.683   5.500  0.0400 -0.1750  0.5191
 7848SOL    HW224444   3.209   3.844   5.486  0.5419 -0.3331 -0.6017
 7849SOL     OW24445   4.853   0.091   5.054 -0.3504 -0.1455  0.3492
 7849SOL    HW124446   4.939   0.137   5.075 -0.2104  0.1034 -0.7036
 7849SOL    HW224447   4.873   0.004   5.008 -0.6400 -0.7994  1.4108
 7850SOL     OW24448   1.485   2.628   4.045  0.4452 -0.1838 -0.0715
 7850SOL    HW124449   1.447   2.545   4.087  0.5212 -0.6978 -0.9845
 7850SOL    HW224450   1.439   2.708   4.083 -1.8336 -0.7877 -1.3105
 7851SOL     OW24451   0.601   2.515   4.330  0.0201  0.3497 -0.1918
 7851SOL    HW124452   0.581   2.488   4.424 -1.7030  1.2209 -0.2750
 7851SOL    HW224453   0.689   2.563   4.327  0.6873 -0.7644  0.7497
 7852SOL     OW24454   4.158   2.984   0.582  0.3942 -0.3135  0.1392
 7852SOL    HW124455   4.134   2.933   0.665  1.9780 -2.3575 -0.5735
 7852SOL    HW224456   4.246   2.952   0.548  1.4733  2.8801 -0.4663
 7853SOL     OW24457   5.564   2.261   2.151 -0.0179 -0.5207 -0.3094
 7853SOL    HW124458   5.482   2.287   2.201 -0.5387  1.7946 -2.2148
 7853SOL    HW224459   5.643   2.311   2.188 -0.1226 -0.0035 -0.7798
 7854SOL     OW24460   3.638   1.847   6.682 -0.8765  0.5072 -0.4295
 7854SOL    HW124461   3.598   1.760   6.653  0.3336 -0.3329  0.3058
 7854SOL    HW224462   3.710   1.874   6.619  0.0887 -0.0668  0.3849
 7855SOL     OW24463   4.925   6.280   5.837  0.2359  0.0163  0.3916
 7855SOL    HW124464   4.922   6.209   5.766 -0.4609 -0.4862  0.9123
 7855SOL    HW224465   4.914   6.370   5.794  2.0590 -0.0851 -0.3820
 7856SOL     OW24466   6.651   4.599   5.056  0.5780  0.3930 -0.7291
 7856SOL    HW124467   6.571   4.568   5.004  0.5711  0.1469 -0.5733
 7856SOL    HW224468   6.628   4.684   5.104  1.1743  1.7280 -2.6661
 7857SOL     OW24469   6.049   5.205   6.291 -0.0828  0.0078 -0.7568
 7857SOL    HW124470   6.057   5.115   6.249 -2.0530 -0.7526  0.3511
 7857SOL    HW224471   6.109   5.211   6.370 -1.6213 -1.2729  0.5825
 7858SOL     OW24472   0.252   4.778   3.822 -0.0078 -0.0913 -1.2013
 7858SOL    HW124473   0.263   4.863   3.771  0.7122  1.4254  1.3224
 7858SOL    HW224474   0.337   4.758   3.872 -1.0533 -0.7776  0.3793
 7859SOL     OW24475   4.919   1.949   6.270 -0.0447  0.4954  0.0372
 7859SOL    HW124476   4.826   1.986   6.260 -0.2746 -0.0568  0.0370
 7859SOL    HW224477   4.919   1.854   6.240  0.7057  0.7238 -0.7050
 7860SOL     OW24478   3.870   1.787   4.126  0.3110  0.4120 -0.0189
 7860SOL    HW124479   3.915   1.866   4.086  0.3191  0.5073  0.1789
 7860SOL    HW224480   3.806   1.816   4.196  0.4741  0.2296  0.2084
 7861SOL     OW24481   1.814   3.722   2.801  0.0785 -0.0491  0.4586
 7861SOL    HW124482   1.748   3.690   2.870 -3.5321  1.6759 -1.8598
 7861SOL    HW224483   1.844   3.645   2.746  0.7251 -1.0135  2.0986
 7862SOL     OW24484   2.249   6.169   6.769  0.3488 -0.5540 -0.3196
 7862SOL    HW124485   2.202   6.124   6.693 -0.2684 -2.7415  1.2649
 7862SOL    HW224486   2.244   6.268   6.758 -0.5840 -0.8005 -2.5827
 7863SOL     OW24487   6.550   3.282   3.571 -0.3610 -0.5231 -0.2341
 7863SOL    HW124488   6.606   3.207   3.607 -0.4655 -1.1793 -1.3981
 7863SOL    HW224489   6.511   3.256   3.482  0.3903  1.2576 -1.1461
 7864SOL     OW24490   0.415   0.687   5.903 -0.1492  0.2569  0.3024
 7864SOL    HW124491   0.376   0.723   5.818  0.1997  0.9120  0.4138
 7864SOL    HW224492   0.484   0.619   5.881 -0.0673  0.4169  0.0566
 7865SOL     OW24493   6.626   6.654   3.555 -0.3619 -0.4791 -0.6582
 7865SOL    HW124494   6.717   6.656   3.514 -0.4495  0.8555 -0.8224
 7865SOL    HW224495   6.590   6.561   3.551  1.3834 -1.2446  0.3012
 7866SOL     OW24496   3.802   6.757   4.934 -0.3751 -0.0246  0.0119
 7866SOL    HW124497   3.784   6.767   5.032  0.0148  0.9310 -0.0043
 7866SOL    HW224498   3.722   6.788   4.882 -0.6135 -0.6097  0.0280
 7867SOL     OW24499   6.974   0.961   4.912  0.3212  0.0186  0.2102
 7867SOL    HW124500   6.876   0.943   4.901  0.9240 -2.4657 -2.0872
 7867SOL    HW224501   7.014   0.984   4.824  1.9173  0.5569  1.0346
 7868SOL     OW24502   4.028   5.353   6.195 -0.5040 -0.1625 -0.1074
 7868SOL    HW124503   4.066   5.279   6.139 -1.1741  0.6851 -1.7833
 7868SOL    HW224504   3.928   5.356   6.183 -0.6536  0.0930  1.1059
 7869SOL     OW24505   4.753   4.937   4.652  0.4903  0.3266  0.0515
 7869SOL    HW124506   4.689   4.861   4.646  1.2372 -0.4649  1.5815
 7869SOL    HW224507   4.712   5.011   4.706  0.9741 -0.3474  1.3872
 7870SOL     OW24508   3.462   6.075   4.272 -0.0794 -0.2578 -0.1062
 7870SOL    HW124509   3.443   6.105   4.179  0.8918 -0.4543 -0.3763
 7870SOL    HW224510   3.529   6.136   4.314 -1.0386  0.2505  0.7249
 7871SOL     OW24511   4.118   2.260   2.651 -0.7134 -0.0530 -0.3834
 7871SOL    HW124512   4.139   2.337   2.712 -1.3420 -0.3398  0.2093
 7871SOL    HW224513   4.032   2.218   2.679  0.6554 -2.3398  0.6857
 7872SOL     OW24514   2.682   5.627   1.066 -0.0186 -0.1266  0.0758
 7872SOL    HW124515   2.719   5.557   1.005  0.7678 -0.2560  0.6975
 7872SOL    HW224516   2.601   5.591   1.113 -1.5603  0.4643 -1.9769
 7873SOL     OW24517   0.297   6.527   0.777  0.2852  1.0399 -0.8819
 7873SOL    HW124518   0.265   6.441   0.739 -1.9180  2.1187 -1.6369
 7873SOL    HW224519   0.363   6.569   0.714 -0.4455  1.0152 -1.6770
 7874SOL     OW24520   5.851   4.581   1.188 -0.3383  0.1109 -0.2379
 7874SOL    HW124521   5.934   4.564   1.242 -0.9374 -0.5445  0.5121
 7874SOL    HW224522   5.876   4.618   1.099  0.7317  0.3756  0.1552
 7875SOL     OW24523   5.031   3.112   1.638  0.0767 -0.1677 -0.5994
 7875SOL    HW124524   4.981   3.194   1.608  0.3279  0.3147  0.2572
 7875SOL    HW224525   4.986   3.074   1.718  0.9420  0.1375  0.0455
 7876SOL     OW24526   0.931   0.696   5.036  0.3890  0.1094 -0.0764
 7876SOL    HW124527   0.908   0.675   4.941 -0.2579  1.7975 -0.3356
 7876SOL    HW224528   1.028   0.678   5.052 -0.0752 -3.1039 -0.1569
 7877SOL     OW24529   5.026   1.667   3.074 -0.3129  0.4049 -0.4035
 7877SOL    HW124530   4.958   1.601   3.104 -1.0919  0.6919 -1.5006
 7877SOL    HW224531   5.078   1.630   2.997 -0.9289  1.1401 -1.1967
 7878SOL     OW24532   5.174   3.047   2.631 -0.2909 -0.2088  0.7248
 7878SOL    HW124533   5.184   2.961   2.680  0.7579  0.4971  1.7984
 7878SOL    HW224534   5.263   3.076   2.595 -0.9878 -0.6169 -1.5060
 7879SOL     OW24535   4.596   6.116   3.254  0.2112 -0.0180  0.2564
 7879SOL    HW124536   4.499   6.094   3.266 -0.2555  1.2623 -0.8822
 7879SOL    HW224537   4.649   6.076   3.329 -1.3672  0.3355  1.6185
 7880SOL     OW24538   3.303   2.464   0.910  0.2644  0.2097 -0.1931
 7880SOL    HW124539   3.374   2.498   0.972  0.1644  1.3708 -0.6752
 7880SOL    HW224540   3.329   2.486   0.815 -0.2209 -0.3258 -0.4516
 7881SOL     OW24541   5.493   3.540   5.257  0.0702  0.0848  0.1077
 7881SOL    HW124542   5.515   3.449   5.221 -2.0295 -0.2748 -0.4341
 7881SOL    HW224543   5.410   3.534   5.313 -0.7177  1.8101 -0.7904
 7882SOL     OW24544   3.415   3.580   0.765  0.1394 -0.6195 -0.8409
 7882SOL    HW124545   3.456   3.488   0.766  0.6100 -0.4156  0.8157
 7882SOL    HW224546   3.412   3.616   0.858 -0.0540  1.0524 -1.4696
 7883SOL     OW24547   2.026   1.816   6.363 -0.1957  0.5624 -0.0768
 7883SOL    HW124548   1.965   1.739   6.344  1.1843 -0.4565 -0.5377
 7883SOL    HW224549   2.005   1.854   6.453  0.8222 -2.1394  1.4171
 7884SOL     OW24550   5.827   3.653   4.945 -0.1609  0.1238 -0.1512
 7884SOL    HW124551   5.845   3.719   5.017 -1.9083 -0.4769  0.9018
 7884SOL    HW224552   5.871   3.682   4.860 -1.8133  3.2892 -0.0619
 7885SOL     OW24553   6.494   5.525   2.678 -0.0762 -0.2401 -0.4073
 7885SOL    HW124554   6.479   5.536   2.776  0.0329  1.2259 -0.5235
 7885SOL    HW224555   6.465   5.434   2.649  1.2365 -1.2324  1.2261
 7886SOL     OW24556   4.247   6.470   0.802 -0.5851 -0.3695 -0.1215
 7886SOL    HW124557   4.228   6.423   0.716 -2.4355  1.2857 -0.7008
 7886SOL    HW224558   4.163   6.511   0.837  0.5668  0.9125  1.3096
 7887SOL     OW24559   3.528   2.143   0.489 -0.3766 -0.7198 -0.1129
 7887SOL    HW124560   3.549   2.197   0.571  1.5524 -0.4936 -0.7128
 7887SOL    HW224561   3.532   2.046   0.511 -1.3266 -0.6696  0.3710
 7888SOL     OW24562   4.124   0.232   3.138  0.3655 -0.2791 -0.1564
 7888SOL    HW124563   4.119   0.313   3.080 -1.8160 -0.4836 -0.3118
 7888SOL    HW224564   4.137   0.151   3.081 -2.4649 -0.5612 -0.5244
 7889SOL     OW24565   3.150   5.772   1.299 -0.1387 -0.5367  0.0705
 7889SOL    HW124566   3.065   5.719   1.296 -1.1704  1.0655 -2.0757
 7889SOL    HW224567   3.221   5.724   1.248 -0.4311 -0.8465 -0.0519
 7890SOL     OW24568   1.452   2.873   1.461  0.6486 -0.2591 -0.0007
 7890SOL    HW124569   1.409   2.864   1.550 -2.0479 -1.4159 -1.2957
 7890SOL    HW224570   1.450   2.785   1.414 -1.6105  1.0434 -2.6451
 7891SOL     OW24571   1.798   4.514   1.238  0.3966  0.4701 -0.0988
 7891SOL    HW124572   1.865   4.574   1.195  1.0742 -0.5235 -0.4743
 7891SOL    HW224573   1.819   4.505   1.336 -0.3294  1.6507  0.1750
 7892SOL     OW24574   2.107   3.293   4.801 -0.5884  0.3539 -0.3354
 7892SOL    HW124575   2.133   3.281   4.897 -2.6374 -0.7208  0.1576
 7892SOL    HW224576   2.101   3.390   4.779  1.8831  0.6295 -0.0015
 7893SOL     OW24577   0.205   6.901   1.370  0.5150 -0.1813 -0.0352
 7893SOL    HW124578   0.129   6.865   1.424 -0.3802  1.6127  0.0043
 7893SOL    HW224579   0.292   6.874   1.411 -0.1286  0.3557  1.7747
 7894SOL     OW24580   4.285   6.616   1.986 -0.0555 -1.1097 -0.3576
 7894SOL    HW124581   4.300   6.689   1.920 -0.1510  1.4611  2.2682
 7894SOL    HW224582   4.187   6.607   2.005  0.0577 -0.8519  0.4033
 7895SOL     OW24583   0.462   1.106   4.470 -0.0315 -0.1051  0.2742
 7895SOL    HW124584   0.421   1.178   4.526  0.7321  0.2718  0.3634
 7895SOL    HW224585   0.559   1.126   4.457  0.0243 -0.7416 -0.3111
 7896SOL     OW24586   5.291   3.974   6.927  0.4429  0.4945 -1.0152
 7896SOL    HW124587   5.302   4.069   6.955  1.7231  0.0432  0.1396
 7896SOL    HW224588   5.289   3.915   7.008 -1.3335 -0.3984 -1.6493
 7897SOL     OW24589   2.172   3.478   6.166  0.1478  0.1258 -0.0831
 7897SOL    HW124590   2.079   3.495   6.200  0.1823  0.3284 -0.0927
 7897SOL    HW224591   2.167   3.418   6.086 -0.0220  0.6372 -0.4606
 7898SOL     OW24592   6.159   3.841   4.270 -0.3271  0.9348 -0.0300
 7898SOL    HW124593   6.163   3.780   4.349 -1.0913 -0.8034 -1.2660
 7898SOL    HW224594   6.071   3.889   4.269 -0.1418  1.2943  0.3797
 7899SOL     OW24595   0.348   1.397   0.921 -0.2369  0.3474  0.6524
 7899SOL    HW124596   0.425   1.381   0.859 -0.3543  1.2342  0.2703
 7899SOL    HW224597   0.373   1.466   0.989 -0.6329  0.5148  0.6310
 7900SOL     OW24598   1.616   4.619   0.902 -0.3857  0.0882 -0.4804
 7900SOL    HW124599   1.544   4.659   0.959 -0.8404 -0.8463 -0.3777
 7900SOL    HW224600   1.585   4.616   0.807 -0.4982 -0.3148 -0.4360
 7901SOL     OW24601   5.709   6.685   6.154 -0.0254 -0.1557 -0.1124
 7901SOL    HW124602   5.675   6.740   6.078 -0.6494 -0.6207 -0.1737
 7901SOL    HW224603   5.672   6.720   6.240  1.0076  0.6308  0.0439
 7902SOL     OW24604   6.343   4.567   4.123 -0.1217 -0.5276  0.1384
 7902SOL    HW124605   6.307   4.538   4.212 -0.9070  1.1070  0.3946
 7902SOL    HW224606   6.435   4.605   4.135  1.9157 -4.6822 -0.5136
 7903SOL     OW24607   6.289   1.024   0.574  0.5871  0.3243  0.0834
 7903SOL    HW124608   6.231   0.983   0.645 -0.1954  0.7329 -0.3093
 7903SOL    HW224609   6.354   1.087   0.617  1.8540 -1.3326  0.7009
 7904SOL     OW24610   6.131   0.773   2.770  0.6035 -0.3042  0.5784
 7904SOL    HW124611   6.124   0.732   2.861 -0.4523  1.6632  1.4600
 7904SOL    HW224612   6.199   0.846   2.771  1.0449 -0.6778 -0.4117
 7905SOL     OW24613   4.294   1.087   3.237  0.2936  0.1017  0.4933
 7905SOL    HW124614   4.326   1.044   3.153 -0.0198  1.9687 -0.6254
 7905SOL    HW224615   4.196   1.103   3.232  0.3346  0.5645  1.0683
 7906SOL     OW24616   5.897   5.794   6.936  0.0742 -0.5140 -0.8593
 7906SOL    HW124617   5.858   5.725   6.997 -0.8870  0.6651 -0.0946
 7906SOL    HW224618   5.996   5.797   6.948  0.0394 -1.2152 -0.3274
 7907SOL     OW24619   5.631   1.068   5.645 -0.2007  0.0432  0.0258
 7907SOL    HW124620   5.553   1.106   5.596 -0.6450 -1.3267 -0.3818
 7907SOL    HW224621   5.682   1.007   5.584  1.1890  0.8983  0.2903
 7908SOL     OW24622   6.821   0.433   4.624  0.4385  0.2548  0.0134
 7908SOL    HW124623   6.797   0.512   4.567 -0.0188  0.5083  0.5411
 7908SOL    HW224624   6.871   0.366   4.569 -0.5369  0.2074 -0.8596
 7909SOL     OW24625   4.890   2.967   5.585 -0.1703  0.5096 -0.3677
 7909SOL    HW124626   4.887   3.066   5.573  0.1774  0.3021 -2.6901
 7909SOL    HW224627   4.959   2.944   5.654 -0.7585  1.8669  0.7348
 7910SOL     OW24628   3.428   3.715   5.208  0.1103 -0.0491 -0.2589
 7910SOL    HW124629   3.403   3.667   5.124 -1.0016  0.0216  0.0119
 7910SOL    HW224630   3.527   3.714   5.219  0.2621 -0.0937 -1.5421
 7911SOL     OW24631   0.776   4.134   6.572  0.5363 -0.3405 -0.1528
 7911SOL    HW124632   0.708   4.170   6.636  0.2907 -0.6112 -0.2560
 7911SOL    HW224633   0.867   4.167   6.597  0.0809  2.3168 -1.6236
 7912SOL     OW24634   1.001   6.195   1.207  0.1240 -0.3736  0.0234
 7912SOL    HW124635   0.965   6.251   1.132 -1.6963 -0.1140  1.0310
 7912SOL    HW224636   1.078   6.141   1.174  0.2499  0.7544 -1.6641
 7913SOL     OW24637   2.837   4.679   0.068  0.6703 -0.3721 -0.4930
 7913SOL    HW124638   2.761   4.736   0.099 -0.0926 -1.8110  0.4327
 7913SOL    HW224639   2.911   4.683   0.135  0.4939 -0.6945 -0.2771
 7914SOL     OW24640   4.737   5.147   0.649 -0.3934 -0.6139 -0.3447
 7914SOL    HW124641   4.642   5.118   0.631  0.1591 -2.5336 -0.4186
 7914SOL    HW224642   4.776   5.087   0.719  1.1293 -0.5504 -1.1215
 7915SOL     OW24643   3.869   1.941   2.508 -0.0010 -0.4178 -0.4253
 7915SOL    HW124644   3.827   2.003   2.441 -0.2806 -0.4608 -0.2886
 7915SOL    HW224645   3.887   1.991   2.593 -1.8225 -0.9208  0.3131
 7916SOL     OW24646   4.854   3.286   4.476  0.3270 -0.0926 -0.4669
 7916SOL    HW124647   4.840   3.265   4.379  0.2374 -1.4164 -0.1837
 7916SOL    HW224648   4.768   3.321   4.515 -0.2633 -1.5730 -0.3822
 7917SOL     OW24649   3.048   3.844   3.918  0.2239 -0.2510  0.2972
 7917SOL    HW124650   3.061   3.761   3.973  1.0530  0.5067  1.2874
 7917SOL    HW224651   2.989   3.823   3.840 -0.8757 -1.4053  1.3758
 7918SOL     OW24652   6.324   2.193   0.325  0.0700 -0.2183  0.0625
 7918SOL    HW124653   6.250   2.164   0.386 -0.5302  0.4229 -0.3494
 7918SOL    HW224654   6.286   2.244   0.249  1.0872  1.7372  0.7993
 7919SOL     OW24655   5.881   5.276   3.014 -0.1242 -0.0563  0.4056
 7919SOL    HW124656   5.793   5.231   3.007 -0.2816  0.3289 -0.2119
 7919SOL    HW224657   5.869   5.366   3.056  0.0296 -0.1447  0.6425
 7920SOL     OW24658   5.399   4.886   6.290  0.4060  0.5999 -0.3450
 7920SOL    HW124659   5.432   4.875   6.384  0.7428 -0.2370 -0.5535
 7920SOL    HW224660   5.427   4.807   6.236 -3.0522 -0.9065 -0.1994
 7921SOL     OW24661   1.271   6.324   0.666  0.0176  0.6336 -0.1462
 7921SOL    HW124662   1.303   6.362   0.580  0.3922 -0.5687 -0.5525
 7921SOL    HW224663   1.337   6.345   0.738  0.7795 -0.1696 -0.5914
 7922SOL     OW24664   0.130   5.338   0.861  0.2274 -0.3941 -0.4589
 7922SOL    HW124665   0.055   5.288   0.905 -1.3154  1.7451 -0.4880
 7922SOL    HW224666   0.216   5.289   0.875 -0.6551 -1.3086  2.3263
 7923SOL     OW24667   7.004   2.242   3.002  0.0378  0.3660  0.0529
 7923SOL    HW124668   7.028   2.153   3.041 -2.2165 -0.8835 -1.1993
 7923SOL    HW224669   6.904   2.253   3.002 -0.0819  0.8870 -3.8838
 7924SOL     OW24670   2.233   6.462   2.206  0.6464 -0.2055 -0.0967
 7924SOL    HW124671   2.319   6.453   2.157  0.4731  2.4447 -1.0333
 7924SOL    HW224672   2.157   6.452   2.142  0.2838 -0.6069  0.3842
 7925SOL     OW24673   6.527   1.758   5.844  0.5322 -0.1679 -0.4842
 7925SOL    HW124674   6.582   1.815   5.905  0.1382 -0.0580 -0.2326
 7925SOL    HW224675   6.546   1.661   5.863  1.1978 -0.1247 -0.9093
 7926SOL     OW24676   3.110   1.019   2.922 -0.7012  0.1357  0.4063
 7926SOL    HW124677   3.063   0.954   2.862 -0.5897  0.7997 -0.4169
 7926SOL    HW224678   3.060   1.106   2.923 -0.0580  0.5178  0.3225
 7927SOL     OW24679   4.142   5.391   5.803 -0.0102  0.3697 -0.1947
 7927SOL    HW124680   4.120   5.349   5.891 -1.0844  1.9504  0.3590
 7927SOL    HW224681   4.234   5.430   5.806  0.0988  0.0882  0.0964
 7928SOL     OW24682   0.407   4.510   3.152  0.2053  0.0456 -0.2109
 7928SOL    HW124683   0.449   4.574   3.217  0.9757 -1.6865  1.0742
 7928SOL    HW224684   0.393   4.422   3.197  1.0570 -1.3329 -2.4723
 7929SOL     OW24685   4.032   3.901   5.136  0.4043 -0.2629 -0.3573
 7929SOL    HW124686   3.988   3.902   5.046  1.7506 -0.0032 -1.0392
 7929SOL    HW224687   4.048   3.995   5.166  1.8723 -0.3183 -0.8526
 7930SOL     OW24688   4.980   6.609   3.412  0.4859  0.0987  0.0413
 7930SOL    HW124689   5.024   6.520   3.417  0.9197  0.3050 -0.0860
 7930SOL    HW224690   5.015   6.660   3.334  0.3652  0.4459  0.2092
 7931SOL     OW24691   1.376   0.830   1.008 -0.0511 -0.1938  0.1023
 7931SOL    HW124692   1.391   0.926   0.982 -0.5602  0.2287  1.2576
 7931SOL    HW224693   1.448   0.801   1.071  0.8924 -1.0350 -1.3329
 7932SOL     OW24694   3.736   0.276   6.679 -0.0248  0.1081  0.5929
 7932SOL    HW124695   3.805   0.343   6.707 -0.3286 -0.8193  4.1088
 7932SOL    HW224696   3.645   0.311   6.699 -0.4990  0.3508 -1.7595
 7933SOL     OW24697   0.136   4.926   6.596 -0.0704 -0.1609  0.3317
 7933SOL    HW124698   0.073   5.000   6.620 -1.5292 -1.4151  0.5228
 7933SOL    HW224699   0.149   4.924   6.497  1.8380  1.7627  0.4740
 7934SOL     OW24700   3.736   3.977   1.345  0.5571 -0.1045 -0.3571
 7934SOL    HW124701   3.831   3.971   1.376  0.5801  4.6456  1.3949
 7934SOL    HW224702   3.679   4.011   1.420 -2.2737 -1.2632 -1.8495
 7935SOL     OW24703   6.611   5.667   5.218 -0.1443 -0.3617  0.2771
 7935SOL    HW124704   6.541   5.657   5.148 -0.0406  0.4167  0.0571
 7935SOL    HW224705   6.651   5.759   5.213  1.0515 -0.8700  0.2425
 7936SOL     OW24706   4.920   6.113   3.732 -0.2260 -0.5656  0.0295
 7936SOL    HW124707   4.877   6.132   3.644 -0.6414 -2.3613 -0.1954
 7936SOL    HW224708   4.914   6.194   3.791 -2.7188 -0.3150 -0.4732
 7937SOL     OW24709   4.899   6.908   4.881  0.2085 -0.0918 -0.1256
 7937SOL    HW124710   4.889   7.001   4.845  0.4064 -0.4020 -1.0243
 7937SOL    HW224711   4.917   6.846   4.805  2.0423 -0.5791  0.6671
 7938SOL     OW24712   3.792   4.074   5.462 -0.1419  0.5367  0.1613
 7938SOL    HW124713   3.783   4.146   5.394 -1.7973 -0.3817 -0.6322
 7938SOL    HW224714   3.868   4.014   5.437 -2.4171 -1.4659 -2.5842
 7939SOL     OW24715   6.824   1.369   6.573 -0.1458 -0.3664  0.5444
 7939SOL    HW124716   6.810   1.353   6.475 -0.6508  0.4964  0.4680
 7939SOL    HW224717   6.803   1.464   6.595 -1.2131 -0.8272  1.6939
 7940SOL     OW24718   2.966   4.178   1.476  0.5272  0.6323 -0.2102
 7940SOL    HW124719   2.996   4.210   1.566  1.9555 -0.3790 -0.2959
 7940SOL    HW224720   3.026   4.215   1.405 -1.7855  3.0986 -1.0437
 7941SOL     OW24721   6.362   0.263   1.774  0.1725  0.1343  0.5243
 7941SOL    HW124722   6.378   0.269   1.873  0.5567 -0.8357  0.5272
 7941SOL    HW224723   6.442   0.296   1.725  0.9099 -1.5069  0.5505
 7942SOL     OW24724   2.565   0.428   3.394 -0.4603  0.2485 -0.1958
 7942SOL    HW124725   2.544   0.492   3.320  0.4548  1.2804  0.4112
 7942SOL    HW224726   2.486   0.421   3.456  0.1262  2.4387  0.8906
 7943SOL     OW24727   6.116   3.459   0.734 -0.4572 -0.5465 -0.3833
 7943SOL    HW124728   6.022   3.466   0.701 -0.7687 -0.1638  0.5461
 7943SOL    HW224729   6.175   3.517   0.678 -1.0103  0.2582 -0.1659
 7944SOL     OW24730   1.640   4.360   0.785 -0.0064  0.0398 -0.2834
 7944SOL    HW124731   1.612   4.450   0.817  0.5154  0.9630 -2.2978
 7944SOL    HW224732   1.688   4.368   0.698 -1.7350 -2.3374 -1.5853
 7945SOL     OW24733   6.078   0.304   1.739 -0.0190 -1.0524 -0.2859
 7945SOL    HW124734   6.167   0.350   1.733  0.6417 -2.3747 -1.1270
 7945SOL    HW224735   6.075   0.247   1.821 -0.4672 -0.2691  0.2478
 7946SOL     OW24736   0.802   3.081   5.748 -0.5339 -0.2732  0.3200
 7946SOL    HW124737   0.851   3.076   5.662 -2.1271 -2.0850 -0.5682
 7946SOL    HW224738   0.847   3.147   5.809  0.5104  1.2262 -1.9334
 7947SOL     OW24739   3.716   2.650   0.920 -0.1076  0.2374  0.0326
 7947SOL    HW124740   3.693   2.555   0.940 -1.2968  0.2348 -1.1396
 7947SOL    HW224741   3.737   2.698   1.005  0.1797 -0.9730  0.6785
 7948SOL     OW24742   5.349   0.027   6.677  0.4726 -0.0591 -0.1338
 7948SOL    HW124743   5.358  -0.031   6.757  1.7657 -2.1508 -1.6874
 7948SOL    HW224744   5.255   0.023   6.642  0.5185 -1.1850 -0.1579
 7949SOL     OW24745   6.101   4.675   4.044 -0.7066 -0.4803 -0.5886
 7949SOL    HW124746   6.184   4.643   4.089 -1.8561 -0.3403  1.7405
 7949SOL    HW224747   6.048   4.596   4.012 -0.7713 -0.6681 -0.0257
 7950SOL     OW24748   4.841   3.812   3.816  0.1993  0.1332 -0.0042
 7950SOL    HW124749   4.799   3.745   3.877 -0.8761  0.5305 -0.2823
 7950SOL    HW224750   4.928   3.842   3.854  0.4621 -1.0558  0.3628
 7951SOL     OW24751   2.963   3.832   1.535 -0.3223 -0.5582  0.2166
 7951SOL    HW124752   2.954   3.932   1.536 -0.4017 -0.5442  1.9849
 7951SOL    HW224753   2.873   3.790   1.546 -0.1886 -0.8010  0.3971
 7952SOL     OW24754   6.712   1.974   6.916 -0.1575 -0.1652  0.1106
 7952SOL    HW124755   6.767   1.994   6.835 -1.1786 -0.3277 -0.6346
 7952SOL    HW224756   6.748   1.893   6.962  0.8963  0.3797  0.2636
 7953SOL     OW24757   0.789   3.092   4.270 -0.1890 -0.1648  0.1149
 7953SOL    HW124758   0.763   3.105   4.174  0.0608  1.2222  0.2137
 7953SOL    HW224759   0.713   3.121   4.328  0.6792  1.8030  0.3614
 7954SOL     OW24760   4.516   4.449   3.404  0.0612 -0.1850  0.1884
 7954SOL    HW124761   4.432   4.495   3.430 -0.2916 -0.5306 -0.3210
 7954SOL    HW224762   4.526   4.450   3.304  0.9306  0.3239  0.2641
 7955SOL     OW24763   6.044   0.441   6.954 -0.4918 -0.3368  0.0744
 7955SOL    HW124764   6.015   0.502   7.028  0.7617 -1.7851  1.8783
 7955SOL    HW224765   6.122   0.482   6.906 -1.8782  1.0209 -1.0929
 7956SOL     OW24766   1.618   5.699   2.944  0.4111 -0.0445 -0.7947
 7956SOL    HW124767   1.696   5.737   2.895  0.0271 -0.0494 -1.4226
 7956SOL    HW224768   1.595   5.757   3.023  0.7290  0.2266 -0.9037
 7957SOL     OW24769   1.458   2.407   6.498 -0.3318 -0.2705  0.4692
 7957SOL    HW124770   1.459   2.316   6.538 -1.8582  0.2591  1.8097
 7957SOL    HW224771   1.446   2.476   6.570  1.8782  1.1271 -0.3553
 7958SOL     OW24772   3.901   6.200   3.769 -0.1574 -0.1941 -0.4638
 7958SOL    HW124773   3.925   6.163   3.679 -0.4838 -2.1718  0.1955
 7958SOL    HW224774   3.966   6.165   3.837 -1.5134 -0.9905  0.4638
 7959SOL     OW24775   4.487   3.040   1.324  0.2083  0.1977 -0.7852
 7959SOL    HW124776   4.397   3.063   1.361 -0.8644 -0.5697 -2.7672
 7959SOL    HW224777   4.522   3.118   1.272  0.5743  0.3993 -0.2414
 7960SOL     OW24778   5.130   1.394   1.470  0.8868  0.1064  0.3400
 7960SOL    HW124779   5.180   1.478   1.491  0.7097  0.3255 -0.0869
 7960SOL    HW224780   5.032   1.412   1.470  0.7928 -0.3752  1.3943
 7961SOL     OW24781   2.652   0.648   0.135  0.5235 -0.2946 -0.0377
 7961SOL    HW124782   2.654   0.656   0.235  1.4781 -0.4332 -0.0353
 7961SOL    HW224783   2.559   0.627   0.105  0.2797 -0.5239  0.8482
 7962SOL     OW24784   2.829   0.171   2.128 -0.0497 -0.1856  0.0779
 7962SOL    HW124785   2.839   0.178   2.028 -0.4970 -1.0845 -0.0491
 7962SOL    HW224786   2.849   0.077   2.156  3.3111  0.7778  1.2753
 7963SOL     OW24787   5.077   2.064   5.058 -0.3241 -0.0851 -0.0181
 7963SOL    HW124788   5.084   1.984   4.998 -1.9064 -1.2362  1.2534
 7963SOL    HW224789   5.161   2.117   5.052 -0.5207  0.0766 -3.4961
 7964SOL     OW24790   5.094   4.097   3.077  0.1072  0.4810  0.1112
 7964SOL    HW124791   5.027   4.154   3.127 -0.4625 -1.2682  1.4589
 7964SOL    HW224792   5.056   4.006   3.063  1.8416 -0.2680  0.0239
 7965SOL     OW24793   3.433   3.370   6.486 -0.2814 -0.0376  0.1233
 7965SOL    HW124794   3.482   3.444   6.440 -0.7125 -0.0455 -0.3530
 7965SOL    HW224795   3.485   3.285   6.478 -0.7078 -0.2066 -1.0151
 7966SOL     OW24796   0.319   4.416   3.925  0.7052 -0.6130 -0.1238
 7966SOL    HW124797   0.280   4.419   3.833  0.1499  0.6827  0.1336
 7966SOL    HW224798   0.382   4.339   3.931  0.6388 -0.8165 -1.5415
 7967SOL     OW24799   2.459   7.007   4.000  0.0717  0.2181  0.0708
 7967SOL    HW124800   2.553   7.015   4.032  0.2258 -1.6384  0.1764
 7967SOL    HW224801   2.457   7.004   3.900  0.4954 -2.8970  0.0751
 7968SOL     OW24802   1.771   2.774   2.838  0.1533 -0.0260  0.5315
 7968SOL    HW124803   1.697   2.743   2.897  0.6389 -0.0384  1.1365
 7968SOL    HW224804   1.737   2.845   2.776 -0.2814  0.2091  1.0356
 7969SOL     OW24805   3.640   6.522   2.061  0.6481 -0.5406  0.1292
 7969SOL    HW124806   3.665   6.498   1.967 -2.0051  1.4777 -1.2154
 7969SOL    HW224807   3.713   6.576   2.102  1.6266 -1.0086 -0.9326
 7970SOL     OW24808   0.676   3.282   3.499  0.0757 -0.4459 -0.2535
 7970SOL    HW124809   0.746   3.211   3.512 -0.1122 -0.7309 -0.7598
 7970SOL    HW224810   0.717   3.361   3.454  0.7208  0.5296  1.8957
 7971SOL     OW24811   2.522   6.864   3.058  0.2931 -0.4299 -0.2820
 7971SOL    HW124812   2.525   6.950   3.108  1.7815 -1.8565  2.2838
 7971SOL    HW224813   2.507   6.882   2.961 -0.3835  2.6177  0.2953
 7972SOL     OW24814   6.344   2.877   1.197 -0.6487 -0.3010  0.2589
 7972SOL    HW124815   6.327   2.974   1.180 -1.2505 -0.4735 -0.1464
 7972SOL    HW224816   6.440   2.863   1.222  0.1033  0.0765 -2.2129
 7973SOL     OW24817   5.083   1.931   3.143 -0.0452 -0.3031  0.4206
 7973SOL    HW124818   5.141   1.944   3.223  1.5223 -0.9450 -0.5717
 7973SOL    HW224819   5.061   1.834   3.133 -0.2622 -0.2212  0.0817
 7974SOL     OW24820   6.796   1.182   3.356  0.4231 -0.1713  0.6154
 7974SOL    HW124821   6.777   1.118   3.430  0.9448 -0.5731  0.4102
 7974SOL    HW224822   6.895   1.189   3.342  0.3058 -0.8683 -0.6976
 7975SOL     OW24823   5.718   2.590   4.765 -0.5392 -0.1948 -0.1072
 7975SOL    HW124824   5.785   2.664   4.769 -0.8598  0.0382  2.0725
 7975SOL    HW224825   5.653   2.609   4.691  1.1620  0.0866 -1.5978
 7976SOL     OW24826   0.855   6.499   5.208 -0.1058  0.6764 -0.0364
 7976SOL    HW124827   0.906   6.472   5.126  1.5881  1.9904  0.5231
 7976SOL    HW224828   0.797   6.578   5.186  1.0929  1.6622  0.2086
 7977SOL     OW24829   5.616   6.345   2.786 -0.6402  0.1972  0.1327
 7977SOL    HW124830   5.526   6.339   2.743 -0.3138 -1.8161 -0.3578
 7977SOL    HW224831   5.623   6.278   2.860  1.0186 -0.9156 -0.9673
 7978SOL     OW24832   5.533   4.353   1.279 -0.2011  0.3161 -0.3933
 7978SOL    HW124833   5.466   4.376   1.350  0.6986  1.7259  0.0352
 7978SOL    HW224834   5.590   4.277   1.310 -0.2149  0.5204  0.1371
 7979SOL     OW24835   3.079   4.616   6.008  0.5138  0.2119 -0.2405
 7979SOL    HW124836   3.092   4.688   5.940 -0.4141  0.3805 -0.2521
 7979SOL    HW224837   3.130   4.535   5.980 -1.0624 -0.2763 -2.0063
 7980SOL     OW24838   5.369   4.847   1.187 -0.0418  0.4710 -0.2918
 7980SOL    HW124839   5.362   4.922   1.121  1.4320  1.0037  0.1242
 7980SOL    HW224840   5.463   4.814   1.190 -0.7240 -1.6326 -0.6926
 7981SOL     OW24841   1.898   3.465   0.013  0.2067  0.0392 -0.7298
 7981SOL    HW124842   1.882   3.561  -0.008 -0.1672  0.0194 -0.5434
 7981SOL    HW224843   1.964   3.457   0.087 -0.2480  0.1752 -0.3009
 7982SOL     OW24844   6.404   2.457   0.965 -0.1890 -0.3593 -0.0416
 7982SOL    HW124845   6.474   2.511   1.012 -0.8363  0.5490 -0.0962
 7982SOL    HW224846   6.362   2.513   0.894 -0.6048 -1.0790 -0.3735
 7983SOL     OW24847   4.333   1.934   2.831 -0.7413 -0.1168 -0.7696
 7983SOL    HW124848   4.310   2.013   2.774  1.5957  1.2062 -0.0258
 7983SOL    HW224849   4.373   1.966   2.917  0.3944 -2.1279 -0.5006
 7984SOL     OW24850   1.850   1.293   2.335  0.0726  0.3019  0.5178
 7984SOL    HW124851   1.790   1.373   2.333  0.5394  0.6605  0.6353
 7984SOL    HW224852   1.805   1.217   2.289  0.1236  0.9938 -0.7184
 7985SOL     OW24853   1.147   6.959   3.980 -0.3464 -0.1505  0.2324
 7985SOL    HW124854   1.209   7.018   4.032 -0.0203 -0.3673  0.0885
 7985SOL    HW224855   1.193   6.926   3.898 -0.2882 -1.1497  0.6502
 7986SOL     OW24856   4.047   1.091   0.264 -0.1139 -0.5322  0.1699
 7986SOL    HW124857   3.953   1.101   0.297 -0.6674 -1.1184 -1.1399
 7986SOL    HW224858   4.050   1.020   0.193  1.2925 -0.3998  0.0654
 7987SOL     OW24859   5.918   3.945   5.551  0.1287  0.2598 -0.1082
 7987SOL    HW124860   5.916   3.852   5.515 -0.8412 -0.3922  1.5185
 7987SOL    HW224861   6.010   3.966   5.585  0.2040 -0.3459  0.0798
 7988SOL     OW24862   2.867   2.732   6.029  0.7061 -0.3553 -0.5603
 7988SOL    HW124863   2.889   2.636   6.011 -0.0363 -0.9459  1.3931
 7988SOL    HW224864   2.770   2.749   6.009  0.7115 -0.1542 -0.4245
 7989SOL     OW24865   2.714   3.207   5.295 -0.2028 -0.1299  0.1940
 7989SOL    HW124866   2.736   3.169   5.385 -1.7283  0.0832  0.6910
 7989SOL    HW224867   2.637   3.157   5.255  0.2027  0.0364 -0.8173
 7990SOL     OW24868   1.762   2.242   3.143  0.5048  0.0274 -0.5787
 7990SOL    HW124869   1.667   2.260   3.121 -0.3632 -2.5225  0.6770
 7990SOL    HW224870   1.786   2.285   3.230  0.2824  0.1227 -0.5662
 7991SOL     OW24871   0.370   1.439   0.143  0.2775  0.5192  0.2380
 7991SOL    HW124872   0.316   1.368   0.187  0.7565 -0.5193 -0.8009
 7991SOL    HW224873   0.378   1.420   0.045  4.5955 -0.8352  0.6255
 7992SOL     OW24874   2.233   0.025   0.239 -0.5591  0.5492 -0.4503
 7992SOL    HW124875   2.159  -0.037   0.265 -1.3463  1.1583 -1.1715
 7992SOL    HW224876   2.250   0.017   0.141  1.1036 -0.3723 -0.1198
 7993SOL     OW24877   3.295   6.822   5.446  0.0633 -0.2308  0.2619
 7993SOL    HW124878   3.309   6.908   5.398 -0.3459 -0.9659 -1.2257
 7993SOL    HW224879   3.253   6.756   5.384  0.5041 -1.5465  1.3266
 7994SOL     OW24880   4.351   6.317   3.574 -0.5383  0.1903 -0.1105
 7994SOL    HW124881   4.323   6.236   3.522 -0.8773 -0.3846  0.9507
 7994SOL    HW224882   4.389   6.290   3.662 -1.4904  1.2131  0.6527
 7995SOL     OW24883   2.845   6.791   3.760 -0.0492  0.1015 -0.7003
 7995SOL    HW124884   2.925   6.737   3.788 -0.6789 -0.0490  0.9105
 7995SOL    HW224885   2.840   6.794   3.660  0.8729 -1.5346 -0.8298
 7996SOL     OW24886   4.311   1.345   3.345 -0.5835 -0.3094 -0.6947
 7996SOL    HW124887   4.323   1.279   3.271  0.1710 -1.6186  0.5469
 7996SOL    HW224888   4.213   1.359   3.361 -0.9149 -3.4039  0.8700
 7997SOL     OW24889   6.225   1.700   0.882 -0.5018 -0.2035  0.2843
 7997SOL    HW124890   6.222   1.679   0.784  2.1406  0.1361  0.0722
 7997SOL    HW224891   6.255   1.794   0.895 -1.0569 -0.1696  1.4603
 7998SOL     OW24892   3.534   3.935   5.499 -0.3990  0.0248  0.2870
 7998SOL    HW124893   3.606   4.000   5.475 -0.8115  0.3831  0.0041
 7998SOL    HW224894   3.465   3.933   5.426  0.5287 -2.1133 -0.5885
 7999SOL     OW24895   1.306   0.334   5.948 -1.2198 -0.5354  0.3924
 7999SOL    HW124896   1.392   0.358   5.992 -1.5207  0.4416  0.4688
 7999SOL    HW224897   1.322   0.261   5.882 -0.3341 -0.3591  0.3992
 8000SOL     OW24898   6.026   0.943   5.914 -0.0323  0.3752 -0.7268
 8000SOL    HW124899   5.983   1.008   5.851 -2.7883 -0.5053  0.0708
 8000SOL    HW224900   5.992   0.959   6.007 -0.1566 -1.6279 -0.3742
 8001SOL     OW24901   3.376   5.476   2.243 -0.0135 -0.4857 -0.1409
 8001SOL    HW124902   3.381   5.523   2.331  1.1670  2.1402 -1.5130
 8001SOL    HW224903   3.450   5.409   2.237  0.5532  0.0629  0.4792
 8002SOL     OW24904   6.576   1.354   5.670 -0.2217  0.2111  0.0814
 8002SOL    HW124905   6.560   1.258   5.646  1.4007 -0.9170  2.9446
 8002SOL    HW224906   6.648   1.391   5.611 -1.0577 -0.1849 -1.2415
 8003SOL     OW24907   0.871   3.081   3.525 -0.4686 -0.0484  0.3178
 8003SOL    HW124908   0.962   3.102   3.561  0.0515 -0.1259 -0.9028
 8003SOL    HW224909   0.863   2.983   3.511 -0.5432  0.0077 -0.0546
 8004SOL     OW24910   1.003   5.883   1.791  0.1374  0.1207  0.2329
 8004SOL    HW124911   1.044   5.794   1.772  0.4560  0.3634 -0.2326
 8004SOL    HW224912   1.059   5.955   1.751 -0.4484  0.4939  0.0594
 8005SOL     OW24913   2.341   1.004   1.862 -0.1086  0.3616 -0.4597
 8005SOL    HW124914   2.409   1.024   1.933  2.0369  0.6675 -2.4685
 8005SOL    HW224915   2.365   0.918   1.817 -1.6429 -0.0193 -0.6074
 8006SOL     OW24916   3.481   6.589   1.054  0.4576 -0.2432  0.1582
 8006SOL    HW124917   3.474   6.610   1.152  1.1741  0.9508 -0.0357
 8006SOL    HW224918   3.480   6.490   1.042  1.3059 -0.4383  1.4644
 8007SOL     OW24919   0.656   2.045   4.999  0.3008  0.5358  0.3133
 8007SOL    HW124920   0.631   2.131   5.045 -0.9264 -0.7377  2.1578
 8007SOL    HW224921   0.611   1.969   5.044  0.9234 -1.0718 -1.6313
 8008SOL     OW24922   4.955   5.704   5.775  0.0736  0.0335  0.8125
 8008SOL    HW124923   5.020   5.735   5.844  0.5249 -0.8686  0.8039
 8008SOL    HW224924   4.870   5.755   5.785  0.8588  1.4312  0.6485
 8009SOL     OW24925   6.153   0.580   2.974  0.0722 -0.4603  0.3113
 8009SOL    HW124926   6.147   0.550   3.069  0.6370 -0.9430  0.1985
 8009SOL    HW224927   6.146   0.500   2.914 -0.0231 -0.1846 -0.0476
 8010SOL     OW24928   1.805   2.399   6.679 -0.4802  0.2390  0.2082
 8010SOL    HW124929   1.898   2.432   6.660 -0.8049  1.2420  0.3302
 8010SOL    HW224930   1.741   2.476   6.679 -1.5327 -0.5850 -1.1007
 8011SOL     OW24931   1.414   2.252   1.869  0.5964 -0.1351  0.3930
 8011SOL    HW124932   1.478   2.316   1.910  0.1928 -0.2006  1.1514
 8011SOL    HW224933   1.409   2.169   1.925  0.0021 -0.2136  0.2352
 8012SOL     OW24934   2.091   6.824   0.621  0.2738  0.5282 -0.2893
 8012SOL    HW124935   2.153   6.793   0.549 -0.2036  0.6444 -0.7552
 8012SOL    HW224936   2.089   6.923   0.624  0.4658  0.5251  0.0401
 8013SOL     OW24937   5.479   5.217   4.496 -0.7306 -0.0657  0.3111
 8013SOL    HW124938   5.526   5.129   4.491  0.4390  0.5992 -2.0961
 8013SOL    HW224939   5.385   5.203   4.524 -0.7334 -2.1755 -0.5489
 8014SOL     OW24940   0.757   6.754   5.142  0.0183 -0.0317  0.1381
 8014SOL    HW124941   0.730   6.789   5.052  0.2142  1.6312  0.6803
 8014SOL    HW224942   0.732   6.822   5.212 -1.0213 -1.7010  1.4684
 8015SOL     OW24943   1.352   2.965   6.514  0.2829 -0.5579  0.0416
 8015SOL    HW124944   1.277   2.970   6.449  0.4837 -0.2334 -0.1689
 8015SOL    HW224945   1.439   2.982   6.466  0.3566  0.5650  0.5406
 8016SOL     OW24946   4.757   5.602   0.181  0.3772  0.1400  0.1194
 8016SOL    HW124947   4.676   5.641   0.136 -0.2296 -0.2452  0.8603
 8016SOL    HW224948   4.817   5.676   0.211 -0.4234  0.4924  0.8910
 8017SOL     OW24949   2.081   5.933   0.739  0.4382  0.0644 -0.2583
 8017SOL    HW124950   2.109   5.838   0.724  1.0080 -0.3920  2.9277
 8017SOL    HW224951   1.982   5.936   0.756  0.3755  0.0783 -0.6263
 8018SOL     OW24952   3.135   1.798   5.965  0.1307  0.1205  0.4151
 8018SOL    HW124953   3.190   1.850   6.030 -0.3113 -1.3595  2.0389
 8018SOL    HW224954   3.069   1.859   5.921  1.4655  1.4505  0.1702
 8019SOL     OW24955   2.053   3.604   5.862 -0.2318 -0.1841 -0.2409
 8019SOL    HW124956   2.072   3.523   5.918  2.3359 -0.6364 -1.5663
 8019SOL    HW224957   2.027   3.680   5.920 -1.9778 -1.7331  1.1175
 8020SOL     OW24958   6.354   6.993   5.810 -0.2179 -0.1831 -0.0200
 8020SOL    HW124959   6.409   6.910   5.822 -0.1916 -0.3546 -1.2009
 8020SOL    HW224960   6.373   7.033   5.720  0.5705  1.7206  0.9319
 8021SOL     OW24961   1.509   1.699   2.672  0.1854  0.3610 -0.0112
 8021SOL    HW124962   1.492   1.617   2.727  1.5058  1.0489  1.5040
 8021SOL    HW224963   1.422   1.744   2.652 -0.3726 -0.0147  1.4093
 8022SOL     OW24964   4.430   0.776   0.331  0.2176 -0.2511 -0.0563
 8022SOL    HW124965   4.341   0.733   0.340  0.3880 -0.8840 -1.1826
 8022SOL    HW224966   4.478   0.738   0.252  0.7728  1.3383 -0.5250
 8023SOL     OW24967   5.381   5.234   2.010  0.4148 -0.4010 -0.0761
 8023SOL    HW124968   5.381   5.327   2.047  0.1622  0.3830 -1.8872
 8023SOL    HW224969   5.296   5.218   1.961  1.0145 -1.0844 -0.9394
 8024SOL     OW24970   3.572   6.581   6.665 -0.0895  0.1071  0.2857
 8024SOL    HW124971   3.625   6.514   6.614 -0.4432  0.8135 -1.0457
 8024SOL    HW224972   3.474   6.560   6.657 -0.1003 -1.1885  2.7235
 8025SOL     OW24973   3.923   5.486   4.818 -0.1260  0.5518 -0.2107
 8025SOL    HW124974   3.891   5.448   4.732 -1.4740  1.0813  0.0372
 8025SOL    HW224975   3.890   5.429   4.894 -1.2757  1.5869  0.1010
 8026SOL     OW24976   5.881   3.854   0.076  0.4413  0.7524 -0.5276
 8026SOL    HW124977   5.932   3.804   0.005 -1.5120 -1.2524 -0.6486
 8026SOL    HW224978   5.900   3.814   0.165 -0.6900  0.1491 -0.5453
 8027SOL     OW24979   4.372   2.139   6.192  0.7995 -0.0028 -0.1854
 8027SOL    HW124980   4.326   2.172   6.109 -2.0608 -0.6568  1.0296
 8027SOL    HW224981   4.376   2.213   6.259 -0.2332 -0.4358  0.3790
 8028SOL     OW24982   5.318   3.651   5.910 -0.0182 -0.5631  0.0425
 8028SOL    HW124983   5.316   3.570   5.852  0.1381  0.5874 -1.6659
 8028SOL    HW224984   5.256   3.639   5.988 -1.5524 -1.5493 -1.2714
 8029SOL     OW24985   6.430   6.570   5.756  0.8106  0.0041 -0.3730
 8029SOL    HW124986   6.343   6.569   5.707  0.9489  1.1106 -0.6726
 8029SOL    HW224987   6.466   6.664   5.759  1.3063 -0.2028  0.9582
 8030SOL     OW24988   6.742   5.163   5.361  0.3936  0.4956  0.1027
 8030SOL    HW124989   6.691   5.092   5.409  1.2799 -0.1391  0.1400
 8030SOL    HW224990   6.782   5.226   5.427  1.9700 -0.6205  0.2885
 8031SOL     OW24991   5.356   5.453   2.673  0.0169 -0.0686 -0.5620
 8031SOL    HW124992   5.438   5.425   2.724 -0.6082  3.1555  2.5987
 8031SOL    HW224993   5.275   5.414   2.716 -0.3733 -0.0822 -1.2840
 8032SOL     OW24994   6.022   2.942   6.749 -0.4444 -0.5916 -0.0416
 8032SOL    HW124995   6.076   2.992   6.682  0.7891 -2.4085 -0.4979
 8032SOL    HW224996   5.945   2.897   6.703 -0.6274 -0.4163  0.0887
 8033SOL     OW24997   6.716   2.917   1.206 -0.1268  0.5215 -0.4418
 8033SOL    HW124998   6.767   2.865   1.138 -0.5627  0.2166 -0.5459
 8033SOL    HW224999   6.666   2.991   1.160  1.1847  1.6063 -0.1843
 8034SOL     OW25000   5.997   0.679   5.287 -0.5541 -0.1939 -0.4795
 8034SOL    HW125001   6.069   0.695   5.220 -0.5035  1.9522  0.0116
 8034SOL    HW225002   5.908   0.680   5.242 -0.5570  1.7276 -0.5021
 8035SOL     OW25003   5.581   0.234   4.560  0.9417 -0.0992  0.3683
 8035SOL    HW125004   5.610   0.180   4.481 -0.5395 -1.5930  0.7981
 8035SOL    HW225005   5.550   0.324   4.529  1.5692 -0.1978 -0.5982
 8036SOL     OW25006   1.148   3.353   3.184 -0.1996  0.6600  0.6338
 8036SOL    HW125007   1.206   3.317   3.111 -1.0550 -0.8197  0.6561
 8036SOL    HW225008   1.197   3.425   3.233  0.5528  1.3961 -1.1119
 8037SOL     OW25009   1.368   3.454   1.290 -0.0208 -0.5172  0.4759
 8037SOL    HW125010   1.295   3.506   1.245 -1.1125 -1.2418  1.3501
 8037SOL    HW225011   1.442   3.516   1.316 -0.0645  0.1469 -0.9063
 8038SOL     OW25012   5.127   1.556   2.213 -0.0521  0.2318  0.3193
 8038SOL    HW125013   5.135   1.593   2.120  1.3640  2.8354  1.3958
 8038SOL    HW225014   5.030   1.537   2.232 -0.2572 -1.7298 -2.0922
 8039SOL     OW25015   1.722   6.536   3.290 -0.6380  0.4417 -0.4941
 8039SOL    HW125016   1.772   6.621   3.276 -2.9386  1.9459 -0.2009
 8039SOL    HW225017   1.718   6.515   3.387  0.1305 -0.1385 -0.5862
 8040SOL     OW25018   0.634   6.014   0.777 -0.7920 -0.1830 -0.2477
 8040SOL    HW125019   0.711   6.055   0.728  0.6493 -1.5253  0.7638
 8040SOL    HW225020   0.617   6.065   0.861  1.0287 -1.5053  1.0319
 8041SOL     OW25021   4.311   1.233   1.531 -0.3682 -0.3354 -0.8770
 8041SOL    HW125022   4.231   1.226   1.471 -2.2469 -0.0691  1.4857
 8041SOL    HW225023   4.366   1.312   1.503 -1.8756  0.5487 -1.4670
 8042SOL     OW25024   3.928   2.046   1.635  0.1041 -0.1936  0.3676
 8042SOL    HW125025   3.853   2.051   1.700  0.1454 -1.8405  0.5949
 8042SOL    HW225026   4.011   2.017   1.683  0.5203  0.1331 -0.1489
 8043SOL     OW25027   3.979   1.065   6.497 -0.9354 -0.2835 -0.0997
 8043SOL    HW125028   3.954   1.130   6.426 -0.2440 -3.3396 -3.4116
 8043SOL    HW225029   4.074   1.036   6.485 -1.8670 -3.6579 -0.4047
 8044SOL     OW25030   4.027   0.854   1.003 -0.3023  0.4270  0.8172
 8044SOL    HW125031   3.945   0.803   1.028  0.2653 -0.0673  1.7211
 8044SOL    HW225032   4.001   0.946   0.973 -1.1501  0.5162  1.7666
 8045SOL     OW25033   4.022   1.401   3.070  0.2137 -0.7670 -0.0038
 8045SOL    HW125034   4.071   1.451   3.142  0.8871 -0.6641 -0.5308
 8045SOL    HW225035   4.087   1.365   3.004 -0.4742  0.1717 -1.2297
 8046SOL     OW25036   5.206   3.803   5.719 -0.0579 -0.3417  0.2255
 8046SOL    HW125037   5.247   3.767   5.804  0.4375  1.7497  0.9168
 8046SOL    HW225038   5.181   3.899   5.732 -2.0758 -0.6001 -1.3049
 8047SOL     OW25039   3.131   4.900   5.488  0.1628 -0.1103  0.4604
 8047SOL    HW125040   3.037   4.935   5.479 -0.2615 -1.0917  0.8917
 8047SOL    HW225041   3.194   4.977   5.493 -0.3554  0.5768 -2.1321
 8048SOL     OW25042   5.320   0.908   5.679  0.3530  0.1696 -0.2988
 8048SOL    HW125043   5.254   0.949   5.742  0.2953  1.5623 -1.2143
 8048SOL    HW225044   5.349   0.976   5.612  1.4072 -0.9074 -0.9850
 8049SOL     OW25045   6.063   0.121   3.081  0.0820 -0.4950 -0.2175
 8049SOL    HW125046   6.067   0.101   2.983 -0.1716 -0.2424 -0.2806
 8049SOL    HW225047   6.155   0.117   3.119  0.2928  0.2245 -0.6310
 8050SOL     OW25048   1.433   4.316   1.752 -0.6387  0.4136 -0.3994
 8050SOL    HW125049   1.334   4.323   1.762 -0.6081  3.4131 -1.1018
 8050SOL    HW225050   1.475   4.309   1.843 -1.4616 -1.7479 -0.1291
 8051SOL     OW25051   5.071   0.699   3.505 -0.0233 -0.1057  0.7277
 8051SOL    HW125052   4.975   0.695   3.533 -0.7448  1.2491 -1.2753
 8051SOL    HW225053   5.117   0.772   3.555 -0.2698 -0.2210  1.1227
 8052SOL     OW25054   2.567   0.795   2.393 -0.3429  0.2864  0.1504
 8052SOL    HW125055   2.557   0.865   2.463 -0.5293 -0.3344  0.7610
 8052SOL    HW225056   2.493   0.802   2.327 -0.0214  1.0417 -0.1280
 8053SOL     OW25057   3.400   3.485   2.716 -0.1840 -0.2884 -0.0609
 8053SOL    HW125058   3.366   3.409   2.772  0.2481 -1.0298 -0.7846
 8053SOL    HW225059   3.359   3.570   2.748 -2.3685 -1.0750 -0.5826
 8054SOL     OW25060   3.369   0.190   3.557  0.4626  0.0346  0.1321
 8054SOL    HW125061   3.454   0.242   3.547 -0.3868  1.6315  0.8273
 8054SOL    HW225062   3.303   0.244   3.610 -0.6716 -1.5477  0.3840
 8055SOL     OW25063   6.843   6.970   3.707  0.4718 -0.7328 -0.3697
 8055SOL    HW125064   6.801   6.893   3.755  0.8110 -0.3496  0.5740
 8055SOL    HW225065   6.777   7.009   3.643  0.2633 -1.7372 -0.7858
 8056SOL     OW25066   5.628   6.913   1.588  0.1989  0.5363  0.3372
 8056SOL    HW125067   5.663   6.948   1.675 -0.9314 -1.4053  1.6611
 8056SOL    HW225068   5.566   6.980   1.547  0.5500  1.3764  1.1531
 8057SOL     OW25069   2.500   0.620   1.957  0.1344 -0.1539 -0.8288
 8057SOL    HW125070   2.425   0.617   1.891 -0.0629 -0.2716 -0.6024
 8057SOL    HW225071   2.575   0.562   1.925 -0.1594 -0.6074 -0.7108
 8058SOL     OW25072   3.472   0.844   2.240 -0.1746  0.5237  0.2400
 8058SOL    HW125073   3.515   0.775   2.182 -1.8567 -0.1287 -0.3131
 8058SOL    HW225074   3.529   0.862   2.319  0.1290 -1.8627  0.6474
 8059SOL     OW25075   2.932   1.506   2.549 -0.3734  0.2508  0.6985
 8059SOL    HW125076   2.994   1.458   2.613 -0.8356 -1.1359  0.1503
 8059SOL    HW225077   2.866   1.559   2.601  0.4755  0.7179  1.3251
 8060SOL     OW25078   0.005   2.814   5.417 -0.0994  0.1842  0.1190
 8060SOL    HW125079  -0.028   2.903   5.386 -0.1722 -0.2679 -1.1724
 8060SOL    HW225080   0.078   2.827   5.484 -0.0707  1.2241 -0.0954
 8061SOL     OW25081   5.986   5.840   4.320 -0.3239 -0.5108 -0.1221
 8061SOL    HW125082   5.939   5.777   4.381 -0.2289  0.6661  1.2228
 8061SOL    HW225083   6.081   5.850   4.348  0.0293 -0.8172 -1.1731
 8062SOL     OW25084   1.121   5.696   3.903  0.1650  0.1428 -0.1157
 8062SOL    HW125085   1.089   5.790   3.910  0.7919  0.4180 -0.8908
 8062SOL    HW225086   1.172   5.671   3.986  0.2432  0.5759 -0.0353
 8063SOL     OW25087   1.996   4.412   0.188  0.3032 -0.3735 -0.1074
 8063SOL    HW125088   1.951   4.461   0.114  3.1184  0.4563 -1.3909
 8063SOL    HW225089   1.971   4.453   0.276  0.1017  1.2827 -0.9110
 8064SOL     OW25090   5.975   4.454   6.804 -0.1855 -0.1175  0.1165
 8064SOL    HW125091   5.979   4.446   6.705 -1.9999 -0.4879  0.0398
 8064SOL    HW225092   6.068   4.450   6.842  0.5892  0.7079 -1.5888
 8065SOL     OW25093   2.565   6.445   3.437 -0.7139  0.0583  0.2915
 8065SOL    HW125094   2.662   6.460   3.416 -0.7719 -1.0871 -0.9485
 8065SOL    HW225095   2.533   6.516   3.500  0.3871  1.7052 -0.9138
 8066SOL     OW25096   0.919   2.967   5.320 -0.4334 -0.3640 -0.0290
 8066SOL    HW125097   1.005   3.006   5.287  0.9366 -1.4045  2.0540
 8066SOL    HW225098   0.910   2.873   5.290 -2.3579  0.5550 -2.6780
 8067SOL     OW25099   3.447   2.553   1.131 -0.4323  0.2024  0.0048
 8067SOL    HW125100   3.400   2.546   1.219 -0.0042  0.6525  0.2769
 8067SOL    HW225101   3.513   2.629   1.135 -1.3856  1.1353 -1.1558
 8068SOL     OW25102   6.092   4.468   5.105  0.2525 -0.7784 -0.7930
 8068SOL    HW125103   6.095   4.498   5.200  2.5895 -0.2412 -0.9750
 8068SOL    HW225104   6.008   4.502   5.062 -0.8106 -0.9876  1.0323
 8069SOL     OW25105   3.061   5.796   2.842  0.0472  0.0265 -0.1551
 8069SOL    HW125106   2.999   5.848   2.901 -0.6015  0.3406 -1.0908
 8069SOL    HW225107   3.155   5.809   2.873 -0.2829  0.1146  0.8548
 8070SOL     OW25108   1.396   4.776   2.474  0.0929 -0.0153 -0.0524
 8070SOL    HW125109   1.454   4.714   2.527  0.1639 -1.1566 -1.4007
 8070SOL    HW225110   1.383   4.739   2.382 -1.0593  1.2738 -0.4446
 8071SOL     OW25111   4.314   6.116   3.362 -0.4664 -0.3230  0.5900
 8071SOL    HW125112   4.297   6.018   3.373  0.7658 -0.8053 -1.3715
 8071SOL    HW225113   4.236   6.159   3.317 -0.0993 -0.8870 -0.6416
 8072SOL     OW25114   3.788   0.262   1.765  0.0340  0.4591  0.2046
 8072SOL    HW125115   3.793   0.321   1.684 -0.4014  0.7821  0.4079
 8072SOL    HW225116   3.695   0.264   1.802 -0.2606 -1.1479 -0.3666
 8073SOL     OW25117   5.359   0.007   4.130 -0.2354  0.1859  0.5533
 8073SOL    HW125118   5.393  -0.083   4.156  0.0634  0.3019  0.5721
 8073SOL    HW225119   5.274  -0.003   4.078 -0.1834 -0.1073  0.5241
 8074SOL     OW25120   2.848   3.882   6.546  0.1516 -0.5703 -0.5119
 8074SOL    HW125121   2.936   3.930   6.544  0.4935 -1.1799 -0.4124
 8074SOL    HW225122   2.774   3.949   6.551  0.6106 -0.0492 -0.5294
 8075SOL     OW25123   5.705   6.746   0.141 -0.0407  0.1731  0.1713
 8075SOL    HW125124   5.699   6.791   0.229  0.2377  0.4100  0.0693
 8075SOL    HW225125   5.657   6.658   0.145 -1.7672  1.0621 -0.0097
 8076SOL     OW25126   4.572   2.475   4.038 -0.0094 -0.2822  0.2734
 8076SOL    HW125127   4.616   2.393   4.002  2.9305  1.2719  0.0565
 8076SOL    HW225128   4.559   2.542   3.965  0.2242  0.5082  0.9353
 8077SOL     OW25129   6.582   1.059   1.923 -0.2377  0.2073  0.2139
 8077SOL    HW125130   6.493   1.105   1.925 -0.9737 -1.1872  1.8829
 8077SOL    HW225131   6.647   1.112   1.978 -0.0548  1.1363 -0.8609
 8078SOL     OW25132   6.792   1.177   6.960 -0.8960 -1.0875 -0.0084
 8078SOL    HW125133   6.759   1.164   6.867 -1.8370  0.6761  0.0299
 8078SOL    HW225134   6.715   1.201   7.020  0.0486  0.4171  0.6631
 8079SOL     OW25135   6.258   2.091   4.374 -0.1891 -0.3373 -0.1263
 8079SOL    HW125136   6.191   2.136   4.434 -0.0251 -1.1156  0.6674
 8079SOL    HW225137   6.282   2.152   4.299 -1.8067 -0.0556 -0.4408
 8080SOL     OW25138   0.715   2.614   2.285 -0.0828 -0.1995 -0.2590
 8080SOL    HW125139   0.709   2.708   2.250 -0.6184  0.1736  0.7863
 8080SOL    HW225140   0.750   2.554   2.213 -0.1892  0.7117 -1.0995
 8081SOL     OW25141   5.461   0.803   3.362  0.2908  0.3925 -0.4430
 8081SOL    HW125142   5.453   0.884   3.420  1.1462  0.7054 -0.7441
 8081SOL    HW225143   5.376   0.789   3.311  0.0550  0.9608 -0.2075
 8082SOL     OW25144   5.639   3.245   4.304 -0.0328 -0.4336 -0.3581
 8082SOL    HW125145   5.560   3.302   4.284 -0.0963 -0.5867 -0.5559
 8082SOL    HW225146   5.718   3.280   4.254 -0.5352 -1.6939 -2.1359
 8083SOL     OW25147   6.789   2.855   2.686  0.5337 -0.3123 -0.2939
 8083SOL    HW125148   6.879   2.821   2.659  1.9675  1.4279  1.9488
 8083SOL    HW225149   6.732   2.869   2.605  2.3217 -1.2978 -1.7777
 8084SOL     OW25150   5.780   5.511   2.780 -0.1619  0.1087  0.1383
 8084SOL    HW125151   5.822   5.593   2.741  2.6254 -1.0282  0.5369
 8084SOL    HW225152   5.834   5.431   2.756 -1.6536 -1.3638  1.4605
 8085SOL     OW25153   6.283   6.739   0.577  0.0681  0.1821 -0.0025
 8085SOL    HW125154   6.267   6.641   0.564  1.6231  0.0169 -0.8483
 8085SOL    HW225155   6.287   6.785   0.488 -0.2943  0.9667  0.3725
 8086SOL     OW25156   3.264   5.725   2.601 -0.0055 -0.4550 -0.0513
 8086SOL    HW125157   3.202   5.792   2.641 -0.1863 -0.9733  0.5657
 8086SOL    HW225158   3.347   5.719   2.658  0.9127  0.6983 -1.2200
 8087SOL     OW25159   2.504   2.237   0.728 -0.4265  0.1066  0.8349
 8087SOL    HW125160   2.501   2.162   0.662 -0.2927  0.9597 -0.1660
 8087SOL    HW225161   2.476   2.322   0.684 -0.0003  0.7663  1.7866
 8088SOL     OW25162   5.536   1.094   0.719 -0.1641 -0.7933  0.2448
 8088SOL    HW125163   5.578   1.004   0.716 -0.5795 -0.9637 -0.4950
 8088SOL    HW225164   5.608   1.164   0.715  0.1650 -1.0773  0.9369
 8089SOL     OW25165   5.554   3.067   0.057 -1.2042 -0.0700 -0.2317
 8089SOL    HW125166   5.631   3.006   0.040 -0.8531 -0.1133  1.3794
 8089SOL    HW225167   5.582   3.162   0.041 -1.8997 -0.2617 -3.2699
 8090SOL     OW25168   4.560   0.743   0.076  0.2165  0.4156 -0.4352
 8090SOL    HW125169   4.530   0.655   0.040 -0.0104  0.2311  0.1837
 8090SOL    HW225170   4.525   0.817   0.019 -0.3087  0.1417 -0.4726
 8091SOL     OW25171   4.675   3.804   5.809  0.3392 -0.0908  0.6165
 8091SOL    HW125172   4.773   3.819   5.811  0.6052 -1.6850  2.5476
 8091SOL    HW225173   4.647   3.775   5.717  1.9084 -0.9246  0.3679
 8092SOL     OW25174   0.163   2.265   4.572  0.2819 -0.5790 -0.2655
 8092SOL    HW125175   0.189   2.354   4.534  0.0710 -1.2953 -2.2330
 8092SOL    HW225176   0.193   2.192   4.510 -0.1556 -1.8406  0.9557
 8093SOL     OW25177   5.655   6.293   0.566  0.0777 -0.2109  0.2485
 8093SOL    HW125178   5.574   6.297   0.509 -1.0959 -0.6142  1.8317
 8093SOL    HW225179   5.674   6.385   0.603  0.6328 -0.0203 -0.4974
 8094SOL     OW25180   2.122   4.458   6.723  0.1907 -0.6465 -0.4153
 8094SOL    HW125181   2.072   4.372   6.735  0.1588 -0.6037 -0.2440
 8094SOL    HW225182   2.211   4.439   6.681 -1.2465 -0.4437 -3.9369
 8095SOL     OW25183   4.502   2.885   5.298 -0.0305  0.2351 -0.3067
 8095SOL    HW125184   4.596   2.868   5.268 -0.4346 -1.7290 -0.6574
 8095SOL    HW225185   4.501   2.905   5.396  0.8532  1.7018 -0.5706
 8096SOL     OW25186   2.444   4.867   2.701 -0.4665  0.2321 -0.5648
 8096SOL    HW125187   2.482   4.775   2.716  0.1551  0.6203  0.4231
 8096SOL    HW225188   2.362   4.878   2.757 -0.7605  0.1543 -0.9780
 8097SOL     OW25189   4.706   6.695   3.156 -0.1349 -0.0522 -0.2581
 8097SOL    HW125190   4.703   6.706   3.256 -0.3866  1.3313 -0.3898
 8097SOL    HW225191   4.729   6.601   3.133  2.4684  0.1289  1.1410
 8098SOL     OW25192   2.293   5.632   4.987 -0.2002 -0.2155  0.3214
 8098SOL    HW125193   2.274   5.704   5.055  0.5871  0.5561 -0.2488
 8098SOL    HW225194   2.307   5.674   4.897  2.4149 -0.8172  0.3584
 8099SOL     OW25195   0.624   0.997   5.263  0.5562  0.2991 -0.2564
 8099SOL    HW125196   0.536   1.035   5.234 -0.2128 -0.7185  0.6954
 8099SOL    HW225197   0.680   0.978   5.182 -0.1653  0.7639 -0.8817
 8100SOL     OW25198   2.311   0.242   6.697  0.2645  0.2856 -0.8775
 8100SOL    HW125199   2.359   0.231   6.784  0.5941 -1.4559 -1.2503
 8100SOL    HW225200   2.314   0.338   6.669 -2.1824  1.5057  2.3378
 8101SOL     OW25201   1.045   6.969   2.680 -0.0214  0.4352 -0.3010
 8101SOL    HW125202   1.012   6.916   2.602  0.7671  0.8480 -0.9289
 8101SOL    HW225203   1.126   6.924   2.719 -0.0211  0.5822 -0.1303
 8102SOL     OW25204   2.051   5.614   5.673 -0.4458  0.0863  0.3527
 8102SOL    HW125205   1.973   5.647   5.727  0.0322  0.2371  0.9695
 8102SOL    HW225206   2.106   5.553   5.730 -0.8552 -1.1337 -0.5037
 8103SOL     OW25207   3.098   1.520   2.866  0.2663 -0.0095 -0.5483
 8103SOL    HW125208   3.196   1.531   2.880  0.5089  0.5177 -2.3830
 8103SOL    HW225209   3.050   1.601   2.900  0.3124 -0.6676  1.2361
 8104SOL     OW25210   2.710   0.617   5.889  0.2592  0.1691  0.1680
 8104SOL    HW125211   2.695   0.699   5.945  0.0564  0.4172 -0.2396
 8104SOL    HW225212   2.808   0.602   5.879  0.3310  1.0973 -0.7794
 8105SOL     OW25213   2.351   1.241   3.786 -0.5594 -0.0630 -0.1495
 8105SOL    HW125214   2.299   1.309   3.837 -0.0781  1.1058 -1.1736
 8105SOL    HW225215   2.299   1.212   3.706 -1.9417 -2.9557  1.6488
 8106SOL     OW25216   2.323   5.413   4.294 -0.1675 -0.0397  0.2857
 8106SOL    HW125217   2.411   5.375   4.264 -1.7254 -3.6263 -0.1906
 8106SOL    HW225218   2.309   5.393   4.391  0.6552  3.0620  1.1581
 8107SOL     OW25219   1.960   6.702   5.627 -0.3087 -0.0122  0.1648
 8107SOL    HW125220   2.046   6.701   5.575 -0.8789  2.3315 -1.0067
 8107SOL    HW225221   1.965   6.637   5.703  1.4008 -1.9958 -1.5255
 8108SOL     OW25222   0.325   2.932   3.517  0.0901 -0.5134 -0.3069
 8108SOL    HW125223   0.283   3.020   3.537  0.4117 -0.6987  1.3533
 8108SOL    HW225224   0.325   2.875   3.600  0.5736 -1.7849 -1.1440
 8109SOL     OW25225   2.673   4.334   5.989  0.0214 -0.0159  0.4773
 8109SOL    HW125226   2.723   4.402   6.042  0.1453 -0.8899  1.5358
 8109SOL    HW225227   2.736   4.284   5.930 -0.0721  0.7788 -0.3082
 8110SOL     OW25228   2.338   0.020   6.540  0.1886  0.0935  0.4961
 8110SOL    HW125229   2.331   0.078   6.621  0.5091 -1.2878  1.5674
 8110SOL    HW225230   2.428  -0.024   6.538 -0.1288 -0.5657 -0.1328
 8111SOL     OW25231   3.187   5.982   5.392  0.1685 -0.1614  0.1622
 8111SOL    HW125232   3.143   6.043   5.326 -2.2547 -1.7636  0.1580
 8111SOL    HW225233   3.230   5.906   5.343 -0.5362 -0.6835  0.3360
 8112SOL     OW25234   1.898   0.082   5.410  0.1246 -0.1349  0.2345
 8112SOL    HW125235   1.880   0.170   5.365  0.0693  0.2415  0.9883
 8112SOL    HW225236   1.833   0.014   5.376 -0.0399  0.1938 -0.1181
 8113SOL     OW25237   3.871   3.310   1.167  0.0330 -0.6215 -0.1941
 8113SOL    HW125238   3.837   3.241   1.230  0.6185 -0.5384  0.2163
 8113SOL    HW225239   3.796   3.371   1.139  0.0226  0.1681  1.4634
 8114SOL     OW25240   1.862   2.259   1.921  0.5047  0.0833 -0.2615
 8114SOL    HW125241   1.797   2.322   1.880  0.7188  0.0817 -0.6060
 8114SOL    HW225242   1.813   2.188   1.972  0.2759  0.9015  0.6922
 8115SOL     OW25243   2.949   1.225   3.638  0.0665  0.1894  0.5897
 8115SOL    HW125244   2.862   1.272   3.654 -0.2195 -0.1685  0.1145
 8115SOL    HW225245   3.024   1.282   3.671 -0.2914  0.8574  0.2763
 8116SOL     OW25246   5.438   5.989   4.895 -0.3059  0.4451 -0.3946
 8116SOL    HW125247   5.344   5.978   4.928 -0.3628  3.5186  0.8024
 8116SOL    HW225248   5.442   6.068   4.833  1.7782  1.6460  1.1566
 8117SOL     OW25249   1.216   2.998   4.255 -0.8882  0.3093 -0.0247
 8117SOL    HW125250   1.147   2.930   4.281  0.3817 -1.8003 -1.8343
 8117SOL    HW225251   1.178   3.058   4.185 -0.8851 -0.9773 -1.1724
 8118SOL     OW25252   6.749   3.487   4.965  0.5801 -0.3966  0.0218
 8118SOL    HW125253   6.834   3.520   4.923  1.4833 -3.2167 -0.6283
 8118SOL    HW225254   6.770   3.408   5.024 -1.4845 -0.5756  0.5735
 8119SOL     OW25255   0.504   5.568   2.867 -0.4205 -0.3064 -0.5127
 8119SOL    HW125256   0.483   5.653   2.915 -1.4312 -0.3513 -0.8322
 8119SOL    HW225257   0.567   5.512   2.921 -1.4567 -0.3154  0.7216
 8120SOL     OW25258   2.262   4.074   6.523 -0.3655  0.0449 -0.1184
 8120SOL    HW125259   2.302   4.144   6.582  0.9872  0.4106 -1.4256
 8120SOL    HW225260   2.179   4.110   6.481  0.6417  1.1219 -1.2527
 8121SOL     OW25261   1.323   6.926   3.753 -0.4240  0.0647  0.2209
 8121SOL    HW125262   1.327   7.024   3.732 -1.6510  0.3643  1.2434
 8121SOL    HW225263   1.403   6.880   3.714  1.1615  1.7808  1.2904
 8122SOL     OW25264   6.192   4.300   6.886 -0.3442  0.0329 -1.2301
 8122SOL    HW125265   6.180   4.330   6.980  0.0957 -0.8975 -0.8669
 8122SOL    HW225266   6.270   4.348   6.845 -0.5777  0.4854 -1.1435
 8123SOL     OW25267   2.269   6.887   0.006 -0.7368  0.4537  0.4447
 8123SOL    HW125268   2.273   6.800   0.055  0.1050  1.5839  2.5326
 8123SOL    HW225269   2.246   6.871  -0.090  1.0835 -2.1984  0.3516
 8124SOL     OW25270   2.043   5.937   1.000  0.1239 -0.5273  0.4319
 8124SOL    HW125271   2.115   5.931   1.069 -0.4831 -0.4663  1.0751
 8124SOL    HW225272   2.083   5.923   0.909  0.6271 -2.5941  0.9188
 8125SOL     OW25273   6.652   4.551   4.516 -0.1810 -0.4229 -0.0648
 8125SOL    HW125274   6.750   4.534   4.509 -0.2885 -1.1240  0.1169
 8125SOL    HW225275   6.610   4.543   4.426  0.1002  1.0395 -0.3542
 8126SOL     OW25276   5.272   3.937   1.969 -0.4409 -0.2383  0.5140
 8126SOL    HW125277   5.235   3.857   2.016  0.2511 -0.3513  0.8888
 8126SOL    HW225278   5.291   3.915   1.874 -0.8285 -0.3325  0.4564
 8127SOL     OW25279   3.775   4.643   0.620 -0.5615 -0.0162  0.0869
 8127SOL    HW125280   3.685   4.633   0.576 -0.3524  2.0757 -0.9054
 8127SOL    HW225281   3.847   4.619   0.554 -0.3182  1.0346 -0.0396
 8128SOL     OW25282   3.720   2.555   5.975 -0.2814 -0.5532  1.1206
 8128SOL    HW125283   3.680   2.485   6.035 -0.1433 -2.0412 -0.4341
 8128SOL    HW225284   3.797   2.515   5.925 -0.6462  0.5072 -0.3423
 8129SOL     OW25285   3.905   6.963   0.058 -0.4161 -0.3860  0.2744
 8129SOL    HW125286   3.909   6.986   0.155 -1.1395  1.0856 -0.0190
 8129SOL    HW225287   3.836   7.019   0.013 -0.2589 -1.2132 -1.0603
 8130SOL     OW25288   2.837   6.744   4.621 -0.6466 -0.0482  0.2697
 8130SOL    HW125289   2.834   6.662   4.679  1.0885  0.4944  1.2181
 8130SOL    HW225290   2.908   6.732   4.551 -1.2440  0.1635 -0.3763
 8131SOL     OW25291   4.029   6.859   6.855 -0.0678 -0.2551  0.5306
 8131SOL    HW125292   4.002   6.890   6.947 -1.3017 -1.0277  0.4564
 8131SOL    HW225293   4.039   6.938   6.795  1.0820  0.2945  1.3926
 8132SOL     OW25294   5.852   5.637   5.605  0.1943  0.4959  0.0312
 8132SOL    HW125295   5.907   5.644   5.522  0.2795 -1.1912 -0.0948
 8132SOL    HW225296   5.803   5.550   5.605 -1.1326  1.1947  0.9685
 8133SOL     OW25297   3.343   5.210   3.604  0.1601  0.2668  0.4572
 8133SOL    HW125298   3.409   5.146   3.565  0.9839  2.8459 -2.8424
 8133SOL    HW225299   3.253   5.192   3.564  0.1573  0.4250  0.3910
 8134SOL     OW25300   6.802   3.578   5.430 -0.1422  0.7273 -0.6067
 8134SOL    HW125301   6.731   3.630   5.382  0.0869  1.2115 -0.4298
 8134SOL    HW225302   6.816   3.617   5.521 -0.4816 -0.1097 -0.1875
 8135SOL     OW25303   0.986   4.921   2.027 -0.0835  0.0167 -0.0249
 8135SOL    HW125304   0.964   4.936   2.124 -0.8226  0.2445 -0.2241
 8135SOL    HW225305   0.963   4.827   2.002 -1.5142  0.4441 -0.4029
 8136SOL     OW25306   5.915   4.744   2.185 -0.0622 -0.1323  0.9741
 8136SOL    HW125307   5.971   4.802   2.244 -2.0773  0.0947  2.7707
 8136SOL    HW225308   5.934   4.647   2.205  2.0139 -0.1999 -0.8031
 8137SOL     OW25309   2.056   4.776   3.934 -0.0556  0.1076 -0.2723
 8137SOL    HW125310   2.003   4.861   3.923 -1.2940 -0.5105  0.7302
 8137SOL    HW225311   2.150   4.792   3.904 -0.5400  1.5232 -1.1534
 8138SOL     OW25312   4.597   2.679   2.368 -0.3366  0.8514  0.3447
 8138SOL    HW125313   4.610   2.634   2.457 -0.6773  1.0642  0.5061
 8138SOL    HW225314   4.534   2.625   2.313  0.3473  0.3979 -0.0103
 8139SOL     OW25315   2.199   1.850   3.092 -0.2882  0.0148 -0.1115
 8139SOL    HW125316   2.277   1.808   3.046  0.0188  0.0570  0.3697
 8139SOL    HW225317   2.127   1.869   3.025  0.0194 -0.2402 -0.5159
 8140SOL     OW25318   4.645   6.604   0.817 -0.0302 -0.3219  0.1464
 8140SOL    HW125319   4.550   6.590   0.845 -0.2365  1.3287  0.3793
 8140SOL    HW225320   4.706   6.582   0.893 -0.2292 -1.0331  0.1120
 8141SOL     OW25321   4.844   1.442   4.404  0.1049 -0.0391 -0.0314
 8141SOL    HW125322   4.924   1.382   4.415  0.0247 -0.4955 -1.6758
 8141SOL    HW225323   4.810   1.435   4.311 -1.9684  0.0254  0.6691
 8142SOL     OW25324   3.208   4.980   6.520  0.1926  0.0964  0.6352
 8142SOL    HW125325   3.261   4.922   6.459 -0.0561 -0.2295  0.7242
 8142SOL    HW225326   3.205   4.938   6.611  1.2430  0.9791  1.0952
 8143SOL     OW25327   4.840   4.125   2.883 -0.2816  0.0520  0.1757
 8143SOL    HW125328   4.880   4.138   2.793  0.7591  1.8121  0.8507
 8143SOL    HW225329   4.865   4.034   2.918  1.4208  0.3101 -0.2919
 8144SOL     OW25330   1.716   5.459   6.750 -0.5706  0.7765  0.4354
 8144SOL    HW125331   1.630   5.509   6.747 -0.5504  0.7962  0.2100
 8144SOL    HW225332   1.703   5.373   6.800 -1.0686  0.1108 -0.7881
 8145SOL     OW25333   6.017   0.135   6.791  0.0007 -0.5894 -0.0703
 8145SOL    HW125334   6.028   0.206   6.861  1.5208 -0.2369 -0.6172
 8145SOL    HW225335   6.047   0.047   6.827  2.4354 -0.1079 -0.7299
 8146SOL     OW25336   5.831   6.134   6.071 -0.1859  0.4819 -0.3459
 8146SOL    HW125337   5.852   6.161   6.165  1.8180  0.0460 -0.6323
 8146SOL    HW225338   5.886   6.189   6.008  2.1770 -2.4261 -1.0464
 8147SOL     OW25339   0.828   0.404   6.893 -0.0516 -0.3547 -0.1744
 8147SOL    HW125340   0.729   0.409   6.907  0.2425  1.1427  1.9564
 8147SOL    HW225341   0.864   0.496   6.878  1.0151 -0.8949 -1.0098
 8148SOL     OW25342   3.759   2.448   0.094  0.0810 -0.2304  0.5398
 8148SOL    HW125343   3.742   2.406   0.004 -0.9792 -1.3515  1.2246
 8148SOL    HW225344   3.708   2.397   0.164  0.2363  1.1254  1.6726
 8149SOL     OW25345   2.514   6.928   5.710  0.2455 -0.4720  0.3446
 8149SOL    HW125346   2.457   6.962   5.635  0.4485 -0.0481  0.3802
 8149SOL    HW225347   2.462   6.928   5.795  0.1401 -0.5761  0.2815
 8150SOL     OW25348   1.842   2.956   1.288  0.1021 -0.4087  0.5234
 8150SOL    HW125349   1.776   3.023   1.254  0.7521 -0.1163 -0.1783
 8150SOL    HW225350   1.869   2.895   1.214  1.7582  0.4223  0.4107
 8151SOL     OW25351   6.704   6.355   2.693 -0.0229 -0.2290  0.4338
 8151SOL    HW125352   6.662   6.408   2.766  0.0283 -0.0107  0.3060
 8151SOL    HW225353   6.636   6.296   2.651 -0.4646  0.9019 -0.4793
 8152SOL     OW25354   5.014   2.081   2.624  0.6139  0.0605  0.2209
 8152SOL    HW125355   4.931   2.025   2.623  0.2612  0.5486  1.2181
 8152SOL    HW225356   4.989   2.177   2.638  1.0321  0.8356 -3.3283
 8153SOL     OW25357   1.140   6.430   4.624  0.5398  0.4622  0.1245
 8153SOL    HW125358   1.183   6.464   4.539  2.9920 -3.3991 -0.4282
 8153SOL    HW225359   1.204   6.443   4.700 -0.2238  0.7826  0.7212
 8154SOL     OW25360   3.138   2.191   4.729  0.4415  0.1488  0.2443
 8154SOL    HW125361   3.184   2.280   4.736 -0.0532  0.4159  0.1686
 8154SOL    HW225362   3.202   2.123   4.695 -0.1304  1.3400 -3.7340
 8155SOL     OW25363   0.654   3.343   1.100  0.1848  0.1356  0.0237
 8155SOL    HW125364   0.650   3.375   1.005  1.5479 -1.2036 -0.5230
 8155SOL    HW225365   0.673   3.245   1.101  2.0575  0.4688  1.6901
 8156SOL     OW25366   5.728   5.431   1.264 -0.0363 -0.3531  0.1797
 8156SOL    HW125367   5.789   5.500   1.225 -0.3156 -1.3019 -2.0777
 8156SOL    HW225368   5.641   5.433   1.216 -0.9461 -0.6318  1.7720
 8157SOL     OW25369   4.461   4.647   4.311  0.0337 -0.4591  0.5879
 8157SOL    HW125370   4.500   4.579   4.249  0.0679 -1.2949  1.4889
 8157SOL    HW225371   4.512   4.732   4.303 -0.5473 -0.2407 -1.1830
 8158SOL     OW25372   4.639   6.234   4.565  0.1531 -0.2445  0.1325
 8158SOL    HW125373   4.705   6.178   4.515 -0.9692 -2.6365  1.2103
 8158SOL    HW225374   4.547   6.197   4.553 -0.7911  1.9069  0.2062
 8159SOL     OW25375   3.679   4.864   6.642  0.4575 -0.2685  0.2751
 8159SOL    HW125376   3.705   4.952   6.683  1.2003 -0.2219 -0.2911
 8159SOL    HW225377   3.611   4.820   6.701  2.6557 -0.9650  2.5051
 8160SOL     OW25378   5.033   0.619   4.410  0.0574  0.1659  0.2169
 8160SOL    HW125379   5.048   0.606   4.508  0.2706  1.5087  0.3807
 8160SOL    HW225380   4.941   0.589   4.387  0.1076 -0.4493  0.7604
 8161SOL     OW25381   6.106   1.318   1.183  0.1126 -0.3639  0.5608
 8161SOL    HW125382   6.170   1.368   1.242  0.1993  0.0550  0.1135
 8161SOL    HW225383   6.138   1.321   1.089  0.1253 -1.2845  0.5254
 8162SOL     OW25384   0.607   6.346   2.104 -0.0249 -0.3519 -0.2685
 8162SOL    HW125385   0.667   6.364   2.182 -0.7137  0.1747  0.1586
 8162SOL    HW225386   0.578   6.433   2.064  1.6062 -0.6215 -2.1435
 8163SOL     OW25387   5.610   5.505   0.300  0.0344 -0.3289 -0.0573
 8163SOL    HW125388   5.602   5.511   0.400 -0.4789 -1.3644 -0.0192
 8163SOL    HW225389   5.569   5.419   0.269  2.1039 -1.0435 -0.9495
 8164SOL     OW25390   5.192   6.563   5.020  0.3663 -0.1289 -0.0860
 8164SOL    HW125391   5.282   6.553   4.977  0.5804  1.2469 -0.0062
 8164SOL    HW225392   5.121   6.535   4.955  0.7872  0.1953 -0.7039
 8165SOL     OW25393   5.757   1.539   6.612 -0.5892 -0.4276  0.0991
 8165SOL    HW125394   5.847   1.542   6.654 -0.0255  1.4174 -1.1289
 8165SOL    HW225395   5.765   1.520   6.514 -1.4891  0.1961 -0.1155
 8166SOL     OW25396   1.063   2.711   4.715 -0.5470  0.4323  0.4722
 8166SOL    HW125397   1.066   2.809   4.698 -2.5647  0.5258  0.4021
 8166SOL    HW225398   1.066   2.694   4.814  0.9735  0.4696  0.4537
 8167SOL     OW25399   6.759   1.543   3.498 -0.0101 -0.1825 -0.8168
 8167SOL    HW125400   6.754   1.520   3.401 -1.6525  0.8860 -1.0277
 8167SOL    HW225401   6.687   1.493   3.547  0.6059 -0.4697 -0.1891
 8168SOL     OW25402   2.341   0.204   6.313 -0.4735  0.2080 -0.1067
 8168SOL    HW125403   2.433   0.163   6.311  0.8998  3.0625 -0.2014
 8168SOL    HW225404   2.295   0.175   6.397 -0.7315 -3.5401 -1.3373
 8169SOL     OW25405   4.886   0.826   5.406  0.3539 -0.0290  0.2427
 8169SOL    HW125406   4.890   0.825   5.506  0.7848  0.2760  0.2336
 8169SOL    HW225407   4.906   0.919   5.373 -2.1723  0.4975 -0.0401
 8170SOL     OW25408   6.395   5.542   1.328  0.4597 -0.1819  0.1418
 8170SOL    HW125409   6.331   5.561   1.403  2.3249 -0.1394  1.7865
 8170SOL    HW225410   6.410   5.625   1.275 -0.7701 -0.1781 -0.2425
 8171SOL     OW25411   2.559   2.051   0.318  0.7273 -0.1385  0.0840
 8171SOL    HW125412   2.509   2.068   0.234 -0.3791 -1.2452  0.4797
 8171SOL    HW225413   2.651   2.018   0.297  1.1986  1.5697 -0.6561
 8172SOL     OW25414   2.299   0.565   1.779 -0.3741 -0.6628  0.0363
 8172SOL    HW125415   2.217   0.620   1.797  0.0859  0.1994 -0.4175
 8172SOL    HW225416   2.272   0.477   1.740 -1.0350  0.0591 -1.1820
 8173SOL     OW25417   6.082   2.134   3.747  0.0331 -0.3735  0.3973
 8173SOL    HW125418   6.058   2.200   3.818 -1.1091  0.1298 -0.4153
 8173SOL    HW225419   6.181   2.129   3.737  0.1579  0.4695  1.1661
 8174SOL     OW25420   1.544   6.812   1.124  0.0845  0.5398  0.7257
 8174SOL    HW125421   1.610   6.752   1.168 -0.2185 -0.2432  0.1260
 8174SOL    HW225422   1.546   6.799   1.025 -0.3011  1.1919  0.6212
 8175SOL     OW25423   1.214   2.496   4.199 -0.0140  0.8195 -0.2259
 8175SOL    HW125424   1.159   2.417   4.172  0.4713  0.5893 -0.5534
 8175SOL    HW225425   1.212   2.506   4.299 -2.5401  2.1895 -0.3390
 8176SOL     OW25426   0.405   2.567   1.943  0.3517 -0.0728 -0.4256
 8176SOL    HW125427   0.443   2.624   1.870  0.6887  1.4970  0.9053
 8176SOL    HW225428   0.316   2.532   1.915  0.1964  1.0004 -1.3445
 8177SOL     OW25429   4.151   0.580   1.622 -0.5665  0.3666  0.2975
 8177SOL    HW125430   4.112   0.584   1.714 -0.7013 -0.4524  0.2866
 8177SOL    HW225431   4.121   0.496   1.577 -0.1986  0.5801 -0.3605
 8178SOL     OW25432   4.135   0.403   2.904 -0.1926  0.0121  0.4550
 8178SOL    HW125433   4.105   0.336   2.837 -1.6484  1.5700 -0.5520
 8178SOL    HW225434   4.056   0.456   2.936  0.8705  1.1514  1.3114
 8179SOL     OW25435   6.760   0.898   3.869  0.5170 -0.2193  0.8752
 8179SOL    HW125436   6.808   0.810   3.870 -0.1031 -0.6095 -0.7098
 8179SOL    HW225437   6.825   0.972   3.889  2.2562 -0.5541 -2.7469
 8180SOL     OW25438   5.699   5.884   0.455  0.0802 -0.1936 -0.8305
 8180SOL    HW125439   5.640   5.811   0.490  3.6309 -1.7281  2.7036
 8180SOL    HW225440   5.768   5.846   0.393  1.3916  0.2642  0.3002
 8181SOL     OW25441   6.642   0.725   3.670 -0.0790 -0.5949  0.1536
 8181SOL    HW125442   6.705   0.777   3.728 -0.6562  1.8339 -1.2127
 8181SOL    HW225443   6.548   0.741   3.700 -0.2038 -3.0665  1.3094
 8182SOL     OW25444   4.006   3.940   4.873  0.1249 -0.0863  0.3273
 8182SOL    HW125445   4.090   3.979   4.833 -0.0901  0.0457  0.0005
 8182SOL    HW225446   3.987   3.852   4.830 -0.0620  0.0172  0.1985
 8183SOL     OW25447   4.097   6.483   4.408 -0.1645  0.1499  0.2879
 8183SOL    HW125448   4.027   6.435   4.460  0.0131 -0.0444  0.3501
 8183SOL    HW225449   4.184   6.478   4.457  0.5083 -1.8105 -0.9710
 8184SOL     OW25450   1.493   0.421   6.113 -0.4037 -0.1158  0.1517
 8184SOL    HW125451   1.550   0.422   6.196 -1.8175 -2.6431  1.2378
 8184SOL    HW225452   1.534   0.482   6.045  2.7301 -0.5947  1.4245
 8185SOL     OW25453   1.482   1.611   0.491 -0.5323  0.2180 -0.1156
 8185SOL    HW125454   1.508   1.646   0.401  0.4569 -2.8080 -1.1537
 8185SOL    HW225455   1.409   1.543   0.480  0.4726 -1.1297  1.1538
 8186SOL     OW25456   2.249   4.775   5.893 -0.1379  0.1863  0.3748
 8186SOL    HW125457   2.306   4.752   5.971  0.0263 -1.4844 -0.2060
 8186SOL    HW225458   2.235   4.694   5.836 -1.6605  0.9572 -0.4269
 8187SOL     OW25459   2.063   1.819   4.482 -0.2553 -0.2957  0.1565
 8187SOL    HW125460   1.974   1.861   4.466  0.8265  1.4805 -1.6212
 8187SOL    HW225461   2.062   1.725   4.450 -1.3728 -0.1700 -0.2091
 8188SOL     OW25462   5.081   2.351   3.777 -0.9252  0.1657 -0.7356
 8188SOL    HW125463   5.015   2.344   3.703  0.3327  2.2169 -2.1618
 8188SOL    HW225464   5.172   2.327   3.743 -0.5718 -0.4574  0.5910
 8189SOL     OW25465   4.470   5.302   4.318  0.4524 -0.1626  0.6537
 8189SOL    HW125466   4.490   5.297   4.220  1.4645  1.8571  0.7054
 8189SOL    HW225467   4.528   5.238   4.367  0.4724 -0.6531  0.0055
 8190SOL     OW25468   6.614   3.693   3.781 -0.2630 -0.3211  0.0922
 8190SOL    HW125469   6.534   3.658   3.732 -0.3178 -0.0919  0.0163
 8190SOL    HW225470   6.615   3.793   3.775  0.7776 -0.3819 -1.0925
 8191SOL     OW25471   5.812   4.308   2.056 -0.3315  0.2780 -0.5132
 8191SOL    HW125472   5.781   4.303   1.961 -0.4582 -0.3503 -0.4478
 8191SOL    HW225473   5.855   4.396   2.073 -0.2581  0.3727 -1.1700
 8192SOL     OW25474   1.724   5.967   2.368  0.2017  0.1206 -0.4954
 8192SOL    HW125475   1.744   5.908   2.446  2.0964  1.9151  0.4671
 8192SOL    HW225476   1.665   6.042   2.397  0.5051  0.5188 -0.8908
 8193SOL     OW25477   6.929   6.541   4.325 -0.0653  0.0312 -0.2338
 8193SOL    HW125478   7.022   6.560   4.293  0.8599 -0.2864  2.0597
 8193SOL    HW225479   6.933   6.469   4.394 -2.0505 -0.0435 -0.1623
 8194SOL     OW25480   5.616   6.879   5.935  0.5198 -0.0880  0.2126
 8194SOL    HW125481   5.624   6.977   5.952 -1.6343  0.4439 -1.4703
 8194SOL    HW225482   5.637   6.860   5.839 -0.2425 -1.0953  0.2316
 8195SOL     OW25483   6.511   0.484   4.753 -0.2947 -0.1867  0.1713
 8195SOL    HW125484   6.454   0.503   4.673 -0.9027  0.5413  0.7569
 8195SOL    HW225485   6.511   0.386   4.772  0.5067 -0.4649 -1.1815
 8196SOL     OW25486   3.675   0.693   5.111 -0.4762  0.5364 -0.4698
 8196SOL    HW125487   3.612   0.662   5.040  0.3575 -1.0988 -0.5390
 8196SOL    HW225488   3.769   0.669   5.085 -0.1099  0.3482  0.9505
 8197SOL     OW25489   4.799   1.518   2.761  0.3051 -0.0704  0.0126
 8197SOL    HW125490   4.810   1.428   2.802  1.2448 -1.2410 -2.5798
 8197SOL    HW225491   4.708   1.554   2.782  0.1254 -1.3392  1.5721
 8198SOL     OW25492   2.949   1.906   2.722 -0.2770  0.4047 -0.4891
 8198SOL    HW125493   3.019   1.922   2.791  1.6953  0.2864 -2.3510
 8198SOL    HW225494   2.922   1.810   2.723  0.9196  0.0405 -0.8880
 8199SOL     OW25495   2.623   5.098   5.681 -0.1122 -0.0410 -0.0117
 8199SOL    HW125496   2.659   5.188   5.655  0.3057  0.1669  1.2222
 8199SOL    HW225497   2.523   5.099   5.675 -0.3093  1.3361  2.3648
 8200SOL     OW25498   5.000   4.215   1.017  0.1755  0.7617  0.7619
 8200SOL    HW125499   4.907   4.253   1.022  0.8547  2.5364  0.5577
 8200SOL    HW225500   5.003   4.129   1.069 -2.3501 -1.0565 -1.7630
 8201SOL     OW25501   0.474   1.310   5.594 -0.3482  0.0094 -0.2626
 8201SOL    HW125502   0.527   1.341   5.515 -1.2449  0.7544 -0.5837
 8201SOL    HW225503   0.521   1.233   5.637  1.0026  0.6527 -0.5289
 8202SOL     OW25504   0.891   6.873   3.907  0.1965  0.4094  0.3583
 8202SOL    HW125505   0.980   6.907   3.938 -0.1759  0.8823  0.9302
 8202SOL    HW225506   0.821   6.941   3.926 -0.2975  0.0180 -0.0471
 8203SOL     OW25507   1.896   2.477   1.548 -0.4638  0.1269  0.0479
 8203SOL    HW125508   1.882   2.550   1.480 -0.8303 -1.3587 -1.5568
 8203SOL    HW225509   1.984   2.490   1.593  0.1687  0.7328 -1.2985
 8204SOL     OW25510   3.013   3.936   2.360  0.2708 -0.1347  0.1016
 8204SOL    HW125511   3.008   3.860   2.295 -1.2238  0.1750 -0.1827
 8204SOL    HW225512   3.032   4.020   2.310 -0.9194  0.1104  0.0337
 8205SOL     OW25513   0.201   3.657   0.945 -0.1702 -0.1143  0.5323
 8205SOL    HW125514   0.296   3.682   0.927  0.2891 -1.9248  0.1308
 8205SOL    HW225515   0.166   3.606   0.866 -0.0536 -3.1424  2.2737
 8206SOL     OW25516   2.630   0.072   0.882 -0.1228 -1.0642 -0.0725
 8206SOL    HW125517   2.651   0.007   0.955  0.0974 -0.1557  0.6934
 8206SOL    HW225518   2.552   0.040   0.829  0.4092 -2.2863 -0.1446
 8207SOL     OW25519   2.935   3.191   5.138  0.5736  0.4605 -0.0069
 8207SOL    HW125520   2.859   3.181   5.202 -0.1810 -2.2943 -1.1910
 8207SOL    HW225521   2.901   3.230   5.052  0.9012  1.0032  0.1063
 8208SOL     OW25522   6.588   2.511   0.712 -0.4077 -0.0702  0.1219
 8208SOL    HW125523   6.627   2.599   0.741 -1.6951  1.3650 -2.1968
 8208SOL    HW225524   6.656   2.439   0.723  1.4230  1.5741  0.1388
 8209SOL     OW25525   1.118   2.100   5.801 -0.4357  0.5208  0.1052
 8209SOL    HW125526   1.039   2.122   5.859 -1.3692 -0.8406 -0.5806
 8209SOL    HW225527   1.135   2.002   5.804  0.5106  0.6416 -0.6815
 8210SOL     OW25528   3.133   3.259   6.990  0.0099  0.1674 -0.3823
 8210SOL    HW125529   3.189   3.322   7.043 -1.0990  0.6664  0.2331
 8210SOL    HW225530   3.152   3.165   7.018 -0.4738  0.4164  0.8514
 8211SOL     OW25531   4.081   2.919   1.288  0.0135  0.7276  0.4533
 8211SOL    HW125532   4.107   2.860   1.365 -1.2253 -0.8482 -0.2823
 8211SOL    HW225533   4.145   2.995   1.281  2.2673 -1.0355  0.8567
 8212SOL     OW25534   1.888   2.317   3.880 -0.0118 -0.1571  0.0221
 8212SOL    HW125535   1.882   2.379   3.958  2.1463  0.4021 -0.1817
 8212SOL    HW225536   1.902   2.224   3.913 -1.2999 -0.2759  0.2966
 8213SOL     OW25537   6.636   5.175   3.298  0.1186 -0.2261  0.4597
 8213SOL    HW125538   6.617   5.082   3.266  0.2752 -0.1469  0.1231
 8213SOL    HW225539   6.722   5.176   3.350  0.0223 -0.3013  0.6197
 8214SOL     OW25540   5.953   4.710   3.563  0.1720  0.0293  0.0382
 8214SOL    HW125541   5.901   4.675   3.641 -1.0505  0.0326 -0.7387
 8214SOL    HW225542   5.946   4.810   3.562  2.0973  0.2163  1.1938
 8215SOL     OW25543   4.942   0.239   5.331 -0.2226 -0.2718 -0.3562
 8215SOL    HW125544   4.844   0.234   5.350 -0.0551 -1.4442  0.2917
 8215SOL    HW225545   4.971   0.158   5.281  0.3840  0.1861 -0.7661
 8216SOL     OW25546   5.966   0.221   4.113 -0.0605  0.4401  0.1281
 8216SOL    HW125547   6.022   0.139   4.097  2.4135  1.6191  2.0705
 8216SOL    HW225548   5.918   0.212   4.200 -0.6911  0.5844 -0.2055
 8217SOL     OW25549   2.359   5.284   0.092  0.4011  0.0312  0.0018
 8217SOL    HW125550   2.442   5.298   0.038  0.6624  0.7843  0.5800
 8217SOL    HW225551   2.344   5.362   0.152 -2.5312  1.5475 -2.4071
 8218SOL     OW25552   6.775   1.559   7.009 -0.1449  0.0345  0.3035
 8218SOL    HW125553   6.793   1.465   7.039 -2.2297 -1.0709 -1.6096
 8218SOL    HW225554   6.750   1.558   6.912  1.4340  2.8200 -0.2405
 8219SOL     OW25555   5.873   0.436   6.585 -0.7829  0.4090 -0.6086
 8219SOL    HW125556   5.822   0.516   6.616  0.2113  1.4013 -1.4354
 8219SOL    HW225557   5.837   0.404   6.498 -1.7794 -0.6482  0.1667
 8220SOL     OW25558   3.859   2.984   2.642  0.0285  0.6374 -0.0550
 8220SOL    HW125559   3.935   3.044   2.618 -0.0491  0.7702  0.0240
 8220SOL    HW225560   3.874   2.945   2.733 -0.0936  0.8214  0.0440
 8221SOL     OW25561   4.931   6.156   4.525 -0.2311  0.0875 -0.4384
 8221SOL    HW125562   4.931   6.076   4.465 -0.5114 -1.1238  1.1206
 8221SOL    HW225563   5.021   6.166   4.567  0.2681  1.5125 -1.7453
 8222SOL     OW25564   4.852   2.145   3.410 -0.5339  0.8234 -0.1079
 8222SOL    HW125565   4.781   2.197   3.363 -1.6544 -0.0516  0.5461
 8222SOL    HW225566   4.848   2.049   3.380 -0.0582  0.6376  0.4103
 8223SOL     OW25567   2.459   4.300   5.606 -0.2929  0.1960 -0.0231
 8223SOL    HW125568   2.528   4.228   5.617 -1.0067 -0.3904  0.7387
 8223SOL    HW225569   2.420   4.322   5.695 -0.7030  0.9204 -0.3738
 8224SOL     OW25570   5.773   3.375   1.809 -0.2922 -1.0857  0.0232
 8224SOL    HW125571   5.838   3.394   1.735  0.6096 -1.9482  0.5703
 8224SOL    HW225572   5.722   3.459   1.831 -1.1054 -0.9661 -2.0413
 8225SOL     OW25573   4.684   0.605   1.432 -0.0508 -0.1057  1.0914
 8225SOL    HW125574   4.744   0.535   1.393 -0.5019 -0.0850  0.3546
 8225SOL    HW225575   4.590   0.590   1.400 -0.0829  1.0790  0.6060
 8226SOL     OW25576   5.750   6.527   2.590 -0.2193 -0.3339  0.2924
 8226SOL    HW125577   5.844   6.503   2.566 -0.5079 -2.3686  0.9381
 8226SOL    HW225578   5.721   6.471   2.668 -0.7341  2.9512  2.6494
 8227SOL     OW25579   0.871   2.337   4.511  0.2324  0.3316 -0.4554
 8227SOL    HW125580   0.859   2.349   4.609 -1.2949  0.4037 -0.6319
 8227SOL    HW225581   0.867   2.426   4.466 -0.3143  0.1796 -0.7076
 8228SOL     OW25582   2.736   1.704   6.648  0.7342 -0.3230 -0.2355
 8228SOL    HW125583   2.737   1.611   6.612 -1.4320 -0.7936  0.7653
 8228SOL    HW225584   2.807   1.758   6.603 -0.1996 -1.5164 -3.3999
 8229SOL     OW25585   4.010   3.130   5.977  0.1651  0.5627  0.7871
 8229SOL    HW125586   4.006   3.039   5.937  1.5524  0.7915  0.0509
 8229SOL    HW225587   3.929   3.146   6.033  0.5063 -1.5972  1.9963
 8230SOL     OW25588   4.710   6.930   4.606 -0.1668 -0.0213 -0.0784
 8230SOL    HW125589   4.761   6.844   4.609 -0.2343 -0.1491 -1.5309
 8230SOL    HW225590   4.756   6.999   4.663  0.1533 -0.8701  0.7107
 8231SOL     OW25591   3.512   5.014   2.165 -0.2735 -0.1663 -0.5874
 8231SOL    HW125592   3.607   4.990   2.143 -0.6263 -0.4401 -1.9424
 8231SOL    HW225593   3.463   4.931   2.194 -0.0697  0.0010  0.2463
 8232SOL     OW25594   3.768   0.953   0.331  0.2610  0.1232  0.2347
 8232SOL    HW125595   3.759   0.938   0.233 -2.0220  1.4145  0.1839
 8232SOL    HW225596   3.703   0.895   0.380  0.0344  0.8593  0.8292
 8233SOL     OW25597   6.896   5.151   6.074  0.6989  0.4345 -0.4551
 8233SOL    HW125598   6.925   5.132   6.167  0.9005  1.2474 -0.3418
 8233SOL    HW225599   6.962   5.213   6.030 -0.2197  1.3648 -0.5802
 8234SOL     OW25600   4.861   1.831   1.088  0.5901  0.3220  0.0528
 8234SOL    HW125601   4.923   1.759   1.059 -2.3131 -1.8867 -1.1155
 8234SOL    HW225602   4.844   1.822   1.186  1.0153  0.0832  0.1087
 8235SOL     OW25603   2.968   2.820   0.919 -0.0148  0.1210  0.2396
 8235SOL    HW125604   3.000   2.729   0.893  2.2685  1.1514 -0.8572
 8235SOL    HW225605   2.901   2.852   0.851 -0.3479 -0.4763  0.2808
 8236SOL     OW25606   5.712   2.471   0.489 -0.0964  0.1240  0.0750
 8236SOL    HW125607   5.697   2.372   0.482 -0.5874  0.2171 -0.1829
 8236SOL    HW225608   5.738   2.494   0.583  0.2094 -0.2709  0.0936
 8237SOL     OW25609   4.023   6.398   4.146  0.4457 -0.6707  0.5102
 8237SOL    HW125610   3.926   6.374   4.154  0.3383 -0.8157 -0.9923
 8237SOL    HW225611   4.056   6.433   4.234 -0.2358 -3.1876  1.8745
 8238SOL     OW25612   6.605   5.169   5.811  0.0670 -0.6695  0.3561
 8238SOL    HW125613   6.539   5.244   5.813  1.7244  0.9132 -0.9925
 8238SOL    HW225614   6.596   5.114   5.895 -3.5346 -1.1306 -0.1731
 8239SOL     OW25615   0.117   3.835   6.309 -0.4753  0.0878 -0.2542
 8239SOL    HW125616   0.171   3.919   6.307  0.1465 -0.2918  0.2318
 8239SOL    HW225617   0.157   3.771   6.374  0.7514 -1.7204 -2.6515
 8240SOL     OW25618   4.045   3.572   2.371  0.4240 -0.1690  0.0265
 8240SOL    HW125619   3.986   3.497   2.399  0.5366 -0.5561 -0.7580
 8240SOL    HW225620   4.074   3.559   2.277  1.2637  0.3407  0.1999
 8241SOL     OW25621   4.297   6.248   6.168 -0.2278  0.2579 -0.2633
 8241SOL    HW125622   4.208   6.290   6.186 -0.3088  0.0737 -0.2280
 8241SOL    HW225623   4.366   6.289   6.227  0.2228  2.2324 -2.0484
 8242SOL     OW25624   1.497   6.007   6.019 -0.1443  0.2714  0.1819
 8242SOL    HW125625   1.406   5.972   6.042 -0.9483  2.6736  0.8968
 8242SOL    HW225626   1.490   6.077   5.949  0.9696  1.3920  1.1316
 8243SOL     OW25627   1.688   3.363   0.170  0.1425 -0.0527 -0.0915
 8243SOL    HW125628   1.626   3.321   0.104 -0.3983 -0.0205  0.3842
 8243SOL    HW225629   1.770   3.396   0.123  0.1256 -0.7426 -0.6186
 8244SOL     OW25630   0.505   5.728   4.008  0.3827  0.2271 -0.3677
 8244SOL    HW125631   0.434   5.743   3.939 -0.1057  1.0942  0.2926
 8244SOL    HW225632   0.588   5.695   3.964 -0.0326  0.4189 -1.3272
 8245SOL     OW25633   4.364   0.123   2.497  0.3512  0.8583 -0.4163
 8245SOL    HW125634   4.383   0.097   2.402 -1.5878 -2.1904 -0.1162
 8245SOL    HW225635   4.297   0.197   2.499 -0.6996 -0.0185 -1.4989
 8246SOL     OW25636   6.463   3.944   4.831  0.1109 -0.2075  0.5567
 8246SOL    HW125637   6.437   3.993   4.748 -1.4696 -0.5888  0.7993
 8246SOL    HW225638   6.544   3.986   4.870  0.8536  0.0141 -1.1373
 8247SOL     OW25639   0.571   6.828   1.748 -0.4142  0.2770  0.0447
 8247SOL    HW125640   0.662   6.834   1.708  0.3807 -0.3731  1.6759
 8247SOL    HW225641   0.571   6.873   1.837 -1.4377 -0.5843  0.4920
 8248SOL     OW25642   5.268   5.206   2.814 -0.0254 -0.0554  0.2765
 8248SOL    HW125643   5.360   5.246   2.806 -0.4148  0.8936  0.4670
 8248SOL    HW225644   5.275   5.115   2.856  0.8716 -0.1950 -0.1443
 8249SOL     OW25645   0.733   3.829   5.859 -0.0208  0.1102  0.5951
 8249SOL    HW125646   0.816   3.797   5.814  0.2202 -1.1446  1.8342
 8249SOL    HW225647   0.756   3.900   5.925  0.1570 -0.5958  1.3033
 8250SOL     OW25648   3.459   3.782   3.056 -0.6116 -0.8682  0.6410
 8250SOL    HW125649   3.556   3.781   3.033 -0.5833 -1.6026  0.7812
 8250SOL    HW225650   3.405   3.765   2.974 -0.6582  0.2842  0.4194
 8251SOL     OW25651   5.684   2.789   4.387 -0.2501  0.1142 -0.2820
 8251SOL    HW125652   5.677   2.696   4.351 -1.0251 -0.4718  1.2621
 8251SOL    HW225653   5.763   2.794   4.449 -0.8989  0.1213  0.5658
 8252SOL     OW25654   2.033   1.434   0.139  0.6755 -0.5654  0.4160
 8252SOL    HW125655   2.117   1.487   0.151  0.8943 -1.1592  1.6130
 8252SOL    HW225656   1.971   1.453   0.215  0.2726 -1.1299  0.2297
 8253SOL     OW25657   4.108   2.885   0.993  0.4334  0.2903  0.4534
 8253SOL    HW125658   4.202   2.906   0.964 -0.0426  4.2345  1.2253
 8253SOL    HW225659   4.105   2.874   1.092 -0.1183  1.6513  0.5945
 8254SOL     OW25660   6.221   3.271   3.732  0.5297  0.4005 -0.2619
 8254SOL    HW125661   6.176   3.225   3.809 -1.3095  1.7296 -0.4765
 8254SOL    HW225662   6.213   3.214   3.650  0.4730 -0.0063  0.0226
 8255SOL     OW25663   1.750   5.632   5.096  1.1243  0.0168  0.0444
 8255SOL    HW125664   1.680   5.581   5.046  1.1722 -0.4533  0.4476
 8255SOL    HW225665   1.793   5.698   5.035  0.5021  0.1383 -0.2758
 8256SOL     OW25666   4.179   1.372   2.430  0.2973  0.4728 -0.2836
 8256SOL    HW125667   4.190   1.424   2.345 -0.8245  1.1964 -0.0039
 8256SOL    HW225668   4.084   1.342   2.438  0.5694 -0.2373  0.3599
 8257SOL     OW25669   5.543   5.368   3.981  0.3786  0.5202  0.4335
 8257SOL    HW125670   5.605   5.388   3.905 -0.8347  0.3095 -0.6489
 8257SOL    HW225671   5.569   5.280   4.022  0.7554  0.3965 -0.0461
 8258SOL     OW25672   0.091   6.475   6.960 -0.0790  0.7306  0.1749
 8258SOL    HW125673  -0.007   6.494   6.967 -0.3322  0.0642 -1.1487
 8258SOL    HW225674   0.140   6.559   6.937 -0.7980  0.4942 -2.5627
 8259SOL     OW25675   4.135   0.905   3.378 -0.1717  0.0752 -0.3116
 8259SOL    HW125676   4.227   0.938   3.360 -0.1756  0.1793 -0.1509
 8259SOL    HW225677   4.068   0.971   3.343 -0.1738  0.6742  0.7730
 8260SOL     OW25678   4.731   0.467   2.375  0.3496  0.1133  0.3914
 8260SOL    HW125679   4.760   0.559   2.347 -1.3261  0.8211  0.8350
 8260SOL    HW225680   4.806   0.422   2.423  0.9909  1.5122  0.7633
 8261SOL     OW25681   6.852   1.391   1.073 -0.1932  0.1686  0.0457
 8261SOL    HW125682   6.848   1.294   1.094  0.8382  0.6741  3.0690
 8261SOL    HW225683   6.768   1.418   1.025  0.5103 -2.5416 -3.0628
 8262SOL     OW25684   1.014   2.604   1.445 -0.2055 -0.2684 -0.6317
 8262SOL    HW125685   1.026   2.666   1.523 -0.8417 -1.5189  0.5011
 8262SOL    HW225686   0.919   2.575   1.440  0.2260 -1.7266 -0.6799
 8263SOL     OW25687   0.310   3.461   0.754  0.3032 -0.1395 -0.1148
 8263SOL    HW125688   0.397   3.504   0.729 -0.1485  0.6471 -0.3719
 8263SOL    HW225689   0.235   3.512   0.713 -0.3261 -0.3370  0.7683
 8264SOL     OW25690   0.541   6.734   2.530  0.6081 -0.1305  0.3637
 8264SOL    HW125691   0.454   6.698   2.496  0.9436 -0.4943 -0.1291
 8264SOL    HW225692   0.526   6.778   2.619 -0.2361  0.5810 -0.1046
 8265SOL     OW25693   7.009   0.354   1.978  0.3617  0.3367  0.3374
 8265SOL    HW125694   7.022   0.334   2.075 -0.5133 -2.6308 -0.0345
 8265SOL    HW225695   7.059   0.286   1.923 -2.0272 -0.2996 -1.1963
 8266SOL     OW25696   1.880   1.329   3.433 -0.5070  0.2426  0.0303
 8266SOL    HW125697   1.818   1.385   3.488 -0.0331  0.7425  0.0629
 8266SOL    HW225698   1.855   1.337   3.337 -0.8796 -0.0498  0.1016
 8267SOL     OW25699   1.774   1.648   1.046 -0.2807 -0.3596  0.5786
 8267SOL    HW125700   1.726   1.562   1.025 -1.9144  0.9385 -1.4690
 8267SOL    HW225701   1.710   1.713   1.087  0.4154  0.5300  0.2932
 8268SOL     OW25702   1.475   0.740   6.904  0.5006  0.1001  0.0126
 8268SOL    HW125703   1.555   0.771   6.854  0.0942  0.8427 -0.1958
 8268SOL    HW225704   1.482   0.642   6.921  0.3437 -0.3207 -2.0754
 8269SOL     OW25705   2.825   2.231   3.075  0.0665 -0.2331 -0.4155
 8269SOL    HW125706   2.852   2.244   3.170  1.5085 -0.7947 -0.7163
 8269SOL    HW225707   2.773   2.311   3.044 -0.2156  0.0586  0.7574
 8270SOL     OW25708   2.909   0.541   3.435 -0.3419 -0.3205  0.4798
 8270SOL    HW125709   2.868   0.450   3.442  0.8635 -1.1981 -2.3103
 8270SOL    HW225710   2.838   0.610   3.439 -1.5299 -1.5108  0.5776
 8271SOL     OW25711   1.936   6.550   3.843  0.4749 -0.0093 -0.0521
 8271SOL    HW125712   1.928   6.475   3.909  2.2294  0.2560  0.5209
 8271SOL    HW225713   1.942   6.512   3.751  1.7240 -0.6286  0.2608
 8272SOL     OW25714   5.090   5.735   6.784  0.0685 -0.1946 -0.1991
 8272SOL    HW125715   5.022   5.772   6.721 -0.3558  0.5639  0.6838
 8272SOL    HW225716   5.132   5.809   6.836  1.2475 -0.6983 -0.3942
 8273SOL     OW25717   1.635   5.921   1.023  0.4470 -0.0398 -0.5199
 8273SOL    HW125718   1.577   5.962   0.952  0.3777 -1.2322 -1.1753
 8273SOL    HW225719   1.700   5.989   1.056 -0.6637  1.0446 -0.4709
 8274SOL     OW25720   5.729   4.587   3.048  0.0059 -0.1378  0.6421
 8274SOL    HW125721   5.812   4.533   3.063  0.2784  0.7677  2.7364
 8274SOL    HW225722   5.750   4.662   2.986  0.2058 -1.0693 -0.4496
 8275SOL     OW25723   3.727   0.666   0.189  0.4412  0.2822  0.2985
 8275SOL    HW125724   3.666   0.602   0.142 -0.9150  1.1374  0.8260
 8275SOL    HW225725   3.731   0.643   0.286  1.0994  0.1315  0.2378
 8276SOL     OW25726   1.392   3.533   6.273  0.0583 -0.1533  0.2892
 8276SOL    HW125727   1.320   3.602   6.282 -1.2511 -1.5679  0.9208
 8276SOL    HW225728   1.414   3.520   6.176  1.0781  1.8573  0.1966
 8277SOL     OW25729   5.861   1.417   1.201  0.1247 -0.9637 -0.3149
 8277SOL    HW125730   5.800   1.343   1.228  2.2356 -2.3260  1.0176
 8277SOL    HW225731   5.954   1.398   1.234  1.0661  1.5756 -1.2211
 8278SOL     OW25732   2.357   1.979   6.235  0.8290 -0.3803  0.6212
 8278SOL    HW125733   2.324   1.886   6.221  0.7273 -0.2717  0.0749
 8278SOL    HW225734   2.427   2.000   6.166  0.0285  0.3224 -0.0055
 8279SOL     OW25735   1.158   0.552   4.804 -0.4893  0.1249 -0.1989
 8279SOL    HW125736   1.063   0.558   4.774 -1.0792  1.1533  1.6375
 8279SOL    HW225737   1.164   0.491   4.883  0.0703  1.2611  0.6644
 8280SOL     OW25738   3.950   3.605   1.335  0.1367 -0.5742 -0.2375
 8280SOL    HW125739   3.888   3.540   1.377 -1.0835 -0.2996 -1.5500
 8280SOL    HW225740   3.962   3.583   1.239  0.6222  0.4570 -0.4296
 8281SOL     OW25741   1.737   4.372   6.117  0.0254  0.0575 -0.3485
 8281SOL    HW125742   1.721   4.343   6.211  0.9909 -0.1211 -0.2245
 8281SOL    HW225743   1.795   4.304   6.071 -1.2022 -0.3263 -1.3617
 8282SOL     OW25744   4.847   1.777   0.295  0.6876 -0.2187  0.3603
 8282SOL    HW125745   4.930   1.804   0.246  0.6395 -0.1289  0.3291
 8282SOL    HW225746   4.770   1.830   0.262  0.4136 -1.0271 -0.3565
 8283SOL     OW25747   6.819   5.160   1.353  0.1884  0.0323  0.0982
 8283SOL    HW125748   6.918   5.150   1.350  0.1104 -1.2381  1.1806
 8283SOL    HW225749   6.791   5.233   1.290  1.7758  0.2659 -0.3692
 8284SOL     OW25750   0.925   5.400   0.969 -0.4395 -0.1050 -0.0816
 8284SOL    HW125751   0.860   5.324   0.979 -0.6514 -0.0566 -0.9606
 8284SOL    HW225752   0.912   5.443   0.880 -1.9666  2.5382  1.2937
 8285SOL     OW25753   3.935   3.879   4.338 -0.1140 -0.0246  0.8223
 8285SOL    HW125754   3.879   3.897   4.419 -1.0157 -0.9731  0.4376
 8285SOL    HW225755   3.923   3.953   4.272 -2.0378 -0.8365  0.1736
 8286SOL     OW25756   5.780   3.949   6.596  0.0338  0.3279  0.3324
 8286SOL    HW125757   5.693   3.973   6.637 -1.4983  1.0338 -3.0119
 8286SOL    HW225758   5.769   3.936   6.498  3.3920 -1.3297 -0.0016
 8287SOL     OW25759   3.016   4.852   4.521  0.7539 -0.3012 -0.6100
 8287SOL    HW125760   2.980   4.833   4.612  1.1568  0.6396 -0.2443
 8287SOL    HW225761   2.943   4.893   4.465  0.1695 -1.9178 -1.0971
 8288SOL     OW25762   2.267   1.934   6.693 -0.1415  0.5442  0.0350
 8288SOL    HW125763   2.174   1.916   6.658 -0.2910 -0.7869  1.0150
 8288SOL    HW225764   2.325   1.964   6.617 -1.2464  0.9408 -0.6953
 8289SOL     OW25765   1.491   5.756   0.488 -0.2155 -0.3797  0.2718
 8289SOL    HW125766   1.437   5.774   0.570  2.4860  2.7131  1.5677
 8289SOL    HW225767   1.439   5.784   0.407 -2.1228 -1.5370  1.0407
 8290SOL     OW25768   4.473   6.178   0.248 -0.4233 -0.1762  0.4496
 8290SOL    HW125769   4.469   6.144   0.342  0.7930  0.8122  0.8944
 8290SOL    HW225770   4.567   6.172   0.215 -0.9550 -1.1816 -0.9944
 8291SOL     OW25771   4.687   6.363   6.503 -0.0541 -0.0070 -0.1386
 8291SOL    HW125772   4.611   6.383   6.440 -0.8398 -3.0017 -0.3116
 8291SOL    HW225773   4.774   6.386   6.459 -0.5348 -2.4742 -2.6586
 8292SOL     OW25774   1.407   0.419   6.678 -0.3750 -0.3061 -0.2506
 8292SOL    HW125775   1.501   0.386   6.684  0.1456  1.1693  0.2065
 8292SOL    HW225776   1.407   0.512   6.640 -1.7708 -0.7718 -1.4955
 8293SOL     OW25777   1.709   1.459   1.360 -0.3509 -0.4165 -0.0551
 8293SOL    HW125778   1.795   1.410   1.347 -0.5205 -0.2509 -2.1579
 8293SOL    HW225779   1.727   1.551   1.394  0.2409 -0.6404  0.2379
 8294SOL     OW25780   4.830   3.878   4.412  0.3760  0.4043 -0.0432
 8294SOL    HW125781   4.835   3.957   4.474  3.0174  0.5075 -0.2752
 8294SOL    HW225782   4.836   3.794   4.466 -0.6846  0.3979  0.0735
 8295SOL     OW25783   4.649   6.267   1.131 -0.1756 -0.1138  0.6469
 8295SOL    HW125784   4.643   6.167   1.131  1.1348 -0.2088  0.2508
 8295SOL    HW225785   4.560   6.305   1.109 -0.2419 -1.2489 -1.2545
 8296SOL     OW25786   4.054   0.854   6.222  0.3438  0.7337  0.5197
 8296SOL    HW125787   4.103   0.878   6.138  0.2686 -1.6622 -0.3061
 8296SOL    HW225788   4.016   0.762   6.213 -0.1488  0.6142  3.0058
 8297SOL     OW25789   0.371   3.402   3.346  0.3898  0.1092 -0.0964
 8297SOL    HW125790   0.460   3.371   3.381 -0.2979 -1.4156  0.4101
 8297SOL    HW225791   0.304   3.398   3.419 -0.4109 -0.1967 -0.8326
 8298SOL     OW25792   4.378   3.153   1.723  0.4549 -0.9804 -0.0047
 8298SOL    HW125793   4.436   3.188   1.797  1.0724  0.3021 -1.0655
 8298SOL    HW225794   4.415   3.065   1.691  2.1684  0.0399 -0.9917
 8299SOL     OW25795   0.904   3.200   0.798  0.0128 -0.2453  0.6051
 8299SOL    HW125796   0.922   3.109   0.836 -1.0908  0.1570  2.1926
 8299SOL    HW225797   0.973   3.264   0.831  1.4872 -0.6733 -1.4422
 8300SOL     OW25798   0.862   6.268   6.041 -0.1655  0.0048 -0.3012
 8300SOL    HW125799   0.899   6.213   6.116 -0.3149  0.0922 -0.1617
 8300SOL    HW225800   0.891   6.230   5.954 -1.5625 -1.2185 -0.2653
 8301SOL     OW25801   3.920   1.784   6.246 -0.2693  0.1513 -0.3005
 8301SOL    HW125802   4.001   1.841   6.257  0.3383 -0.6706 -0.4294
 8301SOL    HW225803   3.849   1.816   6.309  0.9197 -0.4796  1.4356
 8302SOL     OW25804   5.432   6.205   4.714  0.0088 -0.3405  0.1922
 8302SOL    HW125805   5.506   6.215   4.648 -0.4013 -0.9084 -0.3763
 8302SOL    HW225806   5.434   6.280   4.779 -0.0817  0.6906 -0.9692
 8303SOL     OW25807   6.874   1.563   4.692 -0.2807 -0.0536 -0.3512
 8303SOL    HW125808   6.837   1.548   4.600 -0.0752  0.1746 -0.4710
 8303SOL    HW225809   6.830   1.642   4.734  0.0511  0.2042 -0.4849
 8304SOL     OW25810   6.460   5.092   6.643  0.4118 -0.3060 -0.6337
 8304SOL    HW125811   6.491   5.001   6.613  0.4224 -0.5596  0.1337
 8304SOL    HW225812   6.511   5.162   6.594  0.1784 -0.7072 -1.4755
 8305SOL     OW25813   5.211   3.423   3.800  0.1564  0.1001 -0.4884
 8305SOL    HW125814   5.251   3.361   3.732 -1.0509 -0.4553 -0.7023
 8305SOL    HW225815   5.119   3.394   3.823  1.2996 -1.1347  3.1912
 8306SOL     OW25816   6.042   2.882   5.793  0.2175  0.0856  0.5712
 8306SOL    HW125817   6.027   2.981   5.802  0.5657  0.0648  1.4782
 8306SOL    HW225818   5.954   2.835   5.800 -0.0797  0.3730 -0.8329
 8307SOL     OW25819   4.731   5.758   1.089 -0.3288 -0.1064 -0.2804
 8307SOL    HW125820   4.659   5.733   1.024 -0.4518 -0.9553  0.1708
 8307SOL    HW225821   4.738   5.688   1.159 -0.4959  1.0107  0.8836
 8308SOL     OW25822   4.149   6.086   0.300 -0.1072  0.4201 -0.1692
 8308SOL    HW125823   4.216   6.083   0.226 -0.3160  0.9437 -0.3853
 8308SOL    HW225824   4.061   6.050   0.268 -0.1408  0.4532 -0.1143
 8309SOL     OW25825   7.013   6.275   1.822  0.1565  0.2073  0.3456
 8309SOL    HW125826   7.014   6.263   1.722  1.0689  1.2325  0.2121
 8309SOL    HW225827   7.107   6.289   1.855 -0.2052  0.5733  1.2538
 8310SOL     OW25828   1.161   3.366   0.249 -0.0533 -0.0381  0.3765
 8310SOL    HW125829   1.215   3.417   0.316  0.1136 -0.4260  0.5385
 8310SOL    HW225830   1.217   3.347   0.168  0.0684 -0.4691  0.5585
 8311SOL     OW25831   5.892   1.324   3.245 -0.3797  0.2425  0.3958
 8311SOL    HW125832   5.992   1.312   3.246 -0.4073 -0.5228 -1.5869
 8311SOL    HW225833   5.850   1.259   3.308  0.3644  0.7867  1.4946
 8312SOL     OW25834   4.020   5.175   0.504  0.9834 -0.0576 -0.7772
 8312SOL    HW125835   3.954   5.228   0.451  1.9463  0.7124 -1.2405
 8312SOL    HW225836   4.058   5.232   0.576  0.2650 -0.8623  0.2689
 8313SOL     OW25837   4.507   6.594   2.171  0.1206 -0.3615  0.3459
 8313SOL    HW125838   4.462   6.536   2.239 -2.4202  0.4806 -0.4815
 8313SOL    HW225839   4.445   6.608   2.094  1.1823  2.2690 -0.1281
 8314SOL     OW25840   4.946   6.099   0.495  0.0304  0.3142 -0.3837
 8314SOL    HW125841   4.942   5.999   0.490 -0.1086  0.3706 -2.2567
 8314SOL    HW225842   5.007   6.126   0.569  1.9513 -1.2089 -1.3049
 8315SOL     OW25843   4.996   3.562   1.865  0.9379  0.2209  0.0218
 8315SOL    HW125844   4.923   3.569   1.797  0.7908  3.0201  0.3296
 8315SOL    HW225845   4.957   3.534   1.953  0.5743 -0.2198 -0.2773
 8316SOL     OW25846   1.590   3.678   1.327 -0.0452  0.1724  0.1638
 8316SOL    HW125847   1.669   3.617   1.329 -0.7939 -0.9368 -1.7976
 8316SOL    HW225848   1.582   3.719   1.237 -2.5125 -0.9012 -0.1854
 8317SOL     OW25849   2.252   4.159   4.244  0.7102  0.4437  0.6826
 8317SOL    HW125850   2.279   4.080   4.299  0.1758 -0.6352 -0.5373
 8317SOL    HW225851   2.170   4.136   4.191  1.3565  1.3238 -0.7517
 8318SOL     OW25852   5.422   0.818   3.790  0.4663 -0.1632 -0.7900
 8318SOL    HW125853   5.378   0.736   3.755  1.2307 -0.6844 -0.5496
 8318SOL    HW225854   5.432   0.884   3.715  1.1294 -0.8467 -1.3179
 8319SOL     OW25855   4.071   2.720   5.327 -0.7315 -0.2055  0.5083
 8319SOL    HW125856   4.106   2.642   5.276 -0.2823  0.3937 -0.1152
 8319SOL    HW225857   4.007   2.771   5.270 -0.7492  0.0876  0.7897
 8320SOL     OW25858   2.957   4.217   6.776  0.2218 -0.2382  0.0472
 8320SOL    HW125859   2.949   4.276   6.697  0.5764  0.8975  0.8324
 8320SOL    HW225860   2.867   4.203   6.817  0.4507  2.5910  1.8150
 8321SOL     OW25861   2.462   1.438   1.224  0.5856  0.1326  0.2685
 8321SOL    HW125862   2.365   1.437   1.198  0.7723  1.6447 -0.5902
 8321SOL    HW225863   2.515   1.486   1.154  1.7387  0.6575  1.4630
 8322SOL     OW25864   0.773   6.140   6.843  0.4651  0.9644  0.1342
 8322SOL    HW125865   0.804   6.125   6.749  0.7094  1.7219  0.0928
 8322SOL    HW225866   0.675   6.122   6.849  0.6518 -0.2182 -0.0077
 8323SOL     OW25867   6.685   0.226   2.837  0.1567 -0.0108  0.6123
 8323SOL    HW125868   6.680   0.149   2.774  1.0204 -0.6041  1.2601
 8323SOL    HW225869   6.780   0.254   2.849 -0.1818  1.6334 -0.1671
 8324SOL     OW25870   0.433   1.088   2.825  0.0593 -0.5724 -0.1065
 8324SOL    HW125871   0.523   1.070   2.865  1.7478  0.2340 -3.2029
 8324SOL    HW225872   0.395   1.172   2.865  2.0612  0.6918 -0.6741
 8325SOL     OW25873   3.870   2.817   5.173  0.0243 -0.0544 -0.0421
 8325SOL    HW125874   3.772   2.798   5.179 -0.7140  3.2474  0.9028
 8325SOL    HW225875   3.890   2.861   5.086  0.7115 -0.7912 -0.2680
 8326SOL     OW25876   5.046   3.552   6.662 -0.0695  0.2290 -0.3853
 8326SOL    HW125877   4.989   3.588   6.736 -0.8694  0.8312 -1.2871
 8326SOL    HW225878   5.020   3.457   6.644  1.9010 -0.8395  1.8483
 8327SOL     OW25879   4.862   2.500   0.055 -0.1110  0.4244 -0.3428
 8327SOL    HW125880   4.846   2.500  -0.044 -0.7910 -2.4648 -0.3191
 8327SOL    HW225881   4.882   2.593   0.085  0.6676  1.3142 -3.2647
 8328SOL     OW25882   4.021   3.937   7.004  0.3200 -0.2090  0.9409
 8328SOL    HW125883   4.020   3.837   7.010  1.5997 -0.3163 -0.1257
 8328SOL    HW225884   4.056   3.964   6.914  1.4968  1.2067  1.7903
 8329SOL     OW25885   1.899   4.508   5.676  0.7095  0.6498  0.1758
 8329SOL    HW125886   1.883   4.464   5.764  0.1974  0.1558 -0.1522
 8329SOL    HW225887   1.832   4.580   5.662  0.4585  0.3814 -0.0281
 8330SOL     OW25888   1.863   6.892   1.075  0.0737 -0.1868 -0.0409
 8330SOL    HW125889   1.880   6.870   0.979 -0.1980 -0.3822 -0.0481
 8330SOL    HW225890   1.777   6.849   1.104  1.1051 -1.7795  0.8304
 8331SOL     OW25891   1.839   1.586   2.698 -0.2451 -0.0720  0.3718
 8331SOL    HW125892   1.804   1.666   2.650 -1.6384 -0.2864  0.9919
 8331SOL    HW225893   1.925   1.609   2.743 -0.4125  0.9576  0.1880
 8332SOL     OW25894   4.864   4.460   3.294  0.5557 -0.1551 -0.3165
 8332SOL    HW125895   4.887   4.362   3.296  0.3530 -0.1945  0.9638
 8332SOL    HW225896   4.779   4.473   3.243  0.1744 -0.7513  0.1522
 8333SOL     OW25897   1.474   6.338   6.860  0.4432 -0.2095  0.3784
 8333SOL    HW125898   1.393   6.293   6.821  1.0881 -0.3047 -0.8937
 8333SOL    HW225899   1.459   6.353   6.958 -1.2451  0.0668  0.1142
 8334SOL     OW25900   2.044   1.537   4.399  0.3036  0.2394  0.1491
 8334SOL    HW125901   2.127   1.485   4.422 -0.3796 -0.1684  1.8731
 8334SOL    HW225902   2.011   1.510   4.309  1.3178 -0.5582  0.0013
 8335SOL     OW25903   0.978   0.003   0.389 -0.1280  0.3003 -0.0683
 8335SOL    HW125904   0.923  -0.032   0.313 -0.4703  1.0350 -0.1658
 8335SOL    HW225905   0.921   0.012   0.471 -0.2062  1.2076 -0.2090
 8336SOL     OW25906   0.146   0.482   2.279  0.1799 -0.5234 -0.2095
 8336SOL    HW125907   0.134   0.383   2.278 -0.7899 -0.4908  1.8321
 8336SOL    HW225908   0.160   0.513   2.374  0.4008  1.3039 -0.7888
 8337SOL     OW25909   2.400   0.763   3.495  0.3884  0.5492  0.5110
 8337SOL    HW125910   2.395   0.671   3.534  1.7931  0.3189  0.2031
 8337SOL    HW225911   2.477   0.768   3.431 -1.2475  1.1818 -1.5163
 8338SOL     OW25912   1.020   6.140   1.489 -0.0967  0.5265  0.2350
 8338SOL    HW125913   1.017   6.129   1.390 -0.5307 -0.1511  0.3154
 8338SOL    HW225914   0.936   6.103   1.529  1.4210 -2.3083  1.1274
 8339SOL     OW25915   6.757   2.356   1.936 -0.4000  0.3380 -0.2755
 8339SOL    HW125916   6.752   2.290   1.862 -1.4138 -1.0046  0.9345
 8339SOL    HW225917   6.676   2.415   1.934 -0.7156 -0.0752  0.0833
 8340SOL     OW25918   6.255   2.462   1.941 -0.1827 -0.0345 -0.4175
 8340SOL    HW125919   6.245   2.390   1.873 -0.2132  1.1264 -1.6983
 8340SOL    HW225920   6.256   2.551   1.895  1.2861  0.7221  0.9713
 8341SOL     OW25921   3.208   5.414   1.794 -0.0624  0.1705 -0.1229
 8341SOL    HW125922   3.211   5.508   1.759  0.5877  0.2398  0.1073
 8341SOL    HW225923   3.135   5.364   1.748 -0.5698  0.8513 -0.0845
 8342SOL     OW25924   4.431   1.155   1.817  0.0116 -0.3689  0.2336
 8342SOL    HW125925   4.471   1.174   1.727  1.7225 -0.1315  1.0045
 8342SOL    HW225926   4.410   1.242   1.863  0.9223 -0.4332  0.8014
 8343SOL     OW25927   1.706   5.511   6.029 -0.1382 -0.1180  0.5083
 8343SOL    HW125928   1.641   5.460   6.084  1.0826 -1.6531  0.5917
 8343SOL    HW225929   1.787   5.455   6.013  1.7393  2.1617  1.4883
 8344SOL     OW25930   4.340   0.477   4.567 -0.2220  0.0283 -0.2873
 8344SOL    HW125931   4.292   0.391   4.582 -1.7762  0.9350  0.2233
 8344SOL    HW225932   4.439   0.462   4.574 -0.4320 -1.7765 -0.6818
 8345SOL     OW25933   5.416   3.799   3.152  0.6354 -0.7154 -0.2923
 8345SOL    HW125934   5.464   3.769   3.070  0.7655  0.8502 -0.8093
 8345SOL    HW225935   5.481   3.816   3.225  0.7318 -0.0550 -0.5277
 8346SOL     OW25936   4.642   2.312   0.346  0.3565 -0.5570 -0.0563
 8346SOL    HW125937   4.580   2.289   0.270 -0.5667  1.9535 -0.1712
 8346SOL    HW225938   4.653   2.233   0.405 -0.1720 -2.1125 -1.9548
 8347SOL     OW25939   2.201   0.601   4.372 -0.2760  0.1863  0.0319
 8347SOL    HW125940   2.185   0.671   4.303 -2.1031  1.0452  1.2491
 8347SOL    HW225941   2.274   0.631   4.433  1.0691 -0.4004 -1.2122
 8348SOL     OW25942   0.915   0.138   0.850 -0.0849  0.0755  0.1276
 8348SOL    HW125943   0.847   0.164   0.782 -0.6953 -0.7388  0.4048
 8348SOL    HW225944   0.995   0.100   0.804 -0.3900 -0.2381 -0.1571
 8349SOL     OW25945   5.755   5.552   4.782 -0.2058  0.2803 -0.3637
 8349SOL    HW125946   5.671   5.500   4.770 -0.3185  0.1398  0.9054
 8349SOL    HW225947   5.779   5.598   4.696 -1.2944 -0.0870 -0.8751
 8350SOL     OW25948   5.943   0.911   4.853  0.1222  0.0722 -0.6660
 8350SOL    HW125949   5.858   0.891   4.804 -1.2607  0.2558  1.5424
 8350SOL    HW225950   6.000   0.829   4.854 -0.3832 -0.3089 -1.4614
 8351SOL     OW25951   3.417   4.943   4.265 -0.5495  0.1512  0.0590
 8351SOL    HW125952   3.380   4.993   4.343 -0.7717 -0.4651  0.3545
 8351SOL    HW225953   3.385   4.848   4.268 -0.8537  0.2179 -0.9834
 8352SOL     OW25954   6.709   6.917   4.690 -0.1642  0.2101  1.2499
 8352SOL    HW125955   6.707   6.885   4.784 -0.7746 -0.4140  1.0397
 8352SOL    HW225956   6.620   6.958   4.667 -0.4245 -0.6777  0.6120
 8353SOL     OW25957   0.039   4.741   2.231 -0.3916  0.7237 -0.0912
 8353SOL    HW125958   0.012   4.760   2.325  0.1685  2.3066 -0.2198
 8353SOL    HW225959  -0.012   4.661   2.197  0.2165 -0.5590  1.8798
 8354SOL     OW25960   3.879   1.953   6.538 -0.3654  0.4087 -0.5311
 8354SOL    HW125961   3.927   1.870   6.510 -1.3703 -0.1710 -0.5794
 8354SOL    HW225962   3.926   2.033   6.501  1.1111 -0.0712  0.2261
 8355SOL     OW25963   2.989   1.097   0.540 -0.1413  0.3141 -0.2309
 8355SOL    HW125964   3.087   1.117   0.549  0.1890 -0.6374 -1.4001
 8355SOL    HW225965   2.948   1.163   0.477  0.6354 -1.5861 -2.9018
 8356SOL     OW25966   1.217   6.766   0.204  0.0231 -0.4606 -0.3247
 8356SOL    HW125967   1.171   6.789   0.290 -0.7295 -0.2308 -0.7763
 8356SOL    HW225968   1.148   6.745   0.134  0.6461 -1.3724 -0.6707
 8357SOL     OW25969   3.768   0.623   5.611  0.9069  0.5547  0.6396
 8357SOL    HW125970   3.690   0.585   5.562  1.3877 -0.7088  0.7947
 8357SOL    HW225971   3.826   0.674   5.547  0.3623  0.8308  0.3659
 8358SOL     OW25972   1.692   4.346   6.402  0.1418  0.2982 -0.4644
 8358SOL    HW125973   1.601   4.306   6.392 -1.1098  2.9141 -0.3049
 8358SOL    HW225974   1.739   4.304   6.480 -0.3652 -1.9815 -1.3183
 8359SOL     OW25975   3.626   5.570   3.234 -0.7942  0.3186  0.1332
 8359SOL    HW125976   3.686   5.520   3.298 -0.5170  1.1478  0.5361
 8359SOL    HW225977   3.541   5.519   3.222  0.5337 -1.6409 -1.5953
 8360SOL     OW25978   3.335   4.476   1.605 -0.4247  0.3144  0.1060
 8360SOL    HW125979   3.398   4.524   1.666 -0.5604 -0.9898  1.3287
 8360SOL    HW225980   3.313   4.535   1.527 -0.1160  1.9936  1.2216
 8361SOL     OW25981   0.144   6.693   3.332 -0.1144  0.4879  0.2805
 8361SOL    HW125982   0.143   6.790   3.306  0.3738  0.6419  0.8033
 8361SOL    HW225983   0.134   6.637   3.250 -1.6327  0.9798  0.0974
 8362SOL     OW25984   4.273   1.622   0.277  0.3360 -0.0003 -0.2175
 8362SOL    HW125985   4.250   1.587   0.367 -1.1254  1.8599  0.1760
 8362SOL    HW225986   4.277   1.545   0.212  0.9156 -1.2973  1.2793
 8363SOL     OW25987   0.376   3.461   6.249 -0.0018  0.3343 -0.0598
 8363SOL    HW125988   0.434   3.379   6.248 -0.3332  0.0962 -0.1682
 8363SOL    HW225989   0.343   3.479   6.156 -0.2956  0.3256  0.0407
 8364SOL     OW25990   6.145   3.995   3.746  0.4123 -0.2689  0.5371
 8364SOL    HW125991   6.233   4.026   3.782  0.4592 -0.6240  0.7249
 8364SOL    HW225992   6.137   4.024   3.650  1.2763 -1.2911  0.1248
 8365SOL     OW25993   1.179   3.703   2.739 -1.0261  0.5901 -0.5655
 8365SOL    HW125994   1.147   3.787   2.783 -0.3379  0.6188 -0.1139
 8365SOL    HW225995   1.275   3.713   2.712 -1.3338  0.4500 -1.7741
 8366SOL     OW25996   2.767   6.040   2.754  0.1809  0.4299  0.0139
 8366SOL    HW125997   2.858   6.005   2.731 -0.5336 -0.5016 -1.5049
 8366SOL    HW225998   2.764   6.139   2.736  1.2053  0.7085  1.1868
 8367SOL     OW25999   4.011   6.489   3.528 -0.1473 -0.5721 -0.4605
 8367SOL    HW126000   4.082   6.491   3.458 -0.4841  2.0582 -0.8334
 8367SOL    HW226001   4.045   6.440   3.608  1.4395 -0.8483 -1.2691
 8368SOL     OW26002   2.998   6.746   5.559  0.2376 -0.1264  0.1672
 8368SOL    HW126003   3.017   6.772   5.464  1.4021 -0.5254  0.2785
 8368SOL    HW226004   2.901   6.758   5.578  0.3170  1.8388 -0.4865
 8369SOL     OW26005   0.743   4.768   6.009 -0.6318  0.6003  0.4586
 8369SOL    HW126006   0.658   4.757   5.957 -0.2687 -0.5244  0.0781
 8369SOL    HW226007   0.743   4.704   6.086  1.2649 -1.8631 -1.4375
 8370SOL     OW26008   2.370   2.940   1.557 -0.3168  0.4496 -0.1754
 8370SOL    HW126009   2.294   2.998   1.528 -1.2482 -1.1355 -1.0645
 8370SOL    HW226010   2.336   2.873   1.624  0.0417 -0.9150 -1.3211
 8371SOL     OW26011   2.591   4.441   1.234  0.3371  0.2136  0.0838
 8371SOL    HW126012   2.660   4.370   1.249  0.9886  1.1378  1.6163
 8371SOL    HW226013   2.575   4.451   1.136  1.6700 -0.6849 -0.2519
 8372SOL     OW26014   1.952   5.801   4.392 -0.3276 -0.1542 -0.4816
 8372SOL    HW126015   1.903   5.746   4.324 -0.7862 -1.2416  0.7063
 8372SOL    HW226016   2.048   5.773   4.394 -0.1668  0.3195 -1.1079
 8373SOL     OW26017   3.653   0.989   3.462 -0.3183 -0.3891  0.0503
 8373SOL    HW126018   3.687   1.019   3.551 -1.0551 -0.5099  0.3850
 8373SOL    HW226019   3.697   1.041   3.389  0.0247 -0.0362  0.5087
 8374SOL     OW26020   0.916   0.706   5.973  0.0533 -0.4994  0.3586
 8374SOL    HW126021   0.952   0.613   5.973  0.1760 -0.4515  0.2260
 8374SOL    HW226022   0.973   0.764   5.916  1.1035  0.0984  1.9332
 8375SOL     OW26023   4.757   6.901   6.839  0.9522 -0.3792  0.0015
 8375SOL    HW126024   4.706   6.917   6.924 -0.0782 -2.1969 -0.2111
 8375SOL    HW226025   4.716   6.955   6.765  0.1467 -0.8073  0.1179
 8376SOL     OW26026   2.686   0.266   3.810  0.2858 -0.4930 -0.6143
 8376SOL    HW126027   2.739   0.188   3.844  0.1413 -0.0839  0.6172
 8376SOL    HW226028   2.742   0.348   3.813 -0.3090 -0.1071  0.4378
 8377SOL     OW26029   6.048   4.161   2.367  0.4321 -0.0224  0.1730
 8377SOL    HW126030   5.958   4.173   2.324  0.9979 -0.0293 -1.0774
 8377SOL    HW226031   6.037   4.122   2.458 -0.9876  2.4004  1.1446
 8378SOL     OW26032   0.094   2.124   1.820 -0.0450  0.4239  0.2648
 8378SOL    HW126033   0.023   2.063   1.855 -1.2862  2.4748  1.4752
 8378SOL    HW226034   0.068   2.155   1.728  0.9821 -1.3997 -0.6977
 8379SOL     OW26035   6.966   1.614   1.206 -0.1456  0.7579 -0.2380
 8379SOL    HW126036   6.891   1.675   1.180 -0.2472  0.0643 -1.6537
 8379SOL    HW226037   6.966   1.533   1.147 -0.2799 -0.8640  1.8560
 8380SOL     OW26038   5.684   2.282   3.418 -0.2464 -0.2015  0.7686
 8380SOL    HW126039   5.718   2.287   3.324 -0.8275 -1.9720  0.4333
 8380SOL    HW226040   5.586   2.300   3.418 -0.3755 -0.9038  0.9392
 8381SOL     OW26041   6.748   5.434   6.427 -0.5358  0.2980  0.2451
 8381SOL    HW126042   6.791   5.520   6.456  1.1290  0.4780 -2.4557
 8381SOL    HW226043   6.651   5.450   6.407 -0.1793  1.6264 -0.5033
 8382SOL     OW26044   1.795   0.541   2.433  0.3571  0.5375  0.6996
 8382SOL    HW126045   1.700   0.569   2.421  0.0972 -0.4851  0.2463
 8382SOL    HW226046   1.804   0.444   2.409  1.7926  0.9656 -0.6348
 8383SOL     OW26047   2.515   1.358   5.040 -0.6861 -0.3510 -0.2829
 8383SOL    HW126048   2.457   1.288   4.999 -0.6303  0.5380 -1.9645
 8383SOL    HW226049   2.459   1.435   5.071 -0.7008 -0.8991  1.1487
 8384SOL     OW26050   5.741   1.544   6.328 -0.3631 -0.5060  0.3915
 8384SOL    HW126051   5.796   1.533   6.246 -0.9727 -0.2559 -0.0613
 8384SOL    HW226052   5.689   1.630   6.322 -0.3494 -0.4420  1.0730
 8385SOL     OW26053   6.587   1.810   2.665  0.4662  0.3492 -0.4106
 8385SOL    HW126054   6.609   1.809   2.762  0.8232  0.5174 -0.4871
 8385SOL    HW226055   6.596   1.904   2.630  0.5744  0.2484 -0.6556
 8386SOL     OW26056   6.827   5.638   2.680 -0.0917  0.2641 -0.0749
 8386SOL    HW126057   6.785   5.550   2.659 -1.1215  0.6547  0.3161
 8386SOL    HW226058   6.831   5.694   2.597  0.9402 -0.2893 -0.4159
 8387SOL     OW26059   6.058   1.661   2.318 -0.1671  0.3420  0.1131
 8387SOL    HW126060   5.986   1.730   2.319 -0.9537 -0.4535 -0.2482
 8387SOL    HW226061   6.132   1.688   2.380 -0.2308  1.7345 -0.3904
 8388SOL     OW26062   2.210   5.197   6.317  0.3019 -0.2868 -0.3697
 8388SOL    HW126063   2.164   5.277   6.279  0.6026  0.4374  0.7479
 8388SOL    HW226064   2.150   5.153   6.385  0.7576 -0.0555  0.1932
 8389SOL     OW26065   5.548   1.011   2.055 -0.4313  0.1880 -0.4280
 8389SOL    HW126066   5.457   0.984   2.025 -1.1541  0.1901  1.6115
 8389SOL    HW226067   5.617   0.976   1.991 -1.7526 -1.0471 -1.2212
 8390SOL     OW26068   1.896   0.546   4.877  0.1679  0.0135 -0.1153
 8390SOL    HW126069   1.958   0.496   4.937  0.8870  0.2932 -0.6183
 8390SOL    HW226070   1.898   0.506   4.785 -0.3064  0.1029 -0.1699
 8391SOL     OW26071   0.060   4.970   1.575  0.2527  0.1666  0.2393
 8391SOL    HW126072  -0.035   5.000   1.574  0.6518  1.4753 -0.5863
 8391SOL    HW226073   0.105   5.005   1.657 -0.3448 -1.7558  1.4390
 8392SOL     OW26074   6.403   3.575   3.652 -0.0943  0.5390 -0.5008
 8392SOL    HW126075   6.438   3.482   3.663  1.7386  0.7696 -3.3242
 8392SOL    HW226076   6.303   3.574   3.655 -0.1835 -1.8119 -1.9454
 8393SOL     OW26077   5.551   1.730   2.709 -0.0083  0.2666 -0.1289
 8393SOL    HW126078   5.573   1.826   2.729 -0.1688  0.5870 -1.4084
 8393SOL    HW226079   5.537   1.681   2.795  1.9779  0.9287  0.6478
 8394SOL     OW26080   4.825   1.708   1.669  0.3675  0.6238  0.2419
 8394SOL    HW126081   4.730   1.676   1.676  0.1018  0.7907 -1.9459
 8394SOL    HW226082   4.826   1.808   1.669  0.5265  0.6221  0.1102
 8395SOL     OW26083   2.766   6.251   4.123  0.1174  0.3704  0.0196
 8395SOL    HW126084   2.757   6.197   4.206 -2.1485  0.4193 -0.1359
 8395SOL    HW226085   2.763   6.348   4.147 -0.9211  0.3840 -0.1254
 8396SOL     OW26086   4.157   5.485   3.020  0.4616  0.3567  0.0258
 8396SOL    HW126087   4.136   5.553   3.090  2.2421 -1.1586  2.1684
 8396SOL    HW226088   4.234   5.517   2.964  0.7376  0.5028  0.4799
 8397SOL     OW26089   5.385   0.359   3.584 -0.3888  0.8063  0.2397
 8397SOL    HW126090   5.396   0.455   3.608 -0.7680  0.9217 -0.0542
 8397SOL    HW226091   5.475   0.314   3.586 -0.2100  1.1667  0.3613
 8398SOL     OW26092   5.158   4.666   0.141  0.5767 -0.2897  0.0902
 8398SOL    HW126093   5.242   4.684   0.091 -0.3799 -0.3251 -1.6094
 8398SOL    HW226094   5.177   4.666   0.240  2.2222  1.4450 -0.1594
 8399SOL     OW26095   5.795   0.311   6.088 -0.3362 -0.4344  0.6386
 8399SOL    HW126096   5.717   0.253   6.068  0.2480 -1.0540  0.1003
 8399SOL    HW226097   5.857   0.311   6.009 -1.2330  2.4514 -0.1937
 8400SOL     OW26098   2.216   3.796   4.239 -0.2636  0.6118 -0.1256
 8400SOL    HW126099   2.198   3.795   4.141 -0.4406  0.0791 -0.0890
 8400SOL    HW226100   2.179   3.713   4.281 -2.9306  2.1620  0.8832
 8401SOL     OW26101   1.298   0.673   6.200  0.1145 -0.0943 -0.3322
 8401SOL    HW126102   1.307   0.574   6.209 -0.4800 -0.1211 -0.0059
 8401SOL    HW226103   1.214   0.704   6.244  1.1228  0.7608  1.1145
 8402SOL     OW26104   6.474   2.084   1.645 -0.2599  0.6307  0.3669
 8402SOL    HW126105   6.393   2.123   1.690  0.2969 -0.4886  2.4205
 8402SOL    HW226106   6.556   2.109   1.695  0.3414 -1.0425  0.2880
 8403SOL     OW26107   5.746   3.435   4.577 -0.1346 -0.1194  0.7525
 8403SOL    HW126108   5.698   3.458   4.661  0.2794  0.8805  0.7238
 8403SOL    HW226109   5.732   3.506   4.509  0.1778 -0.5393  0.2371
 8404SOL     OW26110   3.223   6.772   3.738  0.5579 -0.2335  0.1868
 8404SOL    HW126111   3.316   6.735   3.742 -0.1235 -2.4976 -2.2139
 8404SOL    HW226112   3.161   6.703   3.701 -2.4806  0.6362  3.1712
 8405SOL     OW26113   2.936   2.836   5.665  0.0470  0.3405 -0.6878
 8405SOL    HW126114   2.945   2.810   5.761 -1.0279  1.9415 -0.1114
 8405SOL    HW226115   2.858   2.788   5.624  0.8294 -0.7458 -0.9230
 8406SOL     OW26116   3.972   0.310   0.685 -0.2741  0.0786 -0.1018
 8406SOL    HW126117   4.016   0.374   0.748 -0.1594  0.0486 -0.1505
 8406SOL    HW226118   3.990   0.339   0.591 -0.0968 -0.1074 -0.1261
 8407SOL     OW26119   4.318   6.310   4.192 -0.2485 -0.5350  1.2550
 8407SOL    HW126120   4.237   6.349   4.148  0.4324 -0.1871  0.2833
 8407SOL    HW226121   4.298   6.216   4.220 -0.5615 -0.9543 -0.2621
 8408SOL     OW26122   5.649   3.944   2.294 -0.3632 -0.0913 -0.0025
 8408SOL    HW126123   5.659   3.890   2.210 -0.1665 -1.0375  0.6076
 8408SOL    HW226124   5.695   3.897   2.369 -0.5548  0.7324  0.6475
 8409SOL     OW26125   3.090   6.343   0.958  0.1106 -0.2472  0.0785
 8409SOL    HW126126   3.147   6.291   1.022 -0.4443 -1.2503 -0.2276
 8409SOL    HW226127   3.142   6.422   0.924  2.2949 -2.4222 -2.0679
 8410SOL     OW26128   6.537   1.848   3.953  0.1022  0.5081 -1.0237
 8410SOL    HW126129   6.610   1.909   3.983  0.5524 -0.0778 -0.9066
 8410SOL    HW226130   6.542   1.837   3.853  2.3691 -2.2063 -0.7352
 8411SOL     OW26131   2.168   6.049   0.503  0.1502 -0.2169 -0.0865
 8411SOL    HW126132   2.146   6.033   0.600  0.0148  2.0783  0.3265
 8411SOL    HW226133   2.090   6.092   0.458  1.4917  2.2574 -0.1991
 8412SOL     OW26134   3.531   1.887   2.529  0.4738 -0.1714  1.0650
 8412SOL    HW126135   3.511   1.821   2.458  0.0092  0.8655  0.2065
 8412SOL    HW226136   3.630   1.900   2.537  0.5006  0.9246 -0.5791
 8413SOL     OW26137   5.919   3.784   0.557 -0.3763 -0.2864  0.3449
 8413SOL    HW126138   5.903   3.801   0.654  1.9507 -1.7161  1.0617
 8413SOL    HW226139   5.996   3.840   0.526  0.0155 -1.1135 -0.2154
 8414SOL     OW26140   1.689   1.219   3.828  0.1724 -0.6383  0.6409
 8414SOL    HW126141   1.760   1.193   3.763 -0.2187  0.0748 -0.0863
 8414SOL    HW226142   1.728   1.277   3.899  0.2275  0.1507 -0.0253
 8415SOL     OW26143   0.845   6.613   4.005  0.0212  0.8767  0.0714
 8415SOL    HW126144   0.875   6.698   3.964  1.4701  0.3781  0.0614
 8415SOL    HW226145   0.748   6.620   4.028  0.0551  2.4245 -0.1527
 8416SOL     OW26146   6.737   2.088   3.648 -0.6686 -0.2385  0.1553
 8416SOL    HW126147   6.734   2.178   3.692 -1.1945  0.6641 -1.6313
 8416SOL    HW226148   6.833   2.060   3.638 -0.4647  0.4316  0.1424
 8417SOL     OW26149   1.870   3.507   6.571  0.1475  0.2131  0.1267
 8417SOL    HW126150   1.876   3.606   6.556  0.7514  0.3412  1.1027
 8417SOL    HW226151   1.954   3.475   6.612  0.2821 -0.8754 -0.9560
 8418SOL     OW26152   5.822   6.676   2.042 -0.0515 -0.6312  0.0995
 8418SOL    HW126153   5.763   6.669   1.961 -2.2582 -0.1711  1.5641
 8418SOL    HW226154   5.876   6.760   2.038 -1.2435  0.1383 -0.2365
 8419SOL     OW26155   0.709   0.958   1.901  0.6151 -0.2544  0.0869
 8419SOL    HW126156   0.750   0.901   1.830  1.2670  1.5205 -1.0117
 8419SOL    HW226157   0.617   0.924   1.921  1.0052 -1.7330 -0.4448
 8420SOL     OW26158   3.145   0.067   2.308  0.6742  0.0464  0.1441
 8420SOL    HW126159   3.238   0.034   2.327  0.6290 -0.5207 -0.5775
 8420SOL    HW226160   3.140   0.100   2.214  0.0757 -0.1879  0.0871
 8421SOL     OW26161   2.539   6.598   1.901  0.3027 -0.1251  0.0438
 8421SOL    HW126162   2.543   6.695   1.876  1.5844 -0.1168  0.2206
 8421SOL    HW226163   2.513   6.590   1.997  0.1231  0.0450  0.0100
 8422SOL     OW26164   3.907   1.851   2.216 -0.4115  0.2927 -0.1604
 8422SOL    HW126165   3.999   1.815   2.203  0.0256  1.4639 -0.4494
 8422SOL    HW226166   3.855   1.790   2.275  0.6299 -0.2526  0.2073
 8423SOL     OW26167   5.083   3.566   5.105  0.5500 -0.6059 -0.5081
 8423SOL    HW126168   5.002   3.583   5.047  1.0709  2.0404 -0.6185
 8423SOL    HW226169   5.055   3.565   5.201  0.5153  2.7197 -0.3413
 8424SOL     OW26170   2.241   1.952   3.672  0.2148 -0.0207  0.4038
 8424SOL    HW126171   2.262   1.968   3.576 -0.8627  1.2121  0.3382
 8424SOL    HW226172   2.272   2.030   3.727  1.0678 -0.8309  1.1186
 8425SOL     OW26173   3.813   2.930   4.932 -0.4646  0.0147 -0.2126
 8425SOL    HW126174   3.777   2.998   4.995  0.3084  1.8348 -1.6255
 8425SOL    HW226175   3.737   2.883   4.886 -1.0358  0.7616 -0.0542
 8426SOL     OW26176   3.325   2.991   1.582  0.4464 -0.3234 -0.3292
 8426SOL    HW126177   3.315   3.080   1.627  1.4053  0.0974 -0.9290
 8426SOL    HW226178   3.260   2.927   1.622 -1.3093  1.0213 -0.8914
 8427SOL     OW26179   3.482   3.152   2.504  0.1209 -0.6139 -0.2174
 8427SOL    HW126180   3.537   3.192   2.578 -0.7943 -1.4665  0.9499
 8427SOL    HW226181   3.525   3.067   2.474 -0.6640 -1.4262  0.8867
 8428SOL     OW26182   6.414   6.455   6.765  0.3738 -0.1781  0.2676
 8428SOL    HW126183   6.370   6.497   6.844  0.7941  2.5956 -0.8665
 8428SOL    HW226184   6.347   6.441   6.692  0.6489  0.6034 -0.1430
 8429SOL     OW26185   2.726   5.337   6.200 -0.3258 -0.5662  0.1374
 8429SOL    HW126186   2.657   5.301   6.137 -0.8389 -2.4593  1.6625
 8429SOL    HW226187   2.812   5.288   6.185  0.0783  0.2609 -0.2918
 8430SOL     OW26188   5.769   4.484   5.268 -0.1076  0.0337  0.6422
 8430SOL    HW126189   5.746   4.460   5.173  0.5491  1.7579  0.0195
 8430SOL    HW226190   5.867   4.502   5.275 -0.2927  0.7597  1.4628
 8431SOL     OW26191   3.643   2.992   0.043  0.3122 -0.0601 -0.7275
 8431SOL    HW126192   3.623   3.056  -0.030  1.8767  0.4881 -0.7169
 8431SOL    HW226193   3.579   2.915   0.039 -0.5885  0.7166 -1.7058
 8432SOL     OW26194   1.230   4.724   4.637  0.3874  0.5770  0.1928
 8432SOL    HW126195   1.328   4.713   4.617  0.8356  0.8179  2.0980
 8432SOL    HW226196   1.211   4.693   4.730 -1.6576 -0.9016 -0.6308
 8433SOL     OW26197   4.405   0.232   6.604  0.0425  0.2853  0.1623
 8433SOL    HW126198   4.333   0.243   6.536 -0.7857  0.5683  1.0665
 8433SOL    HW226199   4.449   0.320   6.621 -0.1427  0.3275  0.4203
 8434SOL     OW26200   2.553   0.342   4.379  0.7243 -0.4273 -0.1908
 8434SOL    HW126201   2.652   0.340   4.397  0.7398  1.3396  0.0759
 8434SOL    HW226202   2.503   0.343   4.466  0.5118 -0.1785 -0.3152
 8435SOL     OW26203   3.998   6.666   2.403  0.1006  0.5862  0.1318
 8435SOL    HW126204   3.956   6.580   2.431 -0.4366  1.0638  0.8483
 8435SOL    HW226205   3.997   6.730   2.480  0.6755  1.1682 -0.3286
 8436SOL     OW26206   2.799   5.466   3.130 -0.9680 -0.3769  0.0224
 8436SOL    HW126207   2.755   5.541   3.082 -0.8690  0.0196  0.5483
 8436SOL    HW226208   2.782   5.474   3.228 -0.8376 -0.9591  0.0970
 8437SOL     OW26209   1.436   2.457   2.747  0.3642 -0.3545 -0.2010
 8437SOL    HW126210   1.349   2.450   2.795  0.6092 -2.2609  0.0220
 8437SOL    HW226211   1.422   2.444   2.649 -0.0671  3.0763 -0.7449
 8438SOL     OW26212   1.033   3.733   3.052 -0.3262  0.1893  0.3924
 8438SOL    HW126213   0.935   3.752   3.051 -0.2713  0.9102  2.3627
 8438SOL    HW226214   1.082   3.810   3.010 -0.6146 -0.7398 -1.7687
 8439SOL     OW26215   0.231   6.625   2.935 -0.0193  0.2640 -0.0319
 8439SOL    HW126216   0.148   6.642   2.988 -0.7046  1.0682 -1.3231
 8439SOL    HW226217   0.311   6.641   2.993 -0.7328 -0.6509  1.2722
 8440SOL     OW26218   1.686   1.649   2.935 -0.1545 -0.0467 -0.4106
 8440SOL    HW126219   1.746   1.605   2.868 -1.3042  0.2180 -1.6614
 8440SOL    HW226220   1.596   1.607   2.931 -0.4384  0.4594  0.4784
 8441SOL     OW26221   5.878   6.940   4.172  0.2948 -0.5107  0.0256
 8441SOL    HW126222   5.962   6.927   4.119  0.5247  1.1745 -0.0964
 8441SOL    HW226223   5.809   6.985   4.115 -0.1517 -0.4823  0.5802
 8442SOL     OW26224   3.452   1.512   3.522  0.4482  0.4418 -0.4188
 8442SOL    HW126225   3.465   1.528   3.424 -1.6191 -0.0869 -0.8322
 8442SOL    HW226226   3.356   1.529   3.546  0.9950  0.9238  1.6098
 8443SOL     OW26227   2.910   4.814   3.559  0.5323 -0.6371  0.1695
 8443SOL    HW126228   2.864   4.765   3.485  0.2092  0.0001 -0.0533
 8443SOL    HW226229   2.873   4.784   3.647  1.2804 -1.7843  0.1271
 8444SOL     OW26230   4.384   0.435   2.201 -0.2180 -0.1435 -0.1736
 8444SOL    HW126231   4.389   0.448   2.300 -0.7906 -0.1458 -0.1380
 8444SOL    HW226232   4.450   0.365   2.172 -0.6417 -0.7556  0.3228
 8445SOL     OW26233   2.782   0.068   0.402 -0.4778  0.3477  0.2976
 8445SOL    HW126234   2.857   0.130   0.379 -0.1497 -0.5581 -1.2411
 8445SOL    HW226235   2.772   0.000   0.329 -1.4595 -0.8081  1.4682
 8446SOL     OW26236   5.167   4.467   3.230  0.4308  0.0457  0.1070
 8446SOL    HW126237   5.077   4.432   3.257 -0.1490  1.1809 -0.2677
 8446SOL    HW226238   5.188   4.548   3.284  0.9264  0.1868 -0.2978
 8447SOL     OW26239   2.753   2.668   1.704 -0.4889  0.2641 -0.3895
 8447SOL    HW126240   2.818   2.741   1.726 -0.3479 -0.7387  3.0443
 8447SOL    HW226241   2.798   2.598   1.649  0.9420  0.2952  0.6951
 8448SOL     OW26242   5.862   6.969   3.218 -0.2965 -0.3591 -0.7743
 8448SOL    HW126243   5.772   7.007   3.198  0.2560  2.5575  1.4290
 8448SOL    HW226244   5.931   7.041   3.205  1.0151 -0.8253  2.5879
 8449SOL     OW26245   0.475   3.337   5.014  0.6252  0.3486  0.3297
 8449SOL    HW126246   0.457   3.423   5.063 -0.8131  0.2444  0.0402
 8449SOL    HW226247   0.504   3.267   5.079 -0.1018  0.5378  0.8812
 8450SOL     OW26248   3.174   0.672   0.390 -0.5107  0.4905  0.2742
 8450SOL    HW126249   3.183   0.715   0.300  0.1779  2.2212  1.1157
 8450SOL    HW226250   3.077   0.663   0.413 -0.7069  2.1341  0.2604
 8451SOL     OW26251   3.861   0.032   0.346 -0.2474 -0.0474 -0.2403
 8451SOL    HW126252   3.907   0.119   0.362  1.7394 -0.9825 -0.5907
 8451SOL    HW226253   3.764   0.049   0.328 -0.4721  1.8732  2.1845
 8452SOL     OW26254   4.458   2.054   5.276 -0.4889  0.3769 -0.0267
 8452SOL    HW126255   4.482   1.991   5.202 -2.3502 -0.7461  0.2659
 8452SOL    HW226256   4.376   2.021   5.323  0.6070  1.0768  2.5404
 8453SOL     OW26257   1.916   6.123   0.389  0.6502 -0.1196 -0.2597
 8453SOL    HW126258   1.914   6.204   0.447 -2.1351  0.6553 -1.2429
 8453SOL    HW226259   1.894   6.149   0.295  0.7306 -1.8916 -0.8121
 8454SOL     OW26260   1.091   4.429   0.817 -0.3961  0.3521 -0.4934
 8454SOL    HW126261   1.059   4.352   0.762  0.4714  1.9239 -3.3743
 8454SOL    HW226262   1.189   4.417   0.836 -0.7284 -0.2695  0.9569
 8455SOL     OW26263   6.596   2.883   3.058  0.4757 -0.6670 -0.1494
 8455SOL    HW126264   6.505   2.901   3.095 -0.4485 -0.8472 -2.1665
 8455SOL    HW226265   6.609   2.937   2.974  2.0522 -0.9942 -0.1487
 8456SOL     OW26266   5.270   0.598   3.684 -0.2490 -0.5593  0.6807
 8456SOL    HW126267   5.213   0.626   3.608  0.8767 -0.5143 -0.1770
 8456SOL    HW226268   5.213   0.572   3.762 -1.4220 -0.9859 -0.3039
 8457SOL     OW26269   6.294   4.759   5.006  0.7116 -0.0168  0.1639
 8457SOL    HW126270   6.341   4.763   5.094  1.2267  0.7327 -0.1409
 8457SOL    HW226271   6.195   4.764   5.021  0.8146  0.5374  0.6659
 8458SOL     OW26272   6.830   1.226   1.781  0.3756 -0.3601 -0.2879
 8458SOL    HW126273   6.823   1.238   1.880  1.1813  0.2171 -0.2866
 8458SOL    HW226274   6.812   1.130   1.758  1.2097 -0.7315  0.5346
 8459SOL     OW26275   1.733   5.632   4.244  0.0196  0.4432 -0.0003
 8459SOL    HW126276   1.661   5.568   4.269  0.7287 -0.2982  0.2026
 8459SOL    HW226277   1.766   5.611   4.151  0.1328  0.6247 -0.0031
 8460SOL     OW26278   3.569   3.850   6.077  0.0051  0.2001  0.2602
 8460SOL    HW126279   3.589   3.760   6.114  0.4120 -0.1998 -0.8939
 8460SOL    HW226280   3.604   3.920   6.139  1.0059 -0.4560  0.4610
 8461SOL     OW26281   0.634   3.854   4.965 -0.1464  0.0810 -0.3674
 8461SOL    HW126282   0.616   3.875   5.061  2.8777  0.6852  0.1397
 8461SOL    HW226283   0.568   3.904   4.908 -0.8402  1.1678  1.3018
 8462SOL     OW26284   2.794   1.429   1.347  0.0221  0.1014 -0.3850
 8462SOL    HW126285   2.831   1.501   1.405 -2.8426  0.5849  1.0377
 8462SOL    HW226286   2.846   1.345   1.359  0.4277  0.6083  1.7918
 8463SOL     OW26287   0.771   1.448   4.014 -0.1409  0.3184  0.2707
 8463SOL    HW126288   0.852   1.391   4.000 -0.3489 -0.4539  1.9480
 8463SOL    HW226289   0.798   1.544   4.015  0.5904  0.1224 -0.2013
 8464SOL     OW26290   4.658   5.127   4.406 -0.5295 -0.2204 -0.5059
 8464SOL    HW126291   4.647   5.095   4.500 -0.3882 -1.2847 -0.8353
 8464SOL    HW226292   4.733   5.193   4.402 -0.2009 -0.5503  0.0432
 8465SOL     OW26293   2.131   3.995   0.699 -0.0594 -0.2783  0.2566
 8465SOL    HW126294   2.057   4.004   0.766 -0.3508 -0.9731  0.0358
 8465SOL    HW226295   2.093   3.963   0.612  0.6276 -1.6028  0.4214
 8466SOL     OW26296   1.242   6.143   4.427 -0.4146  0.1441 -0.2459
 8466SOL    HW126297   1.270   6.175   4.518  1.7061  0.2618 -0.8950
 8466SOL    HW226298   1.213   6.047   4.434  0.9433 -0.2557  0.3783
 8467SOL     OW26299   2.998   5.860   0.697 -0.1047  0.0173 -0.3521
 8467SOL    HW126300   2.930   5.900   0.759 -0.0363  1.0162 -0.8978
 8467SOL    HW226301   3.038   5.933   0.641  0.2457 -0.7877 -1.1607
 8468SOL     OW26302   1.888   3.369   1.612 -0.5440  0.2027  0.0907
 8468SOL    HW126303   1.867   3.301   1.542 -0.5986  0.2139  0.0967
 8468SOL    HW226304   1.811   3.432   1.623 -0.5976  0.1060  0.2716
 8469SOL     OW26305   4.389   1.615   6.340 -0.2198 -0.3260 -0.1342
 8469SOL    HW126306   4.450   1.689   6.368 -0.1580 -0.3657 -0.1654
 8469SOL    HW226307   4.328   1.592   6.416 -0.3071 -0.1747 -0.1574
 8470SOL     OW26308   2.868   2.595   1.113 -0.1824 -0.3670 -0.1660
 8470SOL    HW126309   2.796   2.659   1.087 -1.5905 -2.1482 -0.8809
 8470SOL    HW226310   2.933   2.585   1.037  0.4122  0.6511  0.1878
 8471SOL     OW26311   3.448   6.161   1.967 -0.0995 -0.5327  0.3321
 8471SOL    HW126312   3.540   6.122   1.974  0.4948  0.3673 -1.7092
 8471SOL    HW226313   3.437   6.232   2.037  1.0057 -0.1987  0.1915
 8472SOL     OW26314   0.491   0.575   6.590  0.1172  0.0929 -0.6043
 8472SOL    HW126315   0.580   0.553   6.550 -0.5805 -0.9402 -1.6662
 8472SOL    HW226316   0.435   0.493   6.592 -0.8155  0.7280  0.0802
 8473SOL     OW26317   2.776   5.568   0.061 -0.0952 -0.2056  0.2370
 8473SOL    HW126318   2.867   5.560   0.103  0.3424  1.4707 -0.3140
 8473SOL    HW226319   2.787   5.587  -0.037 -1.0796 -0.9870 -0.0436
 8474SOL     OW26320   4.232   3.143   1.371 -0.4431 -0.2043 -0.2189
 8474SOL    HW126321   4.238   3.220   1.434 -0.6274 -0.1907 -0.2166
 8474SOL    HW226322   4.210   3.178   1.279 -0.2206 -0.2274 -0.2800
 8475SOL     OW26323   1.418   3.598   0.931 -0.0195 -0.5018  0.9048
 8475SOL    HW126324   1.481   3.631   1.001  0.7775 -0.0103 -0.0352
 8475SOL    HW226325   1.332   3.570   0.975  0.8510 -1.2534  2.2070
 8476SOL     OW26326   6.319   7.004   4.415 -0.2032  0.1073 -0.2516
 8476SOL    HW126327   6.373   7.029   4.334  2.3232 -2.2090  0.5734
 8476SOL    HW226328   6.253   6.934   4.391  0.0288 -0.0397 -0.4659
 8477SOL     OW26329   3.056   0.288   1.411  0.4884  0.1674  0.2867
 8477SOL    HW126330   3.085   0.193   1.420  2.5838  0.8216  1.0170
 8477SOL    HW226331   3.068   0.317   1.316 -0.1246 -0.2631  0.0681
 8478SOL     OW26332   2.122   1.669   6.901  0.0828  0.3995 -0.5639
 8478SOL    HW126333   2.217   1.640   6.913  0.0710  0.6138  0.0970
 8478SOL    HW226334   2.083   1.621   6.822  0.2181 -1.0265  0.1953
 8479SOL     OW26335   1.590   6.803   0.328  0.4263  0.4093 -0.0197
 8479SOL    HW126336   1.593   6.784   0.230  0.5168 -0.2986  0.1131
 8479SOL    HW226337   1.515   6.752   0.370  0.5193  0.5405  0.3139
 8480SOL     OW26338   2.967   0.679   0.886 -0.3241  0.1018  0.2045
 8480SOL    HW126339   2.939   0.601   0.942 -1.2260  0.2039 -0.0903
 8480SOL    HW226340   3.065   0.694   0.897 -0.7092  1.1269  3.0266
 8481SOL     OW26341   3.262   1.844   5.290 -0.1217 -0.1368 -0.0587
 8481SOL    HW126342   3.193   1.780   5.324  1.7276 -2.6660 -0.7421
 8481SOL    HW226343   3.221   1.905   5.222 -2.8930  2.2174  3.3851
 8482SOL     OW26344   2.490   6.438   1.269 -0.0764  0.4698 -0.0892
 8482SOL    HW126345   2.568   6.377   1.277 -0.0197  0.6006  0.4418
 8482SOL    HW226346   2.467   6.452   1.173 -0.8728 -1.3670 -0.2015
 8483SOL     OW26347   3.389   0.007   4.540  0.3130  0.8424  0.2461
 8483SOL    HW126348   3.446   0.089   4.541  0.0412  1.0949 -1.4999
 8483SOL    HW226349   3.367  -0.017   4.445 -0.0996 -0.9149  0.7464
 8484SOL     OW26350   0.181   5.078   2.488 -0.1932 -0.5684 -0.5239
 8484SOL    HW126351   0.138   5.148   2.431 -0.3343 -1.0272 -0.9971
 8484SOL    HW226352   0.109   5.018   2.524 -0.5463  1.7210  3.0254
 8485SOL     OW26353   0.209   3.226   0.633  0.0384  0.4303 -0.7968
 8485SOL    HW126354   0.226   3.317   0.671 -0.4274 -0.0123  0.5517
 8485SOL    HW226355   0.130   3.229   0.572 -2.3089  0.3317  2.0195
 8486SOL     OW26356   5.753   0.683   2.287  0.4997 -0.1639 -0.0208
 8486SOL    HW126357   5.759   0.780   2.314 -0.4598  0.0849 -0.6263
 8486SOL    HW226358   5.673   0.642   2.331 -0.0733 -0.2202 -1.0993
 8487SOL     OW26359   5.746   0.174   6.732 -0.1515 -0.0656 -0.4818
 8487SOL    HW126360   5.831   0.132   6.763 -0.2683  0.5510  0.7633
 8487SOL    HW226361   5.736   0.264   6.774 -0.6566  0.5583 -1.8706
 8488SOL     OW26362   5.674   4.062   6.089 -0.0922  0.4436 -0.5825
 8488SOL    HW126363   5.662   4.134   6.157 -0.0126  0.8955 -1.0439
 8488SOL    HW226364   5.625   3.980   6.119  0.7014  0.3309  0.4596
 8489SOL     OW26365   6.091   6.864   6.856 -0.1881 -0.0959 -0.0715
 8489SOL    HW126366   6.031   6.784   6.855  1.3928 -1.3602  0.7557
 8489SOL    HW226367   6.166   6.851   6.791  0.2903  0.5367  0.3388
 8490SOL     OW26368   3.298   6.548   3.428 -0.0232 -0.3261 -0.1140
 8490SOL    HW126369   3.329   6.537   3.522  0.4010  0.0227 -0.2106
 8490SOL    HW226370   3.311   6.643   3.399 -0.9449 -0.2325 -0.2426
 8491SOL     OW26371   1.909   6.958   2.449 -0.1933  0.4562 -0.4210
 8491SOL    HW126372   1.818   6.956   2.408  0.0966 -0.4734 -1.0639
 8491SOL    HW226373   1.957   6.873   2.426  0.6228  0.6860  0.3953
 8492SOL     OW26374   2.856   5.137   5.335 -0.0001  0.0317  0.2219
 8492SOL    HW126375   2.922   5.118   5.262 -0.8052  0.5976 -0.6721
 8492SOL    HW226376   2.876   5.079   5.414  1.6597  0.2865  0.0285
 8493SOL     OW26377   3.475   1.392   1.141 -0.0497 -0.2585  0.0147
 8493SOL    HW126378   3.431   1.384   1.231  1.4117 -0.7181  0.7128
 8493SOL    HW226379   3.407   1.374   1.070 -0.8533 -1.7213  1.0823
 8494SOL     OW26380   3.879   5.869   6.028 -0.1757  0.1075 -0.7750
 8494SOL    HW126381   3.911   5.887   6.121 -1.2117 -0.5056 -0.2795
 8494SOL    HW226382   3.787   5.832   6.031  0.3083 -1.3193 -1.9588
 8495SOL     OW26383   0.803   2.409   5.494  0.0537 -0.1292 -0.1193
 8495SOL    HW126384   0.712   2.409   5.537  0.1391 -1.5307  0.1175
 8495SOL    HW226385   0.870   2.372   5.558  1.1648  2.5252  0.3602
 8496SOL     OW26386   2.136   0.566   2.425 -0.2834 -0.3294 -0.1518
 8496SOL    HW126387   2.218   0.548   2.478  0.3114  1.7433 -0.2910
 8496SOL    HW226388   2.060   0.585   2.487 -0.1240 -0.0729 -0.0351
 8497SOL     OW26389   5.928   5.937   4.085  0.0745 -0.3532  0.1730
 8497SOL    HW126390   5.945   5.917   4.181 -3.7433 -2.2988  0.6332
 8497SOL    HW226391   5.998   5.894   4.028  0.7937 -1.6532  1.9750
 8498SOL     OW26392   1.080   0.777   1.874 -0.4171 -0.4663 -0.5829
 8498SOL    HW126393   1.141   0.852   1.849  1.9114 -1.4944  1.5508
 8498SOL    HW226394   1.104   0.696   1.821 -1.3880 -0.3094 -1.2636
 8499SOL     OW26395   3.039   6.240   5.645  0.2209 -0.0928 -0.0557
 8499SOL    HW126396   3.024   6.338   5.634  1.4981 -0.0308 -1.7233
 8499SOL    HW226397   2.992   6.192   5.571  1.1663 -0.5699 -0.3537
 8500SOL     OW26398   1.654   6.734   6.610 -0.2202  0.5154  0.2115
 8500SOL    HW126399   1.651   6.703   6.515  1.2856  2.2877 -0.4679
 8500SOL    HW226400   1.581   6.800   6.626  0.8260  1.8664 -0.3874
 8501SOL     OW26401   2.873   1.732   0.171 -0.1942 -0.5253  0.2010
 8501SOL    HW126402   2.933   1.702   0.097 -0.8498  1.4454 -1.2159
 8501SOL    HW226403   2.835   1.822   0.149 -2.5045 -1.0351  1.7284
 8502SOL     OW26404   0.252   4.513   0.226 -0.7322 -0.3907  0.0839
 8502SOL    HW126405   0.270   4.583   0.157 -1.3108  0.2248  0.5478
 8502SOL    HW226406   0.273   4.423   0.188 -2.9347 -0.2801 -1.6191
 8503SOL     OW26407   1.237   0.036   2.378  0.1734  0.1425 -0.1591
 8503SOL    HW126408   1.289   0.114   2.344  0.8996 -0.8927 -1.5698
 8503SOL    HW226409   1.254  -0.043   2.318 -2.8436 -0.3239 -0.5451
 8504SOL     OW26410   0.125   6.394   5.080  0.4574 -0.6069 -0.8706
 8504SOL    HW126411   0.152   6.488   5.101  0.5888 -0.5580 -1.2474
 8504SOL    HW226412   0.077   6.393   4.992  1.8955 -1.1198 -1.6829
 8505SOL     OW26413   5.719   4.468   3.357 -0.2347  0.0690 -0.0263
 8505SOL    HW126414   5.786   4.445   3.286 -1.3967  3.1640 -2.3708
 8505SOL    HW226415   5.653   4.394   3.367  0.3745 -0.7352 -1.6485
 8506SOL     OW26416   0.253   6.674   6.937 -0.1295 -0.2167 -0.3014
 8506SOL    HW126417   0.256   6.704   7.032  0.7421 -0.0580 -0.3729
 8506SOL    HW226418   0.217   6.748   6.880  0.0401 -0.0516 -0.1947
 8507SOL     OW26419   3.814   6.233   5.488 -0.0139 -0.1222 -0.6216
 8507SOL    HW126420   3.746   6.297   5.523  0.9734  0.9034 -0.4956
 8507SOL    HW226421   3.830   6.251   5.391  0.9612  0.4961 -0.3655
 8508SOL     OW26422   0.125   2.604   2.420  0.8070 -0.6259 -0.0941
 8508SOL    HW126423   0.143   2.608   2.322 -1.3645  0.1669 -0.5244
 8508SOL    HW226424   0.089   2.513   2.444  1.1459 -0.7539 -0.0736
 8509SOL     OW26425   6.867   2.850   3.566 -0.0054 -0.2418  0.2350
 8509SOL    HW126426   6.916   2.869   3.651  1.2750 -0.3097 -0.4668
 8509SOL    HW226427   6.889   2.757   3.536 -0.8785 -0.4110  0.1031
 8510SOL     OW26428   1.019   0.583   3.226 -0.0450  0.3784 -0.3364
 8510SOL    HW126429   0.929   0.596   3.269  0.8949 -0.7090  2.1850
 8510SOL    HW226430   1.081   0.654   3.257  0.8857 -0.9112  0.8634
 8511SOL     OW26431   5.822   3.794   1.672 -0.3412 -0.2335 -0.4670
 8511SOL    HW126432   5.855   3.849   1.595 -0.5126  1.2723  0.4922
 8511SOL    HW226433   5.839   3.843   1.758 -1.3368 -1.2887  0.3660
 8512SOL     OW26434   4.574   1.483   1.260 -0.4561  0.1971 -0.4038
 8512SOL    HW126435   4.579   1.567   1.206  1.6598 -0.7865 -1.9273
 8512SOL    HW226436   4.534   1.410   1.205  0.7779 -0.5733 -0.3392
 8513SOL     OW26437   0.440   4.891   0.710 -0.0922 -0.4102 -0.2361
 8513SOL    HW126438   0.409   4.877   0.616 -0.5801 -1.8599  0.1160
 8513SOL    HW226439   0.520   4.833   0.727 -0.3296 -0.5548  0.3980
 8514SOL     OW26440   2.087   3.812   3.988 -0.1949 -0.3199  0.5131
 8514SOL    HW126441   2.044   3.855   3.909  0.6232  0.6648  0.5827
 8514SOL    HW226442   2.103   3.715   3.969  0.5660  0.0343 -0.7747
 8515SOL     OW26443   1.894   0.723   6.816  0.6062  0.6019 -0.0370
 8515SOL    HW126444   1.801   0.760   6.821  0.8187  1.3280 -1.0698
 8515SOL    HW226445   1.945   0.750   6.897  0.0545  0.5653  0.3313
 8516SOL     OW26446   6.743   3.554   1.653 -0.4096  0.0650  0.3289
 8516SOL    HW126447   6.644   3.543   1.660 -0.5452  0.2714 -0.9399
 8516SOL    HW226448   6.780   3.481   1.595 -0.0317  0.8321 -0.4213
 8517SOL     OW26449   1.815   3.239   4.902 -0.1874  0.4601  0.0953
 8517SOL    HW126450   1.813   3.296   4.820  0.9454  1.0272  0.4471
 8517SOL    HW226451   1.876   3.280   4.970  0.8936 -1.2970  0.2579
 8518SOL     OW26452   4.860   5.367   6.753  0.0956 -0.4060  0.2753
 8518SOL    HW126453   4.832   5.450   6.800 -2.3396 -2.2844  2.4766
 8518SOL    HW226454   4.917   5.312   6.814  2.3233 -0.0914 -1.4240
 8519SOL     OW26455   1.283   3.011   1.656 -0.1388 -0.2511  0.1694
 8519SOL    HW126456   1.282   3.101   1.612  0.8288 -0.9730 -1.4018
 8519SOL    HW226457   1.279   3.023   1.756 -0.1559  1.5176 -0.0119
 8520SOL     OW26458   2.904   4.573   5.778 -0.2172  0.1382 -0.4689
 8520SOL    HW126459   2.858   4.550   5.863 -1.2693 -1.0401 -1.3213
 8520SOL    HW226460   2.842   4.625   5.719  0.5264  1.0130 -0.4980
 8521SOL     OW26461   0.819   5.504   5.222 -0.1992  0.4451 -0.3189
 8521SOL    HW126462   0.720   5.502   5.210 -0.4357 -0.0162  1.4814
 8521SOL    HW226463   0.853   5.410   5.233  0.7569  0.3956 -2.9402
 8522SOL     OW26464   5.623   6.990   2.772 -0.0237 -0.2599 -0.2303
 8522SOL    HW126465   5.696   6.943   2.823 -1.6616 -1.5208  1.0536
 8522SOL    HW226466   5.638   7.088   2.776  1.5047 -0.4839  0.1480
 8523SOL     OW26467   3.673   6.371   5.831  0.6781 -0.2393 -0.5166
 8523SOL    HW126468   3.718   6.342   5.916  2.3148  2.3895 -0.3904
 8523SOL    HW226469   3.633   6.291   5.786  2.3630 -2.1707  1.2151
 8524SOL     OW26470   6.693   4.826   5.911  0.6935  0.0885 -0.0231
 8524SOL    HW126471   6.672   4.790   5.820  1.2276  1.2267 -0.6316
 8524SOL    HW226472   6.747   4.911   5.901  0.6183  0.3201  1.3513
 8525SOL     OW26473   6.809   5.637   0.223 -0.3743  0.0107  0.3394
 8525SOL    HW126474   6.815   5.651   0.124 -0.8196  0.6035  0.3878
 8525SOL    HW226475   6.811   5.540   0.244 -0.9474 -0.1438 -0.3036
 8526SOL     OW26476   4.554   5.087   3.228 -0.2612  0.2765  0.1634
 8526SOL    HW126477   4.547   5.004   3.283 -1.4734  0.8355  0.8767
 8526SOL    HW226478   4.564   5.062   3.131  2.1555 -0.7234  0.5773
 8527SOL     OW26479   4.418   0.189   0.255  0.1818 -0.0791 -0.0766
 8527SOL    HW126480   4.417   0.089   0.262  1.0912 -0.0809  0.1364
 8527SOL    HW226481   4.509   0.220   0.229  0.1595  0.7469  0.7614
 8528SOL     OW26482   5.191   0.081   1.010 -0.2150 -0.4814 -0.5067
 8528SOL    HW126483   5.226   0.055   0.920 -0.9433  0.1811 -0.9963
 8528SOL    HW226484   5.214   0.176   1.029  0.4940 -0.8051  0.2965
 8529SOL     OW26485   2.570   5.649   6.134  0.3143  0.5335 -0.2107
 8529SOL    HW126486   2.642   5.710   6.167  0.6673  0.6673 -1.1994
 8529SOL    HW226487   2.606   5.592   6.061 -0.6643  0.8058 -0.9160
 8530SOL     OW26488   3.552   3.602   4.412 -0.2489 -0.2708 -0.2535
 8530SOL    HW126489   3.623   3.638   4.353  0.6002 -1.3709  0.0564
 8530SOL    HW226490   3.462   3.621   4.373  0.2920 -1.3099 -2.1161
 8531SOL     OW26491   0.329   4.929   1.223 -0.1539 -0.1981  0.4602
 8531SOL    HW126492   0.414   4.967   1.262 -0.3369  0.4477  0.2485
 8531SOL    HW226493   0.349   4.885   1.136  0.1919 -1.2929  1.0781
 8532SOL     OW26494   3.014   6.173   3.980  0.3617 -0.6208  0.1166
 8532SOL    HW126495   3.007   6.110   4.056  0.4655 -1.8262 -0.8468
 8532SOL    HW226496   2.973   6.261   4.005  1.2796 -0.6641  1.8810
 8533SOL     OW26497   2.724   6.280   1.262  0.1415  0.7439 -0.4444
 8533SOL    HW126498   2.720   6.319   1.170  0.1702  1.0956 -0.2974
 8533SOL    HW226499   2.810   6.232   1.274 -0.1633  0.0743 -0.8472
 8534SOL     OW26500   5.030   2.519   3.428  0.6352 -0.2271 -0.0680
 8534SOL    HW126501   5.065   2.581   3.498  1.0748 -0.1819 -0.3290
 8534SOL    HW226502   5.079   2.431   3.433  2.2957  0.5365 -1.7946
 8535SOL     OW26503   4.815   1.614   5.563  0.5843  0.5280  0.3386
 8535SOL    HW126504   4.818   1.691   5.499 -0.6696  0.8055  0.5812
 8535SOL    HW226505   4.908   1.582   5.581  1.1830  2.2761  0.5608
 8536SOL     OW26506   1.696   2.335   6.248  0.4578  0.1378  0.4382
 8536SOL    HW126507   1.639   2.287   6.315  1.6970 -2.3464 -0.1781
 8536SOL    HW226508   1.792   2.318   6.269  1.0584  3.5149  0.9445
 8537SOL     OW26509   5.414   1.960   4.190 -0.2647  0.1770  0.0340
 8537SOL    HW126510   5.348   2.034   4.197  0.9918  1.2224  1.4241
 8537SOL    HW226511   5.418   1.927   4.095 -1.6184  1.1366 -0.3782
 8538SOL     OW26512   2.457   0.883   6.472  0.3656 -0.3313  0.2094
 8538SOL    HW126513   2.391   0.871   6.398 -1.5246 -0.2884  1.8152
 8538SOL    HW226514   2.545   0.843   6.445  0.0034  0.4562 -2.3545
 8539SOL     OW26515   6.338   1.200   3.167  0.2904 -0.4895  0.1387
 8539SOL    HW126516   6.437   1.198   3.185  0.7672  2.3443 -1.5401
 8539SOL    HW226517   6.318   1.143   3.087  0.7947 -0.1438 -0.2444
 8540SOL     OW26518   6.094   5.610   0.499  0.3322 -0.1511 -0.5284
 8540SOL    HW126519   6.107   5.572   0.407  1.2765 -0.4244 -0.2918
 8540SOL    HW226520   6.122   5.543   0.567  1.7846  0.8414 -0.0998
 8541SOL     OW26521   4.929   1.694   3.753  0.0066 -0.0743  0.3020
 8541SOL    HW126522   4.936   1.622   3.683  2.1621 -0.0339  0.4140
 8541SOL    HW226523   4.892   1.655   3.837 -1.6223 -0.3606 -0.5036
 8542SOL     OW26524   5.032   4.194   6.944  0.0439 -0.1505  0.0931
 8542SOL    HW126525   5.131   4.199   6.957  0.4425  0.5992 -2.5819
 8542SOL    HW226526   5.011   4.129   6.871 -1.2457  1.0961 -0.7123
 8543SOL     OW26527   0.667   2.868   1.980  0.1927  0.2882  0.4588
 8543SOL    HW126528   0.574   2.883   1.947 -0.2259 -1.1482  0.9101
 8543SOL    HW226529   0.732   2.908   1.916 -0.7317  2.0977  0.5767
 8544SOL     OW26530   5.607   2.842   4.939  0.1101  0.0898  0.1713
 8544SOL    HW126531   5.568   2.919   4.888  0.4152  0.0127 -0.1803
 8544SOL    HW226532   5.706   2.847   4.936  0.1418 -0.9183 -0.7696
 8545SOL     OW26533   5.802   0.493   3.674 -0.5815 -0.4619 -0.0402
 8545SOL    HW126534   5.826   0.486   3.578 -0.3051  1.0164 -0.1003
 8545SOL    HW226535   5.703   0.509   3.683 -0.1271  3.3978 -0.3634
 8546SOL     OW26536   5.329   3.061   4.047  0.2203  0.2129  0.2447
 8546SOL    HW126537   5.408   3.002   4.064 -0.7351 -1.0673  0.3292
 8546SOL    HW226538   5.325   3.083   3.949  1.4148  1.3821  0.4336
 8547SOL     OW26539   0.547   4.183   6.004  0.0110  0.3577  0.6771
 8547SOL    HW126540   0.627   4.124   6.014 -0.4991 -0.6270 -0.7508
 8547SOL    HW226541   0.577   4.273   5.972  0.5123 -0.2503 -0.6433
 8548SOL     OW26542   5.767   3.147   4.562  0.1021 -0.3401 -0.0271
 8548SOL    HW126543   5.746   3.245   4.556  1.4924 -0.0859 -1.0537
 8548SOL    HW226544   5.781   3.110   4.471  1.0514 -1.1686  0.4384
 8549SOL     OW26545   0.121   3.974   3.486  0.1976 -0.4444 -0.4598
 8549SOL    HW126546   0.038   4.005   3.441  0.9495 -0.3638 -1.8390
 8549SOL    HW226547   0.165   4.052   3.532 -0.4681 -0.4883  0.2711
 8550SOL     OW26548   2.159   5.349   5.863 -0.4527  0.1578 -0.1529
 8550SOL    HW126549   2.246   5.389   5.892 -0.1222  0.8359 -1.9692
 8550SOL    HW226550   2.162   5.250   5.876 -0.0168  0.3405  1.2696
 8551SOL     OW26551   3.514   3.604   6.370 -0.0975 -0.2330  0.3280
 8551SOL    HW126552   3.560   3.598   6.282  1.6572 -0.3814  1.2070
 8551SOL    HW226553   3.495   3.700   6.391 -0.8299 -0.2259 -0.3577
 8552SOL     OW26554   4.573   6.098   5.153  0.5047  0.0269 -0.4428
 8552SOL    HW126555   4.524   6.172   5.199 -1.4508 -0.1883 -2.0865
 8552SOL    HW226556   4.614   6.038   5.222 -0.3260  1.0181  0.9631
 8553SOL     OW26557   6.031   5.358   6.980  0.9285 -0.0532  0.5388
 8553SOL    HW126558   6.009   5.267   6.943  0.1875 -0.0815  1.0318
 8553SOL    HW226559   6.129   5.373   6.974  0.9674 -0.5562 -0.2994
 8554SOL     OW26560   1.498   6.334   0.857  0.3617  0.3477  0.1238
 8554SOL    HW126561   1.547   6.420   0.872  1.0221 -0.2978  1.9794
 8554SOL    HW226562   1.552   6.274   0.797  1.0451  0.3171  0.7554
 8555SOL     OW26563   2.225   0.230   3.656  0.1291  0.4491  0.1934
 8555SOL    HW126564   2.208   0.138   3.691  0.2596 -1.3142 -3.7601
 8555SOL    HW226565   2.150   0.290   3.683 -3.3371 -2.4813 -1.9513
 8556SOL     OW26566   1.599   1.478   4.611 -0.8771 -0.1239 -0.5169
 8556SOL    HW126567   1.573   1.471   4.515 -4.3442 -2.1100  0.3715
 8556SOL    HW226568   1.584   1.390   4.656  0.1879  0.8608  1.9608
 8557SOL     OW26569   0.106   2.651   2.167 -0.1571 -0.0946  0.6449
 8557SOL    HW126570   0.109   2.569   2.111  0.7543  1.0947 -1.1288
 8557SOL    HW226571   0.045   2.719   2.126 -3.1749 -0.7757  3.5346
 8558SOL     OW26572   1.587   5.869   1.510 -0.2907  0.0228 -0.4768
 8558SOL    HW126573   1.607   5.959   1.470  0.0400  0.0328 -0.2916
 8558SOL    HW226574   1.537   5.813   1.444  0.0791  0.1098 -0.8300
 8559SOL     OW26575   6.343   6.923   3.297  0.0972 -0.3991  0.2762
 8559SOL    HW126576   6.352   7.022   3.306  0.5044 -0.5982  3.3519
 8559SOL    HW226577   6.251   6.895   3.324  0.3037 -0.9243  0.4535
 8560SOL     OW26578   6.001   6.693   2.365 -0.1551 -0.3489 -0.6509
 8560SOL    HW126579   5.976   6.599   2.389  0.7823 -0.2021  1.0397
 8560SOL    HW226580   6.082   6.692   2.307  1.7014 -0.5792  1.7787
 8561SOL     OW26581   5.161   4.248   1.356  0.0203 -0.8304  0.4587
 8561SOL    HW126582   5.070   4.213   1.377  0.1733 -0.8643  1.0896
 8561SOL    HW226583   5.228   4.175   1.369  0.1929 -0.6637  0.5166
 8562SOL     OW26584   6.045   0.031   4.955 -0.2445 -0.8216 -0.9810
 8562SOL    HW126585   6.024   0.121   4.918 -1.0038 -0.5341  0.1019
 8562SOL    HW226586   5.993  -0.038   4.906 -1.8034 -0.3693 -0.0225
 8563SOL     OW26587   3.131   2.475   1.712 -0.0647 -0.0760 -0.3053
 8563SOL    HW126588   3.069   2.441   1.782  0.3160  1.5032  0.8714
 8563SOL    HW226589   3.224   2.443   1.732  0.0893  0.5977  0.0951
 8564SOL     OW26590   2.137   1.213   1.255 -0.2508  0.1835 -0.0457
 8564SOL    HW126591   2.184   1.155   1.189 -1.8647  0.2665 -1.3308
 8564SOL    HW226592   2.196   1.228   1.334  0.6810 -2.1358 -0.2409
 8565SOL     OW26593   4.234   6.970   1.580 -0.2265 -0.1503  0.3321
 8565SOL    HW126594   4.315   6.944   1.633  1.5564  0.5441 -1.8999
 8565SOL    HW226595   4.262   7.000   1.489 -2.8558  1.8609  0.0696
 8566SOL     OW26596   2.767   2.094   2.080 -0.1879 -0.5122  0.5327
 8566SOL    HW126597   2.821   2.174   2.105 -0.7305 -0.0010  0.0900
 8566SOL    HW226598   2.825   2.013   2.084  0.5269 -0.0206  0.4011
 8567SOL     OW26599   6.335   0.875   1.421  0.2232 -0.0248 -0.2074
 8567SOL    HW126600   6.377   0.826   1.498 -0.9065 -1.0430 -0.2043
 8567SOL    HW226601   6.241   0.899   1.446 -0.3818 -0.9554 -1.4887
 8568SOL     OW26602   6.307   0.570   5.386  0.4692 -0.2007 -0.6144
 8568SOL    HW126603   6.239   0.501   5.410  0.2619  0.5581  1.1490
 8568SOL    HW226604   6.399   0.531   5.394  0.3040 -0.8118 -1.5663
 8569SOL     OW26605   3.560   0.380   5.283  0.1931  0.3346  0.0681
 8569SOL    HW126606   3.532   0.464   5.235 -0.3947 -0.3272 -0.7887
 8569SOL    HW226607   3.562   0.304   5.218  0.4340 -0.3802  0.8931
 8570SOL     OW26608   0.090   3.789   5.692 -0.3085 -0.1794 -0.3477
 8570SOL    HW126609   0.084   3.859   5.763  2.8872  0.1553 -0.2641
 8570SOL    HW226610   0.081   3.698   5.733 -2.8140  0.0289 -0.2372
 8571SOL     OW26611   6.653   5.921   6.252 -0.0725  0.5544 -0.2782
 8571SOL    HW126612   6.613   6.005   6.215  1.2344  0.0966 -3.0009
 8571SOL    HW226613   6.581   5.855   6.273 -1.1381  2.3678  2.1530
 8572SOL     OW26614   2.474   5.585   5.289  0.2080  0.2377  0.2817
 8572SOL    HW126615   2.391   5.642   5.285 -0.5656 -0.8955 -1.1990
 8572SOL    HW226616   2.546   5.634   5.338 -0.4432  2.4535 -0.8128
 8573SOL     OW26617   4.010   6.042   5.135 -0.0841  0.8049 -0.3916
 8573SOL    HW126618   3.994   5.950   5.098  1.7201  0.3250 -0.0705
 8573SOL    HW226619   4.090   6.082   5.091  1.7205  0.4990  2.3936
 8574SOL     OW26620   2.000   4.980   4.359  0.5868 -0.2070  0.3088
 8574SOL    HW126621   2.073   4.991   4.427  0.2769 -0.2883  0.6529
 8574SOL    HW226622   2.028   5.025   4.274  1.4117 -0.9585  0.1604
 8575SOL     OW26623   4.312   1.749   0.579 -0.3000  0.4800  0.0371
 8575SOL    HW126624   4.315   1.838   0.625  0.2964 -0.8739  2.8979
 8575SOL    HW226625   4.233   1.697   0.613  1.2557 -1.3197  1.0962
 8576SOL     OW26626   5.596   5.945   2.835 -0.3598  0.2294 -0.5027
 8576SOL    HW126627   5.610   5.846   2.834  1.0081  0.4051 -0.0883
 8576SOL    HW226628   5.565   5.973   2.926  1.3578  0.4235  0.0619
 8577SOL     OW26629   5.676   4.366   4.316 -0.3632 -0.0849 -0.5182
 8577SOL    HW126630   5.605   4.296   4.314 -0.9550  0.4532  0.6296
 8577SOL    HW226631   5.654   4.433   4.386  2.9267 -1.6323  2.2771
 8578SOL     OW26632   3.970   0.967   2.967 -0.0695 -0.4781  0.2303
 8578SOL    HW126633   3.886   0.941   3.015 -0.8185  0.6789 -0.3912
 8578SOL    HW226634   4.039   0.896   2.979 -0.8049 -1.0009  1.5676
 8579SOL     OW26635   0.409   3.995   3.928 -0.2983  0.2404  0.0734
 8579SOL    HW126636   0.355   3.911   3.917  1.8251 -0.9645 -2.0930
 8579SOL    HW226637   0.461   3.990   4.013  0.4000 -1.0450 -0.4000
 8580SOL     OW26638   0.537   6.134   1.335 -0.2988  0.0854  0.3115
 8580SOL    HW126639   0.515   6.228   1.309 -1.0240  0.0416  0.7264
 8580SOL    HW226640   0.614   6.101   1.280  0.1160  0.9975  0.3299
 8581SOL     OW26641   2.734   2.107   2.772  0.5664  0.2806 -0.2720
 8581SOL    HW126642   2.673   2.063   2.839  0.8222  2.9439  1.8662
 8581SOL    HW226643   2.800   2.040   2.739  0.5079 -1.1386  2.2546
 8582SOL     OW26644   3.275   6.361   2.812 -0.0561  0.5981  1.1536
 8582SOL    HW126645   3.228   6.273   2.802  0.3150  0.5397 -0.5237
 8582SOL    HW226646   3.212   6.435   2.790  0.5447  0.5220 -1.0474
 8583SOL     OW26647   5.128   6.517   6.548 -0.0810 -0.2349 -0.7666
 8583SOL    HW126648   5.148   6.608   6.511 -1.4461  1.2780  1.8418
 8583SOL    HW226649   5.063   6.470   6.489 -0.6827  1.2405 -1.3425
 8584SOL     OW26650   5.488   4.300   4.844 -0.0860  0.2973 -0.3148
 8584SOL    HW126651   5.438   4.367   4.898  1.2622 -0.0230  1.4151
 8584SOL    HW226652   5.536   4.237   4.904  0.4425 -0.8905 -1.9067
 8585SOL     OW26653   1.367   5.612   6.148 -0.2320 -0.4061  0.0083
 8585SOL    HW126654   1.283   5.574   6.185  0.7337 -1.0558  1.6706
 8585SOL    HW226655   1.412   5.545   6.089 -0.3576 -0.4636 -0.0199
 8586SOL     OW26656   2.059   5.418   1.427 -0.2148 -0.6401  0.2110
 8586SOL    HW126657   2.129   5.477   1.467  0.2828 -0.8362 -0.3662
 8586SOL    HW226658   1.971   5.467   1.426 -0.3486 -0.8079  1.9642
 8587SOL     OW26659   0.058   1.601   4.398  0.2338  0.2189  0.1517
 8587SOL    HW126660   0.051   1.619   4.300 -0.2767  1.9746  0.4763
 8587SOL    HW226661   0.152   1.616   4.428  0.2570  0.3116  0.0327
 8588SOL     OW26662   3.732   1.930   5.730  0.1943  0.0541  0.1297
 8588SOL    HW126663   3.635   1.952   5.726  0.4524  1.8375  2.0796
 8588SOL    HW226664   3.783   1.992   5.671  0.3416  0.7249  0.9387
 8589SOL     OW26665   4.145   1.910   4.079  0.0852  0.2561  0.1720
 8589SOL    HW126666   4.152   1.827   4.023  1.3077 -0.2479  1.0321
 8589SOL    HW226667   4.133   1.989   4.019  0.7342 -0.3413 -0.7887
 8590SOL     OW26668   5.872   6.960   4.449  0.5787 -0.3365  0.0838
 8590SOL    HW126669   5.851   6.960   4.352 -1.5979  0.7286  0.5020
 8590SOL    HW226670   5.809   6.900   4.498 -0.9173  2.0297  1.2535
 8591SOL     OW26671   6.232   2.990   6.176  0.0141 -0.1904  0.7931
 8591SOL    HW126672   6.190   3.080   6.187  0.2623 -0.0940  0.9555
 8591SOL    HW226673   6.304   2.995   6.106 -0.2831 -0.3681  0.4737
 8592SOL     OW26674   7.003   4.744   5.886  0.2007  0.7948 -0.7074
 8592SOL    HW126675   6.946   4.662   5.874  1.1251 -0.3456  1.9587
 8592SOL    HW226676   6.944   4.825   5.889 -1.2936 -0.2678  1.2155
 8593SOL     OW26677   1.670   6.141   3.357  0.2868 -0.5087 -0.7189
 8593SOL    HW126678   1.713   6.054   3.334 -0.1988 -0.8907 -0.2068
 8593SOL    HW226679   1.714   6.179   3.438 -0.8047 -1.2679  0.2588
 8594SOL     OW26680   1.487   4.450   5.730  0.0198  0.1253  0.4364
 8594SOL    HW126681   1.561   4.463   5.796 -0.6217  0.8022  1.0476
 8594SOL    HW226682   1.505   4.369   5.674  1.0937  0.1429  0.7335
 8595SOL     OW26683   1.424   2.352   3.328  0.1600  0.2852  0.2946
 8595SOL    HW126684   1.483   2.382   3.253 -0.0012 -0.1100  0.0033
 8595SOL    HW226685   1.393   2.259   3.310  2.2900 -0.8884  2.1152
 8596SOL     OW26686   6.779   4.319   0.534  0.2434 -0.1775 -0.1009
 8596SOL    HW126687   6.742   4.376   0.460 -0.9322 -1.0033 -0.1753
 8596SOL    HW226688   6.865   4.278   0.505 -0.9207 -1.6769 -1.6324
 8597SOL     OW26689   4.539   0.452   1.080 -0.0320 -0.2740  0.2827
 8597SOL    HW126690   4.633   0.470   1.052  1.3737 -0.4770  4.2846
 8597SOL    HW226691   4.510   0.363   1.043  0.6847  0.4617 -2.2565
 8598SOL     OW26692   1.010   5.630   1.642  0.2502 -0.4767 -0.0568
 8598SOL    HW126693   0.952   5.661   1.566 -1.3326  0.2138  1.3683
 8598SOL    HW226694   0.956   5.626   1.726  2.0008 -1.0166  1.1006
 8599SOL     OW26695   2.443   4.568   4.748  0.2119 -0.3874 -0.7839
 8599SOL    HW126696   2.354   4.554   4.704 -0.6740  1.1729  0.3928
 8599SOL    HW226697   2.440   4.532   4.841  0.7793 -0.2668 -0.7164
 8600SOL     OW26698   6.938   3.551   0.161 -0.0164  0.0663 -0.9386
 8600SOL    HW126699   6.881   3.621   0.204  1.6633  2.0130 -1.6936
 8600SOL    HW226700   7.008   3.521   0.225  1.1141  1.3413 -1.5223
 8601SOL     OW26701   1.124   0.699   4.071  0.1454  0.9910  0.2466
 8601SOL    HW126702   1.040   0.684   4.122  0.3094 -2.7093 -0.3044
 8601SOL    HW226703   1.202   0.660   4.121  0.5938 -0.9496 -1.7971
 8602SOL     OW26704   1.256   6.756   2.603  0.1908  0.0881  0.3875
 8602SOL    HW126705   1.273   6.670   2.651  0.2909  0.3668  0.8552
 8602SOL    HW226706   1.343   6.802   2.587  0.1825 -0.1155 -0.2790
 8603SOL     OW26707   5.173   2.352   0.412 -0.0824 -0.5472 -0.4358
 8603SOL    HW126708   5.227   2.310   0.339 -1.0859 -1.2352 -0.8050
 8603SOL    HW226709   5.222   2.345   0.499  1.4795  0.9487 -1.1295
 8604SOL     OW26710   4.534   4.013   5.592  0.4417 -0.2991  0.0707
 8604SOL    HW126711   4.457   3.992   5.532  0.4000 -0.1410  0.0675
 8604SOL    HW226712   4.617   4.024   5.538  0.2046  0.8790 -0.0751
 8605SOL     OW26713   3.837   5.116   5.277  0.8474 -0.3843 -0.0779
 8605SOL    HW126714   3.837   5.060   5.360 -2.5184  0.1427  0.4196
 8605SOL    HW226715   3.786   5.069   5.205 -1.2855  1.5616  0.0682
 8606SOL     OW26716   2.630   3.662   5.391  0.0754  0.1421 -0.3982
 8606SOL    HW126717   2.620   3.746   5.338 -0.3637 -1.2463 -2.6579
 8606SOL    HW226718   2.664   3.684   5.483 -2.1213  2.9645 -0.1162
 8607SOL     OW26719   4.433   6.554   0.985 -0.1887 -0.1543  0.3743
 8607SOL    HW126720   4.356   6.504   0.945 -0.2136  0.1203  0.0762
 8607SOL    HW226721   4.419   6.565   1.083 -0.1186 -0.8510  0.4644
 8608SOL     OW26722   4.540   4.386   1.659  0.3217 -0.0874 -0.1202
 8608SOL    HW126723   4.473   4.338   1.716 -2.7966  2.8651 -0.9024
 8608SOL    HW226724   4.570   4.469   1.706  1.3231  0.0025 -0.8999
 8609SOL     OW26725   3.468   0.680   4.836  0.0340 -0.1112  0.2905
 8609SOL    HW126726   3.497   0.774   4.818 -2.5520  0.9186  1.0191
 8609SOL    HW226727   3.544   0.618   4.819  1.1281  1.8165 -2.6902
 8610SOL     OW26728   1.940   5.647   4.031 -0.7770  0.2615 -0.0204
 8610SOL    HW126729   2.003   5.606   4.096 -1.4902  1.4499  1.4772
 8610SOL    HW226730   1.985   5.655   3.942 -0.1376 -2.3426 -0.0034
 8611SOL     OW26731   1.192   1.484   4.578 -0.0230 -0.1360 -0.3304
 8611SOL    HW126732   1.231   1.393   4.560 -0.5384 -0.6647  1.0796
 8611SOL    HW226733   1.244   1.552   4.527  1.5458 -1.0271 -0.0215
 8612SOL     OW26734   3.139   2.952   6.453 -0.0100 -0.1704 -0.7069
 8612SOL    HW126735   3.130   3.048   6.479  2.1193  0.3087 -1.4642
 8612SOL    HW226736   3.100   2.938   6.362 -0.7679 -0.1344 -0.3871
 8613SOL     OW26737   1.611   3.086   1.843 -0.2650  0.3563 -0.0540
 8613SOL    HW126738   1.649   3.113   1.932 -1.2851 -0.2197  0.5696
 8613SOL    HW226739   1.618   2.986   1.833  1.0640  0.5286 -1.2115
 8614SOL     OW26740   2.477   4.442   3.142  0.0521  0.4249 -0.0721
 8614SOL    HW126741   2.532   4.431   3.059 -1.1040  0.4111 -0.8510
 8614SOL    HW226742   2.537   4.466   3.218  1.3952 -1.4882 -0.4613
 8615SOL     OW26743   5.353   2.569   5.967 -0.1822  0.0190  0.0995
 8615SOL    HW126744   5.418   2.645   5.960  0.0608 -0.3250 -2.0994
 8615SOL    HW226745   5.260   2.605   5.959 -0.1797  0.2561  0.9637
 8616SOL     OW26746   6.108   4.418   0.078 -0.5137 -0.3513  0.4562
 8616SOL    HW126747   6.170   4.492   0.106 -0.1497 -0.8213  0.9104
 8616SOL    HW226748   6.024   4.458   0.041 -0.3769  0.2940  0.8175
 8617SOL     OW26749   6.159   0.089   1.600  0.5577 -0.2254 -0.9143
 8617SOL    HW126750   6.254   0.087   1.630  0.2063 -0.9155  0.2162
 8617SOL    HW226751   6.114   0.170   1.637  0.3844 -0.5573 -0.3863
 8618SOL     OW26752   2.150   0.049   0.678  0.2117 -0.2218 -0.0391
 8618SOL    HW126753   2.217   0.120   0.699 -0.2563  0.6182 -1.2595
 8618SOL    HW226754   2.068   0.063   0.734 -0.4895  1.1680 -1.3583
 8619SOL     OW26755   3.539   4.761   6.848 -0.3997  0.8378 -0.2171
 8619SOL    HW126756   3.563   4.821   6.924 -0.1722 -0.4919  0.8209
 8619SOL    HW226757   3.486   4.683   6.883 -2.3094  1.3475 -1.7761
 8620SOL     OW26758   0.839   5.412   2.260 -0.1357 -0.8681  0.6069
 8620SOL    HW126759   0.921   5.397   2.204 -1.3542 -0.9927 -1.2476
 8620SOL    HW226760   0.793   5.324   2.274 -0.9808 -0.5431 -0.0680
 8621SOL     OW26761   0.684   1.686   3.729  0.0376 -0.2863 -0.2467
 8621SOL    HW126762   0.626   1.755   3.687  0.2037 -0.8583 -1.4568
 8621SOL    HW226763   0.752   1.730   3.788 -0.5861  0.4882 -0.0946
 8622SOL     OW26764   5.264   5.124   0.229 -0.0474  0.1313 -0.1323
 8622SOL    HW126765   5.234   5.065   0.304  1.0759  0.4186  0.5844
 8622SOL    HW226766   5.211   5.209   0.231  2.4073  1.8263  2.8319
 8623SOL     OW26767   6.473   5.180   2.020 -0.0970  0.0458  0.4332
 8623SOL    HW126768   6.466   5.081   2.034 -1.2576  0.1368  0.5863
 8623SOL    HW226769   6.436   5.203   1.930 -0.7752  0.4492  0.8096
 8624SOL     OW26770   2.085   4.048   3.267 -0.0875 -0.0846  0.0607
 8624SOL    HW126771   2.081   3.957   3.227  0.5666 -0.1721  0.1780
 8624SOL    HW226772   2.149   4.105   3.215 -1.1732  0.5903 -0.5625
 8625SOL     OW26773   3.533   6.943   6.280  0.0344  0.4455  0.8896
 8625SOL    HW126774   3.527   6.927   6.379  2.7211 -3.1146  0.6895
 8625SOL    HW226775   3.511   6.858   6.232  1.5062  1.2818 -1.4380
 8626SOL     OW26776   4.378   3.220   5.331 -0.7282 -0.2614  0.3565
 8626SOL    HW126777   4.362   3.125   5.307 -1.8740 -0.5186  2.0002
 8626SOL    HW226778   4.301   3.276   5.298 -0.1244  0.0938 -0.4862
 8627SOL     OW26779   1.097   1.312   2.898  0.0792  0.1204  0.2139
 8627SOL    HW126780   1.143   1.330   2.985 -0.4357  1.4307  0.2379
 8627SOL    HW226781   1.118   1.386   2.834  1.1476 -1.2511 -1.0868
 8628SOL     OW26782   6.091   0.110   0.752 -0.6463  0.0150  0.3997
 8628SOL    HW126783   6.086   0.169   0.832 -0.4415 -1.2325  1.3605
 8628SOL    HW226784   6.171   0.050   0.759 -0.9802 -0.5520 -0.4224
 8629SOL     OW26785   1.979   4.914   2.623 -0.8364 -0.3831  0.0822
 8629SOL    HW126786   1.940   4.992   2.672  1.3332  0.2406  0.9299
 8629SOL    HW226787   2.047   4.869   2.680  0.2605 -0.9315 -1.5752
 8630SOL     OW26788   5.520   2.548   4.549 -0.1727 -0.2024  0.0281
 8630SOL    HW126789   5.432   2.547   4.598 -0.3983  0.7300 -0.3304
 8630SOL    HW226790   5.514   2.490   4.469  0.3706 -2.1863  1.3436
 8631SOL     OW26791   3.522   4.722   5.698  0.2429 -0.1637  0.0229
 8631SOL    HW126792   3.435   4.683   5.669  0.6133  0.1915 -1.6744
 8631SOL    HW226793   3.546   4.799   5.639  0.8574  0.9050  1.5795
 8632SOL     OW26794   3.608   5.916   3.312 -0.5873  0.6516 -0.4878
 8632SOL    HW126795   3.683   5.901   3.247  0.3530 -0.2746  0.7738
 8632SOL    HW226796   3.645   5.931   3.403 -1.9108  1.5505 -0.0661
 8633SOL     OW26797   6.007   0.660   4.646 -0.0198  0.1384 -0.4658
 8633SOL    HW126798   6.050   0.648   4.736 -0.8114  1.0654  0.0533
 8633SOL    HW226799   6.078   0.672   4.577  0.5916 -0.0559  0.1132
 8634SOL     OW26800   6.614   2.934   1.730 -0.2905 -0.5338 -0.1838
 8634SOL    HW126801   6.658   2.948   1.642 -0.1577  0.0535 -0.0333
 8634SOL    HW226802   6.669   2.978   1.802 -0.2441 -1.2550  0.2298
 8635SOL     OW26803   6.241   3.740   0.198 -0.6526  0.2426 -0.1572
 8635SOL    HW126804   6.252   3.691   0.112 -0.4441  0.0082  0.0011
 8635SOL    HW226805   6.264   3.837   0.185  1.0189 -0.1097  0.0137
 8636SOL     OW26806   0.046   5.988   6.803 -0.9353 -0.4769 -0.2007
 8636SOL    HW126807   0.080   6.081   6.790 -0.8402 -0.7282 -1.9586
 8636SOL    HW226808   0.025   5.973   6.900  2.1737  0.2694  0.6844
 8637SOL     OW26809   3.184   1.852   6.935  0.3937 -0.2440 -0.0134
 8637SOL    HW126810   3.141   1.942   6.941  2.8175  1.0700 -0.5987
 8637SOL    HW226811   3.115   1.780   6.938 -1.8792  1.7117 -1.9768
 8638SOL     OW26812   2.011   4.168   0.397  0.0393 -0.0096 -0.4983
 8638SOL    HW126813   1.978   4.206   0.311 -1.7037  0.1993  0.2099
 8638SOL    HW226814   1.953   4.091   0.424  1.2610 -0.8113 -0.0703
 8639SOL     OW26815   5.683   1.943   0.825  0.0468 -0.1207 -0.0087
 8639SOL    HW126816   5.595   1.934   0.872  0.4314 -0.6155  0.6303
 8639SOL    HW226817   5.718   2.036   0.837  0.2867 -0.3247  0.9746
 8640SOL     OW26818   5.060   4.896   0.938 -0.2078  0.0167  0.5177
 8640SOL    HW126819   5.052   4.890   1.037  1.9043  0.9974  0.7973
 8640SOL    HW226820   5.114   4.819   0.904 -1.1568 -0.4675  0.0751
 8641SOL     OW26821   1.445   5.558   4.163 -0.5189  0.8997 -0.3635
 8641SOL    HW126822   1.346   5.550   4.161 -0.4395 -0.0356 -2.2631
 8641SOL    HW226823   1.483   5.488   4.223 -0.9922  1.4432  0.5973
 8642SOL     OW26824   4.472   1.346   2.112  0.3212 -0.2042 -0.4153
 8642SOL    HW126825   4.495   1.249   2.119  0.9501 -0.1131 -1.0755
 8642SOL    HW226826   4.430   1.364   2.023 -0.2037  0.0537 -0.1201
 8643SOL     OW26827   5.162   6.720   5.252  0.1270  0.1254 -0.4236
 8643SOL    HW126828   5.222   6.698   5.329  0.9029  0.8452 -0.8112
 8643SOL    HW226829   5.182   6.658   5.176 -0.5124 -0.4658 -0.1183
 8644SOL     OW26830   4.479   3.231   5.584 -0.3590 -0.6286 -0.1810
 8644SOL    HW126831   4.434   3.296   5.644 -0.4503 -0.6247 -0.2530
 8644SOL    HW226832   4.426   3.222   5.499 -1.7575 -2.7164  0.8505
 8645SOL     OW26833   7.008   5.434   3.538  0.9143  0.2225  0.1976
 8645SOL    HW126834   7.060   5.353   3.512  0.7358  0.0567  0.3532
 8645SOL    HW226835   7.056   5.516   3.506  0.8754  0.0374 -0.3492
 8646SOL     OW26836   5.332   0.986   0.911  0.0157  0.3448  0.5079
 8646SOL    HW126837   5.374   1.064   0.866 -0.3936  1.3571  1.8151
 8646SOL    HW226838   5.244   0.965   0.868  0.5973 -0.0672 -0.5020
 8647SOL     OW26839   4.390   5.368   0.062 -0.5672 -0.0663  0.3975
 8647SOL    HW126840   4.392   5.455   0.111 -1.9290  0.5043 -0.4949
 8647SOL    HW226841   4.426   5.381  -0.030  2.2155 -1.1843  1.2269
 8648SOL     OW26842   6.593   1.098   4.790 -1.0370  0.0912 -0.0337
 8648SOL    HW126843   6.511   1.087   4.733 -0.5506  0.2879 -0.7913
 8648SOL    HW226844   6.666   1.139   4.735 -0.2415 -0.6284  0.4723
 8649SOL     OW26845   0.183   4.495   5.661 -0.4020 -0.4691 -0.6802
 8649SOL    HW126846   0.218   4.430   5.729  1.9493 -0.0032 -1.3545
 8649SOL    HW226847   0.139   4.444   5.588  0.2407 -1.2416 -0.5551
 8650SOL     OW26848   1.279   4.995   0.490  0.3842 -0.3525 -0.0583
 8650SOL    HW126849   1.198   4.950   0.453  0.5086 -2.1350  1.7112
 8650SOL    HW226850   1.334   5.031   0.414 -0.5430 -1.7276 -1.4539
 8651SOL     OW26851   3.296   1.436   6.837 -0.1578 -0.2722 -0.8597
 8651SOL    HW126852   3.325   1.491   6.916 -1.9913 -1.3816  0.6977
 8651SOL    HW226853   3.206   1.467   6.806 -0.9724 -1.9266 -0.3141
 8652SOL     OW26854   1.995   4.175   2.931 -0.4161 -0.2019 -0.0479
 8652SOL    HW126855   1.980   4.233   3.011  1.1385 -1.2329  1.0414
 8652SOL    HW226856   1.926   4.196   2.861 -2.2879  0.2153  1.8220
 8653SOL     OW26857   0.088   3.555   5.835  0.2404 -0.4938 -0.2560
 8653SOL    HW126858  -0.005   3.523   5.816  0.1133 -0.0529 -0.3849
 8653SOL    HW226859   0.100   3.566   5.934 -0.7770  2.1469 -0.3409
 8654SOL     OW26860   1.607   0.637   1.369  0.1964  0.3344  0.5094
 8654SOL    HW126861   1.611   0.549   1.322  0.4402  0.7438 -0.2483
 8654SOL    HW226862   1.586   0.709   1.304 -0.8144  0.7441  1.2629
 8655SOL     OW26863   0.744   5.704   3.252  0.1845 -0.2361  0.4734
 8655SOL    HW126864   0.781   5.634   3.314  0.9779 -2.1735 -1.9829
 8655SOL    HW226865   0.819   5.764   3.223  0.1967 -0.4390  0.0757
 8656SOL     OW26866   6.380   0.517   6.883  0.7416 -0.0725  0.3979
 8656SOL    HW126867   6.316   0.585   6.846  2.8739  0.6773 -2.2364
 8656SOL    HW226868   6.390   0.442   6.817  1.7767 -0.6972  1.2489
 8657SOL     OW26869   5.806   5.206   1.409 -0.0156  0.0037  0.2052
 8657SOL    HW126870   5.889   5.163   1.373  0.3917 -0.3352  1.4910
 8657SOL    HW226871   5.769   5.269   1.341  0.2588 -1.1941 -1.0955
 8658SOL     OW26872   4.567   5.868   0.814 -0.3279  0.1377 -0.6826
 8658SOL    HW126873   4.633   5.840   0.744 -0.6458  0.7762 -1.2434
 8658SOL    HW226874   4.573   5.967   0.828 -0.9802  0.1607 -0.5386
 8659SOL     OW26875   5.635   6.742   2.454  0.1198  0.5833  0.1176
 8659SOL    HW126876   5.645   6.834   2.491  1.6934  0.6671 -0.4537
 8659SOL    HW226877   5.669   6.675   2.521 -0.8865  0.3989  0.4728
 8660SOL     OW26878   4.666   2.879   1.171  0.3881  0.1634  0.1454
 8660SOL    HW126879   4.693   2.788   1.203 -0.2114 -0.2016 -0.3735
 8660SOL    HW226880   4.577   2.903   1.211  1.2534  1.2005  1.5475
 8661SOL     OW26881   5.328   2.184   1.513  0.3604  0.6343 -0.2236
 8661SOL    HW126882   5.295   2.129   1.436 -0.9867  1.3360 -0.1828
 8661SOL    HW226883   5.312   2.281   1.494 -1.5956  0.7426  1.6175
 8662SOL     OW26884   4.889   6.316   2.030 -0.5114 -0.0949 -0.7985
 8662SOL    HW126885   4.875   6.397   1.974 -0.3294  0.7876  0.3905
 8662SOL    HW226886   4.977   6.323   2.077 -1.6634  0.3651  1.4405
 8663SOL     OW26887   2.518   5.276   6.723 -0.4593 -0.4199  0.6104
 8663SOL    HW126888   2.603   5.291   6.673  0.7877 -2.7731  1.8623
 8663SOL    HW226889   2.523   5.320   6.812 -0.8366 -0.0428  0.4521
 8664SOL     OW26890   3.255   4.422   5.368 -0.5595  0.1192 -0.3636
 8664SOL    HW126891   3.224   4.339   5.322 -0.5533 -0.1088  0.0395
 8664SOL    HW226892   3.206   4.501   5.331  1.5296  0.3738 -2.9227
 8665SOL     OW26893   5.326   5.060   1.541 -0.2083  0.6080  0.7583
 8665SOL    HW126894   5.393   5.109   1.486 -0.4251 -1.6757 -1.7417
 8665SOL    HW226895   5.374   5.004   1.609  0.4390 -0.3423 -0.4381
 8666SOL     OW26896   5.607   4.189   5.698 -0.3481 -0.1504 -0.3009
 8666SOL    HW126897   5.550   4.166   5.619 -0.7596  0.1842 -0.1037
 8666SOL    HW226898   5.699   4.212   5.667 -0.3394 -0.6234 -0.6261
 8667SOL     OW26899   5.222   1.729   2.012 -0.4366 -0.4718 -0.2315
 8667SOL    HW126900   5.147   1.793   2.032  0.6601  0.1465  2.3462
 8667SOL    HW226901   5.308   1.778   2.012  0.0968 -1.3429 -2.1996
 8668SOL     OW26902   5.822   1.287   4.984 -0.0214  0.8614 -0.3839
 8668SOL    HW126903   5.729   1.324   4.985  0.3813  1.8909 -0.2137
 8668SOL    HW226904   5.823   1.204   4.928 -1.1768  0.4533  0.1584
 8669SOL     OW26905   2.509   0.434   6.911 -0.8125  0.3618  0.5654
 8669SOL    HW126906   2.420   0.478   6.910 -0.5674  0.8452 -0.5996
 8669SOL    HW226907   2.547   0.437   7.004 -3.1884 -2.2951  1.7608
 8670SOL     OW26908   3.315   5.442   4.342 -0.0828 -0.0297  0.1135
 8670SOL    HW126909   3.248   5.515   4.357  1.5022  1.4876  0.0020
 8670SOL    HW226910   3.276   5.375   4.278 -1.0005  1.5173 -1.0250
 8671SOL     OW26911   5.493   0.194   5.140  0.3462  0.2533  0.1033
 8671SOL    HW126912   5.488   0.236   5.049  0.3115 -1.7127 -0.8642
 8671SOL    HW226913   5.582   0.151   5.152 -0.0025 -0.3618  0.5835
 8672SOL     OW26914   3.091   4.839   3.870 -0.3716 -0.3137 -0.1782
 8672SOL    HW126915   3.136   4.861   3.784  0.0419 -1.2731 -0.2256
 8672SOL    HW226916   3.038   4.755   3.860 -0.8378 -0.0892  0.3330
 8673SOL     OW26917   1.554   1.264   6.519 -0.2753  0.2240 -0.2225
 8673SOL    HW126918   1.519   1.352   6.485 -1.5736 -0.5496 -0.9633
 8673SOL    HW226919   1.651   1.273   6.540 -0.8201  2.4331  1.7602
 8674SOL     OW26920   5.528   5.625   1.409 -0.1966  0.3679  0.4571
 8674SOL    HW126921   5.596   5.556   1.386 -0.5829  0.3832 -0.7808
 8674SOL    HW226922   5.451   5.620   1.346 -0.5722  1.4504  0.7914
 8675SOL     OW26923   1.873   1.483   4.603 -0.0009 -0.3405  0.3630
 8675SOL    HW126924   1.777   1.511   4.597  0.0718 -0.2214 -0.3100
 8675SOL    HW226925   1.921   1.509   4.519  0.3588 -1.3998  0.2264
 8676SOL     OW26926   2.983   0.259   3.663 -0.5849  0.0174  0.5171
 8676SOL    HW126927   2.931   0.310   3.594 -1.3244 -2.0201 -0.5211
 8676SOL    HW226928   3.070   0.307   3.681  0.5427 -0.2451 -3.2678
 8677SOL     OW26929   3.892   5.551   0.971  0.8025  0.2352  0.0424
 8677SOL    HW126930   3.988   5.576   0.975  1.2509 -1.2124 -1.0112
 8677SOL    HW226931   3.865   5.535   0.876 -0.4711  0.5370  0.3231
 8678SOL     OW26932   0.305   0.763   6.154  0.3756 -0.6689 -0.0615
 8678SOL    HW126933   0.285   0.856   6.122  1.0739 -0.6735 -0.5318
 8678SOL    HW226934   0.357   0.714   6.085  1.0764 -1.0037  0.6858
 8679SOL     OW26935   0.286   3.297   5.503  0.0270  0.4119 -0.6297
 8679SOL    HW126936   0.270   3.274   5.407 -0.2653  0.6704 -0.6475
 8679SOL    HW226937   0.287   3.397   5.513 -0.9099  0.3962 -0.2219
 8680SOL     OW26938   0.846   4.805   0.897  0.0065  0.3852  0.0247
 8680SOL    HW126939   0.762   4.807   0.951 -0.0061  0.2524  0.0095
 8680SOL    HW226940   0.915   4.750   0.944 -0.2395 -0.3278 -0.4399
 8681SOL     OW26941   6.066   3.736   1.195 -0.2293 -0.3043 -0.3368
 8681SOL    HW126942   6.014   3.743   1.110  1.1244  1.2172 -1.1193
 8681SOL    HW226943   6.155   3.694   1.176 -0.4486 -1.2516  0.6285
 8682SOL     OW26944   4.234   0.220   2.027  0.1207 -0.3658  0.1143
 8682SOL    HW126945   4.197   0.241   1.936 -0.1310 -0.1261  0.2692
 8682SOL    HW226946   4.186   0.276   2.095 -0.3264 -1.2037  0.4970
 8683SOL     OW26947   2.190   2.299   3.087 -0.0991 -0.1631 -0.7894
 8683SOL    HW126948   2.129   2.267   3.014  0.6360 -2.3040 -0.5482
 8683SOL    HW226949   2.285   2.278   3.062  0.5200  2.3977 -0.8095
 8684SOL     OW26950   1.560   3.422   4.033  0.1008  0.1552 -0.2272
 8684SOL    HW126951   1.542   3.520   4.048  0.3396  0.3898 -1.4096
 8684SOL    HW226952   1.655   3.409   4.008 -0.4903 -0.0610 -2.5650
 8685SOL     OW26953   1.412   0.204   5.262  0.1577 -0.0563 -0.1700
 8685SOL    HW126954   1.496   0.247   5.229  1.9592 -3.5416 -0.5597
 8685SOL    HW226955   1.334   0.262   5.239  2.2010  2.2531 -1.8097
 8686SOL     OW26956   5.836   0.826   1.319  0.4663 -1.0055 -0.0712
 8686SOL    HW126957   5.904   0.808   1.249  0.5860 -2.7712  0.4509
 8686SOL    HW226958   5.746   0.796   1.287 -0.0742  1.1559 -0.6921
 8687SOL     OW26959   4.127   5.347   1.961 -0.2375 -0.3669  0.6769
 8687SOL    HW126960   4.100   5.254   1.987 -0.4353 -0.2814  0.7738
 8687SOL    HW226961   4.109   5.360   1.863 -2.1501  0.2493  1.0664
 8688SOL     OW26962   3.781   6.216   1.313 -0.1482  0.4300  0.7392
 8688SOL    HW126963   3.699   6.160   1.303 -1.1735  2.1001 -0.8706
 8688SOL    HW226964   3.862   6.158   1.305 -1.1591 -1.0258  0.7374
 8689SOL     OW26965   3.791   6.554   0.332  0.0229  0.4866  0.0962
 8689SOL    HW126966   3.751   6.645   0.319  1.6107  1.1979 -0.1555
 8689SOL    HW226967   3.884   6.554   0.294  0.2184 -1.1169  0.5225
 8690SOL     OW26968   6.925   1.356   3.578  0.1640  0.6609 -0.3351
 8690SOL    HW126969   6.884   1.436   3.536  1.3163  1.2838 -0.3197
 8690SOL    HW226970   6.953   1.291   3.507  1.1341  1.2321 -0.4997
 8691SOL     OW26971   3.686   1.764   6.017 -0.3573  0.4563 -0.1865
 8691SOL    HW126972   3.595   1.793   5.988 -0.3379  0.8858  0.1716
 8691SOL    HW226973   3.730   1.838   6.068  0.4521  0.4889 -0.9148
 8692SOL     OW26974   3.066   1.805   3.258  0.2258 -0.5177  0.3278
 8692SOL    HW126975   3.051   1.716   3.303 -2.2573 -0.3338 -0.0194
 8692SOL    HW226976   3.148   1.848   3.297  0.4923 -2.1722  1.7407
 8693SOL     OW26977   5.258   2.672   0.550 -0.2792 -0.2926  0.2821
 8693SOL    HW126978   5.242   2.642   0.457 -3.4159 -0.7994  0.8583
 8693SOL    HW226979   5.219   2.764   0.563 -3.3274 -1.6475  1.8697
 8694SOL     OW26980   3.753   1.623   5.694  0.1538 -0.1904 -0.8719
 8694SOL    HW126981   3.744   1.722   5.707  2.6193  0.3081 -2.2450
 8694SOL    HW226982   3.785   1.581   5.779 -0.8125  0.1832 -0.3070
 8695SOL     OW26983   4.159   1.372   5.081  0.0084 -0.2522  0.0053
 8695SOL    HW126984   4.211   1.314   5.144 -1.9145 -1.7253  0.3469
 8695SOL    HW226985   4.176   1.468   5.103  0.1163 -0.7070  2.2109
 8696SOL     OW26986   3.650   6.104   6.224 -0.2152 -0.1011 -0.0301
 8696SOL    HW126987   3.555   6.125   6.203  0.1683 -0.2513 -2.1846
 8696SOL    HW226988   3.664   6.005   6.223 -0.2344 -0.1385  1.3936
 8697SOL     OW26989   6.083   2.382   0.690  0.0984 -0.7489  1.0860
 8697SOL    HW126990   6.122   2.460   0.642  0.6421 -1.6293  0.0361
 8697SOL    HW226991   6.155   2.335   0.741  0.0812 -1.3911  0.5328
 8698SOL     OW26992   4.592   6.411   3.337  0.1831 -0.3654  0.5348
 8698SOL    HW126993   4.513   6.351   3.322  0.9606 -1.1411 -0.6474
 8698SOL    HW226994   4.634   6.433   3.249  0.1621  1.6210  0.9849
 8699SOL     OW26995   6.860   2.767   5.991  0.2264  0.0694 -0.3327
 8699SOL    HW126996   6.863   2.668   5.979 -0.3583  0.2617 -2.5051
 8699SOL    HW226997   6.942   2.808   5.952 -0.1443  0.5257 -0.6465
 8700SOL     OW26998   1.433   1.239   5.135  0.3598 -0.2310  0.4159
 8700SOL    HW126999   1.345   1.260   5.178  0.3896 -0.9265  0.8315
 8700SOL    HW227000   1.507   1.278   5.190  0.2824  1.3126 -0.5148
 8701SOL     OW27001   6.809   2.415   0.462 -0.2852 -0.2298  0.0856
 8701SOL    HW127002   6.712   2.438   0.474 -0.3481 -0.3722 -0.1495
 8701SOL    HW227003   6.820   2.316   0.465 -0.2623 -0.2596 -0.7254
 8702SOL     OW27004   4.963   4.770   1.616 -0.2106 -1.0472 -0.0446
 8702SOL    HW127005   4.926   4.682   1.583  0.2735 -0.6996 -1.6230
 8702SOL    HW227006   4.888   4.832   1.635 -0.5989 -0.3138 -3.3212
 8703SOL     OW27007   3.029   5.095   1.283  0.0708  0.2391  0.6101
 8703SOL    HW127008   3.127   5.080   1.294  0.2468  0.0834 -0.9762
 8703SOL    HW227009   2.998   5.164   1.349  1.6025  1.6319 -0.0673
 8704SOL     OW27010   5.388   3.585   2.517 -0.2745 -0.0025  0.2061
 8704SOL    HW127011   5.407   3.569   2.420  3.0937 -0.4539  0.8065
 8704SOL    HW227012   5.296   3.554   2.539 -1.3239  0.5873 -2.9162
 8705SOL     OW27013   4.949   1.314   6.047 -0.0116  0.0046  0.2641
 8705SOL    HW127014   4.991   1.366   5.973  1.6939 -1.2857  0.2636
 8705SOL    HW227015   4.849   1.320   6.040  0.0389 -0.8558 -2.7215
 8706SOL     OW27016   4.535   1.385   4.420 -0.1850 -0.3808 -0.3869
 8706SOL    HW127017   4.491   1.300   4.449  1.6029 -1.4538 -0.6792
 8706SOL    HW227018   4.634   1.378   4.434  0.0064  1.7132 -0.3117
 8707SOL     OW27019   6.013   1.948   0.220  0.3434  0.8545 -0.3028
 8707SOL    HW127020   6.112   1.958   0.235  0.3525 -0.0181  0.2688
 8707SOL    HW227021   5.965   2.026   0.260  0.4969 -0.5733  3.0156
 8708SOL     OW27022   3.172   1.508   1.568  0.3990 -0.0303 -0.5959
 8708SOL    HW127023   3.101   1.438   1.562  2.3562 -2.3142  0.8435
 8708SOL    HW227024   3.148   1.585   1.509 -3.2518 -0.6080 -0.0921
 8709SOL     OW27025   6.739   5.882   0.271 -0.4170 -0.1054 -0.4225
 8709SOL    HW127026   6.777   5.794   0.245 -0.0555 -0.5411  1.3965
 8709SOL    HW227027   6.736   5.888   0.371 -0.8686  1.7617 -0.5159
 8710SOL     OW27028   1.673   3.254   2.639 -0.0552  0.2279  0.3007
 8710SOL    HW127029   1.616   3.198   2.699 -1.5792  0.2282 -1.0777
 8710SOL    HW227030   1.738   3.195   2.591  0.4395  0.0866  1.1189
 8711SOL     OW27031   5.196   5.282   1.676 -0.6311 -0.2909  0.1738
 8711SOL    HW127032   5.234   5.218   1.610  0.7645  0.6604 -0.0020
 8711SOL    HW227033   5.189   5.238   1.766  1.1348 -0.4676  0.2596
 8712SOL     OW27034   4.701   2.318   3.879 -0.3322 -0.3622  0.0233
 8712SOL    HW127035   4.618   2.294   3.827 -1.8692  1.2760  1.5819
 8712SOL    HW227036   4.768   2.357   3.816 -0.9530 -1.1213 -1.1782
 8713SOL     OW27037   1.587   3.285   3.216 -0.3943  0.0118  0.1604
 8713SOL    HW127038   1.548   3.208   3.165 -0.9771 -0.4321  1.2531
 8713SOL    HW227039   1.522   3.360   3.220  0.2354  0.6449 -1.0422
 8714SOL     OW27040   6.641   2.526   5.619 -0.1013 -0.3026 -0.6167
 8714SOL    HW127041   6.710   2.598   5.620  2.9231 -2.8563 -3.0208
 8714SOL    HW227042   6.616   2.502   5.713  3.8349 -0.4730  0.5645
 8715SOL     OW27043   5.048   6.711   2.202  0.1635 -0.7889  0.2489
 8715SOL    HW127044   4.953   6.721   2.232  0.4043 -2.1275  1.6012
 8715SOL    HW227045   5.109   6.722   2.281  1.1985  0.6268 -0.6953
 8716SOL     OW27046   0.363   0.082   6.408  0.0435 -0.2373  0.7605
 8716SOL    HW127047   0.326   0.067   6.500  1.6869 -1.2178  1.3081
 8716SOL    HW227048   0.352   0.178   6.383  1.0968  0.4592  2.7203
 8717SOL     OW27049   3.120   3.500   2.927 -0.2163 -0.0920 -0.6180
 8717SOL    HW127050   3.156   3.414   2.964 -1.2130  0.2679  1.3043
 8717SOL    HW227051   3.043   3.481   2.867  0.2409 -0.5860 -1.0588
 8718SOL     OW27052   0.107   4.869   6.315 -0.2979 -0.3213  0.3199
 8718SOL    HW127053   0.084   4.964   6.297  0.3624 -0.2995 -0.4811
 8718SOL    HW227054   0.091   4.814   6.233 -0.3776 -0.8509  0.6778
 8719SOL     OW27055   2.594   7.016   5.202  0.0371 -0.4114 -0.5559
 8719SOL    HW127056   2.548   6.944   5.255  0.0073  0.2980  0.4220
 8719SOL    HW227057   2.530   7.055   5.136 -1.6466  2.0531  2.2318
 8720SOL     OW27058   0.150   0.792   4.696  0.6914 -0.7020 -1.3526
 8720SOL    HW127059   0.149   0.890   4.714  0.8911 -0.9355  0.0909
 8720SOL    HW227060   0.153   0.776   4.598  0.2601  0.7270 -1.6245
 8721SOL     OW27061   4.577   0.796   4.573 -0.1998  0.7182  0.8576
 8721SOL    HW127062   4.495   0.779   4.627 -0.5498 -0.0614  0.1002
 8721SOL    HW227063   4.655   0.812   4.635 -0.3624 -1.2441  1.6306
 8722SOL     OW27064   3.583   6.748   0.650  0.5550  0.4020  0.1632
 8722SOL    HW127065   3.626   6.751   0.740 -0.2010 -1.0433  0.6082
 8722SOL    HW227066   3.498   6.695   0.656  1.8835 -2.1911 -1.9571
 8723SOL     OW27067   5.401   0.260   1.230  0.0797 -0.0622  0.3174
 8723SOL    HW127068   5.409   0.255   1.329  2.5133 -0.8759  0.1404
 8723SOL    HW227069   5.438   0.177   1.189  0.2667  0.7915 -1.3259
 8724SOL     OW27070   5.135   6.989   4.633 -0.2270 -0.7412 -0.0981
 8724SOL    HW127071   5.124   6.932   4.552  1.4970 -0.1613 -0.8013
 8724SOL    HW227072   5.106   7.082   4.612 -0.6713 -0.8025  0.2483
 8725SOL     OW27073   2.772   0.778   0.716  0.2100  0.4741  0.0408
 8725SOL    HW127074   2.853   0.727   0.743 -1.1547 -1.6498  0.3604
 8725SOL    HW227075   2.784   0.812   0.623  1.3002 -0.1691 -0.0703
 8726SOL     OW27076   5.307   6.882   1.146 -0.2266 -0.7029  0.0609
 8726SOL    HW127077   5.282   6.965   1.097  0.2248 -0.0113  0.9700
 8726SOL    HW227078   5.359   6.906   1.228 -0.2319 -1.8745  0.4263
 8727SOL     OW27079   6.435   5.261   2.905  0.3963  0.4426 -0.0251
 8727SOL    HW127080   6.469   5.255   2.811 -0.1808 -0.2709 -0.1944
 8727SOL    HW227081   6.400   5.354   2.921 -1.0141  0.1310 -1.0652
 8728SOL     OW27082   3.804   0.388   2.982  0.7388 -0.2017  0.0407
 8728SOL    HW127083   3.794   0.302   3.032 -1.6564  0.4895  0.8927
 8728SOL    HW227084   3.757   0.380   2.894 -0.6898  0.6150  0.6984
 8729SOL     OW27085   3.700   5.745   2.404 -0.0102 -0.1394  0.1372
 8729SOL    HW127086   3.614   5.699   2.427  0.2984 -1.2724 -0.8484
 8729SOL    HW227087   3.702   5.766   2.306  0.6461  0.2869  0.2319
 8730SOL     OW27088   6.931   6.181   0.793  0.0581 -0.0035 -0.2083
 8730SOL    HW127089   6.993   6.181   0.872 -0.9439 -0.7192  0.6170
 8730SOL    HW227090   6.882   6.094   0.790 -2.2433  1.2038  0.2514
 8731SOL     OW27091   1.656   2.591   1.628 -0.6706  0.8276  0.7506
 8731SOL    HW127092   1.604   2.594   1.542 -1.8556 -0.9141  1.3355
 8731SOL    HW227093   1.742   2.542   1.613 -1.8460 -1.4278  0.9451
 8732SOL     OW27094   1.463   3.230   1.086 -0.3098 -0.3033 -0.5321
 8732SOL    HW127095   1.559   3.259   1.080 -0.3509  0.0657  0.3731
 8732SOL    HW227096   1.413   3.292   1.146 -1.0073 -0.7805 -0.6035
 8733SOL     OW27097   1.051   4.864   3.467 -0.1088 -0.0628 -0.2096
 8733SOL    HW127098   1.121   4.916   3.515  0.1391 -1.2336  0.7487
 8733SOL    HW227099   0.962   4.906   3.482  0.1110  0.1929  0.4003
 8734SOL     OW27100   1.770   3.841   1.751  0.0768  0.1206  0.3030
 8734SOL    HW127101   1.811   3.752   1.771 -0.2621  0.0606  0.7388
 8734SOL    HW227102   1.682   3.849   1.797  0.8861  1.3679  1.7618
 8735SOL     OW27103   0.041   1.241   6.931  0.3904 -0.7300  0.5855
 8735SOL    HW127104   0.060   1.323   6.985  0.7437 -1.7374  2.0670
 8735SOL    HW227105  -0.054   1.213   6.946  0.3705 -0.7837  0.3573
 8736SOL     OW27106   1.596   0.273   0.291  0.3950 -0.1563  0.1643
 8736SOL    HW127107   1.510   0.256   0.242  1.7109  0.4759 -2.6060
 8736SOL    HW227108   1.618   0.370   0.285  0.7205 -0.0924  1.9574
 8737SOL     OW27109   2.367   0.477   6.265  0.0332 -0.3877  0.0198
 8737SOL    HW127110   2.294   0.515   6.322 -0.1015 -1.6207  0.7043
 8737SOL    HW227111   2.360   0.377   6.263  1.2729 -0.4910 -0.4851
 8738SOL     OW27112   1.454   4.567   4.070  0.8679 -0.2592 -0.1932
 8738SOL    HW127113   1.454   4.496   4.140 -1.8027  1.3369  1.6442
 8738SOL    HW227114   1.455   4.525   3.979 -4.7267 -3.1286  0.6452
 8739SOL     OW27115   5.711   4.423   4.717  0.1536  0.1755 -0.5923
 8739SOL    HW127116   5.647   4.371   4.773  1.9568 -2.2044 -0.5566
 8739SOL    HW227117   5.660   4.482   4.655 -1.9870 -0.1526  0.7343
 8740SOL     OW27118   1.499   3.832   6.278  0.3926 -0.4603  0.3331
 8740SOL    HW127119   1.431   3.761   6.259  0.2997  0.1289 -1.7329
 8740SOL    HW227120   1.591   3.794   6.267  0.3509 -0.4430 -0.0838
 8741SOL     OW27121   2.017   3.080   2.317 -0.1622 -0.0382 -0.1375
 8741SOL    HW127122   2.036   3.131   2.234 -0.7417  1.0609  0.3885
 8741SOL    HW227123   2.086   3.101   2.386 -0.4444  0.0935  0.1065
 8742SOL     OW27124   4.623   5.731   1.377 -0.3429  0.2494 -0.8125
 8742SOL    HW127125   4.529   5.750   1.405 -0.3722  2.0651 -1.9962
 8742SOL    HW227126   4.623   5.676   1.294 -0.3716  0.4882 -0.9717
 8743SOL     OW27127   2.686   5.852   4.039 -0.0092  0.4210 -0.3408
 8743SOL    HW127128   2.765   5.838   4.098 -0.1720 -1.4543 -0.5287
 8743SOL    HW227129   2.656   5.765   4.000 -1.0355  1.3437 -1.7548
 8744SOL     OW27130   3.225   2.597   6.071 -0.0641  0.4370 -0.4576
 8744SOL    HW127131   3.181   2.554   5.993 -0.0117 -2.0652  0.7979
 8744SOL    HW227132   3.310   2.640   6.041 -1.0392  1.3531 -2.0861
 8745SOL     OW27133   5.376   1.087   5.490  0.1248  0.1837 -0.0813
 8745SOL    HW127134   5.289   1.136   5.481 -0.1989 -0.4756 -0.5785
 8745SOL    HW227135   5.390   1.029   5.410  0.5162 -0.5200  0.4848
 8746SOL     OW27136   4.338   5.163   5.222 -0.4871  0.2614 -0.1407
 8746SOL    HW127137   4.248   5.119   5.221 -0.0523 -0.6333 -0.1988
 8746SOL    HW227138   4.386   5.144   5.137  0.6139 -1.0910  0.7390
 8747SOL     OW27139   0.140   2.841   4.640 -0.0602  0.2977  0.0971
 8747SOL    HW127140   0.079   2.858   4.563  0.5096 -0.1772 -0.4669
 8747SOL    HW227141   0.145   2.743   4.658 -0.0039  0.3870  0.5827
 8748SOL     OW27142   0.432   1.527   5.745  0.3067 -0.2927  0.4215
 8748SOL    HW127143   0.357   1.560   5.688  1.2190  1.4801  0.2003
 8748SOL    HW227144   0.454   1.433   5.719  0.6996  0.4284 -2.2165
 8749SOL     OW27145   3.769   5.629   4.277 -0.0722  0.2849  0.4397
 8749SOL    HW127146   3.743   5.663   4.187  0.1340 -1.6895 -0.4140
 8749SOL    HW227147   3.687   5.597   4.325 -0.0842  0.6092  0.6374
 8750SOL     OW27148   1.781   4.352   0.533  0.3257 -0.4476  0.0904
 8750SOL    HW127149   1.830   4.433   0.565 -0.1037 -0.0479 -0.2492
 8750SOL    HW227150   1.728   4.375   0.452 -1.7608 -0.4163  1.3875
 8751SOL     OW27151   6.995   0.597   3.507  0.4364 -0.2631  0.1773
 8751SOL    HW127152   7.062   0.642   3.449 -0.2484  0.1341 -0.3256
 8751SOL    HW227153   6.997   0.636   3.598 -0.7953  1.4833 -0.4970
 8752SOL     OW27154   1.293   1.920   0.704 -0.0138 -0.5610  0.0082
 8752SOL    HW127155   1.268   1.854   0.634 -0.2908 -0.8487  0.3740
 8752SOL    HW227156   1.335   1.872   0.782 -0.5799 -0.3540  0.4452
 8753SOL     OW27157   2.586   1.074   5.526 -0.2743  0.5079 -0.4253
 8753SOL    HW127158   2.682   1.057   5.507 -0.3699  0.2058 -0.6556
 8753SOL    HW227159   2.546   0.993   5.570 -0.0713  1.1738  1.0269
 8754SOL     OW27160   6.389   2.773   6.524  0.2914  0.3970 -0.1637
 8754SOL    HW127161   6.320   2.806   6.588 -0.8013  3.3898 -2.6315
 8754SOL    HW227162   6.477   2.765   6.572 -0.8284  0.7202  2.0824
 8755SOL     OW27163   2.054   1.425   5.572  0.0551 -0.0830 -0.2300
 8755SOL    HW127164   2.129   1.486   5.600 -0.6384 -0.0023  1.5868
 8755SOL    HW227165   1.984   1.423   5.643 -1.3539 -0.7294 -1.5641
 8756SOL     OW27166   1.114   4.746   5.895  0.4093  0.9534 -0.5784
 8756SOL    HW127167   1.176   4.715   5.823  0.0909 -1.8924  0.2285
 8756SOL    HW227168   1.024   4.766   5.855 -0.2701 -2.2322 -0.9158
 8757SOL     OW27169   5.988   0.647   6.193 -0.9273  0.1807  0.0297
 8757SOL    HW127170   6.034   0.719   6.141 -1.7279  1.0176  0.4574
 8757SOL    HW227171   6.055   0.576   6.218 -0.1430  0.7290 -0.4631
 8758SOL     OW27172   5.276   4.892   2.353  0.4417 -0.3483 -0.3856
 8758SOL    HW127173   5.358   4.878   2.298 -0.1253 -1.6411 -0.9382
 8758SOL    HW227174   5.301   4.907   2.448  1.7564  5.4846 -1.2394
 8759SOL     OW27175   4.515   1.061   5.051 -0.3652  0.4117 -0.0760
 8759SOL    HW127176   4.541   1.056   4.955 -1.4450 -0.7325 -0.3440
 8759SOL    HW227177   4.576   1.004   5.106 -1.2486 -0.9876 -0.4775
 8760SOL     OW27178   2.295   2.680   4.754 -0.7239  0.4717  0.0230
 8760SOL    HW127179   2.389   2.646   4.762 -0.5197  1.0450  0.0472
 8760SOL    HW227180   2.252   2.637   4.674 -1.1212 -1.3453  1.1556
 8761SOL     OW27181   5.971   6.493   1.264 -0.2535  0.5367  0.2389
 8761SOL    HW127182   5.911   6.541   1.328 -0.9111 -0.4007  0.3446
 8761SOL    HW227183   5.917   6.450   1.192  0.3565  0.3129 -0.0984
 8762SOL     OW27184   1.591   2.101   2.326 -0.1821 -1.4332 -0.1821
 8762SOL    HW127185   1.674   2.148   2.357 -1.1303  0.6536 -0.5737
 8762SOL    HW227186   1.616   2.016   2.280  1.5468 -2.1734  1.9155
 8763SOL     OW27187   4.552   6.291   4.928 -0.4204 -0.2105 -0.0309
 8763SOL    HW127188   4.569   6.220   4.996  2.1915  1.4393  1.1957
 8763SOL    HW227189   4.574   6.256   4.837 -1.5490 -1.6717  0.2191
 8764SOL     OW27190   2.787   1.255   5.725 -0.0380 -0.7214  0.0681
 8764SOL    HW127191   2.867   1.277   5.670  0.2241 -0.0430  0.7057
 8764SOL    HW227192   2.708   1.305   5.689  0.6670  1.8845  1.8566
 8765SOL     OW27193   6.932   5.677   5.007 -0.5235 -0.0150  0.2456
 8765SOL    HW127194   6.949   5.767   5.047 -0.0621  0.0197 -0.0213
 8765SOL    HW227195   6.845   5.641   5.041  0.2368 -0.3437  1.9247
 8766SOL     OW27196   3.409   5.514   4.055 -0.1188  0.2746  0.0166
 8766SOL    HW127197   3.456   5.425   4.059 -0.0209  0.3697  1.8632
 8766SOL    HW227198   3.318   5.506   4.095  0.7002  1.4412  2.2625
 8767SOL     OW27199   5.484   1.457   2.922 -1.1824 -0.0010 -0.6130
 8767SOL    HW127200   5.530   1.377   2.881 -2.4364 -0.4627 -1.1647
 8767SOL    HW227201   5.553   1.522   2.953 -0.0399 -2.0495  1.4440
 8768SOL     OW27202   2.619   4.011   7.017 -0.0695 -0.2245 -0.1836
 8768SOL    HW127203   2.676   3.929   7.017 -0.1561 -0.2873  0.0716
 8768SOL    HW227204   2.656   4.077   7.082  0.0890  0.0020 -0.5025
 8769SOL     OW27205   0.680   1.077   5.596  0.2660  0.1095  0.1648
 8769SOL    HW127206   0.752   1.060   5.529  0.1160 -1.5674  0.3994
 8769SOL    HW227207   0.653   0.991   5.639 -2.5016  0.5137 -0.5464
 8770SOL     OW27208   4.334   3.447   0.809  0.1571  0.2091 -0.3382
 8770SOL    HW127209   4.277   3.390   0.750 -2.3583  2.3965 -0.2002
 8770SOL    HW227210   4.346   3.537   0.768 -1.5083  1.7409  2.2653
 8771SOL     OW27211   2.707   6.928   6.867 -0.2834 -0.2704 -0.3701
 8771SOL    HW127212   2.712   6.988   6.787 -2.4214 -0.5353 -0.7823
 8771SOL    HW227213   2.788   6.869   6.870 -0.1404 -0.2426 -2.3517
 8772SOL     OW27214   6.076   5.991   0.600  0.4292  0.0342 -0.1410
 8772SOL    HW127215   5.978   6.007   0.610 -0.2695 -3.8526  1.3199
 8772SOL    HW227216   6.124   6.029   0.680 -0.2282 -0.0323  0.2933
 8773SOL     OW27217   4.446   2.452   5.098 -0.5710 -0.3527 -0.4803
 8773SOL    HW127218   4.355   2.447   5.057 -0.2309  1.3994 -1.5564
 8773SOL    HW227219   4.482   2.545   5.088  1.4016 -1.0495 -0.2161
 8774SOL     OW27220   2.189   1.160   2.052  0.1200  0.3497  0.1980
 8774SOL    HW127221   2.172   1.131   1.958  0.6395  1.1771 -0.1561
 8774SOL    HW227222   2.287   1.158   2.071  0.1325  1.4842  0.2918
 8775SOL     OW27223   5.080   7.019   2.402 -0.0652  0.1636  0.1664
 8775SOL    HW127224   5.040   6.984   2.486 -1.4315 -0.4143 -0.6962
 8775SOL    HW227225   5.009   7.029   2.332  0.8930  1.3897 -0.6895
 8776SOL     OW27226   4.077   3.479   4.625  0.1248  0.1741  0.1535
 8776SOL    HW127227   4.045   3.391   4.591 -4.6622  1.1130  1.4688
 8776SOL    HW227228   4.107   3.536   4.548  1.1059 -1.7575 -0.9595
 8777SOL     OW27229   6.590   4.319   6.990  0.0488 -0.1515  0.2444
 8777SOL    HW127230   6.678   4.324   6.943  1.5001 -0.2714  2.7444
 8777SOL    HW227231   6.597   4.254   7.066 -2.1886 -0.0521  0.6097
 8778SOL     OW27232   5.839   2.957   3.456 -0.4001 -0.2394  0.0028
 8778SOL    HW127233   5.886   3.002   3.532 -2.0450 -2.0221  2.2367
 8778SOL    HW227234   5.894   2.881   3.423  0.4710  0.7450 -0.8591
 8779SOL     OW27235   3.081   5.952   1.476 -0.3472  0.0967 -0.1352
 8779SOL    HW127236   3.014   6.005   1.424  0.1587  0.5475 -0.3367
 8779SOL    HW227237   3.131   5.891   1.414 -0.8216 -0.5077  0.0724
 8780SOL     OW27238   2.839   6.513   3.949 -0.0904  1.1783  0.5490
 8780SOL    HW127239   2.763   6.492   3.888  0.1514 -0.7894  0.8703
 8780SOL    HW227240   2.805   6.521   4.043  0.0189  0.7546  0.6278
 8781SOL     OW27241   6.797   1.458   4.447  0.7162  0.4604  0.3365
 8781SOL    HW127242   6.749   1.494   4.367  0.9056  1.6118  0.7166
 8781SOL    HW227243   6.896   1.462   4.430  0.7410  0.1478  0.4024
 8782SOL     OW27244   5.772   0.295   0.607  0.3464  0.2407  0.1503
 8782SOL    HW127245   5.682   0.275   0.569  0.0626 -0.2670  1.0678
 8782SOL    HW227246   5.790   0.235   0.685  1.0309  1.0642  0.6463
 8783SOL     OW27247   6.445   1.814   3.452 -0.0017 -0.2101  0.1934
 8783SOL    HW127248   6.499   1.861   3.522 -0.8124  0.2370  0.5476
 8783SOL    HW227249   6.448   1.715   3.467  0.1150 -0.1378  0.6471
 8784SOL     OW27250   4.913   3.739   6.818 -0.1159 -0.5300  0.0330
 8784SOL    HW127251   4.944   3.737   6.913 -0.4802 -0.9825  0.1474
 8784SOL    HW227252   4.944   3.823   6.775 -0.9201  0.2175  0.8844
 8785SOL     OW27253   3.917   2.510   6.665  0.1712  0.1265 -0.0115
 8785SOL    HW127254   3.887   2.597   6.703  0.9699  1.0039 -1.3084
 8785SOL    HW227255   3.907   2.438   6.734  0.4057  1.4145  1.4130
 8786SOL     OW27256   1.249   3.929   6.665 -0.0195  0.3517  0.2191
 8786SOL    HW127257   1.168   3.883   6.628 -0.2604  0.2937  0.8211
 8786SOL    HW227258   1.275   3.887   6.752  1.2179 -0.2536 -0.4005
 8787SOL     OW27259   1.395   2.324   1.301 -0.1029  0.2550 -0.5622
 8787SOL    HW127260   1.387   2.357   1.207 -0.4188 -0.6110 -0.8439
 8787SOL    HW227261   1.311   2.344   1.351 -0.7490 -1.0982 -1.0577
 8788SOL     OW27262   5.879   1.101   5.745 -0.2047 -0.1187  0.4851
 8788SOL    HW127263   5.790   1.122   5.704 -0.8548  2.1529  2.8430
 8788SOL    HW227264   5.948   1.161   5.706 -0.3628  0.4060  1.0049
 8789SOL     OW27265   5.849   6.008   5.075  1.0388 -0.2232 -0.2215
 8789SOL    HW127266   5.942   6.036   5.054  1.1909 -0.6109 -0.0744
 8789SOL    HW227267   5.849   5.950   5.157  0.9837 -2.1569 -1.5026
 8790SOL     OW27268   0.443   1.052   2.204  0.2248  0.0238 -0.7310
 8790SOL    HW127269   0.524   1.005   2.240 -0.8929 -1.6242 -0.2243
 8790SOL    HW227270   0.455   1.151   2.212  1.8674 -0.2025  0.0131
 8791SOL     OW27271   5.591   6.000   5.116 -0.0018  0.7928  0.2654
 8791SOL    HW127272   5.546   6.024   5.029  0.0777  0.2993  0.0881
 8791SOL    HW227273   5.690   5.999   5.103  0.0223  0.9810  0.4309
 8792SOL     OW27274   2.742   5.518   3.431  0.1846  0.0482 -0.1194
 8792SOL    HW127275   2.680   5.584   3.387  1.0635  0.6382 -0.5061
 8792SOL    HW227276   2.832   5.560   3.443  0.0916 -0.2535  1.8846
 8793SOL     OW27277   1.770   5.243   5.005 -0.7722  0.0747  0.0824
 8793SOL    HW127278   1.679   5.237   4.966 -0.5873  1.5825 -0.6359
 8793SOL    HW227279   1.773   5.316   5.073 -0.2552 -0.3873  0.5724
 8794SOL     OW27280   2.602   6.894   1.142  0.4270 -0.0741  0.5472
 8794SOL    HW127281   2.524   6.956   1.137  0.5658  0.0433 -0.5013
 8794SOL    HW227282   2.596   6.828   1.067  1.2628 -0.1396  0.5292
 8795SOL     OW27283   1.000   6.514   5.947 -1.0107 -0.0241  0.2802
 8795SOL    HW127284   1.049   6.472   6.023 -1.4576 -0.2214  0.4594
 8795SOL    HW227285   0.918   6.559   5.981 -0.5684  0.9627  0.0903
 8796SOL     OW27286   1.532   1.622   5.415 -0.0390 -0.0269 -0.0472
 8796SOL    HW127287   1.563   1.717   5.419  0.0733 -0.0940  1.6074
 8796SOL    HW227288   1.434   1.619   5.395 -0.0052  0.4277 -0.2837
 8797SOL     OW27289   3.250   0.373   5.624 -0.4930 -0.1279 -0.0330
 8797SOL    HW127290   3.295   0.460   5.604  0.4679 -0.3042  1.2277
 8797SOL    HW227291   3.275   0.305   5.555  0.7309 -0.0593  0.3232
 8798SOL     OW27292   4.995   5.489   5.609  0.1557  0.2877  0.1118
 8798SOL    HW127293   5.041   5.513   5.524 -0.3017 -1.7341 -0.7630
 8798SOL    HW227294   4.981   5.571   5.664 -0.1649  1.7571 -2.0618
 8799SOL     OW27295   1.077   3.752   2.163  0.3665 -0.4650  0.4889
 8799SOL    HW127296   1.123   3.813   2.099  1.5400  0.3137  1.9974
 8799SOL    HW227297   1.146   3.700   2.214 -0.5649 -1.6968  0.5318
 8800SOL     OW27298   5.315   2.666   0.281 -0.0270 -0.1638 -0.4784
 8800SOL    HW127299   5.269   2.597   0.225 -0.7379  0.9439 -1.3074
 8800SOL    HW227300   5.414   2.658   0.270 -0.1324 -0.5872 -1.1417
 8801SOL     OW27301   2.916   1.369   5.444  0.1923  0.0728  0.0115
 8801SOL    HW127302   2.928   1.276   5.478 -0.7786 -0.2476 -0.4900
 8801SOL    HW227303   2.825   1.379   5.403  0.4976  1.0739 -0.4733
 8802SOL     OW27304   2.782   1.018   1.156  0.2923  0.1914 -0.6092
 8802SOL    HW127305   2.768   1.012   1.057 -3.1618  2.0968 -0.3984
 8802SOL    HW227306   2.711   1.077   1.196  2.2155  0.3817  2.8950
 8803SOL     OW27307   1.789   4.452   3.528 -0.3285  0.1514 -0.9262
 8803SOL    HW127308   1.825   4.366   3.491 -0.9259  0.3448 -2.0139
 8803SOL    HW227309   1.702   4.435   3.574  0.8573 -0.2439  1.3095
 8804SOL     OW27310   3.325   1.010   1.131  0.6288 -0.3750 -0.1032
 8804SOL    HW127311   3.308   0.946   1.206  1.9078  0.1173  0.6196
 8804SOL    HW227312   3.267   1.091   1.142  1.0652 -0.1504  0.5449
 8805SOL     OW27313   3.635   2.072   4.008  0.6894  0.4923  0.2152
 8805SOL    HW127314   3.619   2.126   3.925  0.9887  0.8794  0.4064
 8805SOL    HW227315   3.725   2.029   4.003  0.9596  1.0071  0.6045
 8806SOL     OW27316   0.851   5.644   2.422  0.3811 -0.4078 -0.2162
 8806SOL    HW127317   0.832   5.579   2.348 -0.6257  0.3127 -0.6102
 8806SOL    HW227318   0.788   5.628   2.498  0.2905 -0.0672 -0.2154
 8807SOL     OW27319   0.778   4.188   6.934 -0.2725  0.2910 -0.5473
 8807SOL    HW127320   0.850   4.152   6.874 -0.6733 -1.7064  0.1077
 8807SOL    HW227321   0.708   4.233   6.878  0.7642  1.0023 -1.3120
 8808SOL     OW27322   4.120   1.278   6.665 -0.5050 -0.1435  0.0035
 8808SOL    HW127323   4.120   1.233   6.754 -1.1863  0.2792  0.2216
 8808SOL    HW227324   4.055   1.231   6.604 -1.6831  0.8904  0.4227
 8809SOL     OW27325   6.775   2.922   6.928  0.2826 -0.6296 -0.0731
 8809SOL    HW127326   6.767   2.930   6.829 -3.0616  0.8014  0.1591
 8809SOL    HW227327   6.747   2.831   6.957  0.0597 -0.6615 -0.3837
 8810SOL     OW27328   0.264   2.285   6.168 -0.3017 -0.1157  0.5838
 8810SOL    HW127329   0.317   2.334   6.099 -0.7650  0.6363  0.7497
 8810SOL    HW227330   0.241   2.348   6.243  1.3194 -1.2328  2.0804
 8811SOL     OW27331   0.910   3.769   3.446  0.2180  0.2878 -0.5803
 8811SOL    HW127332   0.887   3.686   3.396  2.8239 -0.3725 -0.8208
 8811SOL    HW227333   1.002   3.761   3.484  0.0730  2.6077  0.4409
 8812SOL     OW27334   2.455   0.317   1.039  0.6158 -0.3959 -0.5727
 8812SOL    HW127335   2.534   0.361   0.996  1.4681 -0.4626  0.8516
 8812SOL    HW227336   2.373   0.370   1.020  1.0627 -0.0594 -1.6766
 8813SOL     OW27337   0.531   0.178   1.623 -0.1957 -0.5456 -0.3024
 8813SOL    HW127338   0.588   0.214   1.697 -0.1618 -0.4821 -0.3595
 8813SOL    HW227339   0.589   0.127   1.559 -0.1027  0.0673 -0.7074
 8814SOL     OW27340   6.911   0.520   0.403  0.0059 -0.7468 -1.0444
 8814SOL    HW127341   6.975   0.484   0.336 -0.1071  0.1605 -1.6594
 8814SOL    HW227342   6.955   0.594   0.455  0.6128 -2.4116  0.9655
 8815SOL     OW27343   6.888   5.897   1.140 -0.0711  0.0364  0.0751
 8815SOL    HW127344   6.792   5.891   1.164 -0.1273 -2.4266 -0.3988
 8815SOL    HW227345   6.930   5.806   1.152  1.6729  0.5494 -1.7153
 8816SOL     OW27346   0.255   6.327   2.428 -0.3630 -0.0174  0.1266
 8816SOL    HW127347   0.278   6.334   2.525  1.2710  2.0923 -0.3372
 8816SOL    HW227348   0.160   6.296   2.419  0.2002 -2.7292  2.2943
 8817SOL     OW27349   0.873   6.397   6.701  0.2195 -0.1398 -0.5746
 8817SOL    HW127350   0.826   6.431   6.620 -0.4397  1.1030  0.2832
 8817SOL    HW227351   0.826   6.316   6.735 -0.7112  0.4899 -0.3206
 8818SOL     OW27352   0.743   4.240   1.797  0.0642 -0.2178 -0.0121
 8818SOL    HW127353   0.814   4.261   1.730 -1.3941  2.0171 -0.9537
 8818SOL    HW227354   0.786   4.224   1.886  1.7294  2.1603 -0.2788
 8819SOL     OW27355   6.430   6.462   3.624 -0.0744 -0.2325  0.0565
 8819SOL    HW127356   6.342   6.484   3.582 -0.1381 -1.8958 -0.7979
 8819SOL    HW227357   6.436   6.363   3.637  1.2213 -0.0344  1.1642
 8820SOL     OW27358   1.917   2.773   4.975  0.3346  0.1261 -0.5539
 8820SOL    HW127359   1.985   2.843   4.956  0.7269 -0.2388 -0.4999
 8820SOL    HW227360   1.832   2.816   5.007  0.1201  0.6698 -1.7984
 8821SOL     OW27361   1.725   1.225   5.602 -0.7948  0.4379  0.0616
 8821SOL    HW127362   1.652   1.170   5.560  0.3930 -2.0076  0.9818
 8821SOL    HW227363   1.807   1.169   5.612  1.4258  3.2363 -1.3357
 8822SOL     OW27364   1.415   0.800   1.978  0.5021  0.2715  0.0426
 8822SOL    HW127365   1.421   0.851   2.064 -0.0427  1.2587 -0.4861
 8822SOL    HW227366   1.353   0.847   1.916  1.1625 -0.2345 -1.0282
 8823SOL     OW27367   3.903   0.788   1.739 -0.0081  0.1947 -0.9417
 8823SOL    HW127368   3.874   0.852   1.810 -1.4076 -1.3033 -0.1043
 8823SOL    HW227369   3.923   0.838   1.655 -2.1681  1.6193 -0.6688
 8824SOL     OW27370   1.828   3.727   6.937 -0.0284  0.0645 -0.4224
 8824SOL    HW127371   1.770   3.802   6.905  0.2514  0.9419  1.0189
 8824SOL    HW227372   1.919   3.735   6.897 -0.2657 -0.0577 -0.9959
 8825SOL     OW27373   3.169   6.787   3.334 -0.0484  0.4054  0.0528
 8825SOL    HW127374   3.136   6.712   3.392  0.9717 -0.6019 -0.6125
 8825SOL    HW227375   3.158   6.874   3.381 -0.6510 -0.2305  1.1201
 8826SOL     OW27376   4.582   1.114   0.114  0.0828 -0.5763 -0.0317
 8826SOL    HW127377   4.679   1.092   0.117  0.2905  0.3599  0.5633
 8826SOL    HW227378   4.555   1.159   0.199 -0.6952 -0.1265 -0.5004
 8827SOL     OW27379   2.878   6.908   2.145 -1.4449 -0.1787  0.7185
 8827SOL    HW127380   2.888   6.850   2.226 -0.1693 -1.6116 -0.3823
 8827SOL    HW227381   2.889   6.852   2.063 -2.4514  1.2711 -0.4592
 8828SOL     OW27382   3.374   4.911   3.247  0.2489 -0.1401  0.3933
 8828SOL    HW127383   3.291   4.883   3.295 -0.9765  1.2629 -0.7721
 8828SOL    HW227384   3.406   4.837   3.188 -0.4810 -0.5256  0.4787
 8829SOL     OW27385   0.623   3.969   6.983 -0.2000  0.1382  0.6629
 8829SOL    HW127386   0.527   3.994   6.966  0.1817  1.0423 -0.2565
 8829SOL    HW227387   0.679   4.052   6.984  1.0655 -0.5550 -2.1633
 8830SOL     OW27388   6.362   0.384   0.700 -0.4094  0.1223  0.3464
 8830SOL    HW127389   6.404   0.308   0.750  1.1815  1.0014  0.4408
 8830SOL    HW227390   6.327   0.451   0.765 -0.8836 -0.0458  0.2662
 8831SOL     OW27391   5.335   1.165   6.027 -0.2485  0.7709 -0.5615
 8831SOL    HW127392   5.410   1.100   6.012  0.1228  1.7329 -3.5074
 8831SOL    HW227393   5.248   1.115   6.025  0.1850 -0.2700  2.3221
 8832SOL     OW27394   0.239   0.128   2.630 -0.0789  0.4257  0.0443
 8832SOL    HW127395   0.163   0.076   2.670  0.4425 -0.7015 -0.3858
 8832SOL    HW227396   0.323   0.108   2.681  0.5501 -0.8389 -1.4176
 8833SOL     OW27397   1.259   5.602   4.462 -0.2712 -0.1633  0.4072
 8833SOL    HW127398   1.213   5.578   4.376 -1.9293  5.3984 -0.6757
 8833SOL    HW227399   1.199   5.580   4.539  0.4310 -3.4764  0.1529
 8834SOL     OW27400   5.499   4.191   3.680  0.0709 -0.2963  0.5054
 8834SOL    HW127401   5.463   4.174   3.771 -0.9621  0.7552  0.3149
 8834SOL    HW227402   5.450   4.267   3.638  0.8237 -0.4774 -0.7645
 8835SOL     OW27403   5.011   2.424   4.277  0.6229 -0.2462  0.2203
 8835SOL    HW127404   4.988   2.521   4.279  1.1655 -0.0943 -0.5026
 8835SOL    HW227405   5.018   2.393   4.183  1.0141 -0.8575  0.4414
 8836SOL     OW27406   4.723   0.445   1.745  0.3135  0.4652 -0.7746
 8836SOL    HW127407   4.641   0.450   1.802  0.1742  1.7932 -1.0733
 8836SOL    HW227408   4.698   0.411   1.654  0.3447 -0.5236 -0.4233
 8837SOL     OW27409   6.330   0.710   2.492 -0.1087 -0.0973  0.2605
 8837SOL    HW127410   6.376   0.686   2.577 -0.4402  1.3112  0.8591
 8837SOL    HW227411   6.232   0.696   2.501  0.0224 -1.7444 -0.5439
 8838SOL     OW27412   1.976   6.192   3.998  0.0582  0.3925 -0.3066
 8838SOL    HW127413   1.913   6.256   4.042  1.6898  1.4122  0.6414
 8838SOL    HW227414   1.950   6.099   4.021 -0.6125  0.8216  0.7385
 8839SOL     OW27415   6.655   5.915   2.457 -0.5989  0.0223  0.1072
 8839SOL    HW127416   6.750   5.927   2.483 -0.6147 -0.1730  0.2623
 8839SOL    HW227417   6.635   5.817   2.449 -0.2922  0.0960 -1.7786
 8840SOL     OW27418   6.774   4.354   1.492 -0.3967 -0.4969 -0.2652
 8840SOL    HW127419   6.758   4.345   1.590 -0.2745 -2.2365 -0.3720
 8840SOL    HW227420   6.870   4.378   1.476  0.1827 -2.4143  0.0166
 8841SOL     OW27421   2.613   0.426   6.100 -0.2512  0.4456 -0.4306
 8841SOL    HW127422   2.555   0.456   6.176 -0.9063  0.5979 -0.9860
 8841SOL    HW227423   2.621   0.499   6.033  0.6639  0.4594 -0.3266
 8842SOL     OW27424   3.739   2.773   1.455  0.1694 -0.2852 -0.5758
 8842SOL    HW127425   3.687   2.838   1.509  1.1403  0.8784 -1.0125
 8842SOL    HW227426   3.785   2.708   1.515 -0.6930 -0.5049 -0.1350
 8843SOL     OW27427   1.437   2.075   5.564  0.9075  0.5696 -0.5202
 8843SOL    HW127428   1.399   2.165   5.543  1.6322  0.9908 -0.0907
 8843SOL    HW227429   1.472   2.075   5.658 -1.8287 -1.0994  0.6354
 8844SOL     OW27430   6.179   6.840   5.938 -0.2077  0.3280 -0.1855
 8844SOL    HW127431   6.087   6.878   5.933 -0.4146 -0.2994 -1.9803
 8844SOL    HW227432   6.244   6.903   5.895  0.1244  0.5010  0.5493
 8845SOL     OW27433   2.600   2.738   6.010 -0.0048  0.3177 -0.4872
 8845SOL    HW127434   2.573   2.781   5.924  0.2188 -0.6624 -1.0662
 8845SOL    HW227435   2.519   2.706   6.058 -0.1335  0.8936 -0.3096
 8846SOL     OW27436   2.087   6.022   3.243  0.4688  0.2588 -0.0760
 8846SOL    HW127437   2.145   6.069   3.309  0.6329 -1.2669  0.9178
 8846SOL    HW227438   2.139   5.951   3.197 -0.7109 -1.6889  1.4122
 8847SOL     OW27439   4.028   0.608   1.865 -0.4092 -0.3176 -0.4521
 8847SOL    HW127440   4.032   0.627   1.963 -1.2420 -0.5157 -0.3708
 8847SOL    HW227441   3.984   0.685   1.819  1.1658  0.3630 -0.8516
 8848SOL     OW27442   0.771   2.095   2.817  0.2828  0.2053  0.1563
 8848SOL    HW127443   0.714   2.138   2.748  0.3076 -0.2400 -0.1438
 8848SOL    HW227444   0.814   2.165   2.874  1.4604  0.6502 -1.2228
 8849SOL     OW27445   2.433   6.130   3.817  0.0745  0.5446 -0.3446
 8849SOL    HW127446   2.483   6.046   3.794  0.5291  1.1120 -1.5444
 8849SOL    HW227447   2.374   6.113   3.896 -0.9632 -1.3392 -1.4480
 8850SOL     OW27448   2.420   2.338   6.395  0.2551 -0.0515  0.2227
 8850SOL    HW127449   2.507   2.354   6.349 -0.1574 -1.5335 -1.1406
 8850SOL    HW227450   2.355   2.411   6.372  0.0595 -0.7600 -1.5750
 8851SOL     OW27451   1.557   5.635   2.182  0.6391 -0.1781  0.1981
 8851SOL    HW127452   1.501   5.711   2.213 -0.0897 -0.3162 -0.7522
 8851SOL    HW227453   1.555   5.562   2.251 -0.8334 -0.4246 -0.0725
 8852SOL     OW27454   2.029   2.147   0.486 -0.0811  0.4957  0.2214
 8852SOL    HW127455   2.077   2.159   0.398 -0.6541 -0.7846 -0.2836
 8852SOL    HW227456   1.944   2.096   0.471 -0.4531  0.7233  1.4548
 8853SOL     OW27457   3.486   1.484   1.650 -0.2935  0.0956  0.4944
 8853SOL    HW127458   3.401   1.439   1.679 -2.0661  2.1104 -1.1897
 8853SOL    HW227459   3.537   1.424   1.589 -0.6379 -1.0455  1.3050
 8854SOL     OW27460   1.361   3.963   5.226  0.0219 -0.1448  0.3199
 8854SOL    HW127461   1.403   4.025   5.159 -0.0930 -2.0521 -1.6299
 8854SOL    HW227462   1.417   3.961   5.309  0.4841  1.8687  0.1131
 8855SOL     OW27463   0.588   6.521   2.722  0.1406 -1.1976 -0.3427
 8855SOL    HW127464   0.688   6.524   2.728  0.1361 -1.0301 -0.3250
 8855SOL    HW227465   0.556   6.593   2.660  0.0393 -1.3372 -0.4511
 8856SOL     OW27466   5.567   6.152   4.162  0.8313  0.3258 -0.4228
 8856SOL    HW127467   5.536   6.082   4.226 -0.8474  0.4052 -1.0751
 8856SOL    HW227468   5.506   6.152   4.082  1.9100  1.2994 -1.2771
 8857SOL     OW27469   5.322   0.351   6.235 -0.3767  0.5528 -0.2834
 8857SOL    HW127470   5.335   0.440   6.192  0.9716  0.7796  0.5388
 8857SOL    HW227471   5.399   0.332   6.297 -1.5339 -0.3820  0.9232
 8858SOL     OW27472   0.232   4.868   3.463 -0.2688 -0.3985  0.1985
 8858SOL    HW127473   0.280   4.912   3.387 -0.4895 -1.6813 -0.7209
 8858SOL    HW227474   0.275   4.781   3.484 -0.4026 -0.2023  1.3613
 8859SOL     OW27475   0.802   0.259   4.232 -0.2364  0.0722  0.4790
 8859SOL    HW127476   0.717   0.244   4.182  0.9541  0.4074 -1.7785
 8859SOL    HW227477   0.798   0.347   4.280 -0.3138  1.2797 -1.6288
 8860SOL     OW27478   2.291   2.991   0.501 -0.0647 -0.1200  0.1374
 8860SOL    HW127479   2.293   2.971   0.599  2.0331 -1.1704 -0.0511
 8860SOL    HW227480   2.385   2.998   0.467 -0.7507  0.1659 -1.8190
 8861SOL     OW27481   4.214   1.295   0.291  0.2870  0.0456 -0.0544
 8861SOL    HW127482   4.183   1.349   0.369 -0.8289 -0.0107 -0.4450
 8861SOL    HW227483   4.147   1.223   0.271  0.1626  0.5520 -1.5547
 8862SOL     OW27484   3.354   5.494   5.123  0.5713 -0.3480  0.4164
 8862SOL    HW127485   3.389   5.509   5.030  0.3002 -2.2281 -0.0190
 8862SOL    HW227486   3.429   5.502   5.189  0.5113  2.5695  0.2807
 8863SOL     OW27487   1.304   4.694   2.225 -0.4462  0.3297 -0.1423
 8863SOL    HW127488   1.390   4.650   2.198 -0.9570 -0.8363  0.1181
 8863SOL    HW227489   1.229   4.630   2.216 -1.0930  0.8994  1.0518
 8864SOL     OW27490   5.044   2.727   0.310 -0.0304  0.0505  0.2111
 8864SOL    HW127491   5.012   2.632   0.312  0.9304 -0.3796 -1.7124
 8864SOL    HW227492   5.141   2.728   0.283 -0.2809  1.6010 -0.7143
 8865SOL     OW27493   2.148   2.567   4.965 -0.5790 -0.2649 -0.5798
 8865SOL    HW127494   2.103   2.654   4.986 -0.4912  0.1613 -2.0493
 8865SOL    HW227495   2.193   2.574   4.876 -2.8711 -2.6776 -2.0609
 8866SOL     OW27496   0.165   0.615   4.043  0.2525 -0.0123 -0.4886
 8866SOL    HW127497   0.076   0.623   4.086  1.9045 -0.7311  3.5292
 8866SOL    HW227498   0.188   0.519   4.029  0.8762  0.1003 -0.3071
 8867SOL     OW27499   6.607   4.292   1.957 -0.0539  0.0440  0.6021
 8867SOL    HW127500   6.631   4.364   1.891  0.8067  1.6921  2.6096
 8867SOL    HW227501   6.679   4.222   1.956 -1.1551 -1.1899 -1.7460
 8868SOL     OW27502   0.208   3.865   2.874  0.1038  0.0186  0.1417
 8868SOL    HW127503   0.298   3.836   2.840  0.1008 -0.1177  0.2516
 8868SOL    HW227504   0.220   3.944   2.934  0.1308  0.1219  0.0014
 8869SOL     OW27505   4.371   5.069   3.770 -0.0124  0.6058  0.0719
 8869SOL    HW127506   4.407   5.155   3.732 -1.0497  0.7663 -0.5959
 8869SOL    HW227507   4.397   4.993   3.710  0.7850  0.4614  0.5877
 8870SOL     OW27508   2.444   0.480   0.473  0.3782 -0.3531 -0.0885
 8870SOL    HW127509   2.516   0.412   0.458  0.4119  0.1520 -2.5695
 8870SOL    HW227510   2.362   0.434   0.509  0.8962 -1.4429 -0.2460
 8871SOL     OW27511   1.068   1.025   1.283 -0.0928 -0.2329 -0.3187
 8871SOL    HW127512   1.145   1.047   1.343 -0.5981 -2.2972  1.2041
 8871SOL    HW227513   1.100   1.018   1.189  0.9754  1.8248 -0.1734
 8872SOL     OW27514   6.901   5.087   6.649 -0.7856  0.0972  0.4431
 8872SOL    HW127515   6.814   5.046   6.621 -1.3894  0.8964  1.0991
 8872SOL    HW227516   6.896   5.113   6.745 -0.1836  1.0807  0.2219
 8873SOL     OW27517   6.722   0.188   2.277 -0.1301  0.0190 -0.3541
 8873SOL    HW127518   6.735   0.266   2.215 -0.7699  1.1399  0.8809
 8873SOL    HW227519   6.785   0.195   2.354 -0.3184 -0.6023 -0.1370
 8874SOL     OW27520   1.366   6.160   1.401  0.1642 -0.0571  0.4994
 8874SOL    HW127521   1.449   6.144   1.347  0.4788  0.9229  0.6693
 8874SOL    HW227522   1.293   6.102   1.367  1.2510 -1.8773  1.1625
 8875SOL     OW27523   1.393   3.796   2.355  0.3111  0.7122 -0.2664
 8875SOL    HW127524   1.353   3.705   2.365 -0.2025  0.7690 -1.6387
 8875SOL    HW227525   1.432   3.806   2.263  0.9924  1.6384  0.1071
 8876SOL     OW27526   4.236   5.833   6.626 -0.0817  0.0101  0.0672
 8876SOL    HW127527   4.140   5.835   6.598 -0.2979  0.0731  0.8172
 8876SOL    HW227528   4.246   5.874   6.716  0.8112  1.0415 -0.4737
 8877SOL     OW27529   6.261   4.872   2.246 -0.2689 -0.3972  0.2544
 8877SOL    HW127530   6.277   4.789   2.300 -1.9721 -1.3154 -0.5639
 8877SOL    HW227531   6.309   4.866   2.159 -0.4096 -0.5300  0.1868
 8878SOL     OW27532   4.783   2.731   0.528  0.3212 -0.6784 -0.0005
 8878SOL    HW127533   4.854   2.686   0.474  2.4902  0.4013  1.7776
 8878SOL    HW227534   4.802   2.829   0.533 -1.4428 -0.3266  0.3612
 8879SOL     OW27535   0.343   5.002   3.252 -0.2390  0.0318 -0.0204
 8879SOL    HW127536   0.434   4.960   3.249 -0.1536  0.1324  0.8647
 8879SOL    HW227537   0.347   5.094   3.214  0.0730  0.1033  0.1783
 8880SOL     OW27538   2.787   5.951   3.809  0.1097  0.5114 -0.1273
 8880SOL    HW127539   2.884   5.931   3.794 -0.4644 -2.3824 -0.3914
 8880SOL    HW227540   2.759   5.916   3.898 -1.0711 -0.2777 -0.7781
 8881SOL     OW27541   6.216   4.745   3.284  0.0281 -0.4830  0.2655
 8881SOL    HW127542   6.209   4.654   3.324 -0.3989 -0.1071  1.0641
 8881SOL    HW227543   6.207   4.814   3.356 -2.0606  0.2331 -0.6099
 8882SOL     OW27544   3.742   0.194   1.451 -0.0213 -0.3612 -0.6351
 8882SOL    HW127545   3.772   0.280   1.412 -2.3409  0.1237 -1.5460
 8882SOL    HW227546   3.812   0.158   1.512  1.0336  2.1275 -0.2783
 8883SOL     OW27547   5.644   5.855   6.532 -0.2976  0.3691 -0.4428
 8883SOL    HW127548   5.577   5.882   6.464  2.8245  1.2809 -3.4109
 8883SOL    HW227549   5.696   5.935   6.562  0.2263 -0.4594  0.9670
 8884SOL     OW27550   4.376   4.832   6.626 -0.0985  0.1822 -0.1718
 8884SOL    HW127551   4.452   4.896   6.620  0.0783  0.3865  2.7056
 8884SOL    HW227552   4.289   4.880   6.611  0.1579  0.6347 -0.2077
 8885SOL     OW27553   6.619   5.409   7.003 -0.3808 -0.1336  0.1700
 8885SOL    HW127554   6.680   5.346   6.955  0.2496  0.6958 -0.1556
 8885SOL    HW227555   6.615   5.496   6.953 -1.1566  0.1183  0.6533
 8886SOL     OW27556   5.533   6.566   0.187 -0.5023 -0.8532  0.3614
 8886SOL    HW127557   5.448   6.612   0.209 -0.2049 -0.6443  1.0954
 8886SOL    HW227558   5.525   6.468   0.208 -0.8833 -1.0197 -0.5039
 8887SOL     OW27559   4.502   6.061   0.505  0.0072  0.0183  0.0798
 8887SOL    HW127560   4.582   6.085   0.561  1.7769  2.8452 -3.2465
 8887SOL    HW227561   4.513   5.968   0.470  1.6063  0.1578  0.1351
 8888SOL     OW27562   2.199   1.115   2.344  0.3012 -0.8748 -0.2130
 8888SOL    HW127563   2.201   1.196   2.402  1.4059 -0.2599 -1.0603
 8888SOL    HW227564   2.202   1.143   2.248  0.7331 -1.9183 -0.5172
 8889SOL     OW27565   4.541   4.499   5.835 -0.5506  0.1412 -0.1262
 8889SOL    HW127566   4.455   4.470   5.878 -2.0315  2.8046 -1.0535
 8889SOL    HW227567   4.548   4.459   5.744 -0.3709 -0.7291  0.2567
 8890SOL     OW27568   1.465   5.445   0.064 -0.4268 -0.5812  0.5383
 8890SOL    HW127569   1.507   5.354   0.058  0.3474 -0.1964 -0.0450
 8890SOL    HW227570   1.498   5.491   0.146 -1.4485 -1.1196  1.2778
 8891SOL     OW27571   4.725   5.313   6.160  0.2547 -0.4184 -0.0359
 8891SOL    HW127572   4.732   5.358   6.249  0.7274 -0.0122 -0.2776
 8891SOL    HW227573   4.802   5.250   6.148  0.1683 -0.5049 -0.1371
 8892SOL     OW27574   5.900   3.940   4.269  0.1008 -0.5347 -0.6705
 8892SOL    HW127575   5.830   3.873   4.244  0.0157 -0.5089 -0.4997
 8892SOL    HW227576   5.858   4.030   4.277  0.0559 -0.6032 -0.0695
 8893SOL     OW27577   0.839   5.363   4.870  0.4449 -0.2707 -0.0245
 8893SOL    HW127578   0.791   5.333   4.787  0.9573 -0.7514 -0.1558
 8893SOL    HW227579   0.820   5.300   4.945  0.5456 -0.2384  0.0293
 8894SOL     OW27580   4.600   1.534   0.824 -0.1945 -0.2402  0.1184
 8894SOL    HW127581   4.627   1.600   0.754  0.3693  2.0971  2.3695
 8894SOL    HW227582   4.682   1.490   0.861 -0.3978 -0.7266 -0.0057
 8895SOL     OW27583   1.980   1.006   1.629  0.4553  0.0764  0.1872
 8895SOL    HW127584   2.042   1.055   1.691 -0.3117 -0.6863  1.6243
 8895SOL    HW227585   2.031   0.974   1.550  1.6844  0.3153  0.8473
 8896SOL     OW27586   0.010   1.851   5.192  0.0121 -0.3696 -0.1836
 8896SOL    HW127587   0.048   1.760   5.208 -1.7320 -1.4376 -1.6688
 8896SOL    HW227588   0.069   1.920   5.235  1.8188 -2.1147  0.3048
 8897SOL     OW27589   2.170   4.589   4.650  0.0418  0.4347  0.2269
 8897SOL    HW127590   2.148   4.546   4.738 -1.6601 -0.0868 -0.4263
 8897SOL    HW227591   2.127   4.538   4.576  1.0592  1.1540 -0.8966
 8898SOL     OW27592   4.795   3.300   1.817  0.2648 -0.2698 -0.0355
 8898SOL    HW127593   4.742   3.375   1.779  2.5485  1.3120 -0.3270
 8898SOL    HW227594   4.739   3.218   1.821 -2.3483  1.4163  0.3108
 8899SOL     OW27595   5.971   6.172   6.983 -0.1009 -0.3300 -0.1704
 8899SOL    HW127596   6.046   6.172   6.916 -1.0685  0.1320 -1.2999
 8899SOL    HW227597   5.940   6.266   6.999 -0.9250 -0.5743 -0.2941
 8900SOL     OW27598   6.984   0.918   3.589  0.7062 -0.3537  0.5815
 8900SOL    HW127599   7.013   0.832   3.630 -0.8856 -0.4970  1.5386
 8900SOL    HW227600   6.964   0.984   3.662 -0.5689 -0.0419 -0.0204
 8901SOL     OW27601   0.686   6.994   3.535  0.7037  0.1076  0.2864
 8901SOL    HW127602   0.769   7.026   3.580  0.7239  0.1929  0.1902
 8901SOL    HW227603   0.653   7.065   3.472 -1.2031  1.4245  2.5724
 8902SOL     OW27604   0.203   5.757   1.771  0.4896  0.1402 -0.0705
 8902SOL    HW127605   0.271   5.809   1.720  0.1837  0.1749 -0.4481
 8902SOL    HW227606   0.129   5.818   1.801  0.3176 -0.0094 -0.1903
 8903SOL     OW27607   0.378   1.433   6.389  0.1700  0.1856 -0.1847
 8903SOL    HW127608   0.290   1.476   6.409  0.7679  1.7206 -0.6832
 8903SOL    HW227609   0.380   1.405   6.293 -0.1060 -0.7305  0.0645
 8904SOL     OW27610   1.254   1.921   1.170  0.3283  0.3298  0.2241
 8904SOL    HW127611   1.329   1.982   1.192  0.9051 -0.1101 -0.4774
 8904SOL    HW227612   1.232   1.865   1.250  0.9536  0.2533  0.3496
 8905SOL     OW27613   0.586   2.691   3.986 -0.5252  0.5876 -0.4937
 8905SOL    HW127614   0.582   2.641   4.073  3.9284  0.6884  0.0050
 8905SOL    HW227615   0.515   2.761   3.985 -1.0442  0.2981  2.9090
 8906SOL     OW27616   1.414   6.609   0.091  0.0363 -0.1964 -0.7555
 8906SOL    HW127617   1.336   6.659   0.130  0.3684  1.2521 -1.8951
 8906SOL    HW227618   1.401   6.511   0.106 -0.5810  0.1917  1.6294
 8907SOL     OW27619   4.192   2.957   6.137 -0.5385  0.6232 -0.0996
 8907SOL    HW127620   4.282   2.954   6.094  0.5168 -0.2071  2.0128
 8907SOL    HW227621   4.135   3.024   6.090  0.5351 -0.1521 -2.6535
 8908SOL     OW27622   0.539   3.854   5.270  0.1324 -0.0714  0.2326
 8908SOL    HW127623   0.530   3.835   5.368 -0.1594  0.6789  0.3590
 8908SOL    HW227624   0.448   3.865   5.230  0.2736  0.5283  0.0659
 8909SOL     OW27625   3.466   2.217   6.939  0.5102  0.4773 -0.2727
 8909SOL    HW127626   3.393   2.156   6.968  0.7130  0.2582 -0.2233
 8909SOL    HW227627   3.484   2.284   7.011  1.7743 -0.7484  0.6086
 8910SOL     OW27628   0.463   1.761   6.092 -0.3875 -0.7506  0.0774
 8910SOL    HW127629   0.365   1.744   6.098 -0.3005 -0.9944  0.7807
 8910SOL    HW227630   0.512   1.675   6.082 -0.2564 -0.6110 -0.6031
 8911SOL     OW27631   2.418   1.770   2.942  0.0935 -0.5097 -0.0216
 8911SOL    HW127632   2.464   1.858   2.952  0.9399 -0.9930  0.4489
 8911SOL    HW227633   2.399   1.753   2.845 -0.4107  0.3455 -0.0824
 8912SOL     OW27634   2.367   4.300   5.139  0.0245 -0.0317  0.4348
 8912SOL    HW127635   2.370   4.215   5.086 -0.7834  0.4791 -0.4601
 8912SOL    HW227636   2.374   4.378   5.077 -1.5134  0.6006  0.9995
 8913SOL     OW27637   4.427   3.668   0.031 -0.2934  0.1029  0.6342
 8913SOL    HW127638   4.509   3.703  -0.015 -0.1401 -1.5856 -0.4620
 8913SOL    HW227639   4.367   3.625  -0.037 -1.4227  0.0698  1.6301
 8914SOL     OW27640   5.617   0.527   4.519 -0.2412  0.0397 -0.2716
 8914SOL    HW127641   5.623   0.544   4.618  0.9996  0.7620 -0.4532
 8914SOL    HW227642   5.708   0.535   4.479 -0.7643 -0.1108 -1.5098
 8915SOL     OW27643   2.088   1.078   3.746  0.0997  0.4114 -0.4743
 8915SOL    HW127644   2.057   1.173   3.745  0.9726  0.7046 -0.7640
 8915SOL    HW227645   2.023   1.021   3.697 -0.3156  0.9011 -0.5014
 8916SOL     OW27646   0.122   2.129   5.285 -0.5736 -0.1678 -0.4314
 8916SOL    HW127647   0.118   2.150   5.187 -1.8488 -0.0747 -0.3719
 8916SOL    HW227648   0.180   2.197   5.331 -0.7406  0.3511 -0.9713
 8917SOL     OW27649   5.372   1.870   0.980 -0.1640  0.2027  0.2826
 8917SOL    HW127650   5.380   1.773   0.954  0.5076  0.1322  0.7079
 8917SOL    HW227651   5.369   1.877   1.080  0.3741  0.6566  0.2719
 8918SOL     OW27652   2.792   4.854   6.529  0.4043 -0.5300  0.6053
 8918SOL    HW127653   2.823   4.850   6.434 -0.3935  0.5409  0.2685
 8918SOL    HW227654   2.871   4.853   6.590  0.8944 -2.3934  0.0077
 8919SOL     OW27655   4.219   4.584   5.581  0.2693 -0.4921 -0.4792
 8919SOL    HW127656   4.172   4.560   5.666  1.8816  0.2227  0.6661
 8919SOL    HW227657   4.182   4.529   5.506  0.2961 -2.7593  1.0626
 8920SOL     OW27658   0.793   2.431   0.248 -0.3379 -0.0390  0.5183
 8920SOL    HW127659   0.807   2.529   0.266 -1.4587  0.2772 -0.1706
 8920SOL    HW227660   0.727   2.421   0.173  3.3833 -1.2261 -2.9770
 8921SOL     OW27661   1.131   2.383   0.842 -0.0875 -0.2207  0.1250
 8921SOL    HW127662   1.155   2.451   0.772  0.7398  0.0998  0.7014
 8921SOL    HW227663   1.134   2.291   0.801  1.3123 -0.1188 -0.0521
 8922SOL     OW27664   4.050   5.765   1.791  0.0771 -0.0358  0.0861
 8922SOL    HW127665   3.967   5.710   1.806 -0.3277  1.0203  2.1108
 8922SOL    HW227666   4.031   5.835   1.722 -1.4237  1.3889  1.8118
 8923SOL     OW27667   0.710   6.493   6.494  0.4351  0.0464 -0.3737
 8923SOL    HW127668   0.728   6.591   6.503 -0.5157  0.1206  0.9708
 8923SOL    HW227669   0.620   6.479   6.452 -0.9432 -0.1462  2.4101
 8924SOL     OW27670   4.953   5.526   4.272 -0.0403 -1.1061  0.2169
 8924SOL    HW127671   4.862   5.541   4.234  0.1690 -1.5163 -0.4523
 8924SOL    HW227672   4.974   5.600   4.336 -1.5834 -1.9769  1.8221
 8925SOL     OW27673   1.234   3.022   1.312 -0.5276 -0.2149  0.7173
 8925SOL    HW127674   1.307   2.995   1.376  0.0049 -1.1645 -0.2453
 8925SOL    HW227675   1.186   3.101   1.348  1.7523  1.2119  0.8360
 8926SOL     OW27676   6.632   2.171   6.140 -0.3471  0.0228  0.2134
 8926SOL    HW127677   6.556   2.210   6.089  0.1783  0.5322 -0.2027
 8926SOL    HW227678   6.680   2.244   6.189  0.3188 -0.1767 -0.1278
 8927SOL     OW27679   6.243   1.008   5.662  0.2014  0.1908  0.3500
 8927SOL    HW127680   6.188   1.091   5.649  1.5289  1.1187  0.4828
 8927SOL    HW227681   6.198   0.931   5.616 -1.1196  0.9400  0.3300
 8928SOL     OW27682   2.139   1.170   6.080  0.4213 -0.0108  0.2144
 8928SOL    HW127683   2.210   1.191   6.147  1.3508 -0.6734 -0.5295
 8928SOL    HW227684   2.181   1.156   5.990 -0.5691 -1.0752 -0.1115
 8929SOL     OW27685   5.808   2.057   4.593 -0.6848 -0.3244 -0.3301
 8929SOL    HW127686   5.812   2.157   4.594  0.9697 -0.3570  0.1295
 8929SOL    HW227687   5.736   2.026   4.531 -0.0055  1.1482 -1.9169
 8930SOL     OW27688   1.003   3.271   4.356 -0.2381 -0.3183 -0.2676
 8930SOL    HW127689   1.092   3.236   4.324  0.1311 -0.3952  0.8118
 8930SOL    HW227690   0.933   3.200   4.343 -0.0295 -0.4709 -0.5813
 8931SOL     OW27691   3.519   2.861   2.080  0.0206  0.1552 -0.1353
 8931SOL    HW127692   3.512   2.830   1.985 -0.0483  2.0989 -0.7967
 8931SOL    HW227693   3.612   2.895   2.097 -0.8931  3.1577 -0.6415
 8932SOL     OW27694   0.649   2.229   2.527 -0.4588 -0.0475 -0.1858
 8932SOL    HW127695   0.647   2.130   2.534  0.4958 -0.0023  1.2672
 8932SOL    HW227696   0.573   2.261   2.470 -0.8985 -1.5863 -0.4898
 8933SOL     OW27697   3.364   2.424   0.193 -0.1631  0.5478  0.4758
 8933SOL    HW127698   3.366   2.494   0.265 -1.8854  1.6488 -0.4549
 8933SOL    HW227699   3.326   2.464   0.110 -1.7116 -1.6197  0.0462
 8934SOL     OW27700   2.745   0.577   4.860 -0.0985  0.0240  0.3102
 8934SOL    HW127701   2.789   0.545   4.943  0.7533  2.2232  0.7731
 8934SOL    HW227702   2.814   0.592   4.789 -0.8095 -1.8056 -0.8510
 8935SOL     OW27703   0.689   6.373   1.051  0.1827 -0.2717  0.3456
 8935SOL    HW127704   0.671   6.399   1.146 -0.9324  0.8635 -0.1525
 8935SOL    HW227705   0.785   6.389   1.030  0.0214  1.3058  0.7323
 8936SOL     OW27706   2.364   5.494   0.290  0.0661 -0.0932  0.3116
 8936SOL    HW127707   2.273   5.504   0.250  1.1778  1.4781 -2.0586
 8936SOL    HW227708   2.430   5.547   0.237  2.4597 -1.4395  1.7487
 8937SOL     OW27709   1.044   1.607   5.871 -0.0156  0.6797  0.2665
 8937SOL    HW127710   1.028   1.509   5.877 -0.4457  0.7623  0.4921
 8937SOL    HW227711   1.096   1.638   5.950 -0.0246  0.6634  0.2784
 8938SOL     OW27712   0.412   4.556   0.438  0.2322 -0.2261  0.2542
 8938SOL    HW127713   0.442   4.649   0.458  0.5908 -0.3596  0.3349
 8938SOL    HW227714   0.341   4.558   0.368  0.2608  0.1048  0.2347
 8939SOL     OW27715   6.120   2.018   5.463 -0.3278 -0.3615  0.4064
 8939SOL    HW127716   6.204   1.966   5.447 -0.1647 -0.7551  2.2262
 8939SOL    HW227717   6.139   2.116   5.460  0.3835 -0.4463  1.5059
 8940SOL     OW27718   6.583   2.341   4.131  0.2097  0.1610  0.1545
 8940SOL    HW127719   6.650   2.285   4.179 -1.4750 -1.8237  0.3402
 8940SOL    HW227720   6.498   2.290   4.121 -0.8517  2.0675 -1.2984
 8941SOL     OW27721   5.924   1.812   6.125  0.8350 -0.4289 -0.2468
 8941SOL    HW127722   5.845   1.751   6.127  0.3642  0.1233 -1.0707
 8941SOL    HW227723   5.970   1.804   6.036  0.2021  1.0922 -0.7369
 8942SOL     OW27724   0.850   2.487   4.892  0.2113  0.3021  0.0667
 8942SOL    HW127725   0.867   2.426   4.969 -0.0781  0.0489 -0.0696
 8942SOL    HW227726   0.908   2.568   4.900 -0.3635  0.6447  0.9759
 8943SOL     OW27727   4.264   2.292   0.592  0.4079  0.4256  0.1007
 8943SOL    HW127728   4.324   2.285   0.671 -1.6419  0.5068  1.7491
 8943SOL    HW227729   4.275   2.210   0.535  0.9575 -0.3005  1.2003
 8944SOL     OW27730   4.905   5.978   4.980 -0.1303  0.6239  0.1804
 8944SOL    HW127731   4.886   5.988   5.078 -0.0945  0.5878  0.1909
 8944SOL    HW227732   4.912   5.881   4.957 -1.0811  0.5957 -0.0318
 8945SOL     OW27733   2.856   0.038   3.881  0.3158  0.3612  0.1580
 8945SOL    HW127734   2.822  -0.049   3.917  0.1197  0.3620 -0.0209
 8945SOL    HW227735   2.908   0.021   3.797  0.2510  0.4191  0.1059
 8946SOL     OW27736   3.685   1.338   5.206  0.4922 -0.0563 -0.1999
 8946SOL    HW127737   3.782   1.359   5.193  0.5405  0.5815  1.0472
 8946SOL    HW227738   3.629   1.407   5.161  0.6152 -0.1708 -0.5303
 8947SOL     OW27739   1.465   5.377   5.512  0.4843  0.5280  0.4396
 8947SOL    HW127740   1.469   5.363   5.413  0.6109 -2.9654  0.8086
 8947SOL    HW227741   1.550   5.345   5.553 -1.1716 -2.2795  1.9757
 8948SOL     OW27742   6.026   6.135   4.660 -0.1967  0.0061  0.1844
 8948SOL    HW127743   5.982   6.214   4.702 -1.3772 -0.8377  0.5653
 8948SOL    HW227744   6.069   6.079   4.731  0.1838  0.0235 -0.0276
 8949SOL     OW27745   2.286   1.381   0.360  0.7750 -0.5531 -0.1328
 8949SOL    HW127746   2.330   1.468   0.383 -1.7922  0.7410  0.2336
 8949SOL    HW227747   2.290   1.320   0.440  0.3762  0.2273  0.5010
 8950SOL     OW27748   4.646   4.320   6.238  0.8845  0.0933 -0.3321
 8950SOL    HW127749   4.548   4.327   6.258  0.4719 -1.7788 -1.4729
 8950SOL    HW227750   4.686   4.247   6.293  1.5763  0.5922 -0.1579
 8951SOL     OW27751   2.015   1.396   2.098 -1.0751  0.5732 -0.0529
 8951SOL    HW127752   2.006   1.419   2.195 -0.5232  0.0718  0.1282
 8951SOL    HW227753   2.061   1.307   2.090 -0.6008  0.8781 -0.7810
 8952SOL     OW27754   1.476   1.231   2.992  0.1002  0.4227  0.0214
 8952SOL    HW127755   1.387   1.241   3.037  0.3409  1.5117  0.2986
 8952SOL    HW227756   1.496   1.134   2.978 -0.4194  0.0942  1.3904
 8953SOL     OW27757   6.945   4.061   5.293 -0.0698  0.3191  0.8756
 8953SOL    HW127758   7.041   4.084   5.276  0.2478 -0.4687  1.5058
 8953SOL    HW227759   6.913   3.998   5.223  0.2042 -0.2579  1.2623
 8954SOL     OW27760   0.891   4.954   6.806 -0.0160 -0.3100 -0.2573
 8954SOL    HW127761   0.797   4.943   6.772  0.3629 -0.8594 -1.1513
 8954SOL    HW227762   0.955   4.909   6.743  0.9045  0.5793  0.0204
 8955SOL     OW27763   0.500   5.436   2.234 -0.0034  0.0369  0.0255
 8955SOL    HW127764   0.506   5.364   2.303 -2.5893 -1.4954 -1.2073
 8955SOL    HW227765   0.492   5.525   2.279 -0.0527 -0.7646  1.6543
 8956SOL     OW27766   6.628   1.454   0.868  0.4913  0.1792 -0.1968
 8956SOL    HW127767   6.568   1.427   0.942 -1.7980  2.4264 -1.0875
 8956SOL    HW227768   6.636   1.379   0.802 -0.0495 -0.7112  0.7259
 8957SOL     OW27769   3.325   3.649   6.634 -0.4497 -0.6361 -0.0484
 8957SOL    HW127770   3.407   3.594   6.621 -0.2736 -0.1041 -1.4230
 8957SOL    HW227771   3.335   3.735   6.583 -0.6937  0.7100  2.0470
 8958SOL     OW27772   0.873   0.814   3.520 -0.3622 -0.4263  0.2069
 8958SOL    HW127773   0.845   0.722   3.493  1.0823 -0.9761  0.4917
 8958SOL    HW227774   0.963   0.834   3.481 -0.6403  0.8623  0.1871
 8959SOL     OW27775   2.648   3.417   1.543 -0.3924  0.5514 -0.4796
 8959SOL    HW127776   2.604   3.373   1.465 -0.7447  0.8026 -0.4240
 8959SOL    HW227777   2.607   3.386   1.628  0.5629 -0.3719 -0.3344
 8960SOL     OW27778   4.767   5.461   0.584 -0.0981  0.0139 -0.1359
 8960SOL    HW127779   4.819   5.406   0.649 -1.1374 -1.2746 -0.3637
 8960SOL    HW227780   4.764   5.415   0.495  2.7485  2.5173 -1.7457
 8961SOL     OW27781   2.001   4.122   3.715 -0.6182 -0.4308  0.0344
 8961SOL    HW127782   1.927   4.054   3.719 -0.7140 -0.2922  0.9309
 8961SOL    HW227783   1.989   4.187   3.790 -1.2020  1.2886 -1.4675
 8962SOL     OW27784   6.052   0.253   2.055 -0.1151  0.2006 -0.5684
 8962SOL    HW127785   5.955   0.251   2.076 -0.7745  1.9376 -3.0453
 8962SOL    HW227786   6.084   0.347   2.050  2.0989 -0.3229  1.5081
 8963SOL     OW27787   4.672   5.841   3.035 -0.2841 -0.2245 -0.2667
 8963SOL    HW127788   4.593   5.798   3.077  0.1998 -1.2762 -0.3783
 8963SOL    HW227789   4.740   5.771   3.014  0.0392  0.4419 -1.5714
 8964SOL     OW27790   6.148   3.823   2.879  0.8319 -0.7641  0.8684
 8964SOL    HW127791   6.205   3.848   2.957  1.1670 -0.3507  0.4969
 8964SOL    HW227792   6.146   3.724   2.869  2.3877 -0.7677  0.2464
 8965SOL     OW27793   2.223   4.351   1.571  0.1578  0.1646  0.3160
 8965SOL    HW127794   2.170   4.341   1.655 -0.8905  0.1547 -0.3228
 8965SOL    HW227795   2.321   4.350   1.592 -0.0755 -0.5892  1.4489
 8966SOL     OW27796   6.728   4.240   5.339 -0.0251  0.0769  0.5023
 8966SOL    HW127797   6.643   4.204   5.299  0.4495  0.9748 -1.3971
 8966SOL    HW227798   6.801   4.173   5.328  0.9210  1.4916 -3.2594
 8967SOL     OW27799   4.154   5.792   0.866 -0.4581  0.5547  0.4330
 8967SOL    HW127800   4.212   5.858   0.914  1.2656  1.4457 -2.6189
 8967SOL    HW227801   4.100   5.841   0.797 -0.4843 -0.9970 -0.6859
 8968SOL     OW27802   3.833   5.501   2.478  0.3607  0.1268  0.1294
 8968SOL    HW127803   3.783   5.428   2.431  0.6332 -0.9156  1.4111
 8968SOL    HW227804   3.789   5.589   2.458 -1.1612 -0.5979  0.1183
 8969SOL     OW27805   6.102   1.848   4.278  0.3836  0.0147 -0.2592
 8969SOL    HW127806   6.021   1.849   4.219  2.1866 -0.6552 -2.9033
 8969SOL    HW227807   6.134   1.942   4.291 -0.4792  0.2353  0.3661
 8970SOL     OW27808   2.688   3.217   6.753 -0.0396 -0.0525 -0.2973
 8970SOL    HW127809   2.782   3.245   6.773 -0.1716  0.0483  0.2058
 8970SOL    HW227810   2.685   3.173   6.664  0.0510  2.1112 -1.4290
 8971SOL     OW27811   3.579   6.037   1.330 -1.0557 -0.4509 -0.0359
 8971SOL    HW127812   3.633   5.966   1.375 -0.0200  1.1184  1.3321
 8971SOL    HW227813   3.505   5.995   1.277 -1.0619 -2.4811  1.4809
 8972SOL     OW27814   6.190   6.573   5.637  0.3545  0.1710  0.5557
 8972SOL    HW127815   6.164   6.487   5.593  1.2872 -0.6698  1.5834
 8972SOL    HW227816   6.204   6.643   5.567  0.0027 -0.6323 -0.3417
 8973SOL     OW27817   1.443   3.536   3.150  0.3109  0.1328 -0.1205
 8973SOL    HW127818   1.530   3.573   3.116 -0.8286  1.4602 -1.8084
 8973SOL    HW227819   1.377   3.534   3.075 -0.8504 -1.7914  0.8901
 8974SOL     OW27820   0.111   1.870   5.753 -0.2333  0.1264  0.0632
 8974SOL    HW127821   0.112   1.901   5.848 -0.3540  1.1033 -0.2471
 8974SOL    HW227822   0.057   1.933   5.698 -0.1425 -0.4208 -0.6656
 8975SOL     OW27823   1.937   1.096   6.893 -0.0464  0.5418  0.8649
 8975SOL    HW127824   1.900   1.180   6.930 -0.9710  0.4992  0.0661
 8975SOL    HW227825   1.974   1.113   6.801  0.2742  0.1933  0.9236
 8976SOL     OW27826   0.593   0.578   4.230  0.0605 -0.1774  0.0961
 8976SOL    HW127827   0.534   0.595   4.152  1.2958 -0.5196 -0.9576
 8976SOL    HW227828   0.560   0.629   4.309 -1.2390  0.1467 -0.6278
 8977SOL     OW27829   6.000   1.004   5.335  1.0826 -0.1836 -0.4514
 8977SOL    HW127830   6.067   0.947   5.382  0.1288  0.3061  1.6103
 8977SOL    HW227831   5.910   0.960   5.338  0.4007  1.1786  0.8705
 8978SOL     OW27832   6.069   5.251   0.508  0.2630  0.7812 -0.6307
 8978SOL    HW127833   5.983   5.274   0.461  0.0349 -0.3831 -0.8142
 8978SOL    HW227834   6.104   5.333   0.554 -0.1517  1.6556 -1.8010
 8979SOL     OW27835   1.100   5.089   4.911 -0.2227  0.3944  0.2991
 8979SOL    HW127836   1.034   5.036   4.857  0.2221  1.0731 -0.9671
 8979SOL    HW227837   1.180   5.110   4.854  0.2387  1.2099  1.2159
 8980SOL     OW27838   0.078   1.876   6.350 -0.4531 -0.5603 -0.1033
 8980SOL    HW127839   0.019   1.813   6.298 -0.6189 -0.1347 -0.4389
 8980SOL    HW227840   0.153   1.906   6.291 -0.4214 -0.3791  0.0322
 8981SOL     OW27841   5.495   2.972   6.413  0.5224 -0.6594 -0.7157
 8981SOL    HW127842   5.489   2.965   6.512 -0.7050  0.0400 -0.7206
 8981SOL    HW227843   5.577   3.023   6.387 -0.5876  1.6449  0.0771
 8982SOL     OW27844   6.685   1.654   0.476 -0.5818 -0.2489  0.8865
 8982SOL    HW127845   6.756   1.605   0.526 -0.4057 -0.0591  0.8234
 8982SOL    HW227846   6.727   1.705   0.401 -0.2664  2.8170  2.9972
 8983SOL     OW27847   3.125   6.337   6.605 -0.1337  0.0385 -0.3139
 8983SOL    HW127848   3.086   6.423   6.573  0.9474  1.1636  1.2572
 8983SOL    HW227849   3.103   6.264   6.540 -0.7686  1.5530 -1.8680
 8984SOL     OW27850   6.757   6.962   4.271  0.2510 -0.0615 -0.5225
 8984SOL    HW127851   6.809   6.894   4.220  1.0918  0.6652 -0.6580
 8984SOL    HW227852   6.660   6.940   4.267  0.4068 -0.6078 -1.5244
 8985SOL     OW27853   1.394   2.669   1.661  0.2580 -0.2639  0.1192
 8985SOL    HW127854   1.335   2.617   1.599  0.2454  0.2773 -0.3286
 8985SOL    HW227855   1.484   2.626   1.665  0.6383  0.3573 -1.2134
 8986SOL     OW27856   4.577   4.528   1.418 -0.1477  0.3730  0.7914
 8986SOL    HW127857   4.580   4.479   1.505 -1.2107  0.3930  0.8500
 8986SOL    HW227858   4.487   4.568   1.405  0.2035  0.9334 -0.0215
 8987SOL     OW27859   2.918   0.627   3.079  0.7044  0.0584 -0.4782
 8987SOL    HW127860   2.935   0.577   2.994  0.1227 -1.0029  0.0181
 8987SOL    HW227861   2.963   0.581   3.155 -1.4959 -0.9333  0.3210
 8988SOL     OW27862   0.886   3.324   3.861 -0.5210  0.0526  0.6249
 8988SOL    HW127863   0.984   3.333   3.877  0.1780 -2.1153 -1.7136
 8988SOL    HW227864   0.862   3.375   3.778 -1.2578  0.1539  0.9005
 8989SOL     OW27865   1.984   4.045   6.129 -0.5324  0.4443  0.7820
 8989SOL    HW127866   2.083   4.053   6.117 -0.5564 -0.7040 -0.5314
 8989SOL    HW227867   1.937   4.089   6.052 -1.0228  0.4676  1.0872
 8990SOL     OW27868   6.510   4.047   3.493 -0.2371  0.4292  0.7082
 8990SOL    HW127869   6.436   3.996   3.450  0.6606 -0.2857 -0.0263
 8990SOL    HW227870   6.527   4.131   3.443 -0.3418  0.4459  0.7002
 8991SOL     OW27871   1.871   3.717   5.243 -0.4941  0.0697 -0.9283
 8991SOL    HW127872   1.799   3.777   5.207  0.0437  2.1012  1.1549
 8991SOL    HW227873   1.955   3.770   5.256  0.4214 -1.4784 -0.2371
 8992SOL     OW27874   5.541   6.109   6.027  0.8698  0.2778  0.8816
 8992SOL    HW127875   5.640   6.094   6.018  0.9039  0.7823  0.3821
 8992SOL    HW227876   5.523   6.169   6.105  1.0262  0.8758  0.4659
 8993SOL     OW27877   3.806   3.377   1.549 -0.0017  0.7671  0.2481
 8993SOL    HW127878   3.873   3.321   1.598 -2.8114 -0.7810  2.6292
 8993SOL    HW227879   3.784   3.458   1.604 -1.0060  0.5896  0.1239
 8994SOL     OW27880   1.971   4.385   5.916  0.1183  0.6421 -0.0110
 8994SOL    HW127881   2.021   4.336   5.845 -0.9192  0.1232 -0.4094
 8994SOL    HW227882   2.030   4.400   5.995  0.9839  0.3352 -0.5875
 8995SOL     OW27883   0.246   2.711   6.770 -0.5341 -0.1170 -0.9395
 8995SOL    HW127884   0.194   2.752   6.845  0.8864  0.1380 -0.0730
 8995SOL    HW227885   0.196   2.724   6.684 -0.9370  1.9170 -0.4363
 8996SOL     OW27886   6.342   2.591   0.717  0.1824 -0.4245  0.1143
 8996SOL    HW127887   6.432   2.546   0.723  1.5701  1.9390 -1.3285
 8996SOL    HW227888   6.293   2.558   0.636  0.1285 -1.0799  0.4112
 8997SOL     OW27889   4.030   2.145   0.691 -0.2401 -0.4263 -0.5068
 8997SOL    HW127890   4.111   2.195   0.659  0.5771 -1.2420  0.2383
 8997SOL    HW227891   3.952   2.208   0.696  0.5627  0.5809 -0.3547
 8998SOL     OW27892   6.590   4.582   3.356  0.0050 -0.0732 -0.3577
 8998SOL    HW127893   6.514   4.546   3.303  0.5583 -1.5340 -0.2225
 8998SOL    HW227894   6.555   4.634   3.434 -0.8149  1.0065 -1.4015
 8999SOL     OW27895   4.702   5.876   5.753  0.4131 -0.0086 -0.0865
 8999SOL    HW127896   4.622   5.882   5.693 -0.0254 -0.2126  0.4737
 8999SOL    HW227897   4.684   5.924   5.838  0.6440 -0.5914  0.3002
 9000SOL     OW27898   1.787   3.108   2.428  0.3993  0.5471 -0.1513
 9000SOL    HW127899   1.862   3.092   2.364 -0.3467 -1.2113 -0.6754
 9000SOL    HW227900   1.704   3.066   2.392 -0.1409 -0.1571  1.7914
 9001SOL     OW27901   1.544   7.015   6.935  0.1805  0.2427  0.0026
 9001SOL    HW127902   1.602   7.087   6.973  0.3682 -0.3432  0.8366
 9001SOL    HW227903   1.453   7.020   6.976  0.4031 -0.4350  0.5837
 9002SOL     OW27904   2.963   4.371   5.618  0.1161 -0.0199 -0.9017
 9002SOL    HW127905   2.940   4.446   5.680 -5.0465 -2.0551  0.1249
 9002SOL    HW227906   2.915   4.383   5.531  0.8666 -1.1395 -1.4951
 9003SOL     OW27907   3.746   5.081   1.107 -0.2049 -0.1608  0.4452
 9003SOL    HW127908   3.659   5.066   1.062 -0.3724 -0.5838  0.8926
 9003SOL    HW227909   3.769   5.178   1.106 -0.5929 -0.0720  0.1697
 9004SOL     OW27910   5.351   0.034   3.461  0.5588  0.1206  0.0762
 9004SOL    HW127911   5.438  -0.001   3.496  0.0564 -0.1866  1.0455
 9004SOL    HW227912   5.314   0.102   3.525 -1.1638 -1.6100  1.0250
 9005SOL     OW27913   5.565   2.488   5.627 -0.1009  0.3002 -0.1141
 9005SOL    HW127914   5.648   2.496   5.682  0.1697 -0.5255 -0.3811
 9005SOL    HW227915   5.587   2.502   5.530 -0.4223  0.8884 -0.1075
 9006SOL     OW27916   1.952   0.564   2.011 -0.1441  0.4508  0.1190
 9006SOL    HW127917   1.868   0.619   2.014 -0.7076 -0.3011 -1.0091
 9006SOL    HW227918   1.929   0.468   2.024  0.6278  0.3015  0.4345
 9007SOL     OW27919   0.541   3.430   4.399  0.2464  0.0380 -0.6439
 9007SOL    HW127920   0.629   3.475   4.417  0.5645 -0.0913 -1.8313
 9007SOL    HW227921   0.467   3.496   4.413  0.4946  0.0673  0.6555
 9008SOL     OW27922   1.444   4.851   4.060  0.6097  0.0660  0.1982
 9008SOL    HW127923   1.438   4.753   4.041  1.0681  0.3908 -1.7655
 9008SOL    HW227924   1.381   4.901   4.001  0.1456  0.9657  1.3947
 9009SOL     OW27925   3.933   6.082   0.939  0.1592 -0.3406 -0.2982
 9009SOL    HW127926   3.959   6.046   0.850 -1.4779 -1.2072 -0.4633
 9009SOL    HW227927   3.944   6.011   1.009  1.6628  0.4057  0.2594
 9010SOL     OW27928   3.542   6.401   3.452  0.0066  0.0709 -0.4407
 9010SOL    HW127929   3.509   6.425   3.544 -2.2290  1.4566 -1.5284
 9010SOL    HW227930   3.479   6.438   3.383  0.8540 -2.1331 -2.5271
 9011SOL     OW27931   4.899   0.924   1.153 -0.3914 -0.2737  0.0508
 9011SOL    HW127932   4.849   0.879   1.227  0.3257  0.3010  0.9096
 9011SOL    HW227933   4.962   0.991   1.192 -0.5572  0.5993 -1.1332
 9012SOL     OW27934   2.723   3.648   6.438 -0.5302  0.6641 -0.0868
 9012SOL    HW127935   2.654   3.666   6.368  0.3202  0.7422 -0.9370
 9012SOL    HW227936   2.745   3.732   6.487 -0.7473  0.7229 -0.0923
 9013SOL     OW27937   1.788   6.298   5.915 -0.3618  0.1605 -0.0792
 9013SOL    HW127938   1.698   6.308   5.957 -0.3582 -0.2491  0.0283
 9013SOL    HW227939   1.850   6.255   5.981 -0.1362  0.2710 -0.2192
 9014SOL     OW27940   5.832   4.211   6.469 -0.1919  0.6349 -0.5925
 9014SOL    HW127941   5.822   4.141   6.540  2.4879  1.9492  1.2566
 9014SOL    HW227942   5.770   4.287   6.489 -0.2461  0.5161 -0.2933
 9015SOL     OW27943   5.485   0.997   2.679  0.2590  0.2302  0.1234
 9015SOL    HW127944   5.394   1.000   2.639  0.4994  0.7596 -0.4111
 9015SOL    HW227945   5.511   1.089   2.708  0.3555 -0.0344  0.8985
 9016SOL     OW27946   1.423   5.989   0.820  0.2840 -0.6029  0.2003
 9016SOL    HW127947   1.494   6.037   0.769  2.3979 -2.7392  1.0016
 9016SOL    HW227948   1.395   5.907   0.771 -0.6395 -0.5224  0.5677
 9017SOL     OW27949   4.837   2.351   3.609 -0.3040  0.0503 -0.3713
 9017SOL    HW127950   4.825   2.421   3.538  1.1652 -0.0154 -0.7282
 9017SOL    HW227951   4.818   2.261   3.570 -0.4090  0.0978 -0.4292
 9018SOL     OW27952   1.498   4.049   5.918 -0.1298 -0.3175  0.0564
 9018SOL    HW127953   1.492   4.146   5.942 -0.5581 -0.7033  1.6240
 9018SOL    HW227954   1.406   4.008   5.923  0.3268 -1.2337  1.4397
 9019SOL     OW27955   1.924   4.339   3.131 -0.9619 -0.5466  0.2721
 9019SOL    HW127956   1.980   4.373   3.207 -1.3882  0.7504  0.0331
 9019SOL    HW227957   1.866   4.413   3.097 -2.0487 -1.5755 -0.1848
 9020SOL     OW27958   1.092   3.615   0.523 -0.3242 -0.2166 -0.4440
 9020SOL    HW127959   1.037   3.573   0.451  1.2445  0.5809 -2.2043
 9020SOL    HW227960   1.186   3.579   0.518  0.0280  0.4893  0.6532
 9021SOL     OW27961   0.576   3.150   4.418 -0.3486  0.1442 -0.2188
 9021SOL    HW127962   0.579   3.246   4.391 -1.5545 -0.0503 -1.1473
 9021SOL    HW227963   0.611   3.141   4.511  0.5932  1.3500 -0.4293
 9022SOL     OW27964   2.234   0.372   0.013 -0.1664  0.3886  0.3973
 9022SOL    HW127965   2.215   0.284  -0.032 -2.6310 -0.2638  2.4528
 9022SOL    HW227966   2.215   0.447  -0.051  0.4229 -0.5172 -0.8923
 9023SOL     OW27967   2.282   4.088   0.384  0.0547 -0.1780 -0.0320
 9023SOL    HW127968   2.295   3.995   0.419 -0.0518 -0.5001 -0.8262
 9023SOL    HW227969   2.184   4.110   0.385  0.2286  0.7057  2.0747
 9024SOL     OW27970   2.548   4.565   4.170 -0.6022 -0.2026 -0.3286
 9024SOL    HW127971   2.483   4.505   4.218 -0.4318 -1.9437 -2.1699
 9024SOL    HW227972   2.548   4.544   4.073  1.5847  0.8582 -0.6249
 9025SOL     OW27973   0.373   6.352   0.999 -0.0708  0.1850  0.5836
 9025SOL    HW127974   0.345   6.432   0.946 -0.4255 -0.5555 -0.3639
 9025SOL    HW227975   0.473   6.347   1.000 -0.0490 -0.1676 -0.6461
 9026SOL     OW27976   3.537   1.887   0.593 -0.6947  0.0443 -0.3740
 9026SOL    HW127977   3.612   1.901   0.658  0.5550  0.9960 -1.9462
 9026SOL    HW227978   3.497   1.797   0.608  1.4075 -0.9077 -0.0921
 9027SOL     OW27979   1.277   5.147   3.904  0.3055 -0.3595  0.3717
 9027SOL    HW127980   1.231   5.108   3.984  1.9609  1.4684  2.3611
 9027SOL    HW227981   1.376   5.149   3.921  0.4917  2.5148 -0.5238
 9028SOL     OW27982   2.560   3.108   5.873 -0.3029 -0.0551  0.2653
 9028SOL    HW127983   2.660   3.101   5.880 -0.2924  0.5908  0.8621
 9028SOL    HW227984   2.530   3.069   5.786  0.5247  0.2593 -0.1726
 9029SOL     OW27985   2.602   5.896   3.579 -0.2776  0.2529  0.0727
 9029SOL    HW127986   2.653   5.859   3.657 -0.9157  0.2445  0.4953
 9029SOL    HW227987   2.658   5.963   3.531  1.0428 -1.4500 -0.9001
 9030SOL     OW27988   0.355   2.827   4.060 -0.2080 -0.2967 -0.2657
 9030SOL    HW127989   0.336   2.924   4.043 -0.5382 -0.1152  1.0620
 9030SOL    HW227990   0.344   2.807   4.157 -2.6962 -2.2144 -0.8312
 9031SOL     OW27991   3.422   1.054   5.075 -0.4279  0.2058 -0.1740
 9031SOL    HW127992   3.347   1.040   5.010  0.7381 -0.3119 -1.4769
 9031SOL    HW227993   3.504   1.082   5.025 -0.3173  3.0751  1.4574
 9032SOL     OW27994   4.987   5.374   1.511 -0.1961 -0.7017 -0.0449
 9032SOL    HW127995   5.060   5.345   1.572  1.2047 -0.4430 -1.5191
 9032SOL    HW227996   5.020   5.373   1.417 -2.6584 -2.2911 -0.9789
 9033SOL     OW27997   6.035   4.883   2.458 -0.3617 -0.6980 -0.2805
 9033SOL    HW127998   6.106   4.821   2.426 -2.1102 -3.0050  0.0279
 9033SOL    HW227999   6.044   4.897   2.556  0.1387 -0.3416 -0.3784
 9034SOL     OW28000   4.250   5.139   2.922 -0.1301  0.3398 -0.1210
 9034SOL    HW128001   4.229   5.175   3.013  0.2135 -0.8580  0.4501
 9034SOL    HW228002   4.294   5.211   2.867  1.3217  0.5684  1.2618
 9035SOL     OW28003   4.210   4.547   6.157 -0.3044 -0.0595  0.1713
 9035SOL    HW128004   4.115   4.535   6.129 -1.0617  2.2823  1.4407
 9035SOL    HW228005   4.238   4.641   6.137  1.8936 -0.7883 -0.4720
 9036SOL     OW28006   2.154   3.498   5.020  0.1245  0.1496  0.3609
 9036SOL    HW128007   2.196   3.413   5.050  0.9676  1.0747  1.9430
 9036SOL    HW228008   2.220   3.573   5.030 -0.8486  1.1213 -0.2532
 9037SOL     OW28009   1.820   5.248   3.509 -0.7649 -0.2926  0.4450
 9037SOL    HW128010   1.770   5.170   3.548  0.0301 -0.1605  1.7922
 9037SOL    HW228011   1.756   5.317   3.479 -1.4524 -1.0071  0.2387
 9038SOL     OW28012   3.470   2.980   6.107  0.0593 -0.2872 -0.3981
 9038SOL    HW128013   3.512   3.071   6.112 -0.6392 -0.0221  3.1986
 9038SOL    HW228014   3.370   2.989   6.111 -0.1275 -1.1886 -2.1525
 9039SOL     OW28015   1.479   5.052   5.247  0.0721 -0.2056 -0.6141
 9039SOL    HW128016   1.388   5.092   5.245  0.4202  0.5792 -1.9049
 9039SOL    HW228017   1.491   4.991   5.169  1.4796  1.6883 -1.9734
 9040SOL     OW28018   2.096   2.341   2.450  0.7400  0.1239 -0.0510
 9040SOL    HW128019   2.078   2.367   2.545  2.7422  1.1030  0.1019
 9040SOL    HW228020   2.180   2.384   2.419  1.0558 -1.5805 -1.7392
 9041SOL     OW28021   6.972   2.122   6.389 -0.2629 -0.1901 -0.1323
 9041SOL    HW128022   7.018   2.036   6.408  0.1133 -0.2922 -1.4402
 9041SOL    HW228023   6.881   2.121   6.432  0.5245 -0.3712  1.6307
 9042SOL     OW28024   4.137   0.029   5.038  0.8381 -0.2874  0.0375
 9042SOL    HW128025   4.095  -0.040   5.097 -0.1683  0.6657  0.4683
 9042SOL    HW228026   4.212  -0.012   4.987 -0.2611 -1.9271 -0.3398
 9043SOL     OW28027   2.266   1.102   5.845 -0.3413 -0.0248  0.7592
 9043SOL    HW128028   2.267   1.003   5.849  0.2535 -0.0399  0.2928
 9043SOL    HW228029   2.291   1.132   5.753  2.3740  0.6105  1.6375
 9044SOL     OW28030   0.493   0.448   0.173  0.1344  0.3329 -0.6002
 9044SOL    HW128031   0.516   0.351   0.160 -3.3428 -0.5234 -1.3086
 9044SOL    HW228032   0.503   0.496   0.085 -1.3425 -0.2119 -1.0973
 9045SOL     OW28033   4.233   6.467   1.258 -0.2168 -0.2500 -0.3673
 9045SOL    HW128034   4.265   6.507   1.344  1.6629  0.9858 -1.5328
 9045SOL    HW228035   4.294   6.392   1.232  0.6062  0.8184 -1.6476
 9046SOL     OW28036   3.280   3.700   2.845  0.2558  0.1106 -0.2424
 9046SOL    HW128037   3.233   3.631   2.899  0.7274  0.8480  1.1562
 9046SOL    HW228038   3.214   3.748   2.787 -0.1540 -1.1197 -0.8321
 9047SOL     OW28039   2.884   2.277   5.101  0.1096 -0.4624  1.0749
 9047SOL    HW128040   2.964   2.321   5.061  0.6038 -0.4506  2.0460
 9047SOL    HW228041   2.879   2.182   5.070 -0.5285  0.0276 -0.4157
 9048SOL     OW28042   6.394   2.224   5.938  0.0155  0.6792 -0.2369
 9048SOL    HW128043   6.341   2.240   5.856  1.3355 -0.5660 -1.3968
 9048SOL    HW228044   6.333   2.219   6.017 -1.0894  4.2043 -0.7033
 9049SOL     OW28045   5.078   6.134   6.828 -0.0707 -0.0915  0.1842
 9049SOL    HW128046   5.148   6.127   6.899 -1.9631 -0.1608  2.1136
 9049SOL    HW228047   5.108   6.202   6.760  1.9576 -0.2936  0.7883
 9050SOL     OW28048   6.559   2.633   1.753  0.0134 -0.1435 -0.1239
 9050SOL    HW128049   6.581   2.558   1.690 -0.2054 -0.9946  0.7920
 9050SOL    HW228050   6.609   2.715   1.725  2.4131 -1.3298  0.3758
 9051SOL     OW28051   2.477   6.612   3.617  0.0973  0.0078  0.2918
 9051SOL    HW128052   2.504   6.707   3.602  1.7429 -0.5822 -0.7244
 9051SOL    HW228053   2.536   6.570   3.685 -0.7214 -0.2677  0.8501
 9052SOL     OW28054   0.448   4.540   4.744 -0.4254  0.2187  0.4773
 9052SOL    HW128055   0.377   4.606   4.769 -1.6030 -0.9368  0.2939
 9052SOL    HW228056   0.538   4.582   4.757 -1.0893  1.2601  2.0547
 9053SOL     OW28057   3.090   1.734   2.259  0.0535 -0.0099  0.5849
 9053SOL    HW128058   3.155   1.765   2.190  0.8576 -0.1298  1.2758
 9053SOL    HW228059   3.093   1.796   2.338 -2.1000  1.1433 -0.1531
 9054SOL     OW28060   2.137   4.998   3.327  0.3270  0.0450 -0.2474
 9054SOL    HW128061   2.209   5.013   3.394 -0.0299  1.7019 -0.2051
 9054SOL    HW228062   2.098   4.907   3.340 -0.5068  0.7172  2.5511
 9055SOL     OW28063   5.197   1.531   5.006 -0.0864 -0.0076 -0.0287
 9055SOL    HW128064   5.113   1.511   5.057 -0.7975 -0.1208 -1.2200
 9055SOL    HW228065   5.263   1.456   5.019  0.1293  0.4130  1.4793
 9056SOL     OW28066   0.898   2.269   3.027 -0.1009 -0.1416  0.2940
 9056SOL    HW128067   0.995   2.258   3.004  0.0595  2.1322 -0.3642
 9056SOL    HW228068   0.889   2.336   3.100 -1.1173 -1.6886  1.6610
 9057SOL     OW28069   5.013   6.345   3.107  0.4060 -0.0437  0.2099
 9057SOL    HW128070   5.036   6.256   3.070  0.5839 -0.9568  2.3478
 9057SOL    HW228071   5.089   6.408   3.091  1.1637 -0.8733  0.4497
 9058SOL     OW28072   1.898   6.920   2.971  0.5382 -0.2310 -0.0127
 9058SOL    HW128073   1.879   6.831   2.930  0.3524  0.0587 -0.5683
 9058SOL    HW228074   1.813   6.968   2.989  0.5019 -0.9911  2.2325
 9059SOL     OW28075   1.172   1.105   3.690  0.5979 -0.3491 -0.1193
 9059SOL    HW128076   1.188   1.030   3.754 -0.5142  0.0869  0.6996
 9059SOL    HW228077   1.197   1.192   3.733  0.3029 -0.0917 -0.4587
 9060SOL     OW28078   0.457   3.689   3.353  0.1510 -0.5597  0.6310
 9060SOL    HW128079   0.515   3.622   3.307  0.7102  1.8608 -2.5249
 9060SOL    HW228080   0.361   3.667   3.334  0.3385 -0.2669 -0.7891
 9061SOL     OW28081   1.172   5.689   2.168 -0.7174  0.2789 -0.3228
 9061SOL    HW128082   1.241   5.734   2.225  0.3034 -1.7131  0.1191
 9061SOL    HW228083   1.214   5.658   2.083 -0.9285 -1.2834  0.1072
 9062SOL     OW28084   2.029   2.767   6.779  0.3235 -0.1748 -0.4570
 9062SOL    HW128085   2.028   2.831   6.856  1.8709 -1.1095  0.3741
 9062SOL    HW228086   1.964   2.799   6.709  0.1821  1.6456  0.4396
 9063SOL     OW28087   2.918   0.317   3.165  0.4389  0.0858  0.1622
 9063SOL    HW128088   2.870   0.330   3.252 -1.5652  0.6550 -0.9615
 9063SOL    HW228089   2.986   0.389   3.153  1.7798 -0.8159  1.8508
 9064SOL     OW28090   5.393   3.002   5.628 -0.0573 -0.1821 -0.9605
 9064SOL    HW128091   5.388   2.902   5.629  1.6023 -0.3134  1.2633
 9064SOL    HW228092   5.485   3.031   5.601 -0.0108  0.6841  0.0886
 9065SOL     OW28093   4.432   6.860   6.885 -0.3639 -0.1459  0.4232
 9065SOL    HW128094   4.488   6.866   6.968  0.5549  1.1499 -0.2449
 9065SOL    HW228095   4.345   6.907   6.899  0.2349  1.0231  0.3339
 9066SOL     OW28096   6.040   0.404   4.982  0.3274  0.1281 -0.0752
 9066SOL    HW128097   6.072   0.362   5.066 -1.5518 -2.0810 -0.3626
 9066SOL    HW228098   6.065   0.346   4.904  0.1153  0.9975 -0.8061
 9067SOL     OW28099   0.678   6.300   4.890 -0.1298 -0.3012  0.1936
 9067SOL    HW128100   0.665   6.397   4.870  0.8718 -0.5392 -1.8702
 9067SOL    HW228101   0.761   6.287   4.943 -1.5368  0.1181  2.6823
 9068SOL     OW28102   2.368   6.674   2.858  0.2340  0.2874  0.4656
 9068SOL    HW128103   2.284   6.621   2.853  0.4432  0.0615 -1.2507
 9068SOL    HW228104   2.346   6.771   2.872 -0.2499  0.0815  1.1579
 9069SOL     OW28105   0.769   4.238   5.443 -0.0101  0.1848 -0.3308
 9069SOL    HW128106   0.769   4.216   5.541  1.2094 -2.8811 -0.9167
 9069SOL    HW228107   0.787   4.336   5.431 -4.5890  1.7128  2.5664
 9070SOL     OW28108   0.850   5.082   4.426  0.5872  0.2499  0.0451
 9070SOL    HW128109   0.766   5.046   4.385  1.1633 -0.4628 -0.5641
 9070SOL    HW228110   0.923   5.013   4.417  1.4345  1.1513 -0.1364
 9071SOL     OW28111   0.600   6.128   1.043  0.1241  0.0571  0.3157
 9071SOL    HW128112   0.623   6.225   1.050 -0.5161  0.3401 -1.1978
 9071SOL    HW228113   0.672   6.074   1.086 -0.1163  1.2265  2.3209
 9072SOL     OW28114   6.407   1.501   1.932  0.6785 -0.2378 -0.2064
 9072SOL    HW128115   6.403   1.406   1.963 -1.4890 -0.6333 -1.4822
 9072SOL    HW228116   6.339   1.555   1.982 -0.0951 -0.0308 -1.4289
 9073SOL     OW28117   2.679   0.478   1.230 -0.8815  0.3694 -0.3882
 9073SOL    HW128118   2.709   0.573   1.240 -0.1349  0.1928 -0.8746
 9073SOL    HW228119   2.696   0.428   1.315 -2.7805  1.0537  0.4459
 9074SOL     OW28120   6.686   6.976   2.160 -0.0719 -0.6637 -0.1281
 9074SOL    HW128121   6.739   6.953   2.078  2.5308  1.2450  0.8576
 9074SOL    HW228122   6.704   7.071   2.185 -2.0696 -0.7037  1.7772
 9075SOL     OW28123   6.305   1.775   2.931 -0.2103  0.6559 -0.3662
 9075SOL    HW128124   6.349   1.833   3.000 -1.6295 -1.1682  2.2252
 9075SOL    HW228125   6.249   1.832   2.871  3.6580  2.7761 -2.4069
 9076SOL     OW28126   1.507   2.782   6.169 -0.3877  0.2452  0.5007
 9076SOL    HW128127   1.409   2.765   6.171 -0.4602  0.6704  1.0809
 9076SOL    HW228128   1.554   2.715   6.227 -0.5575  1.2671  1.8712
 9077SOL     OW28129   4.847   6.805   1.860 -0.5285 -0.6722 -0.5666
 9077SOL    HW128130   4.806   6.764   1.778 -2.0769 -1.3891  0.5132
 9077SOL    HW228131   4.802   6.892   1.880 -0.7256 -0.8813 -0.0600
 9078SOL     OW28132   3.498   2.905   4.466 -0.3451 -0.0232  0.1111
 9078SOL    HW128133   3.409   2.908   4.510 -1.4847 -1.0772 -2.0042
 9078SOL    HW228134   3.567   2.876   4.533 -1.7260 -0.1655  1.5324
 9079SOL     OW28135   2.509   1.025   3.562 -0.1672  0.4356 -0.5498
 9079SOL    HW128136   2.484   0.929   3.553  0.8819  0.2107 -1.2442
 9079SOL    HW228137   2.482   1.075   3.479  0.4303  0.4618 -0.7382
 9080SOL     OW28138   4.986   2.775   4.459 -0.4737 -0.5064  0.2484
 9080SOL    HW128139   5.078   2.745   4.481 -0.1351 -0.5472 -1.1374
 9080SOL    HW228140   4.972   2.868   4.491  0.4919 -0.0434 -0.6141
 9081SOL     OW28141   5.465   0.383   3.112 -0.6964 -0.5639  0.4072
 9081SOL    HW128142   5.397   0.333   3.058 -0.7309  0.8578 -0.9247
 9081SOL    HW228143   5.535   0.421   3.051 -1.3577  2.0640  1.1458
 9082SOL     OW28144   2.867   6.400   5.287 -0.0835 -0.5229  0.6686
 9082SOL    HW128145   2.820   6.457   5.354  2.3663  1.4864  0.8454
 9082SOL    HW228146   2.879   6.452   5.202  1.0132 -1.2461  0.3585
 9083SOL     OW28147   4.763   4.136   6.400  0.0347  0.2629  0.1350
 9083SOL    HW128148   4.842   4.075   6.391 -0.8172 -0.7955 -0.4063
 9083SOL    HW228149   4.756   4.167   6.494  0.6587 -0.2409  0.3600
 9084SOL     OW28150   3.476   3.442   4.632 -0.0789  0.0165 -0.3534
 9084SOL    HW128151   3.502   3.527   4.587  0.3881 -0.6649 -1.4161
 9084SOL    HW228152   3.404   3.397   4.578 -0.6406 -0.0544  0.4365
 9085SOL     OW28153   3.083   1.353   0.743  0.2532 -0.3192 -0.4727
 9085SOL    HW128154   3.107   1.449   0.756  1.6771 -1.0369  3.9339
 9085SOL    HW228155   2.986   1.340   0.767 -0.4463  0.1472 -2.7652
 9086SOL     OW28156   1.266   4.757   6.995  0.1066 -0.6708 -0.0299
 9086SOL    HW128157   1.343   4.707   6.956  0.3014 -0.4067  0.0132
 9086SOL    HW228158   1.187   4.697   7.002  0.3103 -0.9429 -0.0732
 9087SOL     OW28159   4.865   3.024   2.247  0.6293  0.3880 -0.0682
 9087SOL    HW128160   4.825   3.091   2.310 -0.9002 -0.0622 -0.5249
 9087SOL    HW228161   4.806   3.015   2.167  1.2345 -0.9360 -0.3772
 9088SOL     OW28162   6.662   1.034   1.401 -0.2730 -0.2115 -0.0615
 9088SOL    HW128163   6.582   1.089   1.375 -0.0939  0.1403  0.1180
 9088SOL    HW228164   6.662   1.021   1.500  0.3016  0.4439  0.0307
 9089SOL     OW28165   4.957   5.370   5.885  0.3638 -0.1206 -0.4019
 9089SOL    HW128166   5.018   5.307   5.932 -1.0666 -0.5856  0.9138
 9089SOL    HW228167   4.995   5.392   5.795  1.8342 -1.3385 -0.1223
 9090SOL     OW28168   5.598   6.129   5.347 -0.1470  0.6485 -0.1682
 9090SOL    HW128169   5.575   6.218   5.308 -2.7822 -0.2847 -1.0058
 9090SOL    HW228170   5.591   6.059   5.276 -1.7618 -0.6634  1.1841
 9091SOL     OW28171   2.402   3.042   6.616 -0.3208  0.2307 -0.5072
 9091SOL    HW128172   2.457   2.974   6.665 -0.8009 -1.3998 -2.0989
 9091SOL    HW228173   2.462   3.099   6.560  0.0305  0.7144  0.3430
 9092SOL     OW28174   6.363   1.092   5.918  0.1683 -0.3723  0.3020
 9092SOL    HW128175   6.291   1.150   5.958 -0.7489 -0.9217 -0.5188
 9092SOL    HW228176   6.335   1.062   5.827  2.0578  0.5291 -0.6294
 9093SOL     OW28177   1.004   5.780   5.027  0.1495 -0.2359  0.1031
 9093SOL    HW128178   0.973   5.692   5.063  0.6841 -0.7448 -0.6328
 9093SOL    HW228179   0.925   5.839   5.011 -0.0942  0.1939  2.4723
 9094SOL     OW28180   0.920   5.571   1.962  0.2695 -0.1626 -0.3759
 9094SOL    HW128181   0.930   5.653   2.019 -2.1106  1.2798 -1.8143
 9094SOL    HW228182   0.971   5.495   2.002  3.0834  2.1281  0.7430
 9095SOL     OW28183   3.908   6.522   6.417 -0.3096  0.5004  0.4722
 9095SOL    HW128184   3.811   6.500   6.422 -0.0733 -1.0779 -0.9411
 9095SOL    HW228185   3.919   6.622   6.411 -2.0231  0.6436 -1.9854
 9096SOL     OW28186   6.360   5.979   3.466 -0.1156  0.4968  0.2336
 9096SOL    HW128187   6.342   6.022   3.377  0.0916 -1.2787 -0.7084
 9096SOL    HW228188   6.352   5.880   3.457  0.6712  0.2351  2.0434
 9097SOL     OW28189   1.030   2.486   5.399 -0.1375  0.1110  0.5277
 9097SOL    HW128190   0.934   2.473   5.424 -0.4726  1.6960  0.1610
 9097SOL    HW228191   1.088   2.468   5.479 -0.5805 -2.2704  0.3976
 9098SOL     OW28192   2.677   2.717   5.573  0.3239 -0.4163  0.2359
 9098SOL    HW128193   2.705   2.632   5.529  0.5027 -0.1490 -0.1696
 9098SOL    HW228194   2.679   2.792   5.507 -1.4921 -0.3961  0.1418
 9099SOL     OW28195   0.412   2.515   6.862  0.2434  0.2964  0.3635
 9099SOL    HW128196   0.351   2.574   6.809  0.4681  0.9326  0.8024
 9099SOL    HW228197   0.392   2.525   6.959  1.7501  1.3416  0.5998
 9100SOL     OW28198   6.205   1.769   3.260 -0.0112  0.5334 -0.6414
 9100SOL    HW128199   6.143   1.696   3.229  1.4280  0.3324 -3.3433
 9100SOL    HW228200   6.218   1.761   3.358 -1.8864 -1.2747 -0.4565
 9101SOL     OW28201   3.017   2.077   3.014 -0.1076  0.0528 -0.1657
 9101SOL    HW128202   2.999   1.988   3.056  1.6620 -0.6761 -0.8370
 9101SOL    HW228203   2.934   2.133   3.018 -1.0618 -1.3493  0.9023
 9102SOL     OW28204   4.542   1.081   2.088  0.2635 -0.4813  0.0978
 9102SOL    HW128205   4.525   1.081   1.989  1.3063  2.5046 -0.1671
 9102SOL    HW228206   4.631   1.039   2.106  0.3390 -0.4855 -0.2762
 9103SOL     OW28207   5.214   6.813   6.571  0.6829  0.4499  0.3183
 9103SOL    HW128208   5.231   6.758   6.653 -0.8557 -1.5025 -0.5917
 9103SOL    HW228209   5.128   6.863   6.582  1.2108  1.3615  0.4408
 9104SOL     OW28210   6.021   1.588   0.086  0.4043 -0.7986  0.1717
 9104SOL    HW128211   5.976   1.506   0.050  1.5987 -1.2801 -0.2494
 9104SOL    HW228212   5.971   1.620   0.167 -1.0907 -0.9100 -0.6680
 9105SOL     OW28213   1.491   1.472   4.332 -0.0671 -0.4382  0.5073
 9105SOL    HW128214   1.445   1.561   4.337 -0.6630 -0.7556  0.7084
 9105SOL    HW228215   1.435   1.409   4.279 -0.4042 -1.1599  1.6999
 9106SOL     OW28216   5.169   4.940   5.848  0.6380  0.3507  0.0246
 9106SOL    HW128217   5.162   4.861   5.910  1.3767  0.8196  0.7279
 9106SOL    HW228218   5.184   5.023   5.902  2.4991  0.6171 -0.8238
 9107SOL     OW28219   3.841   1.078   0.562  0.0703  0.2081  0.2161
 9107SOL    HW128220   3.782   1.023   0.503 -1.1387 -2.2457  3.3885
 9107SOL    HW228221   3.936   1.046   0.554 -0.3016 -1.0369  0.5091
 9108SOL     OW28222   4.565   4.251   5.694  0.1228  0.1813 -0.1458
 9108SOL    HW128223   4.580   4.153   5.677  1.2463 -0.4149  3.2903
 9108SOL    HW228224   4.478   4.279   5.654  0.5440 -1.7574 -2.6562
 9109SOL     OW28225   3.984   1.766   1.840  0.1735  0.5380 -0.4183
 9109SOL    HW128226   4.072   1.814   1.839  0.0746  0.7152 -0.6073
 9109SOL    HW228227   3.931   1.792   1.759 -0.7348  1.6770  0.5044
 9110SOL     OW28228   1.872   6.496   5.299 -0.0029  0.4770  0.2662
 9110SOL    HW128229   1.808   6.520   5.225  2.1716  1.5909 -1.3770
 9110SOL    HW228230   1.903   6.580   5.344 -0.3601 -0.1170  1.6785
 9111SOL     OW28231   3.636   3.713   5.622 -0.1439 -0.0296 -0.1541
 9111SOL    HW128232   3.630   3.810   5.598  2.5548 -0.0841 -1.4053
 9111SOL    HW228233   3.606   3.658   5.545  0.0065 -0.1989 -0.0909
 9112SOL     OW28234   1.946   0.504   2.717 -0.0211 -0.6701 -0.0875
 9112SOL    HW128235   1.907   0.450   2.791 -0.7360 -1.1308 -0.7837
 9112SOL    HW228236   1.880   0.510   2.642  0.0029  1.2239 -0.0092
 9113SOL     OW28237   6.182   1.203   3.468 -0.1730 -0.1943 -0.3986
 9113SOL    HW128238   6.187   1.280   3.404 -2.1615 -0.0230 -0.4160
 9113SOL    HW228239   6.249   1.133   3.442  1.0694  1.1489 -0.8881
 9114SOL     OW28240   1.948   4.544   4.026  0.0017 -0.4582 -0.1048
 9114SOL    HW128241   1.877   4.557   4.095  0.8312 -0.6781  0.8029
 9114SOL    HW228242   1.985   4.633   3.999  0.1956 -0.4231  0.2810
 9115SOL     OW28243   6.148   6.423   3.955 -0.0504  0.6170 -0.2970
 9115SOL    HW128244   6.183   6.329   3.952 -2.9316 -0.5538 -0.4695
 9115SOL    HW228245   6.196   6.479   3.887  2.2881 -0.4799  0.3783
 9116SOL     OW28246   0.137   0.360   3.302 -0.3161  0.0775  0.1302
 9116SOL    HW128247   0.101   0.298   3.371  0.4397 -0.2966  0.1887
 9116SOL    HW228248   0.068   0.373   3.230 -1.8406  1.9220  1.8270
 9117SOL     OW28249   6.917   6.817   0.013  0.0907  0.4994 -0.4585
 9117SOL    HW128250   6.829   6.865   0.017 -0.3866 -0.3369 -0.7750
 9117SOL    HW228251   6.955   6.811   0.106 -1.2037 -0.9699  0.0168
 9118SOL     OW28252   6.939   3.622   1.356  1.0228 -0.3435 -0.0016
 9118SOL    HW128253   6.997   3.668   1.289 -0.8470  1.4839 -0.4850
 9118SOL    HW228254   6.945   3.670   1.444  1.7042 -1.3399  0.5160
 9119SOL     OW28255   2.013   0.727   0.511  0.1044  0.5633  0.2932
 9119SOL    HW128256   1.991   0.821   0.483 -0.8879  0.2044 -0.1782
 9119SOL    HW228257   2.030   0.671   0.430  0.5789  0.3060  0.5668
 9120SOL     OW28258   5.290   6.945   0.788 -0.7279 -0.1622 -0.1375
 9120SOL    HW128259   5.372   6.887   0.780  1.4317  2.4480  1.1791
 9120SOL    HW228260   5.286   7.007   0.710 -0.8743  0.3590  0.2793
 9121SOL     OW28261   2.216   1.289   6.416 -0.3899  0.1795 -0.0254
 9121SOL    HW128262   2.249   1.223   6.483  0.8852  1.3674  0.5682
 9121SOL    HW228263   2.155   1.354   6.460 -0.2831  0.4163 -0.2252
 9122SOL     OW28264   2.759   3.977   1.355  0.5807  0.1166 -0.0797
 9122SOL    HW128265   2.747   3.898   1.414 -0.3043 -0.9846 -1.6632
 9122SOL    HW228266   2.671   4.020   1.337  1.1008  1.8848  1.2206
 9123SOL     OW28267   1.534   0.719   4.955  0.3423 -0.2579 -0.7001
 9123SOL    HW128268   1.586   0.719   4.870  1.3673 -1.5072 -0.0894
 9123SOL    HW228269   1.522   0.813   4.986  1.5391  0.1049 -1.2762
 9124SOL     OW28270   3.065   6.658   1.661 -0.4495 -0.0044 -0.0951
 9124SOL    HW128271   2.997   6.587   1.642 -0.7856 -0.0365  1.1094
 9124SOL    HW228272   3.148   6.638   1.611 -1.2530 -0.0752 -1.4452
 9125SOL     OW28273   2.887   5.213   6.009  0.2673  0.3854  0.1569
 9125SOL    HW128274   2.902   5.114   6.013  0.5562  0.4732  2.7613
 9125SOL    HW228275   2.965   5.256   5.965  0.0935 -0.5221 -1.1057
 9126SOL     OW28276   3.889   5.301   1.113  0.7083 -0.3404 -0.6096
 9126SOL    HW128277   3.972   5.299   1.167  0.1941 -1.1191  0.1896
 9126SOL    HW228278   3.892   5.377   1.048  0.3640  2.0683  2.0474
 9127SOL     OW28279   6.199   4.641   6.906 -0.4878 -0.1980 -0.1106
 9127SOL    HW128280   6.293   4.608   6.919  0.3793  2.1712  0.0177
 9127SOL    HW228281   6.188   4.674   6.813 -1.4175 -1.0159 -0.3095
 9128SOL     OW28282   5.434   2.276   3.976 -0.5718 -0.6918  0.7959
 9128SOL    HW128283   5.516   2.219   3.970 -1.1654 -1.7036  1.7477
 9128SOL    HW228284   5.380   2.247   4.055 -1.3190  0.6667  0.8124
 9129SOL     OW28285   3.563   2.501   0.659  0.0065  0.9419 -0.1281
 9129SOL    HW128286   3.648   2.510   0.607 -0.4424  1.7007 -0.7492
 9129SOL    HW228287   3.485   2.517   0.599 -0.5338  1.5569  0.7131
 9130SOL     OW28288   2.739   4.695   5.559  0.5566  0.7969 -0.6085
 9130SOL    HW128289   2.741   4.630   5.483 -1.3772 -1.2255  0.9120
 9130SOL    HW228290   2.645   4.728   5.571  0.8645  1.2314  0.7583
 9131SOL     OW28291   6.991   1.139   0.340 -0.2341  0.1140 -0.8535
 9131SOL    HW128292   6.991   1.101   0.433 -1.5306 -0.1073 -0.9240
 9131SOL    HW228293   6.933   1.083   0.282  1.0576 -0.1084 -1.9749
 9132SOL     OW28294   1.116   5.613   3.022 -0.0626  0.2165 -0.0134
 9132SOL    HW128295   1.058   5.539   2.986  0.5235  0.1052 -0.7576
 9132SOL    HW228296   1.208   5.577   3.040 -0.5684  0.0146  2.5960
 9133SOL     OW28297   4.736   0.679   0.745  0.5540  0.1553 -0.0504
 9133SOL    HW128298   4.662   0.611   0.746  0.5792  0.0564  2.6107
 9133SOL    HW228299   4.798   0.659   0.670 -0.0405 -2.1286 -0.0051
 9134SOL     OW28300   0.159   4.253   0.737 -0.3659  0.1666 -0.3022
 9134SOL    HW128301   0.209   4.243   0.651  0.8664 -2.1711  0.5707
 9134SOL    HW228302   0.168   4.346   0.771  1.9343  0.2830 -1.0902
 9135SOL     OW28303   2.177   5.283   0.504  0.5764  0.2246  0.0841
 9135SOL    HW128304   2.174   5.361   0.442 -1.7924  1.8451  2.0592
 9135SOL    HW228305   2.240   5.302   0.580 -2.8810  2.1825  2.7359
 9136SOL     OW28306   4.662   5.709   5.471 -0.3560 -0.1412  1.2245
 9136SOL    HW128307   4.742   5.687   5.415 -0.4551  2.2386  0.0042
 9136SOL    HW228308   4.579   5.693   5.417 -0.7429 -2.0549  2.2898
 9137SOL     OW28309   4.706   5.605   6.794  0.1266 -0.5009  0.8472
 9137SOL    HW128310   4.636   5.533   6.791  0.7454 -1.1236  0.9886
 9137SOL    HW228311   4.733   5.630   6.701  0.5988 -1.1507  0.8004
 9138SOL     OW28312   1.986   4.144   1.123  0.4564  0.0094  0.1896
 9138SOL    HW128313   1.910   4.198   1.087  0.6652  0.3116  0.1941
 9138SOL    HW228314   2.052   4.205   1.167  0.3619 -0.3265  0.8017
 9139SOL     OW28315   6.221   0.381   2.775 -0.4795 -0.5544 -0.6812
 9139SOL    HW128316   6.317   0.394   2.752 -0.5396  0.9818 -0.1139
 9139SOL    HW228317   6.202   0.283   2.781  1.8104 -0.9483  2.2520
 9140SOL     OW28318   6.140   4.994   4.605  0.1368  0.0821 -0.5775
 9140SOL    HW128319   6.200   4.918   4.582 -0.5480 -0.4239 -0.7257
 9140SOL    HW228320   6.132   5.056   4.527  0.0011 -0.1682 -0.7657
 9141SOL     OW28321   0.739   3.842   0.617  0.4760 -0.0598  0.3840
 9141SOL    HW128322   0.710   3.869   0.709  1.3152  1.2016  0.2891
 9141SOL    HW228323   0.659   3.840   0.557 -0.3308 -2.2373  1.4069
 9142SOL     OW28324   0.311   6.420   3.252 -0.3975  0.9388 -0.2907
 9142SOL    HW128325   0.295   6.379   3.162 -1.6760  0.0479  0.3093
 9142SOL    HW228326   0.347   6.513   3.240 -1.3511  1.1633 -1.7490
 9143SOL     OW28327   5.526   5.414   0.719  0.6051 -0.1827 -0.0539
 9143SOL    HW128328   5.539   5.319   0.748  0.0327  0.1447  1.3764
 9143SOL    HW228329   5.475   5.463   0.789  1.5736  1.3893 -0.4054
 9144SOL     OW28330   3.862   5.295   4.584 -0.2139  0.1737 -0.0657
 9144SOL    HW128331   3.797   5.232   4.542 -0.6327  0.6437 -0.1201
 9144SOL    HW228332   3.955   5.260   4.570 -0.4634 -0.6843  0.3154
 9145SOL     OW28333   1.917   5.359   5.955 -0.2662 -0.1921  0.2544
 9145SOL    HW128334   2.003   5.349   5.905  0.7458  0.2283  1.8318
 9145SOL    HW228335   1.877   5.268   5.971  0.7154 -0.5336  0.8689
 9146SOL     OW28336   5.282   2.519   4.712  0.0434  0.4064  0.1366
 9146SOL    HW128337   5.227   2.442   4.680  3.3838 -2.9571  1.5977
 9146SOL    HW228338   5.247   2.550   4.800  0.3356 -1.6764  1.0551
 9147SOL     OW28339   4.955   0.042   3.570 -0.1046 -0.1320  0.8405
 9147SOL    HW128340   4.881   0.011   3.630 -0.0219  0.2502  1.1523
 9147SOL    HW228341   5.037   0.059   3.626 -0.1895  0.7619  0.7079
 9148SOL     OW28342   0.254   6.560   1.237  0.1289  0.2670 -0.1770
 9148SOL    HW128343   0.204   6.558   1.150 -0.0746 -1.5833 -0.0446
 9148SOL    HW228344   0.342   6.604   1.223  0.9922 -1.8441 -1.8585
 9149SOL     OW28345   6.413   4.433   6.791 -0.2532 -0.0880  0.0845
 9149SOL    HW128346   6.439   4.368   6.720 -1.3005 -1.8521  1.2156
 9149SOL    HW228347   6.473   4.421   6.870 -1.2280 -0.5796  0.7670
 9150SOL     OW28348   5.108   5.021   0.406 -0.6400 -0.0356  0.5226
 9150SOL    HW128349   5.033   5.080   0.376 -0.4556 -0.1296 -0.1215
 9150SOL    HW228350   5.088   4.989   0.499 -1.0824  0.4639  0.6130
 9151SOL     OW28351   1.045   5.344   4.088 -0.0959 -0.6645  0.1596
 9151SOL    HW128352   1.129   5.290   4.081  1.6467  1.9772 -0.8153
 9151SOL    HW228353   0.998   5.344   4.000 -0.0308 -0.5167  0.1241
 9152SOL     OW28354   1.199   4.744   3.030 -0.9329  0.3734 -0.0288
 9152SOL    HW128355   1.266   4.721   2.959 -0.2305  1.0957  0.3815
 9152SOL    HW228356   1.208   4.840   3.054 -1.0054  0.0938  1.1965
 9153SOL     OW28357   6.585   1.247   6.047  0.5196 -0.3376  0.0162
 9153SOL    HW128358   6.513   1.183   6.019 -0.1940  0.8642 -0.9869
 9153SOL    HW228359   6.576   1.267   6.145 -1.6402  1.1005 -0.4082
 9154SOL     OW28360   0.841   3.502   2.395 -0.0527 -0.3855 -0.4466
 9154SOL    HW128361   0.828   3.413   2.439 -0.2307 -0.7845 -1.2929
 9154SOL    HW228362   0.856   3.571   2.465  0.1811 -1.0948  0.2192
 9155SOL     OW28363   6.774   0.818   1.902 -0.0247 -0.2064 -0.2876
 9155SOL    HW128364   6.821   0.731   1.886 -1.4597 -1.0862  0.0676
 9155SOL    HW228365   6.690   0.801   1.955 -0.3547  1.3934 -0.2546
 9156SOL     OW28366   5.537   3.999   6.798  0.7015  0.0782  0.4036
 9156SOL    HW128367   5.445   3.966   6.817  0.6915  0.1704  0.5192
 9156SOL    HW228368   5.591   3.998   6.883  0.6314  0.5804  0.4568
 9157SOL     OW28369   4.745   3.169   0.840 -0.1034  0.1527 -0.0833
 9157SOL    HW128370   4.738   3.076   0.877 -2.1946  0.5933  0.7799
 9157SOL    HW228371   4.836   3.206   0.859  0.0876 -0.9816  1.3671
 9158SOL     OW28372   0.253   4.786   2.813  0.1643  0.2851 -0.6949
 9158SOL    HW128373   0.248   4.686   2.816  0.9792  0.2098 -1.3636
 9158SOL    HW228374   0.277   4.815   2.721 -0.5449  1.1317 -0.6217
 9159SOL     OW28375   4.475   0.836   3.251 -0.0933  0.0897  0.6642
 9159SOL    HW128376   4.455   0.868   3.343  0.8625 -1.8586  1.6103
 9159SOL    HW228377   4.574   0.828   3.239 -0.1860  0.6726 -0.6694
 9160SOL     OW28378   0.862   4.767   5.746 -0.4815  0.6774 -0.0573
 9160SOL    HW128379   0.808   4.790   5.828 -1.8296  1.6936 -1.1761
 9160SOL    HW228380   0.808   4.787   5.664  0.2420 -1.7290 -1.2137
 9161SOL     OW28381   6.325   3.042   0.638 -0.2166  0.1509  0.2624
 9161SOL    HW128382   6.396   2.983   0.598 -1.5406 -1.7406  0.5641
 9161SOL    HW228383   6.256   3.062   0.569  0.2765  1.4881  0.1355
 9162SOL     OW28384   4.792   1.077   3.109  0.2343  0.2746 -0.0137
 9162SOL    HW128385   4.829   1.078   3.016 -2.5949  1.2178 -1.2257
 9162SOL    HW228386   4.753   0.987   3.128 -0.6341  0.5700 -0.3743
 9163SOL     OW28387   2.118   3.520   3.966 -0.3467  0.9421  0.0029
 9163SOL    HW128388   2.176   3.480   4.036  0.4667 -1.2434 -1.7963
 9163SOL    HW228389   2.022   3.498   3.985  0.0718 -2.0263 -0.9040
 9164SOL     OW28390   2.675   3.526   6.950  0.4251  0.1237 -0.4650
 9164SOL    HW128391   2.741   3.451   6.949  0.3004  0.0039  0.1229
 9164SOL    HW228392   2.618   3.521   6.868  1.9576  0.9655 -1.6469
 9165SOL     OW28393   4.530   2.194   5.068 -0.0920  0.3271  0.4118
 9165SOL    HW128394   4.520   2.293   5.058 -0.4360  0.3643  1.0730
 9165SOL    HW228395   4.514   2.168   5.163  1.5462 -0.1921  0.5764
 9166SOL     OW28396   5.835   6.053   2.147 -0.2846 -0.1284  0.5256
 9166SOL    HW128397   5.814   6.127   2.084  3.0271 -0.4133 -1.1570
 9166SOL    HW228398   5.777   6.060   2.228 -2.8983  1.8188 -1.3386
 9167SOL     OW28399   1.276   0.360   0.721 -0.5719  0.1979  0.1339
 9167SOL    HW128400   1.217   0.287   0.685 -0.4908  0.6365 -0.9290
 9167SOL    HW228401   1.365   0.356   0.675 -0.9276  1.6216 -0.7594
 9168SOL     OW28402   6.305   5.699   2.288  0.2526  0.3778 -0.2836
 9168SOL    HW128403   6.401   5.672   2.282  0.4189  0.9871 -0.3610
 9168SOL    HW228404   6.294   5.769   2.359  0.1549  1.5915 -1.4639
 9169SOL     OW28405   0.567   5.936   0.335  0.5267 -0.7982 -0.2601
 9169SOL    HW128406   0.515   5.969   0.414 -0.3806  0.4951 -1.3502
 9169SOL    HW228407   0.607   6.014   0.287  2.7049 -1.7077 -0.0108
 9170SOL     OW28408   6.656   2.557   0.250  0.2546  0.5893  0.1363
 9170SOL    HW128409   6.636   2.469   0.293  0.3680  0.5441  0.0972
 9170SOL    HW228410   6.571   2.599   0.219  0.1018  0.9267  0.9903
 9171SOL     OW28411   4.503   3.008   0.502  0.1234 -0.3026  0.5414
 9171SOL    HW128412   4.527   2.950   0.580 -0.8179 -0.3259  0.8250
 9171SOL    HW228413   4.455   2.954   0.433  0.9333 -0.2764 -0.0554
 9172SOL     OW28414   6.188   2.640   5.958  0.4288 -0.7853 -0.2098
 9172SOL    HW128415   6.132   2.710   5.915  0.9124  0.6583  1.3612
 9172SOL    HW228416   6.140   2.604   6.038  1.4434  0.0802  0.8334
 9173SOL     OW28417   0.976   1.149   2.299 -0.0563 -0.4957  0.0605
 9173SOL    HW128418   0.938   1.087   2.231  0.8583  1.8387 -2.8054
 9173SOL    HW228419   0.927   1.236   2.296  1.1479  0.2516  1.1301
 9174SOL     OW28420   0.468   4.820   0.430 -0.0747  0.1181  0.2272
 9174SOL    HW128421   0.442   4.901   0.377 -0.5947 -0.8774 -1.1014
 9174SOL    HW228422   0.567   4.816   0.439 -0.0171  0.6211 -0.1655
 9175SOL     OW28423   1.100   0.959   1.037  0.9122 -0.5575 -0.5050
 9175SOL    HW128424   1.182   0.902   1.032  0.9173 -0.5648 -0.3390
 9175SOL    HW228425   1.029   0.920   0.978  0.9168 -0.7358 -0.3940
 9176SOL     OW28426   1.218   2.544   2.083  0.6373 -0.0003  0.1651
 9176SOL    HW128427   1.187   2.562   2.176 -0.9009 -0.4038 -0.2485
 9176SOL    HW228428   1.212   2.446   2.063 -1.3044  0.3263 -1.1035
 9177SOL     OW28429   0.041   3.506   3.767  0.3860 -0.3976  0.1508
 9177SOL    HW128430  -0.012   3.492   3.851  0.8925  0.6906  0.6821
 9177SOL    HW228431   0.115   3.439   3.763 -0.9311 -1.8633 -0.5510
 9178SOL     OW28432   2.685   6.237   0.726 -0.7177  0.3672  0.4890
 9178SOL    HW128433   2.763   6.300   0.724 -0.3766 -0.0541 -0.7629
 9178SOL    HW228434   2.619   6.265   0.656 -0.3235 -0.9394 -0.4345
 9179SOL     OW28435   4.936   5.853   6.594  0.1341 -0.0881  0.2415
 9179SOL    HW128436   4.964   5.796   6.516  3.0071 -2.3082  2.6443
 9179SOL    HW228437   4.840   5.835   6.615 -0.4360 -0.1644 -2.1323
 9180SOL     OW28438   6.038   2.589   6.216  0.1034 -0.6081  0.1645
 9180SOL    HW128439   6.058   2.522   6.288 -0.3001 -0.2625  0.6073
 9180SOL    HW228440   6.053   2.682   6.252 -0.8611 -0.4007  0.0445
 9181SOL     OW28441   3.346   2.137   3.860  0.2439  0.5545 -0.6332
 9181SOL    HW128442   3.247   2.144   3.843  0.4077  2.4400 -0.9677
 9181SOL    HW228443   3.363   2.150   3.958  0.1266 -0.6026 -0.4361
 9182SOL     OW28444   2.079   2.157   3.295 -0.1460 -0.3815  0.3421
 9182SOL    HW128445   2.135   2.082   3.329 -0.5942 -0.7976  0.1568
 9182SOL    HW228446   2.132   2.210   3.229  0.9678  0.8060  2.0878
 9183SOL     OW28447   5.274   1.951   5.366 -0.8243  0.1607  0.4856
 9183SOL    HW128448   5.241   1.917   5.278 -1.4541  0.9769  0.3958
 9183SOL    HW228449   5.358   1.902   5.392 -0.9692 -0.5017 -0.2728
 9184SOL     OW28450   5.945   3.600   2.802  0.0486 -0.7561 -0.2119
 9184SOL    HW128451   5.896   3.686   2.813 -1.2643 -1.5104  0.1916
 9184SOL    HW228452   6.014   3.590   2.873  1.3056  0.6504 -1.2035
 9185SOL     OW28453   6.928   1.124   6.350  0.0766 -0.3028 -0.3136
 9185SOL    HW128454   6.847   1.097   6.298 -0.1986  1.2575 -0.7498
 9185SOL    HW228455   6.955   1.217   6.324  0.5664  0.1357  1.5875
 9186SOL     OW28456   4.649   5.730   1.898  0.2568  0.7104  0.2139
 9186SOL    HW128457   4.590   5.788   1.841  0.4027  0.3147 -0.3452
 9186SOL    HW228458   4.637   5.634   1.872 -0.5761  0.3929  1.6620
 9187SOL     OW28459   5.920   0.192   0.320  0.6223 -0.7564 -0.0724
 9187SOL    HW128460   5.962   0.103   0.302 -1.2157 -2.1408  1.9837
 9187SOL    HW228461   5.965   0.235   0.399 -0.1956 -1.1253  0.6109
 9188SOL     OW28462   6.999   0.151   3.162 -0.3542 -0.6661 -0.4214
 9188SOL    HW128463   6.916   0.196   3.195 -2.0623 -2.9379 -1.3394
 9188SOL    HW228464   7.038   0.094   3.234 -0.4125 -0.7121 -0.4267
 9189SOL     OW28465   3.278   0.382   1.639 -0.1335  0.0777  0.0372
 9189SOL    HW128466   3.262   0.444   1.716 -1.0487 -2.6558  2.1792
 9189SOL    HW228467   3.193   0.334   1.616  0.7668 -1.1470 -0.8554
 9190SOL     OW28468   5.089   3.351   0.097 -0.2074 -0.4250 -0.5209
 9190SOL    HW128469   5.173   3.399   0.072 -0.7247  1.0997  0.5084
 9190SOL    HW228470   5.013   3.387   0.043 -0.3385 -1.2265 -0.8744
 9191SOL     OW28471   6.632   0.376   5.071  0.6056 -0.0813  0.1318
 9191SOL    HW128472   6.570   0.453   5.057  0.3506 -0.2225  0.4483
 9191SOL    HW228473   6.717   0.391   5.022  0.2027 -0.0229 -0.5591
 9192SOL     OW28474   5.612   3.278   6.736 -0.4676 -0.0569 -0.1505
 9192SOL    HW128475   5.583   3.256   6.829  0.9904 -0.2424  0.2861
 9192SOL    HW228476   5.651   3.370   6.735  1.2266 -0.7504 -0.1605
 9193SOL     OW28477   4.083   3.400   2.638  0.2064  0.8232  0.0067
 9193SOL    HW128478   4.094   3.391   2.737 -2.3439  1.9272  0.4839
 9193SOL    HW228479   4.089   3.496   2.613 -0.2656  0.6701 -0.7210
 9194SOL     OW28480   2.479   4.444   3.923 -0.0003 -0.3791 -0.7906
 9194SOL    HW128481   2.404   4.378   3.930  0.2082 -0.6024 -0.6041
 9194SOL    HW228482   2.542   4.416   3.851 -0.8096  0.5507 -1.8926
 9195SOL     OW28483   6.101   3.777   3.370  0.1274 -0.6155  0.5363
 9195SOL    HW128484   6.156   3.708   3.323 -0.5164 -0.5012 -0.4068
 9195SOL    HW228485   6.155   3.816   3.445  1.6036 -0.0398 -0.7559
 9196SOL     OW28486   4.827   5.650   1.537 -0.2043  0.3323 -0.0124
 9196SOL    HW128487   4.753   5.677   1.475 -1.6382 -0.6353  1.2071
 9196SOL    HW228488   4.802   5.565   1.583  1.7539 -0.0891  0.3352
 9197SOL     OW28489   3.795   3.188   6.128 -0.7044 -0.5018 -0.1822
 9197SOL    HW128490   3.835   3.194   6.220 -0.6905 -0.3629 -0.1968
 9197SOL    HW228491   3.695   3.192   6.135 -0.6865  0.0724 -0.2152
 9198SOL     OW28492   6.627   2.429   6.216 -0.2415 -0.2129  0.1741
 9198SOL    HW128493   6.697   2.498   6.236 -0.7646  1.0395 -1.9551
 9198SOL    HW228494   6.549   2.443   6.277  0.4701 -0.2187  1.1020
 9199SOL     OW28495   2.870   4.322   6.515 -0.0565  0.0553 -0.4008
 9199SOL    HW128496   2.836   4.409   6.550  0.7317 -0.1143  0.8325
 9199SOL    HW228497   2.808   4.248   6.541  1.0296 -0.2088  1.5554
 9200SOL     OW28498   4.751   6.251   0.191 -0.0871 -0.0501  0.2474
 9200SOL    HW128499   4.836   6.200   0.181  0.2438  0.8610 -2.5377
 9200SOL    HW228500   4.771   6.342   0.228 -0.0840 -0.3634  1.0350
 9201SOL     OW28501   6.412   4.442   2.093  0.0665  0.2961 -0.5427
 9201SOL    HW128502   6.482   4.490   2.145 -0.3434  2.2600 -1.6886
 9201SOL    HW228503   6.455   4.374   2.033  0.7496 -0.1339  0.4173
 9202SOL     OW28504   2.854   5.054   3.725  0.1493  0.5409  0.0099
 9202SOL    HW128505   2.808   5.033   3.811  2.8647  1.0426  1.6922
 9202SOL    HW228506   2.893   4.970   3.687 -0.8297  0.3631 -0.6339
 9203SOL     OW28507   3.763   1.873   4.353 -0.4303 -0.4046 -0.2611
 9203SOL    HW128508   3.732   1.819   4.431  0.1752  1.8515  1.6451
 9203SOL    HW228509   3.806   1.957   4.385  0.9585  0.0594 -3.0262
 9204SOL     OW28510   4.055   4.834   3.450 -0.2207 -0.2481 -0.6496
 9204SOL    HW128511   4.101   4.833   3.539  0.9203  0.6114 -1.1972
 9204SOL    HW228512   4.035   4.929   3.424  1.1411 -0.3185 -2.1219
 9205SOL     OW28513   5.977   3.421   3.488 -0.5260  0.3412 -0.4108
 9205SOL    HW128514   5.943   3.484   3.558  0.2153  1.1542 -0.7535
 9205SOL    HW228515   5.987   3.330   3.528 -1.3654  0.4897  0.1725
 9206SOL     OW28516   1.585   6.887   4.781  0.7630 -0.3012  0.1517
 9206SOL    HW128517   1.494   6.887   4.823  1.5900 -1.5239  2.0914
 9206SOL    HW228518   1.625   6.979   4.789  0.1796 -0.0604  0.3962
 9207SOL     OW28519   5.005   5.994   5.956 -0.4317 -0.1479 -0.5537
 9207SOL    HW128520   5.069   6.061   5.920 -1.4323  1.1870  0.0760
 9207SOL    HW228521   4.919   5.999   5.906 -1.0500  0.1383  0.5012
 9208SOL     OW28522   5.366   5.100   3.146 -0.2728  0.0158 -0.4538
 9208SOL    HW128523   5.444   5.066   3.199 -1.4186 -2.8699 -0.4582
 9208SOL    HW228524   5.297   5.138   3.207 -0.9581 -1.9781  0.0799
 9209SOL     OW28525   3.552   0.637   2.733  0.6656  0.3120  0.2955
 9209SOL    HW128526   3.466   0.667   2.773 -0.1268 -2.3399  0.8140
 9209SOL    HW228527   3.548   0.646   2.633  0.3038  1.4013  0.4015
 9210SOL     OW28528   3.739   0.803   1.024  0.2988  0.7141 -0.5200
 9210SOL    HW128529   3.758   0.847   1.112  0.0980 -0.8225  0.3463
 9210SOL    HW228530   3.642   0.814   1.002 -0.2171 -0.9262  0.7093
 9211SOL     OW28531   5.170   0.956   6.319  0.2510 -0.2399 -0.0892
 9211SOL    HW128532   5.183   0.858   6.302  0.4062 -0.1450 -0.5184
 9211SOL    HW228533   5.135   0.969   6.412  1.6423 -0.6218  0.5127
 9212SOL     OW28534   3.889   5.882   4.829 -0.0449 -0.6737  0.4565
 9212SOL    HW128535   3.891   5.833   4.916 -0.6467 -0.3224  0.6740
 9212SOL    HW228536   3.823   5.838   4.768  1.1432 -1.5610 -0.2176
 9213SOL     OW28537   6.173   6.290   4.502  0.0049 -0.4399  0.5068
 9213SOL    HW128538   6.130   6.218   4.557  0.0570 -0.5830  0.3636
 9213SOL    HW228539   6.182   6.373   4.556  2.0829 -1.2187  1.4615
 9214SOL     OW28540   1.492   2.656   2.919 -0.4719 -0.4525 -0.2691
 9214SOL    HW128541   1.439   2.740   2.913 -1.4078 -0.6743  3.0874
 9214SOL    HW228542   1.457   2.590   2.852 -2.2242  0.5668 -0.4032
 9215SOL     OW28543   1.927   5.048   2.913  0.2334 -0.2383 -0.3979
 9215SOL    HW128544   1.975   5.133   2.932 -0.0223 -0.4022  1.1278
 9215SOL    HW228545   1.842   5.068   2.864 -1.5450  0.8472  2.8009
 9216SOL     OW28546   3.113   5.334   5.886 -0.7558 -0.3704  0.5380
 9216SOL    HW128547   3.089   5.395   5.810  0.3556  0.8491  1.1385
 9216SOL    HW228548   3.171   5.260   5.852  0.3012  0.5488  0.2973
 9217SOL     OW28549   5.080   2.296   0.828  0.1385  0.1183  0.0250
 9217SOL    HW128550   5.049   2.202   0.815  0.2893 -0.0345  0.7196
 9217SOL    HW228551   5.032   2.357   0.765 -0.6312 -0.2942  0.2091
 9218SOL     OW28552   5.150   6.629   5.536 -0.5225  0.1308 -0.1701
 9218SOL    HW128553   5.122   6.706   5.595 -1.3017 -0.4818  0.2814
 9218SOL    HW228554   5.250   6.629   5.527 -0.2753 -0.3738  2.0356
 9219SOL     OW28555   3.199   2.834   5.717  0.2021 -0.0076  0.7247
 9219SOL    HW128556   3.105   2.823   5.687  0.8275 -1.4664 -0.7961
 9219SOL    HW228557   3.248   2.892   5.652  1.2922 -2.3471 -0.6729
 9220SOL     OW28558   1.216   6.832   4.458  0.2213  0.2369  0.4329
 9220SOL    HW128559   1.146   6.882   4.407 -0.3212 -1.0196 -0.0716
 9220SOL    HW228560   1.177   6.793   4.541  0.1227 -1.0657 -0.2038
 9221SOL     OW28561   3.374   6.424   6.510  0.1984 -0.6287  0.0742
 9221SOL    HW128562   3.441   6.393   6.442 -0.7023 -2.8195  0.1097
 9221SOL    HW228563   3.318   6.347   6.539  0.4184  0.2517  3.2165
 9222SOL     OW28564   2.141   3.010   3.424 -0.2558  0.5399 -1.0237
 9222SOL    HW128565   2.214   2.994   3.358 -0.4212  0.3258 -1.1543
 9222SOL    HW228566   2.102   3.101   3.409  0.7607  1.1234 -0.2057
 9223SOL     OW28567   0.215   4.740   5.780 -0.3013  0.1373  0.3096
 9223SOL    HW128568   0.210   4.665   5.713 -1.8349  0.7354 -0.2851
 9223SOL    HW228569   0.126   4.751   5.823  0.1767  1.0124  1.0953
 9224SOL     OW28570   3.034   6.147   3.044  0.3371  0.2872  0.6535
 9224SOL    HW128571   3.076   6.188   3.125  1.0798 -0.4081  0.6362
 9224SOL    HW228572   3.095   6.157   2.966 -0.5428  1.2927  0.0689
 9225SOL     OW28573   4.003   0.501   6.422  0.3401  0.4288  0.4314
 9225SOL    HW128574   4.032   0.596   6.421  1.2300  0.2011  1.8765
 9225SOL    HW228575   3.976   0.473   6.330  0.2957  1.9959 -0.0496
 9226SOL     OW28576   3.429   5.612   0.235 -0.3253 -0.0878 -0.1785
 9226SOL    HW128577   3.336   5.610   0.197 -0.1370  0.3483 -0.6817
 9226SOL    HW228578   3.477   5.528   0.209 -0.1300  0.2981 -1.1081
 9227SOL     OW28579   3.212   4.065   1.809 -0.5300  0.2066 -0.0686
 9227SOL    HW128580   3.122   4.105   1.793  0.3158  2.5258  0.4599
 9227SOL    HW228581   3.231   4.063   1.908 -0.4701 -1.4413 -0.0876
 9228SOL     OW28582   2.040   4.214   0.005  0.1857 -0.1932  0.3489
 9228SOL    HW128583   2.001   4.230  -0.085  0.7789 -1.8398 -0.2405
 9228SOL    HW228584   2.011   4.287   0.068  2.0520  2.6171 -1.8114
 9229SOL     OW28585   6.185   5.141   5.025 -0.2516 -0.3126 -0.7732
 9229SOL    HW128586   6.135   5.055   5.036  0.1253 -0.4166  0.2491
 9229SOL    HW228587   6.138   5.213   5.076 -0.0973 -0.1093 -0.9179
 9230SOL     OW28588   5.368   3.128   5.160 -0.0047 -0.3569 -0.2147
 9230SOL    HW128589   5.326   3.218   5.153 -0.6888 -0.7092 -0.7980
 9230SOL    HW228590   5.340   3.072   5.082  2.8066 -0.1091 -1.5274
 9231SOL     OW28591   6.654   4.436   5.501 -0.4349  0.0662 -0.5186
 9231SOL    HW128592   6.680   4.525   5.463  1.1833 -0.4081 -0.6047
 9231SOL    HW228593   6.688   4.364   5.442 -1.3753 -0.6256 -0.2301
 9232SOL     OW28594   1.717   5.620   5.431 -0.9923 -0.0425 -0.1748
 9232SOL    HW128595   1.729   5.557   5.508  0.5492 -0.6723 -0.8789
 9232SOL    HW228596   1.807   5.647   5.397 -1.6455  1.2008 -0.9899
 9233SOL     OW28597   6.337   7.007   6.391 -0.2200 -0.6493 -0.0232
 9233SOL    HW128598   6.332   7.067   6.312 -2.6603  0.8868  1.1865
 9233SOL    HW228599   6.245   6.978   6.417  0.5531 -1.4741  1.9842
 9234SOL     OW28600   2.919   5.254   2.441 -0.6922  0.3689 -0.0187
 9234SOL    HW128601   2.936   5.233   2.537  0.1423  0.4741 -0.1381
 9234SOL    HW228602   2.953   5.345   2.420 -1.2756  0.5248 -0.3158
 9235SOL     OW28603   1.805   4.858   4.499  0.9249  0.4036 -0.2456
 9235SOL    HW128604   1.822   4.762   4.474  0.4833  0.6067 -1.3781
 9235SOL    HW228605   1.843   4.918   4.429 -0.0907  1.0065 -0.2984
 9236SOL     OW28606   0.111   2.373   5.490 -0.3681 -0.3658  0.0864
 9236SOL    HW128607   0.018   2.409   5.498  0.1386  1.0320  0.0627
 9236SOL    HW228608   0.148   2.396   5.400  0.8551  1.3280  0.9634
 9237SOL     OW28609   5.756   4.669   1.444 -0.4574  0.0688 -0.0996
 9237SOL    HW128610   5.796   4.591   1.396  0.8129  0.2210  0.6419
 9237SOL    HW228611   5.829   4.734   1.467 -1.2164  0.5968  0.9025
 9238SOL     OW28612   0.952   4.017   4.369 -0.2350  0.0485  0.0965
 9238SOL    HW128613   1.050   4.006   4.388 -0.0103  0.6590 -0.6654
 9238SOL    HW228614   0.910   3.927   4.357  0.6204 -0.1923 -1.3921
 9239SOL     OW28615   2.238   4.488   0.363 -0.2479 -0.6406  0.1208
 9239SOL    HW128616   2.211   4.583   0.379  0.3118 -0.7174  1.7052
 9239SOL    HW228617   2.185   4.450   0.287  0.4936  1.3442 -1.4830
 9240SOL     OW28618   4.456   2.425   2.222  0.1867 -0.0151 -0.1219
 9240SOL    HW128619   4.394   2.404   2.146  0.1527 -1.3396  0.2471
 9240SOL    HW228620   4.413   2.398   2.308  1.5467 -1.6653  0.0796
 9241SOL     OW28621   0.130   0.187   6.951 -0.0993 -0.7754 -0.3634
 9241SOL    HW128622   0.034   0.179   6.980  0.0121  0.8047  0.5212
 9241SOL    HW228623   0.161   0.281   6.963  1.4999 -1.2053 -0.8980
 9242SOL     OW28624   0.985   1.646   2.326 -0.4347  0.5475  0.0180
 9242SOL    HW128625   1.015   1.704   2.402 -0.2598  0.3856  0.0733
 9242SOL    HW228626   1.049   1.570   2.315 -1.0545 -0.0353  0.3983
 9243SOL     OW28627   0.191   0.669   3.361 -0.0816 -0.4819 -0.4641
 9243SOL    HW128628   0.275   0.699   3.315  0.2539 -0.5260  0.1071
 9243SOL    HW228629   0.154   0.589   3.314 -0.2071 -0.0293 -1.1528
 9244SOL     OW28630   5.564   1.116   3.824  0.2107 -0.3352  0.0435
 9244SOL    HW128631   5.636   1.048   3.838  0.6679  0.1489  0.1243
 9244SOL    HW228632   5.561   1.178   3.902  1.4798  1.2232 -1.0567
 9245SOL     OW28633   0.469   5.117   2.763  0.1574 -0.2775  0.1512
 9245SOL    HW128634   0.477   5.017   2.756  1.5421 -0.1969  0.2442
 9245SOL    HW228635   0.540   5.159   2.706 -1.3340  0.6872 -1.0591
 9246SOL     OW28636   0.430   1.106   5.107 -0.2190 -0.1121  0.4604
 9246SOL    HW128637   0.417   1.127   5.010  2.5496 -0.6176 -0.1189
 9246SOL    HW228638   0.344   1.118   5.156 -1.3639  1.5687 -1.7873
 9247SOL     OW28639   2.399   5.744   2.907 -0.5807  0.3356 -0.4893
 9247SOL    HW128640   2.428   5.670   2.967 -0.3610  0.4531 -0.4466
 9247SOL    HW228641   2.480   5.788   2.868 -0.7076  0.6239 -0.4270
 9248SOL     OW28642   1.684   0.135   6.123 -0.0264 -0.8681 -0.2593
 9248SOL    HW128643   1.650   0.162   6.033  1.7835 -1.0511 -1.0369
 9248SOL    HW228644   1.762   0.192   6.148 -0.6913 -0.6122  1.3612
 9249SOL     OW28645   3.156   6.103   2.812  0.2530  0.0769  0.2677
 9249SOL    HW128646   3.093   6.067   2.742 -0.5743 -2.1608  2.0449
 9249SOL    HW228647   3.225   6.034   2.834  1.5978  1.4199  0.4358
 9250SOL     OW28648   0.507   2.340   4.144 -0.5279  0.4529 -0.2730
 9250SOL    HW128649   0.409   2.357   4.150 -0.2926  2.2567 -0.9230
 9250SOL    HW228650   0.556   2.406   4.201  0.2714 -1.6689  1.6523
 9251SOL     OW28651   2.920   1.671   1.074  0.1399 -0.3112  0.0644
 9251SOL    HW128652   2.912   1.650   0.976 -0.1928  1.2799 -0.2760
 9251SOL    HW228653   2.985   1.746   1.086 -0.7150  0.3001  0.9555
 9252SOL     OW28654   4.593   7.002   4.366  0.6237 -0.0213 -0.5414
 9252SOL    HW128655   4.518   6.940   4.344  1.7377 -0.5434 -3.4005
 9252SOL    HW228656   4.625   6.985   4.459 -1.3394 -1.3010 -0.0457
 9253SOL     OW28657   1.268   1.081   5.332 -0.3162  0.4511  0.4164
 9253SOL    HW128658   1.207   1.135   5.390 -1.4355 -0.7170  0.3765
 9253SOL    HW228659   1.217   1.043   5.255 -0.3216 -2.8768  1.8657
 9254SOL     OW28660   6.798   6.865   2.792  0.5922  0.0578  0.1976
 9254SOL    HW128661   6.812   6.894   2.886 -1.9774  0.1900  0.6081
 9254SOL    HW228662   6.703   6.834   2.780  0.4686  1.2343 -2.6268
 9255SOL     OW28663   0.767   4.318   1.343  0.1264  0.6007  0.0074
 9255SOL    HW128664   0.673   4.336   1.315 -0.0195 -0.7435 -0.4437
 9255SOL    HW228665   0.804   4.398   1.390 -1.7773  0.5911  1.6412
 9256SOL     OW28666   1.067   1.609   1.920  0.3626  0.5925  0.0605
 9256SOL    HW128667   0.996   1.591   1.851 -0.0162  1.0600  0.3294
 9256SOL    HW228668   1.156   1.587   1.881  0.1001  0.2623 -0.3744
 9257SOL     OW28669   0.176   5.384   4.124  0.4769 -0.2213  0.2861
 9257SOL    HW128670   0.188   5.287   4.145  0.3201 -0.6962 -1.6283
 9257SOL    HW228671   0.120   5.427   4.195  1.0011 -1.3815  1.4484
 9258SOL     OW28672   3.993   3.553   0.691  0.1161  0.4129  0.0880
 9258SOL    HW128673   3.912   3.542   0.633  0.1277  3.6560 -0.7425
 9258SOL    HW228674   4.076   3.540   0.637  0.2327 -1.9895  0.7326
 9259SOL     OW28675   1.516   0.786   6.339 -0.3032  0.3311  0.4153
 9259SOL    HW128676   1.544   0.882   6.328  2.5690 -0.5164 -0.7465
 9259SOL    HW228677   1.443   0.765   6.274  0.0890  1.3712 -0.4005
 9260SOL     OW28678   6.210   2.385   6.392 -0.1172  0.0554  0.2870
 9260SOL    HW128679   6.218   2.302   6.448  0.0590  2.0344  3.4071
 9260SOL    HW228680   6.289   2.444   6.408 -0.9992  1.5450 -0.6550
 9261SOL     OW28681   4.186   2.479   1.358 -1.1565  0.1522  0.0161
 9261SOL    HW128682   4.226   2.450   1.445 -2.2588  1.2391  0.9211
 9261SOL    HW228683   4.256   2.523   1.301 -0.1536 -1.5899 -0.1662
 9262SOL     OW28684   6.669   6.653   3.235 -0.6240  0.2455  0.0560
 9262SOL    HW128685   6.599   6.655   3.306  1.0629  1.1240  1.8131
 9262SOL    HW228686   6.737   6.583   3.258  2.4490  3.4914  2.0680
 9263SOL     OW28687   2.117   4.691   2.029  0.1023  0.4876  0.2200
 9263SOL    HW128688   2.062   4.646   1.958  0.4916 -0.2019  0.3396
 9263SOL    HW228689   2.123   4.631   2.109  1.0604  0.5247  0.1926
 9264SOL     OW28690   5.430   4.083   0.817  0.2801  0.1183 -0.2317
 9264SOL    HW128691   5.344   4.133   0.814 -0.1654 -0.6322 -0.2757
 9264SOL    HW228692   5.495   4.125   0.753 -0.1624  0.4859 -0.4463
 9265SOL     OW28693   4.740   0.490   5.151 -0.0244 -0.0012 -0.3820
 9265SOL    HW128694   4.685   0.448   5.223 -0.6425  0.1817 -0.7398
 9265SOL    HW228695   4.815   0.541   5.193  0.3084 -0.8475  0.0827
 9266SOL     OW28696   4.834   4.313   1.625 -0.2022 -0.4815 -0.1341
 9266SOL    HW128697   4.853   4.272   1.536 -0.9616  3.5218 -2.3984
 9266SOL    HW228698   4.751   4.272   1.663 -0.1805 -1.9221 -1.5122
 9267SOL     OW28699   1.587   0.149   4.778 -0.4313 -0.1007 -0.1790
 9267SOL    HW128700   1.675   0.150   4.731 -0.6848 -3.5356 -0.9575
 9267SOL    HW228701   1.576   0.234   4.830  3.3219  0.4477 -0.0324
 9268SOL     OW28702   1.455   0.750   0.698  0.3089  0.6557  0.0906
 9268SOL    HW128703   1.386   0.713   0.759  0.5003 -1.6006 -0.9338
 9268SOL    HW228704   1.545   0.747   0.743  0.1853  0.7025  0.3396
 9269SOL     OW28705   2.898   4.894   6.288  0.5152 -0.1418  0.1185
 9269SOL    HW128706   2.983   4.947   6.284  0.3242  0.1255 -0.4710
 9269SOL    HW228707   2.866   4.875   6.196 -0.2083 -0.0013  0.3320
 9270SOL     OW28708   4.019   1.937   0.031  0.0166  0.6011 -0.2810
 9270SOL    HW128709   3.967   1.852   0.029 -1.2590  1.3022  1.0455
 9270SOL    HW228710   3.975   2.005  -0.028 -2.8443  2.3372  3.4739
 9271SOL     OW28711   2.633   0.661   0.430  0.7998 -0.0016  0.1709
 9271SOL    HW128712   2.548   0.619   0.461  1.3921 -2.8288 -1.6704
 9271SOL    HW228713   2.620   0.759   0.420 -2.3264 -0.3749 -0.3366
 9272SOL     OW28714   6.583   0.725   6.780 -0.2128  0.0456 -0.2197
 9272SOL    HW128715   6.528   0.645   6.805 -0.5583  0.3339 -0.0316
 9272SOL    HW228716   6.668   0.695   6.736  0.6659 -0.5314  1.7337
 9273SOL     OW28717   4.709   6.102   3.010  0.4657 -0.2006  0.0552
 9273SOL    HW128718   4.682   6.007   2.994  0.0661 -0.1141  0.1992
 9273SOL    HW228719   4.672   6.133   3.098  0.0040  0.3032 -0.3081
 9274SOL     OW28720   6.429   5.301   6.110 -0.7326 -0.1516  0.8600
 9274SOL    HW128721   6.359   5.230   6.119 -0.9773  0.3108  3.2739
 9274SOL    HW228722   6.436   5.330   6.014 -1.4781 -2.5321  0.0140
 9275SOL     OW28723   6.176   6.819   0.090 -0.0075 -0.0435 -0.3348
 9275SOL    HW128724   6.137   6.832  -0.001 -1.4419 -0.9702  0.1237
 9275SOL    HW228725   6.143   6.733   0.129 -0.2069  0.8046  1.4570
 9276SOL     OW28726   4.948   2.398   1.255  0.1347 -0.0800  0.3793
 9276SOL    HW128727   4.986   2.449   1.178 -1.1352  0.5532  0.1348
 9276SOL    HW228728   4.942   2.301   1.231  0.9047 -0.0780  0.1626
 9277SOL     OW28729   1.782   4.543   2.962 -0.1096  0.3514  0.1606
 9277SOL    HW128730   1.699   4.577   3.008  0.4476  1.5529  0.3116
 9277SOL    HW228731   1.855   4.611   2.970  1.0134 -0.8346  0.3165
 9278SOL     OW28732   0.570   1.051   2.596  0.1701 -0.5620 -0.6315
 9278SOL    HW128733   0.670   1.058   2.601  0.1087 -0.0810  0.3070
 9278SOL    HW228734   0.532   1.058   2.689 -0.8585  1.4781 -1.1530
 9279SOL     OW28735   5.635   4.551   2.763 -0.0215  0.0280 -0.1118
 9279SOL    HW128736   5.574   4.559   2.684 -0.8967 -2.1615  0.2680
 9279SOL    HW228737   5.729   4.544   2.731 -0.1127  1.4228 -0.8046
 9280SOL     OW28738   2.859   0.507   3.874 -0.5768 -0.4113  0.3090
 9280SOL    HW128739   2.916   0.587   3.859  1.1478 -1.6142  0.1396
 9280SOL    HW228740   2.849   0.491   3.972 -1.0041  0.0574  0.3430
 9281SOL     OW28741   4.256   4.132   0.077  0.2745 -0.2454  0.4140
 9281SOL    HW128742   4.234   4.036   0.066 -1.6759  0.3168 -1.3638
 9281SOL    HW228743   4.332   4.156   0.016  0.6769 -0.6211  0.7639
 9282SOL     OW28744   3.821   0.476   3.444 -0.1236 -0.3155  0.2759
 9282SOL    HW128745   3.779   0.466   3.354  0.2663 -0.6712  0.1331
 9282SOL    HW228746   3.809   0.570   3.476 -0.8785 -0.3614  0.1642
 9283SOL     OW28747   5.212   6.855   6.310 -0.2073 -0.0092 -0.3654
 9283SOL    HW128748   5.231   6.846   6.408 -3.5195  1.5119  0.5268
 9283SOL    HW228749   5.209   6.952   6.285 -0.4635 -0.3523 -1.7494
 9284SOL     OW28750   4.737   3.757   5.439  0.6442  0.9623 -0.2537
 9284SOL    HW128751   4.813   3.716   5.388 -0.3811 -0.1203 -0.9497
 9284SOL    HW228752   4.705   3.839   5.392  0.2516  0.4424 -0.8965
 9285SOL     OW28753   0.044   3.256   2.488 -0.5170 -0.1612 -0.0174
 9285SOL    HW128754   0.117   3.194   2.461 -0.7153 -0.5869  0.3886
 9285SOL    HW228755   0.053   3.343   2.440  1.3888  0.5145  1.4128
 9286SOL     OW28756   5.833   6.825   1.388 -0.4025  0.5969 -0.1830
 9286SOL    HW128757   5.766   6.871   1.446 -0.5004  0.9536 -0.5745
 9286SOL    HW228758   5.850   6.733   1.423  0.3088  1.1720  1.0015
 9287SOL     OW28759   4.527   5.014   0.589 -0.2310  0.5757  0.0635
 9287SOL    HW128760   4.438   4.974   0.611  0.1626 -1.0244 -1.0795
 9287SOL    HW228761   4.574   4.957   0.521  0.7780  2.5256 -0.9765
 9288SOL     OW28762   3.611   1.782   2.967 -0.0043  0.5163 -0.2442
 9288SOL    HW128763   3.586   1.787   2.870  0.4028 -0.2017 -0.3961
 9288SOL    HW228764   3.558   1.849   3.019  0.6127  1.7341 -1.1350
 9289SOL     OW28765   4.950   6.771   0.009  0.1948 -0.4994  0.1004
 9289SOL    HW128766   5.006   6.778  -0.073 -0.0495 -0.7352 -0.0883
 9289SOL    HW228767   4.872   6.710  -0.008  0.8369 -1.5761  0.9015
 9290SOL     OW28768   3.939   1.559   4.673  0.1438 -0.1440 -0.1230
 9290SOL    HW128769   3.900   1.642   4.714 -1.3056 -1.0030  0.3338
 9290SOL    HW228770   4.031   1.577   4.641 -0.1772  1.6662 -0.1021
 9291SOL     OW28771   1.455   3.287   5.730  0.2414 -1.0784 -0.3888
 9291SOL    HW128772   1.402   3.362   5.691  0.0351 -0.0045  1.7976
 9291SOL    HW228773   1.399   3.204   5.732 -0.9139 -0.3123  0.5822
 9292SOL     OW28774   0.560   1.190   6.937 -0.3131 -0.1764 -0.1449
 9292SOL    HW128775   0.659   1.198   6.931 -0.1762 -1.1796  0.6167
 9292SOL    HW228776   0.536   1.106   6.985 -1.5391 -0.0403 -0.4872
 9293SOL     OW28777   3.726   2.348   6.229 -0.5677 -0.4292  0.1872
 9293SOL    HW128778   3.795   2.419   6.245 -1.0504 -0.2052  1.4567
 9293SOL    HW228779   3.760   2.261   6.264 -1.1053 -0.2145  1.2879
 9294SOL     OW28780   6.002   5.842   5.304  0.0590  0.7525 -0.0401
 9294SOL    HW128781   6.039   5.789   5.381 -0.9592  0.6190  0.3740
 9294SOL    HW228782   5.971   5.931   5.337  1.8190  1.6745 -0.7488
 9295SOL     OW28783   0.835   0.774   6.522 -0.0362 -0.8825  0.0112
 9295SOL    HW128784   0.788   0.838   6.583  0.7216  1.5815 -1.8435
 9295SOL    HW228785   0.923   0.748   6.562  0.1563  0.1632  0.2969
 9296SOL     OW28786   5.342   2.719   1.484  0.1384  0.0040 -0.3305
 9296SOL    HW128787   5.439   2.698   1.482  0.4310  1.2496 -2.2634
 9296SOL    HW228788   5.319   2.763   1.571  1.0343 -1.2672  0.5862
 9297SOL     OW28789   0.227   0.259   4.519 -0.1703 -0.7774 -0.4179
 9297SOL    HW128790   0.127   0.260   4.524 -0.2278 -1.9274 -1.2043
 9297SOL    HW228791   0.262   0.176   4.562  0.4651 -0.3829 -0.1497
 9298SOL     OW28792   3.492   6.893   6.567  0.1267  0.3566 -0.0158
 9298SOL    HW128793   3.578   6.879   6.617 -0.4576 -0.5669  0.7410
 9298SOL    HW228794   3.418   6.913   6.631 -0.7194 -1.2317 -0.4529
 9299SOL     OW28795   1.819   3.046   5.684  0.7528  0.1863  0.0203
 9299SOL    HW128796   1.759   2.978   5.642  0.6226  0.3380 -0.0402
 9299SOL    HW228797   1.912   3.035   5.647  0.6146  0.3932 -0.3972
 9300SOL     OW28798   1.610   4.475   6.678  0.2514 -0.2526  0.5651
 9300SOL    HW128799   1.522   4.430   6.658  0.5556 -0.6185  0.0125
 9300SOL    HW228800   1.640   4.526   6.597  0.9125 -0.7400  0.4978
 9301SOL     OW28801   6.982   4.063   4.981 -0.3194  0.6602 -0.4211
 9301SOL    HW128802   7.044   4.030   5.052  0.8030 -1.2624 -2.1605
 9301SOL    HW228803   6.977   4.162   4.984  1.4157  0.7557  0.9383
 9302SOL     OW28804   2.251   2.991   5.328  0.1990 -0.5084 -0.6658
 9302SOL    HW128805   2.331   3.004   5.270  1.0362  1.1852  0.7742
 9302SOL    HW228806   2.174   3.043   5.290 -0.5626 -2.8051 -2.5148
 9303SOL     OW28807   2.793   3.378   0.373  0.0735  0.4242 -0.5658
 9303SOL    HW128808   2.697   3.403   0.360 -0.7970 -0.8891  2.4264
 9303SOL    HW228809   2.851   3.447   0.330 -2.1781  2.2022 -0.9874
 9304SOL     OW28810   6.489   3.286   2.848  0.4401  0.6099  0.5034
 9304SOL    HW128811   6.540   3.292   2.762  1.1852  0.2894  0.9109
 9304SOL    HW228812   6.528   3.214   2.904  0.3659  1.2414  1.3816
 9305SOL     OW28813   3.397   1.912   0.221 -0.1396  0.0162 -0.1818
 9305SOL    HW128814   3.305   1.876   0.202 -0.6249  0.7215  0.7565
 9305SOL    HW228815   3.389   2.003   0.262  1.0116  0.4228 -0.8113
 9306SOL     OW28816   0.044   6.972   4.084  0.8816 -0.0269  0.3046
 9306SOL    HW128817   0.047   6.874   4.061  0.3026  0.5216 -2.4225
 9306SOL    HW228818   0.135   7.011   4.072  0.4521  0.4100 -2.2389
 9307SOL     OW28819   2.631   2.761   1.076 -0.3428 -0.7560 -0.8453
 9307SOL    HW128820   2.568   2.836   1.058  0.2186 -0.3692 -1.2157
 9307SOL    HW228821   2.604   2.681   1.022 -1.7716 -1.2924  0.5891
 9308SOL     OW28822   3.376   3.004   0.887  0.2989 -0.0530 -0.6336
 9308SOL    HW128823   3.416   3.079   0.940  0.7859 -0.4422 -0.4415
 9308SOL    HW228824   3.450   2.950   0.846 -0.0369 -0.6799 -0.4161
 9309SOL     OW28825   5.800   5.144   6.425 -0.3675  0.0010  0.0475
 9309SOL    HW128826   5.769   5.196   6.504 -1.2516  2.7319 -1.9457
 9309SOL    HW228827   5.892   5.175   6.399 -0.4560 -0.2108 -0.5301
 9310SOL     OW28828   4.267   6.912   5.612  0.3278  0.0696 -0.0738
 9310SOL    HW128829   4.221   6.828   5.640 -0.3441  0.5804  0.3807
 9310SOL    HW228830   4.276   6.913   5.512 -0.0464 -0.3389 -0.1145
 9311SOL     OW28831   4.421   5.956   2.124 -0.1629 -0.0209  0.2888
 9311SOL    HW128832   4.461   6.007   2.048 -0.3609 -0.9348 -0.4374
 9311SOL    HW228833   4.458   5.864   2.127 -1.9512 -0.8032 -0.2271
 9312SOL     OW28834   6.128   3.520   2.012  0.2243 -0.4056 -0.3677
 9312SOL    HW128835   6.183   3.552   2.089  0.1365 -0.9957 -0.0508
 9312SOL    HW228836   6.140   3.421   2.001  0.6601 -0.2500 -1.4623
 9313SOL     OW28837   2.247   5.359   1.951  0.3573  0.0356 -0.2285
 9313SOL    HW128838   2.310   5.312   1.889  1.9544  2.2928 -0.4375
 9313SOL    HW228839   2.294   5.377   2.038 -0.3695  0.7940  0.0145
 9314SOL     OW28840   6.348   1.753   1.244 -0.4134 -0.2521 -0.2520
 9314SOL    HW128841   6.358   1.802   1.331 -0.8178 -1.1797  0.3311
 9314SOL    HW228842   6.275   1.795   1.191 -1.9905 -1.2381  1.0106
 9315SOL     OW28843   5.234   1.021   4.488 -0.0352 -0.0302 -0.3183
 9315SOL    HW128844   5.291   1.088   4.440 -0.5814  0.3794 -0.4067
 9315SOL    HW228845   5.186   0.965   4.421 -0.8598  0.5949 -0.2611
 9316SOL     OW28846   3.418   2.152   5.046 -0.7326  0.1085 -0.3277
 9316SOL    HW128847   3.331   2.198   5.027 -0.5738  1.3481  1.6395
 9316SOL    HW228848   3.450   2.178   5.137  0.7902 -1.7845 -0.2588
 9317SOL     OW28849   2.283   5.032   3.552  0.3227 -0.0271 -0.2624
 9317SOL    HW128850   2.210   4.999   3.611 -0.4301  0.1445 -1.0901
 9317SOL    HW228851   2.359   5.064   3.609 -0.8287  1.1713  0.6578
 9318SOL     OW28852   0.645   6.677   0.208 -0.1152  0.2468  0.0939
 9318SOL    HW128853   0.581   6.608   0.238  1.6711 -0.7284  1.9022
 9318SOL    HW228854   0.735   6.636   0.194  0.6597  1.9398 -0.2516
 9319SOL     OW28855   2.847   5.426   0.607  0.3222  0.3377  0.8968
 9319SOL    HW128856   2.820   5.363   0.534 -1.4051  0.2405  1.5898
 9319SOL    HW228857   2.836   5.520   0.576  1.0913  0.3128  0.5166
 9320SOL     OW28858   5.668   6.901   5.527 -0.4812  0.3355  0.1549
 9320SOL    HW128859   5.636   6.826   5.584  0.1248  0.4850  0.7099
 9320SOL    HW228860   5.669   6.985   5.581  1.3030  0.2483  0.3378
 9321SOL     OW28861   6.889   3.726   5.959  0.1062  0.3443  0.8755
 9321SOL    HW128862   6.823   3.730   6.034  0.0929  0.0253  0.8818
 9321SOL    HW228863   6.977   3.759   5.991  0.0406  0.4320  0.9673
 9322SOL     OW28864   5.663   4.812   5.366  0.2982  0.5595 -0.5634
 9322SOL    HW128865   5.564   4.817   5.383  0.4970  1.9757  0.3189
 9322SOL    HW228866   5.697   4.722   5.395 -0.7673 -0.0510 -1.1440
 9323SOL     OW28867   0.839   3.398   4.109  0.3759  0.5227 -0.0752
 9323SOL    HW128868   0.920   3.370   4.160  1.2383 -0.2506 -1.7744
 9323SOL    HW228869   0.854   3.383   4.011 -1.5218  1.1359 -0.5142
 9324SOL     OW28870   2.415   4.684   6.941  0.1250 -0.1547  0.2750
 9324SOL    HW128871   2.399   4.722   6.850  1.8273 -1.5392 -0.6594
 9324SOL    HW228872   2.400   4.755   7.010 -1.6351  0.8035 -1.0214
 9325SOL     OW28873   3.013   6.149   2.388 -0.1394  0.0044  0.2836
 9325SOL    HW128874   3.103   6.113   2.363  0.8395  3.4101 -1.7436
 9325SOL    HW228875   2.956   6.156   2.307 -0.9688  1.0563  0.9319
 9326SOL     OW28876   4.155   4.800   6.889 -0.6110  0.7013  0.2134
 9326SOL    HW128877   4.149   4.731   6.960  1.0080  0.0494 -0.2367
 9326SOL    HW228878   4.125   4.761   6.801 -3.3266  1.7153  0.5965
 9327SOL     OW28879   2.958   1.262   2.887  0.3521 -0.4421  0.9444
 9327SOL    HW128880   3.026   1.325   2.849  1.7749 -1.9876  0.8246
 9327SOL    HW228881   2.880   1.255   2.825  0.0709  1.2919  1.0411
 9328SOL     OW28882   1.424   5.940   4.687 -0.9517 -0.4126  0.3499
 9328SOL    HW128883   1.351   5.909   4.626 -0.4853 -1.5099  0.3142
 9328SOL    HW228884   1.484   6.002   4.638  0.3603 -2.5357 -0.8953
 9329SOL     OW28885   0.955   6.379   6.368  0.1706 -0.3020 -0.4803
 9329SOL    HW128886   0.972   6.460   6.312 -3.9687  0.0774 -1.4524
 9329SOL    HW228887   0.869   6.388   6.416  1.3510 -2.6407  2.4143
 9330SOL     OW28888   4.038   0.329   5.348 -0.3574  0.0887 -0.5070
 9330SOL    HW128889   4.093   0.320   5.431 -0.0261  2.0928 -0.4568
 9330SOL    HW228890   3.950   0.283   5.361 -0.8619  1.5062  1.4830
 9331SOL     OW28891   0.821   3.649   6.592  0.5141  0.2499 -0.1298
 9331SOL    HW128892   0.788   3.735   6.631  0.0388  1.2173 -2.5051
 9331SOL    HW228893   0.754   3.577   6.606  0.9531  0.1751  1.9597
 9332SOL     OW28894   6.657   4.292   2.552  0.6810 -0.5345  0.1386
 9332SOL    HW128895   6.681   4.319   2.458 -0.3209 -0.4992 -0.1199
 9332SOL    HW228896   6.703   4.206   2.575  1.3622 -0.2669 -0.1849
 9333SOL     OW28897   5.018   6.128   0.221  0.9045  0.1881 -0.3893
 9333SOL    HW128898   4.984   6.127   0.315  0.2611  2.5921 -0.5332
 9333SOL    HW228899   5.117   6.139   0.221  0.8046  1.2785  0.0545
 9334SOL     OW28900   6.075   0.253   4.760  0.3494 -0.1148 -0.2155
 9334SOL    HW128901   6.149   0.215   4.706 -0.0261 -0.3843 -0.5435
 9334SOL    HW228902   5.987   0.218   4.727 -0.0067  1.0001 -0.5031
 9335SOL     OW28903   3.245   1.000   2.506 -0.0358  0.5923 -0.4143
 9335SOL    HW128904   3.314   1.067   2.532  0.0234  1.0066 -1.5813
 9335SOL    HW228905   3.241   0.993   2.406 -0.5052 -0.6620 -0.3298
 9336SOL     OW28906   5.865   2.303   4.973 -0.9968  0.7331 -0.0161
 9336SOL    HW128907   5.872   2.226   5.036  0.3275  0.8473  0.0097
 9336SOL    HW228908   5.793   2.365   5.004 -2.4406 -0.7299 -0.3375
 9337SOL     OW28909   4.238   0.575   5.896  0.1599 -0.1745  0.3907
 9337SOL    HW128910   4.194   0.527   5.972  0.1897 -0.4580  0.2294
 9337SOL    HW228911   4.169   0.595   5.826 -0.2414  1.6287  1.2420
 9338SOL     OW28912   5.773   5.041   6.834 -0.0042  0.2706 -0.4958
 9338SOL    HW128913   5.755   5.113   6.767 -1.0961  0.8974  0.4389
 9338SOL    HW228914   5.710   4.965   6.817  2.3015 -1.3282 -2.6060
 9339SOL     OW28915   6.714   4.757   6.733 -0.1651  0.2053  0.0270
 9339SOL    HW128916   6.691   4.829   6.798 -1.8951 -0.9881  0.7820
 9339SOL    HW228917   6.812   4.735   6.741 -0.0132  1.1869  1.0621
 9340SOL     OW28918   2.988   6.798   1.340  0.0624 -0.2627  0.1536
 9340SOL    HW128919   2.945   6.727   1.285  1.0156 -0.6417 -0.1310
 9340SOL    HW228920   3.088   6.791   1.331  0.1658  2.3279 -1.4477
 9341SOL     OW28921   3.487   3.077   4.864  0.0905 -0.3557 -0.3447
 9341SOL    HW128922   3.545   3.130   4.802 -0.0681 -0.9830 -1.0500
 9341SOL    HW228923   3.500   2.979   4.846 -1.3573 -0.5156 -0.7065
 9342SOL     OW28924   2.130   5.589   4.207  0.0525 -0.3797  0.0529
 9342SOL    HW128925   2.198   5.517   4.220  0.1168 -0.2152  0.6843
 9342SOL    HW228926   2.150   5.665   4.270  0.8362  0.8246 -1.5662
 9343SOL     OW28927   3.555   4.854   2.772 -0.2070  0.9919 -0.8350
 9343SOL    HW128928   3.572   4.873   2.868  3.3305 -0.9306 -0.9370
 9343SOL    HW228929   3.478   4.790   2.764  2.3176 -2.6576  1.2527
 9344SOL     OW28930   0.637   5.762   4.444 -0.1220  0.5671  0.0106
 9344SOL    HW128931   0.604   5.734   4.535 -3.2134  1.7457 -0.6240
 9344SOL    HW228932   0.669   5.681   4.394 -0.8312 -0.5135  1.2277
 9345SOL     OW28933   5.547   0.052   6.318 -0.0831  0.2771 -0.4869
 9345SOL    HW128934   5.532  -0.044   6.295  1.6518 -0.0179 -0.5583
 9345SOL    HW228935   5.561   0.061   6.417  0.5112  0.3328 -0.5719
 9346SOL     OW28936   6.269   0.100   2.070  0.6231  0.3632 -0.4412
 9346SOL    HW128937   6.191   0.157   2.096  0.5443 -0.2597  0.7812
 9346SOL    HW228938   6.342   0.111   2.137  1.2636  0.2999 -1.1178
 9347SOL     OW28939   3.211   5.095   0.278 -0.4368  0.6122  0.1855
 9347SOL    HW128940   3.274   5.169   0.300  0.4175  0.6359 -2.0768
 9347SOL    HW228941   3.263   5.010   0.264 -1.1014  0.2228  0.0322
 9348SOL     OW28942   2.020   5.157   4.144 -0.0922 -0.2245  0.5573
 9348SOL    HW128943   2.058   5.183   4.055 -1.7351 -2.0722 -0.7964
 9348SOL    HW228944   1.962   5.230   4.179 -0.4033  0.0699 -0.5293
 9349SOL     OW28945   0.462   4.657   3.985 -0.1790  0.4740  0.5005
 9349SOL    HW128946   0.424   4.570   3.954 -2.4556  1.2048  1.0011
 9349SOL    HW228947   0.444   4.668   4.082 -0.3333  1.6708  0.3539
 9350SOL     OW28948   0.222   1.675   6.080  0.3155 -0.0240 -0.3890
 9350SOL    HW128949   0.150   1.734   6.044 -1.6314 -1.3642  1.0737
 9350SOL    HW228950   0.210   1.582   6.043  1.3875 -0.2400 -0.2162
 9351SOL     OW28951   2.026   0.235   4.859 -0.3443 -0.0615 -0.1507
 9351SOL    HW128952   2.023   0.300   4.935 -0.7373  0.1857 -0.3763
 9351SOL    HW228953   2.094   0.265   4.792  0.7940 -0.8437  0.5980
 9352SOL     OW28954   1.395   3.204   5.440  0.3489 -0.1319  0.0630
 9352SOL    HW128955   1.468   3.234   5.502 -0.1796 -0.6134  0.9319
 9352SOL    HW228956   1.351   3.284   5.401  0.7215  0.1799  0.2649
 9353SOL     OW28957   1.257   6.116   1.004 -0.1650  0.3141  0.5490
 9353SOL    HW128958   1.340   6.087   0.956 -0.1133 -0.4964  1.1127
 9353SOL    HW228959   1.186   6.137   0.937 -0.0851 -0.7872  0.1066
 9354SOL     OW28960   6.141   1.324   2.618  0.4769  0.2962 -0.0841
 9354SOL    HW128961   6.201   1.331   2.698  0.8393  0.5929 -0.3807
 9354SOL    HW228962   6.100   1.233   2.615 -3.2702  1.5632  3.1160
 9355SOL     OW28963   0.894   0.461   5.207 -0.0216  0.0791 -0.3960
 9355SOL    HW128964   0.885   0.540   5.148 -0.8812 -0.2139 -0.6658
 9355SOL    HW228965   0.848   0.478   5.294  0.9765  0.3934  0.0812
 9356SOL     OW28966   3.361   5.243   1.600  0.0813  0.3519  0.3839
 9356SOL    HW128967   3.351   5.241   1.699 -1.1494 -0.5876  0.2615
 9356SOL    HW228968   3.331   5.332   1.564  1.0411  0.8918  0.8799
 9357SOL     OW28969   2.107   3.074   5.676  0.5594 -0.3189  0.4107
 9357SOL    HW128970   2.104   2.989   5.623  0.3844 -0.6977  1.0111
 9357SOL    HW228971   2.193   3.121   5.659  1.1684 -1.2019  0.9454
 9358SOL     OW28972   5.488   3.934   3.640  0.0500  0.2165 -0.4014
 9358SOL    HW128973   5.500   4.034   3.641  0.9679  0.1086  0.4137
 9358SOL    HW228974   5.531   3.895   3.721 -1.5335 -0.7151  0.0200
 9359SOL     OW28975   0.715   4.185   4.989 -0.5077  0.1415  0.3033
 9359SOL    HW128976   0.691   4.137   5.073  0.6206  1.7560  1.6139
 9359SOL    HW228977   0.812   4.169   4.968  0.2279  2.6757  1.4348
 9360SOL     OW28978   1.687   6.600   5.965  0.4333  0.2149 -0.6442
 9360SOL    HW128979   1.680   6.532   6.039 -3.3292  0.3204 -0.7082
 9360SOL    HW228980   1.673   6.691   6.003  2.2862  0.6922 -1.0239
 9361SOL     OW28981   4.420   5.768   3.186 -0.1878  0.8868  0.1569
 9361SOL    HW128982   4.433   5.713   3.268  1.9524 -1.5182 -1.6125
 9361SOL    HW228983   4.323   5.790   3.175 -0.8025 -0.5185  2.2161
 9362SOL     OW28984   3.642   1.437   2.063  0.1315  0.6580  0.7655
 9362SOL    HW128985   3.599   1.362   2.013  0.0852  1.7373 -0.8575
 9362SOL    HW228986   3.577   1.512   2.075 -0.0612  0.2114  3.0403
 9363SOL     OW28987   2.201   1.338   0.691  0.3803  0.1483 -0.3588
 9363SOL    HW128988   2.270   1.278   0.649  0.0442 -0.6629  0.2106
 9363SOL    HW228989   2.136   1.282   0.742 -0.7684  0.8929 -0.9703
 9364SOL     OW28990   4.955   1.982   6.535 -0.1091 -0.7751 -0.1571
 9364SOL    HW128991   5.009   2.065   6.547  1.3631 -1.8792  1.1414
 9364SOL    HW228992   4.957   1.954   6.439  0.5500 -0.0890 -0.3511
 9365SOL     OW28993   2.528   2.469   5.538  0.7445  0.2039  0.6127
 9365SOL    HW128994   2.445   2.414   5.530  1.3051 -0.7696  1.2125
 9365SOL    HW228995   2.608   2.410   5.528  1.3716  0.9611  1.0035
 9366SOL     OW28996   4.271   1.813   1.354 -0.2010 -0.2743  0.0978
 9366SOL    HW128997   4.224   1.744   1.410  0.4979 -0.5237  0.3954
 9366SOL    HW228998   4.266   1.787   1.258 -1.1506 -0.0017  0.0677
 9367SOL     OW28999   0.646   5.535   3.672  0.1350  0.0504  0.3082
 9367SOL    HW129000   0.682   5.542   3.765 -0.4308  0.8869  0.4783
 9367SOL    HW229001   0.578   5.607   3.658  1.2181  0.8114 -1.2205
 9368SOL     OW29002   3.944   1.188   2.497 -0.1903  0.8925  0.1435
 9368SOL    HW129003   3.994   1.111   2.457 -0.1117  1.8770 -1.7830
 9368SOL    HW229004   3.891   1.157   2.576  0.0141 -1.0780 -0.4583
 9369SOL     OW29005   6.173   1.791   7.005  0.4305  0.3418  0.3804
 9369SOL    HW129006   6.102   1.733   7.047 -0.5247 -0.1506 -1.7813
 9369SOL    HW229007   6.229   1.831   7.077 -0.4291 -1.3002  2.0707
 9370SOL     OW29008   0.372   1.320   2.596 -0.5545 -0.3331 -0.5789
 9370SOL    HW129009   0.409   1.268   2.519  1.2831  1.0505 -0.6761
 9370SOL    HW229010   0.402   1.278   2.682  0.1247  0.0168 -0.6465
 9371SOL     OW29011   1.110   5.815   0.041  0.0767 -0.3920 -0.0609
 9371SOL    HW129012   1.168   5.896   0.035  1.3020 -1.2900 -0.7482
 9371SOL    HW229013   1.033   5.834   0.102 -0.0507  1.5051 -0.7128
 9372SOL     OW29014   4.789   6.303   3.542  0.1837 -0.1772  0.0618
 9372SOL    HW129015   4.746   6.336   3.458  2.2390 -0.0490 -1.0058
 9372SOL    HW229016   4.889   6.303   3.531  0.4644 -1.3915  2.0565
 9373SOL     OW29017   5.334   1.249   1.674 -0.3625 -0.3419 -0.0568
 9373SOL    HW129018   5.420   1.299   1.671 -1.1988  1.1301 -0.5769
 9373SOL    HW229019   5.263   1.307   1.715 -1.0099 -1.7042  0.8331
 9374SOL     OW29020   5.225   0.417   0.461 -0.0377 -0.1653  0.0774
 9374SOL    HW129021   5.306   0.470   0.436 -0.0579  0.2856  0.9297
 9374SOL    HW229022   5.204   0.352   0.388  0.4271  0.4871 -0.6542
 9375SOL     OW29023   6.897   1.397   2.524 -0.0302  0.3311 -0.2183
 9375SOL    HW129024   6.872   1.301   2.534 -0.5568  0.6171  1.5041
 9375SOL    HW229025   6.848   1.436   2.447 -1.9978 -0.1031  0.7543
 9376SOL     OW29026   5.423   4.345   0.486  0.0643 -0.1403  0.1116
 9376SOL    HW129027   5.451   4.428   0.437  0.1077 -0.3983 -0.3038
 9376SOL    HW229028   5.377   4.371   0.571 -3.4836  0.4952 -1.8119
 9377SOL     OW29029   6.665   4.274   3.650 -0.5608  0.3512  0.5290
 9377SOL    HW129030   6.735   4.216   3.690  0.6065  2.0856  1.1283
 9377SOL    HW229031   6.688   4.294   3.555 -0.4817  0.5782  0.5966
 9378SOL     OW29032   4.232   6.408   5.380 -0.2678  0.3193 -0.5721
 9378SOL    HW129033   4.165   6.433   5.309 -1.1362 -0.2076  0.0397
 9378SOL    HW229034   4.320   6.390   5.337 -0.3446  1.6433 -1.3313
 9379SOL     OW29035   5.925   3.141   3.645 -0.0448 -0.5116 -0.1721
 9379SOL    HW129036   5.827   3.160   3.651  0.0730 -0.0442  0.3631
 9379SOL    HW229037   5.954   3.091   3.727 -0.3746 -3.1966 -1.5826
 9380SOL     OW29038   6.497   0.230   6.533  0.0601  0.4731 -1.1553
 9380SOL    HW129039   6.551   0.147   6.518  1.5221  1.2618 -0.3952
 9380SOL    HW229040   6.500   0.286   6.450  0.4436  0.5459 -1.0908
 9381SOL     OW29041   2.387   2.230   5.465 -0.7103  0.1494  0.1157
 9381SOL    HW129042   2.486   2.215   5.466 -0.4083  1.9116  0.8593
 9381SOL    HW229043   2.344   2.178   5.539 -0.0736  0.8147  0.9763
 9382SOL     OW29044   2.990   5.630   2.639 -0.2799  0.5739 -0.0720
 9382SOL    HW129045   2.917   5.581   2.687 -0.7958  1.0816 -0.3177
 9382SOL    HW229046   3.021   5.707   2.694 -0.4862  0.8305 -0.3144
 9383SOL     OW29047   3.117   6.507   3.976 -0.5353 -0.5385 -0.3115
 9383SOL    HW129048   3.023   6.502   3.941 -0.2036  0.1861 -1.3689
 9383SOL    HW229049   3.181   6.497   3.900  0.2307  0.3245  0.2073
 9384SOL     OW29050   4.081   5.105   2.095 -0.2785  0.6841  0.4702
 9384SOL    HW129051   4.109   5.009   2.103 -1.5660  0.0221 -2.0421
 9384SOL    HW229052   4.054   5.139   2.186 -2.5073 -2.2580  1.0746
 9385SOL     OW29053   4.215   1.274   4.040 -0.1438 -0.8690 -0.2197
 9385SOL    HW129054   4.192   1.347   4.105  0.4601 -1.3568  0.5588
 9385SOL    HW229055   4.155   1.196   4.056 -0.5499 -0.6845 -0.8150
 9386SOL     OW29056   2.215   6.050   4.320  0.5822 -0.0632  0.2474
 9386SOL    HW129057   2.281   6.119   4.351 -0.0758  0.5493  0.3019
 9386SOL    HW229058   2.246   5.960   4.350  1.5789  0.1708 -0.0336
 9387SOL     OW29059   4.332   5.817   1.140  0.4619  0.8201  0.0894
 9387SOL    HW129060   4.247   5.778   1.176  0.0751 -0.7780 -2.3203
 9387SOL    HW229061   4.383   5.746   1.091  2.0798  2.2925 -0.4597
 9388SOL     OW29062   1.634   6.308   1.210  0.0081 -0.3730 -0.1265
 9388SOL    HW129063   1.705   6.305   1.139 -1.2182 -1.9411 -1.3709
 9388SOL    HW229064   1.547   6.333   1.169 -0.6355 -0.7794  0.9524
 9389SOL     OW29065   3.174   6.962   0.011 -0.4940  0.4643 -0.1099
 9389SOL    HW129066   3.171   6.891   0.081 -1.0729 -1.2961 -1.8279
 9389SOL    HW229067   3.096   7.024   0.024 -0.7920 -0.0368  0.5811
 9390SOL     OW29068   2.840   5.173   2.681 -0.1041 -0.0035  0.5488
 9390SOL    HW129069   2.899   5.105   2.726 -0.2811 -0.9598 -0.6101
 9390SOL    HW229070   2.744   5.150   2.698 -0.1971 -0.8873 -0.9644
 9391SOL     OW29071   1.654   1.348   5.278 -0.3247  0.4464 -0.1960
 9391SOL    HW129072   1.672   1.438   5.318 -0.7347  0.6242 -0.4063
 9391SOL    HW229073   1.734   1.317   5.226  0.7784 -0.3997  1.8653
 9392SOL     OW29074   6.030   4.513   5.387  0.8303  0.1652 -0.3090
 9392SOL    HW129075   5.962   4.549   5.451  2.8036  2.8846  0.4146
 9392SOL    HW229076   6.065   4.426   5.422 -0.4377 -0.0141  0.5976
 9393SOL     OW29077   4.333   1.149   3.548  0.0058 -0.7402  0.9886
 9393SOL    HW129078   4.290   1.198   3.624  1.3123 -0.5177  1.6169
 9393SOL    HW229079   4.341   1.210   3.469  0.9005 -0.1649  1.5070
 9394SOL     OW29080   5.784   2.366   1.829 -0.1027  0.1699 -0.3282
 9394SOL    HW129081   5.699   2.315   1.818  0.2824 -0.8302  1.1042
 9394SOL    HW229082   5.764   2.455   1.869 -0.5059  0.0407 -0.2352
 9395SOL     OW29083   0.188   2.013   6.065 -0.0356 -0.0499 -0.0151
 9395SOL    HW129084   0.179   2.105   6.101 -0.7590 -0.2889  0.4309
 9395SOL    HW229085   0.100   1.965   6.071  0.5251 -1.0624  0.5832
 9396SOL     OW29086   5.945   6.968   6.031 -0.4590  0.2759  0.5770
 9396SOL    HW129087   5.988   7.049   6.071 -2.9210  2.0454 -0.1019
 9396SOL    HW229088   5.855   6.953   6.072 -0.9719 -0.7926 -0.8261
 9397SOL     OW29089   2.675   1.166   6.890  0.2428  0.2798 -0.3640
 9397SOL    HW129090   2.765   1.164   6.846  0.6233 -1.4559  0.4339
 9397SOL    HW229091   2.640   1.073   6.899 -0.4423  0.6898  1.7457
 9398SOL     OW29092   3.288   0.498   0.774  0.1078  0.2646 -0.3487
 9398SOL    HW129093   3.265   0.401   0.767  0.0842  0.3025 -0.7907
 9398SOL    HW229094   3.310   0.520   0.869  0.3905 -0.2359 -0.2956
 9399SOL     OW29095   1.994   1.603   1.163  0.1451 -0.6885 -0.3626
 9399SOL    HW129096   1.915   1.628   1.107 -0.3232 -0.7328  0.2721
 9399SOL    HW229097   1.976   1.625   1.259  0.4450 -1.7523 -0.0483
 9400SOL     OW29098   5.124   5.401   0.536 -0.4004 -0.7982 -0.1672
 9400SOL    HW129099   5.059   5.377   0.609 -0.9118  1.5796  0.2368
 9400SOL    HW229100   5.081   5.465   0.473  0.8131 -1.0138 -1.2415
 9401SOL     OW29101   3.691   5.757   4.698  0.0559 -0.6088 -0.3317
 9401SOL    HW129102   3.644   5.827   4.644  1.8759 -0.8840 -2.3658
 9401SOL    HW229103   3.655   5.666   4.674  0.5840 -0.6976 -0.8040
 9402SOL     OW29104   3.458   4.573   5.933  0.0794 -0.4245 -0.1149
 9402SOL    HW129105   3.492   4.626   5.855 -0.3500 -1.2203 -0.8716
 9402SOL    HW229106   3.508   4.598   6.015 -0.5284  1.5935 -0.3093
 9403SOL     OW29107   4.266   2.342   2.402  0.3197  0.3298 -0.7632
 9403SOL    HW129108   4.228   2.332   2.494  0.1032  0.9730 -0.7808
 9403SOL    HW229109   4.221   2.277   2.340  1.3883 -1.0411 -0.1499
 9404SOL     OW29110   2.217   5.081   0.333  0.3843 -0.2718 -0.6482
 9404SOL    HW129111   2.216   5.135   0.249 -1.7047 -1.6372 -1.5700
 9404SOL    HW229112   2.183   5.137   0.409 -0.0443  0.2603 -1.2253
 9405SOL     OW29113   6.672   0.035   2.648 -0.5563  0.4847 -0.1463
 9405SOL    HW129114   6.658   0.004   2.554  1.6944  1.7094 -0.9567
 9405SOL    HW229115   6.737  -0.026   2.694  0.2203  1.2617 -0.1954
 9406SOL     OW29116   0.473   2.497   5.255 -0.2015 -0.2489  0.2109
 9406SOL    HW129117   0.509   2.583   5.289  0.7194 -0.7691  0.6023
 9406SOL    HW229118   0.527   2.467   5.177  0.6061 -1.3066  1.1351
 9407SOL     OW29119   1.165   6.818   1.498  0.2964  0.0205 -0.0342
 9407SOL    HW129120   1.146   6.750   1.569 -0.8253  1.4408  1.0858
 9407SOL    HW229121   1.088   6.820   1.433  1.0820 -0.9071 -1.0381
 9408SOL     OW29122   4.599   0.282   5.370 -0.0667 -0.0467 -0.2847
 9408SOL    HW129123   4.551   0.366   5.395 -1.0748 -1.3535  2.6583
 9408SOL    HW229124   4.541   0.228   5.309  1.0835  1.7880 -3.2175
 9409SOL     OW29125   5.453   4.699   4.707 -0.2208  0.2926  0.6283
 9409SOL    HW129126   5.510   4.774   4.742  0.5754  0.6222 -1.2426
 9409SOL    HW229127   5.357   4.727   4.709  0.1927  2.3131 -1.9625
 9410SOL     OW29128   3.105   5.526   0.391 -0.1912  0.6130 -0.5836
 9410SOL    HW129129   3.060   5.478   0.466  0.1693 -1.9195 -1.8980
 9410SOL    HW229130   3.049   5.606   0.365 -1.7700 -0.0793  0.5055
 9411SOL     OW29131   2.572   5.046   1.267  0.1091  0.6521 -0.2051
 9411SOL    HW129132   2.532   5.059   1.176 -2.2023 -0.2032  0.6142
 9411SOL    HW229133   2.578   4.948   1.287 -0.8271  0.8458  1.1205
 9412SOL     OW29134   2.231   4.197   2.531 -0.7934  0.0422 -0.6464
 9412SOL    HW129135   2.310   4.205   2.470 -1.5837  0.5711 -1.6295
 9412SOL    HW229136   2.233   4.108   2.578  0.4121  0.0829 -0.5992
 9413SOL     OW29137   4.580   4.983   6.314 -0.0799  0.5391 -0.4475
 9413SOL    HW129138   4.593   4.975   6.413 -0.1630 -0.4776 -0.5136
 9413SOL    HW229139   4.617   4.902   6.268  0.2347  1.1388 -1.2801
 9414SOL     OW29140   3.819   2.302   1.322 -0.3808  0.1455  0.1345
 9414SOL    HW129141   3.748   2.372   1.326 -0.0515  0.4587  0.5909
 9414SOL    HW229142   3.907   2.341   1.350  0.3731  0.2517 -2.2180
 9415SOL     OW29143   2.510   5.676   3.296 -0.1867 -0.0005  0.1773
 9415SOL    HW129144   2.498   5.775   3.306 -2.3235 -0.1222 -0.5738
 9415SOL    HW229145   2.559   5.657   3.210 -0.3197  0.3965  0.0097
 9416SOL     OW29146   0.083   2.229   0.781  0.0525  0.7522  0.0489
 9416SOL    HW129147   0.021   2.252   0.706  1.2526 -0.3709 -1.3695
 9416SOL    HW229148   0.174   2.210   0.743  0.3655 -1.1728  1.6289
 9417SOL     OW29149   3.295   5.933   5.735 -0.3695 -0.1190  0.5084
 9417SOL    HW129150   3.339   6.010   5.688 -0.4321  0.3286  1.1669
 9417SOL    HW229151   3.321   5.933   5.831 -0.0219 -1.1972  0.4229
 9418SOL     OW29152   4.093   6.852   0.390 -0.5091 -0.4100  0.5418
 9418SOL    HW129153   4.021   6.921   0.384 -1.5632 -1.5844 -0.9638
 9418SOL    HW229154   4.180   6.897   0.409 -1.2311  1.2862  0.0254
 9419SOL     OW29155   3.273   6.766   1.291 -0.4088  0.4494 -0.3232
 9419SOL    HW129156   3.287   6.670   1.270  1.4250  0.5136  0.3414
 9419SOL    HW229157   3.362   6.809   1.308 -1.2743  1.9441  0.6903
 9420SOL     OW29158   6.122   1.602   6.178  0.3073 -0.0265 -0.1582
 9420SOL    HW129159   6.170   1.658   6.111 -0.0250 -1.0299 -1.2571
 9420SOL    HW229160   6.029   1.585   6.148  0.2071 -0.6445  0.4713
 9421SOL     OW29161   2.947   4.764   4.267 -0.3002  0.0826  0.6759
 9421SOL    HW129162   3.000   4.828   4.211 -1.3152  0.2165 -0.1800
 9421SOL    HW229163   2.992   4.750   4.355  1.8422 -0.8230 -0.4908
 9422SOL     OW29164   6.594   5.943   2.865  0.1330  0.0291 -0.1873
 9422SOL    HW129165   6.643   6.006   2.806  2.3613  1.1125  2.5707
 9422SOL    HW229166   6.659   5.881   2.910 -1.6091 -1.7667  0.0083
 9423SOL     OW29167   3.189   0.285   2.647  0.3414  0.8732  0.0619
 9423SOL    HW129168   3.111   0.348   2.650  0.3558  0.9776 -1.2182
 9423SOL    HW229169   3.254   0.316   2.578  0.2767 -0.6267 -0.6966
 9424SOL     OW29170   5.349   0.684   5.348  0.5352 -0.1575 -0.1794
 9424SOL    HW129171   5.256   0.655   5.327  0.7454  0.1637 -1.6233
 9424SOL    HW229172   5.412   0.608   5.335  0.3934 -0.6410  1.6946
 9425SOL     OW29173   1.685   3.731   5.657  0.1310  0.2901 -0.2040
 9425SOL    HW129174   1.636   3.755   5.574 -1.1600 -0.3592  0.3457
 9425SOL    HW229175   1.738   3.648   5.642  0.9076  0.8710 -0.7356
 9426SOL     OW29176   1.495   1.522   5.862  0.1415 -0.0130  0.3340
 9426SOL    HW129177   1.443   1.596   5.820  0.6663  0.5139  0.6045
 9426SOL    HW229178   1.575   1.501   5.806 -0.6469 -1.2200 -0.3928
 9427SOL     OW29179   3.547   6.115   4.638  0.0629 -0.1464 -0.3745
 9427SOL    HW129180   3.526   6.213   4.634  0.2295  0.0338  1.9687
 9427SOL    HW229181   3.532   6.081   4.731  1.9458 -1.8979 -0.6288
 9428SOL     OW29182   6.236   5.177   1.403 -0.2313  0.1975  0.2035
 9428SOL    HW129183   6.150   5.129   1.387  0.4345 -1.4213  1.2311
 9428SOL    HW229184   6.229   5.231   1.487  0.3545 -1.5741  1.4504
 9429SOL     OW29185   2.987   5.142   0.409  0.6937  0.3883 -0.5792
 9429SOL    HW129186   3.053   5.096   0.349  0.5027  1.4868 -1.6561
 9429SOL    HW229187   3.020   5.136   0.504  0.6474 -1.9945 -0.6363
 9430SOL     OW29188   0.366   6.758   2.116  0.5247  0.0697  0.0268
 9430SOL    HW129189   0.372   6.736   2.214  1.6405  3.8101  0.9800
 9430SOL    HW229190   0.278   6.801   2.098  0.4237 -0.3870 -0.5880
 9431SOL     OW29191   4.822   5.027   6.184 -0.0386 -0.3719 -0.5354
 9431SOL    HW129192   4.736   5.059   6.224 -0.0403 -0.4436 -0.4797
 9431SOL    HW229193   4.889   5.014   6.257  0.2023  0.2448 -0.6459
 9432SOL     OW29194   1.144   6.160   3.051 -0.1057  0.4911 -0.7977
 9432SOL    HW129195   1.179   6.219   3.125  0.0093  2.1761 -2.1186
 9432SOL    HW229196   1.218   6.101   3.018  0.7313  1.8915 -1.5514
 9433SOL     OW29197   1.693   5.469   3.120  0.1551 -0.5811  0.3652
 9433SOL    HW129198   1.784   5.439   3.093  1.0606  2.2068 -0.0690
 9433SOL    HW229199   1.659   5.537   3.055 -2.0369 -1.1360  0.8334
 9434SOL     OW29200   5.153   4.930   3.618  0.3296  0.2504 -0.3952
 9434SOL    HW129201   5.124   4.840   3.652  0.7613  0.3175  0.1557
 9434SOL    HW229202   5.171   4.990   3.695  2.6171  0.0052 -0.6786
 9435SOL     OW29203   1.743   0.407   3.859  0.5484 -0.5927  0.4773
 9435SOL    HW129204   1.703   0.491   3.895  3.1174  1.0455 -0.1832
 9435SOL    HW229205   1.695   0.380   3.776 -0.5973 -0.0318  0.9426
 9436SOL     OW29206   0.265   5.369   2.086  0.1405 -0.0150  0.2502
 9436SOL    HW129207   0.349   5.398   2.131  1.2640 -0.4697 -1.4175
 9436SOL    HW229208   0.272   5.272   2.062 -1.0793 -0.1852  0.5248
 9437SOL     OW29209   2.134   5.183   3.908 -0.0824  0.0315 -0.3287
 9437SOL    HW129210   2.171   5.274   3.888 -1.7076  1.1533  1.4575
 9437SOL    HW229211   2.210   5.121   3.930  1.1302  0.6385 -2.4633
 9438SOL     OW29212   1.742   6.483   0.561 -0.1960  0.3707 -0.0450
 9438SOL    HW129213   1.688   6.409   0.523 -0.2373  0.0061  0.7202
 9438SOL    HW229214   1.829   6.490   0.510  0.5682 -1.3225  0.9452
 9439SOL     OW29215   6.319   4.638   2.364 -0.5406 -0.0047 -0.2213
 9439SOL    HW129216   6.268   4.560   2.399 -0.6449  0.2319  0.1699
 9439SOL    HW229217   6.402   4.607   2.318 -0.6367 -0.3493 -0.1596
 9440SOL     OW29218   4.238   5.724   4.678 -0.0024  0.7538 -0.0433
 9440SOL    HW129219   4.173   5.657   4.715 -0.9958  2.0520  0.6575
 9440SOL    HW229220   4.255   5.796   4.746 -0.1059  1.9920 -1.2760
 9441SOL     OW29221   6.007   5.563   6.295 -0.0927 -0.5596 -0.4251
 9441SOL    HW129222   5.962   5.502   6.230  0.9174 -0.8145 -0.9082
 9441SOL    HW229223   5.973   5.546   6.387 -0.3667 -1.3216 -0.6658
 9442SOL     OW29224   6.933   0.556   1.010  0.0311  0.5771 -0.2110
 9442SOL    HW129225   6.855   0.550   0.948  0.5346 -0.9830 -0.7467
 9442SOL    HW229226   6.912   0.509   1.095  0.0569  0.9678  0.0115
 9443SOL     OW29227   2.787   3.959   0.619  0.1879 -0.2971  0.1488
 9443SOL    HW129228   2.730   3.963   0.702 -0.1341  1.8795 -0.1134
 9443SOL    HW229229   2.803   4.052   0.586 -1.5288 -1.1529 -3.5125
 9444SOL     OW29230   0.941   5.067   4.684  0.5510  0.1762 -0.5517
 9444SOL    HW129231   1.022   5.125   4.690  1.4884 -1.1835  1.5156
 9444SOL    HW229232   0.895   5.082   4.598  0.4338  4.3012  0.0491
 9445SOL     OW29233   5.186   3.722   2.133  0.0484 -0.2385  0.3069
 9445SOL    HW129234   5.271   3.718   2.187 -0.0657  0.4188  0.5485
 9445SOL    HW229235   5.141   3.633   2.136  0.8071 -0.6395  0.0493
 9446SOL     OW29236   5.839   0.031   3.623 -0.3168 -0.0785 -0.0793
 9446SOL    HW129237   5.879   0.077   3.703 -2.6456  0.1768  1.0266
 9446SOL    HW229238   5.904  -0.035   3.587  1.4231  0.9425  1.0289
 9447SOL     OW29239   6.120   1.583   3.080 -0.1294  0.5316 -0.0091
 9447SOL    HW129240   6.184   1.629   3.018  0.2979  0.0473  0.0673
 9447SOL    HW229241   6.037   1.559   3.030 -0.0925  0.8023 -0.2077
 9448SOL     OW29242   0.096   6.060   0.317  0.5312 -0.6309  0.1666
 9448SOL    HW129243   0.033   6.131   0.346  0.1268 -0.2118 -1.6211
 9448SOL    HW229244   0.168   6.049   0.385 -0.3723  0.2627  1.2866
 9449SOL     OW29245   1.156   5.267   1.087 -0.2914 -0.4908  0.1736
 9449SOL    HW129246   1.142   5.169   1.077 -2.2120 -0.2783  0.5193
 9449SOL    HW229247   1.089   5.317   1.032  2.3445  0.7027 -2.2213
 9450SOL     OW29248   2.623   5.582   4.687  0.3161 -0.3292  0.2845
 9450SOL    HW129249   2.625   5.539   4.777  3.5901 -1.8973 -0.3628
 9450SOL    HW229250   2.627   5.512   4.616  0.2542  0.9230 -1.0096
 9451SOL     OW29251   4.922   6.414   4.459  0.1436  0.1566  0.4400
 9451SOL    HW129252   4.989   6.403   4.386 -1.1576 -0.5900 -0.6903
 9451SOL    HW229253   4.921   6.332   4.517 -1.9589 -1.2768 -1.4686
 9452SOL     OW29254   0.823   3.856   6.323  0.6327  0.2213 -0.3204
 9452SOL    HW129255   0.768   3.773   6.333 -0.0682  0.7356  0.2555
 9452SOL    HW229256   0.867   3.876   6.410 -0.4768  1.3087  0.0209
 9453SOL     OW29257   0.931   2.937   1.825  0.1512 -0.1956  0.4634
 9453SOL    HW129258   0.945   2.862   1.760  2.0795  0.7074 -0.2646
 9453SOL    HW229259   0.968   3.022   1.786 -1.8786  1.1520  1.3020
 9454SOL     OW29260   6.497   4.281   6.427  1.1470  0.2867 -0.1090
 9454SOL    HW129261   6.528   4.236   6.511 -1.4728 -1.1281  0.2260
 9454SOL    HW229262   6.503   4.217   6.351 -0.5087  0.0296 -0.0769
 9455SOL     OW29263   3.345   6.669   1.571 -0.0389  0.6107 -0.3141
 9455SOL    HW129264   3.331   6.712   1.482  0.8158 -0.8683 -1.2126
 9455SOL    HW229265   3.431   6.617   1.569 -1.2147 -1.4802  0.5361
 9456SOL     OW29266   1.150   5.851   1.099  0.3469  0.3886 -0.2250
 9456SOL    HW129267   1.175   5.930   1.044 -1.8327 -0.8078 -3.2488
 9456SOL    HW229268   1.209   5.774   1.076 -0.6871 -0.1678 -1.1160
 9457SOL     OW29269   0.312   4.191   5.473 -0.5305 -0.1363 -0.2029
 9457SOL    HW129270   0.249   4.269   5.475  0.8524  1.0308 -0.0376
 9457SOL    HW229271   0.366   4.194   5.388  1.9375  1.1565  1.2903
 9458SOL     OW29272   5.623   5.592   6.541  0.1930  0.3023  0.7050
 9458SOL    HW129273   5.587   5.565   6.452  0.6556  0.8046  0.3609
 9458SOL    HW229274   5.651   5.688   6.538  1.5515 -0.0719  0.9581
 9459SOL     OW29275   6.976   6.266   2.343  0.6290  0.0326  0.5048
 9459SOL    HW129276   6.961   6.302   2.251 -1.7715  1.8135  1.4550
 9459SOL    HW229277   6.940   6.332   2.410  0.2350 -2.1981  2.6135
 9460SOL     OW29278   0.127   1.481   6.519  0.1648  0.7733 -0.6904
 9460SOL    HW129279   0.125   1.556   6.585 -0.4594 -0.0693  0.2813
 9460SOL    HW229280   0.095   1.397   6.563 -0.7431  0.2867 -2.2187
 9461SOL     OW29281   5.871   1.271   4.528  0.2094 -0.2918 -0.4281
 9461SOL    HW129282   5.968   1.251   4.518  0.1298  0.0778 -2.3435
 9461SOL    HW229283   5.855   1.319   4.614  1.8221  0.2765 -0.4263
 9462SOL     OW29284   0.891   2.674   2.640 -0.2261 -0.5631  0.4644
 9462SOL    HW129285   0.799   2.677   2.680 -0.7428 -0.0196 -0.7239
 9462SOL    HW229286   0.900   2.591   2.584  0.3597 -1.1186  1.3564
 9463SOL     OW29287   5.517   6.350   2.349 -0.1080  0.1066 -0.6259
 9463SOL    HW129288   5.593   6.415   2.349 -1.0928  1.2976 -0.2177
 9463SOL    HW229289   5.484   6.337   2.256  1.0405 -1.0078 -0.9176
 9464SOL     OW29290   5.371   5.453   4.172 -0.0888  0.1802 -0.0709
 9464SOL    HW129291   5.437   5.465   4.246  1.3614  1.4140 -1.4670
 9464SOL    HW229292   5.420   5.431   4.088 -1.6281 -0.4858 -0.8295
 9465SOL     OW29293   6.558   6.613   4.388  0.2835 -0.1223  0.3032
 9465SOL    HW129294   6.618   6.537   4.364  0.7028  0.6276 -1.1703
 9465SOL    HW229295   6.464   6.591   4.360  0.7373  0.6739 -2.1577
 9466SOL     OW29296   3.791   4.120   5.754 -0.0221 -0.0623 -0.3829
 9466SOL    HW129297   3.757   4.130   5.660 -0.2642  0.7339 -0.2185
 9466SOL    HW229298   3.780   4.026   5.784  0.6901 -0.4860 -1.3945
 9467SOL     OW29299   1.027   3.493   2.206  0.6726  0.4179  0.1956
 9467SOL    HW129300   1.001   3.583   2.173  0.4162  0.5099  0.6336
 9467SOL    HW229301   0.963   3.464   2.278 -0.0167 -0.6676 -0.8229
 9468SOL     OW29302   6.114   1.674   0.594 -0.4119  0.2260  0.1517
 9468SOL    HW129303   6.036   1.617   0.568  0.1997 -0.2937 -0.5901
 9468SOL    HW229304   6.196   1.617   0.602 -0.0016  0.8421  0.4301
 9469SOL     OW29305   1.419   6.786   4.273  0.3753 -0.4212  0.0589
 9469SOL    HW129306   1.412   6.867   4.215  0.4787  0.7126  1.5690
 9469SOL    HW229307   1.350   6.791   4.345  1.2382 -1.0097  0.9478
 9470SOL     OW29308   3.821   3.465   6.703  0.0539 -0.1829  0.5159
 9470SOL    HW129309   3.895   3.399   6.719 -2.2243 -3.3654 -0.9604
 9470SOL    HW229310   3.743   3.440   6.760 -0.9376  1.1998 -0.1983
 9471SOL     OW29311   1.246   1.490   5.616 -0.1129 -0.5129 -0.0889
 9471SOL    HW129312   1.155   1.449   5.624  0.0797 -0.8376  0.5627
 9471SOL    HW229313   1.307   1.447   5.683  0.3442  0.1809 -0.0527
 9472SOL     OW29314   0.342   3.659   4.703  0.2523  0.9321  0.1443
 9472SOL    HW129315   0.433   3.633   4.735  1.3500  2.0197 -1.8697
 9472SOL    HW229316   0.286   3.689   4.780  1.3285 -0.4707  1.5233
 9473SOL     OW29317   4.333   1.207   5.185 -0.3725 -0.0842  0.1299
 9473SOL    HW129318   4.382   1.145   5.123  0.3554  0.9971 -0.4041
 9473SOL    HW229319   4.288   1.153   5.256  1.2260 -1.1727  0.3778
 9474SOL     OW29320   0.216   4.185   0.348 -0.6571 -0.1394  0.2929
 9474SOL    HW129321   0.270   4.191   0.432 -1.1975  0.2221  0.6226
 9474SOL    HW229322   0.276   4.195   0.269 -0.0975 -0.8126  0.6222
 9475SOL     OW29323   2.263   2.486   0.324 -0.0032 -0.1110 -0.1472
 9475SOL    HW129324   2.341   2.483   0.386 -0.6625  0.3849  0.7305
 9475SOL    HW229325   2.271   2.565   0.264  0.1640 -0.0560 -0.0512
 9476SOL     OW29326   3.646   4.083   3.462  0.6545  0.1391  0.1346
 9476SOL    HW129327   3.660   4.028   3.380  1.1922  0.3316  0.0933
 9476SOL    HW229328   3.716   4.061   3.530  0.6273  0.4730  0.2765
 9477SOL     OW29329   6.265   3.661   2.177 -0.3427 -0.5837  0.5819
 9477SOL    HW129330   6.345   3.659   2.237 -0.3135 -1.1423  0.5271
 9477SOL    HW229331   6.216   3.748   2.189  1.9219  1.1492 -1.5237
 9478SOL     OW29332   4.950   3.653   4.575  0.1403  0.3710  0.3089
 9478SOL    HW129333   4.916   3.695   4.659 -0.2647  0.6176  0.0282
 9478SOL    HW229334   4.988   3.563   4.596 -1.5470 -0.3296  0.5182
 9479SOL     OW29335   5.008   0.212   4.245 -0.1332 -0.6318 -0.5207
 9479SOL    HW129336   5.079   0.233   4.177 -1.1711  0.8052 -1.2094
 9479SOL    HW229337   4.923   0.188   4.198 -0.5032 -0.9402  0.2955
 9480SOL     OW29338   1.724   4.184   6.627 -0.5766  0.2249  0.1512
 9480SOL    HW129339   1.656   4.234   6.681  0.5478  1.9193  0.0663
 9480SOL    HW229340   1.681   4.104   6.585 -2.3232  0.8244  0.7250
 9481SOL     OW29341   5.633   4.499   0.190  0.2374 -0.3657  0.1117
 9481SOL    HW129342   5.722   4.539   0.210  0.2994  1.1894 -2.6726
 9481SOL    HW229343   5.613   4.509   0.092 -3.9888  1.5175  0.9040
 9482SOL     OW29344   0.053   0.386   4.294 -0.2120  0.4170  0.5218
 9482SOL    HW129345   0.096   0.335   4.220 -0.8987  0.4672  0.0841
 9482SOL    HW229346   0.094   0.477   4.300 -0.8181  0.7712 -0.4436
 9483SOL     OW29347   2.881   2.467   1.561 -0.0899 -0.1648  0.2483
 9483SOL    HW129348   2.814   2.420   1.618  0.8808 -0.3806  1.2571
 9483SOL    HW229349   2.971   2.460   1.604  0.6281 -0.0930 -1.1898
 9484SOL     OW29350   4.728   2.140   1.927 -0.3963  0.4343 -0.3439
 9484SOL    HW129351   4.669   2.219   1.912 -2.0661 -0.8396 -0.7779
 9484SOL    HW229352   4.710   2.101   2.017  0.5351  0.6166 -0.0643
 9485SOL     OW29353   0.039   0.722   0.533  0.4719 -0.3665  0.3634
 9485SOL    HW129354   0.100   0.681   0.601 -0.2905 -0.4525  1.0149
 9485SOL    HW229355   0.066   0.817   0.517  1.1780 -0.5956  0.1433
 9486SOL     OW29356   3.026   5.852   6.938 -0.2356 -0.1806 -0.6040
 9486SOL    HW129357   3.085   5.920   6.980 -0.0987 -2.1787  2.8082
 9486SOL    HW229358   2.931   5.877   6.952 -0.1802 -0.3068  0.0550
 9487SOL     OW29359   3.215   4.047   3.475 -0.2399  0.2252  0.2642
 9487SOL    HW129360   3.157   4.046   3.557 -1.9090 -0.6563 -0.8576
 9487SOL    HW229361   3.212   3.956   3.432  2.5731 -0.0570  0.5203
 9488SOL     OW29362   2.622   4.638   2.441  0.4625 -0.2206 -0.0151
 9488SOL    HW129363   2.722   4.637   2.447  0.4934 -0.9437 -0.4392
 9488SOL    HW229364   2.592   4.564   2.380 -0.3162  0.1849 -0.1351
 9489SOL     OW29365   5.099   4.902   1.212  0.1674 -0.0349  0.0958
 9489SOL    HW129366   5.198   4.915   1.224 -0.3256  3.9340  1.3873
 9489SOL    HW229367   5.051   4.937   1.292 -2.3599 -1.1149 -0.8557
 9490SOL     OW29368   5.262   6.183   0.613  0.2269 -0.0599  0.0986
 9490SOL    HW129369   5.309   6.116   0.671 -1.5077 -1.0461  0.4312
 9490SOL    HW229370   5.191   6.229   0.666 -1.4009 -0.9798 -1.2070
 9491SOL     OW29371   5.974   4.586   4.698 -0.1386 -0.7634 -0.4590
 9491SOL    HW129372   5.901   4.555   4.758  0.8110 -0.2114  1.0309
 9491SOL    HW229373   6.045   4.516   4.692  0.0139 -0.6026 -0.5417
 9492SOL     OW29374   4.057   3.676   2.613  0.0675 -0.3262  0.0390
 9492SOL    HW129375   4.070   3.664   2.514  0.4212 -1.2297  0.1792
 9492SOL    HW229376   3.977   3.733   2.630 -0.3544 -0.6652 -0.7625
 9493SOL     OW29377   4.786   6.703   4.145 -1.2909  0.0345  0.2053
 9493SOL    HW129378   4.711   6.760   4.110 -1.0349 -0.5761 -1.4451
 9493SOL    HW229379   4.864   6.762   4.167 -2.2132  0.6767  1.9419
 9494SOL     OW29380   5.356   2.704   5.633 -0.3619 -0.4417  0.0505
 9494SOL    HW129381   5.364   2.694   5.534 -0.3545  0.0350 -0.0027
 9494SOL    HW229382   5.426   2.650   5.678 -1.3059 -1.8948 -0.1378
 9495SOL     OW29383   0.874   1.305   3.190 -0.1219 -0.4454 -0.4637
 9495SOL    HW129384   0.931   1.223   3.178  1.8771  0.8455 -0.2568
 9495SOL    HW229385   0.783   1.288   3.152  0.1772 -2.8080 -0.2601
 9496SOL     OW29386   6.113   4.979   0.517  0.2206  0.9485 -0.3388
 9496SOL    HW129387   6.086   5.075   0.515  2.4786  1.6884  1.4494
 9496SOL    HW229388   6.182   4.965   0.587  1.3013 -1.6408 -1.7992
 9497SOL     OW29389   4.683   4.829   0.774 -0.4989  0.0750 -0.0941
 9497SOL    HW129390   4.676   4.755   0.708 -0.0187  1.3473 -1.6373
 9497SOL    HW229391   4.592   4.847   0.813 -1.2554  0.6643 -2.0053
 9498SOL     OW29392   5.240   6.421   5.716 -0.2229 -0.1845  0.3805
 9498SOL    HW129393   5.171   6.378   5.774  0.2597  0.5714  1.5378
 9498SOL    HW229394   5.204   6.506   5.678  0.1451  0.3221  1.1621
 9499SOL     OW29395   2.097   3.040   4.699 -0.1419 -0.0268  0.3920
 9499SOL    HW129396   2.094   3.134   4.734 -2.2240 -0.0920  0.5096
 9499SOL    HW229397   2.119   2.977   4.774  0.0143  0.2614  0.5903
 9500SOL     OW29398   3.533   6.839   1.343  0.3691  0.1994  0.3077
 9500SOL    HW129399   3.585   6.899   1.281  0.5908 -1.1106 -0.8193
 9500SOL    HW229400   3.596   6.796   1.408  0.3496  0.4344  0.4829
 9501SOL     OW29401   2.692   0.982   4.094 -0.4845 -0.3201 -0.2601
 9501SOL    HW129402   2.665   1.074   4.122 -0.7899  0.1624 -2.0051
 9501SOL    HW229403   2.768   0.987   4.029 -0.3957 -1.3055 -0.2558
 9502SOL     OW29404   6.180   2.034   5.775 -0.3226 -0.0845 -0.5219
 9502SOL    HW129405   6.164   1.942   5.809  1.3669 -0.6117 -1.0457
 9502SOL    HW229406   6.265   2.036   5.722 -0.0260  1.8719 -0.0730
 9503SOL     OW29407   6.380   0.927   2.350 -0.0454 -0.1632 -0.2630
 9503SOL    HW129408   6.372   0.848   2.411 -1.7729  1.0795  1.2146
 9503SOL    HW229409   6.303   0.927   2.286  1.5909 -1.2874 -2.3335
 9504SOL     OW29410   6.624   1.852   0.915 -0.3632 -0.1712  0.0694
 9504SOL    HW129411   6.593   1.771   0.865 -0.8051  0.9211 -1.4884
 9504SOL    HW229412   6.706   1.889   0.872 -0.9399  0.9853 -0.0786
 9505SOL     OW29413   6.091   1.732   3.570 -0.3182 -0.3097 -0.5119
 9505SOL    HW129414   6.035   1.651   3.588 -1.9128  1.0746  1.1161
 9505SOL    HW229415   6.167   1.735   3.635 -0.4276 -0.3529 -0.3814
 9506SOL     OW29416   0.928   3.056   6.430  0.6876 -0.0541  0.5956
 9506SOL    HW129417   0.911   3.014   6.519  1.1699  0.1591  0.7907
 9506SOL    HW229418   0.846   3.105   6.401  0.2541 -0.8022  0.5442
 9507SOL     OW29419   2.529   2.515   5.051 -0.2895  0.2180 -0.0684
 9507SOL    HW129420   2.541   2.536   4.954 -2.6186  1.3731 -0.1692
 9507SOL    HW229421   2.558   2.593   5.106  0.2199 -0.1100  0.1425
 9508SOL     OW29422   6.346   1.197   1.913  0.4077  0.0753 -0.0908
 9508SOL    HW129423   6.313   1.162   1.825  0.5706 -0.4248  0.0448
 9508SOL    HW229424   6.273   1.249   1.957  0.2177  0.0519 -0.3719
 9509SOL     OW29425   0.596   5.915   6.101 -1.0089  0.0967  0.6823
 9509SOL    HW129426   0.517   5.929   6.041 -1.9637 -2.6050  1.1710
 9509SOL    HW229427   0.569   5.858   6.179  1.1161  0.2797  1.6108
 9510SOL     OW29428   0.876   2.947   0.430 -0.1260 -0.3955  0.6666
 9510SOL    HW129429   0.781   2.979   0.432 -0.7666 -2.2159  0.6498
 9510SOL    HW229430   0.929   3.005   0.367 -1.5554 -0.2460 -0.4398
 9511SOL     OW29431   0.039   1.748   7.006  0.1058  0.0326 -0.5452
 9511SOL    HW129432  -0.034   1.738   6.939 -1.1138  0.3698  0.6720
 9511SOL    HW229433  -0.001   1.749   7.098  1.5552  1.1194  0.1103
 9512SOL     OW29434   0.957   2.014   3.593  0.2202  0.6650  0.2509
 9512SOL    HW129435   1.051   1.988   3.572 -0.3017  0.1589 -1.7090
 9512SOL    HW229436   0.894   1.953   3.544 -1.1867  0.1161  2.5830
 9513SOL     OW29437   2.037   3.359   2.921 -0.6669 -0.7904 -0.3271
 9513SOL    HW129438   2.053   3.330   2.827 -1.5903  0.7522 -1.0055
 9513SOL    HW229439   2.030   3.459   2.925 -2.9969 -0.9247  0.9551
 9514SOL     OW29440   2.175   3.794   6.143  0.4224  0.0066 -0.6553
 9514SOL    HW129441   2.077   3.777   6.130  0.6757 -0.8278 -1.6051
 9514SOL    HW229442   2.217   3.813   6.055  0.7666  2.4686 -0.0268
 9515SOL     OW29443   2.570   0.059   6.278  0.0539  0.3951 -0.1697
 9515SOL    HW129444   2.595  -0.036   6.297  0.1654  0.3116 -0.7167
 9515SOL    HW229445   2.642   0.102   6.223 -1.2523 -0.0393 -2.3109
 9516SOL     OW29446   5.295   3.613   6.528 -0.1809 -0.4413 -0.5530
 9516SOL    HW129447   5.339   3.531   6.491 -0.2727 -1.2544  1.0232
 9516SOL    HW229448   5.221   3.586   6.590 -0.2169  0.8320  0.0007
 9517SOL     OW29449   2.174   5.271   6.730 -0.4743 -0.3273  0.5376
 9517SOL    HW129450   2.243   5.342   6.714 -0.3666 -0.4406  0.4898
 9517SOL    HW229451   2.216   5.195   6.780 -0.8773  0.1355  1.5946
 9518SOL     OW29452   0.544   3.566   0.591 -0.7181  0.0079 -0.3427
 9518SOL    HW129453   0.588   3.514   0.517  0.1977 -1.3095  1.0755
 9518SOL    HW229454   0.613   3.601   0.654 -1.4812  1.1814 -0.1129
 9519SOL     OW29455   3.413   4.097   2.355  0.0530  0.0765 -0.0509
 9519SOL    HW129456   3.398   4.117   2.258 -0.3121 -0.9490 -0.2181
 9519SOL    HW229457   3.451   4.178   2.401  1.2819  0.2295 -1.2763
 9520SOL     OW29458   0.602   1.644   4.223  0.0483  0.1411 -0.2656
 9520SOL    HW129459   0.529   1.704   4.190 -0.5208 -0.5457 -0.2853
 9520SOL    HW229460   0.655   1.610   4.146 -1.7821 -2.1102 -0.6442
 9521SOL     OW29461   2.803   4.259   1.276 -0.2779 -0.2823 -0.5932
 9521SOL    HW129462   2.851   4.341   1.307 -1.1963 -0.1314  0.4827
 9521SOL    HW229463   2.820   4.184   1.340  2.0339 -1.5188 -2.5027
 9522SOL     OW29464   2.601   4.922   2.459 -0.4008  0.1042 -0.4399
 9522SOL    HW129465   2.530   4.949   2.524  0.8288 -2.1232  2.0411
 9522SOL    HW229466   2.602   4.823   2.449  1.3399  0.1853 -1.6451
 9523SOL     OW29467   1.658   0.376   3.579 -0.2558 -0.2420 -0.3581
 9523SOL    HW129468   1.722   0.452   3.570 -1.9372  1.1667 -1.0734
 9523SOL    HW229469   1.671   0.312   3.504 -0.7262  0.8965 -1.4608
 9524SOL     OW29470   0.941   3.503   0.306 -0.5517 -0.1786 -0.1971
 9524SOL    HW129471   0.891   3.447   0.372 -1.2499  0.9306  0.2448
 9524SOL    HW229472   1.021   3.452   0.273  0.1646 -0.5474  1.9495
 9525SOL     OW29473   0.215   1.169   5.928  0.1536  0.0700  0.3505
 9525SOL    HW129474   0.205   1.090   5.988 -1.3176  1.2261  1.7314
 9525SOL    HW229475   0.129   1.185   5.879  1.5909 -1.4653 -3.0306
 9526SOL     OW29476   5.867   3.186   1.022 -0.1868 -0.5583  0.0818
 9526SOL    HW129477   5.920   3.132   0.956 -1.1032  1.1737 -2.2441
 9526SOL    HW229478   5.779   3.142   1.038 -0.9162  0.1360 -1.7732
 9527SOL     OW29479   2.028   6.706   2.369 -0.7327 -0.2703 -0.0625
 9527SOL    HW129480   2.030   6.626   2.428  0.5974  0.0033  0.2960
 9527SOL    HW229481   2.120   6.723   2.332 -1.2702  0.3022 -1.2075
 9528SOL     OW29482   5.518   6.621   1.598  0.1585  0.6737  0.2605
 9528SOL    HW129483   5.504   6.588   1.504 -2.0649  0.2730  0.6675
 9528SOL    HW229484   5.575   6.703   1.597 -2.5763  2.7455 -1.8639
 9529SOL     OW29485   6.830   5.696   6.514  0.4738  0.5755 -0.0589
 9529SOL    HW129486   6.828   5.766   6.443 -1.3764  1.9909  1.2854
 9529SOL    HW229487   6.908   5.713   6.574  0.9937  0.4676 -0.6906
 9530SOL     OW29488   1.378   4.093   3.522  0.4270  0.5873  0.5590
 9530SOL    HW129489   1.305   4.114   3.457  1.7812  0.6059 -1.0271
 9530SOL    HW229490   1.410   4.000   3.506  0.4443  0.4116  1.5639
 9531SOL     OW29491   3.021   4.834   2.220 -0.1522  0.2367  0.1498
 9531SOL    HW129492   3.040   4.922   2.177 -0.3415 -0.0536 -0.5404
 9531SOL    HW229493   3.084   4.765   2.186 -0.1274  0.0620  0.5446
 9532SOL     OW29494   6.348   3.346   1.452 -0.7964  0.3231  0.1547
 9532SOL    HW129495   6.295   3.430   1.449 -0.5085  0.5720  1.4756
 9532SOL    HW229496   6.297   3.276   1.502 -2.0817 -1.1042 -2.9217
 9533SOL     OW29497   6.849   4.827   3.728  0.1464  0.2310  0.5114
 9533SOL    HW129498   6.791   4.901   3.760 -1.5983 -0.6635 -0.4244
 9533SOL    HW229499   6.898   4.857   3.645  1.1078  1.0008  1.3293
 9534SOL     OW29500   6.406   3.364   2.533  0.3894 -0.0564  0.0073
 9534SOL    HW129501   6.403   3.348   2.435 -0.0833  2.9970 -0.5943
 9534SOL    HW229502   6.491   3.328   2.570  1.7561  0.8892 -2.0254
 9535SOL     OW29503   2.910   0.537   0.119 -0.0300 -0.6529 -0.1641
 9535SOL    HW129504   2.881   0.461   0.176 -0.9796  0.4081  0.8187
 9535SOL    HW229505   2.862   0.620   0.147  2.1948  0.6997 -0.0598
 9536SOL     OW29506   3.538   2.822   4.852 -0.2508  0.0461  0.1725
 9536SOL    HW129507   3.477   2.777   4.918  0.3873  0.8563  1.3369
 9536SOL    HW229508   3.558   2.758   4.778 -1.3001 -0.7551  0.5388
 9537SOL     OW29509   3.828   2.130   4.410 -0.6917  0.7757  0.2507
 9537SOL    HW129510   3.869   2.158   4.324  1.4531 -1.9964  0.2454
 9537SOL    HW229511   3.881   2.168   4.486 -0.3721  0.2665  0.2866
 9538SOL     OW29512   4.571   0.558   5.390 -0.0331  0.1178  1.2576
 9538SOL    HW129513   4.649   0.586   5.445 -0.1357 -2.3381  2.7749
 9538SOL    HW229514   4.489   0.608   5.420  0.6274  1.7155  0.5473
 9539SOL     OW29515   3.260   3.144   3.223  0.5196 -0.4055  0.5644
 9539SOL    HW129516   3.166   3.170   3.243  0.2172 -0.4354 -0.7470
 9539SOL    HW229517   3.275   3.049   3.251  0.2202 -0.3358  0.9629
 9540SOL     OW29518   6.094   6.482   2.584  0.2574 -0.0185 -0.1808
 9540SOL    HW129519   6.039   6.428   2.648 -0.2509 -0.1283 -0.7035
 9540SOL    HW229520   6.168   6.526   2.634 -0.1893 -0.0231  0.5066
 9541SOL     OW29521   0.991   6.002   4.694  0.6310 -0.7636 -0.2054
 9541SOL    HW129522   0.981   5.974   4.598  1.1077 -1.2099 -0.1300
 9541SOL    HW229523   0.917   6.065   4.718  0.7295 -0.3426 -0.9774
 9542SOL     OW29524   4.158   5.424   4.003  0.1082 -0.1526  0.2685
 9542SOL    HW129525   4.094   5.499   3.986  1.5192  1.2551  0.8972
 9542SOL    HW229526   4.150   5.393   4.097 -1.0523 -1.3916 -0.2176
 9543SOL     OW29527   2.527   4.614   5.778  0.2451 -0.0864 -0.4044
 9543SOL    HW129528   2.495   4.520   5.767 -0.5078  0.0064  0.8357
 9543SOL    HW229529   2.503   4.667   5.697 -1.1435 -0.4825 -0.2803
 9544SOL     OW29530   5.951   1.998   3.527 -0.8014  0.0529 -0.3748
 9544SOL    HW129531   6.014   1.923   3.547  0.5170  0.9097 -1.2112
 9544SOL    HW229532   5.983   2.081   3.572 -3.6243 -0.3323  2.7445
 9545SOL     OW29533   5.545   5.010   2.027  0.3991 -0.4782  0.0065
 9545SOL    HW129534   5.491   5.092   2.010  1.2125 -0.2556 -1.7778
 9545SOL    HW229535   5.630   5.035   2.074  0.7458 -0.2330 -0.7270
 9546SOL     OW29536   3.155   1.699   5.704  0.2851  0.1517 -0.3485
 9546SOL    HW129537   3.161   1.739   5.796  0.1388 -1.2051  0.2724
 9546SOL    HW229538   3.070   1.647   5.696  0.7493 -0.5225 -0.9280
 9547SOL     OW29539   3.420   5.798   4.275  0.1494 -0.4811  0.2872
 9547SOL    HW129540   3.411   5.897   4.266 -2.2492 -0.5487  1.0558
 9547SOL    HW229541   3.349   5.753   4.221  2.7078 -1.9631 -2.0486
 9548SOL     OW29542   6.166   6.655   5.336  0.0647  0.0049  0.4210
 9548SOL    HW129543   6.209   6.604   5.262 -0.2513 -0.7958  0.7784
 9548SOL    HW229544   6.087   6.705   5.300  1.2019  1.4192 -0.2200
 9549SOL     OW29545   3.649   1.033   2.121  0.2950  0.2997 -0.6057
 9549SOL    HW129546   3.582   0.959   2.129 -0.1310  0.7085 -0.3055
 9549SOL    HW229547   3.623   1.108   2.182  2.5473 -0.6716  1.7327
 9550SOL     OW29548   4.159   1.251   0.914 -0.2017  0.3943  0.7177
 9550SOL    HW129549   4.224   1.184   0.877 -0.4431  1.4447 -1.8368
 9550SOL    HW229550   4.209   1.328   0.954  0.0787 -0.5126  2.1496
 9551SOL     OW29551   4.333   3.030   5.788  0.5207  0.1328  0.3394
 9551SOL    HW129552   4.391   3.094   5.839 -0.2170 -0.5812  2.1488
 9551SOL    HW229553   4.383   2.945   5.773  0.7491  0.3543 -0.1705
 9552SOL     OW29554   3.177   6.032   0.533 -0.1598 -0.3174  0.1435
 9552SOL    HW129555   3.238   5.963   0.492  1.8977  0.8386  1.0795
 9552SOL    HW229556   3.159   6.104   0.466 -0.3056 -0.5424 -0.0616
 9553SOL     OW29557   6.141   1.488   5.475 -0.5064  0.0659 -0.1626
 9553SOL    HW129558   6.181   1.517   5.562 -0.1049 -0.5668 -0.1310
 9553SOL    HW229559   6.048   1.523   5.468  0.1883  2.0058 -0.4665
 9554SOL     OW29560   0.239   0.330   4.070  0.4390  0.0766 -0.3716
 9554SOL    HW129561   0.204   0.252   4.018  0.1782  1.5543 -2.5614
 9554SOL    HW229562   0.295   0.297   4.146 -1.3666 -2.2426  0.0682
 9555SOL     OW29563   1.030   2.680   4.991  0.1512  0.4812 -0.3533
 9555SOL    HW129564   0.985   2.716   5.072  0.3361  0.3554 -0.1959
 9555SOL    HW229565   1.125   2.656   5.012  0.4047  1.0831 -0.7713
 9556SOL     OW29566   5.518   4.217   0.103  0.6577  0.1613  0.4161
 9556SOL    HW129567   5.575   4.145   0.062  0.7197  1.0799 -1.2070
 9556SOL    HW229568   5.577   4.288   0.142  0.6505  0.7870 -0.6740
 9557SOL     OW29569   4.762   0.823   2.871 -0.0277  0.0604  0.3454
 9557SOL    HW129570   4.668   0.790   2.863 -0.2403  0.5091  0.9464
 9557SOL    HW229571   4.764   0.921   2.849  0.6500 -0.3658 -1.7763
 9558SOL     OW29572   4.043   5.236   3.527  0.4084  0.1563 -1.1923
 9558SOL    HW129573   4.087   5.269   3.610  1.1718  0.7223 -1.7973
 9558SOL    HW229574   4.047   5.308   3.457 -0.6157 -0.1494 -1.5789
 9559SOL     OW29575   5.805   4.600   6.333 -0.0714 -0.5141  0.3377
 9559SOL    HW129576   5.723   4.619   6.388  0.4221  2.1183  0.3014
 9559SOL    HW229577   5.792   4.516   6.281 -1.0098 -2.5470  3.5843
 9560SOL     OW29578   2.014   1.719   1.472  0.2636  0.3449 -0.0289
 9560SOL    HW129579   2.020   1.795   1.537 -0.8787 -0.2555  0.7914
 9560SOL    HW229580   2.097   1.664   1.479 -0.0069  0.0657  1.2092
 9561SOL     OW29581   5.348   1.343   3.157  0.1720  0.5030 -0.1452
 9561SOL    HW129582   5.367   1.402   3.078  0.0516  2.6342  1.3371
 9561SOL    HW229583   5.343   1.399   3.240  1.6268 -1.8021  1.6210
 9562SOL     OW29584   2.244   6.657   5.499 -0.7067 -0.2691  0.2453
 9562SOL    HW129585   2.180   6.622   5.431 -1.7601 -0.9422  1.5249
 9562SOL    HW229586   2.312   6.714   5.455 -0.1056 -2.3210 -1.6819
 9563SOL     OW29587   6.987   5.140   5.177  0.2430 -0.3014 -0.2510
 9563SOL    HW129588   6.913   5.151   5.244 -1.0171  0.7555 -1.7209
 9563SOL    HW229589   6.958   5.077   5.105  1.0099 -0.3342 -0.5422
 9564SOL     OW29590   2.518   0.170   2.647 -0.3964 -0.4926  0.4667
 9564SOL    HW129591   2.504   0.152   2.549  1.6038  0.8935 -0.1544
 9564SOL    HW229592   2.438   0.217   2.684 -0.6072  0.2661 -0.8845
 9565SOL     OW29593   3.876   1.056   5.455  0.0346  0.5845 -0.1761
 9565SOL    HW129594   3.938   1.058   5.533 -0.2939  2.9763  0.1110
 9565SOL    HW229595   3.787   1.091   5.483 -0.1811  1.1954 -1.5345
 9566SOL     OW29596   2.588   6.233   5.386 -0.0011  0.4945  0.2605
 9566SOL    HW129597   2.551   6.205   5.297  0.1763  0.5040  0.1849
 9566SOL    HW229598   2.675   6.280   5.373  0.5076 -0.3545  0.5064
 9567SOL     OW29599   6.473   4.371   0.225  0.4129 -0.5890  0.1052
 9567SOL    HW129600   6.507   4.359   0.132 -3.1691 -2.9613 -1.1053
 9567SOL    HW229601   6.414   4.294   0.249 -1.3791  1.5115  3.1068
 9568SOL     OW29602   5.042   0.251   6.542 -0.1544  0.2146 -0.1496
 9568SOL    HW129603   4.949   0.287   6.539 -0.2893 -0.0201  0.9590
 9568SOL    HW229604   5.051   0.189   6.619  0.5636 -0.7825 -1.0057
 9569SOL     OW29605   1.142   6.211   3.694 -0.3624 -0.0377 -0.0416
 9569SOL    HW129606   1.049   6.218   3.657 -0.7807  0.0261  0.9787
 9569SOL    HW229607   1.138   6.219   3.794  0.6234 -1.2286  0.1101
 9570SOL     OW29608   0.541   3.132   0.685 -0.0619 -0.5312 -0.1475
 9570SOL    HW129609   0.445   3.120   0.711  0.1818 -0.2926  0.9387
 9570SOL    HW229610   0.578   3.213   0.732  0.4276 -0.0932 -1.2583
 9571SOL     OW29611   2.157   4.251   5.754  0.0402  0.7904 -0.3648
 9571SOL    HW129612   2.249   4.288   5.769  0.4368 -0.2310 -0.1870
 9571SOL    HW229613   2.135   4.253   5.657  0.5105  0.4486 -0.4792
 9572SOL     OW29614   1.890   4.724   2.426 -0.0878 -0.1730 -0.0568
 9572SOL    HW129615   1.943   4.667   2.364  0.0078 -0.4830  0.3083
 9572SOL    HW229616   1.951   4.780   2.482 -0.1710  0.0326 -0.1673
 9573SOL     OW29617   5.358   0.552   0.004  0.0446  0.6007  0.2762
 9573SOL    HW129618   5.410   0.466  -0.005 -1.2868 -0.4611  2.0882
 9573SOL    HW229619   5.381   0.612  -0.073  1.4025 -1.1527 -0.7941
 9574SOL     OW29620   3.407   2.501   1.450 -0.0224 -0.1243 -0.1493
 9574SOL    HW129621   3.344   2.577   1.438 -1.6277 -1.0751  1.7216
 9574SOL    HW229622   3.358   2.415   1.442  1.0152 -0.8989  1.3457
 9575SOL     OW29623   6.043   5.023   2.728  0.0109  0.0180  0.2079
 9575SOL    HW129624   6.047   5.032   2.828  2.3296  1.1208  0.0844
 9575SOL    HW229625   6.123   4.972   2.696 -0.5765 -0.1169 -1.1196
 9576SOL     OW29626   3.368   2.740   0.241 -0.3959  0.1192 -0.3003
 9576SOL    HW129627   3.339   2.813   0.302  0.9663  0.6680 -0.2786
 9576SOL    HW229628   3.309   2.738   0.160 -0.6527  1.0188 -0.1367
 9577SOL     OW29629   0.974   0.001   4.959 -0.0466 -0.1503  0.4012
 9577SOL    HW129630   0.974  -0.082   5.014  0.1393 -0.5820 -0.2386
 9577SOL    HW229631   0.909   0.066   4.996 -0.6600 -0.8337  0.5377
 9578SOL     OW29632   1.616   4.601   1.710  0.2159 -0.1758  0.1040
 9578SOL    HW129633   1.556   4.605   1.630 -1.6318 -0.0940  1.4356
 9578SOL    HW229634   1.659   4.511   1.715  1.0133  0.0967 -1.4160
 9579SOL     OW29635   1.237   0.653   3.662  0.5906  0.8031  0.2740
 9579SOL    HW129636   1.224   0.659   3.563 -1.7825 -0.4817  0.4379
 9579SOL    HW229637   1.154   0.681   3.709 -0.0605 -2.9663  1.7120
 9580SOL     OW29638   5.029   2.047   0.693 -0.5342  0.0807 -0.1341
 9580SOL    HW129639   5.127   2.029   0.701 -0.6097 -0.5818 -0.6045
 9580SOL    HW229640   4.985   1.969   0.649 -1.1421  0.7621 -0.7442
 9581SOL     OW29641   0.104   0.451   0.218  0.0513  0.5373  0.7303
 9581SOL    HW129642   0.124   0.438   0.121 -0.9073  1.4449  0.3862
 9581SOL    HW229643   0.188   0.475   0.266  0.5196  0.1863  0.1104
 9582SOL     OW29644   4.030   6.310   6.261 -0.1280  0.3729  0.2216
 9582SOL    HW129645   4.017   6.399   6.305  1.0778  0.1366  1.0955
 9582SOL    HW229646   4.073   6.247   6.325 -0.4318 -0.6735 -0.5793
 9583SOL     OW29647   2.485   4.200   6.359 -0.2800  0.2338  0.1423
 9583SOL    HW129648   2.511   4.152   6.275  1.9358 -1.7202  1.8252
 9583SOL    HW229649   2.398   4.163   6.393 -0.4947  0.0886 -0.5503
 9584SOL     OW29650   1.987   6.402   4.956  0.2999 -0.0958 -0.6526
 9584SOL    HW129651   1.936   6.477   4.915 -0.8999 -0.8430 -0.5626
 9584SOL    HW229652   2.085   6.413   4.936  0.0883  1.2200 -1.0342
 9585SOL     OW29653   4.650   1.362   3.519 -0.3513 -0.2523 -0.0442
 9585SOL    HW129654   4.577   1.428   3.502 -0.0909  0.2342  0.6801
 9585SOL    HW229655   4.648   1.291   3.449 -1.1388  0.0852 -0.3714
 9586SOL     OW29656   5.594   6.246   1.757  0.1111 -0.0197  0.3756
 9586SOL    HW129657   5.646   6.317   1.710 -0.2167 -1.5055 -2.4634
 9586SOL    HW229658   5.650   6.163   1.764 -0.8430 -0.7110 -0.0240
 9587SOL     OW29659   1.223   5.031   6.991  0.4985  0.6736  0.1103
 9587SOL    HW129660   1.264   5.086   7.063  0.1163  1.5895 -0.3556
 9587SOL    HW229661   1.231   4.934   7.014  0.3506  0.9512  1.3912
 9588SOL     OW29662   5.623   1.259   6.252 -0.4775  0.3377 -0.2920
 9588SOL    HW129663   5.556   1.195   6.289 -0.6293  0.0013 -1.1144
 9588SOL    HW229664   5.588   1.352   6.259  0.4191  0.5683  2.4292
 9589SOL     OW29665   3.265   4.806   0.563  0.3056 -0.3163  0.4133
 9589SOL    HW129666   3.246   4.729   0.623 -1.5393  1.3019  2.0503
 9589SOL    HW229667   3.320   4.874   0.613 -1.1972  1.0280  0.3251
 9590SOL     OW29668   4.843   2.838   2.502 -0.2305 -0.0807  0.1108
 9590SOL    HW129669   4.800   2.859   2.414  0.3237 -0.6733 -0.3048
 9590SOL    HW229670   4.862   2.740   2.507 -2.4013 -0.5048  1.8558
 9591SOL     OW29671   2.410   4.922   0.125 -0.2787  0.8199  0.3829
 9591SOL    HW129672   2.392   4.960   0.216  0.0606  1.3893  0.2213
 9591SOL    HW229673   2.323   4.902   0.079 -0.4820 -1.9085  1.7915
 9592SOL     OW29674   4.296   3.837   0.253 -0.1980 -0.0608  0.1334
 9592SOL    HW129675   4.368   3.806   0.314  0.8298  0.9034 -0.5430
 9592SOL    HW229676   4.319   3.813   0.159 -0.4175  0.8530 -0.1659
 9593SOL     OW29677   7.011   0.413   0.688 -0.2888  0.3346  0.1595
 9593SOL    HW129678   6.938   0.461   0.639 -1.0830  0.9674  1.8896
 9593SOL    HW229679   7.097   0.462   0.675 -0.7308  1.1878  0.3962
 9594SOL     OW29680   0.650   5.960   5.380 -0.2213  1.4141  0.1081
 9594SOL    HW129681   0.628   6.043   5.328 -0.1546  2.0431  1.0724
 9594SOL    HW229682   0.714   5.903   5.327  0.3810  2.3709 -0.2077
 9595SOL     OW29683   1.783   2.064   4.037 -0.3882 -0.2532  0.5170
 9595SOL    HW129684   1.685   2.068   4.018 -0.9964 -0.2210  3.2105
 9595SOL    HW229685   1.804   1.979   4.086  0.5844  0.5177  1.4947
 9596SOL     OW29686   1.095   5.862   2.827  0.4865 -0.0188  0.4104
 9596SOL    HW129687   1.091   5.772   2.869  1.9807 -2.9458 -4.7849
 9596SOL    HW229688   1.179   5.908   2.855  0.7146 -1.1150  1.6168
 9597SOL     OW29689   0.896   5.087   0.298  0.6906  0.1388  0.2326
 9597SOL    HW129690   0.900   4.991   0.270  0.9694 -0.1093  1.1096
 9597SOL    HW229691   0.959   5.102   0.374  0.8937  1.0907 -0.1175
 9598SOL     OW29692   3.190   3.797   1.716 -0.0039 -0.3711  0.3473
 9598SOL    HW129693   3.131   3.816   1.638 -0.0499 -0.6310  0.3200
 9598SOL    HW229694   3.222   3.884   1.755 -0.0670 -0.2404  0.1078
 9599SOL     OW29695   3.489   1.373   4.670 -0.6701 -0.6812  0.5571
 9599SOL    HW129696   3.523   1.389   4.577 -0.7377 -0.5078  0.5627
 9599SOL    HW229697   3.487   1.459   4.720  1.2051 -1.0532  1.3471
 9600SOL     OW29698   2.639   6.181   0.121 -0.3325  0.0763  0.7342
 9600SOL    HW129699   2.716   6.202   0.062 -2.4147  1.1881 -1.7849
 9600SOL    HW229700   2.641   6.241   0.201 -0.3091  2.4214 -0.9357
 9601SOL     OW29701   6.371   3.770   1.274  0.4255 -0.0860  0.3253
 9601SOL    HW129702   6.411   3.698   1.217  0.4138 -0.2268  0.4953
 9601SOL    HW229703   6.327   3.838   1.215  0.2360 -0.3377  0.1765
 9602SOL     OW29704   5.221   3.753   4.960  0.0539  0.0258  0.1772
 9602SOL    HW129705   5.164   3.700   5.023  1.7138 -0.8600  0.9685
 9602SOL    HW229706   5.266   3.691   4.895 -1.3158  0.8801 -1.6971
 9603SOL     OW29707   4.642   0.060   6.668  0.1916  0.6969  0.1614
 9603SOL    HW129708   4.697   0.143   6.653 -0.1627  0.7512 -0.9492
 9603SOL    HW229709   4.546   0.080   6.647  0.2892 -0.3069 -1.3914
 9604SOL     OW29710   4.968   6.303   1.516  0.1514 -0.2250 -0.2215
 9604SOL    HW129711   5.048   6.363   1.516  0.6054 -0.8196  0.1299
 9604SOL    HW229712   4.892   6.349   1.472  0.5630  0.5186 -0.1679
 9605SOL     OW29713   2.211   0.006   3.824 -0.1310  0.2833  0.4799
 9605SOL    HW129714   2.245   0.032   3.914  0.3235 -0.7672  0.6226
 9605SOL    HW229715   2.157  -0.077   3.832 -1.0337  0.7966 -0.0603
 9606SOL     OW29716   2.342   4.571   6.549 -0.5260 -0.2526 -0.1688
 9606SOL    HW129717   2.374   4.650   6.600 -1.6279  0.3843 -0.4336
 9606SOL    HW229718   2.419   4.508   6.533  1.0590  2.0707 -2.4432
 9607SOL     OW29719   1.942   3.070   5.134  0.4610  0.1156 -0.4239
 9607SOL    HW129720   1.855   3.082   5.086 -0.7867 -2.5866  0.9636
 9607SOL    HW229721   1.931   3.096   5.230  1.7832  1.5346 -0.6074
 9608SOL     OW29722   1.740   3.716   0.198 -0.6564  0.3058  0.3159
 9608SOL    HW129723   1.836   3.707   0.168 -0.5163 -0.8047  1.0563
 9608SOL    HW229724   1.680   3.710   0.118 -0.1568 -0.0026 -0.0440
 9609SOL     OW29725   2.310   3.341   0.447  0.1182 -0.3427  0.2776
 9609SOL    HW129726   2.352   3.293   0.524  0.6670 -0.1615  0.0931
 9609SOL    HW229727   2.240   3.283   0.406  0.4954 -0.8242  0.3087
 9610SOL     OW29728   0.806   5.965   4.367 -0.0613  0.1865  0.0837
 9610SOL    HW129729   0.753   5.882   4.384 -0.4502  0.8950  2.7630
 9610SOL    HW229730   0.748   6.045   4.383  1.1578  0.9738  0.6401
 9611SOL     OW29731   2.451   6.500   6.653 -0.9533 -0.1552 -0.0227
 9611SOL    HW129732   2.389   6.572   6.621  0.7664  1.1785 -0.5147
 9611SOL    HW229733   2.489   6.526   6.742  1.4641  0.7931 -1.2208
 9612SOL     OW29734   6.625   4.348   1.268  0.6949  0.2067  0.0331
 9612SOL    HW129735   6.662   4.350   1.361 -1.6493  0.1864  1.0434
 9612SOL    HW229736   6.643   4.259   1.226  0.9674 -0.1123  0.8194
 9613SOL     OW29737   3.212   0.412   3.746 -0.4721 -0.1369 -0.4084
 9613SOL    HW129738   3.291   0.433   3.803  0.4322  0.7320 -1.8934
 9613SOL    HW229739   3.183   0.494   3.697 -1.1798 -0.8422 -1.2150
 9614SOL     OW29740   4.365   1.927   1.826  0.2014 -0.3373 -0.2353
 9614SOL    HW129741   4.414   1.951   1.911  0.1542 -0.4127 -0.1867
 9614SOL    HW229742   4.271   1.961   1.831  0.2794 -0.0998 -0.3731
 9615SOL     OW29743   1.951   3.146   1.033  0.3289  0.0991  0.6283
 9615SOL    HW129744   1.998   3.086   1.098 -0.5975 -1.0604  0.2807
 9615SOL    HW229745   2.003   3.151   0.948  0.8078  0.4349  0.9381
 9616SOL     OW29746   4.544   3.916   0.666 -0.2692  0.0067 -0.1557
 9616SOL    HW129747   4.612   3.940   0.735 -1.2306  1.5012  0.3200
 9616SOL    HW229748   4.463   3.974   0.678 -1.5591 -1.5965 -0.8162
 9617SOL     OW29749   0.757   2.070   1.664 -0.2039 -0.3951  0.2430
 9617SOL    HW129750   0.717   2.012   1.735  2.7967  0.0820  2.5806
 9617SOL    HW229751   0.806   2.013   1.598  0.2871 -0.6926  0.8528
 9618SOL     OW29752   2.775   6.618   0.594  0.0255 -0.3164 -0.2391
 9618SOL    HW129753   2.774   6.718   0.591 -1.5013 -0.2591  0.7976
 9618SOL    HW229754   2.752   6.583   0.503 -1.0134  0.3240 -0.2473
 9619SOL     OW29755   1.386   0.803   5.957 -0.8787 -0.0591  0.4673
 9619SOL    HW129756   1.321   0.820   5.884 -1.9923  1.3490  1.7181
 9619SOL    HW229757   1.338   0.773   6.039 -0.2705  2.6066  1.9339
 9620SOL     OW29758   3.990   5.575   4.496 -0.4160 -0.2218 -0.5669
 9620SOL    HW129759   3.897   5.572   4.459 -0.9376  0.7212  0.6047
 9620SOL    HW229760   3.994   5.520   4.580 -0.8739  2.4750  1.3361
 9621SOL     OW29761   1.493   3.821   1.815  0.4977  0.1929 -0.3546
 9621SOL    HW129762   1.494   3.730   1.774 -0.0369  0.7993 -1.7705
 9621SOL    HW229763   1.466   3.888   1.747 -2.9473  0.9920  1.5662
 9622SOL     OW29764   0.550   1.457   1.128 -0.2300 -0.1128 -0.1547
 9622SOL    HW129765   0.576   1.537   1.073  1.6209  1.0701  2.2543
 9622SOL    HW229766   0.630   1.400   1.144 -0.2298  0.5093  2.6314
 9623SOL     OW29767   2.483   2.801   5.760 -0.0312  0.1955  0.0574
 9623SOL    HW129768   2.387   2.809   5.732 -0.2560 -3.3159 -0.6789
 9623SOL    HW229769   2.529   2.735   5.701  3.1219  2.3563 -0.0880
 9624SOL     OW29770   6.506   3.181   3.315 -0.0226 -0.4461 -0.3003
 9624SOL    HW129771   6.524   3.085   3.293 -0.6168 -0.3685 -1.1896
 9624SOL    HW229772   6.566   3.239   3.261  1.2451 -0.3226  1.1739
 9625SOL     OW29773   3.761   5.275   0.385 -0.4487  0.4192  0.4560
 9625SOL    HW129774   3.791   5.337   0.312 -0.3433  0.8208  0.8358
 9625SOL    HW229775   3.689   5.214   0.350  0.3211 -0.0951 -0.2773
 9626SOL     OW29776   5.061   0.000   2.749 -0.9053 -0.2378  0.0298
 9626SOL    HW129777   5.029  -0.045   2.833 -0.1302 -1.8165 -0.4976
 9626SOL    HW229778   5.005   0.081   2.732 -1.4300 -0.1905  1.7734
 9627SOL     OW29779   0.531   4.235   3.914 -0.2418 -0.6156 -0.0883
 9627SOL    HW129780   0.510   4.142   3.883 -0.7889 -0.8800  1.0278
 9627SOL    HW229781   0.607   4.272   3.859  2.1874 -2.9209  1.4569
 9628SOL     OW29782   6.085   5.348   5.867 -0.4055  0.8341 -0.3082
 9628SOL    HW129783   6.003   5.303   5.832 -0.6392  1.1020 -0.1109
 9628SOL    HW229784   6.165   5.319   5.814 -0.4046 -0.5638  0.4350
 9629SOL     OW29785   0.090   1.497   1.959 -0.6836 -0.1839  0.4954
 9629SOL    HW129786   0.065   1.434   1.885  0.8152 -1.9057  1.3615
 9629SOL    HW229787   0.103   1.445   2.043  1.0960  1.2125  1.1447
 9630SOL     OW29788   0.991   6.424   5.686  0.3957 -0.2516 -0.4094
 9630SOL    HW129789   0.993   6.433   5.786 -0.1348  0.6823 -0.4716
 9630SOL    HW229790   0.916   6.363   5.660 -0.6089  0.9017 -0.3072
 9631SOL     OW29791   5.097   6.860   1.968  0.2681 -1.1632  0.2494
 9631SOL    HW129792   5.087   6.825   2.061 -0.6220 -0.5197  0.4137
 9631SOL    HW229793   5.022   6.826   1.911 -0.1873 -0.1683  0.2253
 9632SOL     OW29794   1.305   0.224   2.166 -0.2153  0.2802 -0.1436
 9632SOL    HW129795   1.385   0.207   2.108  0.3154  0.5422  0.4932
 9632SOL    HW229796   1.224   0.238   2.109  0.2107  0.1042 -0.8003
 9633SOL     OW29797   6.120   4.322   6.175 -0.7964  0.0913  0.3919
 9633SOL    HW129798   6.072   4.236   6.154 -0.3282  0.3073 -1.8255
 9633SOL    HW229799   6.153   4.319   6.269  0.8895 -3.0172 -0.1368
 9634SOL     OW29800   0.137   6.215   3.971 -0.0310  0.2222 -0.2343
 9634SOL    HW129801   0.212   6.153   3.951  0.1734 -0.0280  1.1582
 9634SOL    HW229802   0.161   6.272   4.050 -1.3104  0.0974  0.2781
 9635SOL     OW29803   3.059   6.148   5.214 -0.2715  0.0737 -0.1533
 9635SOL    HW129804   2.979   6.193   5.254  0.2341  0.2470  0.6686
 9635SOL    HW229805   3.032   6.103   5.129 -1.5630 -1.0827  0.8314
 9636SOL     OW29806   3.812   2.041   5.956 -0.2052 -0.1416 -0.1995
 9636SOL    HW129807   3.777   1.996   5.874 -0.2727 -1.6297  0.6049
 9636SOL    HW229808   3.851   2.130   5.931  0.0241 -0.6715 -1.8831
 9637SOL     OW29809   2.422   2.784   1.310 -0.3611 -0.3827 -0.5345
 9637SOL    HW129810   2.497   2.766   1.246  1.2657 -0.4283  1.2832
 9637SOL    HW229811   2.433   2.876   1.348  0.7059 -1.5341  2.1542
 9638SOL     OW29812   5.640   2.888   0.362  0.0189  0.2974 -0.5052
 9638SOL    HW129813   5.582   2.808   0.347  2.7089 -1.6862 -1.0022
 9638SOL    HW229814   5.659   2.898   0.459 -0.1927  0.2519 -0.4583
 9639SOL     OW29815   1.662   2.098   0.954  0.0258 -0.4862  0.1604
 9639SOL    HW129816   1.750   2.053   0.939  0.8431  0.8337  0.7365
 9639SOL    HW229817   1.609   2.047   1.021  1.5144  0.0671  1.8647
 9640SOL     OW29818   0.852   3.552   5.054  0.0749  0.2614 -0.1817
 9640SOL    HW129819   0.871   3.627   5.118  4.4733 -0.9674  0.2641
 9640SOL    HW229820   0.921   3.551   4.982 -2.0437 -1.2356 -2.3219
 9641SOL     OW29821   5.554   4.608   0.917  0.3380 -0.6127 -0.5727
 9641SOL    HW129822   5.544   4.639   1.011 -2.0008 -1.1679 -0.5744
 9641SOL    HW229823   5.562   4.687   0.856  0.6141 -0.2109 -0.0189
 9642SOL     OW29824   3.177   0.954   5.410 -0.4062 -0.4489 -0.0247
 9642SOL    HW129825   3.261   0.952   5.357  0.1791 -1.2535  0.9023
 9642SOL    HW229826   3.105   0.906   5.360  0.2651 -1.6203  0.1017
 9643SOL     OW29827   5.727   6.149   4.834  0.3379  0.1554 -0.2807
 9643SOL    HW129828   5.782   6.096   4.898 -1.1333 -1.6868 -0.4473
 9643SOL    HW229829   5.781   6.225   4.797  2.1663 -0.5733  0.8014
 9644SOL     OW29830   0.598   3.490   0.315 -0.6905 -0.0306 -0.6132
 9644SOL    HW129831   0.548   3.540   0.245  0.8200  0.1747 -1.5766
 9644SOL    HW229832   0.651   3.417   0.273  3.3833  2.5000 -0.3527
 9645SOL     OW29833   3.008   5.580   3.419 -0.0173 -0.0229 -0.3392
 9645SOL    HW129834   3.029   5.540   3.330 -0.4425  0.0314 -0.4648
 9645SOL    HW229835   3.079   5.554   3.484 -0.2044 -0.8496 -0.4566
 9646SOL     OW29836   3.345   4.853   0.298  0.0638  0.0997  0.3506
 9646SOL    HW129837   3.440   4.823   0.305  0.3505  0.5758 -1.0478
 9646SOL    HW229838   3.300   4.845   0.387  1.2842 -0.5338  0.9339
 9647SOL     OW29839   0.917   5.439   2.941  0.5145 -0.0431 -0.3232
 9647SOL    HW129840   0.823   5.415   2.965  0.9707 -1.3337  0.2965
 9647SOL    HW229841   0.936   5.411   2.847  0.4510 -0.3684 -0.2425
 9648SOL     OW29842   3.429   6.479   0.419 -0.3402  0.5098  0.2147
 9648SOL    HW129843   3.513   6.439   0.456 -0.8254 -0.9475 -0.1884
 9648SOL    HW229844   3.377   6.523   0.492 -0.3002 -0.5539  0.9031
 9649SOL     OW29845   2.784   5.207   1.081 -0.8195  0.1807  0.4634
 9649SOL    HW129846   2.741   5.184   1.169  0.6663 -1.0301  0.9226
 9649SOL    HW229847   2.865   5.263   1.097 -0.2938 -0.4052 -0.0766
 9650SOL     OW29848   0.499   6.068   3.046 -0.1143  0.0145  0.0731
 9650SOL    HW129849   0.449   6.016   3.114 -1.0063  0.0187 -0.5615
 9650SOL    HW229850   0.450   6.066   2.959  1.6309 -1.0926 -0.9545
 9651SOL     OW29851   1.232   0.147   6.175 -0.0867 -0.0093 -0.4529
 9651SOL    HW129852   1.284   0.211   6.119  0.1974 -1.4612 -1.9358
 9651SOL    HW229853   1.273   0.055   6.168 -0.0315 -0.2837  2.1762
 9652SOL     OW29854   2.314   3.800   0.534  0.2660 -0.1761  0.8493
 9652SOL    HW129855   2.289   3.851   0.616 -0.0163 -1.1736  1.3983
 9652SOL    HW229856   2.408   3.767   0.543  0.3554  0.0101  0.6140
 9653SOL     OW29857   5.303   4.875   5.208  0.1549 -0.6731  0.5007
 9653SOL    HW129858   5.334   4.939   5.137 -1.8014  0.4800  0.6226
 9653SOL    HW229859   5.208   4.850   5.191  0.5704 -2.7645  1.0652
 9654SOL     OW29860   3.610   3.387   6.849 -0.3610  0.0843  0.5550
 9654SOL    HW129861   3.669   3.363   6.926  1.0124  1.3849 -0.0383
 9654SOL    HW229862   3.567   3.476   6.867  0.9371  1.0036 -0.6403
 9655SOL     OW29863   1.235   0.465   6.949 -0.3907 -0.4274  0.3235
 9655SOL    HW129864   1.246   0.448   6.851  2.2433 -2.7790  0.8956
 9655SOL    HW229865   1.225   0.564   6.964 -1.8943 -0.0551 -2.3090
 9656SOL     OW29866   1.327   2.431   1.067 -0.3473  0.4722  0.3312
 9656SOL    HW129867   1.246   2.397   1.020 -1.1433  0.9401  1.3030
 9656SOL    HW229868   1.323   2.531   1.072  0.9993  0.6157 -0.8141
 9657SOL     OW29869   5.743   1.564   3.256 -0.0600  0.4368 -0.1493
 9657SOL    HW129870   5.821   1.502   3.246 -0.2761 -0.1225  1.3095
 9657SOL    HW229871   5.714   1.597   3.166 -1.2057 -3.1665 -1.2653
 9658SOL     OW29872   1.252   2.992   1.943 -0.0943 -0.3111  0.7728
 9658SOL    HW129873   1.187   2.938   1.996  0.3239  1.1225  2.8443
 9658SOL    HW229874   1.336   3.004   1.996  0.4957  0.8757 -0.3801
 9659SOL     OW29875   0.579   2.358   0.043 -0.2031  0.0695  0.1596
 9659SOL    HW129876   0.575   2.416  -0.038 -1.3061  0.1956  0.2904
 9659SOL    HW229877   0.489   2.355   0.086  0.1339 -0.7923  0.8241
 9660SOL     OW29878   3.023   4.675   0.296 -0.2549  0.1808 -0.0318
 9660SOL    HW129879   3.072   4.606   0.349 -1.2998  0.0089  0.7460
 9660SOL    HW229880   3.001   4.753   0.355  0.0856  0.7686 -0.6620
 9661SOL     OW29881   5.885   3.601   2.265  0.0119 -0.6193 -0.8013
 9661SOL    HW129882   5.896   3.628   2.169 -1.8627 -0.3422 -0.9755
 9661SOL    HW229883   5.791   3.570   2.280  0.4009 -1.0567  0.8550
 9662SOL     OW29884   6.611   3.889   4.120 -0.7114  0.0068 -0.2343
 9662SOL    HW129885   6.700   3.851   4.140  0.0646  1.6510 -0.3832
 9662SOL    HW229886   6.556   3.894   4.204 -0.5122 -0.6097 -0.0670
 9663SOL     OW29887   0.716   3.809   3.619  0.2377 -0.1355 -0.4538
 9663SOL    HW129888   0.789   3.799   3.551  0.0123 -0.1806 -0.6918
 9663SOL    HW229889   0.638   3.753   3.591 -0.1645  0.4893 -0.5804
 9664SOL     OW29890   2.340   0.465   3.548  0.4737  0.2891 -0.0742
 9664SOL    HW129891   2.282   0.460   3.467  3.4020 -2.2555 -2.2285
 9664SOL    HW229892   2.305   0.403   3.618  0.3814 -1.0047 -1.2250
 9665SOL     OW29893   4.878   6.073   5.663  0.2959 -0.1886 -0.6492
 9665SOL    HW129894   4.847   5.978   5.657 -1.1129  0.1731  0.3585
 9665SOL    HW229895   4.843   6.125   5.585 -1.5579  0.1626  0.3569
 9666SOL     OW29896   4.330   4.279   0.521 -0.2238  0.3327 -0.2401
 9666SOL    HW129897   4.380   4.255   0.604 -1.8536 -0.9986  0.4161
 9666SOL    HW229898   4.386   4.255   0.441  1.2399  1.3513  0.4374
 9667SOL     OW29899   3.457   3.792   4.790  0.1191  0.3827  0.4250
 9667SOL    HW129900   3.377   3.734   4.806  0.1228 -0.0390 -0.9121
 9667SOL    HW229901   3.437   3.855   4.714  0.1423  2.1014  1.7878
 9668SOL     OW29902   5.656   0.520   5.954 -0.2730 -0.4205 -0.6118
 9668SOL    HW129903   5.693   0.443   6.006 -0.1731 -0.4128 -0.6709
 9668SOL    HW229904   5.708   0.602   5.974 -0.7886 -0.2185 -0.0457
 9669SOL     OW29905   0.033   2.793   2.596 -0.1169 -0.3085 -0.0038
 9669SOL    HW129906   0.119   2.831   2.630  0.2444  0.2371 -1.4465
 9669SOL    HW229907   0.052   2.710   2.544 -0.6078 -0.8873  0.7242
 9670SOL     OW29908   5.005   4.490   6.027 -0.0676  0.0122 -0.0383
 9670SOL    HW129909   5.066   4.464   6.102  0.0280 -1.3046 -0.5409
 9670SOL    HW229910   4.913   4.506   6.062  0.0955 -0.0559  0.4271
 9671SOL     OW29911   1.528   5.023   6.414  0.1543  0.2135  0.4800
 9671SOL    HW129912   1.432   5.051   6.419  0.2057  0.2103  1.8048
 9671SOL    HW229913   1.582   5.094   6.370 -0.2584  0.7630  0.8517
 9672SOL     OW29914   1.457   6.396   4.518  0.3924  0.4127 -0.3317
 9672SOL    HW129915   1.379   6.403   4.455 -0.0418 -0.0498  0.1430
 9672SOL    HW229916   1.505   6.484   4.522 -0.0780  0.6894 -0.6674
 9673SOL     OW29917   4.585   4.750   6.810  0.3925 -0.8966  0.8787
 9673SOL    HW129918   4.495   4.755   6.766 -0.1918 -2.9319  1.7393
 9673SOL    HW229919   4.656   4.742   6.739  0.0848  1.8070  0.1398
 9674SOL     OW29920   1.530   5.152   4.034 -0.5895  0.2445  0.1666
 9674SOL    HW129921   1.618   5.199   4.030 -0.7953  0.5843 -0.5932
 9674SOL    HW229922   1.544   5.054   4.017 -0.4944  0.4835 -1.2006
 9675SOL     OW29923   5.044   0.590   2.389  0.4744 -0.1817  0.4965
 9675SOL    HW129924   5.021   0.587   2.292  1.2045  0.6243  0.2966
 9675SOL    HW229925   5.109   0.517   2.410 -0.8049 -1.2956  0.6916
 9676SOL     OW29926   6.934   4.060   6.635 -0.3316  0.1892  0.2987
 9676SOL    HW129927   6.899   4.024   6.549  0.2195 -0.4708  0.3528
 9676SOL    HW229928   6.945   3.986   6.701 -0.1733  0.6015  0.7448
 9677SOL     OW29929   1.567   3.947   5.398  0.3004  0.1976  0.9280
 9677SOL    HW129930   1.627   3.990   5.331 -2.4910  0.1663 -1.7972
 9677SOL    HW229931   1.534   4.017   5.461 -0.6438  1.2466 -0.6598
 9678SOL     OW29932   2.879   3.386   3.085  0.3083  0.3857  0.1411
 9678SOL    HW129933   2.843   3.420   2.998  2.0642  0.8255 -0.4446
 9678SOL    HW229934   2.930   3.459   3.131 -0.3633  0.0784  1.4360
 9679SOL     OW29935   1.050   0.404   2.422 -0.9115 -0.1228  0.0464
 9679SOL    HW129936   1.067   0.327   2.483 -2.0479 -1.1926 -0.9373
 9679SOL    HW229937   1.137   0.435   2.383 -0.3921 -0.6103  0.7811
 9680SOL     OW29938   1.372   0.816   3.876  0.7196  0.4194  0.0792
 9680SOL    HW129939   1.295   0.843   3.934  0.6300  0.7098 -0.1735
 9680SOL    HW229940   1.341   0.750   3.807  0.6141  0.8275 -0.2653
 9681SOL     OW29941   1.062   0.883   0.719  0.5037  0.1278 -0.7370
 9681SOL    HW129942   1.143   0.824   0.726 -1.1901 -2.2314  0.2943
 9681SOL    HW229943   0.997   0.859   0.791 -1.5206  1.3080 -2.0835
 9682SOL     OW29944   3.618   6.604   3.011  0.2698  0.3837  0.2812
 9682SOL    HW129945   3.629   6.668   3.088 -1.4762 -0.0517  0.9374
 9682SOL    HW229946   3.533   6.624   2.963  0.5569 -0.3750 -0.5698
 9683SOL     OW29947   3.685   5.685   0.224  0.0817  0.2197  0.6459
 9683SOL    HW129948   3.683   5.758   0.156  0.7530 -0.0947  0.2877
 9683SOL    HW229949   3.597   5.637   0.224 -0.1115  0.5734  0.3932
 9684SOL     OW29950   1.138   1.477   3.326  0.0120 -0.3162  0.3602
 9684SOL    HW129951   1.051   1.428   3.324 -0.1738  0.0316 -0.2866
 9684SOL    HW229952   1.132   1.552   3.392  0.0548 -0.7035  0.8126
 9685SOL     OW29953   2.827   2.936   0.641 -0.0744 -0.3308 -0.0394
 9685SOL    HW129954   2.780   2.856   0.604 -0.4544  0.0785 -0.4448
 9685SOL    HW229955   2.776   3.019   0.619  0.8489  0.1296 -0.5191
 9686SOL     OW29956   1.132   2.221   6.293  0.9120  0.4065 -0.2245
 9686SOL    HW129957   1.175   2.306   6.263 -0.7646  1.0462 -0.9309
 9686SOL    HW229958   1.036   2.238   6.316  0.9595 -0.9838  1.2040
 9687SOL     OW29959   1.329   1.261   4.840  0.3550 -0.1722  0.2252
 9687SOL    HW129960   1.248   1.232   4.789  0.0542  0.1851  0.4963
 9687SOL    HW229961   1.319   1.236   4.936 -0.7660  2.4483  0.8686
 9688SOL     OW29962   0.291   2.838   2.285  0.4057 -0.1816 -0.0689
 9688SOL    HW129963   0.218   2.788   2.239 -0.0413 -0.1371  0.5736
 9688SOL    HW229964   0.331   2.780   2.357  0.1488  0.2376  0.4178
 9689SOL     OW29965   0.824   0.695   0.706 -0.4118  0.1590  0.2406
 9689SOL    HW129966   0.909   0.668   0.661  0.2451  2.1927  0.1277
 9689SOL    HW229967   0.756   0.622   0.698  0.5057 -0.5259 -1.8432
 9690SOL     OW29968   6.006   5.898   6.659  0.3452  0.6947  0.0971
 9690SOL    HW129969   5.921   5.924   6.705  0.7052  2.6840 -0.2824
 9690SOL    HW229970   5.997   5.917   6.561  0.8228 -0.2059 -0.1271
 9691SOL     OW29971   1.776   4.300   1.054  0.4142  0.1074 -0.6319
 9691SOL    HW129972   1.795   4.376   1.116  0.9438 -0.8032  0.3414
 9691SOL    HW229973   1.741   4.336   0.967  1.0668  1.4806 -0.3454
 9692SOL     OW29974   3.055   0.693   2.522  0.3062 -0.1037  0.8013
 9692SOL    HW129975   2.998   0.665   2.599  0.4139 -0.1107  0.8799
 9692SOL    HW229976   3.148   0.711   2.555  0.8916 -2.0450  0.3481
 9693SOL     OW29977   1.121   6.708   1.939  0.0127 -0.3177  0.2751
 9693SOL    HW129978   1.147   6.679   1.847 -0.5579  0.0761 -0.0203
 9693SOL    HW229979   1.021   6.704   1.947  0.1441 -2.6132  1.6318
 9694SOL     OW29980   1.914   0.442   4.632  0.2913 -0.4049 -0.3320
 9694SOL    HW129981   1.912   0.451   4.532 -2.2344 -1.9082 -0.4907
 9694SOL    HW229982   1.911   0.345   4.657 -0.0216 -0.0191  1.2092
 9695SOL     OW29983   0.401   4.275   6.278 -0.4696 -0.1093 -0.0850
 9695SOL    HW129984   0.487   4.227   6.293 -1.2533 -1.0177  1.9572
 9695SOL    HW229985   0.417   4.357   6.223  1.5537 -0.6230 -0.3409
 9696SOL     OW29986   5.243   0.629   1.039 -0.5586  0.2878 -0.5520
 9696SOL    HW129987   5.325   0.682   1.018  0.4760 -0.3066  1.6391
 9696SOL    HW229988   5.197   0.669   1.119 -0.4173 -1.3912  0.4102
 9697SOL     OW29989   6.239   4.013   6.185  0.2391 -0.3151 -0.3207
 9697SOL    HW129990   6.211   3.996   6.090 -0.1286 -2.2139  0.0946
 9697SOL    HW229991   6.157   4.028   6.241  0.3496 -0.8117 -0.0213
 9698SOL     OW29992   4.109   0.789   5.103  0.7622  0.3894 -0.3960
 9698SOL    HW129993   4.045   0.854   5.144 -1.2140 -0.2399 -2.3079
 9698SOL    HW229994   4.188   0.779   5.163 -1.3429  0.4510  2.6181
 9699SOL     OW29995   6.875   5.724   6.179 -0.0892  0.1782  0.0943
 9699SOL    HW129996   6.860   5.627   6.198 -0.4334  0.5122  1.6601
 9699SOL    HW229997   6.804   5.778   6.224 -0.2659  1.1341 -1.2721
 9700SOL     OW29998   2.864   5.656   5.496 -0.3463 -0.2573 -0.1849
 9700SOL    HW129999   2.921   5.730   5.531  0.2499 -0.9706  0.4011
 9700SOL    HW230000   2.775   5.692   5.468 -0.0516  0.6769  0.0546
 9701SOL     OW30001   3.327   5.100   5.437  0.1100 -1.5577 -0.3301
 9701SOL    HW130002   3.336   5.130   5.342 -0.7060 -0.3487 -0.0494
 9701SOL    HW230003   3.415   5.107   5.483 -0.1952  1.6584  0.0290
 9702SOL     OW30004   3.930   6.395   4.579 -0.6098  0.2072  0.4325
 9702SOL    HW130005   3.934   6.485   4.622  1.8751  0.1105  0.5491
 9702SOL    HW230006   3.834   6.366   4.570 -1.4208  2.4832  1.1038
 9703SOL     OW30007   4.223   5.378   4.247 -0.1399 -0.5360 -0.0527
 9703SOL    HW130008   4.180   5.453   4.298 -0.9972 -0.8357 -0.3084
 9703SOL    HW230009   4.313   5.358   4.286 -0.1556  0.2235  0.3936
 9704SOL     OW30010   3.767   0.477   2.250 -0.3052 -0.5534 -0.1664
 9704SOL    HW130011   3.812   0.425   2.178 -0.9236 -1.2826 -0.0366
 9704SOL    HW230012   3.742   0.567   2.215 -0.3725 -0.8080 -0.7875
 9705SOL     OW30013   4.480   5.013   1.174 -0.2244  0.0439 -0.5923
 9705SOL    HW130014   4.531   5.083   1.123 -0.8529  0.6486 -0.4144
 9705SOL    HW230015   4.539   4.972   1.243 -0.0663  1.0000 -0.1343
 9706SOL     OW30016   0.734   3.643   6.937  0.7118 -0.3760 -0.6509
 9706SOL    HW130017   0.768   3.573   6.873  0.1320 -0.2093 -1.1496
 9706SOL    HW230018   0.701   3.722   6.885  0.3090 -0.2043 -0.1359
 9707SOL     OW30019   5.303   3.980   1.222 -0.0967  0.0767  0.0342
 9707SOL    HW130020   5.214   4.020   1.201 -1.0095 -1.6587  0.4630
 9707SOL    HW230021   5.354   3.967   1.137 -0.5052  0.5072 -0.2806
 9708SOL     OW30022   2.687   0.071   4.416  0.1645 -0.1949 -0.1254
 9708SOL    HW130023   2.593   0.072   4.449 -0.6653 -2.3521 -2.1864
 9708SOL    HW230024   2.690   0.093   4.319  2.1656  2.5618  0.4221
 9709SOL     OW30025   0.658   0.814   4.630 -0.0561 -0.0146  0.1138
 9709SOL    HW130026   0.704   0.891   4.672 -0.6947  0.3375  0.1888
 9709SOL    HW230027   0.604   0.765   4.699  0.7858 -0.8790  0.1883
 9710SOL     OW30028   1.838   1.214   4.591  0.2218  0.5097 -0.5425
 9710SOL    HW130029   1.797   1.156   4.661 -0.6222  0.5479 -0.9881
 9710SOL    HW230030   1.836   1.310   4.621  0.2922  0.4734 -0.4215
 9711SOL     OW30031   0.699   3.913   0.208  0.5571  0.9389  0.4718
 9711SOL    HW130032   0.771   3.845   0.199 -1.0007 -0.6086 -1.1184
 9711SOL    HW230033   0.658   3.931   0.118 -1.5461  1.1682  1.4077
 9712SOL     OW30034   6.524   3.004   3.833 -0.7562 -0.0073  0.0075
 9712SOL    HW130035   6.608   3.003   3.779  0.4803 -1.7485  1.7965
 9712SOL    HW230036   6.505   3.097   3.863  0.9573  0.3446  0.1248
 9713SOL     OW30037   0.605   0.387   3.324 -0.2742  0.1119 -0.3867
 9713SOL    HW130038   0.638   0.296   3.302  0.5961  0.5217 -0.8121
 9713SOL    HW230039   0.528   0.380   3.388  0.5259 -0.8594  0.5025
 9714SOL     OW30040   6.770   2.742   0.432 -0.5558  0.6753  0.0756
 9714SOL    HW130041   6.847   2.716   0.491 -0.8133 -0.6826 -0.1642
 9714SOL    HW230042   6.741   2.664   0.377 -0.6923  1.7610 -1.4715
 9715SOL     OW30043   6.874   6.486   3.000 -0.2890 -0.0805  0.1124
 9715SOL    HW130044   6.875   6.481   3.100  0.5282 -0.9849  0.0761
 9715SOL    HW230045   6.786   6.523   2.970 -0.6287  0.0072  1.1596
 9716SOL     OW30046   1.775   2.230   5.748 -0.5772 -0.5058 -0.1308
 9716SOL    HW130047   1.717   2.304   5.715 -0.1293  0.0699  0.3668
 9716SOL    HW230048   1.866   2.265   5.770 -0.8090 -0.9001  1.5683
 9717SOL     OW30049   4.521   6.643   4.645 -0.6549  0.0893  0.2824
 9717SOL    HW130050   4.569   6.727   4.671 -2.4470  0.4879  2.5174
 9717SOL    HW230051   4.495   6.592   4.726 -0.9011 -1.9303 -0.9948
 9718SOL     OW30052   6.184   1.881   1.732 -0.1470  0.2544  1.0818
 9718SOL    HW130053   6.263   1.825   1.709 -0.0751 -0.0977  2.1759
 9718SOL    HW230054   6.143   1.850   1.817 -0.4082  1.5467  1.4601
 9719SOL     OW30055   6.080   4.617   6.197 -0.0683 -0.4784 -0.4624
 9719SOL    HW130056   5.996   4.646   6.150 -2.0061  1.3686  3.6567
 9719SOL    HW230057   6.086   4.517   6.194 -1.3543 -0.5625 -2.4603
 9720SOL     OW30058   1.713   4.826   1.838 -0.5020  0.3184 -0.1790
 9720SOL    HW130059   1.623   4.856   1.870  0.0187  1.8935 -0.1092
 9720SOL    HW230060   1.703   4.740   1.788 -1.6273 -1.1321  2.3490
 9721SOL     OW30061   6.577   3.431   2.098  0.2687 -0.0832 -0.0458
 9721SOL    HW130062   6.670   3.426   2.136 -0.1150 -1.3675  0.8152
 9721SOL    HW230063   6.543   3.338   2.084 -0.7414  0.3832 -0.7434
 9722SOL     OW30064   2.183   1.016   4.004  0.2201 -0.3183  0.1775
 9722SOL    HW130065   2.281   1.028   3.987  0.2513  3.4284  2.1870
 9722SOL    HW230066   2.132   1.040   3.921  0.8865 -1.2394 -0.5319
 9723SOL     OW30067   1.327   0.131   2.674  0.0243 -0.2445 -0.2343
 9723SOL    HW130068   1.377   0.053   2.710  0.0977 -0.0134  0.1725
 9723SOL    HW230069   1.277   0.104   2.592 -1.0469 -1.0643  0.6607
 9724SOL     OW30070   4.607   4.635   1.795  0.0765 -0.8234 -0.5581
 9724SOL    HW130071   4.705   4.646   1.812  0.5250 -0.8208 -2.7913
 9724SOL    HW230072   4.565   4.587   1.872  1.6167  0.0396  0.8880
 9725SOL     OW30073   5.288   2.398   0.675 -0.5048 -0.6281  0.7005
 9725SOL    HW130074   5.210   2.360   0.726 -1.0290 -1.6127 -0.7547
 9725SOL    HW230075   5.268   2.493   0.650 -1.5639 -1.0493 -0.1789
 9726SOL     OW30076   3.133   0.616   3.583  0.3953  0.7263  0.4645
 9726SOL    HW130077   3.114   0.707   3.620  1.6740  1.2323 -0.0628
 9726SOL    HW230078   3.053   0.584   3.532  0.2561  1.9847 -0.1538
 9727SOL     OW30079   1.031   3.468   5.277  0.4844 -0.2402  0.3042
 9727SOL    HW130080   1.025   3.540   5.346 -1.1071 -0.1443  0.0988
 9727SOL    HW230081   0.961   3.482   5.207  0.6987 -1.5187 -0.2012
 9728SOL     OW30082   3.411   5.837   0.474  0.1095  0.0625  0.0946
 9728SOL    HW130083   3.476   5.890   0.529 -0.8182  0.1887  1.1135
 9728SOL    HW230084   3.458   5.798   0.395  1.4605 -0.0036  0.9002
 9729SOL     OW30085   1.834   5.615   1.790 -0.7363  0.0018  0.0185
 9729SOL    HW130086   1.914   5.555   1.788 -1.2062 -0.7370  1.7730
 9729SOL    HW230087   1.776   5.591   1.867 -2.8722  0.2687 -1.4253
 9730SOL     OW30088   0.970   3.528   1.531  0.2675 -0.7618 -0.3174
 9730SOL    HW130089   0.877   3.550   1.502  0.5328 -0.0779 -0.6571
 9730SOL    HW230090   0.984   3.560   1.624  0.1464 -0.9314 -0.2386
 9731SOL     OW30091   6.043   6.088   1.498  0.0208 -0.3138 -0.0971
 9731SOL    HW130092   5.947   6.079   1.472  0.0033  0.0146 -0.1428
 9731SOL    HW230093   6.085   6.164   1.449  0.4685 -0.8384 -0.5390
 9732SOL     OW30094   6.131   6.899   1.972 -0.0963 -0.0503 -0.7978
 9732SOL    HW130095   6.100   6.881   1.879  0.7226  0.1400 -1.1170
 9732SOL    HW230096   6.192   6.979   1.972 -0.9250  0.6014  0.0668
 9733SOL     OW30097   5.431   5.492   5.320  0.0429  0.4084 -0.2298
 9733SOL    HW130098   5.450   5.471   5.224  0.9742  0.9407 -0.1773
 9733SOL    HW230099   5.431   5.408   5.373 -1.5492 -0.0226 -0.8505
 9734SOL     OW30100   4.227   1.492   4.233 -0.8364  0.5126 -0.5386
 9734SOL    HW130101   4.322   1.525   4.234 -0.9081  0.7763 -1.2553
 9734SOL    HW230102   4.166   1.565   4.262 -0.9016  0.6819 -1.0812
 9735SOL     OW30103   0.471   3.781   2.804 -0.5097 -0.2881  0.6548
 9735SOL    HW130104   0.529   3.849   2.759 -1.0620 -0.6203 -0.5996
 9735SOL    HW230105   0.528   3.713   2.849  0.0673 -0.2550 -0.0223
 9736SOL     OW30106   3.804   0.476   4.573 -0.3555 -0.2268  0.1407
 9736SOL    HW130107   3.760   0.481   4.663 -2.7281  1.3847 -0.9868
 9736SOL    HW230108   3.862   0.395   4.569  3.0067  1.5792  4.3684
 9737SOL     OW30109   4.120   0.976   3.678  0.4473  0.2933 -0.0134
 9737SOL    HW130110   4.214   0.949   3.698  0.8155  0.5274 -1.3563
 9737SOL    HW230111   4.104   0.972   3.579 -0.9358  0.3308  0.1861
 9738SOL     OW30112   3.085   1.077   1.385 -0.5587 -0.6535  0.4227
 9738SOL    HW130113   3.035   1.011   1.441 -1.3139 -1.8260 -1.5368
 9738SOL    HW230114   3.065   1.061   1.289  0.2209  1.6685 -0.1954
 9739SOL     OW30115   0.439   6.596   1.732 -0.3784 -0.2328  0.1930
 9739SOL    HW130116   0.467   6.691   1.717 -2.3396  0.6040  1.3580
 9739SOL    HW230117   0.491   6.536   1.672  0.7457  1.5910 -0.7559
 9740SOL     OW30118   5.758   2.846   2.646 -0.1222  0.3892 -0.7935
 9740SOL    HW130119   5.815   2.785   2.590 -1.4776  0.4164 -2.2990
 9740SOL    HW230120   5.742   2.931   2.596 -1.7876  0.2143 -0.6377
 9741SOL     OW30121   6.078   0.890   2.297 -0.7353  0.0660 -0.3899
 9741SOL    HW130122   6.132   0.921   2.220 -0.2484 -0.1227 -0.1283
 9741SOL    HW230123   5.981   0.891   2.273 -0.7156  1.4477 -0.5044
 9742SOL     OW30124   4.266   1.074   2.874 -0.0335 -0.0763 -0.3221
 9742SOL    HW130125   4.300   1.068   2.780 -2.6256  0.0147 -1.3536
 9742SOL    HW230126   4.266   0.984   2.916  2.6649  0.1067  0.2578
 9743SOL     OW30127   1.949   2.253   6.878  0.1127 -0.0171 -0.1754
 9743SOL    HW130128   1.887   2.291   6.809 -0.3704  0.7593  0.6829
 9743SOL    HW230129   1.905   2.175   6.923  1.7841 -3.0752 -3.2561
 9744SOL     OW30130   6.082   0.579   2.568  0.4646 -0.3444  0.6871
 9744SOL    HW130131   6.094   0.624   2.656  1.8292 -0.1471  0.4278
 9744SOL    HW230132   6.095   0.480   2.578 -2.6396 -0.7887  1.2768
 9745SOL     OW30133   6.419   2.737   4.735 -0.5642  0.0480  0.5675
 9745SOL    HW130134   6.389   2.646   4.764 -0.9870 -0.7600 -2.1029
 9745SOL    HW230135   6.421   2.740   4.635  0.2004  2.7610  0.6069
 9746SOL     OW30136   0.882   3.801   4.860 -0.0885  0.1431 -0.1199
 9746SOL    HW130137   0.796   3.807   4.910 -1.9375 -1.4222 -2.8626
 9746SOL    HW230138   0.912   3.893   4.833 -0.5613  0.7442  1.3377
 9747SOL     OW30139   0.239   2.886   1.876  0.1904  0.2293 -0.3560
 9747SOL    HW130140   0.152   2.864   1.919 -0.5613  2.7562 -0.4174
 9747SOL    HW230141   0.306   2.911   1.947  0.9667 -1.8727 -0.2955
 9748SOL     OW30142   2.102   6.989   4.765  0.0634  0.1099  0.4995
 9748SOL    HW130143   2.126   6.999   4.669 -1.2880  1.0488  0.2391
 9748SOL    HW230144   2.114   7.077   4.811  0.5449 -0.2926  1.1626
 9749SOL     OW30145   1.554   2.992   5.449 -0.3273 -0.1807 -0.2149
 9749SOL    HW130146   1.467   3.039   5.468 -0.4733 -0.1928 -0.8362
 9749SOL    HW230147   1.618   3.057   5.408 -1.0170 -0.8239 -2.4499
 9750SOL     OW30148   4.415   5.073   4.568 -0.1631 -0.3147  0.1912
 9750SOL    HW130149   4.387   5.073   4.472  1.0422 -1.8003 -0.2009
 9750SOL    HW230150   4.372   4.996   4.615 -0.0102 -0.1590  0.5848
 9751SOL     OW30151   0.201   3.424   1.944 -0.3749 -0.1856  0.2077
 9751SOL    HW130152   0.272   3.359   1.970 -0.8354 -1.5352 -1.7054
 9751SOL    HW230153   0.225   3.515   1.977  0.8357 -1.1009  1.9839
 9752SOL     OW30154   4.787   2.475   6.572 -0.1403 -0.1146  0.1282
 9752SOL    HW130155   4.861   2.454   6.636 -1.0451 -1.7912  0.6863
 9752SOL    HW230156   4.738   2.556   6.602  1.0619  0.6376  0.1021
 9753SOL     OW30157   0.374   1.034   5.488 -0.6269 -0.2863  0.8809
 9753SOL    HW130158   0.464   1.056   5.526  0.3410 -1.3720 -0.6911
 9753SOL    HW230159   0.333   1.117   5.449 -0.9911  0.5261  2.8515
 9754SOL     OW30160   1.617   2.021   6.195  0.3528  0.0137 -0.1543
 9754SOL    HW130161   1.691   2.069   6.242 -0.9565  1.8039  0.1743
 9754SOL    HW230162   1.637   1.923   6.194  1.1259  0.0094  2.9762
 9755SOL     OW30163   4.527   3.625   5.539 -0.1507  0.6626  0.1727
 9755SOL    HW130164   4.514   3.572   5.456  0.9603  0.5240  0.0689
 9755SOL    HW230165   4.609   3.683   5.530  1.2385 -0.8841  1.8864
 9756SOL     OW30166   5.244   2.610   6.239  0.4332 -0.5401  0.4783
 9756SOL    HW130167   5.319   2.610   6.172  0.2113  0.8228  0.1963
 9756SOL    HW230168   5.226   2.516   6.268  2.1580 -0.9212  0.4635
 9757SOL     OW30169   5.588   1.933   3.045 -0.1235 -0.2489  0.0593
 9757SOL    HW130170   5.591   2.030   3.021  0.1539 -0.8022 -2.3670
 9757SOL    HW230171   5.498   1.896   3.025  0.1002 -0.7432 -0.0516
 9758SOL     OW30172   3.130   1.713   6.666 -0.1015  0.3071  0.5994
 9758SOL    HW130173   3.194   1.788   6.651  0.5761 -0.4187 -0.2804
 9758SOL    HW230174   3.074   1.732   6.747  2.7922 -0.1078  2.8505
 9759SOL     OW30175   0.853   2.035   2.265  0.4889  0.1012 -0.3233
 9759SOL    HW130176   0.814   2.126   2.281  0.6607  0.7350 -3.0542
 9759SOL    HW230177   0.854   2.016   2.167  1.2073 -2.5465  0.1292
 9760SOL     OW30178   4.964   4.441   4.159 -0.2500  0.8002 -0.2176
 9760SOL    HW130179   4.982   4.362   4.218  2.2343  0.4110 -1.3900
 9760SOL    HW230180   4.865   4.457   4.156 -0.6349 -0.5636  2.1816
 9761SOL     OW30181   4.241   1.333   2.924 -0.0580 -0.1623 -0.6987
 9761SOL    HW130182   4.258   1.235   2.916  2.1474 -0.1800  2.2681
 9761SOL    HW230183   4.232   1.374   2.833 -0.5333 -2.9874 -2.0121
 9762SOL     OW30184   1.615   2.587   6.315 -0.4587  0.2284 -0.1362
 9762SOL    HW130185   1.587   2.590   6.411 -1.4337  0.2454 -0.4131
 9762SOL    HW230186   1.659   2.499   6.296 -0.4168  0.1582  0.2795
 9763SOL     OW30187   5.526   1.033   2.349  0.3394  0.1457 -0.1625
 9763SOL    HW130188   5.619   1.024   2.386 -0.4909 -2.3271  1.6366
 9763SOL    HW230189   5.525   0.999   2.255  1.0925 -0.7785  0.1410
 9764SOL     OW30190   3.403   1.836   4.353  0.1518 -0.6427 -0.6907
 9764SOL    HW130191   3.459   1.914   4.325  1.4177 -1.8145 -1.5802
 9764SOL    HW230192   3.431   1.806   4.444  0.3365 -0.6432 -0.7460
 9765SOL     OW30193   6.361   3.327   5.216  0.2595 -1.5199  0.3932
 9765SOL    HW130194   6.333   3.315   5.121  1.8972 -0.5423 -0.2609
 9765SOL    HW230195   6.427   3.256   5.241 -1.0405 -2.4850  1.2103
 9766SOL     OW30196   1.121   0.334   3.325  0.1135 -0.3730  0.2180
 9766SOL    HW130197   1.084   0.416   3.280 -1.1311 -1.1236 -0.1756
 9766SOL    HW230198   1.086   0.252   3.280  0.7281 -1.1400  1.0885
 9767SOL     OW30199   4.787   2.884   5.291  0.3719  0.3120  0.1151
 9767SOL    HW130200   4.838   2.904   5.375  1.2562 -2.2688  0.2843
 9767SOL    HW230201   4.795   2.961   5.228  1.8683  1.2427  1.3649
 9768SOL     OW30202   4.769   3.953   3.309 -0.1761 -0.5062 -0.1784
 9768SOL    HW130203   4.857   3.924   3.273 -0.3650 -1.7069  0.2887
 9768SOL    HW230204   4.747   3.899   3.390 -0.1181  1.5936  1.3021
 9769SOL     OW30205   2.145   2.836   2.295  0.9597  0.0605 -0.2044
 9769SOL    HW130206   2.100   2.923   2.314 -1.1334 -0.9296 -0.3708
 9769SOL    HW230207   2.183   2.798   2.380  1.3957  0.8384 -0.0408
 9770SOL     OW30208   5.373   5.265   5.447 -0.0721  0.0508 -0.0597
 9770SOL    HW130209   5.310   5.238   5.374 -0.5427 -0.1575  0.4128
 9770SOL    HW230210   5.356   5.208   5.527 -0.4684  1.1369  0.6579
 9771SOL     OW30211   4.878   3.442   6.972  0.0332 -0.2009  0.5910
 9771SOL    HW130212   4.787   3.404   6.960 -0.4743  0.9622  0.5894
 9771SOL    HW230213   4.872   3.525   7.028  1.0489  0.0323  0.3747
 9772SOL     OW30214   0.102   0.802   0.830  0.0742 -0.1983 -0.0079
 9772SOL    HW130215   0.029   0.734   0.819  0.8785 -1.0808 -0.0180
 9772SOL    HW230216   0.117   0.819   0.927  1.4598 -1.8359  0.1108
 9773SOL     OW30217   3.216   0.013   3.797  0.1492 -0.1471 -0.0815
 9773SOL    HW130218   3.234  -0.077   3.758  0.7761 -0.4820  0.9517
 9773SOL    HW230219   3.119   0.021   3.819 -0.2022  0.0116 -1.5696
 9774SOL     OW30220   4.935   5.432   3.437  0.3228  0.8229 -0.3418
 9774SOL    HW130221   4.991   5.382   3.371 -1.4177 -1.1754 -0.4107
 9774SOL    HW230222   4.954   5.398   3.529 -0.2501  0.6090 -0.2971
 9775SOL     OW30223   0.906   2.177   4.268  0.4254 -0.1668  0.1420
 9775SOL    HW130224   0.839   2.171   4.341  1.6199  0.5087  1.3431
 9775SOL    HW230225   0.991   2.215   4.304  2.8473 -4.4810 -0.2673
 9776SOL     OW30226   1.575   4.997   4.293 -0.5499  0.0934 -0.2778
 9776SOL    HW130227   1.505   4.950   4.239 -1.3372 -0.4344  1.1467
 9776SOL    HW230228   1.552   4.990   4.390  1.3108  0.2134  0.2016
 9777SOL     OW30229   5.464   5.830   6.326  0.1732 -0.0613 -0.1540
 9777SOL    HW130230   5.444   5.900   6.259  1.3759  1.6530  1.1869
 9777SOL    HW230231   5.380   5.781   6.349 -0.2956 -0.5927 -2.7074
 9778SOL     OW30232   5.895   0.786   4.430 -0.2500  0.1947 -0.4102
 9778SOL    HW130233   5.902   0.753   4.525 -1.2095  0.3847 -0.2628
 9778SOL    HW230234   5.851   0.875   4.429 -0.7741 -0.0623 -1.0836
 9779SOL     OW30235   0.586   3.792   5.536 -0.3874 -0.1005 -0.1347
 9779SOL    HW130236   0.540   3.707   5.563 -1.1904  0.6872  1.0514
 9779SOL    HW230237   0.684   3.784   5.557 -0.7836  0.0214  2.0119
 9780SOL     OW30238   1.082   4.020   5.496  0.2884 -0.3921  0.1457
 9780SOL    HW130239   1.164   4.066   5.530  1.5102 -1.6458 -1.0069
 9780SOL    HW230240   1.049   4.068   5.414  0.2416 -0.2472  0.2499
 9781SOL     OW30241   1.684   6.737   4.302  0.6043  0.2104 -0.1448
 9781SOL    HW130242   1.594   6.775   4.282  0.4213 -0.2851 -0.2918
 9781SOL    HW230243   1.685   6.699   4.395  1.1291  1.5605  0.4291
 9782SOL     OW30244   6.144   0.793   0.949 -0.0715  0.1454 -0.7003
 9782SOL    HW130245   6.100   0.867   0.999 -0.7459 -0.4417 -0.4092
 9782SOL    HW230246   6.077   0.723   0.925  0.3162  0.2272 -2.1072
 9783SOL     OW30247   0.571   2.354   2.834  0.0350  0.3921 -0.0276
 9783SOL    HW130248   0.538   2.297   2.909  0.3745  1.8699  1.2968
 9783SOL    HW230249   0.658   2.396   2.860 -0.2078  1.5181 -0.9453
 9784SOL     OW30250   5.028   1.682   3.422 -0.1371  0.0549  0.3170
 9784SOL    HW130251   4.963   1.621   3.466 -0.2670  0.2517  0.3983
 9784SOL    HW230252   5.035   1.659   3.325  0.7978 -0.9510  0.5895
 9785SOL     OW30253   0.034   3.239   1.790 -0.3314  0.2853  0.2973
 9785SOL    HW130254  -0.064   3.258   1.779 -0.4900 -0.2910  0.6892
 9785SOL    HW230255   0.075   3.309   1.849 -0.2302  1.2741 -0.8941
 9786SOL     OW30256   1.108   3.890   5.178  0.2113 -0.2527 -0.2677
 9786SOL    HW130257   1.048   3.944   5.238 -1.7360 -2.6242  0.0930
 9786SOL    HW230258   1.203   3.911   5.198 -0.4296  1.4460  1.3138
 9787SOL     OW30259   5.631   2.212   1.536  0.5908  0.1201  0.4686
 9787SOL    HW130260   5.691   2.278   1.491 -0.4486  0.9602  0.2813
 9787SOL    HW230261   5.547   2.257   1.565 -0.5434 -1.3030 -0.4621
 9788SOL     OW30262   0.926   2.308   5.125 -0.0566 -0.6191  0.0909
 9788SOL    HW130263   0.946   2.316   5.223 -0.5525 -0.8442  0.2134
 9788SOL    HW230264   1.011   2.295   5.075  0.5384  2.1519  0.2068
 9789SOL     OW30265   3.091   5.094   0.972 -1.4277 -0.0640  0.1815
 9789SOL    HW130266   3.024   5.066   0.903  0.0944 -0.5148 -1.1798
 9789SOL    HW230267   3.050   5.089   1.063 -3.4347  0.3620 -0.6604
 9790SOL     OW30268   5.834   3.664   5.442  0.0091  0.9155  0.1449
 9790SOL    HW130269   5.763   3.647   5.509 -0.3813  2.5610  0.1843
 9790SOL    HW230270   5.796   3.714   5.364  1.1509  2.1413  0.3264
 9791SOL     OW30271   2.011   1.378   4.148 -0.3593 -0.1563 -0.5897
 9791SOL    HW130272   2.017   1.289   4.193  0.0650 -0.6021 -1.5201
 9791SOL    HW230273   1.922   1.386   4.103 -1.1200  0.6141  0.9506
 9792SOL     OW30274   4.707   4.444   2.095 -0.0938 -0.2838 -0.2340
 9792SOL    HW130275   4.624   4.411   2.050  0.1502  0.5336 -1.3134
 9792SOL    HW230276   4.787   4.407   2.048  0.1604  0.1657 -0.1610
 9793SOL     OW30277   4.076   5.749   2.759  0.3896  0.2005  0.5549
 9793SOL    HW130278   4.148   5.769   2.692  1.3701 -0.4338  1.3798
 9793SOL    HW230279   4.060   5.651   2.761  1.6139 -0.0081  2.4312
 9794SOL     OW30280   4.799   1.758   5.290 -0.0632  0.0820 -0.2018
 9794SOL    HW130281   4.814   1.781   5.194  3.2559 -0.9154 -0.0688
 9794SOL    HW230282   4.754   1.834   5.336  2.5867  2.6832 -1.5994
 9795SOL     OW30283   1.580   1.806   5.201 -0.3724 -0.8867  0.8720
 9795SOL    HW130284   1.616   1.726   5.152 -1.1626 -0.3177 -0.7205
 9795SOL    HW230285   1.481   1.808   5.192 -0.2294  1.5535 -1.3126
 9796SOL     OW30286   4.765   2.892   0.883  0.0376 -0.1567  0.3218
 9796SOL    HW130287   4.723   2.873   0.972  1.5119  0.2837  1.1493
 9796SOL    HW230288   4.822   2.814   0.856  0.7315  0.2817  0.4804
 9797SOL     OW30289   5.276   1.705   5.726 -0.3488 -0.2303 -0.2275
 9797SOL    HW130290   5.275   1.662   5.816  0.4983  0.8903  0.3581
 9797SOL    HW230291   5.290   1.804   5.737 -2.0734  0.2081 -1.5146
 9798SOL     OW30292   2.948   1.720   6.916  0.0932 -0.5704 -0.2170
 9798SOL    HW130293   2.899   1.634   6.901 -2.7747 -0.1111  4.4239
 9798SOL    HW230294   2.889   1.797   6.891 -0.2652 -0.0301  2.0626
 9799SOL     OW30295   3.004   3.807   2.115 -0.1815  0.2912 -0.2836
 9799SOL    HW130296   2.957   3.866   2.048  0.4330  0.8287 -0.2521
 9799SOL    HW230297   3.006   3.713   2.082 -1.2082  0.2726 -0.3237
 9800SOL     OW30298   3.753   6.994   5.156 -0.7566 -0.1546  0.0568
 9800SOL    HW130299   3.807   7.037   5.228  1.6999 -1.2306 -1.0169
 9800SOL    HW230300   3.744   7.056   5.079 -0.3293 -0.2477 -0.0726
 9801SOL     OW30301   2.889   2.813   6.438  0.5096  0.1273 -0.0249
 9801SOL    HW130302   2.922   2.862   6.520 -1.5567 -1.3683  1.8202
 9801SOL    HW230303   2.793   2.836   6.423  0.5231 -0.5976 -1.2967
 9802SOL     OW30304   0.622   2.886   2.251  0.2311  0.0697 -0.0012
 9802SOL    HW130305   0.662   2.907   2.162  0.9585 -0.5784  0.1583
 9802SOL    HW230306   0.525   2.865   2.240  0.0634  1.0723 -0.4832
 9803SOL     OW30307   0.618   1.590   5.260  0.0858  0.1314 -0.1364
 9803SOL    HW130308   0.712   1.608   5.290 -0.4080  1.0824  0.9149
 9803SOL    HW230309   0.609   1.493   5.236  0.7093 -0.5922  2.2514
 9804SOL     OW30310   2.195   3.992   2.257 -0.0108 -0.2561  0.1150
 9804SOL    HW130311   2.131   3.962   2.328  0.8258  1.0179  1.4783
 9804SOL    HW230312   2.275   3.931   2.255  0.8108  0.7071  1.5781
 9805SOL     OW30313   1.117   4.095   0.399  0.1197 -0.0807  0.4354
 9805SOL    HW130314   1.087   4.093   0.304 -1.9269  0.5139  1.0099
 9805SOL    HW230315   1.097   4.007   0.442  1.4488 -0.4998  0.2176
 9806SOL     OW30316   0.201   2.370   1.858 -0.4026  0.2531 -0.1555
 9806SOL    HW130317   0.212   2.429   1.778 -2.3382  0.2937 -0.4351
 9806SOL    HW230318   0.202   2.274   1.830  1.9866  0.1153  0.2058
 9807SOL     OW30319   3.394   1.668   5.582 -1.1080  0.5236 -0.3972
 9807SOL    HW130320   3.425   1.762   5.598  0.5062  0.0566 -0.6172
 9807SOL    HW230321   3.310   1.652   5.634 -0.8693  1.7903  0.4418
 9808SOL     OW30322   0.248   0.924   0.623  0.8498  0.2256 -0.1483
 9808SOL    HW130323   0.196   0.997   0.579  1.7270 -0.1162 -1.8456
 9808SOL    HW230324   0.196   0.889   0.701  1.4088  4.1793  2.2851
 9809SOL     OW30325   1.995   1.330   5.344  0.0303  0.7494 -0.4539
 9809SOL    HW130326   1.997   1.359   5.439 -1.0190 -0.0642 -0.1583
 9809SOL    HW230327   1.955   1.238   5.338  1.9400 -0.0643 -1.4798
 9810SOL     OW30328   3.213   2.111   3.452 -0.2096 -0.3083 -0.0171
 9810SOL    HW130329   3.201   2.118   3.353  1.0109 -1.0907 -0.2304
 9810SOL    HW230330   3.140   2.163   3.497 -1.5822 -1.0341 -1.2955
 9811SOL     OW30331   6.830   0.610   3.925 -0.3694  0.1315  0.4003
 9811SOL    HW130332   6.841   0.511   3.928  1.8848  0.3253 -0.1227
 9811SOL    HW230333   6.832   0.647   4.017  1.6415 -0.0843  0.4783
 9812SOL     OW30334   4.295   0.461   6.239  0.6433  0.0833  0.2556
 9812SOL    HW130335   4.347   0.417   6.166 -1.3528 -0.1866 -1.0877
 9812SOL    HW230336   4.206   0.490   6.204 -0.6798 -0.6541  2.7135
 9813SOL     OW30337   6.092   6.289   6.720 -0.0827  0.2969 -0.8060
 9813SOL    HW130338   6.163   6.227   6.687  1.4346  0.7337  1.3646
 9813SOL    HW230339   6.098   6.376   6.671  1.0122  0.3749 -0.5685
 9814SOL     OW30340   6.603   6.713   6.132 -0.4408 -0.0062  0.0113
 9814SOL    HW130341   6.526   6.665   6.174  0.3264 -0.5684  0.8134
 9814SOL    HW230342   6.584   6.812   6.131 -1.0652 -0.1148  0.4013
 9815SOL     OW30343   0.583   2.670   1.053  0.5954 -0.1622 -0.5943
 9815SOL    HW130344   0.493   2.714   1.046  0.4113 -0.0912  1.5342
 9815SOL    HW230345   0.585   2.589   0.993 -1.0764 -0.4612 -0.3033
 9816SOL     OW30346   4.826   6.692   1.464 -0.3380 -0.3567  0.0430
 9816SOL    HW130347   4.766   6.740   1.528 -1.0992  2.9956 -2.8504
 9816SOL    HW230348   4.921   6.700   1.494 -0.8433 -4.6181  3.9946
 9817SOL     OW30349   3.588   5.786   1.871 -0.6575 -0.3391 -0.0690
 9817SOL    HW130350   3.644   5.856   1.916 -1.0378  0.5389 -0.9349
 9817SOL    HW230351   3.497   5.823   1.853 -0.7177 -0.8983 -0.9627
 9818SOL     OW30352   1.346   0.719   4.678  0.1764  0.3200  0.4007
 9818SOL    HW130353   1.375   0.688   4.587 -0.4216 -0.6912  0.5380
 9818SOL    HW230354   1.297   0.645   4.724  1.2061  0.5360  1.8951
 9819SOL     OW30355   5.477   2.805   3.902  0.5481 -0.5949 -0.3300
 9819SOL    HW130356   5.390   2.842   3.869  0.3650  0.2900  1.0435
 9819SOL    HW230357   5.459   2.735   3.970  0.8665  0.4434  0.8692
 9820SOL     OW30358   3.464   2.546   6.585  0.1601 -0.1869 -0.3794
 9820SOL    HW130359   3.541   2.549   6.521  1.0161 -1.8990  0.4927
 9820SOL    HW230360   3.378   2.551   6.534  0.8204 -1.0934 -1.6565
 9821SOL     OW30361   3.179   0.725   3.270 -0.3477  0.0967  0.1409
 9821SOL    HW130362   3.126   0.748   3.351 -0.2339  0.5180  0.1010
 9821SOL    HW230363   3.246   0.798   3.253 -1.1486  0.5974 -0.9971
 9822SOL     OW30364   3.629   4.854   5.958  0.2179 -0.7177  0.4035
 9822SOL    HW130365   3.546   4.882   5.910 -0.8192 -0.2329  2.3569
 9822SOL    HW230366   3.683   4.794   5.899 -0.5135  0.5362 -1.6517
 9823SOL     OW30367   1.497   0.154   3.184  0.0386 -0.3762 -0.4630
 9823SOL    HW130368   1.473   0.197   3.271  1.1542  1.8722 -1.1909
 9823SOL    HW230369   1.521   0.058   3.200 -0.2545 -0.1555  1.6239
 9824SOL     OW30370   2.076   6.352   5.783 -0.0954 -0.4949  0.1353
 9824SOL    HW130371   2.044   6.262   5.812  0.8057 -0.0616  2.7529
 9824SOL    HW230372   2.163   6.343   5.733 -0.0766 -1.0786  0.2723
 9825SOL     OW30373   4.956   5.259   5.076 -0.5135  0.0704  0.5263
 9825SOL    HW130374   4.863   5.232   5.101 -0.4277  2.2854  3.7907
 9825SOL    HW230375   4.956   5.356   5.051  1.1006  0.4777  1.9842
 9826SOL     OW30376   1.660   0.306   4.352  0.2598 -0.5016 -0.2778
 9826SOL    HW130377   1.639   0.208   4.360 -1.8880  0.0196  1.6830
 9826SOL    HW230378   1.621   0.342   4.267 -0.3938 -1.0382 -0.2134
 9827SOL     OW30379   2.536   4.795   3.651  0.1578 -0.3643 -0.2270
 9827SOL    HW130380   2.552   4.753   3.562  0.6961 -0.1389 -0.2364
 9827SOL    HW230381   2.446   4.766   3.685 -1.3062  1.7109 -2.0899
 9828SOL     OW30382   2.349   2.480   2.412 -0.2516 -0.2408 -0.2650
 9828SOL    HW130383   2.421   2.444   2.351  0.6409 -0.3562  0.8163
 9828SOL    HW230384   2.359   2.438   2.502 -1.6870 -0.2359 -0.0885
 9829SOL     OW30385   4.294   5.558   6.611 -0.2758 -0.6013 -0.3021
 9829SOL    HW130386   4.275   5.656   6.599 -0.1792 -0.6143 -0.5655
 9829SOL    HW230387   4.230   5.505   6.556  0.1494 -0.6629 -0.7416
 9830SOL     OW30388   6.506   1.143   1.029  0.5790 -0.3559 -0.1578
 9830SOL    HW130389   6.511   1.231   1.076  0.5310  0.7506 -2.1358
 9830SOL    HW230390   6.420   1.137   0.979 -0.9728 -2.9386  2.4890
 9831SOL     OW30391   6.437   4.788   2.832 -0.1887 -0.2727 -0.4853
 9831SOL    HW130392   6.415   4.821   2.924  0.1461 -0.0156 -0.4968
 9831SOL    HW230393   6.502   4.712   2.840 -0.7283 -0.7474 -0.4747
 9832SOL     OW30394   4.333   4.649   4.552  0.3813  0.3215 -0.4528
 9832SOL    HW130395   4.402   4.641   4.480  1.1648 -1.5835  0.4381
 9832SOL    HW230396   4.245   4.616   4.518  0.9194 -1.2751 -0.3464
 9833SOL     OW30397   3.432   3.651   4.027  0.7471  0.0433 -0.8144
 9833SOL    HW130398   3.400   3.719   3.962  0.9140  1.0220  0.0967
 9833SOL    HW230399   3.487   3.582   3.980 -0.9426 -0.5229 -2.0609
 9834SOL     OW30400   2.194   5.749   6.298 -0.1775 -0.7656  0.4514
 9834SOL    HW130401   2.228   5.656   6.280  0.0353 -0.5292 -0.4212
 9834SOL    HW230402   2.270   5.813   6.301 -0.3306 -0.6060  0.9932
 9835SOL     OW30403   3.282   3.352   4.042  0.2926  0.4498  0.1160
 9835SOL    HW130404   3.369   3.354   4.091 -0.1199  0.8236  0.8496
 9835SOL    HW230405   3.233   3.268   4.065  0.5472  0.1328 -0.4696
 9836SOL     OW30406   6.225   4.049   5.313 -0.2964  0.5429  0.1684
 9836SOL    HW130407   6.168   4.116   5.265 -0.9096 -0.7618 -1.0186
 9836SOL    HW230408   6.186   3.957   5.301  1.5769 -0.2926  0.0553
 9837SOL     OW30409   6.477   2.683   1.380  0.2312  0.2688  0.1932
 9837SOL    HW130410   6.426   2.620   1.438 -0.2075  1.2239  0.8877
 9837SOL    HW230411   6.519   2.634   1.304  0.7486 -1.0116  1.2737
 9838SOL     OW30412   0.530   0.438   0.862 -0.3174 -0.7308 -0.3828
 9838SOL    HW130413   0.507   0.501   0.936  1.3445 -0.6732  0.1128
 9838SOL    HW230414   0.573   0.356   0.900  1.6981 -0.1705 -1.3451
 9839SOL     OW30415   4.027   6.959   3.655 -0.7342 -0.6641  0.0978
 9839SOL    HW130416   3.993   6.874   3.615  0.8775 -0.2343 -2.4302
 9839SOL    HW230417   4.115   6.943   3.699 -1.9758 -0.8927  2.6996
 9840SOL     OW30418   4.767   1.115   1.465 -0.2479 -0.3398  0.2017
 9840SOL    HW130419   4.857   1.155   1.485 -0.3367  0.2975 -0.6398
 9840SOL    HW230420   4.778   1.037   1.404 -0.2404 -0.4746  0.3739
 9841SOL     OW30421   0.495   6.224   1.855 -0.0384 -0.5614 -0.7577
 9841SOL    HW130422   0.545   6.217   1.769 -1.4306 -0.0916 -1.6518
 9841SOL    HW230423   0.526   6.305   1.906  1.1984 -1.1675 -0.5126
 9842SOL     OW30424   3.063   1.847   0.846  0.0182  0.2530 -0.4184
 9842SOL    HW130425   2.992   1.900   0.893  0.5526  0.6442 -0.0494
 9842SOL    HW230426   3.145   1.903   0.834  1.0427 -0.8472  1.1018
 9843SOL     OW30427   1.542   0.107   1.261  0.1401  0.2545 -0.3242
 9843SOL    HW130428   1.468   0.147   1.206 -0.0909  0.7453  0.3275
 9843SOL    HW230429   1.538   0.007   1.255  0.7642  0.2867 -2.0326
 9844SOL     OW30430   5.834   0.270   3.119  0.1928  0.4424 -0.1670
 9844SOL    HW130431   5.841   0.337   3.192  1.6165 -0.6423  0.7568
 9844SOL    HW230432   5.920   0.218   3.113 -1.2007 -2.0586 -0.0816
 9845SOL     OW30433   1.084   2.785   1.642  0.1837  0.3082  0.2627
 9845SOL    HW130434   1.158   2.853   1.641 -0.4853  1.0495 -0.6112
 9845SOL    HW230435   1.093   2.728   1.723  1.9181  0.1543  0.0100
 9846SOL     OW30436   4.805   1.790   1.355 -0.5513 -0.3247  0.2499
 9846SOL    HW130437   4.870   1.739   1.411 -0.1297  0.5292  0.5605
 9846SOL    HW230438   4.713   1.755   1.370 -0.4620 -0.0431  1.5749
 9847SOL     OW30439   5.676   3.285   2.058 -0.2589 -0.2569  0.0409
 9847SOL    HW130440   5.709   3.325   1.972  0.2000 -0.1474  0.2660
 9847SOL    HW230441   5.612   3.211   2.038 -1.0238  0.4960 -0.3918
 9848SOL     OW30442   1.711   3.674   6.240  0.0975 -0.7643 -0.4042
 9848SOL    HW130443   1.663   3.590   6.214 -0.2236 -0.0757 -2.2066
 9848SOL    HW230444   1.797   3.681   6.189  1.7366 -1.5040  2.0876
 9849SOL     OW30445   3.041   1.075   1.131  0.3964  0.6068  0.3697
 9849SOL    HW130446   2.942   1.066   1.123  0.3681  0.1645  1.1476
 9849SOL    HW230447   3.085   1.010   1.069  0.2221  1.8024 -1.0568
 9850SOL     OW30448   0.581   0.995   4.112 -0.2337 -0.4194 -0.2048
 9850SOL    HW130449   0.510   0.960   4.172 -0.1235 -0.8969 -0.3478
 9850SOL    HW230450   0.603   1.089   4.138 -1.2100 -0.1188 -0.4263
 9851SOL     OW30451   3.589   5.141   5.491 -0.1167 -0.4022 -0.1458
 9851SOL    HW130452   3.614   5.044   5.498  0.2713 -0.3243 -0.4304
 9851SOL    HW230453   3.672   5.197   5.496 -0.4180 -0.0274  1.0122
 9852SOL     OW30454   2.126   1.540   6.645 -0.4313  0.7478  0.0104
 9852SOL    HW130455   2.149   1.449   6.680  0.2796 -0.1864 -2.6649
 9852SOL    HW230456   2.193   1.568   6.577 -0.3327  3.5745  1.1334
 9853SOL     OW30457   6.106   4.074   3.483  0.6208 -0.0713 -0.0598
 9853SOL    HW130458   6.008   4.082   3.501  0.8186 -0.5863  1.3192
 9853SOL    HW230459   6.132   4.139   3.411 -0.5596  0.7630  0.2429
 9854SOL     OW30460   1.030   6.439   6.912  0.5248 -0.7485 -0.5563
 9854SOL    HW130461   1.009   6.527   6.954  0.6587 -1.0395  0.1364
 9854SOL    HW230462   0.989   6.434   6.821  0.0273 -0.2010 -0.3635
 9855SOL     OW30463   2.119   3.469   6.705 -0.5499 -0.2007  0.1569
 9855SOL    HW130464   2.191   3.417   6.752 -0.0696 -1.4269 -1.8290
 9855SOL    HW230465   2.099   3.552   6.757  0.9827 -0.7506  1.7313
 9856SOL     OW30466   4.339   5.524   2.388  0.3269 -0.0571 -0.4246
 9856SOL    HW130467   4.249   5.516   2.344 -0.2321 -1.2770  0.8423
 9856SOL    HW230468   4.350   5.448   2.452  2.4486 -0.1535 -0.8590
 9857SOL     OW30469   5.025   0.894   4.346  0.3265  0.6098 -0.0819
 9857SOL    HW130470   4.964   0.954   4.397 -0.9946 -0.5024 -0.2974
 9857SOL    HW230471   5.031   0.805   4.393  0.5535  0.1847 -0.8972
 9858SOL     OW30472   1.978   0.491   1.378 -0.1540 -0.3404 -0.1380
 9858SOL    HW130473   1.945   0.492   1.473 -0.2797 -1.9342 -0.1278
 9858SOL    HW230474   2.075   0.518   1.376 -0.4153  0.6753  0.3034
 9859SOL     OW30475   5.250   5.792   4.372  0.3862  0.6876 -0.2297
 9859SOL    HW130476   5.339   5.837   4.375  2.0730 -2.3242  2.0688
 9859SOL    HW230477   5.193   5.826   4.447  1.1780 -0.0079  0.7282
 9860SOL     OW30478   2.775   2.258   5.680 -0.0804  0.3235 -0.7924
 9860SOL    HW130479   2.753   2.231   5.587  0.7576 -1.1124 -0.6018
 9860SOL    HW230480   2.856   2.208   5.711 -2.3542 -2.0495  1.9365
 9861SOL     OW30481   1.892   2.551   2.752  0.2909  0.1277  0.0735
 9861SOL    HW130482   1.893   2.503   2.840 -0.5549  1.5095  0.8627
 9861SOL    HW230483   1.848   2.640   2.762  1.5386  0.9806 -1.4170
 9862SOL     OW30484   4.202   4.468   0.347  0.2416 -0.5080  0.2249
 9862SOL    HW130485   4.260   4.545   0.374 -1.0855  0.6490 -0.0742
 9862SOL    HW230486   4.220   4.390   0.407 -0.7358  1.1083  2.7961
 9863SOL     OW30487   2.460   5.744   0.791 -0.0732 -0.4003  0.1516
 9863SOL    HW130488   2.494   5.701   0.875  1.6471  0.3942 -0.1118
 9863SOL    HW230489   2.467   5.843   0.799 -1.4772 -0.2388 -0.3063
 9864SOL     OW30490   4.941   5.843   3.183 -0.0081  0.5320 -0.4541
 9864SOL    HW130491   4.868   5.818   3.119 -1.8584 -0.0882  1.7966
 9864SOL    HW230492   5.000   5.763   3.198  0.3860  0.6548 -1.2482
 9865SOL     OW30493   6.229   6.071   6.325 -0.3172  0.0979 -0.3981
 9865SOL    HW130494   6.238   6.035   6.232  0.5037  0.4357 -0.4576
 9865SOL    HW230495   6.141   6.044   6.363 -0.5425 -0.2790 -1.1737
 9866SOL     OW30496   1.278   5.869   4.461  0.1366  0.3344  0.1263
 9866SOL    HW130497   1.359   5.874   4.403 -0.1339  0.3357 -0.2590
 9866SOL    HW230498   1.253   5.773   4.475  0.5342  0.3136  0.7157
 9867SOL     OW30499   4.397   2.633   1.204 -0.0980 -0.6690  0.2968
 9867SOL    HW130500   4.399   2.671   1.296  2.3055  0.6152 -0.2103
 9867SOL    HW230501   4.477   2.574   1.190 -0.2673 -0.6133 -1.0554
 9868SOL     OW30502   2.314   4.734   3.187 -0.7094 -0.1656  0.2629
 9868SOL    HW130503   2.354   4.654   3.141 -0.7442  0.1812 -0.3845
 9868SOL    HW230504   2.221   4.712   3.216 -0.4041 -0.6544  0.9008
 9869SOL     OW30505   0.634   2.733   0.712  0.2481  0.2191  0.2435
 9869SOL    HW130506   0.574   2.783   0.775  1.1205  2.6395 -0.7257
 9869SOL    HW230507   0.582   2.661   0.667 -2.0120  2.2159 -0.5665
 9870SOL     OW30508   2.828   1.605   2.996 -0.2355  0.7040 -0.2259
 9870SOL    HW130509   2.861   1.532   3.057 -3.1168 -0.4186  0.1532
 9870SOL    HW230510   2.904   1.663   2.970  2.0006 -1.7215  0.4389
 9871SOL     OW30511   0.062   3.825   4.443  0.4392  0.2809 -0.1843
 9871SOL    HW130512   0.080   3.916   4.479  1.5850  0.0704 -0.1867
 9871SOL    HW230513   0.130   3.802   4.374  0.1685 -0.5804 -0.1774
 9872SOL     OW30514   0.809   6.091   6.575  0.8209 -0.0169  0.6354
 9872SOL    HW130515   0.864   6.019   6.533  0.3262  0.0887 -0.2114
 9872SOL    HW230516   0.756   6.138   6.504  1.8297  1.8117  1.0055
 9873SOL     OW30517   1.211   1.928   1.820 -0.2739 -0.8915  0.6678
 9873SOL    HW130518   1.258   1.995   1.762 -2.4280 -0.0726 -0.2602
 9873SOL    HW230519   1.208   1.962   1.914  0.4536 -0.6985  0.6304
 9874SOL     OW30520   6.075   4.096   2.878  0.5604 -0.3234  0.0331
 9874SOL    HW130521   6.088   3.998   2.871 -0.6414 -0.4445 -0.7885
 9874SOL    HW230522   6.025   4.117   2.963  0.4339 -0.4610 -0.0076
 9875SOL     OW30523   1.627   6.987   3.818  0.4301 -0.5388  0.6680
 9875SOL    HW130524   1.630   6.997   3.719 -1.9460 -1.7505  0.4093
 9875SOL    HW230525   1.661   7.071   3.861 -0.3422  0.7863 -1.1727
 9876SOL     OW30526   3.157   6.877   4.675 -0.3981 -0.3841  0.1954
 9876SOL    HW130527   3.090   6.950   4.689  0.9472  0.5335  2.4945
 9876SOL    HW230528   3.240   6.915   4.635  0.9063 -0.1880  2.8408
 9877SOL     OW30529   0.397   5.038   5.006 -0.6657 -0.3061 -0.0365
 9877SOL    HW130530   0.413   5.135   4.991  0.2806 -0.4865 -0.2185
 9877SOL    HW230531   0.434   4.985   4.930 -1.8639 -0.7742 -0.3300
 9878SOL     OW30532   0.882   2.699   5.218 -0.4959 -0.1825  0.0702
 9878SOL    HW130533   0.783   2.685   5.214 -0.9441  1.5971  2.7630
 9878SOL    HW230534   0.926   2.621   5.262 -0.9675 -0.0456  0.7820
 9879SOL     OW30535   2.178   4.828   6.272  0.0339 -0.0596  0.2991
 9879SOL    HW130536   2.244   4.901   6.254  0.1308 -0.2373 -0.0825
 9879SOL    HW230537   2.115   4.821   6.195 -0.2529 -0.0824  0.5353
 9880SOL     OW30538   2.390   0.843   0.187 -0.6962  0.1079 -0.0172
 9880SOL    HW130539   2.310   0.902   0.197 -0.2798  0.5948  0.4845
 9880SOL    HW230540   2.361   0.748   0.181 -1.3195  0.2907  0.0868
 9881SOL     OW30541   4.344   6.423   4.532 -0.5763  1.2165 -0.2477
 9881SOL    HW130542   4.404   6.498   4.562  1.3515  0.5684 -2.1681
 9881SOL    HW230543   4.371   6.338   4.579  1.5443  0.4883 -2.5445
 9882SOL     OW30544   2.980   3.212   3.810  0.3886 -0.1739  0.1295
 9882SOL    HW130545   2.902   3.188   3.868  0.8403 -0.7491  0.5150
 9882SOL    HW230546   3.059   3.155   3.835  1.3577  1.3556  0.6971
 9883SOL     OW30547   1.693   6.545   0.834 -0.4682 -0.4611  0.4706
 9883SOL    HW130548   1.716   6.522   0.740 -0.0142 -1.0658  0.7191
 9883SOL    HW230549   1.761   6.609   0.870  0.7327 -2.0272  1.1134
 9884SOL     OW30550   0.968   4.213   6.051  0.3891  0.3274  0.5815
 9884SOL    HW130551   0.957   4.312   6.058  0.3089  0.2590  1.6814
 9884SOL    HW230552   1.061   4.191   6.021  0.1271  0.7419 -0.5831
 9885SOL     OW30553   0.016   2.986   3.415  0.4090 -0.2984  0.0795
 9885SOL    HW130554   0.030   2.927   3.336 -0.8366  1.1520 -1.2889
 9885SOL    HW230555  -0.061   2.952   3.469  1.7033 -1.6885  1.1021
 9886SOL     OW30556   5.529   6.238   0.809  0.4324 -0.5855 -0.2468
 9886SOL    HW130557   5.536   6.140   0.791  0.2950 -0.4211 -1.2828
 9886SOL    HW230558   5.555   6.288   0.727  1.2912  0.2648  0.5224
 9887SOL     OW30559   5.353   0.115   6.047  0.2989 -0.1097 -0.3763
 9887SOL    HW130560   5.348   0.211   6.018  1.5813  0.7331  1.9214
 9887SOL    HW230561   5.274   0.094   6.105  1.1196  0.2615  0.9138
 9888SOL     OW30562   5.648   6.030   2.350 -0.1526 -0.2907 -0.0229
 9888SOL    HW130563   5.677   5.990   2.437  0.1725  1.3341  0.6567
 9888SOL    HW230564   5.583   5.968   2.304  0.2536 -1.5099  1.0006
 9889SOL     OW30565   6.319   3.948   3.060  0.0243 -0.0407  0.8259
 9889SOL    HW130566   6.373   4.021   3.020  1.7596 -1.3538  0.6695
 9889SOL    HW230567   6.373   3.900   3.129 -0.9687 -1.3504  0.7332
 9890SOL     OW30568   6.657   3.190   6.617  0.2231  0.3383 -0.5222
 9890SOL    HW130569   6.558   3.177   6.622  0.3726 -1.0957 -0.8351
 9890SOL    HW230570   6.681   3.232   6.529 -0.0517  0.1029 -0.7093
 9891SOL     OW30571   3.640   5.079   6.114  0.2512  0.6824 -0.4245
 9891SOL    HW130572   3.737   5.093   6.135  0.2902  0.0788 -0.1772
 9891SOL    HW230573   3.628   4.992   6.067 -0.3621 -0.1259  1.1510
 9892SOL     OW30574   2.875   4.803   4.747  0.5052 -0.2838 -0.1002
 9892SOL    HW130575   2.893   4.719   4.798 -0.8753 -1.4473 -1.4135
 9892SOL    HW230576   2.776   4.811   4.731  0.6815  1.2779 -0.5350
 9893SOL     OW30577   6.824   4.267   4.567 -0.2451  0.3459 -0.2027
 9893SOL    HW130578   6.744   4.277   4.509 -1.1001 -1.6976  0.5418
 9893SOL    HW230579   6.899   4.322   4.529 -1.9906  2.4878 -0.7883
 9894SOL     OW30580   1.348   4.388   6.758  0.0953  0.2060  0.0236
 9894SOL    HW130581   1.274   4.455   6.750 -0.5426 -0.3935  0.7238
 9894SOL    HW230582   1.329   4.310   6.698  0.5774  0.4172 -0.4061
 9895SOL     OW30583   5.837   2.061   6.262 -0.2102  0.1509  0.0514
 9895SOL    HW130584   5.935   2.081   6.261 -0.1277 -0.1311  1.1834
 9895SOL    HW230585   5.821   1.969   6.226  0.0849 -0.3011  1.0364
 9896SOL     OW30586   3.602   3.135   1.307 -0.1994 -0.2275 -0.3840
 9896SOL    HW130587   3.580   3.230   1.326  0.3322 -0.1584 -0.1084
 9896SOL    HW230588   3.696   3.116   1.333 -0.3871 -0.9049 -0.1584
 9897SOL     OW30589   5.642   6.692   1.843  0.3412 -0.1225 -0.4043
 9897SOL    HW130590   5.636   6.790   1.827  1.5298  0.1034  0.4175
 9897SOL    HW230591   5.594   6.643   1.770 -0.3729  1.0617 -0.7509
 9898SOL     OW30592   1.131   5.725   6.784 -0.2042 -0.2334  0.0252
 9898SOL    HW130593   1.119   5.752   6.880 -1.3266 -0.0425 -0.1694
 9898SOL    HW230594   1.198   5.650   6.780  0.9889  0.7396  0.7972
 9899SOL     OW30595   4.011   5.476   2.685 -0.0588 -0.4070 -0.2712
 9899SOL    HW130596   4.075   5.400   2.667 -0.4299 -0.3829 -1.8507
 9899SOL    HW230597   3.945   5.482   2.610 -1.7381 -0.2132  1.1643
 9900SOL     OW30598   1.813   0.866   3.122 -0.4447  0.3515 -0.0971
 9900SOL    HW130599   1.869   0.944   3.152  0.1447 -0.8480  2.1211
 9900SOL    HW230600   1.763   0.830   3.201  2.2187 -3.8752 -0.0301
 9901SOL     OW30601   0.741   3.558   6.066 -0.1908 -0.5164 -0.4670
 9901SOL    HW130602   0.730   3.645   6.019 -1.3880 -0.1726  0.4080
 9901SOL    HW230603   0.715   3.483   6.004 -0.6390 -0.1549 -0.7216
 9902SOL     OW30604   4.677   4.175   2.465  0.0249 -0.1615 -0.9647
 9902SOL    HW130605   4.580   4.196   2.457  0.1658  0.6584 -0.5888
 9902SOL    HW230606   4.694   4.083   2.430 -0.5973  0.3552 -2.7365
 9903SOL     OW30607   4.554   2.355   1.880  0.1410 -0.6606 -0.2637
 9903SOL    HW130608   4.546   2.394   1.788 -0.1752 -3.6816 -1.6436
 9903SOL    HW230609   4.466   2.360   1.927  0.6472  2.2142  0.5533
 9904SOL     OW30610   6.737   2.469   6.885 -0.1929  0.7512  0.1428
 9904SOL    HW130611   6.760   2.374   6.903 -1.0973  0.5164  0.1232
 9904SOL    HW230612   6.773   2.528   6.957  0.2073  0.3719  0.2501
 9905SOL     OW30613   1.641   5.768   6.707  0.5063 -0.5974 -1.2723
 9905SOL    HW130614   1.578   5.745   6.781  1.0596 -0.6912 -0.8216
 9905SOL    HW230615   1.596   5.753   6.619 -0.2003 -0.3564 -0.9545
 9906SOL     OW30616   0.480   2.153   6.298  0.1499 -0.1462 -0.2917
 9906SOL    HW130617   0.401   2.180   6.242 -0.1518 -0.3976  0.0060
 9906SOL    HW230618   0.450   2.090   6.370  0.5337  0.1790  0.1590
 9907SOL     OW30619   1.381   5.998   3.300  0.3790 -0.1969 -0.0125
 9907SOL    HW130620   1.417   6.090   3.316  0.6334 -0.4860  1.1817
 9907SOL    HW230621   1.361   5.955   3.387 -1.2462 -0.6985 -0.6085
 9908SOL     OW30622   1.259   1.898   5.970  1.0131  0.0833 -0.1240
 9908SOL    HW130623   1.305   1.973   6.017  1.2958  0.0433 -0.3275
 9908SOL    HW230624   1.325   1.851   5.912  0.7998 -0.2242 -0.1175
 9909SOL     OW30625   2.950   1.168   2.427 -0.1786  0.0173 -0.1371
 9909SOL    HW130626   2.928   1.080   2.471  0.7765  1.2068  2.9892
 9909SOL    HW230627   3.024   1.154   2.362 -2.3316 -2.0154 -2.3977
 9910SOL     OW30628   6.823   4.140   0.877 -0.0269  0.3856 -0.2518
 9910SOL    HW130629   6.913   4.115   0.842 -0.8289 -0.2188 -1.9735
 9910SOL    HW230630   6.784   4.062   0.926  0.2047  0.5144  0.1435
 9911SOL     OW30631   2.082   6.710   4.650  0.3243  0.2607  0.2479
 9911SOL    HW130632   2.174   6.704   4.689  0.0888 -0.4142  0.7349
 9911SOL    HW230633   2.073   6.794   4.597  0.5257  1.4710  2.0342
 9912SOL     OW30634   5.420   6.118   1.910  0.1864 -0.3837  0.3500
 9912SOL    HW130635   5.454   6.026   1.926  0.8711 -0.2147 -0.0565
 9912SOL    HW230636   5.491   6.171   1.863 -0.9246 -0.2350 -1.2204
 9913SOL     OW30637   5.672   1.934   3.620  0.5104  0.5056  0.2054
 9913SOL    HW130638   5.657   1.838   3.645  1.2077  1.4429  5.0749
 9913SOL    HW230639   5.769   1.949   3.602  0.4619  0.4100 -0.1497
 9914SOL     OW30640   2.832   6.525   4.803 -0.1592 -0.6315  0.0576
 9914SOL    HW130641   2.893   6.448   4.784  0.0368  0.2537 -3.6446
 9914SOL    HW230642   2.737   6.495   4.798 -0.0717 -0.8344 -0.4293
 9915SOL     OW30643   4.936   3.341   2.442 -0.5818 -0.4338  0.6374
 9915SOL    HW130644   4.890   3.259   2.477  2.0846 -1.5961  1.6805
 9915SOL    HW230645   5.015   3.314   2.387  1.3336  1.3580  2.3339
 9916SOL     OW30646   1.755   3.946   3.702 -0.1076 -0.1611 -0.2309
 9916SOL    HW130647   1.675   4.004   3.721 -0.6952 -0.9298 -0.3234
 9916SOL    HW230648   1.747   3.906   3.611 -1.1876 -2.6885  0.8746
 9917SOL     OW30649   4.465   5.417   6.129 -0.0306 -0.1268  0.3292
 9917SOL    HW130650   4.536   5.348   6.142  1.1230  0.9145 -0.2710
 9917SOL    HW230651   4.407   5.420   6.210  0.8560 -0.7133  1.0084
 9918SOL     OW30652   0.235   0.456   6.997  0.3346  0.3834  0.5164
 9918SOL    HW130653   0.327   0.496   6.998  0.7247 -0.4900  1.6384
 9918SOL    HW230654   0.194   0.469   6.907  1.7666  0.3354 -0.1725
 9919SOL     OW30655   2.220   6.654   1.199 -0.3030  0.0044 -0.3267
 9919SOL    HW130656   2.300   6.639   1.142  0.7400  0.3032  1.0000
 9919SOL    HW230657   2.248   6.700   1.284 -2.0495  1.2289 -0.3506
 9920SOL     OW30658   1.449   6.881   1.433 -0.2674 -0.2371 -0.2813
 9920SOL    HW130659   1.349   6.887   1.443 -0.2316 -0.1643  0.0496
 9920SOL    HW230660   1.474   6.789   1.400 -0.3912 -0.5111  0.3715
 9921SOL     OW30661   0.182   6.582   3.860 -0.1836 -0.3089  0.1999
 9921SOL    HW130662   0.232   6.618   3.781 -0.2314 -0.6002  0.0371
 9921SOL    HW230663   0.102   6.532   3.830 -0.7580  0.4215  0.4772
 9922SOL     OW30664   6.018   2.788   1.682  0.1786 -0.5475 -0.1303
 9922SOL    HW130665   6.028   2.837   1.595  3.6912 -1.9297 -0.6839
 9922SOL    HW230666   6.011   2.690   1.664 -0.3177 -0.7629  1.1433
 9923SOL     OW30667   5.430   1.322   6.871 -0.2737 -0.7578  0.0714
 9923SOL    HW130668   5.356   1.286   6.928 -2.0124  1.6473 -0.5519
 9923SOL    HW230669   5.393   1.385   6.803  2.0131 -1.7549 -2.2894
 9924SOL     OW30670   0.228   1.827   3.062  0.1778  0.1944  0.6749
 9924SOL    HW130671   0.319   1.869   3.054 -1.0229  2.6650 -2.4906
 9924SOL    HW230672   0.231   1.734   3.027  1.5529  0.0847  1.0266
 9925SOL     OW30673   0.976   4.544   4.365 -0.2765 -0.1688 -0.0964
 9925SOL    HW130674   0.977   4.456   4.318  1.8367 -0.7871  0.9674
 9925SOL    HW230675   1.019   4.613   4.307  0.5620 -0.4857  0.1354
 9926SOL     OW30676   1.743   3.395   0.447  0.2157  0.2959  0.7613
 9926SOL    HW130677   1.686   3.376   0.367  1.2023 -0.1475  0.1509
 9926SOL    HW230678   1.697   3.463   0.504  0.0025  1.4642 -0.7421
 9927SOL     OW30679   1.385   2.416   2.459 -0.2282 -0.0813 -0.2620
 9927SOL    HW130680   1.453   2.435   2.388  1.6062  1.0192  1.6600
 9927SOL    HW230681   1.324   2.495   2.469 -0.7835 -0.4233 -0.9071
 9928SOL     OW30682   5.904   4.264   0.969  0.5876 -0.0471  0.6550
 9928SOL    HW130683   5.985   4.323   0.970  0.9854 -0.5718  0.0008
 9928SOL    HW230684   5.904   4.207   1.051  0.4286  0.5386  1.0748
 9929SOL     OW30685   3.484   2.571   6.876  0.6329 -0.2702 -0.3558
 9929SOL    HW130686   3.508   2.561   6.780 -0.0304 -0.4195 -0.5079
 9929SOL    HW230687   3.556   2.622   6.923  0.3902  0.8756 -1.1852
 9930SOL     OW30688   5.748   6.530   4.522 -0.0391  0.1643  0.1508
 9930SOL    HW130689   5.710   6.622   4.521  1.6151  0.8825 -0.4877
 9930SOL    HW230690   5.799   6.514   4.437  1.1693 -0.6898  1.0060
 9931SOL     OW30691   0.998   5.491   5.027 -0.1070 -0.2155  0.0859
 9931SOL    HW130692   0.953   5.487   5.116 -2.2862 -0.5088 -0.9564
 9931SOL    HW230693   0.935   5.459   4.957  1.3442  0.5822 -1.6577
 9932SOL     OW30694   0.937   2.049   0.895 -0.6280 -0.1154  1.2126
 9932SOL    HW130695   0.913   2.105   0.975 -1.7884 -0.5826  1.2047
 9932SOL    HW230696   1.010   2.095   0.844 -1.5136  1.3906  1.2352
 9933SOL     OW30697   2.119   3.313   4.513 -0.2175  0.5593 -0.1019
 9933SOL    HW130698   2.137   3.233   4.455  1.1707  1.2562 -0.6870
 9933SOL    HW230699   2.138   3.290   4.608  0.9770  0.4199 -0.3638
 9934SOL     OW30700   0.045   0.532   5.942  0.0281  0.2302  0.0684
 9934SOL    HW130701   0.007   0.582   6.020 -2.2998 -1.3857  0.0943
 9934SOL    HW230702   0.061   0.596   5.866 -0.9894  1.3109  0.7246
 9935SOL     OW30703   4.433   5.782   0.081 -0.3134 -0.1115  0.3806
 9935SOL    HW130704   4.468   5.806   0.171 -1.8077 -1.3375  1.3440
 9935SOL    HW230705   4.426   5.864   0.025 -0.5774  0.8994  1.8364
 9936SOL     OW30706   4.782   6.842   6.037 -0.5241 -0.3677 -0.4096
 9936SOL    HW130707   4.784   6.787   5.953 -0.7300 -1.3249  0.1955
 9936SOL    HW230708   4.690   6.878   6.050  0.1867  2.4403 -2.2247
 9937SOL     OW30709   6.973   1.349   4.091  0.2960  0.0642  0.4189
 9937SOL    HW130710   7.058   1.303   4.116  0.0791  0.2567  1.5890
 9937SOL    HW230711   6.896   1.289   4.108  0.1095  0.3794  0.7245
 9938SOL     OW30712   5.869   1.466   5.802  0.1521 -0.6023 -0.8666
 9938SOL    HW130713   5.964   1.466   5.831  0.0852 -0.3780 -0.6456
 9938SOL    HW230714   5.864   1.483   5.703  0.2589  1.1400 -0.5988
 9939SOL     OW30715   1.456   2.060   1.309 -0.3825 -0.2989  0.1301
 9939SOL    HW130716   1.430   2.154   1.289 -0.0960 -0.4331 -0.9455
 9939SOL    HW230717   1.556   2.055   1.318 -0.5606  0.0970  3.5705
 9940SOL     OW30718   2.388   6.675   3.292 -0.1086 -0.4835 -0.2428
 9940SOL    HW130719   2.414   6.628   3.208  2.3879  0.4772 -0.1007
 9940SOL    HW230720   2.327   6.617   3.346  0.5592 -2.3127 -1.3846
 9941SOL     OW30721   4.761   4.690   6.608  0.6056 -0.7096  0.7158
 9941SOL    HW130722   4.818   4.609   6.600  1.6317  0.1219 -1.1263
 9941SOL    HW230723   4.725   4.715   6.517  0.7992  1.2047  1.1150
 9942SOL     OW30724   4.733   5.147   3.458  1.0521  0.6871 -0.0990
 9942SOL    HW130725   4.675   5.157   3.377  1.5581 -0.4755 -0.6332
 9942SOL    HW230726   4.790   5.066   3.447 -0.1093 -0.5126  2.1789
 9943SOL     OW30727   2.339   4.282   6.672  0.0872  0.0099  0.3999
 9943SOL    HW130728   2.366   4.261   6.766 -0.3674 -1.3374  0.2475
 9943SOL    HW230729   2.413   4.332   6.628  1.5397 -1.8038  0.6315
 9944SOL     OW30730   1.731   5.482   5.660  0.3198 -0.0847  0.8373
 9944SOL    HW130731   1.731   5.572   5.704  1.7139  1.0371 -1.2743
 9944SOL    HW230732   1.770   5.414   5.722 -0.3686  0.8165  2.3117
 9945SOL     OW30733   5.566   4.492   6.912  0.0150  0.3074 -0.0689
 9945SOL    HW130734   5.633   4.551   6.867 -0.2487 -0.3177 -1.3423
 9945SOL    HW230735   5.559   4.406   6.862 -2.3650  0.6837 -0.5293
 9946SOL     OW30736   5.772   1.279   4.036  0.5892 -0.0018  0.4331
 9946SOL    HW130737   5.861   1.293   4.079  0.9421  2.6436 -0.9339
 9946SOL    HW230738   5.766   1.334   3.952 -1.6099 -1.6791 -0.6171
 9947SOL     OW30739   0.471   6.499   5.297  0.0624 -0.3376 -0.1621
 9947SOL    HW130740   0.547   6.437   5.313  1.0162  1.1130  1.1945
 9947SOL    HW230741   0.385   6.451   5.316  0.7748 -1.2086  1.0020
 9948SOL     OW30742   5.861   1.825   4.137  0.5007 -0.1077  0.1908
 9948SOL    HW130743   5.815   1.780   4.214  0.4025 -0.7831 -0.2578
 9948SOL    HW230744   5.844   1.773   4.053  0.0116  1.0132 -0.4217
 9949SOL     OW30745   5.489   5.924   4.381 -0.2263  0.0599 -0.4334
 9949SOL    HW130746   5.564   5.900   4.319  0.0948 -0.3168  0.0978
 9949SOL    HW230747   5.522   5.923   4.475 -0.7694  0.4181 -0.2377
 9950SOL     OW30748   5.052   3.957   5.017  0.0906 -0.1488  0.3686
 9950SOL    HW130749   5.101   4.031   5.064 -0.4843  0.3505  0.1997
 9950SOL    HW230750   5.117   3.901   4.966  0.6665 -0.4194  1.3842
 9951SOL     OW30751   1.579   3.720   2.590 -0.2576  0.8850 -0.3233
 9951SOL    HW130752   1.582   3.785   2.514  1.0588  1.3676  0.1126
 9951SOL    HW230753   1.672   3.689   2.611 -0.8740 -1.5018 -0.8004
 9952SOL     OW30754   2.545   4.511   0.681  0.0009  0.7067 -0.1677
 9952SOL    HW130755   2.614   4.443   0.706 -0.5036 -0.5692 -2.0846
 9952SOL    HW230756   2.590   4.599   0.664  1.4788 -0.4484 -2.8735
 9953SOL     OW30757   6.870   3.644   3.122  0.0612 -0.2244  0.0751
 9953SOL    HW130758   6.844   3.740   3.123  1.1750  0.0839 -0.0144
 9953SOL    HW230759   6.848   3.603   3.211  1.6711  0.6997  0.9321
 9954SOL     OW30760   2.602   1.603   4.773  0.0707 -0.0096 -0.0134
 9954SOL    HW130761   2.508   1.587   4.802  0.2659 -0.9139  0.1307
 9954SOL    HW230762   2.612   1.698   4.743 -0.4765  0.5705  1.5643
 9955SOL     OW30763   6.671   4.671   1.078  0.0665  1.0574 -0.1197
 9955SOL    HW130764   6.609   4.723   1.020 -1.7378  1.1991  1.7849
 9955SOL    HW230765   6.751   4.727   1.101  0.7199  1.0582 -2.2204
 9956SOL     OW30766   1.813   6.464   1.565 -0.4298  0.6733 -0.1238
 9956SOL    HW130767   1.730   6.474   1.511 -0.4717  2.4971  0.2039
 9956SOL    HW230768   1.892   6.493   1.511 -0.3538  1.5411  0.4264
 9957SOL     OW30769   5.555   6.795   3.020 -0.4659  0.5010  0.4863
 9957SOL    HW130770   5.585   6.791   2.925  0.6657 -2.5213  0.8608
 9957SOL    HW230771   5.616   6.738   3.077 -0.8563  2.5296  3.1178
 9958SOL     OW30772   3.593   5.517   6.816 -0.1003  0.0990 -0.4048
 9958SOL    HW130773   3.665   5.502   6.749  0.4726  1.4262 -0.1114
 9958SOL    HW230774   3.617   5.595   6.874 -1.0139 -0.4500  0.7505
 9959SOL     OW30775   3.974   5.938   0.698  0.2357 -0.4399  0.4813
 9959SOL    HW130776   4.024   5.946   0.612 -2.9407  0.7458 -1.3974
 9959SOL    HW230777   3.922   5.852   0.699 -0.3482 -0.0889  0.8781
 9960SOL     OW30778   6.233   6.037   6.801 -0.6824  0.0170 -0.5231
 9960SOL    HW130779   6.296   6.048   6.724 -1.1587  0.5606 -0.8405
 9960SOL    HW230780   6.149   5.993   6.770 -0.6329 -0.3180 -0.1868
 9961SOL     OW30781   2.989   5.990   2.603  0.0725 -0.3870  0.1028
 9961SOL    HW130782   2.948   5.903   2.575  1.2425 -1.3953  1.3528
 9961SOL    HW230783   2.976   6.058   2.531 -1.4322 -1.4061 -0.6327
 9962SOL     OW30784   3.816   5.430   3.718 -0.3935 -0.5878  0.4102
 9962SOL    HW130785   3.724   5.394   3.734  0.2070 -1.9911  0.8287
 9962SOL    HW230786   3.883   5.359   3.736  0.7902  0.4307  0.1354
 9963SOL     OW30787   0.772   2.534   1.210 -0.1376 -0.4224  0.2355
 9963SOL    HW130788   0.856   2.523   1.156 -1.2463  0.0442 -1.6980
 9963SOL    HW230789   0.701   2.574   1.152 -1.5863 -0.4162  1.9392
 9964SOL     OW30790   4.280   3.972   5.736  0.1978 -0.0737  0.2779
 9964SOL    HW130791   4.377   3.958   5.720  0.5928  0.9291  1.5816
 9964SOL    HW230792   4.257   4.068   5.718 -0.4388 -0.1851  0.4639
 9965SOL     OW30793   5.469   6.773   4.182 -0.1177  0.1319  0.5644
 9965SOL    HW130794   5.564   6.773   4.214  0.6786  0.6998 -1.5936
 9965SOL    HW230795   5.464   6.725   4.094 -1.4371  1.8172 -0.3341
 9966SOL     OW30796   1.545   4.640   3.080  0.2156  0.2317 -0.2986
 9966SOL    HW130797   1.479   4.644   3.005 -0.5477  0.9937  0.4026
 9966SOL    HW230798   1.611   4.715   3.070 -0.6405  1.1238  0.4522
 9967SOL     OW30799   1.225   1.798   2.627  0.2326 -0.4409 -0.4057
 9967SOL    HW130800   1.178   1.712   2.645 -0.3428 -0.3902 -1.5565
 9967SOL    HW230801   1.158   1.871   2.613  0.6859 -0.0244 -0.4489
 9968SOL     OW30802   5.593   6.069   0.269 -0.0348  0.1405 -0.6579
 9968SOL    HW130803   5.566   5.997   0.205 -0.1037  0.5681 -1.1117
 9968SOL    HW230804   5.652   6.029   0.340  0.9634 -0.1334 -1.6107
 9969SOL     OW30805   6.400   5.098   4.817  0.5087 -0.4256 -0.6795
 9969SOL    HW130806   6.330   5.137   4.878  1.2756  0.7231 -0.5066
 9969SOL    HW230807   6.368   5.010   4.783  0.4765 -1.6733  2.2468
 9970SOL     OW30808   5.266   6.228   0.343 -0.2739 -0.4755 -0.2495
 9970SOL    HW130809   5.273   6.167   0.422  0.4185 -0.8064 -0.5591
 9970SOL    HW230810   5.324   6.308   0.357 -1.5509  0.3791  0.3720
 9971SOL     OW30811   0.017   4.364   1.454 -0.1420 -0.0245  0.1411
 9971SOL    HW130812   0.086   4.330   1.391  0.7258 -1.2836  1.6917
 9971SOL    HW230813   0.032   4.461   1.471 -0.1335  0.2338 -1.2208
 9972SOL     OW30814   3.977   3.594   0.385  0.1226 -0.1722  0.1575
 9972SOL    HW130815   4.076   3.595   0.399 -0.0658  0.1485  1.6022
 9972SOL    HW230816   3.945   3.499   0.385  0.2053 -0.2210  1.5500
 9973SOL     OW30817   5.307   2.016   3.355 -0.4630 -0.0584  0.2474
 9973SOL    HW130818   5.369   2.093   3.368 -0.3095 -0.4075  1.7674
 9973SOL    HW230819   5.351   1.932   3.386 -2.5902  0.0546  4.2371
 9974SOL     OW30820   0.523   3.583   2.359 -0.2990 -0.0514 -0.5105
 9974SOL    HW130821   0.489   3.550   2.447  0.2561  2.1289  0.5884
 9974SOL    HW230822   0.591   3.519   2.323 -0.4756 -0.9257  0.6871
 9975SOL     OW30823   0.983   6.550   0.571  0.2299 -0.7132  0.3059
 9975SOL    HW130824   1.067   6.566   0.624  0.0165  1.4148  0.0627
 9975SOL    HW230825   0.905   6.592   0.617 -0.2326 -0.2410 -0.8739
 9976SOL     OW30826   2.650   5.292   5.439  0.4586  0.1221  0.2464
 9976SOL    HW130827   2.729   5.238   5.407  0.5275  0.9240 -1.0123
 9976SOL    HW230828   2.584   5.300   5.365  0.0645  1.0517  0.6888
 9977SOL     OW30829   5.220   6.101   4.291 -0.3286 -0.1755 -0.3900
 9977SOL    HW130830   5.147   6.061   4.236 -0.0565  0.1615 -1.0117
 9977SOL    HW230831   5.303   6.045   4.281 -0.7317 -1.0845  1.0427
 9978SOL     OW30832   0.245   0.370   6.053 -0.2525  0.2543  0.3236
 9978SOL    HW130833   0.175   0.323   6.106 -0.1055 -1.2986 -0.7997
 9978SOL    HW230834   0.205   0.450   6.008 -0.7299  0.7061  1.5161
 9979SOL     OW30835   4.292   3.527   5.599  0.3310  0.1596 -0.3918
 9979SOL    HW130836   4.376   3.580   5.588  0.5920 -0.2252 -0.2470
 9979SOL    HW230837   4.251   3.548   5.688  1.1860 -0.9360  0.2810
 9980SOL     OW30838   1.334   0.374   2.404  0.1221 -0.2159  0.4138
 9980SOL    HW130839   1.375   0.325   2.480  0.7627 -0.7240 -0.2447
 9980SOL    HW230840   1.347   0.322   2.319 -1.4905 -0.1759  0.1049
 9981SOL     OW30841   0.787   1.728   6.797  0.2030 -0.0705 -0.0544
 9981SOL    HW130842   0.705   1.777   6.826 -0.0901 -0.7753  0.3355
 9981SOL    HW230843   0.791   1.727   6.697 -0.6827 -0.6726 -0.0985
 9982SOL     OW30844   2.525   0.412   4.830 -0.0952  0.2376 -0.1417
 9982SOL    HW130845   2.599   0.479   4.839 -1.0116  1.3886 -0.8736
 9982SOL    HW230846   2.557   0.334   4.777  1.4927 -0.7150  2.0797
 9983SOL     OW30847   6.191   2.215   2.347  0.3098 -0.0902  0.3969
 9983SOL    HW130848   6.133   2.136   2.327  2.3238 -1.7390  0.7949
 9983SOL    HW230849   6.287   2.187   2.348  1.0922  2.3589  0.6706
 9984SOL     OW30850   0.836   6.905   0.206 -1.0420  0.6240  0.0728
 9984SOL    HW130851   0.840   6.912   0.106 -1.4516 -1.6292 -0.1609
 9984SOL    HW230852   0.783   6.824   0.231 -0.3709  0.7673  2.1246
 9985SOL     OW30853   6.466   3.921   6.593 -0.5212 -0.2667 -0.2307
 9985SOL    HW130854   6.514   3.929   6.505 -1.4993  3.3868 -0.5789
 9985SOL    HW230855   6.368   3.913   6.577 -0.7928  1.3374  0.4773
 9986SOL     OW30856   6.055   4.420   0.341 -0.0590  0.1152 -0.1784
 9986SOL    HW130857   6.096   4.423   0.250  0.6271  0.4014  0.1367
 9986SOL    HW230858   6.052   4.325   0.373  1.3302  0.1830  0.2215
 9987SOL     OW30859   5.428   3.257   1.783  0.0341  0.0048 -0.5319
 9987SOL    HW130860   5.365   3.304   1.844 -0.0938 -1.6637  0.6793
 9987SOL    HW230861   5.377   3.212   1.710 -0.2917 -1.7460  0.7166
 9988SOL     OW30862   5.583   5.655   4.011  0.4344 -0.0978  0.2895
 9988SOL    HW130863   5.663   5.689   3.962  0.8734 -0.1703  0.9338
 9988SOL    HW230864   5.600   5.561   4.042 -0.1841 -0.3736 -0.1896
 9989SOL     OW30865   5.960   3.902   0.807 -0.8464 -0.2643 -0.6751
 9989SOL    HW130866   5.935   3.990   0.765  1.6028  0.6271 -0.4005
 9989SOL    HW230867   5.978   3.916   0.904 -1.5610 -1.3375 -0.3703
 9990SOL     OW30868   1.435   4.696   3.569  0.3645 -0.1508  0.2953
 9990SOL    HW130869   1.383   4.617   3.536 -0.6677  0.9589 -0.8985
 9990SOL    HW230870   1.452   4.759   3.492  2.0541  0.3136  1.0067
 9991SOL     OW30871   2.242   5.255   5.040  0.1998  0.0872  0.1961
 9991SOL    HW130872   2.160   5.201   5.018 -1.1092  2.2318 -0.4277
 9991SOL    HW230873   2.287   5.283   4.955  0.6355  0.3329  0.5055
 9992SOL     OW30874   3.816   4.315   0.470  0.0826 -0.0663  0.0891
 9992SOL    HW130875   3.847   4.291   0.562  1.1837 -1.2016 -0.5344
 9992SOL    HW230876   3.859   4.401   0.442  2.3079 -1.2881 -0.5118
 9993SOL     OW30877   2.359   4.976   4.428  0.0303 -0.2675 -0.2225
 9993SOL    HW130878   2.335   4.880   4.414 -2.3432  0.4890 -1.9415
 9993SOL    HW230879   2.295   5.017   4.492  0.7899  0.2992  0.1962
 9994SOL     OW30880   5.074   4.055   4.208 -0.1264 -0.0385  0.2841
 9994SOL    HW130881   5.167   4.023   4.223 -0.0081 -0.7471 -1.7639
 9994SOL    HW230882   5.022   3.987   4.157 -0.4924  2.0273 -2.3341
 9995SOL     OW30883   2.370   0.551   0.183 -0.8567 -0.3155 -0.0363
 9995SOL    HW130884   2.393   0.523   0.277 -1.0293  0.8955  0.3903
 9995SOL    HW230885   2.280   0.516   0.159 -0.5702 -1.1174  0.0324
 9996SOL     OW30886   4.137   5.654   0.386 -0.2954  0.3343 -0.0946
 9996SOL    HW130887   4.102   5.601   0.464  2.6412 -2.9786 -0.8151
 9996SOL    HW230888   4.165   5.745   0.418  0.7614 -0.8877  2.7623
 9997SOL     OW30889   3.927   2.198   4.160 -0.1599  0.1117  0.2018
 9997SOL    HW130890   3.861   2.165   4.093  0.5299 -1.4409  0.2286
 9997SOL    HW230891   4.010   2.229   4.113  0.7954 -2.0698  0.2907
 9998SOL     OW30892   4.911   0.860   0.886 -0.4344  0.6036  0.5939
 9998SOL    HW130893   4.893   0.888   0.980  0.0154 -0.7229  1.1041
 9998SOL    HW230894   4.842   0.794   0.857  1.3870 -1.7795  1.3168
 9999SOL     OW30895   0.829   1.615   4.359 -0.1847  0.1210 -0.1788
 9999SOL    HW130896   0.744   1.660   4.331 -0.7803  0.0581  1.4262
 9999SOL    HW230897   0.809   1.526   4.398  0.5287  0.4509  0.9838
10000SOL     OW30898   5.579   0.635   2.994  0.2135  0.1654  0.3837
10000SOL    HW130899   5.589   0.642   3.093  0.3439  0.7946  0.3352
10000SOL    HW230900   5.575   0.727   2.955 -0.8921 -0.0674 -0.0966
10001SOL     OW30901   2.709   0.212   0.005 -0.5134  0.1155 -0.0449
10001SOL    HW130902   2.671   0.279   0.069 -0.9826  1.2405 -1.4615
10001SOL    HW230903   2.635   0.162  -0.040 -0.2317  0.1402 -0.5480
10002SOL     OW30904   3.317   0.841   1.351 -0.2796  0.5470 -0.4920
10002SOL    HW130905   3.260   0.797   1.420  0.2426  0.5714 -0.0465
10002SOL    HW230906   3.347   0.931   1.384 -0.7219  0.9273 -1.0905
10003SOL     OW30907   1.806   1.492   0.294  0.2296  0.2514  0.4489
10003SOL    HW130908   1.833   1.488   0.390 -0.3552  1.4643  0.6872
10003SOL    HW230909   1.777   1.585   0.272 -1.0897 -0.3593 -0.5001
10004SOL     OW30910   6.286   5.299   5.669 -0.3609 -0.6301 -0.4875
10004SOL    HW130911   6.247   5.328   5.581  0.0247  0.5532 -0.2832
10004SOL    HW230912   6.324   5.207   5.659  0.2855 -0.2556 -1.7581
10005SOL     OW30913   2.302   4.662   3.819  0.4073  0.7366  0.2880
10005SOL    HW130914   2.228   4.636   3.757  0.6524  0.0846  0.2682
10005SOL    HW230915   2.350   4.581   3.851  0.1060  1.0405  1.5722
10006SOL     OW30916   6.811   6.250   6.531 -0.2838 -0.3813 -0.1403
10006SOL    HW130917   6.873   6.285   6.602 -0.8063 -0.3268  0.2928
10006SOL    HW230918   6.862   6.190   6.469  0.9988  2.1185 -1.7102
10007SOL     OW30919   0.537   5.421   4.005  0.2204 -0.0964 -0.2168
10007SOL    HW130920   0.517   5.333   4.047  1.3433 -0.7444 -0.9793
10007SOL    HW230921   0.616   5.462   4.050  0.0098  0.2889 -0.1934
10008SOL     OW30922   3.648   2.500   5.435 -0.2153  0.2574  0.3737
10008SOL    HW130923   3.605   2.554   5.506 -1.8664  0.7609 -0.9388
10008SOL    HW230924   3.582   2.433   5.400 -0.0252  1.0939 -1.7520
10009SOL     OW30925   1.490   4.430   2.396  0.2585 -0.3057  0.0705
10009SOL    HW130926   1.405   4.469   2.431 -0.9153 -2.7700  0.1300
10009SOL    HW230927   1.550   4.407   2.473  0.7470  0.8392  0.0554
10010SOL     OW30928   3.426   4.001   0.979 -0.2609 -0.7025  0.1794
10010SOL    HW130929   3.488   4.005   1.057 -1.0894  0.8396  0.8256
10010SOL    HW230930   3.334   3.976   1.010 -0.4108 -0.9633 -0.4443
10011SOL     OW30931   1.231   4.508   2.479  0.1233  0.0517 -0.0472
10011SOL    HW130932   1.177   4.590   2.500  0.5413  0.6496 -1.2697
10011SOL    HW230933   1.176   4.446   2.423 -0.5621 -1.0082  1.7038
10012SOL     OW30934   5.208   1.589   2.855 -0.3122  0.1070 -0.3356
10012SOL    HW130935   5.294   1.539   2.844 -1.0161 -1.1028 -0.5188
10012SOL    HW230936   5.199   1.656   2.781  0.1861 -0.1819 -0.6627
10013SOL     OW30937   0.203   4.968   5.636  0.2221  0.0065 -0.6649
10013SOL    HW130938   0.279   5.031   5.651  0.7971 -0.6612 -0.7102
10013SOL    HW230939   0.214   4.888   5.696 -0.4400 -0.1047 -0.6823
10014SOL     OW30940   6.438   7.017   1.662  0.5246  0.5857 -0.1558
10014SOL    HW130941   6.442   7.073   1.745  1.8014  0.3864 -0.0715
10014SOL    HW230942   6.523   7.028   1.610  1.0454 -1.6783  0.1437
10015SOL     OW30943   3.955   4.549   6.089  0.1281  0.2359  0.3350
10015SOL    HW130944   3.924   4.454   6.088  1.7767 -0.3502  0.6480
10015SOL    HW230945   3.882   4.608   6.124 -0.8526 -0.9317  0.3328
10016SOL     OW30946   1.978   0.308   5.849 -0.1976 -0.1533  0.1141
10016SOL    HW130947   1.909   0.334   5.782 -0.7653  0.6044  0.9627
10016SOL    HW230948   1.933   0.279   5.934  0.5124 -0.3661  0.4256
10017SOL     OW30949   4.156   2.133   2.240  0.1133 -0.1474  0.6394
10017SOL    HW130950   4.065   2.134   2.196  0.0860 -0.2039  0.6956
10017SOL    HW230951   4.182   2.038   2.259  0.1453 -0.1247  0.7052
10018SOL     OW30952   4.958   4.560   4.803 -0.5663 -0.5316 -0.1521
10018SOL    HW130953   5.009   4.573   4.718 -0.2907  0.7194  0.1826
10018SOL    HW230954   5.022   4.546   4.879 -0.4317  3.7558  0.7529
10019SOL     OW30955   5.898   1.844   4.734  0.2941  0.4763  0.3907
10019SOL    HW130956   5.960   1.782   4.685 -0.6078 -1.4462  1.5891
10019SOL    HW230957   5.860   1.911   4.670  0.2621 -1.0536 -1.2541
10020SOL     OW30958   6.071   2.150   3.209  0.4909 -0.0105  0.1685
10020SOL    HW130959   6.144   2.215   3.187 -0.5899  0.5071 -2.1779
10020SOL    HW230960   6.109   2.057   3.210  1.6255  0.4283  1.4803
10021SOL     OW30961   2.233   4.228   0.810  0.0235  0.1813 -0.4771
10021SOL    HW130962   2.214   4.137   0.773  0.8971  0.0491 -0.6214
10021SOL    HW230963   2.178   4.296   0.762  0.6782 -0.0607 -1.6173
10022SOL     OW30964   2.430   0.207   0.654 -0.2377  0.0173 -0.4020
10022SOL    HW130965   2.518   0.234   0.614 -0.8869  1.2191 -1.0961
10022SOL    HW230966   2.358   0.267   0.619 -1.1220 -0.0392  1.2249
10023SOL     OW30967   2.981   5.173   6.474  0.2534  0.4126  0.4741
10023SOL    HW130968   3.056   5.127   6.522  1.3388  0.0551 -1.4582
10023SOL    HW230969   3.014   5.257   6.432 -0.7563  0.9144  0.6541
10024SOL     OW30970   3.249   4.771   1.497 -0.7384  0.2094  0.2297
10024SOL    HW130971   3.239   4.721   1.410 -1.5987 -0.0909  0.4896
10024SOL    HW230972   3.159   4.781   1.539 -0.5122  1.5819  0.4142
10025SOL     OW30973   2.257   2.484   2.085  0.4127 -0.2252  0.2701
10025SOL    HW130974   2.248   2.584   2.077 -0.9158 -0.2079  1.6853
10025SOL    HW230975   2.343   2.463   2.131  1.0622  0.2122 -0.6984
10026SOL     OW30976   6.955   1.734   3.432 -0.0697 -0.2273 -0.2291
10026SOL    HW130977   6.883   1.691   3.487  1.3140  0.0560  1.9017
10026SOL    HW230978   6.919   1.818   3.391 -1.1643 -0.4608  0.1986
10027SOL     OW30979   0.284   3.195   4.865 -0.7487 -0.2030  0.6108
10027SOL    HW130980   0.330   3.136   4.798 -1.3220  0.2401 -0.1956
10027SOL    HW230981   0.351   3.252   4.911 -0.5090  1.0524 -1.1591
10028SOL     OW30982   3.943   1.102   0.966 -0.4910 -0.4817  0.1505
10028SOL    HW130983   3.864   1.153   0.998 -0.9042  0.0010 -1.5401
10028SOL    HW230984   4.017   1.165   0.943 -0.5682 -0.7107 -0.7796
10029SOL     OW30985   0.116   2.752   3.977  0.1486 -0.0803 -0.2465
10029SOL    HW130986   0.205   2.774   4.016 -0.1359 -0.4201  0.6141
10029SOL    HW230987   0.104   2.653   3.975  0.1205 -0.0724 -1.1422
10030SOL     OW30988   3.400   0.015   2.364  0.3739  0.0780 -0.2080
10030SOL    HW130989   3.498  -0.002   2.366  0.3928  0.2388  0.8343
10030SOL    HW230990   3.368   0.039   2.456 -0.8681 -1.2710 -0.2354
10031SOL     OW30991   4.335   4.000   5.371 -0.0322 -0.1491 -0.3841
10031SOL    HW130992   4.403   4.050   5.317  1.2861 -1.9457 -0.4959
10031SOL    HW230993   4.330   3.906   5.338 -1.3624 -0.5028  0.7473
10032SOL     OW30994   4.776   0.641   6.559  0.1629  0.6311  0.2770
10032SOL    HW130995   4.713   0.713   6.589 -1.3982  1.0004 -3.3266
10032SOL    HW230996   4.841   0.679   6.493  1.4375 -0.6564  0.7444
10033SOL     OW30997   2.714   0.913   3.761  0.1234  0.1237 -0.2374
10033SOL    HW130998   2.648   0.969   3.710 -1.1506 -1.0270  0.0894
10033SOL    HW230999   2.776   0.973   3.811 -1.3131  1.2650  0.2581
10034SOL     OW31000   2.941   6.840   3.108 -0.5617 -0.5460 -1.0538
10034SOL    HW131001   2.906   6.933   3.113 -1.1366 -0.8157  1.4738
10034SOL    HW231002   3.031   6.836   3.152 -1.0436 -1.3678 -0.0996
10035SOL     OW31003   6.298   3.411   1.029  0.4632  0.5594  0.6358
10035SOL    HW131004   6.270   3.359   0.948  1.9259 -0.4138  0.7126
10035SOL    HW231005   6.300   3.508   1.007 -1.0116  0.4978  0.0881
10036SOL     OW31006   5.869   0.942   0.345  0.2638 -0.2184 -0.2895
10036SOL    HW131007   5.968   0.953   0.336  0.4854  0.3481  2.0282
10036SOL    HW231008   5.849   0.849   0.375  0.3638  0.3270  1.6106
10037SOL     OW31009   6.574   6.208   5.848  0.1959 -0.4033 -0.1458
10037SOL    HW131010   6.509   6.212   5.771 -2.0684  2.5719  1.7063
10037SOL    HW231011   6.616   6.297   5.861  0.7271 -0.9026  1.8944
10038SOL     OW31012   4.662   7.002   0.396  0.7844  0.4214  0.5975
10038SOL    HW131013   4.632   7.066   0.467  1.8068  0.4374  1.0290
10038SOL    HW231014   4.738   6.947   0.431 -0.3360 -1.3478  0.3860
10039SOL     OW31015   5.335   5.279   3.749  0.0038 -0.3875 -0.3437
10039SOL    HW131016   5.355   5.370   3.784  0.5862 -0.8135  0.4788
10039SOL    HW231017   5.385   5.264   3.664 -0.9565  0.4440 -1.0764
10040SOL     OW31018   5.638   6.781   6.658  0.0972  0.0270 -0.1260
10040SOL    HW131019   5.662   6.869   6.618 -1.0267  0.9638  1.1600
10040SOL    HW231020   5.630   6.790   6.758 -2.2523 -0.9278 -0.1430
10041SOL     OW31021   4.902   5.825   4.135  0.1438 -0.0888 -0.3416
10041SOL    HW131022   4.930   5.759   4.066  2.6481 -2.0425  2.2758
10041SOL    HW231023   4.942   5.914   4.115 -1.0772  0.0238 -2.5321
10042SOL     OW31024   6.966   1.426   5.584 -0.2395 -0.4368 -0.5776
10042SOL    HW131025   6.996   1.391   5.495 -1.7132  0.6088 -1.5326
10042SOL    HW231026   7.043   1.471   5.630  0.9577 -2.3546 -0.5698
10043SOL     OW31027   1.834   0.173   4.646 -0.2413  0.3914  0.2214
10043SOL    HW131028   1.911   0.123   4.685  0.6539  0.6993 -1.0688
10043SOL    HW231029   1.827   0.153   4.548 -0.5142  1.9529 -0.1031
10044SOL     OW31030   2.976   2.272   4.312  0.0429 -0.1689  0.9398
10044SOL    HW131031   2.953   2.178   4.336  1.4712 -0.8441 -0.1496
10044SOL    HW231032   3.068   2.275   4.271 -0.7657  1.3933 -0.9535
10045SOL     OW31033   4.768   1.104   3.979 -0.3507 -0.1571  1.2280
10045SOL    HW131034   4.751   1.023   3.923  1.0866  0.5825 -0.3733
10045SOL    HW231035   4.710   1.101   4.060 -0.5978 -2.5849  1.0304
10046SOL     OW31036   6.886   2.432   1.066  0.2569 -0.2672 -0.1027
10046SOL    HW131037   6.961   2.371   1.041 -0.0299 -0.6569 -0.0144
10046SOL    HW231038   6.802   2.379   1.076 -0.0050  0.1523 -0.0834
10047SOL     OW31039   7.006   2.396   3.353 -0.1544  0.2797 -0.1367
10047SOL    HW131040   7.052   2.329   3.411  0.6111 -0.4433 -1.5319
10047SOL    HW231041   6.970   2.350   3.272 -0.6813  1.3600 -0.5296
10048SOL     OW31042   2.398   0.493   3.153 -0.6410 -0.3791 -0.1980
10048SOL    HW131043   2.350   0.572   3.115 -1.6429  0.7195  3.0390
10048SOL    HW231044   2.337   0.441   3.212  0.9180 -1.6860  0.3437
10049SOL     OW31045   1.411   0.609   0.388 -0.8782  0.6570 -0.4526
10049SOL    HW131046   1.369   0.687   0.340 -1.1016  1.4623  0.9873
10049SOL    HW231047   1.420   0.631   0.485 -0.4586 -0.9381 -0.1048
10050SOL     OW31048   6.173   3.539   5.292  0.0736  0.6376  0.2694
10050SOL    HW131049   6.238   3.477   5.249  0.6058  1.2187  0.2209
10050SOL    HW231050   6.081   3.521   5.257 -0.0483 -1.1727  1.4184
10051SOL     OW31051   5.093   3.424   4.156  0.0837  0.1965  0.3356
10051SOL    HW131052   5.143   3.507   4.180  0.6407 -0.5889  2.0955
10051SOL    HW231053   5.141   3.344   4.193 -2.1132 -0.6433  1.5586
10052SOL     OW31054   2.570   1.976   2.294  0.4618 -0.1862  0.1442
10052SOL    HW131055   2.630   2.002   2.219  0.5432  0.2661  0.3630
10052SOL    HW231056   2.620   1.984   2.381 -0.5276  2.3961  0.5710
10053SOL     OW31057   2.804   6.494   3.305  0.0978  0.3955  0.2652
10053SOL    HW131058   2.735   6.522   3.239 -0.0215 -0.0342  0.2000
10053SOL    HW231059   2.886   6.464   3.256  0.3187  0.8657  0.3408
10054SOL     OW31060   3.169   5.592   0.088  0.1967 -0.3633 -0.0406
10054SOL    HW131061   3.121   5.677   0.066  1.7866  0.9075  1.0882
10054SOL    HW231062   3.105   5.525   0.124 -0.9058  0.8409  0.3005
10055SOL     OW31063   5.854   1.848   7.012 -0.0605 -0.2417 -0.5723
10055SOL    HW131064   5.847   1.751   7.033 -0.4947 -0.1140 -0.0971
10055SOL    HW231065   5.907   1.894   7.083  0.8856 -0.2669 -1.2438
10056SOL     OW31066   6.399   5.790   1.681 -0.6083 -1.1015 -0.0798
10056SOL    HW131067   6.301   5.785   1.661 -0.1492 -3.3752 -2.2426
10056SOL    HW231068   6.438   5.698   1.682  1.8870 -0.1547 -1.3811
10057SOL     OW31069   3.033   0.721   3.988  0.0791  0.4339 -0.5850
10057SOL    HW131070   3.015   0.783   4.065  0.8969 -0.8238  0.6629
10057SOL    HW231071   3.080   0.772   3.916  1.0012  1.2259  0.5283
10058SOL     OW31072   0.036   1.232   3.363  0.0309  0.1689  0.3451
10058SOL    HW131073   0.078   1.141   3.358 -0.6646 -0.1769  0.6538
10058SOL    HW231074   0.106   1.300   3.382  0.8627 -0.0500 -1.6867
10059SOL     OW31075   5.877   6.236   6.319  0.9485  0.4640 -0.4686
10059SOL    HW131076   5.931   6.313   6.353  0.5098  0.5734 -0.0156
10059SOL    HW231077   5.780   6.258   6.325  0.7351 -0.6938  1.1298
10060SOL     OW31078   2.222   0.269   3.172  0.6413  0.0108  0.0671
10060SOL    HW131079   2.164   0.206   3.122 -0.6360  0.9906  0.2613
10060SOL    HW231080   2.318   0.244   3.159  0.1959 -1.5707 -0.3509
10061SOL     OW31081   6.144   1.152   2.902 -0.0482  0.5041 -0.3072
10061SOL    HW131082   6.056   1.157   2.855  0.7390  0.7348 -1.8128
10061SOL    HW231083   6.192   1.240   2.891  0.5962  0.1966  0.0224
10062SOL     OW31084   4.299   1.001   4.896  0.6383  0.3778  0.3929
10062SOL    HW131085   4.360   1.012   4.974 -0.2454 -1.1271  1.3534
10062SOL    HW231086   4.274   1.091   4.859  1.8692  1.0677  1.1897
10063SOL     OW31087   1.853   2.991   1.716 -0.4693  0.2236 -1.2783
10063SOL    HW131088   1.766   2.944   1.726  0.7828 -2.2407 -1.0189
10063SOL    HW231089   1.884   3.023   1.806  0.2245 -1.5827 -0.8288
10064SOL     OW31090   4.340   0.788   4.415 -0.3149  0.0067 -0.2440
10064SOL    HW131091   4.269   0.756   4.478 -0.7993  0.0881 -0.7445
10064SOL    HW231092   4.422   0.813   4.468 -0.1517 -1.4124  0.2142
10065SOL     OW31093   3.431   1.616   2.072  0.2628  0.1864  0.0567
10065SOL    HW131094   3.360   1.555   2.037  0.8945  1.0210 -3.0116
10065SOL    HW231095   3.394   1.708   2.084  1.0552  1.1206 -3.4483
10066SOL     OW31096   0.815   2.000   4.557 -0.1416 -0.2063  0.0214
10066SOL    HW131097   0.844   2.018   4.652  1.6145  2.7891 -0.9559
10066SOL    HW231098   0.870   1.926   4.519 -1.4072 -2.0122  1.4741
10067SOL     OW31099   5.822   3.066   6.062  0.1084  0.1127 -0.5454
10067SOL    HW131100   5.772   3.152   6.072 -2.1230 -1.2658  1.6622
10067SOL    HW231101   5.772   3.006   5.999  1.5086  0.2946 -1.8772
10068SOL     OW31102   4.461   2.498   3.677  0.7218  0.2334  0.4834
10068SOL    HW131103   4.483   2.565   3.607 -0.9949  1.8937  1.4404
10068SOL    HW231104   4.496   2.408   3.650 -1.0175  0.4791 -3.1494
10069SOL     OW31105   0.566   0.222   4.104 -0.0392  0.0779  0.2248
10069SOL    HW131106   0.509   0.276   4.167  0.0168  0.8965 -0.4130
10069SOL    HW231107   0.571   0.268   4.016  1.6432  0.0378  0.2682
10070SOL     OW31108   0.138   4.981   4.869 -0.2505  0.2367 -0.3062
10070SOL    HW131109   0.204   5.019   4.935  1.3026 -1.4918 -0.7883
10070SOL    HW231110   0.046   5.008   4.896  0.5003  1.4321  1.2956
10071SOL     OW31111   4.954   6.522   4.000  0.5706 -0.0878 -0.3498
10071SOL    HW131112   4.860   6.558   4.008  0.4000 -0.2327 -1.4975
10071SOL    HW231113   5.019   6.597   4.013  0.3097  0.0190  0.4298
10072SOL     OW31114   2.694   5.817   4.763  0.6650 -0.7770  0.0985
10072SOL    HW131115   2.793   5.826   4.760  0.6507 -0.7818 -0.5761
10072SOL    HW231116   2.667   5.727   4.726  0.5320 -1.7335  2.3704
10073SOL     OW31117   5.734   4.707   4.369  0.1556  0.6560  0.2977
10073SOL    HW131118   5.806   4.745   4.427  0.1386  0.7355  0.2668
10073SOL    HW231119   5.675   4.647   4.424  1.3684 -0.9403 -0.0657
10074SOL     OW31120   0.243   1.514   4.050  0.2952  0.1181 -0.5013
10074SOL    HW131121   0.162   1.561   4.086  0.0187 -0.2553 -0.6231
10074SOL    HW231122   0.319   1.578   4.043  0.4301  0.1506  0.9603
10075SOL     OW31123   0.693   3.601   1.515 -0.3200 -0.3039  0.0932
10075SOL    HW131124   0.667   3.615   1.420 -0.8220 -0.1988  0.2436
10075SOL    HW231125   0.617   3.559   1.565  0.5764 -2.0884  0.0278
10076SOL     OW31126   0.595   2.126   3.331 -0.3127  0.1308  0.2409
10076SOL    HW131127   0.623   2.150   3.423  1.0632  0.9042 -0.3436
10076SOL    HW231128   0.671   2.083   3.283 -0.4288  1.3021 -1.0709
10077SOL     OW31129   1.422   2.922   5.040  0.2442 -0.2984  0.3521
10077SOL    HW131130   1.422   3.021   5.058 -4.5360 -0.1306  0.8680
10077SOL    HW231131   1.393   2.907   4.945 -2.2713 -1.0446  1.1507
10078SOL     OW31132   0.555   0.421   4.538  0.2889  0.2953 -0.1537
10078SOL    HW131133   0.464   0.461   4.554 -0.4679 -1.4557  0.1350
10078SOL    HW231134   0.597   0.399   4.625  0.9537  0.9464 -0.2958
10079SOL     OW31135   1.058   2.580   2.318  0.0601 -0.0384 -0.4027
10079SOL    HW131136   0.971   2.531   2.323  1.1846 -2.2007 -0.9917
10079SOL    HW231137   1.041   2.677   2.301 -2.2293 -0.3158  0.0555
10080SOL     OW31138   3.768   0.543   6.585 -0.1791  0.7281  0.4040
10080SOL    HW131139   3.848   0.496   6.547 -1.8293 -3.7170  1.8659
10080SOL    HW231140   3.703   0.562   6.511  0.8665  1.5841 -0.3340
10081SOL     OW31141   5.975   6.483   0.648  0.3161  0.3626  0.3134
10081SOL    HW131142   5.981   6.574   0.688 -0.0330  0.7749 -0.5490
10081SOL    HW231143   5.916   6.426   0.705  1.9623  0.0970  1.8535
10082SOL     OW31144   1.103   3.719   1.340  0.9746 -0.2382 -0.2219
10082SOL    HW131145   1.073   3.656   1.411  0.3009  0.0342 -0.2604
10082SOL    HW231146   1.111   3.811   1.379  4.5316 -0.7294  0.5456
10083SOL     OW31147   6.316   1.024   1.185 -0.2988  0.1593 -0.0355
10083SOL    HW131148   6.314   0.961   1.263  0.5351  1.2221  0.8693
10083SOL    HW231149   6.407   1.023   1.143 -0.8873 -0.8147 -1.3799
10084SOL     OW31150   3.840   0.012   5.425 -0.5175  0.2683 -0.3369
10084SOL    HW131151   3.860  -0.053   5.498  1.0888 -0.3636 -1.3090
10084SOL    HW231152   3.824   0.103   5.465 -2.1240 -0.5382  0.9686
10085SOL     OW31153   0.915   5.256   1.444  0.1216  0.0483 -0.2453
10085SOL    HW131154   0.818   5.280   1.454  0.0335 -0.6832  0.8405
10085SOL    HW231155   0.969   5.304   1.512  0.1852 -1.3329  0.7259
10086SOL     OW31156   5.167   6.034   1.890  0.3367 -0.0759  0.3814
10086SOL    HW131157   5.196   5.945   1.855  0.3766  0.6649 -1.5770
10086SOL    HW231158   5.244   6.098   1.887  0.3105  0.0488  1.7672
10087SOL     OW31159   0.404   1.900   5.390  0.3201  0.5806 -0.1177
10087SOL    HW131160   0.419   1.903   5.291  0.7650 -0.8069 -0.1044
10087SOL    HW231161   0.491   1.883   5.436 -0.1584 -0.5846  0.3884
10088SOL     OW31162   0.796   6.148   0.443 -0.0851  0.5122  0.1721
10088SOL    HW131163   0.769   6.106   0.357 -0.0067 -0.3217  0.5457
10088SOL    HW231164   0.714   6.172   0.495 -0.1454 -0.5269  0.5900
10089SOL     OW31165   4.501   2.094   3.458  0.4982 -0.0578 -0.4104
10089SOL    HW131166   4.417   2.041   3.465  0.1527  0.2639 -1.8846
10089SOL    HW231167   4.571   2.041   3.410  0.9650 -0.1041  0.3008
10090SOL     OW31168   2.126   4.976   1.286 -0.4386 -0.7592  0.1751
10090SOL    HW131169   2.068   4.899   1.260 -2.4703 -0.1776  2.5547
10090SOL    HW231170   2.070   5.057   1.300  1.1065  0.1501  1.4747
10091SOL     OW31171   0.354   2.977   5.356  0.1133 -0.9379  0.0881
10091SOL    HW131172   0.333   3.066   5.314 -1.3563 -1.5491 -0.5472
10091SOL    HW231173   0.439   2.984   5.408  0.8472  0.4245 -1.2088
10092SOL     OW31174   1.265   2.898   5.523  0.6951  0.1725  0.3448
10092SOL    HW131175   1.314   2.896   5.437 -0.8034 -0.2645 -0.5459
10092SOL    HW231176   1.303   2.829   5.585 -1.1783 -3.0805 -1.7770
10093SOL     OW31177   1.246   5.893   6.064  0.8474 -0.3445 -0.5276
10093SOL    HW131178   1.254   5.807   6.113 -1.7491  0.7490  2.1582
10093SOL    HW231179   1.170   5.888   5.999  0.4272  0.0103 -0.0728
10094SOL     OW31180   1.997   6.519   1.828  0.6776  0.5937 -0.8037
10094SOL    HW131181   2.012   6.593   1.761  0.3113  0.7190 -0.7506
10094SOL    HW231182   1.960   6.558   1.912 -1.7239  0.1192 -1.5469
10095SOL     OW31183   5.287   0.134   4.379  0.1830  0.2495  0.3326
10095SOL    HW131184   5.348   0.210   4.402  0.9500 -0.4266  0.5837
10095SOL    HW231185   5.276   0.129   4.280 -3.6100  3.5526  0.3720
10096SOL     OW31186   6.357   5.854   2.727 -0.5742  0.1980  0.2302
10096SOL    HW131187   6.443   5.895   2.758 -0.6382  0.4580  0.0666
10096SOL    HW231188   6.351   5.861   2.627 -0.3786 -0.6141  0.1574
10097SOL     OW31189   0.388   1.656   2.283 -0.1135 -0.4927  0.5008
10097SOL    HW131190   0.317   1.591   2.309  0.8069 -1.1780  1.3812
10097SOL    HW231191   0.472   1.636   2.333  1.4561 -1.2016 -2.1791
10098SOL     OW31192   3.004   0.747   6.142 -0.1468 -1.0194 -0.6666
10098SOL    HW131193   3.013   0.763   6.241 -1.2400 -2.0958 -0.3785
10098SOL    HW231194   2.970   0.655   6.126  0.3785 -0.9889 -2.0809
10099SOL     OW31195   0.427   4.171   0.898 -0.0283  0.3721 -0.7517
10099SOL    HW131196   0.332   4.191   0.874  0.3936  0.4687 -2.4449
10099SOL    HW231197   0.482   4.254   0.891  0.7358 -0.2445 -2.7610
10100SOL     OW31198   3.905   2.102   4.816 -0.7794 -0.6162  0.4831
10100SOL    HW131199   3.942   2.127   4.905 -0.4779 -0.2743  0.2666
10100SOL    HW231200   3.961   2.143   4.744 -1.0329 -0.8700  0.1356
10101SOL     OW31201   6.724   4.066   2.772 -0.1239  0.5895  0.1626
10101SOL    HW131202   6.819   4.045   2.798  0.1520 -0.0711 -1.2802
10101SOL    HW231203   6.690   3.995   2.710 -1.6175  0.7592  0.7436
10102SOL     OW31204   0.549   1.519   2.543  0.2829 -0.0178 -0.0298
10102SOL    HW131205   0.516   1.593   2.602  0.5783  2.2500 -2.5011
10102SOL    HW231206   0.488   1.440   2.552  0.1233  0.3441  2.9327
10103SOL     OW31207   1.708   1.000   3.422  0.2708 -0.3757  0.1043
10103SOL    HW131208   1.618   1.028   3.389 -0.1970 -2.3354 -0.4065
10103SOL    HW231209   1.778   1.034   3.359 -0.2139  0.0564 -0.2127
10104SOL     OW31210   1.668   2.293   3.718 -0.1909 -0.8944 -0.5214
10104SOL    HW131211   1.725   2.307   3.799  1.6185 -1.2064 -1.6811
10104SOL    HW231212   1.686   2.202   3.681  0.5584 -0.0276 -2.3996
10105SOL     OW31213   1.630   1.857   1.140  0.2122 -0.1556 -0.4348
10105SOL    HW131214   1.659   1.932   1.200  2.4253 -2.6087  1.8379
10105SOL    HW231215   1.559   1.803   1.186 -0.2425 -0.3671 -1.3587
10106SOL     OW31216   6.326   4.113   1.889 -0.1250 -0.0608 -0.5620
10106SOL    HW131217   6.310   4.144   1.983 -1.1068 -0.5718 -0.5417
10106SOL    HW231218   6.342   4.192   1.830 -0.6569  0.3538 -0.1651
10107SOL     OW31219   6.919   3.476   6.573  0.0015 -0.0766 -0.4942
10107SOL    HW131220   6.820   3.467   6.563  0.1164 -0.3786 -1.4489
10107SOL    HW231221   6.964   3.395   6.534  0.6448  0.3315 -0.6180
10108SOL     OW31222   6.815   6.747   1.571  0.3018  0.2791 -1.1443
10108SOL    HW131223   6.911   6.720   1.584 -0.2873 -0.4358  3.9285
10108SOL    HW231224   6.760   6.667   1.551  0.3584  0.0159 -0.3030
10109SOL     OW31225   3.474   5.064   1.846 -0.0158  0.2959  0.2136
10109SOL    HW131226   3.502   5.012   1.926 -0.9941  0.2784  0.5613
10109SOL    HW231227   3.402   5.014   1.797  0.1940  0.5580 -0.3669
10110SOL     OW31228   5.183   6.180   3.824  0.0494  0.6845 -0.8482
10110SOL    HW131229   5.111   6.144   3.765 -3.0857 -0.4945  3.2194
10110SOL    HW231230   5.266   6.125   3.813 -1.3311 -1.3009 -2.0554
10111SOL     OW31231   6.301   2.339   5.622 -0.4715  0.2597  0.0708
10111SOL    HW131232   6.310   2.435   5.649 -1.1801  0.5933 -0.8470
10111SOL    HW231233   6.244   2.332   5.541  1.6080 -0.7268 -1.3901
10112SOL     OW31234   4.966   3.091   4.812 -0.0360  0.4492 -0.0155
10112SOL    HW131235   4.999   3.184   4.829 -1.2786  0.7864  0.7044
10112SOL    HW231236   4.960   3.041   4.899  0.4286 -0.2415 -0.3726
10113SOL     OW31237   4.453   0.811   5.625  0.3041  0.0310  0.3500
10113SOL    HW131238   4.533   0.751   5.629  1.6941  1.7032 -0.8079
10113SOL    HW231239   4.460   0.870   5.545 -2.4614 -0.1974 -0.1538
10114SOL     OW31240   0.197   5.986   1.327  0.8702 -0.5116 -0.0217
10114SOL    HW131241   0.222   6.072   1.283 -0.5240 -0.9033 -1.6784
10114SOL    HW231242   0.099   5.986   1.345  1.3735 -0.2805  3.4104
10115SOL     OW31243   2.499   1.773   5.202  0.4864 -0.4605  0.0473
10115SOL    HW131244   2.436   1.794   5.127 -0.2883 -1.5342  0.3691
10115SOL    HW231245   2.459   1.703   5.261 -0.3109  2.4739  3.2954
10116SOL     OW31246   0.858   0.367   6.616 -0.1041 -0.4824 -0.0615
10116SOL    HW131247   0.850   0.367   6.716 -0.4857 -0.5661 -0.0881
10116SOL    HW231248   0.949   0.398   6.589  0.5751 -2.0163  0.3543
10117SOL     OW31249   0.511   5.652   4.655  0.3792 -0.3357  0.0879
10117SOL    HW131250   0.549   5.559   4.653 -1.0022 -0.9278 -0.3387
10117SOL    HW231251   0.446   5.660   4.731  0.6525  0.3507  0.2546
10118SOL     OW31252   0.137   5.353   2.651  0.1434  0.1227  0.3739
10118SOL    HW131253   0.189   5.280   2.606  0.2918 -1.7154  3.2963
10118SOL    HW231254   0.200   5.428   2.675  0.1277  0.9717 -1.9336
10119SOL     OW31255   2.103   4.830   4.764 -0.4708 -0.5539 -0.3831
10119SOL    HW131256   2.139   4.794   4.850 -1.7057 -1.0399 -0.0490
10119SOL    HW231257   2.131   4.770   4.689 -1.0052 -1.2231 -0.0596
10120SOL     OW31258   0.525   4.722   3.306  0.5246 -0.0046  0.3727
10120SOL    HW131259   0.436   4.696   3.344  0.1159  0.3746 -0.3091
10120SOL    HW231260   0.597   4.675   3.357 -0.0950 -0.9109  0.4541
10121SOL     OW31261   0.771   4.020   6.061 -0.4004 -0.2991  0.4468
10121SOL    HW131262   0.831   4.100   6.055 -1.8479  0.7803  0.0157
10121SOL    HW231263   0.762   3.993   6.157  2.0757 -1.5384  0.4066
10122SOL     OW31264   6.669   1.769   1.499  0.4867  0.3380  0.2748
10122SOL    HW131265   6.672   1.680   1.454 -1.1956  0.6754 -0.6199
10122SOL    HW231266   6.576   1.787   1.530  0.6009  2.0976 -0.2744
10123SOL     OW31267   0.777   6.017   1.231 -0.1693  0.8585  0.5641
10123SOL    HW131268   0.849   6.085   1.242 -0.2121  0.7509  1.6184
10123SOL    HW231269   0.817   5.925   1.233 -0.4729  0.7380  2.7390
10124SOL     OW31270   1.650   2.507   5.955 -0.2695 -0.0175 -0.0235
10124SOL    HW131271   1.712   2.459   6.018 -0.4136 -0.1582  0.0111
10124SOL    HW231272   1.558   2.508   5.994 -0.4501 -0.4740 -0.4303
10125SOL     OW31273   2.470   1.297   2.386 -0.7151 -0.4179 -0.0794
10125SOL    HW131274   2.433   1.257   2.470 -2.1328  0.4653 -0.2378
10125SOL    HW231275   2.569   1.301   2.391 -0.7848 -0.2006  1.6544
10126SOL     OW31276   0.818   4.610   6.860  0.1215 -0.2714 -0.1719
10126SOL    HW131277   0.744   4.581   6.921 -0.6314 -1.7478 -1.7182
10126SOL    HW231278   0.780   4.658   6.781  0.8019 -0.9819 -0.9454
10127SOL     OW31279   3.959   3.271   5.651 -0.0906  0.0945  0.0930
10127SOL    HW131280   3.965   3.329   5.570 -1.5335 -0.1055 -0.1931
10127SOL    HW231281   3.914   3.322   5.725 -1.3582 -0.6349 -0.1578
10128SOL     OW31282   0.843   1.409   2.289 -0.0605  0.6070  0.0448
10128SOL    HW131283   0.772   1.409   2.218  0.9477 -0.2211 -1.0102
10128SOL    HW231284   0.897   1.493   2.281 -0.4812  0.9152  0.4000
10129SOL     OW31285   4.554   1.949   4.044  0.0279 -0.2482 -0.5785
10129SOL    HW131286   4.639   2.000   4.055  0.4406 -0.4190 -2.5292
10129SOL    HW231287   4.574   1.851   4.038 -0.3779 -0.3422 -0.4294
10130SOL     OW31288   1.268   2.545   3.216  0.5354  0.6074 -0.3217
10130SOL    HW131289   1.234   2.514   3.126 -0.1903 -1.1526  0.5059
10130SOL    HW231290   1.363   2.516   3.228  0.1139 -0.6712  0.1161
10131SOL     OW31291   1.383   0.305   3.401 -0.2505 -0.4148 -0.1662
10131SOL    HW131292   1.376   0.237   3.474 -0.1689  0.2605  0.4751
10131SOL    HW231293   1.297   0.308   3.350  0.3175 -2.2527 -1.3479
10132SOL     OW31294   1.868   0.300   2.900 -0.0484  0.8084 -0.2435
10132SOL    HW131295   1.890   0.324   2.995  1.1679  2.3671 -0.8736
10132SOL    HW231296   1.927   0.225   2.870 -0.5935  0.1535  0.2761
10133SOL     OW31297   6.890   6.339   1.564 -0.1024  0.6752 -0.5437
10133SOL    HW131298   6.963   6.390   1.519  0.4173  0.2131 -0.2469
10133SOL    HW231299   6.867   6.383   1.651  2.3824 -1.0995  1.1652
10134SOL     OW31300   5.018   6.444   4.852  0.2707 -0.0153  0.4884
10134SOL    HW131301   5.080   6.482   4.783  0.2277 -0.3575  0.2580
10134SOL    HW231302   4.926   6.434   4.813  0.5886 -1.6588  0.0822
10135SOL     OW31303   4.603   2.094   1.438  0.2445 -0.5681  0.0416
10135SOL    HW131304   4.690   2.135   1.468 -1.1639  2.7608  0.0362
10135SOL    HW231305   4.530   2.125   1.498 -1.5669  0.3346 -2.4926
10136SOL     OW31306   0.756   6.383   2.376  0.4894 -0.2166  0.3334
10136SOL    HW131307   0.733   6.414   2.468  1.4627  4.0821 -0.6209
10136SOL    HW231308   0.826   6.312   2.381  1.9367  1.2322  2.9614
10137SOL     OW31309   5.893   4.146   3.072  0.7109  0.0393  0.3115
10137SOL    HW131310   5.936   4.063   3.107  0.5676 -0.0597  0.2515
10137SOL    HW231311   5.795   4.133   3.066  0.5365  0.6295  1.4844
10138SOL     OW31312   5.581   1.569   2.199 -0.7303 -0.0889  0.6845
10138SOL    HW131313   5.580   1.476   2.163 -0.1890 -0.4219  1.4876
10138SOL    HW231314   5.595   1.566   2.298  2.9355  0.9369  0.3348
10139SOL     OW31315   3.340   2.993   4.181  0.1670  0.5769  0.2089
10139SOL    HW131316   3.424   2.937   4.181  0.2207  0.6474 -0.6568
10139SOL    HW231317   3.348   3.063   4.252  1.0270  0.8553 -0.1486
10140SOL     OW31318   4.629   6.551   5.602  0.8334  0.4755  0.1883
10140SOL    HW131319   4.583   6.463   5.616  2.2851 -0.0288  2.2608
10140SOL    HW231320   4.727   6.536   5.588  0.8865  1.7106 -0.9460
10141SOL     OW31321   4.089   1.736   4.301 -0.0035 -0.1836  0.5056
10141SOL    HW131322   3.993   1.753   4.283 -0.1617 -1.9856 -0.5720
10141SOL    HW231323   4.145   1.787   4.236 -0.1999  1.0663  1.2963
10142SOL     OW31324   6.179   5.733   6.427 -0.1475  0.1785 -0.6249
10142SOL    HW131325   6.111   5.785   6.479 -0.5060 -0.6700 -0.2106
10142SOL    HW231326   6.132   5.663   6.372  0.4251 -0.9918  0.3227
10143SOL     OW31327   4.699   0.396   5.770  0.4844  0.2937 -0.2556
10143SOL    HW131328   4.599   0.395   5.769  0.4071  0.0100  2.1162
10143SOL    HW231329   4.734   0.307   5.742  0.0484  0.1274 -0.2751
10144SOL     OW31330   4.322   0.573   5.504 -0.1261  0.2245  0.0198
10144SOL    HW131331   4.269   0.504   5.553  1.4275 -0.6177  0.5690
10144SOL    HW231332   4.340   0.651   5.564  0.8482 -0.3262  0.4564
10145SOL     OW31333   4.111   4.812   5.346  0.0045 -0.3120 -0.5026
10145SOL    HW131334   4.089   4.876   5.419  1.3274 -1.7767  1.2833
10145SOL    HW231335   4.029   4.758   5.324  0.1651 -1.6962  1.9021
10146SOL     OW31336   4.579   4.695   4.686  0.3589  0.4893  0.0025
10146SOL    HW131337   4.480   4.707   4.680  0.1287  0.4979  2.5006
10146SOL    HW231338   4.608   4.619   4.628 -1.1340  0.3367 -0.5820
10147SOL     OW31339   5.032   3.912   5.431  0.4343 -0.1503 -0.0706
10147SOL    HW131340   4.994   3.870   5.349  0.3505  0.5402 -0.3874
10147SOL    HW231341   5.121   3.871   5.451  0.3302 -0.5116 -0.3468
10148SOL     OW31342   5.167   5.786   0.315  0.2969 -0.4411 -0.2169
10148SOL    HW131343   5.107   5.707   0.301 -0.2382 -0.2138  0.7113
10148SOL    HW231344   5.254   5.770   0.268  0.2070 -1.5948 -0.0356
10149SOL     OW31345   5.653   3.024   1.110  0.4761  0.1258  0.9249
10149SOL    HW131346   5.569   2.990   1.067  0.7955 -0.3248  0.6502
10149SOL    HW231347   5.632   3.057   1.203  0.5004 -2.8582  2.1024
10150SOL     OW31348   4.243   1.897   0.290  0.1414  0.1336 -0.1898
10150SOL    HW131349   4.258   1.799   0.281  0.7510  0.3480 -1.8739
10150SOL    HW231350   4.169   1.926   0.229  0.2568  0.7903 -0.0324
10151SOL     OW31351   1.371   5.061   6.764  0.0963  0.3580  0.1000
10151SOL    HW131352   1.444   4.995   6.783  0.5629  0.3580 -1.4942
10151SOL    HW231353   1.303   5.059   6.837  0.0493 -1.9715  0.0438
10152SOL     OW31354   1.396   6.792   5.270 -0.5853  0.2699  0.5804
10152SOL    HW131355   1.416   6.847   5.350  3.1414 -1.2794  0.9014
10152SOL    HW231356   1.314   6.737   5.287 -2.0366  2.6263  1.7524
10153SOL     OW31357   5.557   5.327   2.793 -0.3352  0.0567 -0.4084
10153SOL    HW131358   5.561   5.275   2.878 -1.8527 -0.4372 -0.6178
10153SOL    HW231359   5.638   5.386   2.787  0.2052 -0.4920  0.9743
10154SOL     OW31360   4.999   6.888   4.183 -0.2526  0.2801 -0.3472
10154SOL    HW131361   4.950   6.963   4.228 -4.0931 -2.1977  0.0606
10154SOL    HW231362   5.076   6.926   4.131 -0.5986  4.1767  1.5679
10155SOL     OW31363   2.105   2.042   0.728  0.2109 -0.5564 -0.6809
10155SOL    HW131364   2.089   2.081   0.638 -0.2377  0.7398 -0.0721
10155SOL    HW231365   2.023   2.053   0.784  0.5702 -1.0948 -0.0321
10156SOL     OW31366   6.922   0.175   2.484 -0.0674  0.1003  0.3441
10156SOL    HW131367   6.944   0.265   2.523  0.1694 -0.2553  1.0530
10156SOL    HW231368   6.929   0.106   2.556 -0.2573 -0.4839 -0.1985
10157SOL     OW31369   4.178   2.211   0.082 -0.6108  0.4945 -0.7077
10157SOL    HW131370   4.086   2.183   0.111  0.4465 -1.0722  1.3641
10157SOL    HW231371   4.211   2.146   0.014  0.0525 -0.7272  0.7213
10158SOL     OW31372   6.062   1.009   1.131 -0.5707 -0.4814  0.1162
10158SOL    HW131373   6.157   1.018   1.163 -0.3289 -1.8544 -0.1192
10158SOL    HW231374   6.024   1.099   1.113  1.5539  0.0541 -2.2567
10159SOL     OW31375   3.861   3.560   5.665 -0.2349 -0.9112 -0.4668
10159SOL    HW131376   3.793   3.633   5.664 -0.4447 -1.0969 -0.0849
10159SOL    HW231377   3.880   3.534   5.760 -0.7834 -1.9293 -0.6222
10160SOL     OW31378   3.256   2.218   1.051 -0.1336 -0.2045  0.3651
10160SOL    HW131379   3.350   2.185   1.056 -0.1722 -0.2703  0.7086
10160SOL    HW231380   3.255   2.318   1.042 -0.0382 -0.1539  0.9047
10161SOL     OW31381   1.092   2.418   5.994  0.0878  0.0720 -0.3208
10161SOL    HW131382   1.060   2.473   6.072  2.8003  1.2767  0.0416
10161SOL    HW231383   1.178   2.374   6.017 -0.3716 -1.7403 -1.7954
10162SOL     OW31384   2.422   5.450   2.505  0.1425 -0.5269  1.1981
10162SOL    HW131385   2.335   5.434   2.457  0.5462 -0.7100  0.5151
10162SOL    HW231386   2.495   5.463   2.438  0.9329 -1.9202  1.7632
10163SOL     OW31387   0.542   6.046   5.125 -0.0384  0.6399  0.4809
10163SOL    HW131388   0.499   6.125   5.083 -2.5238 -1.3928 -1.0932
10163SOL    HW231389   0.612   6.009   5.064 -0.9465 -0.0475 -0.1722
10164SOL     OW31390   5.080   3.432   4.559 -0.2281  0.1309  0.0693
10164SOL    HW131391   4.997   3.377   4.557 -1.5382  1.8848  1.7030
10164SOL    HW231392   5.147   3.395   4.495 -1.9752 -1.7780 -0.7576
10165SOL     OW31393   6.923   4.735   1.372  0.8203 -0.2511 -0.5174
10165SOL    HW131394   6.996   4.701   1.313  2.3214  0.1704  1.0096
10165SOL    HW231395   6.959   4.748   1.465 -0.7695  1.5133 -0.0910
10166SOL     OW31396   2.637   2.344   3.861 -0.7947 -0.2140  0.0892
10166SOL    HW131397   2.575   2.419   3.837  0.8235  0.7228 -1.4014
10166SOL    HW231398   2.666   2.354   3.956 -0.0723  1.4942 -0.2687
10167SOL     OW31399   2.635   1.908   6.409  0.6229  0.3100  0.3942
10167SOL    HW131400   2.566   1.978   6.388  0.3693  0.1493  0.6944
10167SOL    HW231401   2.595   1.817   6.398  1.0285  0.2023 -0.2564
10168SOL     OW31402   5.351   2.162   5.036 -0.1134 -0.4234 -0.1100
10168SOL    HW131403   5.353   2.166   4.936  0.1533  0.3485 -0.0735
10168SOL    HW231404   5.378   2.070   5.066 -1.1424 -0.9591 -0.7715
10169SOL     OW31405   4.861   3.894   4.126 -0.1208 -0.1814  0.2838
10169SOL    HW131406   4.907   3.817   4.084  1.2984  0.7495  0.0477
10169SOL    HW231407   4.851   3.878   4.224 -1.4391 -1.3942 -0.0160
10170SOL     OW31408   1.215   5.348   5.619  0.0592  0.2099  0.3804
10170SOL    HW131409   1.199   5.251   5.637 -0.6062  0.0006 -1.1692
10170SOL    HW231410   1.312   5.362   5.599 -0.0326 -0.3773 -0.5841
10171SOL     OW31411   0.027   4.165   6.116 -0.4025  0.7051  0.2070
10171SOL    HW131412   0.120   4.161   6.152  0.1509  0.4553 -1.1715
10171SOL    HW231413   0.006   4.259   6.087 -1.0630  1.0351  1.6630
10172SOL     OW31414   5.781   6.209   5.539 -0.2548  0.2846  0.6004
10172SOL    HW131415   5.754   6.155   5.618  1.4710 -1.1843  0.2323
10172SOL    HW231416   5.721   6.188   5.462  0.7146 -1.5807  0.3066
10173SOL     OW31417   1.087   3.259   2.035 -0.0564  0.2453 -0.1265
10173SOL    HW131418   1.179   3.222   2.051  0.1049  0.7213  0.0644
10173SOL    HW231419   1.082   3.353   2.069 -0.4698  0.3966 -0.5839
10174SOL     OW31420   5.998   6.186   2.955 -0.3416 -0.5763 -0.3422
10174SOL    HW131421   5.967   6.276   2.924  0.3219 -0.4104 -0.5592
10174SOL    HW231422   6.056   6.145   2.885 -0.9461 -1.3470 -0.3988
10175SOL     OW31423   5.718   2.870   5.887 -0.2727 -0.0380 -0.7679
10175SOL    HW131424   5.710   2.913   5.797  0.4961 -1.1853 -1.4085
10175SOL    HW231425   5.749   2.776   5.876  0.6892  0.0663  0.7594
10176SOL     OW31426   6.312   4.686   5.588 -0.4019 -0.3766  0.1660
10176SOL    HW131427   6.268   4.729   5.667 -0.9996 -0.0687 -0.3282
10176SOL    HW231428   6.293   4.588   5.589  1.6178 -0.8143  1.7269
10177SOL     OW31429   0.876   2.125   6.697  0.3793  0.2590  0.4100
10177SOL    HW131430   0.853   2.215   6.658 -0.6428 -0.7512 -1.4634
10177SOL    HW231431   0.975   2.110   6.690  0.2148 -0.0632 -2.4307
10178SOL     OW31432   5.242   6.161   5.896 -0.0123 -0.0199  0.3454
10178SOL    HW131433   5.220   6.246   5.943  0.1969 -0.0911  0.5786
10178SOL    HW231434   5.332   6.169   5.852  0.4910 -0.4689  1.2543
10179SOL     OW31435   0.525   0.995   0.175 -0.1654  0.2333  0.1488
10179SOL    HW131436   0.440   1.020   0.129 -0.4527  1.2887  1.1804
10179SOL    HW231437   0.504   0.954   0.263  0.3776 -1.5782 -0.5370
10180SOL     OW31438   4.435   0.403   5.782  0.0324 -0.5696  0.2180
10180SOL    HW131439   4.382   0.319   5.770 -1.2028 -0.1475  2.2126
10180SOL    HW231440   4.372   0.479   5.803  1.2878  0.4266  0.4848
10181SOL     OW31441   5.191   2.935   2.008  0.1704  0.2315 -0.2372
10181SOL    HW131442   5.145   2.866   2.065  0.9861  0.6124  0.9327
10181SOL    HW231443   5.280   2.899   1.979  0.0115  0.2750 -0.7898
10182SOL     OW31444   3.965   1.256   1.646 -0.0614  0.6729 -0.1782
10182SOL    HW131445   3.984   1.165   1.611  0.2351  0.7849 -0.3155
10182SOL    HW231446   4.021   1.273   1.727 -0.0513  0.7643 -0.2037
10183SOL     OW31447   0.620   3.646   6.304  0.0824 -0.0270 -0.2138
10183SOL    HW131448   0.666   3.629   6.217 -2.0035  0.8309 -1.5547
10183SOL    HW231449   0.547   3.580   6.318 -1.1448  1.2502 -0.3159
10184SOL     OW31450   4.508   6.804   6.615 -0.7252 -0.3178 -0.0789
10184SOL    HW131451   4.556   6.722   6.645  0.5551 -0.0524 -1.2884
10184SOL    HW231452   4.486   6.862   6.693  0.7178 -0.5696  0.5339
10185SOL     OW31453   6.268   0.307   2.430 -0.6228 -0.6396 -0.6507
10185SOL    HW131454   6.308   0.288   2.520  1.2414 -0.4960 -1.4062
10185SOL    HW231455   6.171   0.284   2.432 -0.3547 -1.8561  1.0283
10186SOL     OW31456   6.721   2.317   3.810 -0.5250  0.1899 -0.0311
10186SOL    HW131457   6.780   2.363   3.744  0.9767  1.0969  1.8298
10186SOL    HW231458   6.648   2.378   3.839 -0.6865  0.0900 -0.2235
10187SOL     OW31459   0.922   3.490   1.093  0.3810  0.7023 -0.4216
10187SOL    HW131460   0.889   3.531   1.008 -0.7362  2.2087  0.6764
10187SOL    HW231461   0.851   3.430   1.130  0.6241  0.5320 -0.2265
10188SOL     OW31462   4.364   6.488   2.394 -0.6291 -0.1232  0.1075
10188SOL    HW131463   4.333   6.516   2.484  1.2058 -2.1469  1.4708
10188SOL    HW231464   4.408   6.398   2.400  0.6549  0.2169 -2.5805
10189SOL     OW31465   1.537   0.896   0.109 -0.4366  0.2358 -0.5706
10189SOL    HW131466   1.515   0.858   0.019 -4.2861  2.1703 -0.6341
10189SOL    HW231467   1.476   0.857   0.177  1.5175 -0.1617  1.0610
10190SOL     OW31468   4.688   3.067   1.554  0.0822 -0.1522 -0.4636
10190SOL    HW131469   4.669   3.079   1.652 -2.2359  2.8675 -1.1088
10190SOL    HW231470   4.603   3.040   1.507  1.1179 -1.4032 -1.6949
10191SOL     OW31471   6.461   5.318   4.649 -0.2679 -0.1694  0.1409
10191SOL    HW131472   6.451   5.231   4.699 -0.9188 -0.0649  0.2022
10191SOL    HW231473   6.380   5.333   4.593 -0.4434  0.7011  0.6150
10192SOL     OW31474   4.532   0.785   6.288  0.4771  0.1322 -0.3023
10192SOL    HW131475   4.484   0.729   6.355  2.8165 -1.1890  0.3999
10192SOL    HW231476   4.539   0.879   6.322 -2.0546  0.5479 -0.7325
10193SOL     OW31477   4.110   3.593   2.092 -0.1178 -0.0629 -0.9509
10193SOL    HW131478   4.117   3.618   1.995  1.5461 -1.4692 -1.2433
10193SOL    HW231479   4.199   3.604   2.135 -0.4994 -0.8608  0.0668
10194SOL     OW31480   6.968   3.934   2.805  0.0420  0.4108 -0.2247
10194SOL    HW131481   7.040   3.865   2.810  1.4612  1.8238 -0.4259
10194SOL    HW231482   6.974   3.995   2.884 -0.9789  0.5175 -0.2111
10195SOL     OW31483   5.747   4.808   6.597 -0.2562 -0.3718 -0.3710
10195SOL    HW131484   5.839   4.845   6.582 -0.3677  0.1362  0.1666
10195SOL    HW231485   5.750   4.735   6.664 -0.5403  1.1902  1.4272
10196SOL     OW31486   3.953   0.636   2.991 -0.2435  0.5956  0.3309
10196SOL    HW131487   3.993   0.639   3.082  2.3784 -2.5224 -0.5276
10196SOL    HW231488   3.870   0.579   2.992  0.0547  0.1614  0.7085
10197SOL     OW31489   5.043   1.875   4.819 -0.1213  0.0405  0.3059
10197SOL    HW131490   4.986   1.819   4.879 -1.1869 -0.4640 -1.1005
10197SOL    HW231491   5.101   1.815   4.763  3.0159  0.5603  2.7091
10198SOL     OW31492   2.917   0.013   3.573  0.0383 -0.3709  0.3421
10198SOL    HW131493   2.870   0.006   3.485  0.5449 -2.0808  0.1676
10198SOL    HW231494   2.925   0.110   3.599  0.4723  0.2303 -1.8041
10199SOL     OW31495   1.901   2.634   6.122 -0.2525  0.7142 -0.0983
10199SOL    HW131496   1.824   2.572   6.139 -0.5333  0.2670 -2.5117
10199SOL    HW231497   1.936   2.618   6.029  3.0522  0.6251  1.0182
10200SOL     OW31498   5.598   0.846   0.578  0.0219 -0.3993 -0.4329
10200SOL    HW131499   5.611   0.754   0.614  0.0124 -1.1974 -2.3295
10200SOL    HW231500   5.681   0.875   0.530  0.0125  0.5700  0.1178
10201SOL     OW31501   2.807   4.225   0.563  0.1804  0.0277 -0.1987
10201SOL    HW131502   2.789   4.263   0.654  0.0843 -1.0375  0.2332
10201SOL    HW231503   2.905   4.233   0.543  0.0251  1.4285 -0.5576
10202SOL     OW31504   3.501   3.176   1.058  0.6370  0.2634 -0.4475
10202SOL    HW131505   3.546   3.141   1.140  1.1590  2.1933  0.1413
10202SOL    HW231506   3.470   3.269   1.074 -2.4633 -0.5179 -1.2900
10203SOL     OW31507   4.738   4.098   3.962 -0.2077 -0.0616 -0.5468
10203SOL    HW131508   4.758   4.019   4.020  0.9653  1.2539  0.9173
10203SOL    HW231509   4.824   4.143   3.937 -0.9310  1.8819  0.3089
10204SOL     OW31510   5.384   5.980   1.305 -0.0843  0.8587  0.4773
10204SOL    HW131511   5.476   5.943   1.315 -0.6768 -1.1697 -0.8214
10204SOL    HW231512   5.348   6.004   1.396  2.4157  3.7806  0.8510
10205SOL     OW31513   2.914   0.911   2.511  0.7051 -0.5644 -0.3662
10205SOL    HW131514   2.912   0.879   2.606 -4.8636 -1.8762 -0.5556
10205SOL    HW231515   2.945   0.837   2.451  0.1255 -1.2859  0.1942
10206SOL     OW31516   0.451   0.639   6.991  0.4216 -0.0160  0.6115
10206SOL    HW131517   0.539   0.679   7.019  1.2373 -0.4429 -1.2103
10206SOL    HW231518   0.433   0.662   6.895 -0.7461 -1.1873  0.5262
10207SOL     OW31519   1.008   2.327   5.651  0.5325 -0.2123 -0.1359
10207SOL    HW131520   1.044   2.264   5.720  0.6484 -0.5581 -0.5026
10207SOL    HW231521   1.055   2.415   5.657  0.1407 -0.0518  0.5965
10208SOL     OW31522   5.474   5.442   5.060 -0.1275 -0.4268  0.1819
10208SOL    HW131523   5.527   5.523   5.034  0.2528 -0.3156  1.2587
10208SOL    HW231524   5.421   5.410   4.981 -0.1638  0.7743 -0.3053
10209SOL     OW31525   6.665   0.631   0.473 -0.6273  0.0463  0.3664
10209SOL    HW131526   6.758   0.594   0.469 -0.3158  0.6664  1.3545
10209SOL    HW231527   6.599   0.556   0.465 -0.0161 -0.6503  1.5114
10210SOL     OW31528   4.515   6.487   0.312  0.4314  0.0057 -0.0021
10210SOL    HW131529   4.481   6.565   0.260 -0.4011 -0.0456  0.4604
10210SOL    HW231530   4.460   6.406   0.292  0.6076 -0.2047  0.3535
10211SOL     OW31531   3.806   6.484   3.354 -0.6117 -0.3214  0.1352
10211SOL    HW131532   3.707   6.469   3.359 -0.7107  0.3679  0.2218
10211SOL    HW231533   3.846   6.473   3.445 -0.2898 -2.6866 -0.2116
10212SOL     OW31534   0.356   1.824   4.898 -0.0990  0.0726  0.1099
10212SOL    HW131535   0.276   1.862   4.852 -0.7491 -0.2451  0.9663
10212SOL    HW231536   0.437   1.839   4.841 -0.9403 -0.6489 -1.3292
10213SOL     OW31537   5.546   1.476   1.082 -0.1214 -0.5946  0.2061
10213SOL    HW131538   5.584   1.407   1.144  1.2666  1.1360  1.3534
10213SOL    HW231539   5.578   1.567   1.108 -2.5314  0.6283 -0.7857
10214SOL     OW31540   6.997   1.270   0.768 -0.6947 -0.3708 -0.5046
10214SOL    HW131541   6.921   1.321   0.809  0.8475  0.4630  1.5007
10214SOL    HW231542   7.075   1.332   0.756  0.5126 -1.7570 -0.0701
10215SOL     OW31543   3.499   4.173   4.665  0.3405  0.5418  0.1039
10215SOL    HW131544   3.443   4.229   4.605  2.6626  1.2322 -1.5649
10215SOL    HW231545   3.500   4.079   4.632  1.9485  1.0012 -1.3265
10216SOL     OW31546   0.461   0.811   1.259 -0.2495 -0.6807 -0.1161
10216SOL    HW131547   0.547   0.858   1.238 -0.7083  0.7210  0.9991
10216SOL    HW231548   0.389   0.879   1.273 -1.2662 -1.7948  0.1974
10217SOL     OW31549   2.687   1.054   3.233  0.3325 -0.3797 -0.2446
10217SOL    HW131550   2.769   1.081   3.284  0.6117  0.4373 -1.0978
10217SOL    HW231551   2.704   1.062   3.135 -0.5649 -0.8152 -0.4472
10218SOL     OW31552   6.385   3.949   0.448 -0.2926 -0.2615 -0.3575
10218SOL    HW131553   6.418   3.860   0.414  1.6374  0.5266 -0.7061
10218SOL    HW231554   6.455   3.990   0.506 -1.9681  0.1878  1.4255
10219SOL     OW31555   0.488   2.618   3.484  0.5787 -0.4861  0.0840
10219SOL    HW131556   0.494   2.570   3.571 -1.1155 -0.7289  0.0996
10219SOL    HW231557   0.406   2.589   3.436  1.1230  0.1719 -1.2862
10220SOL     OW31558   4.602   2.639   3.098  0.0385 -0.8118 -0.0103
10220SOL    HW131559   4.685   2.655   3.151 -0.4243 -1.2167  0.8435
10220SOL    HW231560   4.616   2.672   3.004  0.2209  1.6625  0.8147
10221SOL     OW31561   6.396   5.164   3.513 -1.1076  0.3057  0.2473
10221SOL    HW131562   6.469   5.135   3.451 -0.7234  1.1450  0.2875
10221SOL    HW231563   6.399   5.263   3.524  0.3641  0.0151  3.4999
10222SOL     OW31564   3.028   3.645   5.343  0.0487 -0.2663  0.1662
10222SOL    HW131565   2.950   3.602   5.389  0.4135  0.5430  1.6063
10222SOL    HW231566   2.997   3.726   5.294 -0.3340 -1.1002 -1.0082
10223SOL     OW31567   0.930   4.140   3.716  0.7117 -0.4427 -0.6774
10223SOL    HW131568   0.982   4.057   3.737  0.4642 -0.6632 -0.9149
10223SOL    HW231569   0.985   4.200   3.658  1.3372  0.1037  0.4558
10224SOL     OW31570   6.210   3.522   1.737  0.0781 -0.0483 -0.0426
10224SOL    HW131571   6.201   3.555   1.831 -0.2522  2.0471 -0.7639
10224SOL    HW231572   6.119   3.513   1.696  0.2916  0.9251 -0.7583
10225SOL     OW31573   1.674   4.553   5.942 -0.1932  0.4427 -0.0520
10225SOL    HW131574   1.715   4.642   5.962 -1.2748  1.3245 -1.5190
10225SOL    HW231575   1.722   4.481   5.992 -0.3755  2.0254  2.5387
10226SOL     OW31576   3.152   1.730   1.843 -0.1758  0.5392  0.1958
10226SOL    HW131577   3.173   1.633   1.855 -1.2963  0.2784  0.1439
10226SOL    HW231578   3.179   1.759   1.751  0.7469  0.4515  0.4262
10227SOL     OW31579   4.880   3.887   1.403  0.1770 -0.4971  0.7226
10227SOL    HW131580   4.818   3.862   1.477 -0.8243  2.2566  0.9220
10227SOL    HW231581   4.911   3.804   1.356  0.2004 -2.2844  3.6386
10228SOL     OW31582   0.299   0.328   6.622 -0.3792 -0.0308  0.1371
10228SOL    HW131583   0.232   0.356   6.691 -0.8137 -0.2659 -0.1777
10228SOL    HW231584   0.329   0.234   6.640 -1.8865 -0.7905 -1.0037
10229SOL     OW31585   0.312   2.436   6.407  0.3993  0.3782  0.1214
10229SOL    HW131586   0.300   2.458   6.504 -0.6891  0.0941  0.0564
10229SOL    HW231587   0.350   2.516   6.360  0.5078  0.6727  0.6951
10230SOL     OW31588   0.631   6.291   3.815  0.6927 -0.1423  0.5627
10230SOL    HW131589   0.589   6.213   3.769 -1.8788  1.7003 -0.4257
10230SOL    HW231590   0.561   6.342   3.865  2.4638  1.0384  1.9623
10231SOL     OW31591   0.275   5.938   4.603  0.0900 -0.0421  0.3284
10231SOL    HW131592   0.306   5.847   4.573 -0.5802 -0.1979  0.0848
10231SOL    HW231593   0.296   5.950   4.700  2.6596  0.6237 -0.2221
10232SOL     OW31594   0.802   2.885   4.459 -0.2133  0.2743  0.2966
10232SOL    HW131595   0.779   2.945   4.382  1.5856  0.5149 -0.0875
10232SOL    HW231596   0.806   2.939   4.543 -0.5988  0.3087  0.2948
10233SOL     OW31597   1.146   3.385   4.999 -0.2009  0.0716  0.1139
10233SOL    HW131598   1.144   3.453   4.926 -1.5234 -0.9129 -0.8195
10233SOL    HW231599   1.161   3.431   5.087  0.7605  1.3436 -0.6878
10234SOL     OW31600   6.380   1.830   1.511 -0.5370  0.0135 -0.0597
10234SOL    HW131601   6.376   1.762   1.584 -0.4058 -0.0690 -0.1291
10234SOL    HW231602   6.384   1.922   1.551 -1.8709  0.0507  0.0282
10235SOL     OW31603   0.790   2.372   0.830  0.1732 -0.2031  0.3622
10235SOL    HW131604   0.782   2.272   0.837  0.4855 -0.3641 -1.2679
10235SOL    HW231605   0.850   2.405   0.904  0.0968 -1.2185  0.9028
10236SOL     OW31606   2.766   4.138   1.039  0.9287 -0.0185  0.3669
10236SOL    HW131607   2.759   4.164   1.136 -1.2283  1.2402 -0.0828
10236SOL    HW231608   2.863   4.128   1.015  1.5069 -1.3837  2.8740
10237SOL     OW31609   1.191   3.573   1.134  0.1209  0.3525  0.1428
10237SOL    HW131610   1.106   3.548   1.088 -0.0612 -0.0570  0.6960
10237SOL    HW231611   1.178   3.659   1.184 -0.2051 -0.0901  0.8435
10238SOL     OW31612   4.326   4.241   1.352  0.4658 -0.6803  0.1890
10238SOL    HW131613   4.310   4.318   1.414 -1.4584 -0.7581 -0.1546
10238SOL    HW231614   4.360   4.162   1.404 -0.9772 -0.7024  1.1401
10239SOL     OW31615   1.037   3.592   4.820  0.7759 -0.2478 -0.7349
10239SOL    HW131616   1.019   3.540   4.737  1.2433  0.3451 -1.2181
10239SOL    HW231617   0.975   3.670   4.825  1.6563  0.4942 -1.2327
10240SOL     OW31618   2.637   6.365   0.996  0.2363 -0.2588  0.5211
10240SOL    HW131619   2.581   6.290   1.031 -1.5696  1.0392  0.5746
10240SOL    HW231620   2.643   6.359   0.896 -1.0237  0.2100  0.3941
10241SOL     OW31621   5.665   2.270   3.679  0.4299 -0.0389 -0.2763
10241SOL    HW131622   5.683   2.249   3.583 -0.3385 -0.0079 -0.4262
10241SOL    HW231623   5.723   2.346   3.707  0.9027 -0.2641 -0.6157
10242SOL     OW31624   6.346   2.787   0.358  0.3467 -0.2664 -0.2836
10242SOL    HW131625   6.422   2.834   0.403  0.0610  0.2734 -0.3589
10242SOL    HW231626   6.373   2.762   0.265  0.8295 -1.1093  0.0655
10243SOL     OW31627   3.422   3.936   1.310  0.3654  0.1494  0.0142
10243SOL    HW131628   3.328   3.922   1.342  1.7043 -2.9094  3.3542
10243SOL    HW231629   3.457   4.022   1.346  0.0627 -0.6672  2.4690
10244SOL     OW31630   3.766   3.647   0.208 -0.1410  0.3062 -0.2316
10244SOL    HW131631   3.836   3.627   0.277 -0.9657 -0.0857  0.5117
10244SOL    HW231632   3.807   3.700   0.134  0.6953  1.0413  0.7220
10245SOL     OW31633   6.073   3.966   1.945 -0.1817  0.5347  0.0944
10245SOL    HW131634   5.994   4.012   1.904 -1.7589 -1.5662  0.6138
10245SOL    HW231635   6.156   3.997   1.900 -1.5010  1.1733 -2.0499
10246SOL     OW31636   2.917   3.588   5.055 -0.4452 -0.1403 -0.3129
10246SOL    HW131637   2.928   3.683   5.085  0.8412 -0.1683 -0.6461
10246SOL    HW231638   2.868   3.537   5.126  1.0859  0.1905  1.0408
10247SOL     OW31639   0.525   1.823   5.137 -0.1941  0.4725  0.4164
10247SOL    HW131640   0.555   1.740   5.183  0.1135 -0.2293 -1.0079
10247SOL    HW231641   0.481   1.799   5.050  0.2394  1.8080 -0.1997
10248SOL     OW31642   0.832   0.984   2.143 -0.1125 -0.2248 -0.3694
10248SOL    HW131643   0.761   0.964   2.211 -0.1094 -1.4263 -0.6938
10248SOL    HW231644   0.790   0.992   2.053  0.0954 -0.4106 -0.4833
10249SOL     OW31645   1.743   4.836   5.927  0.2655  0.2002  0.0190
10249SOL    HW131646   1.685   4.873   5.999 -3.1450 -0.8993 -1.8733
10249SOL    HW231647   1.754   4.904   5.854  0.4396  0.0631 -0.0832
10250SOL     OW31648   1.465   3.571   0.142 -0.6893  0.6904  0.3107
10250SOL    HW131649   1.550   3.550   0.191 -1.0620  0.0069  0.6736
10250SOL    HW231650   1.398   3.608   0.206 -1.7531 -1.7422  0.7167
10251SOL     OW31651   1.142   0.950   3.988  0.1677 -0.4443 -0.0924
10251SOL    HW131652   1.069   1.000   3.942  1.1323  1.5128  0.3764
10251SOL    HW231653   1.107   0.864   4.024 -1.4650 -0.3352 -1.3301
10252SOL     OW31654   4.605   2.613   6.404 -0.4306  0.3338 -0.1841
10252SOL    HW131655   4.637   2.523   6.431 -1.0387  0.3945  0.8139
10252SOL    HW231656   4.584   2.614   6.307  0.1194 -0.4294 -0.3141
10253SOL     OW31657   3.264   5.901   0.895  0.1575  0.0089 -0.5656
10253SOL    HW131658   3.231   5.834   0.828 -1.0373  0.5660 -0.5588
10253SOL    HW231659   3.254   5.993   0.858  0.6939  0.2586 -0.1089
10254SOL     OW31660   4.907   1.611   0.735 -0.4777 -0.3416  0.0318
10254SOL    HW131661   4.916   1.703   0.696 -1.5567  0.2231  1.0452
10254SOL    HW231662   4.892   1.545   0.661  1.8979  0.0056 -0.8657
10255SOL     OW31663   1.914   0.348   0.294 -0.0783 -0.0772 -0.3119
10255SOL    HW131664   1.865   0.400   0.364  0.3173  1.1620 -0.9226
10255SOL    HW231665   1.880   0.375   0.203  1.1689  0.2196 -0.7037
10256SOL     OW31666   4.737   1.865   3.616 -0.1148 -0.5298 -0.0631
10256SOL    HW131667   4.809   1.806   3.651 -2.1487 -2.0236  1.8725
10256SOL    HW231668   4.739   1.952   3.665  0.7280 -0.3098 -0.4661
10257SOL     OW31669   2.048   5.272   3.355  0.4422 -0.0184  0.3514
10257SOL    HW131670   2.084   5.179   3.346  0.1261 -0.0720 -0.3676
10257SOL    HW231671   1.956   5.269   3.393  0.5732  0.0294  0.6807
10258SOL     OW31672   5.558   1.493   3.469  0.6208 -0.6978 -0.7537
10258SOL    HW131673   5.598   1.543   3.546  1.5766 -1.6225 -0.6253
10258SOL    HW231674   5.600   1.525   3.384  0.7597 -0.8150 -0.7307
10259SOL     OW31675   0.874   5.013   2.301 -0.0050 -0.6595 -0.0199
10259SOL    HW131676   0.853   4.916   2.289  0.8229 -0.9392  0.6278
10259SOL    HW231677   0.847   5.064   2.220  0.3590 -1.5767 -0.7319
10260SOL     OW31678   0.680   2.187   3.581  0.4556 -0.1241 -0.2005
10260SOL    HW131679   0.680   2.162   3.678  2.4574  0.0979 -0.0952
10260SOL    HW231680   0.764   2.239   3.560 -0.9720  1.7709 -1.5858
10261SOL     OW31681   6.650   5.348   1.222 -0.2858  0.1937 -0.8267
10261SOL    HW131682   6.559   5.313   1.246 -0.7433  1.4270 -0.6935
10261SOL    HW231683   6.641   5.432   1.169  0.7880  0.1046 -1.1859
10262SOL     OW31684   3.825   3.412   5.929  0.2862 -0.1694  0.1049
10262SOL    HW131685   3.733   3.414   5.890  0.1594 -1.7849  0.2212
10262SOL    HW231686   3.838   3.326   5.978  2.4699 -0.8258 -1.4489
10263SOL     OW31687   5.099   6.852   1.610 -0.4831 -0.3612 -0.0397
10263SOL    HW131688   5.139   6.934   1.651  0.4394 -0.1994 -1.2072
10263SOL    HW231689   5.106   6.775   1.674 -1.2613  0.4266  1.0229
10264SOL     OW31690   0.867   4.516   0.313 -0.2463 -0.3695  0.0612
10264SOL    HW131691   0.831   4.600   0.273  0.6407  0.8724  1.7414
10264SOL    HW231692   0.881   4.448   0.241  0.9669  1.6304 -1.6979
10265SOL     OW31693   2.844   1.250   6.101 -0.0771  0.6662 -0.1686
10265SOL    HW131694   2.929   1.275   6.055  1.0424 -1.2015  0.7330
10265SOL    HW231695   2.783   1.207   6.035  0.9704 -0.7777 -0.2556
10266SOL     OW31696   3.214   2.874   2.058  0.0099 -0.4747  0.3853
10266SOL    HW131697   3.299   2.823   2.068  0.1054 -0.0447  2.0304
10266SOL    HW231698   3.204   2.939   2.134  0.5282  2.9367 -2.2200
10267SOL     OW31699   5.700   5.801   1.072 -0.0333 -0.0179 -0.6938
10267SOL    HW131700   5.796   5.780   1.088 -0.3246 -2.6082 -1.8013
10267SOL    HW231701   5.660   5.843   1.154  2.1945  2.0472 -0.5408
10268SOL     OW31702   5.245   0.178   2.670 -0.3831  0.0449 -0.0880
10268SOL    HW131703   5.282   0.137   2.587  2.2844 -2.7509  2.2536
10268SOL    HW231704   5.187   0.111   2.717  1.4139  0.0119  2.2299
10269SOL     OW31705   1.031   2.177   3.805 -0.6917 -0.2060  1.0359
10269SOL    HW131706   0.981   2.159   3.721 -3.0418  0.7574  2.1441
10269SOL    HW231707   1.047   2.275   3.814  0.2676 -0.3834  1.3316
10270SOL     OW31708   3.723   6.351   2.903 -0.0583  0.6323 -0.4683
10270SOL    HW131709   3.686   6.437   2.938 -1.3573 -0.0093 -0.1972
10270SOL    HW231710   3.723   6.353   2.803  0.4580  1.1553 -0.4647
10271SOL     OW31711   2.955   1.624   6.352 -0.4128  0.1993 -0.5933
10271SOL    HW131712   2.963   1.531   6.388 -0.5477  1.0250  1.7501
10271SOL    HW231713   2.890   1.625   6.276 -2.1593 -1.2813  0.7830
10272SOL     OW31714   6.735   1.212   4.190 -0.3051  0.4875  0.1596
10272SOL    HW131715   6.750   1.300   4.235 -0.4508 -0.0533  1.3010
10272SOL    HW231716   6.638   1.204   4.164 -0.1824  0.8780 -0.4308
10273SOL     OW31717   3.116   5.701   4.926 -0.2285  0.2334  0.1299
10273SOL    HW131718   3.210   5.729   4.906  0.2050 -1.4815 -0.3947
10273SOL    HW231719   3.104   5.693   5.025  0.6912 -1.1197  0.1548
10274SOL     OW31720   3.115   6.639   4.812  0.3298 -0.5124 -0.5403
10274SOL    HW131721   3.055   6.584   4.754  0.1440  1.0191 -1.8565
10274SOL    HW231722   3.119   6.733   4.777  1.2867  0.1238  1.1562
10275SOL     OW31723   6.273   1.379   2.877 -0.2647  0.3566 -0.7049
10275SOL    HW131724   6.349   1.391   2.942  0.8670 -1.3582 -1.6171
10275SOL    HW231725   6.260   1.463   2.826  1.0023  0.7295 -0.4622
10276SOL     OW31726   5.269   5.432   5.713 -0.0366  0.9664  1.0366
10276SOL    HW131727   5.239   5.418   5.618 -1.2474 -0.7446  1.6253
10276SOL    HW231728   5.347   5.495   5.714  1.2093 -0.3973 -1.2552
10277SOL     OW31729   3.373   6.572   4.713 -0.7541 -0.3061 -0.5736
10277SOL    HW131730   3.278   6.584   4.743 -0.9753 -1.0401 -0.9414
10277SOL    HW231731   3.405   6.655   4.668 -1.3371 -0.1699 -0.7529
10278SOL     OW31732   1.404   3.827   3.415 -0.2931 -0.1462 -0.2623
10278SOL    HW131733   1.475   3.757   3.410 -1.4053 -1.4878  1.3531
10278SOL    HW231734   1.409   3.886   3.334  1.1376 -1.6466 -1.3348
10279SOL     OW31735   1.986   6.747   5.323 -0.5071  0.5352  0.4390
10279SOL    HW131736   1.979   6.800   5.239 -1.2824  0.3077  0.3571
10279SOL    HW231737   2.055   6.789   5.383  1.1006 -0.0998 -0.8811
10280SOL     OW31738   5.093   4.044   0.351 -0.3479  0.0653 -0.1993
10280SOL    HW131739   5.181   4.089   0.337 -0.3535  0.0323 -0.3469
10280SOL    HW231740   5.037   4.055   0.269 -0.8767  0.9717  0.2676
10281SOL     OW31741   3.968   1.372   4.885 -0.0850 -0.4781 -0.3100
10281SOL    HW131742   4.047   1.379   4.945 -1.2673 -0.6525  1.3227
10281SOL    HW231743   3.951   1.460   4.841  1.9033 -0.8226 -1.9247
10282SOL     OW31744   5.801   1.637   3.944  0.1204  0.1729  0.3248
10282SOL    HW131745   5.888   1.587   3.935  0.4746  0.7120  0.6537
10282SOL    HW231746   5.756   1.610   4.029  0.0686  0.0421  0.2553
10283SOL     OW31747   0.180   3.905   0.000  0.1055 -0.2117 -0.0325
10283SOL    HW131748   0.266   3.902   0.051  0.2702  2.7373  0.0032
10283SOL    HW231749   0.104   3.910   0.065  0.1346  0.5768 -0.0523
10284SOL     OW31750   0.361   2.092   4.442 -0.0077 -0.2554 -0.2170
10284SOL    HW131751   0.364   2.064   4.346 -0.6430 -1.0911 -0.0061
10284SOL    HW231752   0.445   2.142   4.465  1.1616 -1.9669 -0.6142
10285SOL     OW31753   2.794   6.738   3.430  0.0324 -0.0202  0.1861
10285SOL    HW131754   2.805   6.653   3.380  0.5045 -0.3799  0.8866
10285SOL    HW231755   2.698   6.768   3.425 -0.0388 -0.3449 -0.4433
10286SOL     OW31756   2.036   0.713   4.168 -0.1215  0.4030 -0.0402
10286SOL    HW131757   2.046   0.619   4.137  0.6058  0.2536  0.6147
10286SOL    HW231758   2.083   0.774   4.104 -0.8782  0.3709 -0.6491
10287SOL     OW31759   2.856   4.814   2.445 -0.1701  0.2810 -0.5315
10287SOL    HW131760   2.787   4.885   2.435 -1.3799 -0.9898 -1.7103
10287SOL    HW231761   2.907   4.804   2.360 -0.8452 -1.0283 -0.8203
10288SOL     OW31762   3.840   0.803   3.604  0.0331 -0.2673  0.3533
10288SOL    HW131763   3.910   0.740   3.638 -0.2482 -1.3119 -0.9053
10288SOL    HW231764   3.865   0.897   3.626  2.1129 -0.5696 -0.5463
10289SOL     OW31765   3.752   6.300   0.218 -0.1003  0.0146  0.4829
10289SOL    HW131766   3.833   6.333   0.169 -1.1198  0.1694 -1.1741
10289SOL    HW231767   3.724   6.368   0.286  1.1352 -0.0343  1.0550
10290SOL     OW31768   2.977   3.219   3.283 -0.4320  0.3083  0.2627
10290SOL    HW131769   2.915   3.245   3.209  0.3087  0.9646 -0.1521
10290SOL    HW231770   2.977   3.291   3.353 -0.2750  0.2259  0.3487
10291SOL     OW31771   4.659   1.711   3.124  0.6447  0.0280 -0.2531
10291SOL    HW131772   4.616   1.719   3.034 -0.7022  2.0912  0.5094
10291SOL    HW231773   4.601   1.655   3.184 -0.0729  1.2649  0.2293
10292SOL     OW31774   0.335   0.839   5.664 -0.1113 -0.1812  0.1572
10292SOL    HW131775   0.242   0.858   5.696 -0.4937  0.2539 -1.1103
10292SOL    HW231776   0.363   0.911   5.601  0.0491 -1.6265 -1.5027
10293SOL     OW31777   1.295   2.856   2.955 -0.4801  0.2637  0.4234
10293SOL    HW131778   1.286   2.857   3.055  0.2871  0.4913  0.5030
10293SOL    HW231779   1.239   2.928   2.915  0.3431  1.1477  0.8145
10294SOL     OW31780   5.231   0.327   1.852 -0.1053  0.1183 -0.1411
10294SOL    HW131781   5.296   0.399   1.877 -0.0687  0.1096 -0.2098
10294SOL    HW231782   5.155   0.367   1.800 -0.3026  0.1730  0.1881
10295SOL     OW31783   0.137   3.216   5.936  0.5200 -0.0338 -0.1887
10295SOL    HW131784   0.183   3.290   5.985 -1.2210  0.7227  0.3462
10295SOL    HW231785   0.203   3.171   5.876  2.1444  0.5002  1.1206
10296SOL     OW31786   5.410   0.744   0.213  0.0246  0.0472  0.2009
10296SOL    HW131787   5.374   0.660   0.173 -0.6543  0.8596 -0.9319
10296SOL    HW231788   5.468   0.721   0.291 -1.9452 -1.3795  1.3463
10297SOL     OW31789   0.414   1.570   6.718  0.2168 -0.3791 -0.3357
10297SOL    HW131790   0.437   1.640   6.786 -2.6214  0.0846  0.2925
10297SOL    HW231791   0.379   1.489   6.765 -0.7426 -0.4698 -1.1778
10298SOL     OW31792   6.558   4.981   6.277 -0.1945 -1.0136 -0.3995
10298SOL    HW131793   6.511   4.893   6.267 -0.8960 -0.4894 -2.0944
10298SOL    HW231794   6.493   5.055   6.265  0.6463 -0.2649 -0.4527
10299SOL     OW31795   4.407   4.085   0.959  0.7220  0.9168 -0.3138
10299SOL    HW131796   4.454   4.002   0.991  1.9876  1.6181 -0.2800
10299SOL    HW231797   4.336   4.060   0.894  1.2732 -0.1765 -0.5211
10300SOL     OW31798   0.426   2.495   2.219 -0.5262 -0.1432  0.2076
10300SOL    HW131799   0.443   2.570   2.283  2.7307 -0.4924 -0.0974
10300SOL    HW231800   0.446   2.526   2.126 -2.2154 -0.5435 -0.3307
10301SOL     OW31801   5.090   0.651   0.559  0.1655  0.3317 -0.3988
10301SOL    HW131802   5.177   0.696   0.578  1.4887 -2.7715  1.9281
10301SOL    HW231803   5.107   0.561   0.519 -1.8006 -1.0182  1.5554
10302SOL     OW31804   0.461   6.775   5.405  0.5233 -0.3211 -0.0253
10302SOL    HW131805   0.429   6.773   5.500 -0.5286  1.4742 -0.2952
10302SOL    HW231806   0.490   6.683   5.378 -0.4692 -1.1631  1.5855
10303SOL     OW31807   1.517   4.072   2.583  0.0998  0.1485  0.4212
10303SOL    HW131808   1.517   4.170   2.606 -0.1447 -0.0322  1.2100
10303SOL    HW231809   1.427   4.045   2.550  0.3555  0.3309 -0.4572
10304SOL     OW31810   4.810   0.368   6.507  0.1511  0.2147  0.3462
10304SOL    HW131811   4.758   0.334   6.428  0.7508 -0.8921  0.4040
10304SOL    HW231812   4.804   0.467   6.510 -0.0788  0.2635 -0.9600
10305SOL     OW31813   1.461   3.669   4.053 -0.4493 -0.2250 -0.2041
10305SOL    HW131814   1.426   3.731   3.982  0.1578  1.3727  0.8301
10305SOL    HW231815   1.391   3.655   4.123 -1.5077 -2.8074 -1.6521
10306SOL     OW31816   5.152   4.748   6.644 -0.6774 -0.1061 -0.1662
10306SOL    HW131817   5.154   4.752   6.544 -0.2824  0.2420 -0.1494
10306SOL    HW231818   5.227   4.804   6.680  0.2698 -1.6212  0.3000
10307SOL     OW31819   3.794   2.005   3.633 -0.2298  0.6122 -0.0410
10307SOL    HW131820   3.821   2.083   3.576  0.9423 -0.9518 -1.7995
10307SOL    HW231821   3.714   1.960   3.592 -0.1282  0.1885  0.2165
10308SOL     OW31822   1.399   6.334   1.602 -0.5630  0.1832 -0.2219
10308SOL    HW131823   1.466   6.320   1.676 -0.6059 -1.6030 -0.4939
10308SOL    HW231824   1.400   6.256   1.540 -1.8360  0.8262 -1.1014
10309SOL     OW31825   6.050   2.642   0.159 -0.0118  0.2284 -0.4397
10309SOL    HW131826   6.020   2.732   0.192  2.9838  0.8573  0.9770
10309SOL    HW231827   6.081   2.650   0.064 -0.3834  0.5397 -0.5361
10310SOL     OW31828   3.033   4.096   6.124  0.4791  0.6019 -0.3928
10310SOL    HW131829   2.987   4.179   6.157 -0.1911  0.2218 -0.3453
10310SOL    HW231830   2.979   4.056   6.049  0.4619 -0.1328  0.0060
10311SOL     OW31831   0.278   4.855   1.488 -0.2445 -0.5179 -0.8892
10311SOL    HW131832   0.195   4.905   1.510  0.8135  0.9358 -0.0603
10311SOL    HW231833   0.298   4.866   1.391  0.3610  1.3448 -0.5917
10312SOL     OW31834   6.305   1.478   1.309  0.6389 -0.6889 -0.1281
10312SOL    HW131835   6.323   1.575   1.289  1.5696 -0.9472 -0.5857
10312SOL    HW231836   6.330   1.458   1.403  0.0963 -0.4076  0.0834
10313SOL     OW31837   4.095   6.027   1.227 -0.0100  0.3914  0.1933
10313SOL    HW131838   4.186   6.063   1.245  0.1559  2.0445 -3.2246
10313SOL    HW231839   4.102   5.935   1.187  0.1294  0.4536  0.0784
10314SOL     OW31840   1.417   5.509   6.792  0.4230 -0.2531 -0.0087
10314SOL    HW131841   1.458   5.498   6.883  1.2745 -0.2904 -0.3886
10314SOL    HW231842   1.337   5.450   6.785  0.7704 -0.8033  0.4769
10315SOL     OW31843   5.998   0.148   3.817  1.2324  0.2076  0.2415
10315SOL    HW131844   6.004   0.084   3.893  2.2530  0.4309  0.3640
10315SOL    HW231845   6.066   0.221   3.829  1.8817 -0.1247 -1.2038
10316SOL     OW31846   6.062   2.845   6.317 -0.7254  0.5695 -0.2759
10316SOL    HW131847   6.135   2.880   6.258  0.0469 -1.0203 -0.3094
10316SOL    HW231848   5.974   2.857   6.272 -0.2810  0.6735 -1.1397
10317SOL     OW31849   3.460   6.369   5.349  0.2239 -0.5728  0.0473
10317SOL    HW131850   3.536   6.401   5.406  1.4507 -3.2717  0.0908
10317SOL    HW231851   3.438   6.438   5.281  2.9466  0.2000 -0.1624
10318SOL     OW31852   4.916   6.482   5.592  0.2546  0.0414  0.0600
10318SOL    HW131853   4.904   6.402   5.533  0.8731  0.0317 -0.0649
10318SOL    HW231854   4.995   6.534   5.560 -0.0955  0.6624  0.1888
10319SOL     OW31855   5.406   4.367   5.848 -0.3793  0.7395  0.2069
10319SOL    HW131856   5.476   4.311   5.804 -0.3590  2.0180 -1.4996
10319SOL    HW231857   5.337   4.393   5.780 -3.2570 -1.4454  2.0239
10320SOL     OW31858   1.603   6.879   0.803 -0.3617 -0.1407  0.0193
10320SOL    HW131859   1.701   6.858   0.800 -0.3511 -0.0292 -0.7821
10320SOL    HW231860   1.585   6.961   0.748 -1.1083 -1.0293 -1.0959
10321SOL     OW31861   6.001   3.431   1.324 -0.5850 -0.1049 -0.0543
10321SOL    HW131862   6.006   3.331   1.325  1.0879 -0.0577  1.9713
10321SOL    HW231863   6.093   3.469   1.324 -1.1754  1.4193  0.9307
10322SOL     OW31864   4.578   4.471   4.960  0.6258 -0.6083 -0.3785
10322SOL    HW131865   4.488   4.511   4.944  0.2053 -0.5343  1.8547
10322SOL    HW231866   4.648   4.540   4.944  0.1516 -0.1057 -0.3345
10323SOL     OW31867   5.235   2.966   5.332 -0.0425  0.0056  0.3125
10323SOL    HW131868   5.251   2.993   5.427  0.2744  0.7500  0.0549
10323SOL    HW231869   5.303   3.008   5.273 -0.0532 -0.6926 -0.2200
10324SOL     OW31870   4.050   3.573   3.332  0.6057  0.5124  0.6599
10324SOL    HW131871   4.063   3.671   3.348  4.1056  0.1326  1.0163
10324SOL    HW231872   4.054   3.525   3.420 -1.6425  0.0097  0.5495
10325SOL     OW31873   6.335   4.015   1.120 -0.1911  1.0899 -0.3791
10325SOL    HW131874   6.342   4.097   1.064 -0.7173  0.7145 -1.0144
10325SOL    HW231875   6.370   4.034   1.212  2.2450  1.2585 -1.2742
10326SOL     OW31876   5.467   5.345   0.026 -0.5706  0.5707 -0.1105
10326SOL    HW131877   5.437   5.415  -0.039 -0.5076  0.7224  0.0268
10326SOL    HW231878   5.563   5.324   0.010 -0.0198  1.9697  1.1725
10327SOL     OW31879   1.042   2.577   1.874  0.2878 -0.3506  0.5600
10327SOL    HW131880   0.948   2.585   1.906  0.7962  0.6767  1.8998
10327SOL    HW231881   1.104   2.572   1.953  1.3981 -0.5087 -0.2938
10328SOL     OW31882   5.633   1.252   1.249  0.2532  0.1951  0.2034
10328SOL    HW131883   5.586   1.178   1.201  0.4455 -0.0010  0.3158
10328SOL    HW231884   5.684   1.214   1.326  0.4623  0.4295  0.1797
10329SOL     OW31885   2.183   2.447   1.634 -0.1348 -0.0484  0.5627
10329SOL    HW131886   2.235   2.527   1.663  1.1469 -1.4854  2.4803
10329SOL    HW231887   2.153   2.396   1.715  0.8818 -2.5949 -0.5659
10330SOL     OW31888   4.104   0.752   1.423  0.2657  0.3534 -0.6497
10330SOL    HW131889   4.111   0.712   1.514 -0.7247  2.2581  0.3197
10330SOL    HW231890   4.191   0.740   1.375  0.7965 -0.7135  0.5248
10331SOL     OW31891   6.315   5.880   0.484  0.2825  0.1782 -0.2254
10331SOL    HW131892   6.225   5.905   0.520  0.1117  0.1287 -0.6107
10331SOL    HW231893   6.366   5.963   0.460  0.5325  0.2235  0.4495
10332SOL     OW31894   1.617   6.592   5.168  0.1824 -0.2271 -0.0795
10332SOL    HW131895   1.584   6.613   5.260  0.1711 -0.3584 -0.0529
10332SOL    HW231896   1.619   6.675   5.113 -0.1302 -0.2062 -0.0599
10333SOL     OW31897   6.912   3.992   6.356 -0.0597 -0.1418 -0.5072
10333SOL    HW131898   6.973   3.920   6.325  0.0040 -1.4172  2.2807
10333SOL    HW231899   6.929   4.076   6.304  3.5084 -0.6728 -0.4164
10334SOL     OW31900   3.566   6.847   5.352 -0.5904 -0.2413  0.2755
10334SOL    HW131901   3.595   6.943   5.353 -0.4533 -0.2451 -1.2724
10334SOL    HW231902   3.559   6.814   5.446  0.5498  0.9298  0.8119
10335SOL     OW31903   3.279   4.232   6.813 -0.6959 -0.2713  0.2750
10335SOL    HW131904   3.309   4.304   6.749 -0.9099  0.2778  0.7863
10335SOL    HW231905   3.181   4.239   6.828 -1.1752 -2.1461 -1.4857
10336SOL     OW31906   6.803   0.274   0.441 -0.3652 -0.3708 -0.5329
10336SOL    HW131907   6.759   0.251   0.354 -0.0025  2.6182 -1.6355
10336SOL    HW231908   6.840   0.367   0.435 -1.5294  0.5005  3.3110
10337SOL     OW31909   0.343   6.282   0.272 -0.2199 -0.4064  0.0082
10337SOL    HW131910   0.400   6.259   0.193  0.1168  2.5119 -0.7014
10337SOL    HW231911   0.246   6.277   0.246 -0.1112  0.4634 -0.5799
10338SOL     OW31912   0.737   0.546   1.389  0.2075  0.5172  0.7095
10338SOL    HW131913   0.721   0.543   1.487 -2.1098 -0.0904  0.3795
10338SOL    HW231914   0.690   0.470   1.345 -0.0164  1.5798 -0.9986
10339SOL     OW31915   5.266   3.577   5.393  0.7628 -0.3434 -0.4395
10339SOL    HW131916   5.273   3.676   5.379 -0.9374 -0.4444 -2.4373
10339SOL    HW231917   5.196   3.558   5.462 -2.4461 -0.1421 -3.3636
10340SOL     OW31918   1.783   4.073   5.286 -0.4584 -0.2980  0.0426
10340SOL    HW131919   1.828   4.155   5.250  0.7265 -1.3043 -0.8850
10340SOL    HW231920   1.852   4.009   5.319 -1.3445 -1.0364  0.5152
10341SOL     OW31921   2.856   4.566   1.486 -0.1083  0.3995  0.1336
10341SOL    HW131922   2.824   4.653   1.524 -1.3793 -0.0109  0.0757
10341SOL    HW231923   2.841   4.493   1.553  1.2059  0.2499  0.2903
10342SOL     OW31924   2.346   5.335   3.211  0.1139 -0.2727 -0.6126
10342SOL    HW131925   2.295   5.266   3.159  0.6695 -1.9289  0.9147
10342SOL    HW231926   2.310   5.339   3.304 -1.2572  3.0529 -1.1764
10343SOL     OW31927   4.306   4.782   6.041 -0.0589 -0.0822 -0.3572
10343SOL    HW131928   4.340   4.876   6.042  1.0820 -0.4777 -0.3266
10343SOL    HW231929   4.266   4.761   5.952 -1.7235  0.8879  0.1078
10344SOL     OW31930   2.306   2.710   0.179 -0.0696 -0.0982  0.1306
10344SOL    HW131931   2.400   2.698   0.146  0.8467  1.3094  2.0537
10344SOL    HW231932   2.284   2.807   0.184  0.2479 -0.0395  4.3022
10345SOL     OW31933   1.013   2.496   1.057 -0.3631  0.5450 -0.5234
10345SOL    HW131934   1.080   2.563   1.089  0.6814  0.3175 -2.0899
10345SOL    HW231935   1.050   2.449   0.977 -0.5238 -2.8172  1.2053
10346SOL     OW31936   1.947   5.620   0.395  0.4776  0.3457  0.5475
10346SOL    HW131937   1.880   5.687   0.426  0.1184  0.8288 -1.1634
10346SOL    HW231938   1.925   5.531   0.434 -0.8642  0.5989  0.4229
10347SOL     OW31939   4.244   2.317   3.776 -0.3273  0.5757  0.7856
10347SOL    HW131940   4.309   2.391   3.759 -0.8405  1.0986  1.0452
10347SOL    HW231941   4.203   2.288   3.690 -0.4625  0.9223  0.7287
10348SOL     OW31942   0.792   2.689   0.373 -0.5175  0.4152 -0.2667
10348SOL    HW131943   0.783   2.630   0.453  1.3521  0.2914 -0.0956
10348SOL    HW231944   0.844   2.771   0.397  3.5213 -1.3281 -2.0217
10349SOL     OW31945   0.336   0.965   2.454  0.2959 -0.0410 -0.1229
10349SOL    HW131946   0.421   0.999   2.496 -0.7094  1.8028  0.5561
10349SOL    HW231947   0.334   0.992   2.358  0.2047  0.4872  0.0227
10350SOL     OW31948   1.670   5.908   5.613 -0.1790  0.2245  0.5079
10350SOL    HW131949   1.634   5.944   5.699 -0.6887 -0.9623  0.8150
10350SOL    HW231950   1.767   5.929   5.606 -0.3046  1.0235  0.9886
10351SOL     OW31951   5.477   5.165   6.507  0.4889 -0.3007  0.5166
10351SOL    HW131952   5.495   5.071   6.535  1.6480 -0.0126  0.7601
10351SOL    HW231953   5.414   5.207   6.572 -1.7669 -1.5200 -0.7232
10352SOL     OW31954   1.278   1.131   6.165 -0.2363 -0.2534  0.2796
10352SOL    HW131955   1.212   1.056   6.164  0.2525 -0.7466  1.8268
10352SOL    HW231956   1.364   1.100   6.205 -0.2322  1.2688  1.5706
10353SOL     OW31957   0.437   1.703   3.445 -0.0519  0.3639  0.3605
10353SOL    HW131958   0.363   1.738   3.388  1.9861  1.9818 -1.4108
10353SOL    HW231959   0.484   1.779   3.490  1.6858 -0.4577 -0.0076
10354SOL     OW31960   6.582   1.658   1.174  0.0178  0.5733  0.8429
10354SOL    HW131961   6.488   1.688   1.191 -0.5561 -0.7582  0.2306
10354SOL    HW231962   6.613   1.694   1.086 -1.6882 -2.6358 -1.2719
10355SOL     OW31963   2.935   1.370   3.169  0.0783  0.2090  0.3198
10355SOL    HW131964   2.865   1.363   3.240  0.3849 -0.9905  0.5173
10355SOL    HW231965   2.918   1.302   3.098  1.0886 -0.1644  0.4143
10356SOL     OW31966   0.999   5.824   3.134  0.5533  0.5287 -0.2062
10356SOL    HW131967   0.986   5.903   3.074 -0.1303  0.9435  0.4638
10356SOL    HW231968   1.044   5.751   3.084  1.1674  1.3340 -0.8460
10357SOL     OW31969   2.677   2.233   5.424 -0.2597 -0.1376 -0.0595
10357SOL    HW131970   2.656   2.140   5.394  1.6056 -0.3606 -0.8361
10357SOL    HW231971   2.687   2.292   5.344  0.3918  0.2856  0.3236
10358SOL     OW31972   0.204   5.672   1.459  0.3344  0.3087  0.0186
10358SOL    HW131973   0.108   5.681   1.432  0.5428  1.3564 -0.4031
10358SOL    HW231974   0.221   5.724   1.542  0.6891  0.7154 -0.3010
10359SOL     OW31975   6.807   3.401   0.498 -0.6382  0.0656  0.0418
10359SOL    HW131976   6.812   3.484   0.554 -1.0984 -0.8227  1.4406
10359SOL    HW231977   6.712   3.369   0.495 -0.3956 -0.6583 -0.1184
10360SOL     OW31978   6.180   5.690   2.830  0.2009  0.1092 -0.1422
10360SOL    HW131979   6.198   5.600   2.791  2.3535  0.3808  0.0880
10360SOL    HW231980   6.249   5.755   2.797 -1.1132  1.6107 -0.0429
10361SOL     OW31981   3.285   6.746   4.113  0.2712  0.2277  0.0228
10361SOL    HW131982   3.312   6.743   4.017 -0.7751  1.0366 -0.3101
10361SOL    HW231983   3.310   6.660   4.157  1.4739  0.1501 -0.7680
10362SOL     OW31984   2.182   6.008   4.962 -0.4582  0.7310  0.3784
10362SOL    HW131985   2.140   5.935   5.017 -1.8846  1.3161  0.1042
10362SOL    HW231986   2.215   6.080   5.022 -0.8402  0.7698  0.5446
10363SOL     OW31987   5.351   2.732   2.595  0.7956  0.1718  0.0175
10363SOL    HW131988   5.325   2.783   2.513  2.1223  0.9720  0.0673
10363SOL    HW231989   5.387   2.795   2.664 -0.1260 -0.5171  1.1590
10364SOL     OW31990   2.937   2.896   1.721 -0.2293 -0.4182 -0.0837
10364SOL    HW131991   2.886   2.980   1.737  0.1002 -0.2085 -0.1143
10364SOL    HW231992   2.992   2.905   1.638  1.6262  0.2301  1.1512
10365SOL     OW31993   3.470   4.272   0.046  0.1323  0.7691  0.3674
10365SOL    HW131994   3.433   4.242  -0.042 -1.6266  1.5997  0.7649
10365SOL    HW231995   3.561   4.312   0.032 -0.1577  0.9921 -1.0968
10366SOL     OW31996   2.216   0.291   4.129  0.2165  0.7834  0.2921
10366SOL    HW131997   2.153   0.367   4.110 -1.6212 -0.7299  0.0321
10366SOL    HW231998   2.295   0.298   4.068 -1.0586  1.2184 -1.4052
10367SOL     OW31999   6.622   3.523   3.984 -0.5915  0.1263 -0.0134
10367SOL    HW132000   6.537   3.528   4.038 -0.2603  1.1275  0.4395
10367SOL    HW232001   6.620   3.592   3.913 -0.5226 -0.4322 -0.5640
10368SOL     OW32002   1.359   2.163   2.581 -0.6607 -0.4208 -0.1041
10368SOL    HW132003   1.361   2.258   2.551  3.7396  0.6400  2.5482
10368SOL    HW232004   1.413   2.107   2.519  0.9550 -0.0429  0.8903
10369SOL     OW32005   3.486   0.576   4.241  0.5068  0.7764 -0.2371
10369SOL    HW132006   3.544   0.629   4.303  0.8380  0.4686 -0.2802
10369SOL    HW232007   3.480   0.623   4.153  1.0140  0.6108 -0.3620
10370SOL     OW32008   3.867   1.320   4.590 -0.5748 -0.7840 -0.7611
10370SOL    HW132009   3.892   1.416   4.606  1.8176 -0.9799 -2.7381
10370SOL    HW232010   3.778   1.301   4.633 -0.6758  2.0251  0.4954
10371SOL     OW32011   3.432   0.760   3.983 -0.7264  0.4357 -0.4747
10371SOL    HW132012   3.516   0.810   3.961  0.4494 -1.5316 -0.6682
10371SOL    HW232013   3.354   0.807   3.942  0.1802  2.5649  0.0925
10372SOL     OW32014   1.696   1.751   6.129 -0.2261 -0.4311  0.5861
10372SOL    HW132015   1.758   1.768   6.053  1.0279 -0.6351  1.5316
10372SOL    HW232016   1.624   1.689   6.100 -0.8798  0.9611 -0.9634
10373SOL     OW32017   2.242   4.996   2.852  0.5548  0.1192 -0.3085
10373SOL    HW132018   2.224   5.067   2.783 -2.2937  0.3498  0.5264
10373SOL    HW232019   2.227   5.034   2.943 -1.7340 -1.6374  0.1399
10374SOL     OW32020   3.755   1.575   4.052 -0.0227  0.3087  0.1893
10374SOL    HW132021   3.808   1.491   4.065  0.8550  1.0316  1.4414
10374SOL    HW232022   3.813   1.654   4.070 -1.0823  1.1634 -0.0963
10375SOL     OW32023   3.888   2.864   0.369  0.2196  0.2811  0.7372
10375SOL    HW132024   3.899   2.812   0.454 -0.5335 -1.6513 -0.2806
10375SOL    HW232025   3.796   2.848   0.333  0.1501  1.9678  0.1130
10376SOL     OW32026   1.340   0.177   4.365 -0.5126 -0.5864 -0.0432
10376SOL    HW132027   1.331   0.266   4.410 -0.4740 -0.5160 -0.1739
10376SOL    HW232028   1.369   0.109   4.432 -0.0398 -0.3936 -0.0505
10377SOL     OW32029   5.408   0.411   4.376  0.2661 -0.0002  0.3192
10377SOL    HW132030   5.500   0.445   4.398 -0.4848  1.7506  0.9447
10377SOL    HW232031   5.373   0.460   4.296 -1.1481  1.3920  1.7061
10378SOL     OW32032   6.764   0.777   4.213 -0.7685  0.2962 -0.6026
10378SOL    HW132033   6.694   0.837   4.174 -0.8982  0.2189 -0.4880
10378SOL    HW232034   6.850   0.827   4.221 -0.8597  0.4461 -0.5694
10379SOL     OW32035   2.333   1.186   4.860 -0.0093  0.2770  0.7554
10379SOL    HW132036   2.315   1.106   4.918 -0.2261  0.9603  1.6541
10379SOL    HW232037   2.317   1.161   4.764  1.5952 -1.2427  0.8260
10380SOL     OW32038   5.587   2.849   5.439  0.4609 -0.6269  0.0494
10380SOL    HW132039   5.596   2.925   5.375 -0.1115 -0.4714  0.1413
10380SOL    HW232040   5.546   2.771   5.392 -0.0341 -0.4865  0.2330
10381SOL     OW32041   5.193   4.698   0.776  0.2717 -0.2535  0.3788
10381SOL    HW132042   5.258   4.633   0.736 -0.4356 -0.3025 -0.7365
10381SOL    HW232043   5.123   4.721   0.709  1.2885  2.7855  0.1786
10382SOL     OW32044   1.292   4.662   5.717 -0.8624  0.1766 -0.0554
10382SOL    HW132045   1.304   4.727   5.642  0.8141  0.8545  0.7440
10382SOL    HW232046   1.368   4.597   5.717 -1.2777 -0.3201  0.5739
10383SOL     OW32047   1.412   4.655   6.254 -0.4684 -0.2000 -0.4375
10383SOL    HW132048   1.335   4.603   6.292 -1.9725  1.6388 -0.8096
10383SOL    HW232049   1.422   4.635   6.157  1.9987 -3.2552  0.2879
10384SOL     OW32050   1.417   6.736   6.305 -0.8197  0.1606 -0.1662
10384SOL    HW132051   1.406   6.704   6.211 -0.5223 -1.7904  0.4234
10384SOL    HW232052   1.515   6.743   6.327 -0.8428 -1.8958  0.7599
10385SOL     OW32053   4.540   6.706   5.415 -0.4986 -0.1812  0.8508
10385SOL    HW132054   4.471   6.768   5.451  0.8893  1.2957  1.0706
10385SOL    HW232055   4.578   6.651   5.489 -0.6396 -0.1879  0.9179
10386SOL     OW32056   5.895   5.175   4.634 -0.6914  0.1558 -0.3871
10386SOL    HW132057   5.848   5.213   4.554 -0.1548 -1.2537 -1.4350
10386SOL    HW232058   5.968   5.113   4.603  1.7885  2.0954  1.1652
10387SOL     OW32059   1.228   1.785   3.467 -0.2440 -0.1946  0.2587
10387SOL    HW132060   1.155   1.738   3.516 -1.2802 -0.0169 -1.0901
10387SOL    HW232061   1.190   1.856   3.408  0.9920 -0.1788 -0.5692
10388SOL     OW32062   2.703   5.242   3.519 -0.0085  0.3339  0.0148
10388SOL    HW132063   2.775   5.234   3.587 -0.3483  0.9129  0.4506
10388SOL    HW232064   2.731   5.307   3.449  1.1199 -1.5921 -1.4319
10389SOL     OW32065   2.255   0.479   3.917  0.1136  0.5796 -0.3227
10389SOL    HW132066   2.328   0.412   3.929 -1.2133 -0.6103  1.5410
10389SOL    HW232067   2.291   0.570   3.938  1.6024  0.3475 -1.6447
10390SOL     OW32068   2.041   3.914   2.496  0.1590 -0.1516  0.3539
10390SOL    HW132069   1.950   3.930   2.535  0.0877  0.4277 -0.0418
10390SOL    HW232070   2.111   3.948   2.559  0.0621  0.3643  0.1814
10391SOL     OW32071   0.707   0.258   0.981 -0.2942 -0.7729 -0.0501
10391SOL    HW132072   0.773   0.316   1.028  0.4149  0.3561 -2.3163
10391SOL    HW232073   0.749   0.171   0.958 -0.1748 -0.7515  0.0846
10392SOL     OW32074   1.158   3.360   6.310 -0.2354 -0.5099  0.1983
10392SOL    HW132075   1.201   3.296   6.375 -0.8419 -1.2506 -0.1223
10392SOL    HW232076   1.170   3.454   6.344  0.8029 -0.7668  0.5960
10393SOL     OW32077   1.736   1.922   2.840 -0.0288 -0.2417  0.0902
10393SOL    HW132078   1.688   1.842   2.876 -1.0942  0.8180  1.1180
10393SOL    HW232079   1.707   1.938   2.746 -0.0905 -0.8423  0.0020
10394SOL     OW32080   2.412   0.494   6.637  0.2000 -0.0780 -0.1663
10394SOL    HW132081   2.507   0.463   6.636  0.2139 -0.0291 -0.3976
10394SOL    HW232082   2.382   0.512   6.543 -0.8582 -2.6149 -0.3916
10395SOL     OW32083   6.535   0.400   3.385  0.0023  0.4742  0.0974
10395SOL    HW132084   6.512   0.326   3.448  0.5537 -0.7992 -1.1375
10395SOL    HW232085   6.624   0.439   3.409  0.8060 -0.8686 -0.6310
10396SOL     OW32086   0.873   0.153   4.708 -0.4986  0.4156 -0.1535
10396SOL    HW132087   0.923   0.086   4.764 -1.1715  0.0179 -0.0098
10396SOL    HW232088   0.928   0.176   4.627  0.1822  0.4663  0.3149
10397SOL     OW32089   3.882   6.712   4.119 -0.3152 -0.2424 -0.4463
10397SOL    HW132090   3.950   6.770   4.163  0.6671 -2.0863  0.6340
10397SOL    HW232091   3.914   6.686   4.028 -1.2268  1.6335 -1.3565
10398SOL     OW32092   0.243   1.910   6.999  0.3639 -0.3405  0.4654
10398SOL    HW132093   0.180   1.834   6.983  1.0626 -0.8545  0.1325
10398SOL    HW232094   0.201   1.975   7.063 -1.0515 -0.0113 -0.7464
10399SOL     OW32095   4.046   4.848   6.136 -0.4315 -0.1870 -0.6418
10399SOL    HW132096   3.972   4.797   6.093  0.8317 -0.8550 -2.0964
10399SOL    HW232097   4.129   4.842   6.080  0.8533  0.2395  1.1124
10400SOL     OW32098   3.693   6.795   3.210  0.4561 -0.8153  0.2300
10400SOL    HW132099   3.782   6.763   3.243 -1.1411 -2.3524  3.5053
10400SOL    HW232100   3.679   6.889   3.242  0.2225 -1.2013  1.3296
10401SOL     OW32101   0.646   5.640   0.862  0.4645  0.1150 -0.0181
10401SOL    HW132102   0.575   5.705   0.891  1.5745  0.4066  2.2326
10401SOL    HW232103   0.626   5.550   0.900  0.9975  0.0643  0.1415
10402SOL     OW32104   6.963   2.371   6.508 -0.3198 -0.0103 -0.7969
10402SOL    HW132105   6.968   2.293   6.446 -0.9184 -1.0742  0.4670
10402SOL    HW232106   7.049   2.379   6.559 -0.4500 -0.1540 -0.5553
10403SOL     OW32107   5.089   2.122   2.342  0.0162  0.0818 -0.3124
10403SOL    HW132108   5.075   2.092   2.437  0.3698  0.2316 -0.2087
10403SOL    HW232109   5.033   2.067   2.281  0.3501 -0.5297 -0.0839
10404SOL     OW32110   1.381   6.792   5.645 -0.3969 -0.2356  0.1553
10404SOL    HW132111   1.324   6.847   5.584  0.6467 -2.0046 -2.6108
10404SOL    HW232112   1.356   6.696   5.638  2.4414 -1.0169 -0.7460
10405SOL     OW32113   0.219   3.995   4.191  0.2954 -0.6712 -0.7218
10405SOL    HW132114   0.202   4.028   4.284 -1.1319 -2.5378 -0.2519
10405SOL    HW232115   0.308   4.028   4.160  0.3085  0.9462  0.8420
10406SOL     OW32116   0.935   6.014   5.586  0.4722  0.0882  0.1845
10406SOL    HW132117   0.943   6.070   5.669 -2.5491 -2.8678  2.7547
10406SOL    HW232118   1.008   5.945   5.585  0.3364 -0.0659  0.5844
10407SOL     OW32119   0.048   0.839   0.079 -0.3527 -0.5131 -0.1443
10407SOL    HW132120   0.002   0.751   0.068  0.4816 -0.7170 -2.8294
10407SOL    HW232121   0.138   0.825   0.119 -1.5318 -0.3925  2.7688
10408SOL     OW32122   5.578   6.425   3.518  0.2067 -0.1407 -0.0017
10408SOL    HW132123   5.587   6.485   3.439 -0.1383  0.5053  0.4371
10408SOL    HW232124   5.487   6.383   3.518  0.0634  0.1717  0.2680
10409SOL     OW32125   0.397   5.195   3.018 -0.1277 -0.3482  0.7530
10409SOL    HW132126   0.332   5.269   3.033  2.1638  2.4513 -1.8525
10409SOL    HW232127   0.405   5.177   2.920  2.5817 -0.8852  0.9882
10410SOL     OW32128   5.585   6.499   2.043  0.0821 -0.1974  0.0172
10410SOL    HW132129   5.646   6.522   2.118  0.7861 -2.7670  0.3402
10410SOL    HW232130   5.599   6.562   1.967  2.3689 -0.0546  0.5025
10411SOL     OW32131   2.258   4.389   1.966  0.2101 -0.2861 -0.1557
10411SOL    HW132132   2.249   4.358   2.061  0.7887 -2.1036 -0.6516
10411SOL    HW232133   2.296   4.482   1.965 -2.2621  0.8702  1.4273
10412SOL     OW32134   6.259   1.277   0.167 -0.3708 -0.4277  0.2925
10412SOL    HW132135   6.302   1.230   0.244 -0.2334  0.1672  0.5846
10412SOL    HW232136   6.180   1.224   0.136  0.8516 -1.8088 -0.5955
10413SOL     OW32137   6.916   2.206   6.879  0.2568 -0.1503  0.5751
10413SOL    HW132138   6.913   2.144   6.801 -1.5334  0.3653  0.1814
10413SOL    HW232139   6.974   2.168   6.950 -1.8980 -3.0601  0.9629
10414SOL     OW32140   5.575   5.826   0.061 -0.0750 -0.0536  0.1023
10414SOL    HW132141   5.533   5.803  -0.027 -0.9536  0.5332  0.3626
10414SOL    HW232142   5.665   5.782   0.067 -0.3418 -0.7459 -0.7542
10415SOL     OW32143   0.223   4.414   4.450  0.0546 -0.5535 -0.4216
10415SOL    HW132144   0.165   4.336   4.427 -0.7062 -0.0673 -0.1860
10415SOL    HW232145   0.233   4.420   4.550 -1.5194  0.7712 -0.2929
10416SOL     OW32146   6.933   0.153   5.448  0.3824 -0.3023  0.2900
10416SOL    HW132147   7.006   0.104   5.402  1.4553  2.2692 -0.9436
10416SOL    HW232148   6.966   0.188   5.535  0.9915  1.6046 -0.6567
10417SOL     OW32149   3.240   5.311   2.043 -0.1214 -0.5535  0.0130
10417SOL    HW132150   3.236   5.370   1.962 -1.6034  0.5522  0.8453
10417SOL    HW232151   3.283   5.361   2.118 -0.6330 -0.8383  0.4989
10418SOL     OW32152   6.008   2.658   5.534  0.2899  0.1945 -0.1736
10418SOL    HW132153   6.015   2.710   5.620  1.2846  3.6793 -2.1580
10418SOL    HW232154   6.087   2.679   5.476 -2.4034  1.5405 -3.6804
10419SOL     OW32155   2.947   1.293   6.752  0.1686  0.3164  0.9430
10419SOL    HW132156   3.012   1.321   6.681  2.3619 -3.2898  1.2839
10419SOL    HW232157   2.874   1.240   6.710  0.1824  0.1676  1.1086
10420SOL     OW32158   6.232   2.716   1.817 -0.1314  0.2299 -0.4375
10420SOL    HW132159   6.289   2.795   1.839  0.1750 -0.0839 -0.0876
10420SOL    HW232160   6.150   2.746   1.768  0.1647  0.7211 -0.6355
10421SOL     OW32161   1.731   4.355   1.690 -0.1634  0.6197 -0.1882
10421SOL    HW132162   1.829   4.336   1.693 -0.3876 -0.4941  0.6478
10421SOL    HW232163   1.686   4.290   1.629 -0.7583 -0.8198  1.6904
10422SOL     OW32164   6.846   2.982   4.826  0.0535 -0.1517  0.1966
10422SOL    HW132165   6.926   2.945   4.873 -0.3554  1.3204  2.1830
10422SOL    HW232166   6.765   2.929   4.853 -0.2322  0.8976  1.4978
10423SOL     OW32167   3.766   5.406   5.545  0.7253  0.3840  0.0560
10423SOL    HW132168   3.865   5.414   5.556  0.7943  0.4635 -0.6008
10423SOL    HW232169   3.724   5.495   5.565  0.8037  0.4001  0.1527
10424SOL     OW32170   5.137   6.812   5.726  1.1143 -0.3640  0.7093
10424SOL    HW132171   5.096   6.794   5.815 -1.0583  1.7346  0.2385
10424SOL    HW232172   5.217   6.871   5.738  1.0720 -0.4186  1.2888
10425SOL     OW32173   1.031   0.632   1.024 -0.6261  0.5592  0.5445
10425SOL    HW132174   1.015   0.616   1.121 -1.8460 -2.7463 -0.0970
10425SOL    HW232175   0.951   0.676   0.983 -0.3657  1.3573  0.8650
10426SOL     OW32176   5.268   1.219   4.778  0.1973  0.0540 -0.3435
10426SOL    HW132177   5.197   1.281   4.812 -0.4295 -1.1507  0.6693
10426SOL    HW232178   5.242   1.125   4.799  2.0704 -0.4353 -0.0490
10427SOL     OW32179   4.576   6.086   6.397 -0.2438 -0.1286  0.5164
10427SOL    HW132180   4.676   6.085   6.404 -0.1911  0.9264  0.1317
10427SOL    HW232181   4.544   6.181   6.392 -1.2555 -0.4612  0.4491
10428SOL     OW32182   0.494   2.857   2.926  0.5183  0.0162 -0.0126
10428SOL    HW132183   0.399   2.853   2.894  0.8223  1.5702 -1.2360
10428SOL    HW232184   0.494   2.863   3.026 -0.6294 -0.7990  0.0608
10429SOL     OW32185   0.630   5.596   1.737 -0.0737 -1.1813  0.0094
10429SOL    HW132186   0.620   5.526   1.808  1.0474  0.2418  1.6430
10429SOL    HW232187   0.593   5.682   1.769  0.4545 -0.4985 -1.1395
10430SOL     OW32188   2.245   6.908   4.240  0.2596 -0.4035  0.2009
10430SOL    HW132189   2.307   6.940   4.168  0.9430  0.6503  1.2244
10430SOL    HW232190   2.267   6.813   4.262  2.1160  0.1944  1.1151
10431SOL     OW32191   2.259   4.285   3.961 -0.5326 -0.6034 -0.3926
10431SOL    HW132192   2.288   4.241   4.046  0.9516 -0.2122 -0.6750
10431SOL    HW232193   2.161   4.306   3.966 -0.5181 -0.8029  1.1211
10432SOL     OW32194   1.894   0.400   0.023  0.0341  0.7630  0.3797
10432SOL    HW132195   1.861   0.444  -0.060  0.1709 -2.2491 -1.4005
10432SOL    HW232196   1.971   0.340   0.002 -1.4616 -2.0258  2.1132
10433SOL     OW32197   0.680   6.936   1.169  0.8422  0.2796  0.8374
10433SOL    HW132198   0.690   6.889   1.257  0.2036  0.2332  0.8874
10433SOL    HW232199   0.764   6.987   1.149  2.6551 -2.8769 -0.4089
10434SOL     OW32200   4.146   0.583   3.597 -0.4824 -0.1723  0.2248
10434SOL    HW132201   4.214   0.597   3.525 -1.8783 -0.2359 -1.1562
10434SOL    HW232202   4.107   0.491   3.588 -0.3867 -0.3275  1.3240
10435SOL     OW32203   0.625   2.775   6.081  0.3776  0.7001  0.1601
10435SOL    HW132204   0.603   2.700   6.019  0.0946  0.7495  0.2027
10435SOL    HW232205   0.719   2.805   6.064  0.5074  0.3060  0.1756
10436SOL     OW32206   0.115   3.729   3.113 -0.0667  0.1125  0.5457
10436SOL    HW132207   0.027   3.697   3.079 -0.7298  1.8527  0.5116
10436SOL    HW232208   0.155   3.793   3.047  1.3413 -0.8277  0.4616
10437SOL     OW32209   4.708   2.769   4.313  0.2512  0.4207  0.3228
10437SOL    HW132210   4.667   2.692   4.360  2.2643 -0.9079  0.0091
10437SOL    HW232211   4.806   2.772   4.332  1.3514 -0.5753 -4.0958
10438SOL     OW32212   6.392   5.195   1.743  0.0559 -0.2827 -0.3517
10438SOL    HW132213   6.302   5.226   1.713  0.7609  1.5298 -0.7317
10438SOL    HW232214   6.446   5.168   1.663  1.1197  2.3081 -0.6156
10439SOL     OW32215   0.854   0.675   5.653 -0.0613  0.6495 -0.3253
10439SOL    HW132216   0.839   0.705   5.748  0.0912  0.0137 -0.0954
10439SOL    HW232217   0.902   0.748   5.603  0.1193  0.8763  0.1681
10440SOL     OW32218   6.670   0.279   1.094  0.0917 -0.1915 -0.2836
10440SOL    HW132219   6.747   0.320   1.143  0.1845 -0.6769 -0.0197
10440SOL    HW232220   6.705   0.215   1.025 -0.0697 -0.4854 -0.0977
10441SOL     OW32221   4.224   1.863   2.217 -0.0141  0.4599 -0.3226
10441SOL    HW132222   4.243   1.808   2.298 -0.8348 -0.5859 -0.8227
10441SOL    HW232223   4.309   1.874   2.164  0.8522  2.3310  1.3455
10442SOL     OW32224   0.742   2.043   5.847  0.2638 -0.1557 -0.0361
10442SOL    HW132225   0.683   2.083   5.777  0.3852 -0.4700 -0.3265
10442SOL    HW232226   0.792   2.115   5.894 -1.6067  0.2722  1.3926
10443SOL     OW32227   2.310   2.222   3.517  0.4836  0.2857 -0.0288
10443SOL    HW132228   2.219   2.265   3.518  0.5943  0.5123  0.3358
10443SOL    HW232229   2.332   2.193   3.424 -0.1775 -0.2191 -0.0352
10444SOL     OW32230   2.269   5.783   4.346 -0.0969  0.0840  0.2979
10444SOL    HW132231   2.309   5.816   4.260 -0.4483 -1.1839 -0.3716
10444SOL    HW232232   2.334   5.722   4.391 -0.6167 -0.7169 -0.0051
10445SOL     OW32233   5.953   5.678   2.378  0.1548  0.4472 -0.2042
10445SOL    HW132234   5.947   5.682   2.278  0.7627 -0.4609 -0.2882
10445SOL    HW232235   6.041   5.638   2.405 -0.2551  0.1160  0.6815
10446SOL     OW32236   0.211   4.752   4.754 -0.6174  0.2497 -1.3051
10446SOL    HW132237   0.188   4.849   4.767  0.0147  0.4551 -1.6653
10446SOL    HW232238   0.165   4.697   4.823  2.4854  1.2558  1.8203
10447SOL     OW32239   6.290   1.027   2.684  0.2320 -0.0434 -0.0344
10447SOL    HW132240   6.340   0.948   2.720  0.2032 -0.0344  0.0261
10447SOL    HW232241   6.258   1.083   2.761 -0.2969 -0.3113 -0.0597
10448SOL     OW32242   2.209   1.446   1.154 -0.1165  0.0219 -0.1574
10448SOL    HW132243   2.187   1.352   1.178 -1.1598  0.3905  0.4022
10448SOL    HW232244   2.133   1.506   1.181  0.7936  1.1067  0.0773
10449SOL     OW32245   3.555   0.397   0.442  0.0438  0.0920 -0.0364
10449SOL    HW132246   3.551   0.488   0.483  1.8081 -0.4169  1.3944
10449SOL    HW232247   3.650   0.374   0.422 -0.4866 -1.0221 -1.3796
10450SOL     OW32248   3.685   5.759   6.873 -0.2624 -0.3383 -0.2082
10450SOL    HW132249   3.692   5.851   6.833 -1.8877 -0.5530 -1.0660
10450SOL    HW232250   3.770   5.709   6.856  0.2815  0.6793 -0.5747
10451SOL     OW32251   1.121   2.108   4.968  0.0066  0.0252 -0.1480
10451SOL    HW132252   1.141   2.198   4.931 -0.7939  1.1129  1.8905
10451SOL    HW232253   1.182   2.040   4.928  1.6552  1.7173 -0.6160
10452SOL     OW32254   0.552   4.847   2.717 -0.6068 -0.5569 -0.5774
10452SOL    HW132255   0.556   4.760   2.766 -0.0603  0.2805  0.9256
10452SOL    HW232256   0.645   4.883   2.706 -0.9281  0.5498  0.1701
10453SOL     OW32257   3.577   5.293   2.131  0.1488  0.1242 -0.1228
10453SOL    HW132258   3.569   5.198   2.163  1.9504  0.2385  0.8055
10453SOL    HW232259   3.581   5.293   2.031  0.3009 -0.7986 -0.1311
10454SOL     OW32260   5.955   1.109   6.651  0.4055 -0.4052 -0.3810
10454SOL    HW132261   5.985   1.185   6.709  0.8937 -1.9527  1.5305
10454SOL    HW232262   5.930   1.143   6.561  1.8043  1.8351 -0.0032
10455SOL     OW32263   6.126   5.774   3.964  0.0939 -0.0608  0.1340
10455SOL    HW132264   6.212   5.825   3.972 -0.0020  0.3197 -0.9792
10455SOL    HW232265   6.128   5.718   3.881 -0.4394 -0.6481  0.5032
10456SOL     OW32266   0.044   5.785   0.498  0.9351  0.1628 -0.1804
10456SOL    HW132267   0.044   5.861   0.433  1.1506 -0.1430 -0.5456
10456SOL    HW232268   0.132   5.738   0.494  1.2697  0.6691  0.9773
10457SOL     OW32269   4.923   2.448   0.409 -0.3962 -0.0487 -1.0343
10457SOL    HW132270   5.003   2.389   0.417  0.6361  0.8964 -3.4604
10457SOL    HW232271   4.850   2.399   0.362 -1.2538 -0.8480  1.0159
10458SOL     OW32272   1.975   0.913   0.050 -0.2520  0.2679 -0.1594
10458SOL    HW132273   1.956   0.989  -0.013  1.0532  0.7345 -0.0304
10458SOL    HW232274   2.051   0.938   0.110 -0.1574 -0.9424  0.2527
10459SOL     OW32275   5.857   5.617   0.653  0.0251  0.2815  0.2505
10459SOL    HW132276   5.863   5.528   0.699  1.5584  0.4860  0.5100
10459SOL    HW232277   5.938   5.630   0.596 -0.8757  0.9141 -0.9170
10460SOL     OW32278   6.645   4.892   3.255 -0.0256 -0.7471  0.5125
10460SOL    HW132279   6.732   4.843   3.254 -0.1992 -1.0603  0.8579
10460SOL    HW232280   6.581   4.848   3.191  0.8116  0.8480 -1.5233
10461SOL     OW32281   4.197   7.016   4.452  0.0564  0.0221  0.3903
10461SOL    HW132282   4.245   6.949   4.508  0.3882 -0.5769 -0.5847
10461SOL    HW232283   4.263   7.076   4.407 -0.2024  0.4694  0.5992
10462SOL     OW32284   5.884   1.400   1.872 -0.1618 -0.3026 -0.1405
10462SOL    HW132285   5.922   1.372   1.960  0.0503  0.9213  0.1748
10462SOL    HW232286   5.785   1.387   1.873 -0.2354  0.2628  0.5016
10463SOL     OW32287   5.949   4.166   0.725 -0.0634  0.4471  0.2048
10463SOL    HW132288   5.921   4.205   0.813 -0.9159 -2.5356  1.3749
10463SOL    HW232289   5.868   4.150   0.668  0.2943  0.5954 -0.3609
10464SOL     OW32290   5.121   5.627   3.264  0.0520  0.1379 -0.2436
10464SOL    HW132291   5.129   5.530   3.290  1.1418  0.4413  0.6725
10464SOL    HW232292   5.176   5.682   3.327  0.0134  1.2874 -1.1897
10465SOL     OW32293   5.352   4.094   3.243 -0.3166 -0.5776  0.3725
10465SOL    HW132294   5.375   3.996   3.246 -0.9985 -0.7514  0.1395
10465SOL    HW232295   5.265   4.106   3.196 -0.5991  0.0780  1.0375
10466SOL     OW32296   4.811   4.919   5.370  0.2293 -0.1998  0.2640
10466SOL    HW132297   4.775   4.840   5.421  0.3542  0.3979  1.3123
10466SOL    HW232298   4.735   4.970   5.330  0.1801 -1.1480 -0.8977
10467SOL     OW32299   0.277   4.325   5.914  0.3567  0.0350  0.1018
10467SOL    HW132300   0.316   4.234   5.898 -0.4412 -0.5476  1.3131
10467SOL    HW232301   0.315   4.362   5.999  0.6257  0.8164 -0.3525
10468SOL     OW32302   2.396   6.477   3.097  0.1971  0.1372  0.2044
10468SOL    HW132303   2.323   6.526   3.050  1.7043  1.9571 -0.3555
10468SOL    HW232304   2.443   6.418   3.031 -0.0273 -0.1546  0.3022
10469SOL     OW32305   4.716   3.182   6.454 -0.4287  0.0282  0.1745
10469SOL    HW132306   4.767   3.238   6.389  0.8609 -1.1140  0.1419
10469SOL    HW232307   4.693   3.094   6.411 -2.2891  0.4247  0.2659
10470SOL     OW32308   2.181   1.769   4.719 -0.1521  0.7732 -0.0880
10470SOL    HW132309   2.130   1.812   4.644  0.3415  3.9657  1.2379
10470SOL    HW232310   2.192   1.671   4.700 -2.3787  0.9196 -2.8057
10471SOL     OW32311   3.077   2.719   6.859 -0.5802 -0.1244  0.2761
10471SOL    HW132312   3.137   2.763   6.793  1.3807 -1.0804  1.3486
10471SOL    HW232313   2.991   2.693   6.813  0.4312 -0.1632 -1.7148
10472SOL     OW32314   3.782   3.019   0.608  0.2386  0.5986  0.2440
10472SOL    HW132315   3.851   2.986   0.544 -0.8057 -0.9873 -0.1293
10472SOL    HW232316   3.815   3.010   0.702  1.1480  1.4084  0.0210
10473SOL     OW32317   3.766   5.916   5.321 -0.3196  0.1998  0.5724
10473SOL    HW132318   3.688   5.858   5.339 -0.6461 -0.0956 -1.5675
10473SOL    HW232319   3.776   5.982   5.396 -1.6256 -0.7627  1.6503
10474SOL     OW32320   5.182   1.188   3.461  0.0004 -0.4518 -0.7151
10474SOL    HW132321   5.221   1.280   3.474 -0.8158 -0.0445 -1.0574
10474SOL    HW232322   5.109   1.193   3.393 -1.3561 -0.9760  0.6449
10475SOL     OW32323   0.877   0.773   1.683 -0.3324  0.4271 -0.7021
10475SOL    HW132324   0.954   0.778   1.747 -1.4656  2.1658  0.6099
10475SOL    HW232325   0.911   0.778   1.589  1.1071  2.1751 -0.1272
10476SOL     OW32326   5.079   5.618   1.339 -0.1125  0.1691  0.3565
10476SOL    HW132327   5.051   5.692   1.278  2.1371  1.6167  0.9428
10476SOL    HW232328   5.014   5.612   1.416 -0.8699  0.8434 -0.2137
10477SOL     OW32329   6.539   4.865   4.399  0.2039  0.3781 -0.5033
10477SOL    HW132330   6.612   4.908   4.451  0.4907  0.1458 -0.7090
10477SOL    HW232331   6.481   4.935   4.357  0.8962  0.5723 -1.1630
10478SOL     OW32332   5.890   6.926   1.146  0.2674  0.3748 -0.1761
10478SOL    HW132333   5.901   6.891   1.239 -0.9899  1.9812  0.6274
10478SOL    HW232334   5.834   6.861   1.093  1.0227 -0.5704  0.1481
10479SOL     OW32335   1.440   5.722   3.537  0.3573  0.4661 -0.1370
10479SOL    HW132336   1.413   5.643   3.593 -0.0936 -1.2710 -2.5889
10479SOL    HW232337   1.359   5.777   3.516  0.5896  1.3440  1.1574
10480SOL     OW32338   0.689   6.563   4.845 -0.5212  0.0531 -0.1558
10480SOL    HW132339   0.786   6.580   4.833 -0.3106 -0.2621  1.0248
10480SOL    HW232340   0.637   6.643   4.817  0.1969  0.9915  1.1188
10481SOL     OW32341   2.022   0.107   4.053 -0.4752 -0.4518  0.3519
10481SOL    HW132342   2.098   0.171   4.059 -0.8908 -0.0758  2.9420
10481SOL    HW232343   2.054   0.015   4.076 -0.6245 -0.4743  0.4687
10482SOL     OW32344   6.227   5.372   4.811  0.1115  0.2293 -0.1079
10482SOL    HW132345   6.199   5.377   4.908 -0.9824 -0.6065 -0.3598
10482SOL    HW232346   6.326   5.377   4.805  0.1354  3.1940  0.8626
10483SOL     OW32347   4.680   6.472   5.299 -0.4713 -0.2149 -0.5676
10483SOL    HW132348   4.643   6.565   5.294  0.3059  0.1783  0.5629
10483SOL    HW232349   4.751   6.461   5.230  0.6352  0.6219  0.3957
10484SOL     OW32350   4.803   1.442   1.418 -0.9234 -0.1689  0.5871
10484SOL    HW132351   4.715   1.469   1.379 -1.5137  1.5203  2.8549
10484SOL    HW232352   4.868   1.424   1.344 -2.4266  1.1334 -1.1550
10485SOL     OW32353   5.433   3.530   4.288 -0.4344  0.4838  0.7582
10485SOL    HW132354   5.399   3.470   4.360 -0.6746  1.1542  1.2226
10485SOL    HW232355   5.414   3.490   4.199 -3.0278  1.0549  0.9591
10486SOL     OW32356   6.335   2.320   1.211 -0.1310  0.4378 -0.2819
10486SOL    HW132357   6.342   2.389   1.139 -0.0965 -1.2612 -1.9946
10486SOL    HW232358   6.329   2.229   1.169  1.5963 -0.7700  1.8880
10487SOL     OW32359   0.378   5.843   2.611 -0.3854 -0.0403  0.6309
10487SOL    HW132360   0.303   5.909   2.624 -0.5955 -0.0762 -0.3372
10487SOL    HW232361   0.465   5.892   2.607 -0.4206  0.0645  1.0743
10488SOL     OW32362   1.224   2.291   0.030  0.2631 -0.3336  0.1197
10488SOL    HW132363   1.281   2.257  -0.045 -0.3552 -0.4318 -0.3074
10488SOL    HW232364   1.263   2.261   0.117  0.8727 -0.3886 -0.1645
10489SOL     OW32365   2.270   6.265   5.091 -0.8861 -0.1550  0.4826
10489SOL    HW132366   2.258   6.346   5.034 -0.8459 -1.9116 -2.1983
10489SOL    HW232367   2.188   6.250   5.146 -1.7150  0.5937 -0.5120
10490SOL     OW32368   0.592   0.713   3.744 -0.0844  0.3446  0.0495
10490SOL    HW132369   0.682   0.708   3.702  0.2000  0.5872  0.6287
10490SOL    HW232370   0.524   0.672   3.682  0.4861 -0.2601 -0.1793
10491SOL     OW32371   1.652   4.049   0.828 -0.0730  0.9077 -0.4263
10491SOL    HW132372   1.693   4.007   0.747 -1.2178  0.7344 -0.9383
10491SOL    HW232373   1.661   4.148   0.822  1.1624  0.8362 -0.0251
10492SOL     OW32374   3.732   3.145   5.082 -0.0731  0.1701  0.3266
10492SOL    HW132375   3.760   3.141   5.178  0.2188 -0.0632  0.2311
10492SOL    HW232376   3.718   3.240   5.055 -0.8158  0.2030  0.7912
10493SOL     OW32377   3.889   2.033   1.355 -0.0249  0.2968 -0.2054
10493SOL    HW132378   3.876   2.120   1.308  0.3934  0.6210  0.2568
10493SOL    HW232379   3.849   2.039   1.447 -0.9293 -0.3595 -0.5517
10494SOL     OW32380   5.496   1.365   4.720  0.1909 -0.0727  0.6822
10494SOL    HW132381   5.494   1.409   4.630 -0.6747 -0.9196  0.2689
10494SOL    HW232382   5.407   1.325   4.740  0.8210 -1.2942  1.1966
10495SOL     OW32383   2.417   2.699   1.983 -0.3027  0.0559  0.3989
10495SOL    HW132384   2.466   2.614   1.963  0.7084  0.5139  0.8583
10495SOL    HW232385   2.468   2.752   2.051 -0.6318  1.2791 -0.2686
10496SOL     OW32386   0.960   6.836   6.118  0.8967  0.4144  0.2753
10496SOL    HW132387   1.002   6.875   6.036  0.3778 -0.3157 -0.3479
10496SOL    HW232388   0.950   6.908   6.187  1.8836  0.9023 -0.0721
10497SOL     OW32389   1.293   1.232   0.034  0.2362  0.0260 -0.6561
10497SOL    HW132390   1.300   1.295   0.112  0.3063 -0.7561 -0.0219
10497SOL    HW232391   1.328   1.278  -0.048  3.4062 -0.2393  0.4066
10498SOL     OW32392   2.243   1.628   0.159  0.0523 -1.1962 -0.2556
10498SOL    HW132393   2.177   1.679   0.103  0.0708 -1.9989 -1.0203
10498SOL    HW232394   2.326   1.611   0.106  0.0457 -2.0256 -0.0173
10499SOL     OW32395   2.106   5.843   1.848  0.4955 -0.2823 -0.0016
10499SOL    HW132396   2.176   5.853   1.919 -0.3306  1.2398  0.6564
10499SOL    HW232397   2.068   5.751   1.852  1.4816 -0.6912  0.5414
10500SOL     OW32398   5.911   2.061   5.233  0.3351  0.0302  0.1931
10500SOL    HW132399   5.935   2.004   5.155  1.9647  2.2961 -1.0712
10500SOL    HW232400   5.988   2.067   5.296  0.3376  1.0975  0.1121
10501SOL     OW32401   1.476   5.837   4.252 -0.1261 -0.5692  0.3972
10501SOL    HW132402   1.448   5.765   4.190  1.7622 -1.9838  1.0914
10501SOL    HW232403   1.556   5.807   4.305  0.8745  2.0995  0.5630
10502SOL     OW32404   3.845   0.536   1.069  0.6736  0.2685  0.8958
10502SOL    HW132405   3.792   0.491   0.997  1.0661  0.6691  0.3572
10502SOL    HW232406   3.819   0.632   1.075  1.2012  0.4215  0.7651
10503SOL     OW32407   5.741   2.817   0.891 -0.1233 -0.0714  0.1943
10503SOL    HW132408   5.691   2.868   0.961  0.3175 -0.5937  0.9030
10503SOL    HW232409   5.761   2.726   0.925 -1.0139 -0.7800 -1.1132
10504SOL     OW32410   2.667   2.522   6.353 -0.0894  0.1837 -0.2666
10504SOL    HW132411   2.700   2.488   6.265  0.2041 -0.5354  0.1160
10504SOL    HW232412   2.627   2.613   6.341  1.8013  1.0090 -0.8265
10505SOL     OW32413   4.845   6.572   0.406  0.1322 -0.4978 -0.6145
10505SOL    HW132414   4.843   6.473   0.418  1.6119 -0.4985 -0.0845
10505SOL    HW232415   4.842   6.616   0.496  1.3991 -0.1453 -0.7253
10506SOL     OW32416   6.610   4.237   5.682  0.1239  0.5974  0.4821
10506SOL    HW132417   6.618   4.317   5.622 -0.5732  0.1275 -0.2603
10506SOL    HW232418   6.586   4.157   5.628  0.3844 -0.0354  1.2784
10507SOL     OW32419   3.284   0.216   0.832 -0.6176 -0.2993  0.6355
10507SOL    HW132420   3.348   0.215   0.908  2.5230 -2.1643 -1.7800
10507SOL    HW232421   3.231   0.131   0.831 -1.5536  0.2533  1.3427
10508SOL     OW32422   4.511   4.897   2.197  0.0551  0.6337 -0.2876
10508SOL    HW132423   4.557   4.815   2.232 -2.1178 -0.0049  1.3075
10508SOL    HW232424   4.416   4.875   2.174 -0.3793  2.5425 -0.4984
10509SOL     OW32425   1.071   7.006   6.488  0.2968  0.0333 -0.2792
10509SOL    HW132426   1.136   7.046   6.553  0.8197  1.0461 -1.3836
10509SOL    HW232427   1.104   6.916   6.459  0.1927 -0.3121  0.6320
10510SOL     OW32428   0.509   5.420   6.948 -0.2554  0.2450  0.1900
10510SOL    HW132429   0.506   5.415   7.048 -0.3294  0.3708  0.1940
10510SOL    HW232430   0.602   5.400   6.917 -0.6592 -1.8086  0.1674
10511SOL     OW32431   5.357   3.616   1.556  0.8145  0.1268  0.2333
10511SOL    HW132432   5.368   3.524   1.519 -1.4712 -0.4975  0.9216
10511SOL    HW232433   5.299   3.670   1.494 -0.0638  0.2275  1.1250
10512SOL     OW32434   4.159   6.474   6.499  0.2070  0.1070 -0.4034
10512SOL    HW132435   4.070   6.500   6.461 -0.1152  1.5932  1.2699
10512SOL    HW232436   4.146   6.412   6.576  0.8245 -2.2099 -2.0423
10513SOL     OW32437   5.029   1.220   4.965  0.6829 -0.6176  0.2911
10513SOL    HW132438   5.032   1.122   4.981  5.5845 -0.8229 -0.5557
10513SOL    HW232439   5.037   1.269   5.052  1.3605 -1.0513  0.4733
10514SOL     OW32440   1.215   4.669   0.265  0.3469  0.2470 -0.1796
10514SOL    HW132441   1.305   4.690   0.226 -0.1086  0.5969 -1.0653
10514SOL    HW232442   1.157   4.629   0.195  0.0340 -0.6602  0.5777
10515SOL     OW32443   1.128   2.296   3.408 -0.2127 -0.0187  0.8201
10515SOL    HW132444   1.116   2.322   3.312 -1.7528  0.3678  1.0840
10515SOL    HW232445   1.149   2.377   3.462 -2.7060  0.4017  1.2857
10516SOL     OW32446   4.325   1.070   6.193  0.0864  0.6131  0.2588
10516SOL    HW132447   4.287   1.160   6.172 -3.6180 -0.4993  1.4367
10516SOL    HW232448   4.279   1.000   6.138 -1.1566 -1.0568  3.1703
10517SOL     OW32449   1.719   1.844   2.569 -0.1512  0.2241  0.1200
10517SOL    HW132450   1.649   1.773   2.580  0.1246 -0.1472 -0.5050
10517SOL    HW232451   1.692   1.906   2.496  0.3891 -0.1890 -0.4376
10518SOL     OW32452   1.179   4.152   4.975  0.0889  0.2552  0.4255
10518SOL    HW132453   1.135   4.116   5.058  0.4615 -1.0820  0.0764
10518SOL    HW232454   1.278   4.143   4.983  0.1054 -0.5719 -0.4289
10519SOL     OW32455   3.530   3.316   4.133 -0.3298 -0.1745  0.1438
10519SOL    HW132456   3.600   3.387   4.129 -0.7241  0.2494  0.6009
10519SOL    HW232457   3.514   3.290   4.229 -2.5593  1.5399  0.3235
10520SOL     OW32458   0.613   2.369   6.416 -0.1573  0.1651  0.6032
10520SOL    HW132459   0.576   2.419   6.494 -0.6413  1.1642 -0.2433
10520SOL    HW232460   0.551   2.296   6.390 -0.7486  0.7944  0.2166
10521SOL     OW32461   5.752   5.797   1.578 -0.1494  0.0342 -0.5927
10521SOL    HW132462   5.841   5.757   1.601 -1.0823 -1.0844  1.2419
10521SOL    HW232463   5.682   5.726   1.582 -1.0740  0.7506 -2.7051
10522SOL     OW32464   6.905   0.346   1.212 -0.0541 -0.2845 -0.0153
10522SOL    HW132465   6.939   0.258   1.180 -1.0277 -1.0273  0.9237
10522SOL    HW232466   6.877   0.339   1.307 -4.3426 -0.2806 -1.0339
10523SOL     OW32467   4.259   6.840   4.892 -0.3258 -0.4667  0.4932
10523SOL    HW132468   4.326   6.792   4.950 -0.6903 -0.2251  1.1308
10523SOL    HW232469   4.293   6.845   4.798  0.5178 -0.4167  0.7929
10524SOL     OW32470   1.108   0.947   6.090 -0.3773 -0.1450  0.3172
10524SOL    HW132471   1.062   0.859   6.077 -1.7909  0.5765  0.2816
10524SOL    HW232472   1.091   1.005   6.010 -0.2461  0.5008  0.7533
10525SOL     OW32473   3.123   6.744   5.215  0.4852 -0.1141 -0.1195
10525SOL    HW132474   3.031   6.781   5.202  0.7325  0.0774 -1.4057
10525SOL    HW232475   3.138   6.667   5.152  0.7026 -1.1091  1.0987
10526SOL     OW32476   1.145   6.638   3.261 -0.4615 -0.1845  0.5655
10526SOL    HW132477   1.150   6.682   3.351  0.1980 -0.9701  0.9229
10526SOL    HW232478   1.167   6.541   3.270  1.4335  0.0804 -0.7099
10527SOL     OW32479   0.172   3.765   4.892 -0.1859 -0.9558  0.0033
10527SOL    HW132480   0.104   3.825   4.851 -1.3782 -1.4369  1.2211
10527SOL    HW232481   0.144   3.740   4.984 -0.1495 -4.0291 -0.7129
10528SOL     OW32482   1.141   3.247   4.762  0.2382 -0.0460 -0.0613
10528SOL    HW132483   1.139   3.272   4.859 -2.1103  1.0705 -0.3414
10528SOL    HW232484   1.083   3.309   4.710  1.1448 -0.8573 -2.1674
10529SOL     OW32485   0.036   6.670   1.626 -0.2343 -0.1565  0.2117
10529SOL    HW132486   0.066   6.766   1.631  2.1094 -0.8389  0.8997
10529SOL    HW232487   0.039   6.630   1.718  0.0526 -1.2102 -0.2404
10530SOL     OW32488   2.912   0.596   5.511 -0.2136  0.1905 -0.4360
10530SOL    HW132489   2.938   0.522   5.573 -0.4570  0.2935 -0.2096
10530SOL    HW232490   2.902   0.681   5.563 -0.6483  0.2288 -0.5784
10531SOL     OW32491   3.219   5.201   4.213  0.9569  0.6945  0.1229
10531SOL    HW132492   3.179   5.110   4.205  2.4478  0.0758 -0.8134
10531SOL    HW232493   3.286   5.214   4.140 -0.3380  3.1627 -0.7346
10532SOL     OW32494   3.632   2.823   0.324  0.3755  0.8782  0.1306
10532SOL    HW132495   3.604   2.875   0.405  1.9995  0.7186  0.8291
10532SOL    HW232496   3.550   2.788   0.278 -0.8193  4.1141 -0.4783
10533SOL     OW32497   2.016   4.166   4.835 -0.3293 -0.3845 -0.2789
10533SOL    HW132498   2.033   4.131   4.927 -0.5415 -0.9185 -0.4345
10533SOL    HW232499   2.095   4.220   4.805 -0.7344  0.7568  0.6481
10534SOL     OW32500   2.391   4.951   0.513  0.1719 -0.1347  0.0469
10534SOL    HW132501   2.305   4.992   0.483 -0.5761 -2.3316 -1.0151
10534SOL    HW232502   2.457   5.024   0.533 -1.6087  1.5827 -0.0089
10535SOL     OW32503   2.019   2.504   2.226  0.0376 -0.3508  0.3189
10535SOL    HW132504   2.098   2.494   2.165 -0.2428  2.2188 -0.6187
10535SOL    HW232505   2.038   2.459   2.313  1.8642 -1.1905 -0.4712
10536SOL     OW32506   3.671   6.945   3.831 -0.1236 -0.6993 -0.0312
10536SOL    HW132507   3.623   6.956   3.918  0.4972  0.0345  0.2328
10536SOL    HW232508   3.753   7.003   3.831 -0.6796  0.1371 -1.5073
10537SOL     OW32509   3.464   5.718   2.768  0.3330  0.1460  0.0607
10537SOL    HW132510   3.520   5.686   2.843  1.0644  2.4069  0.5641
10537SOL    HW232511   3.509   5.796   2.723 -0.4047 -0.6922 -2.2952
10538SOL     OW32512   4.558   1.962   6.851 -0.1181  0.2109 -0.0023
10538SOL    HW132513   4.579   1.879   6.903 -0.2196 -1.4699 -2.4820
10538SOL    HW232514   4.623   2.034   6.877  2.9024 -1.9964 -0.8507
10539SOL     OW32515   5.232   2.321   4.415  0.3943 -0.1554 -0.2059
10539SOL    HW132516   5.207   2.304   4.510  0.3055  0.1391 -0.1773
10539SOL    HW232517   5.156   2.366   4.367 -0.0092 -1.3427 -0.7182
10540SOL     OW32518   1.367   0.696   6.554  0.7613 -0.6582 -0.3231
10540SOL    HW132519   1.435   0.693   6.481 -0.9321  0.0148 -1.9912
10540SOL    HW232520   1.366   0.787   6.595  0.1902 -0.3642 -0.9792
10541SOL     OW32521   4.508   5.387   1.447 -0.5379  0.0413 -0.3264
10541SOL    HW132522   4.602   5.381   1.480 -1.0473 -1.6822  0.9623
10541SOL    HW232523   4.461   5.463   1.491 -1.1244 -2.0330  2.9655
10542SOL     OW32524   6.466   6.565   1.748  0.0128 -0.2066 -0.5203
10542SOL    HW132525   6.371   6.553   1.777 -0.3171  0.3739 -1.3074
10542SOL    HW232526   6.524   6.580   1.828 -0.3615 -1.7047  0.0733
10543SOL     OW32527   6.859   3.439   4.511 -0.1841  0.0506  0.2636
10543SOL    HW132528   6.949   3.435   4.467 -0.2206  1.3946  0.0263
10543SOL    HW232529   6.821   3.531   4.501 -2.0824 -0.7722 -0.6230
10544SOL     OW32530   2.230   1.258   3.536 -0.2912 -0.7084 -0.8111
10544SOL    HW132531   2.188   1.192   3.473 -1.1116 -1.4578  0.4762
10544SOL    HW232532   2.159   1.311   3.581  0.3624  1.0973 -1.8119
10545SOL     OW32533   6.740   6.191   4.221  0.3667 -0.2731  0.1281
10545SOL    HW132534   6.701   6.099   4.231  0.0325 -0.4477 -2.1900
10545SOL    HW232535   6.787   6.198   4.133 -2.0089  2.5648 -1.0889
10546SOL     OW32536   1.621   0.700   3.906  0.2980  0.3914 -0.5727
10546SOL    HW132537   1.533   0.737   3.937 -0.8249 -1.4438 -1.3721
10546SOL    HW232538   1.637   0.729   3.811  0.8182  1.1380 -0.2625
10547SOL     OW32539   5.905   1.475   2.934  0.3661  0.1902 -0.0722
10547SOL    HW132540   5.874   1.489   2.840  1.2424 -0.6321 -0.5054
10547SOL    HW232541   5.879   1.383   2.964  1.6911 -0.2371 -0.1783
10548SOL     OW32542   6.592   4.653   4.225 -0.2911 -0.4039 -0.3296
10548SOL    HW132543   6.590   4.716   4.302  0.9786 -1.9765  1.0750
10548SOL    HW232544   6.682   4.657   4.181  0.4777 -2.4483  0.9222
10549SOL     OW32545   6.803   1.299   4.704  0.2941  0.4843  1.0084
10549SOL    HW132546   6.735   1.336   4.641  0.1486 -0.1583  0.7784
10549SOL    HW232547   6.844   1.374   4.757 -0.6134  0.8749  1.1767
10550SOL     OW32548   3.210   0.178   5.428  0.4635 -0.0148 -0.1756
10550SOL    HW132549   3.204   0.115   5.350  0.5944  0.2855 -0.4302
10550SOL    HW232550   3.178   0.131   5.510  0.3246 -0.3372 -0.4070
10551SOL     OW32551   1.648   2.482   5.684 -0.0984  0.1161  0.2963
10551SOL    HW132552   1.619   2.530   5.766  0.8467 -1.2697  1.4801
10551SOL    HW232553   1.636   2.542   5.604  0.5477  2.0938  1.6207
10552SOL     OW32554   3.292   2.983   4.597 -0.1711 -0.0401  0.0346
10552SOL    HW132555   3.238   3.017   4.520  1.0230  2.6536  0.2857
10552SOL    HW232556   3.265   3.031   4.680  1.6413  0.3763  0.4248
10553SOL     OW32557   0.728   5.204   1.013  0.0513 -0.2350  0.5503
10553SOL    HW132558   0.697   5.111   0.993 -1.6859 -0.1530  2.4774
10553SOL    HW232559   0.693   5.232   1.103 -0.1151  2.5414 -0.2733
10554SOL     OW32560   5.364   4.634   6.166 -0.0279 -0.3559 -0.0935
10554SOL    HW132561   5.386   4.536   6.165  0.4753 -0.2787 -2.3333
10554SOL    HW232562   5.318   4.658   6.080  0.9084  1.5991 -0.0994
10555SOL     OW32563   2.853   2.531   6.970 -0.2285  0.2028 -0.5634
10555SOL    HW132564   2.830   2.564   6.878 -2.0968 -0.4483 -0.3724
10555SOL    HW232565   2.872   2.609   7.030 -0.6472  0.7209 -1.0947
10556SOL     OW32566   2.235   3.034   4.441 -0.6163 -0.6419 -0.1473
10556SOL    HW132567   2.199   3.054   4.532 -1.1750 -1.4679 -0.1735
10556SOL    HW232568   2.269   2.940   4.439  0.4337 -0.2608 -0.4768
10557SOL     OW32569   3.322   2.024   4.624 -0.1153  0.3678 -0.5932
10557SOL    HW132570   3.415   2.016   4.587  0.1903 -1.3839  0.4258
10557SOL    HW232571   3.259   1.968   4.570 -0.3233  0.5282 -0.5198
10558SOL     OW32572   5.141   6.758   3.254 -0.3633  0.1216 -0.1738
10558SOL    HW132573   5.240   6.768   3.264 -0.5911  1.1101  1.6909
10558SOL    HW232574   5.102   6.844   3.222 -0.6598 -0.1568 -0.5674
10559SOL     OW32575   4.898   6.596   2.614  0.5899 -0.3436  0.2441
10559SOL    HW132576   4.820   6.647   2.649  1.2311  0.0428  1.1785
10559SOL    HW232577   4.981   6.628   2.660  1.3204 -0.6272 -0.8445
10560SOL     OW32578   2.436   6.801   4.487 -0.1308  0.4566  0.2501
10560SOL    HW132579   2.428   6.900   4.489  2.2558  0.8626 -2.9688
10560SOL    HW232580   2.529   6.775   4.461 -0.3440 -2.7295  2.1107
10561SOL     OW32581   3.130   6.672   6.137 -0.3615 -0.2661  0.2432
10561SOL    HW132582   3.088   6.690   6.226  0.2051  0.1965  0.4306
10561SOL    HW232583   3.065   6.626   6.077 -1.8038  2.0321 -0.1021
10562SOL     OW32584   6.501   5.952   0.704 -0.3658  0.2135 -0.1925
10562SOL    HW132585   6.483   5.991   0.615  1.0820  0.7270 -0.2838
10562SOL    HW232586   6.443   5.872   0.718 -0.6393  0.1580 -1.5665
10563SOL     OW32587   0.420   0.305   4.333  0.0721 -0.5230  0.1161
10563SOL    HW132588   0.347   0.258   4.384  2.0812 -2.9243  0.9806
10563SOL    HW232589   0.483   0.349   4.397  1.7990 -2.3035 -0.2610
10564SOL     OW32590   0.107   6.988   3.359  0.5510  0.2155 -0.0821
10564SOL    HW132591   0.100   7.068   3.418  1.4550  0.9126 -0.9007
10564SOL    HW232592   0.016   6.948   3.347  0.3333  0.1186  1.6722
10565SOL     OW32593   6.752   2.480   5.380  0.3247  0.5286  0.0625
10565SOL    HW132594   6.788   2.394   5.343 -3.9500 -1.3278 -0.3647
10565SOL    HW232595   6.722   2.466   5.474 -2.4528  0.7965 -0.7110
10566SOL     OW32596   2.399   3.581   6.048  0.0412 -0.3251 -0.0026
10566SOL    HW132597   2.379   3.671   6.010  0.9329 -0.1187 -0.0102
10566SOL    HW232598   2.321   3.549   6.102 -0.5248  0.1699 -0.5225
10567SOL     OW32599   5.739   5.205   4.893 -0.3513 -0.4533 -0.2624
10567SOL    HW132600   5.677   5.274   4.856  0.5680  0.7559  0.3896
10567SOL    HW232601   5.806   5.180   4.823  2.7477  3.4135  0.9383
10568SOL     OW32602   4.927   7.013   1.105 -0.8859  0.4361 -0.3098
10568SOL    HW132603   4.944   6.997   1.203 -0.3898 -0.3125 -0.5126
10568SOL    HW232604   5.014   7.023   1.057 -1.1343  1.1647 -0.6283
10569SOL     OW32605   0.848   3.716   2.573 -0.0623 -0.1740  0.0103
10569SOL    HW132606   0.764   3.770   2.564 -0.1955 -0.5518 -1.1633
10569SOL    HW232607   0.926   3.768   2.540  0.1495  0.0902  0.8886
10570SOL     OW32608   3.094   3.058   0.584 -0.5285  0.4125 -0.2508
10570SOL    HW132609   3.028   3.124   0.550 -1.1546 -1.1268 -2.2540
10570SOL    HW232610   3.046   2.983   0.631  0.1116  0.9691  1.3684
10571SOL     OW32611   0.500   6.168   4.149  0.8639 -0.4052  0.1483
10571SOL    HW132612   0.594   6.139   4.128  0.6269  0.6025 -2.8056
10571SOL    HW232613   0.483   6.257   4.107 -1.3668 -0.4572  0.8276
10572SOL     OW32614   6.876   4.578   3.514  0.4794 -0.0197 -0.0610
10572SOL    HW132615   6.790   4.626   3.497 -1.2615 -3.2667 -1.2914
10572SOL    HW232616   6.891   4.568   3.612 -0.6658  0.4098  0.1664
10573SOL     OW32617   6.210   6.218   3.616 -0.0105  0.3324 -0.5217
10573SOL    HW132618   6.279   6.149   3.595 -0.9275 -1.0279  0.7112
10573SOL    HW232619   6.151   6.233   3.536  1.9187  1.8524 -1.7457
10574SOL     OW32620   1.204   2.610   4.480 -0.0426  0.3676  0.4530
10574SOL    HW132621   1.289   2.578   4.521  0.6307  0.8368 -0.5414
10574SOL    HW232622   1.144   2.646   4.552  1.1469  1.2666  1.0259
10575SOL     OW32623   0.735   1.406   6.517 -0.1117  0.6061  0.4644
10575SOL    HW132624   0.750   1.505   6.518 -1.4486  0.8293  0.5719
10575SOL    HW232625   0.638   1.387   6.533  0.1312 -0.7294  0.4724
10576SOL     OW32626   1.251   6.969   3.347  0.2618 -0.0203 -0.0255
10576SOL    HW132627   1.225   6.925   3.432 -2.1161  1.8494  0.3361
10576SOL    HW232628   1.338   6.933   3.315  1.9844  0.2132  3.9345
10577SOL     OW32629   0.035   3.221   4.780 -0.0976  0.2745 -0.1403
10577SOL    HW132630   0.130   3.205   4.808 -0.6764 -0.9214  1.2937
10577SOL    HW232631  -0.025   3.162   4.833 -1.6213  0.6479 -1.3869
10578SOL     OW32632   0.701   1.613   4.771 -0.4838  0.0039 -0.0376
10578SOL    HW132633   0.710   1.593   4.868  0.0890  0.0176 -0.0860
10578SOL    HW232634   0.787   1.593   4.724 -1.0107 -0.8165 -0.6859
10579SOL     OW32635   3.816   0.424   1.327  0.0615 -0.4142  0.1505
10579SOL    HW132636   3.825   0.465   1.236 -0.4846 -1.7744 -0.5416
10579SOL    HW232637   3.801   0.497   1.395  0.7561  0.6379 -0.7947
10580SOL     OW32638   6.335   0.471   0.209  0.2459 -0.2043 -0.1008
10580SOL    HW132639   6.398   0.458   0.285  0.4320 -0.4842 -0.3005
10580SOL    HW232640   6.372   0.428   0.126  0.2001  0.3883 -0.4340
10581SOL     OW32641   0.006   6.295   3.733  0.0653 -0.3678  0.3393
10581SOL    HW132642   0.061   6.286   3.650  0.1812  0.6598  0.2832
10581SOL    HW232643   0.057   6.259   3.811 -0.0238 -1.2917 -0.0173
10582SOL     OW32644   3.330   3.785   3.807 -0.0845  0.3708 -0.0731
10582SOL    HW132645   3.367   3.826   3.724 -1.8289  2.7406  0.2071
10582SOL    HW232646   3.252   3.840   3.839  0.5175 -0.4521  3.1274
10583SOL     OW32647   4.524   1.846   6.400 -0.6268  0.2761 -0.0095
10583SOL    HW132648   4.440   1.889   6.434 -0.6722 -0.3574  0.7261
10583SOL    HW232649   4.589   1.837   6.476  0.9469  2.6187 -0.9645
10584SOL     OW32650   5.405   5.617   3.088 -0.3142 -0.1496 -0.4072
10584SOL    HW132651   5.461   5.613   3.005 -1.4842 -1.8746 -1.1761
10584SOL    HW232652   5.327   5.556   3.078 -0.1605 -0.9110  2.2262
10585SOL     OW32653   2.545   2.059   5.749  0.1580 -0.1203 -0.0400
10585SOL    HW132654   2.598   1.991   5.700 -0.3080 -1.5964  1.4193
10585SOL    HW232655   2.603   2.138   5.770  1.0990 -0.6654 -0.5419
10586SOL     OW32656   2.734   6.256   6.486 -0.0722 -0.1721 -0.5133
10586SOL    HW132657   2.733   6.351   6.456  1.2458  0.1514  0.3618
10586SOL    HW232658   2.643   6.230   6.519 -0.7153  0.4322 -1.7519
10587SOL     OW32659   4.495   2.692   0.169 -0.6350  0.2977 -0.1889
10587SOL    HW132660   4.411   2.744   0.182 -0.6304  0.6509 -1.3990
10587SOL    HW232661   4.520   2.645   0.253 -0.6034  2.3288  0.9929
10588SOL     OW32662   6.601   4.399   3.872  0.8464 -0.0092  0.0227
10588SOL    HW132663   6.623   4.343   3.792  0.0347 -0.1098 -0.1430
10588SOL    HW232664   6.509   4.376   3.904  0.5080  1.1933 -0.0261
10589SOL     OW32665   6.949   1.111   3.783 -0.3489  0.4020 -0.5106
10589SOL    HW132666   7.045   1.117   3.809 -0.3312  0.5083 -0.5983
10589SOL    HW232667   6.921   1.196   3.739 -0.9101  0.9821  0.9378
10590SOL     OW32668   2.829   1.829   2.136  0.2244 -0.1520  0.3445
10590SOL    HW132669   2.910   1.793   2.182 -0.9318 -0.5528  2.1627
10590SOL    HW232670   2.794   1.760   2.073 -0.3606 -1.1951  1.7462
10591SOL     OW32671   0.585   2.949   4.883  0.0201 -0.2830  0.2049
10591SOL    HW132672   0.547   3.005   4.957  0.6485 -0.6260  0.7965
10591SOL    HW232673   0.512   2.893   4.843 -0.0076 -1.4927  1.8236
10592SOL     OW32674   4.740   0.895   2.017  0.3632  0.1169 -0.5539
10592SOL    HW132675   4.687   0.817   2.050 -4.2835  3.0965 -0.0001
10592SOL    HW232676   4.743   0.894   1.917 -1.6593  0.2163 -0.6642
10593SOL     OW32677   3.727   3.514   1.053 -0.0813  0.0807  0.0779
10593SOL    HW132678   3.641   3.552   1.089 -0.5996 -0.6915 -0.3213
10593SOL    HW232679   3.741   3.547   0.959 -0.6821 -0.9168 -0.3767
10594SOL     OW32680   6.028   1.684   5.059 -0.3349  0.2173 -0.3220
10594SOL    HW132681   5.960   1.639   5.118 -0.2838 -0.5086 -0.8104
10594SOL    HW232682   5.987   1.765   5.017 -0.8579 -0.1349 -0.4981
10595SOL     OW32683   4.087   6.807   6.000 -0.3125  0.3610  0.8557
10595SOL    HW132684   4.181   6.775   5.996 -0.2926  0.4934 -2.1731
10595SOL    HW232685   4.026   6.739   5.960 -1.0988  1.4166  0.1754
10596SOL     OW32686   1.740   5.865   1.898 -0.8328 -0.2749 -0.2640
10596SOL    HW132687   1.643   5.843   1.908 -0.5158 -1.0436  1.7237
10596SOL    HW232688   1.794   5.782   1.910  0.1126  0.3617 -0.0191
10597SOL     OW32689   2.424   1.153   3.320 -0.3505 -0.0215 -0.0907
10597SOL    HW132690   2.513   1.130   3.282  0.3295  0.2604  1.2658
10597SOL    HW232691   2.422   1.250   3.344 -1.1966  0.0820 -0.5351
10598SOL     OW32692   0.154   1.682   6.702 -0.3072 -0.2688  0.0380
10598SOL    HW132693   0.172   1.781   6.702 -0.5934 -0.2150  0.1927
10598SOL    HW232694   0.237   1.634   6.730 -0.4851 -0.0048  1.0848
10599SOL     OW32695   0.339   1.804   0.776 -0.4617  0.0795  0.0867
10599SOL    HW132696   0.364   1.796   0.873  0.1880  0.1258 -0.0770
10599SOL    HW232697   0.290   1.721   0.748  0.3452 -0.4325  0.1625
10600SOL     OW32698   3.573   3.752   1.188 -0.5318 -0.2280  0.4480
10600SOL    HW132699   3.662   3.759   1.234  0.7510  2.0172 -2.0688
10600SOL    HW232700   3.511   3.820   1.226  0.6751  1.9438 -1.2202
10601SOL     OW32701   4.578   4.830   0.392 -0.2857 -0.0048 -0.7516
10601SOL    HW132702   4.520   4.838   0.311  1.4060 -1.2592 -2.1912
10601SOL    HW232703   4.674   4.825   0.363  0.2867 -1.9024  1.2244
10602SOL     OW32704   5.882   1.474   2.674 -0.0547 -0.0785  0.3678
10602SOL    HW132705   5.916   1.396   2.622 -0.5273  0.3235 -0.5673
10602SOL    HW232706   5.803   1.514   2.627  0.7369  1.5278  0.3360
10603SOL     OW32707   1.354   5.950   5.406  0.5967  1.0759 -0.2850
10603SOL    HW132708   1.387   6.045   5.407  1.0546  0.9402 -0.9880
10603SOL    HW232709   1.303   5.934   5.321 -1.8486  1.4378  1.0417
10604SOL     OW32710   5.461   4.062   3.941  0.1299  0.6591  0.1148
10604SOL    HW132711   5.485   3.966   3.930 -1.5354  0.2961 -0.5468
10604SOL    HW232712   5.462   4.085   4.039  2.6464  0.5888  0.1776
10605SOL     OW32713   1.974   4.231   6.752 -0.4673  0.5546 -0.3645
10605SOL    HW132714   2.016   4.143   6.778 -1.4756  0.3048  0.4648
10605SOL    HW232715   1.883   4.215   6.716 -0.2429  1.1865 -1.2444
10606SOL     OW32716   0.342   1.975   3.330 -0.2772  0.1021 -0.3851
10606SOL    HW132717   0.429   2.014   3.359  0.2546 -1.9106  0.9221
10606SOL    HW232718   0.352   1.933   3.240  0.3333 -0.7638  0.0740
10607SOL     OW32719   4.050   4.697   6.642 -0.0926 -0.0338  0.4092
10607SOL    HW132720   4.043   4.632   6.566 -0.4982 -1.6184  1.7487
10607SOL    HW232721   4.068   4.788   6.606  1.2289 -0.9767 -1.5149
10608SOL     OW32722   7.010   1.615   4.131 -0.4969  0.5420  0.3665
10608SOL    HW132723   6.944   1.690   4.124 -1.1937 -0.0473  0.4758
10608SOL    HW232724   6.964   1.528   4.112  0.3014  0.1397  0.2305
10609SOL     OW32725   3.450   4.964   0.953  0.3228 -0.1580 -0.5741
10609SOL    HW132726   3.376   4.898   0.965  0.9123 -0.7582 -0.1662
10609SOL    HW232727   3.412   5.056   0.945 -0.3916 -0.2035  1.5768
10610SOL     OW32728   5.998   3.429   0.251 -0.0138  0.5518  0.3546
10610SOL    HW132729   5.977   3.526   0.239  0.2460  0.4933 -0.6657
10610SOL    HW232730   5.970   3.400   0.343 -0.1002  1.5837  0.6689
10611SOL     OW32731   5.108   1.110   1.299 -0.0581  0.1353 -0.6359
10611SOL    HW132732   5.118   1.146   1.391 -1.8759 -1.9158  0.4527
10611SOL    HW232733   5.167   1.161   1.237 -0.1960  2.8468  1.2733
10612SOL     OW32734   1.729   6.270   6.348  0.2292  0.6053 -0.2942
10612SOL    HW132735   1.795   6.256   6.274  1.9148  1.5311  0.9446
10612SOL    HW232736   1.673   6.350   6.328 -0.9667 -0.5212 -1.6284
10613SOL     OW32737   1.814   6.019   5.100 -0.2322 -0.0064  0.3903
10613SOL    HW132738   1.786   6.096   5.042 -0.1553  0.7058  1.2916
10613SOL    HW232739   1.864   5.953   5.044  4.6589  3.1115  0.5138
10614SOL     OW32740   0.661   1.330   3.015  0.4395  0.2984  0.2462
10614SOL    HW132741   0.588   1.396   2.998  1.1184  0.9570 -0.1599
10614SOL    HW232742   0.728   1.335   2.941  2.2113  1.5072  1.8429
10615SOL     OW32743   5.098   6.428   3.727  0.0761  0.3387 -0.5403
10615SOL    HW132744   5.052   6.453   3.812 -0.9070  0.0520 -0.9736
10615SOL    HW232745   5.146   6.341   3.739  0.4141  0.5818 -0.1152
10616SOL     OW32746   4.677   5.024   6.935 -0.5071  0.0698 -0.2714
10616SOL    HW132747   4.772   4.996   6.921 -0.3262  0.6515 -0.2290
10616SOL    HW232748   4.620   4.943   6.954  0.1525 -0.1719  0.7362
10617SOL     OW32749   3.243   0.551   1.398 -0.6959  0.2336  0.0316
10617SOL    HW132750   3.201   0.512   1.316  2.3882 -0.8213 -1.1994
10617SOL    HW232751   3.249   0.480   1.469 -2.2933  0.8256  0.8165
10618SOL     OW32752   0.499   2.528   0.591 -0.3543 -0.5975  0.3564
10618SOL    HW132753   0.424   2.580   0.550  0.9666  2.5063  1.6009
10618SOL    HW232754   0.529   2.457   0.527 -2.0262  0.3584 -1.6053
10619SOL     OW32755   1.422   4.362   4.270 -0.6168  0.6282 -0.1379
10619SOL    HW132756   1.507   4.399   4.310 -0.8429 -0.0907  1.0645
10619SOL    HW232757   1.354   4.351   4.343 -0.7510 -1.5958 -0.5349
10620SOL     OW32758   1.469   5.895   6.333  0.3662 -0.0835  0.2834
10620SOL    HW132759   1.474   5.995   6.333 -1.5574  0.0554  1.0137
10620SOL    HW232760   1.543   5.858   6.277  0.1285  1.8053 -1.4032
10621SOL     OW32761   3.573   4.689   0.130 -0.0515 -0.7435 -0.2537
10621SOL    HW132762   3.484   4.659   0.096  0.1812 -2.1662  0.3157
10621SOL    HW232763   3.646   4.638   0.083  0.3888 -0.6462  0.3087
10622SOL     OW32764   5.543   0.468   0.394 -0.2142  0.4150  1.2039
10622SOL    HW132765   5.545   0.416   0.479  2.8804  0.2374  1.1396
10622SOL    HW232766   5.629   0.455   0.345 -0.6633  2.9463 -0.4531
10623SOL     OW32767   6.106   5.083   4.323  0.3305 -0.0529 -0.6001
10623SOL    HW132768   6.054   5.016   4.270  0.4068 -1.1601  0.6497
10623SOL    HW232769   6.104   5.172   4.277  1.0568 -1.1295 -2.8260
10624SOL     OW32770   6.318   1.776   5.409  0.1768  0.4609  0.3503
10624SOL    HW132771   6.411   1.795   5.380 -0.0367  0.5440 -0.2871
10624SOL    HW232772   6.276   1.710   5.346 -0.1541  0.3247  0.7064
10625SOL     OW32773   6.749   4.946   0.849  0.3010 -0.6751  0.2181
10625SOL    HW132774   6.725   4.912   0.758  3.1683 -0.8950 -0.5485
10625SOL    HW232775   6.782   5.040   0.843 -0.5019 -0.2992  1.2326
10626SOL     OW32776   1.624   2.821   1.804  0.2575 -0.0133  0.0526
10626SOL    HW132777   1.541   2.803   1.856 -0.3424  2.0127 -0.1362
10626SOL    HW232778   1.633   2.752   1.732 -1.5825  0.0660 -0.2989
10627SOL     OW32779   1.024   6.184   2.776 -0.0758  0.6811  0.3090
10627SOL    HW132780   1.079   6.172   2.859  1.0652  1.2967 -0.3409
10627SOL    HW232781   0.954   6.112   2.772 -0.3395  0.8111  1.9419
10628SOL     OW32782   0.520   5.445   5.827  0.4186 -0.5319 -0.1765
10628SOL    HW132783   0.574   5.525   5.803  2.1593 -2.4800 -3.3634
10628SOL    HW232784   0.574   5.384   5.885 -0.3091 -0.1850  0.8967
10629SOL     OW32785   2.303   2.825   5.530 -1.0538 -0.3004  0.2522
10629SOL    HW132786   2.255   2.877   5.459 -3.5115 -2.6855 -0.0158
10629SOL    HW232787   2.374   2.768   5.487 -0.0875  0.8791  0.2339
10630SOL     OW32788   6.393   0.861   3.770 -0.8066 -0.5738  0.4213
10630SOL    HW132789   6.388   0.952   3.811  0.6756 -0.4604  0.4245
10630SOL    HW232790   6.302   0.831   3.743 -1.3805  0.7087  0.8598
10631SOL     OW32791   1.549   6.365   6.072  0.3647 -0.2836 -0.1341
10631SOL    HW132792   1.476   6.400   6.129  0.7039  0.2005  0.0099
10631SOL    HW232793   1.515   6.352   5.979  0.2247  0.4208 -0.1896
10632SOL     OW32794   6.894   1.992   2.803  0.1287  0.0212  0.4045
10632SOL    HW132795   6.832   2.067   2.821  1.2449  0.5139  2.5412
10632SOL    HW232796   6.976   2.026   2.756 -0.3624 -0.2949 -0.7082
10633SOL     OW32797   3.564   3.776   0.325 -0.3761 -0.7431  0.3376
10633SOL    HW132798   3.614   3.720   0.259 -0.0872  0.7475 -0.7448
10633SOL    HW232799   3.622   3.852   0.355 -1.2093 -0.2735  0.7971
10634SOL     OW32800   2.968   4.868   6.731 -0.3896  0.0776 -0.1723
10634SOL    HW132801   2.920   4.871   6.819  0.4521  0.5225  0.2801
10634SOL    HW232802   3.062   4.836   6.745 -1.1032 -2.8457 -1.3093
10635SOL     OW32803   2.865   6.429   0.101 -0.7910  0.1026  0.3525
10635SOL    HW132804   2.887   6.350   0.044  0.4168  1.0124 -0.5104
10635SOL    HW232805   2.779   6.470   0.070 -0.5355  0.1350 -0.3180
10636SOL     OW32806   6.645   0.094   1.527 -0.2137 -0.2139  0.5918
10636SOL    HW132807   6.734   0.138   1.538 -0.4219  0.3641 -0.0093
10636SOL    HW232808   6.599   0.130   1.445 -1.6961  0.6948  1.7700
10637SOL     OW32809   3.122   4.655   5.298  0.3167  0.1366 -0.3242
10637SOL    HW132810   3.102   4.719   5.372 -1.4948 -2.0215  1.1430
10637SOL    HW232811   3.037   4.612   5.266  1.2639 -0.2743 -2.5172
10638SOL     OW32812   6.548   6.021   5.053 -0.1951 -0.0968  0.7374
10638SOL    HW132813   6.602   5.983   4.978 -0.2097  4.2586 -1.8120
10638SOL    HW232814   6.600   6.015   5.138  2.5595  0.2323 -0.8069
10639SOL     OW32815   0.565   4.283   4.394  0.1266  0.0529 -0.3823
10639SOL    HW132816   0.504   4.261   4.470  1.0008  2.0975  1.0019
10639SOL    HW232817   0.658   4.291   4.428  0.4467  1.6385 -1.5473
10640SOL     OW32818   5.904   6.640   6.929  0.1401  0.0997  0.2959
10640SOL    HW132819   5.885   6.561   6.869  1.0390  0.3279 -0.3085
10640SOL    HW232820   5.831   6.648   6.996 -0.7267 -0.3732 -0.5553
10641SOL     OW32821   4.232   0.559   0.727 -0.2518 -0.2877  0.5872
10641SOL    HW132822   4.295   0.611   0.669 -0.7342 -0.3024  0.0452
10641SOL    HW232823   4.251   0.580   0.823 -0.2361  0.6637  0.3854
10642SOL     OW32824   6.813   3.272   1.038 -0.1672 -0.2676 -0.2888
10642SOL    HW132825   6.845   3.300   1.128  1.5283 -0.1478 -0.9001
10642SOL    HW232826   6.870   3.198   1.004 -0.3351  0.1631 -1.5608
10643SOL     OW32827   1.860   3.121   0.353 -0.5976 -0.5152  0.3425
10643SOL    HW132828   1.816   3.211   0.350 -1.6871 -1.0228  0.7438
10643SOL    HW232829   1.837   3.069   0.271  0.7285 -0.1304 -0.3007
10644SOL     OW32830   5.719   2.586   4.089  0.2973 -0.1028 -0.2109
10644SOL    HW132831   5.735   2.489   4.103  1.2618 -0.3642 -2.6500
10644SOL    HW232832   5.621   2.602   4.075  0.1365 -0.6994  0.2002
10645SOL     OW32833   0.544   2.082   4.203  0.2882 -0.1056 -0.3558
10645SOL    HW132834   0.548   2.091   4.303 -4.6859  1.5084 -0.0272
10645SOL    HW232835   0.522   2.171   4.163  0.3493 -1.1024 -2.7386
10646SOL     OW32836   6.831   2.723   5.280 -0.1946 -0.2907 -0.3086
10646SOL    HW132837   6.805   2.629   5.300 -2.7178  0.2040 -0.9083
10646SOL    HW232838   6.921   2.742   5.319  0.0315 -2.6980  0.4858
10647SOL     OW32839   6.699   4.912   1.333 -0.4594  0.3380 -0.4319
10647SOL    HW132840   6.742   4.998   1.358 -0.4758  0.2639 -0.1428
10647SOL    HW232841   6.765   4.837   1.344 -1.0241  0.0587  1.2387
10648SOL     OW32842   3.926   3.494   6.276 -0.1156 -0.0292 -0.1159
10648SOL    HW132843   3.936   3.540   6.364  0.8093 -1.3812  0.5187
10648SOL    HW232844   3.832   3.506   6.243 -0.6795 -0.0587  1.3889
10649SOL     OW32845   0.430   4.282   4.658 -0.1523 -0.0256  0.3354
10649SOL    HW132846   0.433   4.380   4.679  0.4042 -0.0183  0.2241
10649SOL    HW232847   0.343   4.245   4.690 -0.0073  0.3267  1.1716
10650SOL     OW32848   3.584   0.207   5.054  0.4735  0.0473  0.0330
10650SOL    HW132849   3.662   0.258   5.018  0.1569  0.9896  0.6321
10650SOL    HW232850   3.499   0.244   5.017  0.3250 -1.6342 -1.4166
10651SOL     OW32851   4.469   6.301   5.297  0.0042 -0.0386  0.0135
10651SOL    HW132852   4.549   6.360   5.297  0.7210 -0.9165 -2.4550
10651SOL    HW232853   4.462   6.255   5.385  0.1977  2.6003  1.5168
10652SOL     OW32854   4.595   0.287   6.335 -0.1543 -0.6425  0.3632
10652SOL    HW132855   4.571   0.293   6.238  0.6856  1.1242  0.2300
10652SOL    HW232856   4.513   0.303   6.391 -0.1489  1.0653 -0.0771
10653SOL     OW32857   5.048   4.833   5.174  0.0584  0.3059  0.3321
10653SOL    HW132858   5.011   4.806   5.263 -1.1152  2.1746  0.4663
10653SOL    HW232859   4.980   4.889   5.126  1.1818  0.4078 -1.1978
10654SOL     OW32860   3.860   1.061   2.727 -0.6137 -0.6312  0.1323
10654SOL    HW132861   3.792   1.001   2.684  0.0394 -1.0954 -0.2866
10654SOL    HW232862   3.897   1.016   2.808  0.3161 -1.0902 -0.5210
10655SOL     OW32863   2.150   6.985   2.106 -1.2743 -0.0581 -0.5530
10655SOL    HW132864   2.202   6.916   2.156  0.2775  1.0509 -0.5803
10655SOL    HW232865   2.074   6.941   2.058  0.2124 -1.8992 -1.3321
10656SOL     OW32866   6.647   2.820   5.853  0.3543 -0.4858  0.3918
10656SOL    HW132867   6.719   2.810   5.921  0.2929 -2.6735  0.1997
10656SOL    HW232868   6.560   2.787   5.891 -0.1922  0.5015  0.0384
10657SOL     OW32869   6.392   6.975   2.508  0.0982  0.2222 -0.3543
10657SOL    HW132870   6.302   7.019   2.504  0.1836  0.3227 -1.6160
10657SOL    HW232871   6.419   6.945   2.416  1.7593  1.0183 -0.1645
10658SOL     OW32872   0.666   3.140   4.001  0.2608 -0.2832  0.3980
10658SOL    HW132873   0.736   3.078   3.964  3.1185  2.0294  1.4911
10658SOL    HW232874   0.658   3.219   3.941 -2.8463 -1.2474 -0.6298
10659SOL     OW32875   0.195   6.334   0.601 -0.3583 -0.1092  0.1157
10659SOL    HW132876   0.172   6.360   0.507 -2.4402  0.9359  0.8443
10659SOL    HW232877   0.200   6.234   0.608 -2.4046 -0.3141 -0.6746
10660SOL     OW32878   4.294   3.231   6.990  0.2424  0.2486 -0.2754
10660SOL    HW132879   4.218   3.242   6.926 -0.1036 -0.6929 -0.0304
10660SOL    HW232880   4.380   3.226   6.940 -0.0037 -0.2200 -0.6523
10661SOL     OW32881   6.508   6.020   1.512  0.1368  0.2975  0.1325
10661SOL    HW132882   6.508   6.000   1.610 -0.6796  0.9694  0.2854
10661SOL    HW232883   6.594   6.061   1.485  1.1093 -1.5815  0.1861
10662SOL     OW32884   6.355   0.185   6.184  0.0219  0.3065  0.0291
10662SOL    HW132885   6.409   0.162   6.103 -0.8634 -1.0411 -0.2087
10662SOL    HW232886   6.265   0.219   6.155  0.3098  1.4520  0.4371
10663SOL     OW32887   0.371   2.138   1.169  0.0553 -0.1135 -0.1480
10663SOL    HW132888   0.433   2.061   1.185  0.4102  0.2295  0.1363
10663SOL    HW232889   0.281   2.116   1.206  0.5206  0.1468  1.2204
10664SOL     OW32890   1.852   4.297   5.170  0.3021  0.2407  0.1366
10664SOL    HW132891   1.790   4.310   5.092 -1.5746 -2.4042  1.0543
10664SOL    HW232892   1.855   4.380   5.225 -0.1008  1.3982 -1.5168
10665SOL     OW32893   1.784   1.152   1.196  0.7600  0.2523  0.3174
10665SOL    HW132894   1.765   1.216   1.122  1.0096  0.8269  0.7491
10665SOL    HW232895   1.851   1.191   1.259  0.5666 -0.2340  0.8412
10666SOL     OW32896   5.136   5.365   6.263 -0.3030 -0.4233 -0.2639
10666SOL    HW132897   5.198   5.429   6.219 -1.2807  1.1769  0.5830
10666SOL    HW232898   5.082   5.318   6.194 -0.6516  0.8268 -0.8681
10667SOL     OW32899   3.392   1.898   4.854 -0.1369 -0.3165  0.7950
10667SOL    HW132900   3.476   1.939   4.889 -0.2456  1.3959 -0.7993
10667SOL    HW232901   3.358   1.952   4.777 -2.4782 -1.2000  1.1163
10668SOL     OW32902   1.043   0.591   0.588  0.0288  0.3377  0.6581
10668SOL    HW132903   1.121   0.592   0.651  0.0992 -1.2838  0.6548
10668SOL    HW232904   1.059   0.656   0.514  0.1179  2.0122  2.0801
10669SOL     OW32905   0.998   6.798   0.749  0.2677  0.1552 -0.1026
10669SOL    HW132906   1.068   6.870   0.748 -1.1093  1.5304 -0.3773
10669SOL    HW232907   0.913   6.834   0.711 -0.8975 -1.1993  1.1397
10670SOL     OW32908   6.606   5.647   6.865  0.1539 -0.2673  0.3097
10670SOL    HW132909   6.700   5.670   6.893 -0.3392  2.3154  0.0771
10670SOL    HW232910   6.592   5.673   6.770 -0.4417 -1.9597 -0.1078
10671SOL     OW32911   0.954   2.971   0.912 -0.0425  0.4047 -0.2189
10671SOL    HW132912   0.885   2.946   0.979 -0.5223  3.3096  0.4739
10671SOL    HW232913   1.044   2.976   0.957 -0.0715  0.6392 -0.1865
10672SOL     OW32914   1.243   4.938   6.103 -0.0229  0.0890 -0.0712
10672SOL    HW132915   1.233   4.922   6.005 -2.9334 -1.1363  0.3302
10672SOL    HW232916   1.267   4.852   6.149  0.3134  0.4298  0.4038
10673SOL     OW32917   1.791   3.951   4.982  0.0313 -0.0887 -0.6546
10673SOL    HW132918   1.835   3.994   5.061  2.4793 -0.9953 -1.4485
10673SOL    HW232919   1.784   4.016   4.907  0.9024 -0.2016 -0.8357
10674SOL     OW32920   5.586   1.855   0.241 -0.0373  0.1060  0.2726
10674SOL    HW132921   5.587   1.760   0.212 -1.5728  1.0124 -3.2829
10674SOL    HW232922   5.494   1.881   0.269  0.5394  0.4133  2.0295
10675SOL     OW32923   1.162   6.501   6.549  0.1653 -0.2815  0.4950
10675SOL    HW132924   1.126   6.503   6.642  1.5591 -1.1948  1.1009
10675SOL    HW232925   1.105   6.443   6.492  0.2002 -1.0557  1.2235
10676SOL     OW32926   6.483   0.840   6.007 -0.3841  0.2742  0.1626
10676SOL    HW132927   6.457   0.821   5.913 -0.4652  0.0157  0.2351
10676SOL    HW232928   6.448   0.929   6.035  1.0962  1.1233 -0.5946
10677SOL     OW32929   6.375   1.729   4.800 -0.4322  0.3584 -0.1116
10677SOL    HW132930   6.307   1.793   4.764 -1.7586  0.2127  1.9549
10677SOL    HW232931   6.397   1.754   4.895  0.6747 -0.9681  0.0110
10678SOL     OW32932   2.565   4.631   2.694  0.1487  0.4713 -0.1191
10678SOL    HW132933   2.474   4.590   2.698  0.1678  0.2927 -1.2977
10678SOL    HW232934   2.592   4.643   2.599  2.0641 -1.0551  0.1643
10679SOL     OW32935   5.111   5.095   4.923 -0.0039  0.2817  0.8582
10679SOL    HW132936   5.119   5.135   4.832  2.0513  0.5054  1.0917
10679SOL    HW232937   5.069   5.161   4.985  0.3994  0.8708  0.5089
10680SOL     OW32938   2.031   3.281   2.673 -0.0728 -0.0418  0.0358
10680SOL    HW132939   2.066   3.300   2.582 -0.2300 -0.7860 -0.1912
10680SOL    HW232940   2.022   3.182   2.685 -0.4810  0.0688  0.6939
10681SOL     OW32941   6.128   3.449   6.059 -0.3712  0.4040 -0.1280
10681SOL    HW132942   6.098   3.390   6.135  1.0560 -0.7677 -0.4266
10681SOL    HW232943   6.119   3.399   5.973 -0.8015  1.2839 -0.6087
10682SOL     OW32944   2.789   0.774   3.523  0.5305 -0.4574 -0.2350
10682SOL    HW132945   2.727   0.779   3.445  0.5785 -0.3792 -0.2688
10682SOL    HW232946   2.751   0.824   3.600  0.6229 -0.2762 -0.3056
10683SOL     OW32947   1.946   2.214   5.055  0.3521 -0.4020  0.3710
10683SOL    HW132948   1.986   2.205   4.964 -0.0006 -0.1356  0.1870
10683SOL    HW232949   2.017   2.198   5.124  0.5950 -0.7175  0.0532
10684SOL     OW32950   5.411   3.825   0.157  0.0362  0.4856  0.1368
10684SOL    HW132951   5.349   3.830   0.235  1.3829  0.0189  1.2899
10684SOL    HW232952   5.381   3.753   0.095  0.3893 -0.9756  1.5900
10685SOL     OW32953   0.516   3.240   3.733  0.1126 -0.1796 -0.6229
10685SOL    HW132954   0.539   3.241   3.635 -2.7916  0.0090 -1.3955
10685SOL    HW232955   0.540   3.151   3.771  0.8904 -0.4143 -1.6085
10686SOL     OW32956   4.552   6.569   1.754 -0.3479 -0.2689  0.0129
10686SOL    HW132957   4.622   6.519   1.704 -0.4697  1.2517 -1.8024
10686SOL    HW232958   4.500   6.506   1.812  0.4550 -1.9494 -1.0253
10687SOL     OW32959   0.505   6.642   4.542  0.1250  0.5764  0.1860
10687SOL    HW132960   0.540   6.548   4.551  0.6446  0.7402 -0.0635
10687SOL    HW232961   0.501   6.685   4.632 -1.2198 -0.0668  0.4489
10688SOL     OW32962   6.500   4.119   2.916  0.0196 -0.0754  0.5349
10688SOL    HW132963   6.588   4.115   2.869 -0.0543 -0.2940  0.4133
10688SOL    HW232964   6.462   4.211   2.907  0.0636 -0.0821  0.2709
10689SOL     OW32965   5.400   6.863   2.661  0.0283 -0.0757 -0.3500
10689SOL    HW132966   5.402   6.767   2.689  0.1702 -0.4117 -1.4624
10689SOL    HW232967   5.471   6.914   2.709  0.2582 -0.6319 -0.0977
10690SOL     OW32968   4.185   5.388   1.240 -0.3547  0.3186  0.2123
10690SOL    HW132969   4.214   5.298   1.206 -0.9241  0.2288 -0.0538
10690SOL    HW232970   4.249   5.458   1.209  1.3489 -0.2352  2.2082
10691SOL     OW32971   0.532   1.529   3.253  0.4344 -0.0849  0.0556
10691SOL    HW132972   0.491   1.581   3.328 -0.1938 -1.5999  0.8104
10691SOL    HW232973   0.632   1.529   3.264  0.3950  0.3530  0.4581
10692SOL     OW32974   3.133   5.586   4.185 -0.0349 -0.1977 -0.5217
10692SOL    HW132975   3.094   5.671   4.149  0.5776 -0.2697 -1.3770
10692SOL    HW232976   3.066   5.512   4.177  0.2526 -0.3198 -1.9703
10693SOL     OW32977   6.501   1.481   0.352 -0.4480 -0.2497 -0.0586
10693SOL    HW132978   6.539   1.561   0.398  0.8176  0.2353 -1.8967
10693SOL    HW232979   6.418   1.507   0.303 -0.2697 -0.1635 -0.3127
10694SOL     OW32980   4.383   4.953   6.964  0.2094 -0.3994  0.2057
10694SOL    HW132981   4.312   4.896   6.921 -0.0964  1.0544 -1.3143
10694SOL    HW232982   4.388   4.931   7.061 -0.1988 -2.6858 -0.2235
10695SOL     OW32983   1.424   1.869   4.227  0.1721  0.6841 -0.2406
10695SOL    HW132984   1.440   1.893   4.131 -0.5331  1.6201 -0.1425
10695SOL    HW232985   1.504   1.896   4.282  1.8059 -2.3590 -0.8956
10696SOL     OW32986   5.625   5.004   1.479  0.1014 -0.0814 -0.4025
10696SOL    HW132987   5.695   5.075   1.468  1.0039 -0.9375 -0.3681
10696SOL    HW232988   5.616   4.981   1.575  0.5624 -0.7188 -0.5000
10697SOL     OW32989   0.025   5.176   3.011  0.1174  0.0222 -0.2096
10697SOL    HW132990  -0.050   5.117   3.041  0.1025  0.2042  0.1122
10697SOL    HW232991   0.096   5.121   2.967  1.0977 -0.5516  1.9470
10698SOL     OW32992   2.055   6.016   2.604  0.7336  0.1362 -0.4742
10698SOL    HW132993   2.080   6.078   2.530  0.4972  0.8023 -0.0008
10698SOL    HW232994   2.138   5.974   2.642  1.0575  1.3876  0.2623
10699SOL     OW32995   4.348   0.087   3.992 -0.6882 -0.0616  0.2192
10699SOL    HW132996   4.377   0.136   3.909 -0.8124  1.5120  1.0531
10699SOL    HW232997   4.398   0.001   3.999  4.8156  2.7643  1.9923
10700SOL     OW32998   0.428   0.673   1.690  0.4267  0.2002  0.1591
10700SOL    HW132999   0.494   0.748   1.698 -0.3515  1.0155 -0.8974
10700SOL    HW233000   0.341   0.701   1.729 -0.4849  0.6405 -2.0701
10701SOL     OW33001   2.356   5.729   6.910  0.2155  0.4095  0.1015
10701SOL    HW133002   2.280   5.741   6.973 -0.1342  1.5904 -0.5163
10701SOL    HW233003   2.323   5.684   6.827  0.6043 -0.8249  0.5894
10702SOL     OW33004   4.267   2.016   6.918 -0.1398 -0.5840  0.4751
10702SOL    HW133005   4.225   1.925   6.921 -0.2536 -0.6996 -2.2991
10702SOL    HW233006   4.366   2.006   6.905  0.0849 -0.2847  1.8379
10703SOL     OW33007   3.059   3.092   3.523  0.2095  0.0563 -0.1659
10703SOL    HW133008   3.030   3.112   3.429 -1.0399  0.8239  0.3507
10703SOL    HW233009   3.019   3.159   3.585  2.2944  0.5198  0.7694
10704SOL     OW33010   2.436   0.375   1.362 -0.3003 -0.6996 -0.7238
10704SOL    HW133011   2.417   0.280   1.337 -1.2263 -0.3288 -1.5081
10704SOL    HW233012   2.500   0.415   1.297 -1.1026 -0.3487 -1.3197
10705SOL     OW33013   1.152   3.288   5.777 -0.0268  0.2017  0.1073
10705SOL    HW133014   1.174   3.321   5.869  0.7242  1.5261 -0.5157
10705SOL    HW233015   1.164   3.189   5.773 -0.4719  0.0654  1.5348
10706SOL     OW33016   5.971   6.412   0.381 -0.1270  0.5032 -0.1554
10706SOL    HW133017   5.938   6.452   0.467  2.4221 -0.4332  1.3668
10706SOL    HW233018   6.009   6.321   0.400  1.6394  0.7919 -2.0367
10707SOL     OW33019   5.381   6.722   4.685  0.2723 -0.1400  0.1439
10707SOL    HW133020   5.379   6.803   4.744 -1.8037 -0.3245  0.3686
10707SOL    HW233021   5.391   6.751   4.590  0.8607  0.2993  0.3320
10708SOL     OW33022   5.668   0.209   2.881  0.1744  0.7415  0.1072
10708SOL    HW133023   5.741   0.244   2.941  0.7045  0.1392 -0.1784
10708SOL    HW233024   5.651   0.276   2.809  3.4308 -0.7862 -2.3654
10709SOL     OW33025   5.038   6.064   4.067  0.0792 -0.4698 -0.5532
10709SOL    HW133026   4.960   6.116   4.032  0.0494  0.4510  0.7807
10709SOL    HW233027   5.117   6.078   4.008 -0.3958 -0.2880 -1.1557
10710SOL     OW33028   5.171   5.924   4.902 -0.1020 -0.2102 -0.3459
10710SOL    HW133029   5.191   5.840   4.953  0.5311  0.0551 -0.1467
10710SOL    HW233030   5.098   5.974   4.949  1.0236  0.4384  0.7998
10711SOL     OW33031   1.007   0.249   4.497 -0.0057 -0.3096  0.2172
10711SOL    HW133032   1.077   0.320   4.506  0.9022 -1.2644  0.8772
10711SOL    HW233033   0.934   0.282   4.438 -0.2854  1.6995  1.6069
10712SOL     OW33034   4.040   1.825   3.700  0.2107 -0.1404  0.6020
10712SOL    HW133035   3.950   1.867   3.707 -0.0941 -0.3871 -1.3867
10712SOL    HW233036   4.059   1.773   3.784  0.3750  3.3159  2.9367
10713SOL     OW33037   1.947   4.213   2.617 -0.7969  0.0436 -0.8571
10713SOL    HW133038   2.034   4.204   2.568 -0.8596  1.0019 -1.1633
10713SOL    HW233039   1.922   4.125   2.656  1.2882  0.1586  0.9128
10714SOL     OW33040   0.834   5.075   3.945 -0.0981  0.3598 -0.4010
10714SOL    HW133041   0.792   5.159   3.910 -0.3603 -0.0606 -1.1197
10714SOL    HW233042   0.772   4.998   3.928  0.0308  0.0560  0.4784
10715SOL     OW33043   4.103   1.041   4.680 -0.3920 -0.1584 -0.7418
10715SOL    HW133044   4.150   1.125   4.707 -1.8404  0.5190 -0.2649
10715SOL    HW233045   4.153   0.962   4.716  0.2030  0.5557  0.0247
10716SOL     OW33046   0.268   0.154   4.878 -0.5906 -0.2478 -0.1322
10716SOL    HW133047   0.359   0.181   4.909 -0.0926 -1.3387 -0.5829
10716SOL    HW233048   0.199   0.194   4.938  0.2131  0.0771  0.5993
10717SOL     OW33049   6.538   0.819   2.013  0.2756  0.4755  0.3656
10717SOL    HW133050   6.562   0.912   1.986  0.4933  0.2343 -0.3142
10717SOL    HW233051   6.443   0.815   2.042  0.2240  0.8814  0.2524
10718SOL     OW33052   5.637   3.234   6.454 -0.1247  0.1096 -0.3482
10718SOL    HW133053   5.708   3.223   6.524  0.0749 -1.9392 -0.8120
10718SOL    HW233054   5.547   3.235   6.498  0.0631  0.1452  0.0408
10719SOL     OW33055   5.452   1.253   2.465 -0.4003 -0.0327 -0.0405
10719SOL    HW133056   5.363   1.295   2.451  0.5534  1.6089 -1.6751
10719SOL    HW233057   5.460   1.173   2.405 -0.5081  0.2923 -0.5010
10720SOL     OW33058   5.605   4.265   6.759  0.0793 -0.1894 -0.2634
10720SOL    HW133059   5.558   4.178   6.772 -0.1568  0.1137  1.0756
10720SOL    HW233060   5.693   4.263   6.806  0.0789  0.2911 -0.2390
10721SOL     OW33061   5.885   3.358   3.787  0.0915 -0.7245  0.2618
10721SOL    HW133062   5.965   3.389   3.838  1.1175 -0.5769 -1.3528
10721SOL    HW233063   5.901   3.264   3.754  1.4372  0.6052 -3.4152
10722SOL     OW33064   0.371   4.291   0.547  0.9879  0.5827 -0.4814
10722SOL    HW133065   0.397   4.358   0.478  0.6710 -0.9037 -2.1263
10722SOL    HW233066   0.454   4.247   0.583  1.1056  0.4799 -0.8673
10723SOL     OW33067   4.655   2.740   6.963 -1.1398  0.2833  0.5143
10723SOL    HW133068   4.740   2.747   7.014 -0.4503 -0.0046 -0.5668
10723SOL    HW233069   4.581   2.715   7.025 -0.2816 -0.2778  1.3312
10724SOL     OW33070   3.488   5.444   5.388  0.1009  0.0571 -0.1759
10724SOL    HW133071   3.484   5.366   5.450  0.3124 -1.0946 -1.5784
10724SOL    HW233072   3.567   5.435   5.327  0.1390  1.3801 -0.3594
10725SOL     OW33073   1.595   6.328   4.766 -0.6655 -0.2248 -0.3334
10725SOL    HW133074   1.543   6.390   4.707 -3.0327 -2.6846 -1.0575
10725SOL    HW233075   1.631   6.253   4.712  0.1650 -0.7040  0.8455
10726SOL     OW33076   5.178   6.362   4.328 -0.1010 -0.4615 -0.2138
10726SOL    HW133077   5.181   6.263   4.312  1.3540 -0.4046 -0.3532
10726SOL    HW233078   5.271   6.398   4.335 -0.5958  1.0204 -0.8737
10727SOL     OW33079   1.427   5.674   5.552 -0.4708  0.0949  0.5620
10727SOL    HW133080   1.464   5.581   5.553  0.9501  0.6397  1.6046
10727SOL    HW233081   1.436   5.714   5.642  1.8926  2.3421 -0.5490
10728SOL     OW33082   4.213   6.167   2.598  0.1575 -0.1589 -0.1231
10728SOL    HW133083   4.173   6.085   2.639  2.5004 -0.7988  1.0755
10728SOL    HW233084   4.247   6.146   2.506 -1.2814  0.1167 -0.7334
10729SOL     OW33085   0.568   3.971   1.832  0.1691  0.2579  0.9574
10729SOL    HW133086   0.574   4.069   1.850  3.5420  0.1091  1.3762
10729SOL    HW233087   0.632   3.947   1.758 -1.3763 -1.5127  0.1141
10730SOL     OW33088   0.142   0.110   1.884  0.5683 -0.1807  0.0389
10730SOL    HW133089   0.200   0.040   1.841  3.3042  2.0481 -0.1846
10730SOL    HW233090   0.197   0.161   1.951 -0.9679  2.4569 -0.5770
10731SOL     OW33091   5.246   5.916   6.981 -0.2815  0.4367  0.4787
10731SOL    HW133092   5.304   5.854   7.034  2.7151  1.2976 -1.5434
10731SOL    HW233093   5.275   6.010   6.999 -1.2198  0.9182 -0.4663
10732SOL     OW33094   6.582   0.645   2.232  0.3645  0.8801  0.6067
10732SOL    HW133095   6.488   0.620   2.257  0.7943  0.6967  2.1137
10732SOL    HW233096   6.582   0.736   2.191 -0.6071  0.4076 -0.5343
10733SOL     OW33097   6.829   6.505   0.220  0.3174 -0.3266  0.2197
10733SOL    HW133098   6.768   6.532   0.294  0.0175  1.1372 -0.5042
10733SOL    HW233099   6.776   6.492   0.136  0.6046 -2.3122  0.3137
10734SOL     OW33100   1.937   5.578   6.297 -0.6043  0.0757  0.0340
10734SOL    HW133101   1.994   5.660   6.291 -0.7513  0.2344  0.7469
10734SOL    HW233102   1.979   5.505   6.244 -0.0444  0.3673  0.0667
10735SOL     OW33103   0.201   5.147   1.753 -0.3888  0.1405  0.3008
10735SOL    HW133104   0.270   5.177   1.819 -0.2524 -1.3571  0.8828
10735SOL    HW233105   0.231   5.171   1.661 -0.1022  1.3644  0.6930
10736SOL     OW33106   6.767   0.217   3.258  0.5595 -0.2732 -0.6878
10736SOL    HW133107   6.764   0.306   3.305 -1.3555 -0.3641 -0.5625
10736SOL    HW233108   6.683   0.204   3.206  0.9270 -1.9170 -0.9286
10737SOL     OW33109   0.002   1.051   0.609  0.4132  0.1260 -0.7074
10737SOL    HW133110  -0.000   1.133   0.667 -1.2336  0.2706 -0.9400
10737SOL    HW233111  -0.028   0.972   0.663  1.9326 -0.3567 -0.5017
10738SOL     OW33112   2.085   0.906   2.047  0.0671 -0.1381  0.3007
10738SOL    HW133113   2.109   1.001   2.070 -0.7596 -0.0080  0.6964
10738SOL    HW233114   2.119   0.845   2.119  0.7237 -0.1586 -0.0266
10739SOL     OW33115   6.233   1.469   1.594 -0.1152 -0.2043 -0.4198
10739SOL    HW133116   6.135   1.452   1.581 -0.3313  0.5206  0.1882
10739SOL    HW233117   6.277   1.386   1.628 -0.4107 -0.7010 -1.2325
10740SOL     OW33118   3.065   0.757   4.967 -1.0024 -0.2015 -0.3143
10740SOL    HW133119   3.053   0.669   5.013 -1.5999  0.3947  0.7472
10740SOL    HW233120   3.034   0.751   4.873 -0.6147 -1.2401 -0.3791
10741SOL     OW33121   1.042   2.894   2.668  0.0948  0.0049  0.3922
10741SOL    HW133122   0.983   2.817   2.646  0.9252 -0.3259 -0.7839
10741SOL    HW233123   1.027   2.922   2.763 -1.1183 -0.7857  0.4535
10742SOL     OW33124   0.243   5.889   2.953  0.6531  0.7245  0.2934
10742SOL    HW133125   0.277   5.938   2.873  1.2051 -0.3050 -0.1251
10742SOL    HW233126   0.161   5.837   2.929  0.4215  0.9564  0.5745
10743SOL     OW33127   2.962   1.754   4.367  0.0523 -0.5113 -0.3419
10743SOL    HW133128   2.870   1.762   4.405  0.4173 -1.4003  0.7870
10743SOL    HW233129   2.994   1.660   4.377  0.9308 -0.3064 -1.0950
10744SOL     OW33130   2.146   0.000   1.713  0.1877 -0.3759 -0.3841
10744SOL    HW133131   2.206   0.034   1.786 -0.7153 -1.7046  1.0057
10744SOL    HW233132   2.114   0.078   1.658  0.4678  0.7105  0.9361
10745SOL     OW33133   2.871   3.245   0.924  0.3152 -0.6391 -0.5069
10745SOL    HW133134   2.956   3.238   0.873  0.7569 -1.2821  0.2934
10745SOL    HW233135   2.890   3.234   1.022 -0.6526 -0.5138 -0.2953
10746SOL     OW33136   2.817   6.006   0.867  0.5994 -0.4614 -0.0529
10746SOL    HW133137   2.800   6.104   0.855 -1.7624 -0.7978  0.1098
10746SOL    HW233138   2.834   5.987   0.964  0.6047 -0.2785 -0.0171
10747SOL     OW33139   0.537   2.825   4.501 -0.1908 -0.4930 -0.1993
10747SOL    HW133140   0.499   2.907   4.544  1.1933  0.1547 -0.1708
10747SOL    HW233141   0.627   2.845   4.464  0.7272 -2.3012  0.8734
10748SOL     OW33142   4.047   5.549   0.633 -0.2834  0.0479 -0.9238
10748SOL    HW133143   3.963   5.510   0.671 -0.1526 -0.5641 -1.2501
10748SOL    HW233144   4.126   5.510   0.680 -0.1839  1.1307 -0.1421
10749SOL     OW33145   0.057   6.827   2.353 -0.3258 -0.6369 -0.0118
10749SOL    HW133146  -0.021   6.838   2.414 -2.2264 -1.0216 -2.2697
10749SOL    HW233147   0.130   6.889   2.381 -1.2698 -0.4914  2.3401
10750SOL     OW33148   4.952   0.519   4.684 -0.5091 -0.2850 -0.5344
10750SOL    HW133149   4.860   0.533   4.649 -1.4286  1.0780  2.1535
10750SOL    HW233150   4.951   0.448   4.755  0.8129 -1.2351 -1.4049
10751SOL     OW33151   0.643   2.313   5.087  0.0950  0.5421  0.1288
10751SOL    HW133152   0.742   2.318   5.079  0.1332 -0.8632 -0.5613
10751SOL    HW233153   0.601   2.375   5.021  0.4678  2.5801  1.6832
10752SOL     OW33154   5.860   4.557   0.580 -0.2589  0.3555  0.0441
10752SOL    HW133155   5.876   4.478   0.520 -1.5931  0.3589 -0.3442
10752SOL    HW233156   5.803   4.529   0.657 -1.2088  1.0586 -0.3956
10753SOL     OW33157   5.620   5.639   3.275  0.2132  0.0320 -0.2288
10753SOL    HW133158   5.586   5.607   3.363 -0.5399 -2.6560 -1.3874
10753SOL    HW233159   5.549   5.628   3.205  1.0383  1.3854 -1.3388
10754SOL     OW33160   1.068   3.607   6.477  0.0754 -0.1477 -0.4366
10754SOL    HW133161   1.104   3.573   6.564 -1.3822 -2.2720 -0.5890
10754SOL    HW233162   0.977   3.646   6.491  1.0329  2.3481 -0.5691
10755SOL     OW33163   6.028   3.673   0.915  0.5380  0.3997 -0.7540
10755SOL    HW133164   6.008   3.592   0.859 -0.2029 -0.8614  1.2320
10755SOL    HW233165   5.985   3.753   0.874 -1.8571 -0.8661 -0.8684
10756SOL     OW33166   6.072   3.282   6.266  0.2492 -0.2070  0.3642
10756SOL    HW133167   5.999   3.255   6.329 -1.2515 -1.4843 -1.7830
10756SOL    HW233168   6.159   3.284   6.315 -0.6554 -2.2370  2.2358
10757SOL     OW33169   0.108   3.623   1.767  0.2978 -0.2871  0.0398
10757SOL    HW133170   0.196   3.668   1.785  0.2357 -0.6724  1.4243
10757SOL    HW233171   0.121   3.524   1.767 -0.0068 -0.3325 -0.5520
10758SOL     OW33172   1.737   5.134   6.041 -0.7338  0.5490  0.1838
10758SOL    HW133173   1.651   5.084   6.037  0.6110 -1.9101 -0.0307
10758SOL    HW233174   1.809   5.075   6.078  0.8707  2.5382  0.4551
10759SOL     OW33175   0.360   3.019   4.648 -0.3894  0.1549  0.2587
10759SOL    HW133176   0.332   3.087   4.581 -0.7429  1.7168  1.9164
10759SOL    HW233177   0.288   2.951   4.659 -0.7167  0.4126 -0.2655
10760SOL     OW33178   0.317   5.935   6.476 -0.3494  0.3202 -0.3193
10760SOL    HW133179   0.390   5.877   6.439 -1.0492  0.1366 -1.4656
10760SOL    HW233180   0.280   5.892   6.558  1.1228  0.6530  0.5630
10761SOL     OW33181   0.048   1.454   0.076 -0.7131  0.1893  0.4134
10761SOL    HW133182   0.025   1.455   0.173 -1.5537  1.9200  0.2297
10761SOL    HW233183   0.086   1.543   0.050 -1.3532  0.0691 -1.0347
10762SOL     OW33184   4.965   0.575   6.020  0.3777  0.2181  0.1365
10762SOL    HW133185   4.998   0.481   6.019  0.0088  0.0739  0.9997
10762SOL    HW233186   4.874   0.579   6.060  0.1368  0.8669 -0.4598
10763SOL     OW33187   5.827   6.933   2.298  0.6654  0.1281 -0.1462
10763SOL    HW133188   5.773   6.989   2.361  1.1888 -0.3729  0.7674
10763SOL    HW233189   5.884   6.870   2.351 -0.0376 -1.4007 -1.1541
10764SOL     OW33190   3.892   6.659   4.682  0.0170  0.2174  0.1584
10764SOL    HW133191   3.925   6.706   4.600 -2.5059 -0.1932 -1.1747
10764SOL    HW233192   3.871   6.727   4.752  0.0980  0.7448 -0.3214
10765SOL     OW33193   5.629   3.187   3.681 -0.3390  0.1457 -0.3236
10765SOL    HW133194   5.560   3.234   3.736 -0.3024 -2.4854  2.2485
10765SOL    HW233195   5.607   3.196   3.584 -1.7918  3.0002  0.1724
10766SOL     OW33196   6.861   4.493   6.408 -0.9552 -0.2861  0.4316
10766SOL    HW133197   6.787   4.452   6.461 -1.1022 -0.3429  0.1851
10766SOL    HW233198   6.822   4.554   6.339 -0.8492 -1.2735 -0.5370
10767SOL     OW33199   3.199   5.834   0.296  0.8545  0.1481 -0.8464
10767SOL    HW133200   3.252   5.774   0.356 -1.1786  0.6582  1.6002
10767SOL    HW233201   3.262   5.894   0.247  2.7823 -2.3402 -1.6428
10768SOL     OW33202   4.140   6.159   5.396  0.5774 -0.4413  0.0665
10768SOL    HW133203   4.082   6.121   5.324  1.5784 -0.7208 -0.6261
10768SOL    HW233204   4.170   6.251   5.370  2.2630 -1.1552 -0.7004
10769SOL     OW33205   3.524   3.928   4.520  0.3399  0.6551 -0.0746
10769SOL    HW133206   3.501   3.913   4.424  0.3804  0.4014 -0.0472
10769SOL    HW233207   3.615   3.890   4.539 -0.2103 -0.4966  0.3637
10770SOL     OW33208   4.468   1.596   3.311  0.6605 -0.3232  0.1547
10770SOL    HW133209   4.375   1.561   3.326  0.6273  0.0523  0.8413
10770SOL    HW233210   4.482   1.677   3.367  0.7722  0.7214 -1.3452
10771SOL     OW33211   5.384   6.892   4.455  0.0904 -0.0596  0.1399
10771SOL    HW133212   5.335   6.973   4.487  1.3120  0.0547  1.9043
10771SOL    HW233213   5.332   6.848   4.383 -1.6844  1.0591  0.6612
10772SOL     OW33214   4.594   6.446   2.880  0.2590  0.5487  0.1590
10772SOL    HW133215   4.542   6.389   2.816 -0.9161 -0.3295  1.8406
10772SOL    HW233216   4.551   6.537   2.887  1.2907  1.2071 -1.4113
10773SOL     OW33217   1.571   4.891   6.853 -0.1295  0.2186 -0.5244
10773SOL    HW133218   1.665   4.860   6.841 -0.1997  0.0490 -0.6457
10773SOL    HW233219   1.552   4.905   6.950  0.2734  1.0585 -0.5554
10774SOL     OW33220   0.078   1.966   0.552  0.0299  0.3195  0.2542
10774SOL    HW133221   0.058   1.916   0.468 -0.9810  0.5029  0.3752
10774SOL    HW233222   0.146   2.038   0.532  0.1691  0.0460 -0.2926
10775SOL     OW33223   2.298   5.072   0.823 -0.1495  0.4516 -0.3119
10775SOL    HW133224   2.300   4.977   0.790 -0.6595  0.7275 -1.1567
10775SOL    HW233225   2.256   5.075   0.914  0.8542 -0.2595  0.1987
10776SOL     OW33226   1.022   0.939   4.290 -0.2332 -0.4139  0.0416
10776SOL    HW133227   1.115   0.971   4.269 -0.0856 -1.0289 -0.2549
10776SOL    HW233228   0.968   0.936   4.206  0.2219 -2.4389 -0.2373
10777SOL     OW33229   2.833   1.123   2.071  0.6203  0.1105  0.1067
10777SOL    HW133230   2.852   1.078   1.984 -1.3797  1.2632 -1.0218
10777SOL    HW233231   2.804   1.054   2.138 -1.0718 -0.5183 -1.1739
10778SOL     OW33232   6.027   5.091   6.887  0.6465 -0.0299  0.3777
10778SOL    HW133233   5.932   5.077   6.860  0.6082 -0.0316  0.5135
10778SOL    HW233234   6.086   5.088   6.806  0.7844 -2.0934  0.5215
10779SOL     OW33235   5.610   4.905   4.814 -0.0495 -0.0446 -0.1926
10779SOL    HW133236   5.699   4.902   4.861 -1.4683 -0.6176  2.6841
10779SOL    HW233237   5.548   4.966   4.864 -1.5999 -0.3859 -1.6062
10780SOL     OW33238   6.895   3.452   4.010 -0.2879 -0.1612 -1.1506
10780SOL    HW133239   6.925   3.395   4.086 -1.0566  2.0877  0.9715
10780SOL    HW233240   6.796   3.469   4.018  0.0130  1.9320 -1.3157
10781SOL     OW33241   6.138   2.297   5.391 -0.2447 -0.4659  0.0165
10781SOL    HW133242   6.183   2.290   5.302 -1.2738  0.8080 -0.6319
10781SOL    HW233243   6.091   2.385   5.398  1.4204  0.3491  2.5943
10782SOL     OW33244   0.496   2.993   6.098 -0.4189 -0.1603  0.1701
10782SOL    HW133245   0.408   2.967   6.060 -0.2413 -0.1543 -0.2584
10782SOL    HW233246   0.550   2.911   6.116 -0.5560 -0.1697  0.5436
10783SOL     OW33247   0.671   3.337   0.825  0.1192 -0.0922  0.2530
10783SOL    HW133248   0.742   3.271   0.799 -0.1349 -0.6518  0.9535
10783SOL    HW233249   0.703   3.429   0.805  0.2423 -0.4509 -1.3099
10784SOL     OW33250   1.969   5.967   2.231 -0.6016 -0.7122  0.3983
10784SOL    HW133251   2.011   6.056   2.213 -0.8522 -0.9552 -1.6637
10784SOL    HW233252   1.878   5.979   2.270 -0.4429 -0.0772  0.5721
10785SOL     OW33253   2.751   6.122   3.447 -0.0323 -0.0933 -0.4936
10785SOL    HW133254   2.686   6.189   3.412  0.9555  1.0576 -0.2074
10785SOL    HW233255   2.819   6.102   3.376  1.2527  1.3038  0.2758
10786SOL     OW33256   4.023   1.599   2.715  0.1658 -0.1522 -0.3114
10786SOL    HW133257   3.970   1.622   2.634 -0.3498  0.2193  0.1208
10786SOL    HW233258   3.964   1.603   2.796  0.5653 -0.9624  0.0271
10787SOL     OW33259   5.039   2.593   3.164  0.4272  0.4318 -0.2342
10787SOL    HW133260   5.125   2.555   3.129 -0.5116 -1.5030 -0.5351
10787SOL    HW233261   5.022   2.557   3.256 -0.5021  0.1116 -0.5300
10788SOL     OW33262   1.323   2.601   0.324  0.0588 -0.1466 -0.2984
10788SOL    HW133263   1.308   2.692   0.365  2.1069  0.5729 -1.0055
10788SOL    HW233264   1.246   2.541   0.347  0.2012  0.7418  3.0423
10789SOL     OW33265   6.771   1.966   1.361 -0.2891  0.5205  0.1180
10789SOL    HW133266   6.709   1.968   1.282  0.2962  0.9562 -0.3451
10789SOL    HW233267   6.757   1.882   1.413  0.2555 -0.4263 -1.2229
10790SOL     OW33268   0.872   0.390   0.640 -0.0521 -0.6168  0.5470
10790SOL    HW133269   0.791   0.431   0.596  0.6884 -0.9284 -1.2111
10790SOL    HW233270   0.946   0.457   0.640 -0.2184 -0.4126  1.9402
10791SOL     OW33271   1.082   2.143   1.681 -0.3117  0.7922 -0.4147
10791SOL    HW133272   1.102   2.080   1.756 -0.9007 -0.0152 -0.9179
10791SOL    HW233273   1.031   2.222   1.715  0.0287  0.7792  0.1396
10792SOL     OW33274   5.302   2.436   1.476 -0.1516 -0.2608  0.7773
10792SOL    HW133275   5.320   2.533   1.459 -1.7487 -0.3024 -1.6442
10792SOL    HW233276   5.229   2.427   1.544 -0.8931  0.3226  0.0905
10793SOL     OW33277   4.808   2.313   5.821  0.1865 -0.2123  0.1203
10793SOL    HW133278   4.862   2.300   5.904 -1.2890  1.0100  1.3505
10793SOL    HW233279   4.754   2.231   5.802  2.6196 -1.6031 -1.3482
10794SOL     OW33280   4.099   3.968   1.138  0.2837  0.2224  0.4389
10794SOL    HW133281   4.126   3.872   1.136 -0.8099 -0.0817 -0.3576
10794SOL    HW233282   4.132   4.014   1.055 -1.6910 -0.1880 -0.6163
10795SOL     OW33283   0.001   4.137   4.082 -0.2484  0.1959  0.3859
10795SOL    HW133284   0.081   4.088   4.117  0.1772  1.0275  0.5947
10795SOL    HW233285  -0.067   4.144   4.155 -0.0793  0.3995  0.5272
10796SOL     OW33286   1.891   4.795   0.078 -0.7359 -0.7410  0.2557
10796SOL    HW133287   1.881   4.733   0.156 -0.2777  0.5103  1.3393
10796SOL    HW233288   1.825   4.770   0.008 -2.4617 -0.7622  1.8067
10797SOL     OW33289   5.070   2.457   1.035 -0.3067  0.1675  0.2526
10797SOL    HW133290   5.088   2.377   0.977  0.9383 -0.4022  1.3633
10797SOL    HW233291   5.143   2.466   1.102 -1.2077  1.3828  1.1118
10798SOL     OW33292   3.514   6.404   6.283  0.0221  0.4338  0.2062
10798SOL    HW133293   3.567   6.337   6.230 -1.7947 -0.3447 -0.7470
10798SOL    HW233294   3.520   6.494   6.239  1.4482  0.6347  0.7697
10799SOL     OW33295   3.821   0.018   4.465 -0.1563  0.5719  0.4644
10799SOL    HW133296   3.819   0.055   4.372  3.0906  1.9544  0.8097
10799SOL    HW233297   3.898  -0.045   4.474 -0.9419 -0.2382  2.0303
10800SOL     OW33298   0.634   2.342   0.429 -0.2095 -0.7774  0.0540
10800SOL    HW133299   0.556   2.308   0.377 -0.9661  1.5499 -0.4304
10800SOL    HW233300   0.701   2.382   0.366  1.3088 -2.5038  0.4853
10801SOL     OW33301   3.517   5.217   6.770  0.5896  0.3079 -0.0320
10801SOL    HW133302   3.544   5.313   6.777  0.6002  0.3024  0.0064
10801SOL    HW233303   3.598   5.160   6.759  0.6949  0.1823  1.2503
10802SOL     OW33304   2.276   4.247   4.857  0.5216 -0.3038 -0.5408
10802SOL    HW133305   2.278   4.162   4.909 -2.3053 -1.8394 -2.6731
10802SOL    HW233306   2.328   4.236   4.773  2.8870  1.2963  0.5962
10803SOL     OW33307   4.851   4.911   4.923 -0.3522  0.6624 -0.0933
10803SOL    HW133308   4.882   4.962   4.843 -0.7527  0.8838 -0.1090
10803SOL    HW233309   4.829   4.818   4.896  0.1597  0.5419 -0.1090
10804SOL     OW33310   5.915   2.884   1.302 -0.6739  0.3597  0.2064
10804SOL    HW133311   5.834   2.847   1.348  0.1366  0.1595  1.4973
10804SOL    HW233312   5.923   2.841   1.212 -2.8062  1.4417 -0.5751
10805SOL     OW33313   4.317   6.647   6.366  0.3563 -0.2278  0.2793
10805SOL    HW133314   4.267   6.604   6.441 -0.5816 -1.7796 -1.1615
10805SOL    HW233315   4.283   6.740   6.353  0.9688  0.3046  2.1242
10806SOL     OW33316   0.211   3.612   6.928  0.2058 -0.1958 -0.1734
10806SOL    HW133317   0.249   3.703   6.942  1.0355 -0.7463  1.3842
10806SOL    HW233318   0.123   3.619   6.882  1.2735  1.2428 -2.1250
10807SOL     OW33319   3.584   0.355   3.564  0.8679 -0.0644  0.1462
10807SOL    HW133320   3.506   0.416   3.551 -0.1481 -0.9344  1.9401
10807SOL    HW233321   3.667   0.401   3.530 -0.3730  0.8158 -1.9288
10808SOL     OW33322   5.912   3.204   0.091  0.0734 -0.0880  0.0811
10808SOL    HW133323   5.851   3.159   0.156  0.7959 -1.2585 -0.0207
10808SOL    HW233324   5.974   3.266   0.139 -0.5520  0.3881  0.2889
10809SOL     OW33325   1.696   6.127   1.712  0.1327  0.2633  0.1006
10809SOL    HW133326   1.735   6.047   1.758 -2.9847  0.2418  3.0792
10809SOL    HW233327   1.686   6.108   1.614  0.5597 -2.5488  0.5335
10810SOL     OW33328   6.988   1.428   6.283  0.0302 -0.2835  0.1423
10810SOL    HW133329   7.041   1.420   6.198  0.4025 -1.4896  0.4659
10810SOL    HW233330   7.050   1.444   6.359 -0.1177 -0.9900  0.4221
10811SOL     OW33331   4.755   4.053   3.655  0.1833  0.2912 -0.3534
10811SOL    HW133332   4.769   3.970   3.709  0.9133  0.6714  0.0520
10811SOL    HW233333   4.675   4.102   3.689 -1.6557 -1.3713 -2.0247
10812SOL     OW33334   0.019   5.049   1.909  0.4360 -0.9231  0.0802
10812SOL    HW133335   0.109   5.075   1.873  1.1057 -1.6270  1.1827
10812SOL    HW233336   0.028   5.023   2.005 -1.0463 -0.5396  0.3408
10813SOL     OW33337   1.844   6.705   2.132  0.2815 -0.6334 -0.2914
10813SOL    HW133338   1.901   6.703   2.214  0.6723  0.6615 -0.5012
10813SOL    HW233339   1.894   6.751   2.058 -1.8671  2.9331  0.2365
10814SOL     OW33340   1.247   6.370   5.137  0.5820  0.3591  0.5265
10814SOL    HW133341   1.337   6.360   5.179  0.2960  0.3532  1.1366
10814SOL    HW233342   1.176   6.340   5.201  0.1538  0.2155 -0.0063
10815SOL     OW33343   0.508   2.516   3.077  0.2199 -0.0031 -0.1098
10815SOL    HW133344   0.414   2.547   3.062  0.9381  1.9775 -0.8070
10815SOL    HW233345   0.571   2.593   3.066  1.8526 -1.0360  1.4616
10816SOL     OW33346   0.189   1.708   3.321 -0.0459 -0.1196  0.0829
10816SOL    HW133347   0.188   1.755   3.233  1.2831  1.6363  0.9528
10816SOL    HW233348   0.112   1.738   3.376 -0.6655 -0.9434 -0.3036
10817SOL     OW33349   4.848   0.321   1.973 -0.0135 -0.0114 -0.7032
10817SOL    HW133350   4.916   0.247   1.976 -0.2975 -0.2569 -0.0292
10817SOL    HW233351   4.837   0.353   1.879  0.2686 -0.6878 -0.9719
10818SOL     OW33352   6.907   3.374   1.271  0.1367  0.1459  0.4595
10818SOL    HW133353   6.901   3.467   1.307  0.4908 -0.4096  2.0257
10818SOL    HW233354   6.994   3.362   1.224 -0.2811  0.8457 -0.5391
10819SOL     OW33355   0.078   1.611   5.778 -0.3896 -0.0424 -0.2206
10819SOL    HW133356   0.084   1.710   5.765  0.5204 -0.1830 -0.9392
10819SOL    HW233357   0.044   1.592   5.871  0.6369  0.9367  0.3821
10820SOL     OW33358   6.584   6.154   6.134 -0.4475  0.0868  0.2026
10820SOL    HW133359   6.520   6.213   6.182 -0.6194 -0.6436  0.8947
10820SOL    HW233360   6.558   6.149   6.037 -1.6097 -0.4019  0.5165
10821SOL     OW33361   6.365   1.932   0.826  0.3111  0.2794  0.3666
10821SOL    HW133362   6.355   1.879   0.742  2.2825  0.1842  0.1315
10821SOL    HW233363   6.462   1.936   0.851  0.0790  2.6362  1.1166
10822SOL     OW33364   1.798   3.075   2.916  0.1717 -0.1818  0.6404
10822SOL    HW133365   1.863   3.009   2.953  2.2294  1.2056 -0.2985
10822SOL    HW233366   1.792   3.065   2.816  2.2594  2.3375  0.1391
10823SOL     OW33367   2.144   6.241   3.018 -0.3323 -0.3072 -0.3400
10823SOL    HW133368   2.111   6.162   3.069 -1.2647 -0.0751 -0.5663
10823SOL    HW233369   2.215   6.287   3.071  0.3972 -1.4206 -0.3154
10824SOL     OW33370   6.397   0.619   1.886  0.1962  1.0436 -0.0600
10824SOL    HW133371   6.416   0.537   1.940  1.7213  0.2066 -1.7422
10824SOL    HW233372   6.457   0.693   1.916  0.2104  0.9405  0.1664
10825SOL     OW33373   3.435   1.336   0.165  0.5726 -0.3548 -0.2117
10825SOL    HW133374   3.528   1.302   0.173  0.7632  0.1765 -0.0917
10825SOL    HW233375   3.431   1.431   0.198  0.0883 -0.2208 -0.6335
10826SOL     OW33376   0.614   3.974   0.828  0.5768  0.3548  0.1793
10826SOL    HW133377   0.699   4.012   0.864  0.7637  1.1407 -1.0224
10826SOL    HW233378   0.548   4.047   0.813 -0.4944 -0.2934  1.4840
10827SOL     OW33379   2.297   4.261   4.561 -0.0104 -0.1562  0.0849
10827SOL    HW133380   2.209   4.244   4.517 -0.0858 -0.5872  0.3998
10827SOL    HW233381   2.362   4.190   4.533 -0.0004 -0.3159  0.5052
10828SOL     OW33382   2.517   6.050   6.303  0.2096  0.7257  0.1024
10828SOL    HW133383   2.461   5.992   6.362 -1.6217 -0.4297 -2.5779
10828SOL    HW233384   2.518   6.143   6.339  0.5316 -0.2241  2.7559
10829SOL     OW33385   3.702   3.169   3.314 -0.5107  0.2300  0.3582
10829SOL    HW133386   3.608   3.200   3.329 -0.5265  0.3767 -0.0497
10829SOL    HW233387   3.702   3.071   3.295 -0.7039  0.4579 -0.8746
10830SOL     OW33388   5.383   3.408   4.041 -0.2592 -0.5754 -0.0460
10830SOL    HW133389   5.458   3.355   4.003 -0.4359  0.5787 -2.1340
10830SOL    HW233390   5.307   3.410   3.976 -0.9631  0.6983  0.7683
10831SOL     OW33391   5.875   1.710   4.397 -0.2246  0.2836 -0.7216
10831SOL    HW133392   5.927   1.639   4.350  0.7242  0.1082  0.5493
10831SOL    HW233393   5.938   1.778   4.435 -1.1049  1.9392 -2.0566
10832SOL     OW33394   6.156   1.457   0.923  0.0502 -0.5884  0.0490
10832SOL    HW133395   6.208   1.541   0.938 -0.8772 -0.1973  1.2522
10832SOL    HW233396   6.117   1.458   0.831  3.6567 -1.7795 -1.6792
10833SOL     OW33397   1.729   1.380   4.047  0.3124  0.6237 -0.1220
10833SOL    HW133398   1.667   1.360   4.123  0.9016 -1.0866 -0.0388
10833SOL    HW233399   1.693   1.456   3.993 -2.2358 -0.7319 -0.4910
10834SOL     OW33400   6.132   2.582   6.621 -0.5306 -0.4250  0.0736
10834SOL    HW133401   6.049   2.614   6.575 -0.1772  0.3482 -0.0328
10834SOL    HW233402   6.166   2.500   6.574 -2.6097 -2.2957  1.5891
10835SOL     OW33403   5.706   1.669   3.669 -0.0206 -0.5112 -0.5514
10835SOL    HW133404   5.793   1.624   3.649  1.2619  1.7670 -0.4413
10835SOL    HW233405   5.691   1.671   3.767  0.8668  0.8576 -0.4142
10836SOL     OW33406   6.991   0.928   6.596  0.4587  0.0329  0.0839
10836SOL    HW133407   7.042   0.915   6.681 -0.9813  0.0489  0.9831
10836SOL    HW233408   6.998   1.024   6.568  3.4500 -0.5583 -1.5276
10837SOL     OW33409   6.625   5.147   2.307  0.5743 -0.5268  0.1076
10837SOL    HW133410   6.598   5.192   2.222  0.1571 -1.2260 -0.1399
10837SOL    HW233411   6.692   5.204   2.356  0.6052  0.0065 -0.5469
10838SOL     OW33412   7.001   0.198   0.849 -0.3114 -0.3088 -0.0920
10838SOL    HW133413   7.085   0.195   0.903 -0.8534 -0.9516  0.7486
10838SOL    HW233414   7.005   0.273   0.783  0.8202 -0.1976  0.0931
10839SOL     OW33415   0.116   2.578   6.047 -0.1048 -0.4786 -0.2310
10839SOL    HW133416   0.179   2.515   6.002  0.5789  0.5410 -0.7230
10839SOL    HW233417   0.028   2.577   5.999  0.4181  0.1315 -1.2517
10840SOL     OW33418   2.071   6.618   0.977 -0.0842  0.1346  0.2244
10840SOL    HW133419   2.113   6.635   1.066 -0.1729 -1.8935  0.6949
10840SOL    HW233420   2.139   6.583   0.913 -0.4269 -0.3373  0.1079
10841SOL     OW33421   5.611   4.363   6.502  0.0055 -0.4514 -0.1794
10841SOL    HW133422   5.577   4.453   6.474  1.0417 -0.7004 -2.4320
10841SOL    HW233423   5.602   4.354   6.601  0.5123  2.4163  0.2182
10842SOL     OW33424   1.039   2.817   7.001 -0.1712  0.1549 -0.9673
10842SOL    HW133425   0.965   2.752   6.980 -0.4531  0.0954  0.1230
10842SOL    HW233426   1.000   2.906   7.023 -0.0557 -0.2342  0.9908
10843SOL     OW33427   1.256   1.277   3.140 -0.2101 -0.3978 -0.0035
10843SOL    HW133428   1.246   1.335   3.221  1.0054 -2.0398  1.4193
10843SOL    HW233429   1.206   1.192   3.155  0.4208 -0.9153 -0.7763
10844SOL     OW33430   5.462   6.432   3.069 -0.3636 -0.0332  0.2735
10844SOL    HW133431   5.526   6.364   3.105 -0.5444  0.0581  0.7737
10844SOL    HW233432   5.388   6.385   3.020 -0.9881 -0.2660  1.4060
10845SOL     OW33433   1.902   1.500   4.868 -0.6540  0.0164 -0.5051
10845SOL    HW133434   1.903   1.502   4.768 -0.3915 -0.6324 -0.5224
10845SOL    HW233435   1.812   1.470   4.900 -0.8924  0.6931 -0.5305
10846SOL     OW33436   5.128   0.668   1.898 -0.2241  0.0743  0.4117
10846SOL    HW133437   5.058   0.710   1.840 -0.7400 -2.9136 -1.3459
10846SOL    HW233438   5.083   0.616   1.971  0.2134 -0.2906  0.4257
10847SOL     OW33439   2.531   3.036   5.609 -0.8269 -0.1813 -0.2332
10847SOL    HW133440   2.468   3.073   5.540 -0.8441  0.0911 -0.0729
10847SOL    HW233441   2.541   2.938   5.595 -0.5129 -0.0600 -0.8802
10848SOL     OW33442   0.047   6.763   2.083  0.1617 -0.3660 -0.0540
10848SOL    HW133443   0.050   6.798   2.177  0.1886 -1.1121  0.2311
10848SOL    HW233444   0.109   6.684   2.075  0.9775  0.3365 -0.9747
10849SOL     OW33445   2.160   5.856   3.592 -0.3562 -0.2514  0.0203
10849SOL    HW133446   2.206   5.887   3.509  0.2325 -2.0760 -0.3798
10849SOL    HW233447   2.126   5.935   3.643  0.3951  0.9664 -1.2991
10850SOL     OW33448   6.653   6.566   1.410  0.4325  0.0092  0.5714
10850SOL    HW133449   6.607   6.611   1.334  1.1040 -1.2277 -0.6187
10850SOL    HW233450   6.591   6.503   1.455  0.2604  0.1771  0.5705
10851SOL     OW33451   4.080   0.084   6.647  0.5547  0.4999 -0.2476
10851SOL    HW133452   3.990   0.042   6.662  0.8410  0.1598  0.5912
10851SOL    HW233453   4.069   0.181   6.628  0.0227  0.5163  0.1230
10852SOL     OW33454   0.370   6.772   6.475  0.2935  0.3598  0.9842
10852SOL    HW133455   0.429   6.710   6.423 -0.0476  0.0853  0.9248
10852SOL    HW233456   0.361   6.859   6.427 -1.1403 -0.3672 -0.1209
10853SOL     OW33457   2.109   0.722   4.625 -0.1322 -0.1313 -0.0454
10853SOL    HW133458   2.047   0.659   4.671 -1.6023  0.7753 -0.7347
10853SOL    HW233459   2.112   0.702   4.527  0.3948  0.0600 -0.0741
10854SOL     OW33460   5.897   0.671   0.806  0.6857 -0.4795 -0.8129
10854SOL    HW133461   5.943   0.608   0.744  0.6391 -0.3511 -0.9777
10854SOL    HW233462   5.798   0.667   0.791  0.7929  1.0560 -2.1967
10855SOL     OW33463   1.190   6.634   1.698 -0.5183  0.3573  0.8421
10855SOL    HW133464   1.187   6.539   1.667 -1.1177  1.1141 -1.6538
10855SOL    HW233465   1.283   6.657   1.727 -0.2978 -0.9003  1.1488
10856SOL     OW33466   6.913   6.257   0.379 -0.4716  0.1387 -0.4417
10856SOL    HW133467   6.928   6.266   0.477  1.1388 -1.4232 -0.4982
10856SOL    HW233468   6.859   6.334   0.346 -1.2793  0.5426  1.7017
10857SOL     OW33469   6.860   6.978   3.035 -0.2183 -0.5545 -0.2130
10857SOL    HW133470   6.802   6.941   3.107 -0.6110  0.6226  0.0881
10857SOL    HW233471   6.913   7.055   3.070 -1.7569  1.2275 -1.6060
10858SOL     OW33472   1.155   3.722   0.233 -0.8246 -0.1153 -0.4132
10858SOL    HW133473   1.164   3.673   0.147 -2.2178  0.2784 -0.7962
10858SOL    HW233474   1.060   3.750   0.247 -0.5069  0.3806  0.9471
10859SOL     OW33475   1.169   5.624   1.882  0.4837 -0.2675 -0.0459
10859SOL    HW133476   1.072   5.602   1.882 -0.2450  2.6439  0.4320
10859SOL    HW233477   1.212   5.586   1.799 -0.9413 -1.8572 -0.1000
10860SOL     OW33478   6.134   6.309   1.370 -0.3765  0.5166 -0.4468
10860SOL    HW133479   6.171   6.352   1.452 -2.2116  1.1965  0.0746
10860SOL    HW233480   6.070   6.371   1.326  0.5226  0.1292 -2.3895
10861SOL     OW33481   3.330   2.893   0.469  0.3024  0.1242  0.0856
10861SOL    HW133482   3.296   2.851   0.553  0.2778  0.3752  0.2030
10861SOL    HW233483   3.414   2.943   0.489  1.0733 -0.9747 -0.3195
10862SOL     OW33484   4.560   2.565   0.420 -0.0098  0.1002 -0.2285
10862SOL    HW133485   4.602   2.477   0.398  0.7378 -0.0627  1.6624
10862SOL    HW233486   4.630   2.628   0.453 -0.7481  0.9554 -0.2520
10863SOL     OW33487   2.527   2.001   4.277 -0.0026 -0.5925 -0.4642
10863SOL    HW133488   2.567   2.063   4.344  1.0203 -0.8047 -0.8553
10863SOL    HW233489   2.429   2.020   4.268  0.0655  0.1618  0.2837
10864SOL     OW33490   2.169   4.960   1.652  0.1909  0.6242 -0.0228
10864SOL    HW133491   2.226   4.911   1.585 -0.3088  0.8599 -0.6338
10864SOL    HW233492   2.072   4.942   1.632  0.0469  0.1253  1.0798
10865SOL     OW33493   6.184   1.400   3.274 -0.3525 -0.3594  0.2989
10865SOL    HW133494   6.237   1.326   3.232 -1.8714 -1.7187  0.6942
10865SOL    HW233495   6.161   1.468   3.204  1.3808 -0.0122  0.0073
10866SOL     OW33496   1.248   4.175   3.024  0.5240  0.5394  0.4461
10866SOL    HW133497   1.204   4.223   2.947  1.4481 -0.2962 -0.6402
10866SOL    HW233498   1.346   4.168   3.006  0.7889  0.5036  1.8245
10867SOL     OW33499   3.124   1.465   6.592  0.1785  0.2082  0.3775
10867SOL    HW133500   3.207   1.441   6.542  0.1075 -0.3746  0.5247
10867SOL    HW233501   3.128   1.561   6.620 -0.6174  1.1306 -2.3828
10868SOL     OW33502   0.253   2.131   4.918  0.3325  0.0064  0.0622
10868SOL    HW133503   0.333   2.161   4.866  1.2694 -1.5214  0.5435
10868SOL    HW233504   0.270   2.039   4.955 -2.7179 -1.7146 -2.2569
10869NA      NA33505   0.611   1.917   6.000  0.0511  0.3362  0.4071
10870NA      NA33506   4.448   4.605   5.185 -0.0334  0.0298  0.0059
10871NA      NA33507   0.906   6.042   2.110  0.3458  0.0745  0.0311
10872NA      NA33508   5.530   4.499   2.977  0.1752  0.4783 -0.5617
10873NA      NA33509   4.307   2.454   5.358 -0.0728  0.0677 -0.0686
10874NA      NA33510   2.983   3.347   1.265  0.1439  0.0717 -0.1484
10875NA      NA33511   2.464   4.465   0.458 -0.0123  0.4103 -0.0456
10876NA      NA33512   3.489   3.602   0.491 -0.2704  0.0036  0.1088
10877NA      NA33513   5.123   4.403   1.117  0.0895 -0.0708  0.5170
10878NA      NA33514   3.061   1.823   6.371  0.0741  0.0199  0.4242
10879NA      NA33515   5.330   6.498   2.076 -0.3501  0.2873 -0.1152
10880NA      NA33516   1.561   5.812   5.413 -0.1637  0.0993 -0.2967
10881NA      NA33517   3.796   4.783   1.482  0.0384  0.0999 -0.2185
10882NA      NA33518   2.520   2.432   1.369 -0.4554 -0.1437 -0.0177
   7.02050   7.02050   7.02050
