CNT in water
33518
    1C        C    1   2.847   2.771   4.745 -0.1687 -0.3339 -0.5470
    1C        C    2   2.897   2.717   4.865 -0.3927 -0.1024 -0.3509
    1C        C    3   2.846   2.770   4.984 -0.2018 -0.2919 -0.1846
    1C        C    4   2.856   2.775   4.258  0.2070  0.1103 -0.1345
    1C        C    5   2.901   2.721   4.381 -0.2019 -0.4938 -0.2506
    1C        C    6   2.848   2.771   4.502 -0.1805 -0.0837 -0.4126
    1C        C    7   3.014   2.639   4.623  0.0301 -0.1614  0.3035
    1C        C    8   2.899   2.721   4.624  0.0086 -0.1766 -0.5331
    1C        C    9   3.076   2.599   4.743  0.2847 -0.0507  0.2081
    1C        C   10   3.007   2.629   4.863  0.0909  0.4887 -0.0350
    1C        C   11   3.182   2.491   4.976 -0.1331 -0.0168 -0.0356
    1C        C   12   3.064   2.567   4.975 -0.2371 -0.1803 -0.2357
    1C        C   13   2.852   2.771   3.770  0.1025  0.0714  0.1899
    1C        C   14   2.903   2.724   3.893 -0.2920 -0.3106  0.2065
    1C        C   15   2.850   2.774   4.015 -0.3766 -0.0174  0.0481
    1C        C   16   3.021   2.644   4.135 -0.0630 -0.1303 -0.1208
    1C        C   17   2.910   2.733   4.136  0.1044  0.0738 -0.1623
    1C        C   18   3.080   2.610   4.259 -0.2070 -0.5198 -0.1603
    1C        C   19   3.018   2.642   4.381  0.3087  0.2535 -0.0916
    1C        C   20   3.210   2.552   4.503 -0.1286 -0.0138  0.3032
    1C        C   21   3.077   2.600   4.502  0.0485  0.4680  0.1089
    1C        C   22   3.278   2.526   4.624  0.0018  0.0364  0.2384
    1C        C   23   3.207   2.544   4.745  0.2852 -0.0420  0.4157
    1C        C   24   3.413   2.481   4.867  0.5443  0.7742 -0.0222
    1C        C   25   3.271   2.502   4.865  0.5039  0.5759  0.5212
    1C        C   26   3.492   2.473   4.982  0.1619  0.0069  0.2005
    1C        C   27   2.851   2.765   3.283  1.0876  0.5625  0.3346
    1C        C   28   2.910   2.726   3.405  0.9170  0.6716  0.4557
    1C        C   29   2.856   2.772   3.527  0.2221  0.2873  0.2980
    1C        C   30   3.017   2.634   3.650 -0.1362 -0.3651  0.0582
    1C        C   31   2.905   2.721   3.649  0.2609  0.1509  0.2262
    1C        C   32   3.077   2.598   3.773  0.0225 -0.0671  0.0678
    1C        C   33   3.015   2.639   3.893 -0.1438 -0.1133 -0.0039
    1C        C   34   3.210   2.551   4.015 -0.2299 -0.6459  0.2528
    1C        C   35   3.080   2.604   4.014 -0.0459 -0.2018 -0.0847
    1C        C   36   3.277   2.530   4.138  0.0571 -0.5926  0.1026
    1C        C   37   3.210   2.555   4.259 -0.2458 -0.6015 -0.0657
    1C        C   38   3.418   2.511   4.379 -0.5617 -0.6235  0.2128
    1C        C   39   3.279   2.538   4.381 -0.4650 -0.1250  0.1240
    1C        C   40   3.489   2.500   4.501 -0.0280  0.0368 -0.0336
    1C        C   41   3.417   2.500   4.623 -0.0468 -0.2068 -0.0480
    1C        C   42   3.627   2.485   4.742  0.2704 -0.1274 -0.0793
    1C        C   43   3.485   2.481   4.745  0.2669 -0.0178 -0.1956
    1C        C   44   3.703   2.483   4.861 -0.1177 -0.7927  0.1638
    1C        C   45   3.631   2.469   4.980  0.1549 -0.3742  0.3778
    1C        C   46   2.842   2.756   2.793  0.5180  0.2087  0.2279
    1C        C   47   2.895   2.710   2.916  0.3746  0.2982  0.3280
    1C        C   48   2.846   2.764   3.037 -0.3703 -0.3474  0.3285
    1C        C   49   3.022   2.645   3.160 -0.0478 -0.4636 -0.1075
    1C        C   50   2.904   2.723   3.159  0.2261 -0.0400  0.1568
    1C        C   51   3.081   2.605   3.281 -0.0341  0.0371  0.0541
    1C        C   52   3.027   2.647   3.405  0.3185 -0.2355  0.3057
    1C        C   53   3.209   2.546   3.527  0.5560  0.0170  0.0037
    1C        C   54   3.079   2.602   3.528  0.5829  0.0733  0.3074
    1C        C   55   3.275   2.521   3.650 -0.0089 -0.0845  0.2897
    1C        C   56   3.207   2.543   3.771 -0.0323 -0.1981  0.2928
    1C        C   57   3.415   2.503   3.895  0.0346  0.3880  0.1297
    1C        C   58   3.276   2.524   3.893 -0.0948 -0.4479  0.2854
    1C        C   59   3.488   2.501   4.016  0.0838  0.0292  0.0894
    1C        C   60   3.417   2.507   4.138  0.0474 -0.6305  0.1029
    1C        C   61   3.630   2.495   4.257 -0.2972 -0.1010  0.0702
    1C        C   62   3.489   2.495   4.258 -0.2920 -0.3412  0.3340
    1C        C   63   3.700   2.505   4.379 -0.1924  0.7159 -0.0554
    1C        C   64   3.630   2.505   4.502 -0.0352  0.1901  0.0335
    1C        C   65   3.838   2.540   4.622  0.2341 -0.3390  0.1097
    1C        C   66   3.702   2.504   4.623  0.2393 -0.3560 -0.1331
    1C        C   67   3.905   2.557   4.745  0.1000 -0.2063  0.1633
    1C        C   68   3.838   2.525   4.865 -0.3413 -0.0327 -0.0360
    1C        C   69   4.053   2.582   4.976 -0.1868 -0.3121  0.2302
    1C        C   70   3.923   2.531   4.977 -0.2933 -0.0448 -0.0733
    1C        C   71   2.828   2.736   2.308  0.3929  0.0347  0.1042
    1C        C   72   2.883   2.689   2.429  0.2261 -0.2102  0.0862
    1C        C   73   2.836   2.746   2.549  0.0155 -0.5026  0.1463
    1C        C   74   3.009   2.625   2.671 -0.4038 -0.8758 -0.0230
    1C        C   75   2.895   2.708   2.671 -0.2278 -0.6288  0.2271
    1C        C   76   3.072   2.590   2.793 -0.3242 -0.3779  0.0804
    1C        C   77   3.012   2.631   2.915  0.0612 -0.1730  0.2072
    1C        C   78   3.206   2.545   3.036  0.3570 -0.2268  0.0840
    1C        C   79   3.077   2.604   3.037  0.1061 -0.7658  0.0598
    1C        C   80   3.275   2.527   3.158  0.5613  0.2949  0.0496
    1C        C   81   3.211   2.549   3.282  0.2342  0.6510 -0.1829
    1C        C   82   3.415   2.504   3.403  0.1715  0.3503  0.0565
    1C        C   83   3.276   2.524   3.405  0.1410  0.1315 -0.2428
    1C        C   84   3.486   2.498   3.525 -0.0948  0.1694  0.1972
    1C        C   85   3.415   2.505   3.647 -0.0005  0.0341  0.2527
    1C        C   86   3.625   2.502   3.769  0.1074 -0.5478 -0.1366
    1C        C   87   3.483   2.503   3.771  0.1182 -0.4001  0.1759
    1C        C   88   3.698   2.514   3.889  0.0452 -0.1801 -0.1452
    1C        C   89   3.629   2.502   4.012  0.0718  0.1676 -0.1010
    1C        C   90   3.834   2.545   4.134 -0.2054  0.0843  0.0447
    1C        C   91   3.698   2.507   4.134 -0.3503  0.6150  0.1135
    1C        C   92   3.901   2.569   4.256  0.0324 -0.3451 -0.0061
    1C        C   93   3.838   2.539   4.378 -0.1468  0.5262  0.1184
    1C        C   94   4.030   2.629   4.500  0.1324 -0.1324  0.1845
    1C        C   95   3.905   2.562   4.500  0.1144 -0.0939  0.0891
    1C        C   96   4.084   2.674   4.622 -0.1484  0.2469  0.1684
    1C        C   97   4.027   2.630   4.743 -0.1267  0.1697  0.1505
    1C        C   98   4.181   2.775   4.861  0.3947 -0.6499  0.0362
    1C        C   99   4.096   2.660   4.864 -0.2358 -0.1805  0.3010
    1C        C  100   4.207   2.848   4.977 -0.8975  0.6181 -0.4419
    1C        C  101   2.818   2.729   2.073 -0.9280  0.1382  0.1975
    1C        C  102   2.986   2.586   2.191  0.1708  0.5129 -0.3116
    1C        C  103   2.874   2.675   2.189 -0.0780  0.2089 -0.1721
    1C        C  104   3.062   2.565   2.310 -0.1225 -0.4634 -0.2838
    1C        C  105   3.004   2.616   2.428 -0.0631 -0.6941 -0.1523
    1C        C  106   3.201   2.536   2.550  0.0004  0.0510  0.0012
    1C        C  107   3.069   2.585   2.550 -0.2724 -0.6622 -0.0301
    1C        C  108   3.271   2.518   2.671 -0.1510 -0.0453  0.0783
    1C        C  109   3.203   2.539   2.793 -0.3079 -0.3415  0.0439
    1C        C  110   3.409   2.490   2.914  0.0112  0.0816  0.1533
    1C        C  111   3.270   2.514   2.915 -0.0779 -0.4223 -0.0965
    1C        C  112   3.481   2.489   3.036  0.4439  0.0949 -0.1002
    1C        C  113   3.413   2.499   3.159  0.4643 -0.1968 -0.0682
    1C        C  114   3.626   2.494   3.279  0.1663 -0.5339  0.0612
    1C        C  115   3.485   2.497   3.281  0.1794 -0.2214  0.0964
    1C        C  116   3.693   2.502   3.403 -0.1897 -0.1640  0.2234
    1C        C  117   3.628   2.497   3.528 -0.1055 -0.4130  0.2490
    1C        C  118   3.835   2.541   3.645  0.2129  0.0192 -0.0568
    1C        C  119   3.699   2.503   3.649  0.2999 -0.2594 -0.0048
    1C        C  120   3.903   2.564   3.767 -0.0992  0.2154  0.0718
    1C        C  121   3.837   2.542   3.889  0.0582 -0.2872  0.0590
    1C        C  122   4.025   2.637   4.013 -0.0013 -0.3038  0.0025
    1C        C  123   3.901   2.569   4.012 -0.0242 -0.2480  0.0853
    1C        C  124   4.083   2.680   4.134 -0.5788  0.0450  0.1475
    1C        C  125   4.027   2.633   4.255  0.0250 -0.3361  0.2723
    1C        C  126   4.191   2.765   4.376  0.2685 -0.3899 -0.0551
    1C        C  127   4.089   2.667   4.377  0.2208 -0.3314  0.1680
    1C        C  128   4.233   2.825   4.496  0.2475 -0.3754 -0.0575
    1C        C  129   4.186   2.771   4.618 -0.1869  0.2822  0.0697
    1C        C  130   4.324   2.936   4.738  0.0767 -0.1277  0.1271
    1C        C  131   4.236   2.824   4.739  0.2919 -0.2983  0.1299
    1C        C  132   4.356   3.003   4.858 -0.6093  0.0865  0.1979
    1C        C  133   4.289   2.960   4.973 -0.9830  0.7078  0.2173
    1C        C  134   3.169   2.464   2.084 -0.6823 -0.8146  0.0916
    1C        C  135   3.036   2.510   2.080 -0.4451 -0.1257 -0.1625
    1C        C  136   3.260   2.474   2.190 -0.3926 -0.7642 -0.1572
    1C        C  137   3.194   2.514   2.309 -0.2396 -0.7805 -0.0641
    1C        C  138   3.404   2.472   2.428 -0.2046 -0.4185  0.3727
    1C        C  139   3.266   2.500   2.430 -0.1600 -0.1444 -0.0305
    1C        C  140   3.479   2.475   2.548 -0.0965  0.2359  0.2974
    1C        C  141   3.410   2.490   2.670 -0.2604 -0.6090  0.3151
    1C        C  142   3.621   2.492   2.789  0.0263 -0.0235  0.0395
    1C        C  143   3.480   2.483   2.792  0.0340 -0.0964  0.1764
    1C        C  144   3.690   2.495   2.912 -0.0440 -0.0645  0.0797
    1C        C  145   3.622   2.496   3.035  0.4540 -0.0920  0.3579
    1C        C  146   3.832   2.537   3.156  0.6387 -0.3741  0.3965
    1C        C  147   3.695   2.502   3.156  0.5214  0.1007  0.3035
    1C        C  148   3.898   2.561   3.278  0.2914 -0.0572  0.5177
    1C        C  149   3.829   2.541   3.400 -0.3342  0.3265  0.2280
    1C        C  150   4.021   2.632   3.521  0.3988 -0.2819 -0.1326
    1C        C  151   3.900   2.560   3.521  0.1994  0.0676 -0.0468
    1C        C  152   4.083   2.669   3.642 -0.0527 -0.4792  0.1493
    1C        C  153   4.029   2.626   3.766  0.3419 -0.6797  0.2423
    1C        C  154   4.188   2.765   3.886 -0.1517  0.0650  0.2583
    1C        C  155   4.084   2.670   3.889  0.5090 -0.6596  0.1528
    1C        C  156   4.239   2.820   4.005  0.2455 -0.3232  0.2624
    1C        C  157   4.190   2.772   4.129  0.1523 -0.8052  0.0373
    1C        C  158   4.334   2.922   4.252  0.0065 -0.2915 -0.1672
    1C        C  159   4.238   2.819   4.254  0.0679 -0.3425 -0.1076
    1C        C  160   4.374   2.983   4.373 -0.3288 -0.1135 -0.1476
    1C        C  161   4.322   2.936   4.495  0.4637 -0.5502  0.0257
    1C        C  162   4.430   3.119   4.612 -0.8366  0.2213  0.0774
    1C        C  163   4.363   2.995   4.616 -0.1030 -0.1848  0.0410
    1C        C  164   4.457   3.187   4.734 -0.8637  0.2157  0.0862
    1C        C  165   4.430   3.123   4.857 -1.3036  0.5168  0.1486
    1C        C  166   4.507   3.322   4.968 -0.5713  0.3275 -0.5419
    1C        C  167   4.478   3.186   4.972 -0.0719  0.2299 -0.1887
    1C        C  168   3.475   2.437   2.072 -0.4434 -0.4629  0.0396
    1C        C  169   3.399   2.454   2.188 -0.3467 -0.4952  0.1091
    1C        C  170   3.618   2.475   2.303 -0.3889 -0.2590 -0.1934
    1C        C  171   3.476   2.462   2.307 -0.4604  0.4942  0.1289
    1C        C  172   3.690   2.488   2.423 -0.4576  0.8989 -0.2574
    1C        C  173   3.619   2.484   2.545 -0.0793 -0.0683 -0.0494
    1C        C  174   3.826   2.540   2.667 -0.0786 -0.2084  0.0790
    1C        C  175   3.690   2.503   2.666 -0.0214 -0.4209 -0.0243
    1C        C  176   3.889   2.567   2.790 -0.3548  0.4109  0.0904
    1C        C  177   3.826   2.536   2.912  0.0766 -0.4691  0.0972
    1C        C  178   4.021   2.625   3.032 -0.2955  0.1464 -0.4209
    1C        C  179   3.897   2.556   3.032  0.1349 -0.6292  0.0885
    1C        C  180   4.080   2.666   3.154 -0.2174 -0.3657 -0.2850
    1C        C  181   4.021   2.630   3.277  0.5852 -0.5933  0.0351
    1C        C  182   4.192   2.755   3.398  0.3535  0.0407 -0.4052
    1C        C  183   4.084   2.665   3.398  0.4428 -0.0605 -0.0454
    1C        C  184   4.242   2.810   3.518 -0.2007 -0.3614  0.0091
    1C        C  185   4.193   2.758   3.640 -0.2965 -0.1880  0.0381
    1C        C  186   4.329   2.920   3.764 -0.4764 -0.1951  0.0458
    1C        C  187   4.240   2.810   3.762 -0.0823 -0.5075  0.0843
    1C        C  188   4.374   2.978   3.884 -0.6502  0.1426 -0.0542
    1C        C  189   4.332   2.926   4.008 -0.2316  0.0963  0.0672
    1C        C  190   4.442   3.105   4.126 -0.4397  0.2908 -0.0444
    1C        C  191   4.378   2.979   4.130 -0.0507  0.0939 -0.0048
    1C        C  192   4.469   3.173   4.247 -0.3039 -0.0900  0.1404
    1C        C  193   4.438   3.109   4.368 -0.7211  0.0973  0.1316
    1C        C  194   4.502   3.315   4.488 -0.3549  0.0701 -0.0477
    1C        C  195   4.461   3.180   4.488 -0.7764  0.1994  0.0816
    1C        C  196   4.514   3.388   4.608 -0.3506  0.2915 -0.1822
    1C        C  197   4.498   3.323   4.732 -0.7018  0.1650 -0.2918
    1C        C  198   4.553   3.537   4.847  0.0752  0.3448 -0.1235
    1C        C  199   4.523   3.398   4.851 -1.2097  0.6010 -0.4566
    1C        C  200   4.584   3.621   4.960 -0.2609  0.1889  0.0886
    1C        C  201   3.614   2.423   2.071 -0.4240 -0.3003  0.3638
    1C        C  202   3.826   2.521   2.179 -0.2554  0.4307 -0.3172
    1C        C  203   3.692   2.471   2.182  0.0580 -0.4197  0.0806
    1C        C  204   3.895   2.545   2.301 -0.4544  0.6099 -0.2370
    1C        C  205   3.826   2.528   2.422 -0.2811  0.3298 -0.1733
    1C        C  206   4.018   2.622   2.545 -0.2075 -0.1816 -0.0140
    1C        C  207   3.892   2.557   2.543 -0.4756  0.3340 -0.0638
    1C        C  208   4.079   2.663   2.665  0.2384 -0.3696 -0.1722
    1C        C  209   4.016   2.630   2.787 -0.1609  0.0076 -0.2745
    1C        C  210   4.187   2.754   2.909  0.2720 -0.3705  0.4666
    1C        C  211   4.075   2.667   2.909  0.0768 -0.1263 -0.3492
    1C        C  212   4.241   2.805   3.030  0.2438 -0.0226  0.3340
    1C        C  213   4.191   2.753   3.151 -0.3372 -0.2022  0.0256
    1C        C  214   4.324   2.916   3.271 -0.2841  0.6303 -0.1015
    1C        C  215   4.238   2.804   3.274  0.3099  0.1645 -0.3705
    1C        C  216   4.362   2.977   3.392 -1.0276  0.2382  0.3328
    1C        C  217   4.327   2.923   3.518 -0.6643 -0.0164  0.3236
    1C        C  218   4.433   3.104   3.638 -0.0876 -0.1057  0.3311
    1C        C  219   4.367   2.979   3.641 -0.3610  0.0378  0.1977
    1C        C  220   4.463   3.170   3.759 -0.1870  0.1401  0.2178
    1C        C  221   4.437   3.104   3.881 -0.8495  0.2432  0.1349
    1C        C  222   4.506   3.305   4.004  0.0496  0.1556  0.2429
    1C        C  223   4.466   3.170   4.003 -0.0146  0.1772 -0.0229
    1C        C  224   4.510   3.379   4.125 -0.4978  0.0189  0.3489
    1C        C  225   4.500   3.311   4.248 -0.8256  0.0266  0.3276
    1C        C  226   4.521   3.527   4.364  0.2144  0.2889 -0.1611
    1C        C  227   4.511   3.387   4.367 -0.5058  0.3391  0.1002
    1C        C  228   4.517   3.600   4.485  0.7808  0.2875 -0.1364
    1C        C  229   4.523   3.529   4.606  0.2107  0.2606 -0.1213
    1C        C  230   4.502   3.744   4.724 -0.0844  0.3688 -0.0224
    1C        C  231   4.536   3.606   4.724 -0.3155  0.3109 -0.0910
    1C        C  232   4.498   3.819   4.843 -0.2099 -0.3621  0.4443
    1C        C  233   4.540   3.754   4.960  0.0805  0.3059  0.7233
    1C        C  234   4.023   2.611   2.062 -0.1318  0.7113  0.1834
    1C        C  235   3.898   2.551   2.063  0.0769  0.2614 -0.1611
    1C        C  236   4.087   2.647   2.181  0.1718  0.1466  0.1958
    1C        C  237   4.021   2.613   2.301 -0.1389  0.0318 -0.0052
    1C        C  238   4.191   2.744   2.422  0.0433 -0.2956  0.0920
    1C        C  239   4.079   2.656   2.422 -0.2337  0.0498  0.0362
    1C        C  240   4.245   2.794   2.542 -0.0494 -0.3158  0.1440
    1C        C  241   4.189   2.751   2.665  0.4332 -0.6088  0.2651
    1C        C  242   4.330   2.910   2.784 -0.1059 -0.1781 -0.2586
    1C        C  243   4.240   2.800   2.787 -0.3270  0.0107  0.3427
    1C        C  244   4.377   2.966   2.905 -0.0074 -0.3553 -0.2127
    1C        C  245   4.332   2.913   3.027  0.2190 -0.0067  0.0271
    1C        C  246   4.437   3.096   3.150 -0.3532  0.6196  0.1162
    1C        C  247   4.366   2.975   3.149 -0.3038  0.5920 -0.1266
    1C        C  248   4.465   3.163   3.271  0.0444 -0.4074  0.5956
    1C        C  249   4.433   3.099   3.393 -0.6879  0.0361  0.6379
    1C        C  250   4.496   3.303   3.515  0.1417  0.0866 -0.4211
    1C        C  251   4.460   3.166   3.515 -0.1276  0.1463  0.4513
    1C        C  252   4.511   3.374   3.636 -0.6874  0.0372 -0.2801
    1C        C  253   4.505   3.305   3.760 -0.0600  0.1025 -0.2092
    1C        C  254   4.520   3.516   3.877 -0.2144 -0.3779 -0.5055
    1C        C  255   4.521   3.374   3.882  0.4353 -0.3623 -0.0048
    1C        C  256   4.514   3.590   3.997 -0.2429 -0.2735 -0.5700
    1C        C  257   4.513   3.520   4.119  0.2530 -0.0145 -0.4089
    1C        C  258   4.496   3.734   4.238  0.5402  0.0144 -0.1392
    1C        C  259   4.518   3.594   4.239  0.0078 -0.0768 -0.3567
    1C        C  260   4.471   3.804   4.358  0.2061 -0.2902 -0.0247
    1C        C  261   4.490   3.739   4.482  0.4248  0.2295  0.2216
    1C        C  262   4.420   3.941   4.605  0.3429  0.6137  0.2428
    1C        C  263   4.470   3.809   4.603  0.5758  0.7038 -0.0226
    1C        C  264   4.399   4.013   4.724  0.1031  0.6420  0.1872
    1C        C  265   4.437   3.947   4.843 -0.4316 -0.4685 -0.2539
    1C        C  266   4.319   4.131   4.954 -0.1560 -0.2803  0.2318
    1C        C  267   4.386   4.009   4.957 -0.6741 -0.5781 -0.3030
    1C        C  268   4.264   2.773   2.064  0.2551 -0.1894  0.0912
    1C        C  269   4.201   2.730   2.181  0.1493  0.1794  0.1728
    1C        C  270   4.348   2.890   2.299  0.1730  0.0576 -0.1142
    1C        C  271   4.252   2.785   2.301 -0.0614  0.2713  0.2224
    1C        C  272   4.378   2.957   2.420 -0.3329  0.0398  0.0287
    1C        C  273   4.337   2.901   2.542 -0.3295 -0.0712 -0.0182
    1C        C  274   4.445   3.087   2.659 -0.8932  0.4921 -0.5175
    1C        C  275   4.374   2.965   2.662  0.1876 -0.1399 -0.1376
    1C        C  276   4.476   3.153   2.780 -0.6348 -0.0994 -0.2576
    1C        C  277   4.447   3.089   2.903 -0.4634 -0.0914 -0.2108
    1C        C  278   4.503   3.292   3.025 -0.1986 -0.1527 -0.1466
    1C        C  279   4.469   3.155   3.025 -0.2370 -0.1439 -0.2192
    1C        C  280   4.517   3.364   3.145 -0.1591 -0.2677 -0.0811
    1C        C  281   4.506   3.298   3.269 -0.6843 -0.1920 -0.0826
    1C        C  282   4.524   3.508   3.388  0.5414  0.1592 -0.3595
    1C        C  283   4.518   3.367   3.392  0.1927  0.1741 -0.3662
    1C        C  284   4.520   3.581   3.509  0.0612 -0.1525 -0.1870
    1C        C  285   4.525   3.514   3.633 -0.3947  0.0147 -0.0798
    1C        C  286   4.502   3.726   3.752  0.2114  0.2449  0.2462
    1C        C  287   4.519   3.586   3.755  0.0381  0.2134 -0.1738
    1C        C  288   4.481   3.797   3.872  0.4001  0.0445  0.3981
    1C        C  289   4.498   3.730   3.996  0.2103 -0.2043  0.2941
    1C        C  290   4.431   3.935   4.115  0.0561  0.2024 -0.1529
    1C        C  291   4.482   3.803   4.116  0.1676  0.2414  0.0260
    1C        C  292   4.395   4.001   4.234 -0.0209 -0.0953 -0.0043
    1C        C  293   4.418   3.935   4.357 -0.4977 -0.5658 -0.1602
    1C        C  294   4.325   4.123   4.478 -0.3840 -0.7216 -0.0668
    1C        C  295   4.396   4.001   4.480  0.7099 -0.0985 -0.1806
    1C        C  296   4.285   4.190   4.596  0.0095  0.0014 -0.3295
    1C        C  297   4.329   4.137   4.719 -0.2953  0.4131 -0.0384
    1C        C  298   4.204   4.319   4.836 -0.3127 -0.3345  0.3238
    1C        C  299   4.289   4.203   4.838  0.2636  0.0816  0.3424
    1C        C  300   4.171   4.403   4.947 -0.3508 -0.2459  0.2492
    1C        C  301   4.347   2.884   2.060 -0.5402  0.4222  0.2045
    1C        C  302   4.466   3.069   2.175  0.2416  0.2671 -0.1742
    1C        C  303   4.395   2.945   2.177  0.1090  0.3442 -0.0127
    1C        C  304   4.470   3.145   2.294 -0.5776  0.0923 -0.0220
    1C        C  305   4.442   3.083   2.418 -0.4376  0.0947  0.0146
    1C        C  306   4.513   3.287   2.535  0.2964  0.4371 -0.1855
    1C        C  307   4.478   3.150   2.537 -0.2190  0.5598 -0.3067
    1C        C  308   4.524   3.359   2.656 -0.2945 -0.1314  0.2150
    1C        C  309   4.507   3.290   2.778 -0.5122 -0.1174  0.1956
    1C        C  310   4.516   3.500   2.899 -0.0769  0.2613  0.1744
    1C        C  311   4.515   3.359   2.901 -0.8421  0.2582  0.0107
    1C        C  312   4.510   3.574   3.019 -0.0319  0.0496  0.3063
    1C        C  313   4.519   3.505   3.142  0.3515 -0.2714  0.1001
    1C        C  314   4.487   3.715   3.267 -0.1934  0.2413  0.4820
    1C        C  315   4.511   3.575   3.265 -0.1750  0.2520 -0.2319
    1C        C  316   4.470   3.786   3.387 -0.1812  0.1549  0.5317
    1C        C  317   4.489   3.719   3.510 -0.6586 -0.3142  0.3515
    1C        C  318   4.429   3.924   3.627  0.0626 -0.0100 -0.1535
    1C        C  319   4.482   3.794   3.629  0.3566  0.1140  0.1507
    1C        C  320   4.392   3.987   3.748 -0.0007 -0.0420 -0.1562
    1C        C  321   4.425   3.926   3.871 -0.0140 -0.1310 -0.1951
    1C        C  322   4.319   4.112   3.988  0.4676  0.1997  0.2647
    1C        C  323   4.397   3.994   3.992  0.6666  0.3097 -0.2769
    1C        C  324   4.274   4.169   4.109 -0.3477 -0.0926  0.1088
    1C        C  325   4.317   4.119   4.234  0.2068  0.0620 -0.0132
    1C        C  326   4.183   4.282   4.353 -0.4218 -0.5320  0.1311
    1C        C  327   4.280   4.179   4.356 -0.0781 -0.2176  0.0455
    1C        C  328   4.130   4.335   4.473 -0.0807 -0.1432  0.1197
    1C        C  329   4.190   4.295   4.593 -0.1706 -0.1414  0.1711
    1C        C  330   4.022   4.430   4.714  0.3214  0.4588 -0.2866
    1C        C  331   4.139   4.350   4.713 -0.2599 -0.4214  0.2695
    1C        C  332   3.967   4.486   4.832 -0.0573  0.1919 -0.3305
    1C        C  333   4.053   4.478   4.942  0.0248  0.3174 -0.3826
    1C        C  334   4.548   3.267   2.056  0.1227  0.0514 -0.1913
    1C        C  335   4.533   3.128   2.063 -0.0309  0.0534 -0.4540
    1C        C  336   4.539   3.348   2.170 -0.3260 -0.0501 -0.1514
    1C        C  337   4.509   3.282   2.291 -0.2979  0.0154 -0.1062
    1C        C  338   4.529   3.495   2.409  0.1374  0.3590 -0.1651
    1C        C  339   4.527   3.354   2.411 -0.3076  0.3596 -0.3054
    1C        C  340   4.523   3.568   2.530 -0.4543 -0.3869  0.2739
    1C        C  341   4.527   3.500   2.653 -0.1625 -0.1283  0.4152
    1C        C  342   4.490   3.708   2.775  0.0507  0.3175  0.0455
    1C        C  343   4.511   3.569   2.775  0.3042  0.3543  0.2081
    1C        C  344   4.474   3.779   2.896  0.3232 -0.1259  0.3448
    1C        C  345   4.488   3.713   3.020  0.6715  0.1644  0.4644
    1C        C  346   4.420   3.912   3.139  0.1338  0.1414 -0.0323
    1C        C  347   4.465   3.779   3.143  0.4726  0.2666  0.3733
    1C        C  348   4.389   3.978   3.259 -0.5477  0.0893 -0.1781
    1C        C  349   4.421   3.918   3.383 -0.4213  0.0445 -0.2352
    1C        C  350   4.317   4.103   3.500 -0.3005 -0.1613  0.2001
    1C        C  351   4.394   3.985   3.505 -0.0689 -0.0228 -0.1207
    1C        C  352   4.273   4.161   3.621 -0.3068 -0.3687  0.2950
    1C        C  353   4.311   4.103   3.744 -0.2922 -0.2217  0.3604
    1C        C  354   4.176   4.266   3.866 -0.0418  0.0491 -0.1804
    1C        C  355   4.274   4.164   3.865 -0.3536 -0.2607  0.3626
    1C        C  356   4.124   4.318   3.986  0.0667 -0.0511 -0.0871
    1C        C  357   4.181   4.275   4.108  0.0373  0.2525  0.0391
    1C        C  358   4.009   4.400   4.228 -0.3315 -0.4940  0.1696
    1C        C  359   4.128   4.323   4.230  0.0534  0.0895  0.1164
    1C        C  360   3.952   4.444   4.349  0.4284  0.4580  0.1928
    1C        C  361   4.013   4.414   4.472  0.2337  0.3335  0.2660
    1C        C  362   3.827   4.519   4.590 -0.1671  0.4673 -0.3120
    1C        C  363   3.956   4.461   4.593 -0.0115  0.8086 -0.0240
    1C        C  364   3.762   4.547   4.713  0.0556 -0.3748  0.0142
    1C        C  365   3.839   4.544   4.831 -0.1256  0.0541  0.1496
    1C        C  366   3.630   4.588   4.948  0.1136  0.1880 -0.1242
    1C        C  367   3.768   4.573   4.949  0.1123  0.1801  0.2660
    1C        C  368   4.504   3.562   2.049 -0.1652  0.2005  0.1131
    1C        C  369   4.525   3.488   2.166  0.3325  0.0224 -0.0820
    1C        C  370   4.502   3.703   2.286  0.6985  0.2868  0.1900
    1C        C  371   4.522   3.563   2.286  0.9306  0.3165 -0.2435
    1C        C  372   4.475   3.773   2.405  0.2763  0.0314  0.2523
    1C        C  373   4.500   3.708   2.528 -0.8474 -0.4475  0.2462
    1C        C  374   4.418   3.902   2.649  0.7069  0.6383  0.0536
    1C        C  375   4.478   3.774   2.650 -0.1104  0.2464  0.0192
    1C        C  376   4.384   3.967   2.770 -0.8080 -0.4673  0.2446
    1C        C  377   4.417   3.909   2.894 -0.0558 -0.2920  0.1299
    1C        C  378   4.317   4.095   3.012  0.0381  0.0512 -0.2368
    1C        C  379   4.394   3.976   3.016  0.0762  0.0814 -0.0505
    1C        C  380   4.271   4.150   3.134 -0.1127 -0.1116 -0.2217
    1C        C  381   4.319   4.101   3.257 -0.4602  0.1407  0.0110
    1C        C  382   4.168   4.253   3.375 -0.0620  0.1123 -0.3410
    1C        C  383   4.274   4.159   3.378 -0.3204 -0.1627  0.2087
    1C        C  384   4.116   4.301   3.497  0.0071  0.0021 -0.2720
    1C        C  385   4.174   4.261   3.620 -0.0841 -0.1545 -0.2807
    1C        C  386   4.005   4.386   3.739  0.2004  0.1321  0.0240
    1C        C  387   4.123   4.308   3.743  0.1753  0.0834 -0.2634
    1C        C  388   3.943   4.424   3.861  0.1942  0.0551  0.0454
    1C        C  389   4.005   4.394   3.984  0.0503 -0.0667  0.0905
    1C        C  390   3.818   4.494   4.106  0.1364  0.1903  0.1314
    1C        C  391   3.945   4.433   4.106 -0.0566 -0.2225  0.0930
    1C        C  392   3.751   4.519   4.227 -0.5076 -0.4085 -0.0942
    1C        C  393   3.823   4.503   4.347  0.3363  0.2611 -0.4953
    1C        C  394   3.618   4.557   4.474 -0.0568 -0.9151 -0.1271
    1C        C  395   3.756   4.528   4.469  0.1246 -0.0703 -0.5351
    1C        C  396   3.546   4.563   4.596  0.1880 -0.0512 -0.0100
    1C        C  397   3.622   4.561   4.715  0.0667 -0.2176  0.0726
    1C        C  398   3.410   4.540   4.839  0.0703 -0.7307  0.0661
    1C        C  399   3.550   4.561   4.836 -0.0468  0.0829  0.0122
    1C        C  400   3.340   4.515   4.958  0.1180  0.5209  0.3668
    1C        C  401   4.497   3.701   2.048 -0.6001  0.1770 -0.3176
    1C        C  402   4.441   3.909   2.164  0.4190 -0.0787  0.2918
    1C        C  403   4.489   3.776   2.166  0.2017 -0.1646 -0.0371
    1C        C  404   4.399   3.970   2.284  0.2368  0.0278  0.1758
    1C        C  405   4.427   3.906   2.406  1.5789  0.5226  0.1456
    1C        C  406   4.322   4.091   2.525  0.1990  0.2600  0.2420
    1C        C  407   4.395   3.971   2.528  0.3440  0.3352 -0.0579
    1C        C  408   4.271   4.147   2.644  0.5406  0.5068  0.2768
    1C        C  409   4.308   4.085   2.766  0.8360  0.6214  0.2504
    1C        C  410   4.173   4.246   2.889 -0.2340  0.3958  0.0823
    1C        C  411   4.271   4.145   2.888  0.0388  0.6572  0.0028
    1C        C  412   4.119   4.296   3.009 -0.2901  0.3347  0.0809
    1C        C  413   4.172   4.250   3.131 -0.0429 -0.0440 -0.1708
    1C        C  414   4.004   4.384   3.252  0.0905  0.3544  0.0907
    1C        C  415   4.117   4.300   3.252  0.2166  0.5297 -0.2931
    1C        C  416   3.940   4.415   3.374 -0.2214 -0.1614  0.0620
    1C        C  417   3.996   4.376   3.497  0.2534  0.3910  0.0234
    1C        C  418   3.810   4.477   3.618  0.0030 -0.1651  0.1800
    1C        C  419   3.936   4.413   3.619  0.0290 -0.1122  0.0670
    1C        C  420   3.746   4.507   3.740  0.1493 -0.4230  0.3186
    1C        C  421   3.814   4.481   3.861 -0.0217 -0.4218  0.4158
    1C        C  422   3.612   4.539   3.987 -0.0343  0.4893  0.0732
    1C        C  423   3.751   4.514   3.983 -0.0880  0.1322  0.2408
    1C        C  424   3.542   4.549   4.109  0.0303 -0.5705  0.2177
    1C        C  425   3.612   4.546   4.232 -0.4923 -0.3779  0.5369
    1C        C  426   3.402   4.548   4.355 -0.8190 -0.5379 -0.2017
    1C        C  427   3.543   4.559   4.354 -0.8262 -0.2356  0.3442
    1C        C  428   3.333   4.540   4.478 -0.2781 -0.3842  0.1273
    1C        C  429   3.405   4.555   4.598  0.1944 -0.3788 -0.1463
    1C        C  430   3.196   4.519   4.721  0.2497 -0.1897 -0.1110
    1C        C  431   3.335   4.548   4.720  0.3104 -0.4557 -0.0754
    1C        C  432   3.125   4.495   4.842  0.0291 -0.3726 -0.2701
    1C        C  433   3.202   4.504   4.958  0.2122 -0.8129 -0.3540
    1C        C  434   4.387   4.123   2.054  0.1971 -0.1307 -0.3722
    1C        C  435   4.440   3.993   2.052  0.6168  0.0263  0.3667
    1C        C  436   4.299   4.160   2.160  0.4608 -0.1768 -0.1358
    1C        C  437   4.325   4.091   2.282 -0.4630 -0.3950 -0.0594
    1C        C  438   4.177   4.246   2.401 -0.1266 -0.3063 -0.0302
    1C        C  439   4.280   4.149   2.403 -0.2867 -0.4785  0.0489
    1C        C  440   4.119   4.291   2.521 -0.2107 -0.5581  0.0267
    1C        C  441   4.172   4.248   2.645  0.3758  0.3492  0.1070
    1C        C  442   4.004   4.375   2.763  0.0155  0.3330 -0.6180
    1C        C  443   4.121   4.296   2.767  0.0033  0.3405 -0.0435
    1C        C  444   3.942   4.414   2.884 -0.1022 -0.1980 -0.5084
    1C        C  445   4.002   4.375   3.006 -0.0822  0.6292 -0.2538
    1C        C  446   3.811   4.467   3.130 -0.2542 -0.7907  0.1471
    1C        C  447   3.940   4.409   3.129  0.1082  0.0137  0.0139
    1C        C  448   3.743   4.499   3.250 -0.0203  0.0030  0.0728
    1C        C  449   3.811   4.472   3.371 -0.2903 -0.3224  0.1503
    1C        C  450   3.608   4.526   3.499 -0.3750 -1.2711  0.0818
    1C        C  451   3.746   4.499   3.494 -0.2288 -0.5664  0.2318
    1C        C  452   3.538   4.528   3.621  0.1044 -0.6674  0.3471
    1C        C  453   3.606   4.524   3.745  0.2153  0.1441  0.3196
    1C        C  454   3.396   4.536   3.866 -0.0351 -0.5224 -0.4066
    1C        C  455   3.537   4.541   3.867 -0.0670  0.6713  0.0912
    1C        C  456   3.330   4.525   3.990  0.0177  0.2811 -0.2946
    1C        C  457   3.401   4.540   4.111 -0.0051 -0.2678 -0.2038
    1C        C  458   3.194   4.500   4.238 -0.4511 -0.3810  0.0394
    1C        C  459   3.332   4.531   4.234 -0.4249 -0.5195 -0.4445
    1C        C  460   3.126   4.478   4.360 -0.4767  0.1786  0.1372
    1C        C  461   3.196   4.506   4.480 -0.3410 -0.1689  0.1485
    1C        C  462   2.997   4.431   4.604 -0.5302  0.3367  0.1068
    1C        C  463   3.126   4.488   4.602 -0.2594 -0.2494  0.1906
    1C        C  464   2.935   4.397   4.726 -0.4232 -0.0759  0.0529
    1C        C  465   2.993   4.440   4.848  0.0257 -0.3498 -0.0578
    1C        C  466   2.801   4.337   4.960  0.1178 -0.0640  0.4380
    1C        C  467   2.907   4.428   4.962  0.2262 -0.1811  0.1160
    1C        C  468   4.128   4.290   2.037 -0.0745 -0.1168  0.6213
    1C        C  469   4.187   4.249   2.157  0.1129 -0.5863  0.3731
    1C        C  470   4.007   4.370   2.276 -0.1741 -0.1850 -0.2642
    1C        C  471   4.126   4.292   2.278  0.1270  0.2760  0.0803
    1C        C  472   3.942   4.403   2.397 -0.1062 -0.3296 -0.1877
    1C        C  473   4.000   4.366   2.521 -0.2057 -0.5502 -0.2053
    1C        C  474   3.810   4.464   2.640 -0.4108 -0.1484  0.1911
    1C        C  475   3.940   4.408   2.642 -0.1050  0.5108 -0.5071
    1C        C  476   3.741   4.482   2.762 -0.1377 -0.4130  0.3876
    1C        C  477   3.810   4.463   2.883 -0.1475 -0.2884  0.4114
    1C        C  478   3.608   4.518   3.009 -0.3731 -0.1242 -0.0875
    1C        C  479   3.745   4.485   3.007 -0.5044 -0.6970  0.2968
    1C        C  480   3.537   4.535   3.130  0.0029  0.0505  0.1074
    1C        C  481   3.605   4.531   3.254 -0.0313 -0.0657  0.1192
    1C        C  482   3.396   4.535   3.376 -0.2204 -0.1938 -0.3617
    1C        C  483   3.537   4.535   3.377 -0.2249 -0.7120  0.0326
    1C        C  484   3.326   4.532   3.499 -0.0588 -0.5891 -0.2820
    1C        C  485   3.397   4.532   3.621  0.1014 -0.6955 -0.3737
    1C        C  486   3.189   4.500   3.743  0.0249 -0.2520 -0.0933
    1C        C  487   3.326   4.534   3.743  0.0017 -0.1546 -0.4372
    1C        C  488   3.124   4.475   3.866 -0.2261 -0.2266 -0.2184
    1C        C  489   3.191   4.496   3.989  0.2262 -0.7791 -0.3655
    1C        C  490   3.006   4.408   4.115 -0.0470 -0.0007 -0.1350
    1C        C  491   3.130   4.476   4.115  0.2524 -0.5320 -0.3082
    1C        C  492   2.940   4.384   4.238 -0.1830  0.5057 -0.1074
    1C        C  493   2.996   4.424   4.361 -0.3046 -0.2495  0.1983
    1C        C  494   2.823   4.303   4.486 -0.4191  0.0876  0.3519
    1C        C  495   2.934   4.390   4.484 -0.9175  0.7302  0.1691
    1C        C  496   2.772   4.253   4.607 -0.5189 -0.4012  0.1127
    1C        C  497   2.824   4.307   4.726 -0.3294 -0.1982 -0.0593
    1C        C  498   2.673   4.157   4.847 -0.0445  0.3920 -0.0226
    1C        C  499   2.759   4.269   4.845 -0.4404  0.7032  0.1770
    1C        C  500   2.607   4.112   4.963 -0.2309 -0.0607 -0.3029
    1C        C  501   4.010   4.363   2.037  0.1335  0.2344 -0.0275
    1C        C  502   3.817   4.463   2.156 -0.3191 -0.0639  0.2611
    1C        C  503   3.943   4.401   2.155 -0.4920 -0.4131 -0.1587
    1C        C  504   3.744   4.482   2.276 -0.5284 -0.2241  0.1585
    1C        C  505   3.809   4.450   2.397 -0.1381 -0.4184 -0.1012
    1C        C  506   3.604   4.511   2.522 -0.0483 -0.3611 -0.0376
    1C        C  507   3.742   4.479   2.518 -0.1139 -0.6418 -0.0351
    1C        C  508   3.533   4.522   2.644 -0.2247 -0.5725 -0.1210
    1C        C  509   3.604   4.516   2.766 -0.4140 -1.4469 -0.0489
    1C        C  510   3.394   4.518   2.889 -0.4075 -0.0404 -0.3469
    1C        C  511   3.535   4.525   2.889 -0.3850 -0.4685 -0.1005
    1C        C  512   3.324   4.513   3.011 -0.2986 -0.3166 -0.2970
    1C        C  513   3.396   4.531   3.131  0.0111 -0.4547 -0.4622
    1C        C  514   3.189   4.497   3.255 -0.1395  0.6538  0.1733
    1C        C  515   3.325   4.536   3.253  0.0036  0.1337 -0.4884
    1C        C  516   3.122   4.471   3.376 -0.5480  0.5313 -0.0812
    1C        C  517   3.190   4.495   3.498 -0.3875  0.5743 -0.1814
    1C        C  518   2.998   4.411   3.628 -0.1501  0.3409  0.3070
    1C        C  519   3.124   4.475   3.621 -0.1990  0.3945 -0.1089
    1C        C  520   2.938   4.375   3.750 -0.8922  1.1479  0.1918
    1C        C  521   3.002   4.406   3.872 -0.3945  0.1013  0.2022
    1C        C  522   2.834   4.279   3.997 -0.6701  0.2816  0.2938
    1C        C  523   2.941   4.371   3.995 -0.6894  0.3014  0.1145
    1C        C  524   2.781   4.239   4.121 -0.8674  0.3724  0.2389
    1C        C  525   2.829   4.297   4.241 -0.3514  0.7159 -0.1284
    1C        C  526   2.690   4.139   4.362  0.0920  0.5765 -0.1793
    1C        C  527   2.775   4.252   4.363 -0.2411  0.8286 -0.0360
    1C        C  528   2.649   4.079   4.483 -0.5328  0.4723 -0.4404
    1C        C  529   2.685   4.141   4.605 -0.9286 -0.0826 -0.0317
    1C        C  530   2.582   3.960   4.732 -0.2195  0.0885 -0.0542
    1C        C  531   2.639   4.090   4.728 -0.7778  0.3441  0.2060
    1C        C  532   2.538   3.902   4.854  0.6887  0.0464  0.2576
    1C        C  533   2.538   3.990   4.968 -0.1193 -0.1001  0.3785
    1C        C  534   3.618   4.559   2.040 -0.2147  0.6382 -0.0206
    1C        C  535   3.752   4.520   2.045 -0.3663  0.1686  0.4064
    1C        C  536   3.537   4.539   2.156 -0.2303  0.4228 -0.0688
    1C        C  537   3.605   4.514   2.278 -0.5225 -0.1855 -0.0264
    1C        C  538   3.393   4.516   2.400 -0.2594 -0.4089 -0.1279
    1C        C  539   3.534   4.522   2.400 -0.2724 -0.1082  0.1143
    1C        C  540   3.322   4.512   2.522 -0.2050 -0.3904 -0.0968
    1C        C  541   3.393   4.511   2.645 -0.2114 -0.7378 -0.0941
    1C        C  542   3.183   4.486   2.769 -0.4591 -0.4375  0.1954
    1C        C  543   3.323   4.510   2.767 -0.5505  0.0902 -0.2721
    1C        C  544   3.116   4.462   2.891 -0.3070 -0.1245  0.3442
    1C        C  545   3.185   4.487   3.012 -0.3396 -0.1014  0.3592
    1C        C  546   2.998   4.398   3.136 -0.4424  0.2806  0.1236
    1C        C  547   3.121   4.467   3.136 -0.2621 -0.0291  0.4112
    1C        C  548   2.936   4.366   3.260 -0.1301  0.1023  0.2378
    1C        C  549   2.993   4.412   3.380 -0.3955  0.2188  0.3200
    1C        C  550   2.832   4.281   3.507 -0.4459  0.3668 -0.1138
    1C        C  551   2.940   4.372   3.505  0.1145 -0.2783  0.3805
    1C        C  552   2.778   4.236   3.629 -0.4043  0.6452  0.0042
    1C        C  553   2.833   4.280   3.752 -0.6249  0.8494  0.0274
    1C        C  554   2.693   4.122   3.873 -0.3948  0.7048 -0.2411
    1C        C  555   2.784   4.230   3.874 -0.7713  1.0206  0.0365
    1C        C  556   2.658   4.067   3.998 -0.3051  0.2888 -0.3993
    1C        C  557   2.697   4.126   4.120 -0.3840  0.0124 -0.2397
    1C        C  558   2.597   3.943   4.248  0.1813  0.1594 -0.0112
    1C        C  559   2.657   4.070   4.244  0.3886  0.0612  0.0331
    1C        C  560   2.566   3.879   4.370  0.2137  0.1875  0.0080
    1C        C  561   2.582   3.955   4.488 -0.1913  0.3012 -0.0112
    1C        C  562   2.533   3.751   4.615  0.2345  0.0218  0.1106
    1C        C  563   2.558   3.890   4.611  0.1190  0.0351 -0.0913
    1C        C  564   2.520   3.682   4.738 -0.1439  0.2211  0.1833
    1C        C  565   2.520   3.760   4.857  0.4096  0.0815  0.2758
    1C        C  566   2.532   3.547   4.977 -0.0747  0.0909 -0.1740
    1C        C  567   2.520   3.686   4.975 -0.5078  0.0599  0.2614
    1C        C  568   3.329   4.475   2.042  0.1888  0.0305 -0.3095
    1C        C  569   3.396   4.517   2.157 -0.2166  0.3324 -0.1801
    1C        C  570   3.185   4.475   2.284 -0.1982  0.0150 -0.1118
    1C        C  571   3.322   4.512   2.278 -0.1939 -0.0081 -0.1786
    1C        C  572   3.118   4.451   2.405 -0.5106 -0.0532 -0.2951
    1C        C  573   3.184   4.484   2.526 -0.2693 -0.1151 -0.4092
    1C        C  574   2.987   4.404   2.650 -0.2263  0.5177 -0.1575
    1C        C  575   3.115   4.466   2.647  0.1530 -0.2564 -0.1867
    1C        C  576   2.928   4.365   2.772 -0.4332  0.7976 -0.1653
    1C        C  577   2.991   4.398   2.894 -0.0911 -0.5661  0.0359
    1C        C  578   2.818   4.277   3.019 -0.5063  0.2427 -0.0851
    1C        C  579   2.932   4.360   3.017 -0.1269 -0.2632  0.1147
    1C        C  580   2.770   4.227   3.142 -0.9024  0.9602  0.0591
    1C        C  581   2.827   4.277   3.262 -0.6285  0.6993  0.0428
    1C        C  582   2.691   4.119   3.384 -0.7338  0.5649 -0.1214
    1C        C  583   2.779   4.230   3.386 -0.8814  0.6828 -0.0588
    1C        C  584   2.662   4.057   3.507  0.2300 -0.0692 -0.2044
    1C        C  585   2.700   4.118   3.629  0.1592  0.2654 -0.3520
    1C        C  586   2.598   3.934   3.757 -0.6300  0.9530  0.1797
    1C        C  587   2.656   4.062   3.751 -0.4290  0.8410 -0.2962
    1C        C  588   2.575   3.870   3.881 -0.2152  0.3144 -0.0650
    1C        C  589   2.601   3.938   4.002 -0.0342  0.1808 -0.0300
    1C        C  590   2.539   3.739   4.129  0.6047  0.0529 -0.2962
    1C        C  591   2.569   3.877   4.126  0.1274  0.1634  0.0008
    1C        C  592   2.527   3.668   4.250  0.4037  0.1207 -0.2814
    1C        C  593   2.532   3.742   4.370  0.3529  0.1558 -0.3056
    1C        C  594   2.521   3.536   4.497  0.3110  0.4507  0.0494
    1C        C  595   2.522   3.677   4.495  0.3825  0.4424 -0.1590
    1C        C  596   2.518   3.464   4.619  0.0628  0.4831  0.0576
    1C        C  597   2.518   3.540   4.738  0.2781  0.2162  0.2230
    1C        C  598   2.540   3.329   4.865  0.2667 -0.1640 -0.1431
    1C        C  599   2.528   3.470   4.860 -0.2204 -0.2006  0.0240
    1C        C  600   2.532   3.251   4.980  0.0910 -0.0365 -0.0707
    1C        C  601   3.195   4.441   2.045  0.1036  0.3947  0.0459
    1C        C  602   2.986   4.386   2.161 -0.2580  0.1663 -0.4749
    1C        C  603   3.119   4.440   2.163 -0.1248 -0.1631 -0.1020
    1C        C  604   2.925   4.359   2.286 -0.0004 -0.1776 -0.4200
    1C        C  605   2.990   4.391   2.407 -0.3194 -0.4619 -0.1683
    1C        C  606   2.817   4.272   2.533 -0.5084  0.4431  0.0538
    1C        C  607   2.929   4.359   2.530 -0.3610  0.2563  0.0046
    1C        C  608   2.766   4.223   2.655 -0.3977  0.2382  0.0212
    1C        C  609   2.822   4.272   2.775 -0.0384  0.3419 -0.1850
    1C        C  610   2.685   4.112   2.897 -0.6941  0.6529  0.3322
    1C        C  611   2.769   4.226   2.897 -0.1032  0.2344 -0.2498
    1C        C  612   2.646   4.053   3.019 -0.5809  0.0440  0.0856
    1C        C  613   2.685   4.114   3.140 -0.0327  0.2962 -0.2118
    1C        C  614   2.595   3.927   3.267 -0.2460  0.5086  0.0438
    1C        C  615   2.648   4.058   3.264 -0.5993  0.6512 -0.2148
    1C        C  616   2.576   3.860   3.390  0.4428  0.0691 -0.0816
    1C        C  617   2.606   3.927   3.510  0.5288 -0.1926  0.0431
    1C        C  618   2.534   3.732   3.643  0.3989  0.3047 -0.2605
    1C        C  619   2.574   3.868   3.634  0.5395  0.2995  0.2847
    1C        C  620   2.517   3.663   3.765  0.5536 -0.0539 -0.4407
    1C        C  621   2.535   3.735   3.885  0.3395  0.1341 -0.5209
    1C        C  622   2.507   3.527   4.011  0.4418  0.3209  0.1009
    1C        C  623   2.524   3.667   4.008  0.3262  0.3227 -0.4194
    1C        C  624   2.512   3.456   4.133  0.3066  0.2560  0.0654
    1C        C  625   2.515   3.527   4.255  0.5541  0.1256  0.1316
    1C        C  626   2.544   3.320   4.384 -0.2205  0.0010  0.0992
    1C        C  627   2.518   3.459   4.379  0.9408  0.2329  0.1784
    1C        C  628   2.561   3.250   4.505 -0.0150  0.0407  0.0874
    1C        C  629   2.545   3.326   4.623  0.2526  0.5153 -0.1832
    1C        C  630   2.598   3.120   4.744  0.2741  0.1812  0.4897
    1C        C  631   2.556   3.256   4.745  0.3851  0.2265 -0.3659
    1C        C  632   2.621   3.052   4.867 -0.1357 -0.2834  0.3092
    1C        C  633   2.565   3.115   4.983  0.3999  0.0485  0.3860
    1C        C  634   2.779   4.303   2.059 -0.7429  0.0434  0.1512
    1C        C  635   2.891   4.388   2.054 -0.7844  0.0899 -0.0117
    1C        C  636   2.745   4.232   2.175 -0.7702  0.3851  0.3547
    1C        C  637   2.808   4.278   2.293 -0.5210  0.6109  0.1359
    1C        C  638   2.678   4.108   2.415 -0.2338  0.1833  0.2761
    1C        C  639   2.761   4.222   2.413 -0.3340  0.2549  0.0468
    1C        C  640   2.634   4.051   2.537 -0.3871  0.1545  0.2103
    1C        C  641   2.675   4.115   2.656 -0.5882  0.3958  0.1543
    1C        C  642   2.584   3.921   2.778  0.4662  0.0368  0.2043
    1C        C  643   2.643   4.049   2.777  0.2526  0.1384  0.2508
    1C        C  644   2.562   3.854   2.901  0.1526 -0.2965 -0.0280
    1C        C  645   2.589   3.924   3.021 -0.6834  0.0831 -0.0463
    1C        C  646   2.534   3.724   3.149  0.4082  0.1202 -0.1053
    1C        C  647   2.571   3.860   3.145 -0.0723  0.2634  0.1425
    1C        C  648   2.522   3.657   3.273  0.3291  0.0517 -0.1468
    1C        C  649   2.533   3.726   3.396  0.0930  0.1721 -0.1893
    1C        C  650   2.516   3.520   3.522  0.5838  0.1920  0.0613
    1C        C  651   2.524   3.661   3.521 -0.1439  0.2355 -0.1739
    1C        C  652   2.510   3.451   3.645  0.2240  0.0836 -0.0130
    1C        C  653   2.508   3.523   3.767  0.6169 -0.0512  0.0739
    1C        C  654   2.537   3.315   3.891  0.3378  0.1586  0.4604
    1C        C  655   2.510   3.454   3.890  0.3536  0.1601  0.1969
    1C        C  656   2.555   3.248   4.014 -0.4252 -0.3255  0.3080
    1C        C  657   2.536   3.316   4.136  0.0763  0.2204  0.0786
    1C        C  658   2.611   3.123   4.259  0.2615  0.2379  0.4461
    1C        C  659   2.555   3.253   4.261  0.0758  0.1601  0.0431
    1C        C  660   2.642   3.057   4.380 -0.0859 -0.2940  0.2448
    1C        C  661   2.613   3.119   4.503 -0.5519 -0.1684  0.0700
    1C        C  662   2.714   2.935   4.625 -0.3212  0.1758  0.0777
    1C        C  663   2.635   3.052   4.626  0.0500  0.4200  0.2857
    1C        C  664   2.753   2.878   4.748 -0.1497 -0.3293 -0.2109
    1C        C  665   2.706   2.938   4.868 -0.1922 -0.3294 -0.2311
    1C        C  666   2.752   2.873   4.983 -0.0877 -0.1894 -0.1969
    1C        C  667   2.678   4.028   2.059 -0.4825 -0.0578  0.1882
    1C        C  668   2.677   4.108   2.173 -1.0227  0.5268 -0.2177
    1C        C  669   2.589   3.914   2.295  0.0084  0.5023  0.1435
    1C        C  670   2.637   4.048   2.294 -0.2698  0.6025  0.0770
    1C        C  671   2.560   3.847   2.416 -0.2270  0.4440  0.0571
    1C        C  672   2.578   3.922   2.535 -0.2090  0.0725  0.2915
    1C        C  673   2.520   3.718   2.661  0.3318 -0.0642 -0.2715
    1C        C  674   2.557   3.854   2.657 -0.2268  0.1108  0.3126
    1C        C  675   2.508   3.647   2.783  0.0945 -0.0660 -0.2917
    1C        C  676   2.530   3.717   2.903 -0.6631 -0.1173 -0.1192
    1C        C  677   2.507   3.511   3.029  0.1726  0.0119  0.2472
    1C        C  678   2.520   3.652   3.028 -0.3067  0.0580  0.0062
    1C        C  679   2.509   3.445   3.154 -0.1963 -0.0562  0.2195
    1C        C  680   2.508   3.517   3.276 -0.3951  0.1192  0.1193
    1C        C  681   2.537   3.310   3.401  0.0269  0.0907  0.3539
    1C        C  682   2.515   3.449   3.400  0.2766  0.1306  0.0977
    1C        C  683   2.556   3.245   3.525  0.4290 -0.0670  0.2134
    1C        C  684   2.541   3.314   3.647 -0.4337 -0.0660  0.1176
    1C        C  685   2.607   3.114   3.769 -0.5277  0.0582  0.0644
    1C        C  686   2.551   3.244   3.770  0.1626  0.3610  0.3211
    1C        C  687   2.642   3.055   3.892  0.4323  0.1772 -0.1424
    1C        C  688   2.610   3.118   4.014  0.3099 -0.0160 -0.0743
    1C        C  689   2.719   2.939   4.137 -0.2009  0.4032  0.3505
    1C        C  690   2.642   3.058   4.138 -0.3664  0.2929  0.2548
    1C        C  691   2.767   2.885   4.259 -0.1268 -0.1623  0.0690
    1C        C  692   2.720   2.940   4.380  0.1397 -0.1396  0.1571
    1C        C  693   2.758   2.880   4.502 -0.4560 -0.3150  0.2522
    1C        C  694   2.627   3.897   2.057 -0.0656 -0.2224  0.0803
    1C        C  695   2.530   3.708   2.178  0.4982  0.0532  0.0266
    1C        C  696   2.574   3.842   2.175 -0.0738  0.2503  0.3034
    1C        C  697   2.509   3.637   2.298  0.6344  0.0476  0.0469
    1C        C  698   2.522   3.711   2.417  0.9153  0.1147 -0.0258
    1C        C  699   2.499   3.504   2.542  0.8784 -0.2161  0.1434
    1C        C  700   2.506   3.645   2.541  0.6745 -0.2069 -0.2282
    1C        C  701   2.499   3.434   2.665  0.3638 -0.0973  0.2175
    1C        C  702   2.505   3.506   2.786 -0.0879 -0.0540  0.2190
    1C        C  703   2.532   3.298   2.910 -0.0734 -0.1061 -0.0007
    1C        C  704   2.506   3.437   2.909  0.4219 -0.0059  0.2501
    1C        C  705   2.547   3.234   3.035 -0.2973  0.0123  0.0923
    1C        C  706   2.533   3.306   3.156  0.2289  0.0137  0.1596
    1C        C  707   2.604   3.110   3.281  0.2921  0.1802  0.4950
    1C        C  708   2.550   3.240   3.280  0.6163  0.3191  0.2778
    1C        C  709   2.645   3.051   3.403  0.1095 -0.3924  0.2905
    1C        C  710   2.606   3.113   3.524 -0.0223 -0.2423  0.1757
    1C        C  711   2.716   2.934   3.649 -0.5639 -0.5192  0.1478
    1C        C  712   2.637   3.050   3.647  0.2294  0.0355  0.2559
    1C        C  713   2.757   2.875   3.771  0.0289  0.0031  0.2074
    1C        C  714   2.711   2.932   3.892  0.3271  0.1167  0.2668
    1C        C  715   2.759   2.882   4.015  0.0989  0.3821  0.4623
    1C        C  716   2.457   3.496   2.060 -0.2686  0.3561  0.2199
    1C        C  717   2.508   3.627   2.066  0.4444  0.0912  0.0105
    1C        C  718   2.468   3.420   2.181  0.4969  0.0970 -0.0073
    1C        C  719   2.487   3.496   2.300  0.3517  0.0925  0.0177
    1C        C  720   2.515   3.288   2.427  0.0784 -0.0102  0.0586
    1C        C  721   2.495   3.428   2.423  0.5170  0.0498 -0.0173
    1C        C  722   2.545   3.223   2.548  0.1198  0.1691  0.1455
    1C        C  723   2.525   3.295   2.667  1.0099  0.0186  0.3969
    1C        C  724   2.588   3.093   2.793  0.3796 -0.3147  0.0957
    1C        C  725   2.540   3.226   2.789 -0.4235 -0.5894  0.2555
    1C        C  726   2.627   3.035   2.916  1.2300  0.2912  0.1248
    1C        C  727   2.606   3.106   3.037 -0.0315  0.1275  0.0232
    1C        C  728   2.710   2.924   3.160 -0.5146  0.1726  0.2138
    1C        C  729   2.636   3.044   3.160  0.2323  0.6410  0.2234
    1C        C  730   2.758   2.871   3.282  0.0723 -0.3104 -0.2139
    1C        C  731   2.723   2.933   3.404  0.0605 -0.4339 -0.1498
    1C        C  732   2.768   2.882   3.528 -0.0427  0.0811  0.1067
    1C        C  733   2.485   3.195   2.072 -0.3782  0.0415 -0.0953
    1C        C  734   2.493   3.279   2.183  0.6050  0.1134 -0.2198
    1C        C  735   2.573   3.082   2.306  0.3270  0.2072  0.3462
    1C        C  736   2.522   3.214   2.307  0.5990  0.3152 -0.1122
    1C        C  737   2.618   3.023   2.427  0.1975 -0.2164  0.1898
    1C        C  738   2.595   3.091   2.548  0.8426  0.4371 -0.0436
    1C        C  739   2.697   2.909   2.671  0.9812  0.4432 -0.1620
    1C        C  740   2.624   3.029   2.672  0.1475 -0.0512 -0.1166
    1C        C  741   2.738   2.852   2.794  0.5884  0.2938 -0.0937
    1C        C  742   2.702   2.916   2.914  0.6232 -0.1000  0.1322
    1C        C  743   2.750   2.866   3.038  0.1959  0.1962  0.4240
    1C        C  744   2.547   3.071   2.070 -0.3709  0.0409  0.2318
    1C        C  745   2.684   2.899   2.188 -0.0412  0.3221  0.1618
    1C        C  746   2.598   3.011   2.186 -0.1688  0.2220  0.2367
    1C        C  747   2.735   2.845   2.308  0.3666  0.0112 -0.1529
    1C        C  748   2.692   2.903   2.429  0.6041  0.0287 -0.0770
    1C        C  749   2.739   2.849   2.550  0.2820 -0.2425 -0.0736
    1C        C  750   2.729   2.836   2.071 -0.3310  0.6372 -0.1208
    1C        C  751   3.656   2.318   1.975  0.1147  0.1516  0.1033
    1C        O  752   3.682   2.199   2.004 -0.3786  0.1001  0.3472
    1C        O  753   3.678   2.358   1.842 -0.1936 -0.4516 -0.1293
    1C        C  754   4.621   3.044   1.979  0.5779  0.4105 -0.1804
    1C        O  755   4.594   3.023   1.857  0.5135  0.2531 -0.1393
    1C        O  756   4.757   3.076   1.981  0.6955 -0.0794 -0.1813
    1C        C  757   4.472   4.224   1.986 -0.1212  0.2395 -0.2268
    1C        O  758   4.593   4.250   2.006 -0.1992  0.4427 -0.0136
    1C        O  759   4.462   4.237   1.847 -0.2513 -0.2669 -0.2706
    1C        C  760   3.583   4.653   1.931 -0.5873  0.1767 -0.3043
    1C        O  761   3.649   4.760   1.935 -0.1500 -0.1006 -0.0202
    1C        O  762   3.581   4.596   1.803 -0.3057 -0.2892 -0.1071
    1C        C  763   2.867   4.515   1.983  0.2443  0.3925  0.1761
    1C        O  764   2.890   4.535   1.861  0.3750 -0.0444  0.1282
    1C        O  765   2.764   4.598   2.028  0.2184  0.4878 -0.0553
    1C        C  766   2.347   3.487   1.962  0.0535  0.6668 -0.1782
    1C        O  767   2.380   3.455   1.845  0.1044  0.6584 -0.1615
    1C        O  768   2.221   3.438   2.002  0.4483  0.0770  0.3640
    1C        C  769   4.704   3.587   5.040 -0.1496  0.0511 -0.1331
    1C        O  770   4.701   3.603   5.165 -0.0528 -0.4260 -0.0675
    1C        O  771   4.833   3.594   4.985 -0.2821 -0.2074 -0.4781
    1C        C  772   4.279   4.465   5.028 -0.3252 -0.0467  0.0647
    1C        O  773   4.274   4.443   5.152 -0.2319  0.4712  0.1595
    1C        O  774   4.341   4.587   4.999  0.1641 -0.2716  0.1481
    1C        C  775   4.143   2.514   5.072  0.2387  0.0346  0.0815
    1C        O  776   4.228   2.423   5.047  0.2228  0.1785 -0.5231
    1C        O  777   4.128   2.555   5.204  0.1006  0.2361  0.0033
    1C        C  778   2.911   4.522   5.076  0.1616  0.2679 -0.2483
    1C        O  779   2.866   4.639   5.062 -0.2927  0.0844 -0.3507
    1C        O  780   2.986   4.482   5.187 -0.4072 -0.1598 -0.0190
    1C        C  781   2.462   3.047   5.064  0.5469 -0.2191  0.3482
    1C        O  782   2.360   2.997   5.009  0.6546 -0.2031  0.1340
    1C        O  783   2.441   3.061   5.201 -0.2368 -0.3549  0.2491
    1C        C  784   2.420   3.998   5.056 -0.0492 -0.4700  0.5090
    1C        O  785   2.303   3.973   5.017  0.0853  0.2228 -0.3634
    1C        O  786   2.429   4.007   5.195 -0.0776 -0.0555  0.4862
    1C        C  787   2.953   2.440   1.980 -0.2926  0.0668 -0.4278
    1C        O  788   2.921   2.491   1.870 -0.2707  0.2383 -0.3562
    1C        O  789   2.919   2.305   1.985  0.6876 -0.1645  0.3419
    1C        C  790   3.167   2.357   5.037  0.1017  0.0866  0.2542
    1C        O  791   3.121   2.266   4.962 -0.1268  0.3342  0.0954
    1C        O  792   3.233   2.320   5.155 -0.1498 -0.5966  0.1855
    1C        H  793   4.327   2.995   5.067 -0.0824  1.2651 -0.3387
    1C        H  794   4.120   2.864   5.038 -0.0986  1.8488  0.4248
    1C        H  795   4.510   3.126   5.055 -0.7270 -0.8345 -0.6878
    1C        H  796   4.486   3.378   5.056  0.7892  0.7344 -0.4557
    1C        H  797   4.563   3.815   5.044  0.1625  1.8639 -0.3820
    1C        H  798   4.384   3.959   5.052  1.3352  0.3449  0.2616
    1C        H  799   4.274   4.165   5.045  0.8186 -0.8189  0.9476
    1C        H  800   4.049   4.563   5.007  0.3641 -0.1698  0.2962
    1C        H  801   3.816   4.593   5.042 -1.1157 -1.3072  1.2752
    1C        H  802   3.596   4.667   5.013 -0.1253  0.7334 -0.8911
    1C        H  803   3.395   4.493   5.048 -1.2591 -1.9881  0.6564
    1C        H  804   3.161   4.553   5.044 -1.5070 -0.6034 -1.2611
    1C        H  805   3.888   2.485   5.067  1.1276 -0.9083  0.0669
    1C        H  806   3.678   2.421   5.063  0.3237 -0.6911  0.0989
    1C        H  807   3.029   2.588   5.074 -1.7834 -3.4119  0.0475
    1C        H  808   3.446   2.502   5.074 -0.5683 -1.2793  0.2660
    1C        H  809   2.854   2.708   5.071  1.7850 -0.4788 -0.4554
    1C        H  810   2.684   2.867   5.065  0.5681  1.0777  0.4689
    1C        H  811   2.519   3.293   5.078  1.8133 -1.0365  0.6418
    1C        H  812   2.539   3.499   5.072  1.0135 -1.1214 -0.8309
    1C        H  813   2.505   3.739   5.067 -4.1581 -0.2224 -0.0139
    1C        H  814   2.582   4.179   5.041 -0.4443 -0.4174 -0.0644
    1C        H  815   2.731   4.340   5.041  1.3170 -3.5874  1.7891
    1C        H  816   2.675   2.859   1.981  0.4516  1.4193 -0.4050
    1C        H  817   2.807   2.657   1.994  0.1723  0.1636  0.0001
    1C        H  818   3.203   2.411   1.998  0.4851  1.2148 -0.7612
    1C        H  819   3.437   2.470   1.977 -0.2988  2.7723  1.0090
    1C        H  820   3.859   2.513   1.970  0.2110  0.0891 -0.1492
    1C        H  821   4.039   2.673   1.976  0.6726  1.4079  0.8221
    1C        H  822   4.271   2.705   1.982 -0.1515 -0.6586  0.4348
    1C        H  823   4.367   2.924   1.963  0.5087  0.1168  0.2858
    1C        H  824   4.607   3.303   1.974 -0.9856  0.9606 -0.6197
    1C        H  825   4.508   3.510   1.956 -1.4349 -0.8473  0.6158
    1C        H  826   4.513   3.750   1.954 -1.6309 -0.7986 -1.0439
    1C        H  827   3.819   4.564   1.974 -0.2725  0.1428  0.4768
    1C        H  828   3.957   4.371   1.945 -0.3908 -0.6393  0.1834
    1C        H  829   4.190   4.294   1.949  1.5229 -0.4755  1.6860
    1C        H  830   4.461   3.952   1.955  1.4048  0.0775  0.5051
    1C        H  831   2.668   3.837   1.979  0.0006  0.0498 -0.0962
    1C        H  832   2.671   4.080   1.966  2.0483 -1.4764 -0.9230
    1C        H  833   2.700   4.330   1.992  0.8555  0.1373 -1.7783
    1C        H  834   3.386   4.415   1.974  0.1191 -0.6179  0.1962
    1C        H  835   3.154   4.402   1.955  1.3644  0.0102 -0.3771
    1C        H  836   2.583   3.034   1.976  0.5629 -1.2582  1.0621
    1C        H  837   2.409   3.203   1.997  0.8811  0.0025 -1.4123
    1C        H  838   2.508   3.673   1.969  0.1025 -0.1464 -0.1055
    2V3OU   H29  839   2.811   3.549   0.696 -0.1008  1.9221  1.2690
    2V3OU   C27  840   2.776   3.502   0.791  0.0103 -0.3451  0.2676
    2V3OU   H27  841   2.717   3.576   0.851 -1.2951 -1.5094  0.4798
    2V3OU   H28  842   2.737   3.399   0.773  1.7846 -1.5520  2.6193
    2V3OU   O11  843   2.904   3.480   0.852  0.3109 -0.1653 -0.2950
    2V3OU   C15  844   2.920   3.400   0.963 -0.0084  0.6181  0.3249
    2V3OU   C13  845   3.052   3.371   1.003 -0.0486 -0.0986 -0.0440
    2V3OU   C14  846   3.081   3.262   1.086 -0.1778  0.2659  0.4850
    2V3OU   C16  847   2.976   3.183   1.133 -0.2963 -0.0555 -0.3132
    2V3OU    H6  848   2.989   3.099   1.203 -0.5753  0.0854 -0.0943
    2V3OU   C12  849   3.214   3.231   1.143  0.1634 -0.4078 -0.6496
    2V3OU    O2  850   3.235   3.141   1.227  0.2295  0.1663 -0.0383
    2V3OU   C10  851   3.328   3.313   1.098 -0.0473  0.4815  0.3906
    2V3OU    C8  852   3.457   3.270   1.124 -0.2607 -0.0697  0.5665
    2V3OU   O10  853   3.488   3.159   1.196  0.1859  0.0444  0.5561
    2V3OU   H26  854   3.407   3.114   1.223  1.0393 -1.3416  0.9009
    2V3OU    C6  855   3.567   3.348   1.073 -0.3648 -0.3968 -0.1738
    2V3OU    C5  856   3.538   3.462   0.999  0.1694 -0.0193  0.1927
    2V3OU    C4  857   3.706   3.295   1.081 -0.1658  0.1415 -0.0184
    2V3OU    H4  858   3.725   3.234   1.175 -1.1352  0.4943  0.4238
    2V3OU    H5  859   3.714   3.226   0.992 -0.1828  0.6846 -0.4397
    2V3OU    C2  860   3.816   3.400   1.071  0.2723 -0.2813  0.2592
    2V3OU    O6  861   3.817   3.479   1.191  0.3935 -0.0129  0.0820
    2V3OU   H21  862   3.768   3.560   1.169 -1.0359 -0.1972  2.3196
    2V3OU    C3  863   3.785   3.491   0.952  0.6609  0.2752  0.5747
    2V3OU    H2  864   3.865   3.569   0.953  0.9744 -0.0489  1.2677
    2V3OU    H3  865   3.787   3.441   0.852 -0.6102  0.6528  0.3370
    2V3OU   C25  866   3.949   3.327   1.057  0.4831  0.1560 -0.0664
    2V3OU    O7  867   3.991   3.294   0.946 -0.3946 -0.1489 -0.3171
    2V3OU   C26  868   4.030   3.285   1.179 -0.2260  0.1877  0.4213
    2V3OU   H22  869   4.059   3.381   1.228 -0.0531 -0.1212  0.9286
    2V3OU   H23  870   4.114   3.218   1.147 -0.9642 -0.8928  0.6851
    2V3OU    O8  871   3.964   3.206   1.275  0.6116  0.4954  1.2690
    2V3OU   H24  872   3.927   3.259   1.348  0.8371  0.2699  1.5474
    2V3OU    C1  873   3.649   3.558   0.970  0.2523 -0.2748 -0.3494
    2V3OU    H1  874   3.626   3.614   0.875 -0.5970 -0.9298 -0.5399
    2V3OU    O3  875   3.659   3.653   1.077  0.0202  0.0549 -0.6196
    2V3OU   C19  876   3.620   3.789   1.063  0.3651  0.1950 -0.2355
    2V3OU    H9  877   3.523   3.795   1.004 -0.0257 -0.8980  0.2750
    2V3OU    O4  878   3.710   3.851   0.974 -0.3166  0.2994 -0.8611
    2V3OU   C20  879   3.844   3.874   1.016 -0.5297 -0.0264  0.0028
    2V3OU   H10  880   3.887   3.770   1.034 -2.4095 -0.7461  0.5216
    2V3OU   C24  881   3.612   3.855   1.201 -0.0508  0.0119 -0.1714
    2V3OU   H16  882   3.548   3.790   1.267  0.3244 -0.4963 -0.2987
    2V3OU   H17  883   3.564   3.955   1.192 -1.1443 -0.2704  1.9383
    2V3OU   C23  884   3.755   3.875   1.251  0.0991  0.1064 -0.6322
    2V3OU   H15  885   3.801   3.773   1.274 -0.5757  0.2526  1.5902
    2V3OU    N1  886   3.744   3.954   1.372 -0.0237 -0.3908 -0.3147
    2V3OU   H19  887   3.812   3.930   1.441  1.8978  0.5322 -1.7816
    2V3OU   H20  888   3.659   3.925   1.417  0.4430 -0.6932  0.3776
    2V3OU   C21  889   3.849   3.948   1.150  1.0204 -0.1470  0.0329
    2V3OU   H11  890   3.956   3.938   1.187  0.7777  1.6956  1.3763
    2V3OU    O5  891   3.818   4.086   1.142  0.0363 -0.4060 -0.7253
    2V3OU   H18  892   3.768   4.101   1.224  0.8908 -0.5896 -0.1640
    2V3OU   C22  893   3.915   3.952   0.907 -0.3921  0.0536  0.1491
    2V3OU   H12  894   3.867   4.053   0.896  1.6637  1.0730  0.0585
    2V3OU   H13  895   3.910   3.894   0.811  0.1232 -1.4323  0.9910
    2V3OU   H14  896   4.025   3.958   0.930 -0.5710 -1.1979  1.4734
    2V3OU   C11  897   3.159   3.469   0.981  0.0440 -0.2803 -0.4282
    2V3OU    O1  898   3.136   3.583   0.935  0.0747  0.1203  0.5144
    2V3OU    C9  899   3.296   3.424   1.015  0.1154  0.2765  0.0466
    2V3OU    C7  900   3.403   3.500   0.969  0.2239  0.3102  0.3492
    2V3OU    O9  901   3.386   3.627   0.918  0.0442  0.3238  0.4384
    2V3OU   H25  902   3.289   3.632   0.917  0.0596  0.5255 -0.1302
    2V3OU   C17  903   2.816   3.325   1.022 -0.0312  0.2959 -0.1160
    2V3OU    H7  904   2.711   3.340   0.997 -0.6767 -0.5077  1.8706
    2V3OU   C18  905   2.844   3.217   1.106 -0.2606  0.0585 -0.3436
    2V3OU    H8  906   2.763   3.148   1.131  0.3050 -0.8709 -1.0148
    3SOL     OW  907   0.741   4.486   1.467  0.0838  0.7553 -0.3499
    3SOL    HW1  908   0.711   4.517   1.557  0.0719  1.4651 -0.5877
    3SOL    HW2  909   0.662   4.481   1.406 -0.4006 -2.3954  0.3740
    4SOL     OW  910   6.295   2.559   2.729 -0.4019  0.1907  0.4706
    4SOL    HW1  911   6.380   2.553   2.676 -0.0276 -1.2467  1.1696
    4SOL    HW2  912   6.218   2.541   2.668 -0.1042  0.1312  0.1011
    5SOL     OW  913   3.036   1.876   0.978  0.5334  0.5968  0.5774
    5SOL    HW1  914   3.046   1.946   0.907  0.4734  1.3516  1.3035
    5SOL    HW2  915   2.979   1.802   0.944  0.3868  1.0205 -0.1168
    6SOL     OW  916   3.639   2.560   0.909 -1.1606 -0.0974 -0.3529
    6SOL    HW1  917   3.586   2.625   0.854 -0.0522  0.7917 -0.3895
    6SOL    HW2  918   3.698   2.506   0.849 -2.4927 -1.5975 -0.3950
    7SOL     OW  919   4.887   1.065   1.173  0.2506  0.1603 -0.1057
    7SOL    HW1  920   4.975   1.079   1.128  0.3980  2.0925  0.6876
    7SOL    HW2  921   4.825   1.017   1.110  2.0912 -2.0958 -0.3471
    8SOL     OW  922   2.362   1.851   4.046  0.5607  0.1057 -0.2382
    8SOL    HW1  923   2.268   1.883   4.046  0.0742 -1.2477  0.0122
    8SOL    HW2  924   2.386   1.817   4.137  1.1673  0.0817 -0.3990
    9SOL     OW  925   5.463   4.332   5.619  0.3218 -0.8113 -0.0521
    9SOL    HW1  926   5.509   4.388   5.688  1.4520  0.3423 -1.6694
    9SOL    HW2  927   5.461   4.381   5.532 -0.1428 -2.6300 -1.1181
   10SOL     OW  928   0.509   5.034   2.670 -0.3047  0.3542 -0.3841
   10SOL    HW1  929   0.561   5.110   2.710  0.7541 -0.3791 -0.3059
   10SOL    HW2  930   0.486   4.968   2.742  1.7398 -1.0513 -0.9194
   11SOL     OW  931   3.774   6.216   0.874  0.3634 -0.2765  0.1999
   11SOL    HW1  932   3.782   6.119   0.852  2.6060 -0.7151  2.4607
   11SOL    HW2  933   3.679   6.238   0.896 -0.4228 -1.5814 -1.6526
   12SOL     OW  934   6.465   0.260   1.787 -0.1343  0.3178  0.2673
   12SOL    HW1  935   6.487   0.211   1.702 -1.7006 -0.6720  0.3769
   12SOL    HW2  936   6.421   0.196   1.851 -2.3369  1.8615  0.3873
   13SOL     OW  937   0.133   0.993   1.560  0.1473 -0.4517 -0.2795
   13SOL    HW1  938   0.173   1.084   1.550  1.4441 -1.0586 -0.7626
   13SOL    HW2  939   0.144   0.942   1.475 -0.9077 -0.9447 -0.1366
   14SOL     OW  940   3.392   6.902   6.937  0.2374 -0.3455 -0.3222
   14SOL    HW1  941   3.461   6.878   7.005 -0.3273 -1.5050 -0.1391
   14SOL    HW2  942   3.314   6.840   6.945 -0.5599  0.5464 -0.9376
   15SOL     OW  943   3.971   5.190   0.786  0.3091  0.1668  0.1796
   15SOL    HW1  944   3.955   5.187   0.884 -0.5589 -0.2098  0.0376
   15SOL    HW2  945   3.991   5.284   0.758 -0.1100  0.3875  0.6187
   16SOL     OW  946   6.770   0.875   0.463  0.2685 -0.1307  0.8532
   16SOL    HW1  947   6.829   0.831   0.532  1.0611 -0.9558 -0.3191
   16SOL    HW2  948   6.802   0.851   0.372 -0.6542  1.1118  0.1809
   17SOL     OW  949   2.715   5.396   4.901  0.4928 -0.5646 -0.4228
   17SOL    HW1  950   2.636   5.336   4.906  0.4640 -0.4575  0.6574
   17SOL    HW2  951   2.797   5.342   4.879 -0.0308 -0.5050 -2.8432
   18SOL     OW  952   2.593   4.850   0.354  0.2887 -0.3736 -0.7356
   18SOL    HW1  953   2.553   4.772   0.306 -0.3684 -0.7016  0.2972
   18SOL    HW2  954   2.660   4.817   0.420 -0.8242 -0.1966  0.5270
   19SOL     OW  955   1.938   7.003   1.418 -0.4762  0.4396  0.0694
   19SOL    HW1  956   1.856   7.046   1.457 -0.1790  1.6132 -0.5353
   19SOL    HW2  957   2.007   6.991   1.490 -0.5168  1.1321  0.2362
   20SOL     OW  958   3.823   1.164   4.836 -0.2124  0.3243 -0.0798
   20SOL    HW1  959   3.820   1.239   4.770 -1.9432  0.9452  0.6475
   20SOL    HW2  960   3.894   1.182   4.904  1.0864  0.0351 -1.3153
   21SOL     OW  961   2.701   5.361   1.350  0.2919  0.4089  0.0201
   21SOL    HW1  962   2.756   5.363   1.434  1.6076  1.3421 -0.8277
   21SOL    HW2  963   2.723   5.441   1.294  0.2310 -0.7353 -1.7161
   22SOL     OW  964   2.366   1.360   5.443 -0.5026 -0.1655  0.1477
   22SOL    HW1  965   2.337   1.415   5.364 -0.3490 -2.2176 -1.4391
   22SOL    HW2  966   2.310   1.383   5.522 -1.1903  1.4283 -0.7465
   23SOL     OW  967   2.678   0.103   3.824  0.6076 -0.7046  0.1863
   23SOL    HW1  968   2.694   0.040   3.748 -0.5788  1.1640 -1.7516
   23SOL    HW2  969   2.599   0.074   3.877  0.3205 -1.0544 -0.4313
   24SOL     OW  970   5.230   1.129   4.286 -0.5726  0.1161 -0.2064
   24SOL    HW1  971   5.251   1.122   4.189 -0.1651 -1.7856 -0.0243
   24SOL    HW2  972   5.223   1.225   4.312  0.6399  0.6864 -1.8242
   25SOL     OW  973   3.089   6.760   6.055  0.1296 -0.0478 -0.0906
   25SOL    HW1  974   3.183   6.735   6.033  0.4194  1.2843 -0.4551
   25SOL    HW2  975   3.087   6.816   6.137 -0.3372 -0.0454 -0.0992
   26SOL     OW  976   6.964   0.343   3.852 -0.0860  0.4610  0.0809
   26SOL    HW1  977   6.941   0.438   3.830 -0.9798 -0.1608 -1.8993
   26SOL    HW2  978   7.063   0.331   3.849  0.1229  1.5567  1.5055
   27SOL     OW  979   4.924   1.578   4.169  0.1495 -0.0249 -0.5984
   27SOL    HW1  980   4.952   1.664   4.213  2.6339 -0.2757 -1.4999
   27SOL    HW2  981   4.876   1.597   4.084 -2.3125  0.4393  0.8265
   28SOL     OW  982   4.453   6.759   6.807  0.3904  0.4331  0.4460
   28SOL    HW1  983   4.427   6.678   6.859  0.5079  0.1625  0.0858
   28SOL    HW2  984   4.415   6.841   6.851  0.6281  0.2264  1.0486
   29SOL     OW  985   5.413   2.250   0.832 -0.0779 -0.4170  0.1768
   29SOL    HW1  986   5.317   2.231   0.809  0.4521 -2.5913 -0.4289
   29SOL    HW2  987   5.431   2.221   0.926 -0.4080  1.7063  0.9658
   30SOL     OW  988   3.648   0.452   6.246  0.6298  0.1640 -0.0940
   30SOL    HW1  989   3.580   0.380   6.231  1.4119 -0.6382  0.1985
   30SOL    HW2  990   3.717   0.449   6.174  0.3252  1.0465 -0.4472
   31SOL     OW  991   3.510   1.971   5.958  0.0836 -0.3573 -0.6507
   31SOL    HW1  992   3.463   1.997   6.043 -0.9855  0.6222 -1.4979
   31SOL    HW2  993   3.568   2.047   5.927 -0.0613 -0.4411 -1.1422
   32SOL     OW  994   6.380   1.207   1.640 -0.6027 -0.9783 -0.8155
   32SOL    HW1  995   6.300   1.147   1.632  0.0150 -1.7654 -1.4100
   32SOL    HW2  996   6.420   1.219   1.549 -0.4811  0.0240 -0.6332
   33SOL     OW  997   0.875   0.824   3.128  0.0609 -0.1657  0.2578
   33SOL    HW1  998   0.945   0.831   3.199  0.0143  0.4115  0.2476
   33SOL    HW2  999   0.873   0.730   3.093  0.3371 -0.3620  0.7577
   34SOL     OW 1000   2.853   0.240   5.108 -0.4969 -0.3874 -0.0196
   34SOL    HW1 1001   2.841   0.306   5.182 -0.7031 -1.1575  0.6532
   34SOL    HW2 1002   2.831   0.284   5.021 -0.1826  0.5545  0.3602
   35SOL     OW 1003   3.915   3.558   6.000 -0.1380  0.1733 -0.7786
   35SOL    HW1 1004   3.889   3.596   6.089 -1.6816  0.2344 -1.2294
   35SOL    HW2 1005   3.843   3.577   5.933  1.0656  0.2630 -2.0907
   36SOL     OW 1006   5.867   3.824   5.367 -0.5750  0.4453  0.1295
   36SOL    HW1 1007   5.866   3.726   5.388 -2.3029  0.1670 -1.0492
   36SOL    HW2 1008   5.860   3.875   5.452 -0.2034 -0.4567  0.7265
   37SOL     OW 1009   5.727   4.883   0.859 -0.3991  0.0107  0.3495
   37SOL    HW1 1010   5.816   4.928   0.867 -0.5727 -0.0044  3.5383
   37SOL    HW2 1011   5.706   4.869   0.762  3.0615 -0.0745 -0.5281
   38SOL     OW 1012   1.987   0.920   1.892  0.0145  0.3896  0.4176
   38SOL    HW1 1013   1.915   0.989   1.897  0.9296  1.3601  0.4703
   38SOL    HW2 1014   1.989   0.868   1.978 -3.0017 -2.1637 -0.8651
   39SOL     OW 1015   6.981   2.541   5.972 -0.0816 -0.4598  0.1011
   39SOL    HW1 1016   6.957   2.626   5.926 -1.5015 -0.4217  0.8493
   39SOL    HW2 1017   6.944   2.463   5.921 -0.1961 -0.5263  0.2841
   40SOL     OW 1018   0.134   4.186   2.745 -0.2483 -0.2252  0.5945
   40SOL    HW1 1019   0.168   4.279   2.733 -1.7538  0.2857  0.0802
   40SOL    HW2 1020   0.211   4.123   2.753  0.7924  1.0362  0.8010
   41SOL     OW 1021   6.616   1.526   6.025 -0.1571 -0.2888  0.4876
   41SOL    HW1 1022   6.620   1.498   5.930 -0.5210 -0.1603  0.4308
   41SOL    HW2 1023   6.576   1.618   6.031  2.7637  1.0878  0.5024
   42SOL     OW 1024   5.190   6.835   0.596  0.0713 -0.0749  0.0222
   42SOL    HW1 1025   5.240   6.755   0.628 -0.7284  0.0747  1.7570
   42SOL    HW2 1026   5.186   6.903   0.670 -3.1301 -0.3100  0.1786
   43SOL     OW 1027   3.760   6.823   3.812  0.3915 -0.0240  0.0388
   43SOL    HW1 1028   3.738   6.910   3.769  0.6258 -0.5180 -1.1451
   43SOL    HW2 1029   3.691   6.755   3.787  0.2434 -0.1987  0.8961
   44SOL     OW 1030   0.782   2.796   0.349 -0.4960 -0.1344  0.3178
   44SOL    HW1 1031   0.695   2.845   0.344 -0.8240 -0.8579 -1.7433
   44SOL    HW2 1032   0.780   2.733   0.427 -2.1533 -0.7392 -0.1643
   45SOL     OW 1033   4.104   6.396   0.138 -0.1829 -0.7210 -0.4189
   45SOL    HW1 1034   4.189   6.450   0.140 -0.5685 -0.0975  2.1629
   45SOL    HW2 1035   4.121   6.311   0.088  1.7096 -0.2411 -0.6938
   46SOL     OW 1036   1.394   5.327   2.731  0.6530  0.0823 -0.4314
   46SOL    HW1 1037   1.430   5.284   2.813  1.0508  0.5459 -0.3598
   46SOL    HW2 1038   1.402   5.264   2.654  0.4735 -0.2729 -0.1649
   47SOL     OW 1039   0.222   5.755   1.518  0.4113 -0.1607 -0.3902
   47SOL    HW1 1040   0.244   5.741   1.422  1.1994 -0.9270 -0.1097
   47SOL    HW2 1041   0.256   5.845   1.547 -0.3925  0.3481 -0.9705
   48SOL     OW 1042   1.091   1.206   6.284  0.2153 -0.4144  0.0883
   48SOL    HW1 1043   1.035   1.265   6.343 -0.5975 -0.9409 -0.1420
   48SOL    HW2 1044   1.157   1.262   6.234 -1.6042  0.5340 -1.3472
   49SOL     OW 1045   5.364   2.911   0.246  0.1488  0.0909  0.4648
   49SOL    HW1 1046   5.273   2.953   0.232 -0.4023 -1.1037  0.3809
   49SOL    HW2 1047   5.401   2.882   0.158  0.1890 -0.2954  0.6105
   50SOL     OW 1048   6.236   3.965   5.258 -0.1621  0.3951  0.1676
   50SOL    HW1 1049   6.264   3.877   5.220 -2.4974 -1.4394  2.3133
   50SOL    HW2 1050   6.150   3.994   5.217  0.4713  1.6021 -0.3557
   51SOL     OW 1051   5.087   6.172   2.132 -0.2880  0.7484  0.1952
   51SOL    HW1 1052   5.038   6.122   2.060 -1.7124  0.3542  1.3894
   51SOL    HW2 1053   5.153   6.112   2.176 -1.9284 -0.1231  1.5636
   52SOL     OW 1054   6.030   1.289   2.068 -0.4368  0.4607  0.5833
   52SOL    HW1 1055   6.124   1.275   2.039 -0.4075  1.9630 -0.1358
   52SOL    HW2 1056   6.015   1.386   2.088 -1.5171  0.0628  1.8618
   53SOL     OW 1057   5.048   0.173   2.100  0.1304  0.8703 -0.1071
   53SOL    HW1 1058   4.964   0.226   2.092 -0.5030  0.1729  1.6345
   53SOL    HW2 1059   5.126   0.236   2.107 -0.2199  1.5201 -1.6262
   54SOL     OW 1060   4.132   6.146   7.018 -0.1321  0.2067 -0.5793
   54SOL    HW1 1061   4.216   6.094   7.003 -0.1459  0.7450 -2.8605
   54SOL    HW2 1062   4.057   6.084   7.042  0.3639 -0.5596 -0.9772
   55SOL     OW 1063   4.419   2.140   1.901  0.1551 -0.0125 -0.2108
   55SOL    HW1 1064   4.489   2.114   1.967  1.1073 -1.5406 -1.7311
   55SOL    HW2 1065   4.340   2.081   1.911  1.2644 -1.9522 -1.9142
   56SOL     OW 1066   0.355   3.806   1.890  0.0625 -0.3964 -0.3541
   56SOL    HW1 1067   0.333   3.713   1.860 -1.2674 -0.1999 -0.0573
   56SOL    HW2 1068   0.349   3.811   1.990 -0.4718  0.1496 -0.4114
   57SOL     OW 1069   0.146   0.356   6.899  0.2073 -0.4395 -0.0053
   57SOL    HW1 1070   0.140   0.263   6.935 -0.3303 -0.1636  0.6391
   57SOL    HW2 1071   0.105   0.359   6.808  1.8824 -1.2178 -0.8231
   58SOL     OW 1072   6.406   1.219   0.881  0.8007 -0.1782 -0.5123
   58SOL    HW1 1073   6.443   1.183   0.796 -0.8239 -1.6821 -0.6545
   58SOL    HW2 1074   6.463   1.188   0.958  1.0796 -0.6226 -0.8923
   59SOL     OW 1075   6.892   6.022   5.737  0.1094 -0.3595 -0.7127
   59SOL    HW1 1076   6.965   5.960   5.708  0.9696  1.0044 -1.5506
   59SOL    HW2 1077   6.859   6.075   5.659 -1.6926 -0.8307 -0.3200
   60SOL     OW 1078   3.603   6.573   3.440  0.1197  0.2257  0.2378
   60SOL    HW1 1079   3.553   6.560   3.355 -0.7664 -0.3979  0.8268
   60SOL    HW2 1080   3.574   6.503   3.506  0.9652  0.5460  0.9635
   61SOL     OW 1081   3.264   6.642   4.320 -0.5255  0.0122  0.2775
   61SOL    HW1 1082   3.289   6.719   4.379  0.1570 -1.0464  1.4422
   61SOL    HW2 1083   3.254   6.560   4.376  0.2557 -1.0652 -1.1021
   62SOL     OW 1084   3.448   0.820   3.868 -0.4460 -0.3289 -0.0586
   62SOL    HW1 1085   3.491   0.898   3.824  1.5194 -0.4672  1.4924
   62SOL    HW2 1086   3.442   0.744   3.804  0.3777  0.1423 -0.6997
   63SOL     OW 1087   6.271   3.658   3.806  0.0151 -0.0935  0.1717
   63SOL    HW1 1088   6.351   3.652   3.746 -1.1748  1.6326 -1.7173
   63SOL    HW2 1089   6.302   3.683   3.898  1.7096 -0.3225 -0.2884
   64SOL     OW 1090   1.606   2.243   6.388 -0.2108 -0.2392  0.3507
   64SOL    HW1 1091   1.685   2.295   6.419  0.5127 -1.0994  0.0073
   64SOL    HW2 1092   1.590   2.261   6.291 -0.6470  0.1841  0.4966
   65SOL     OW 1093   1.735   2.685   3.926  0.1607  0.0192 -0.5273
   65SOL    HW1 1094   1.818   2.690   3.982 -0.3451  2.0311  0.1406
   65SOL    HW2 1095   1.756   2.642   3.838  2.0002  0.7634 -0.4884
   66SOL     OW 1096   2.234   0.232   1.746 -0.2690 -0.2206  0.0559
   66SOL    HW1 1097   2.158   0.292   1.769 -0.1319 -0.1084  0.2143
   66SOL    HW2 1098   2.292   0.276   1.677  0.6854  0.4907  1.2711
   67SOL     OW 1099   5.945   4.314   4.077  0.0581  0.1040 -0.2173
   67SOL    HW1 1100   5.858   4.364   4.072 -0.6277 -0.9058  1.1171
   67SOL    HW2 1101   5.943   4.250   4.153  2.6444  1.2580  0.9629
   68SOL     OW 1102   4.746   2.565   6.145  0.4013  0.3977 -0.0460
   68SOL    HW1 1103   4.655   2.604   6.160  0.5125  0.3996  0.6854
   68SOL    HW2 1104   4.800   2.575   6.229  1.3310  1.0670 -0.7070
   69SOL     OW 1105   0.821   3.184   5.658 -0.5509 -0.2555  0.2500
   69SOL    HW1 1106   0.786   3.252   5.722 -3.4763 -0.7197 -0.7032
   69SOL    HW2 1107   0.900   3.137   5.698 -1.4462  0.3639  2.9297
   70SOL     OW 1108   6.132   1.834   4.152 -0.2802 -0.0216 -0.2189
   70SOL    HW1 1109   6.085   1.808   4.236 -1.6741 -1.1935 -1.3273
   70SOL    HW2 1110   6.134   1.757   4.088  3.3906 -0.1411 -0.1907
   71SOL     OW 1111   2.245   4.181   3.155 -0.1710 -0.3415  0.1410
   71SOL    HW1 1112   2.252   4.085   3.125 -1.1715 -0.9400  1.6756
   71SOL    HW2 1113   2.308   4.196   3.231  0.1165  0.3000 -0.2116
   72SOL     OW 1114   4.861   6.115   3.886 -0.6360 -0.4025  0.0378
   72SOL    HW1 1115   4.931   6.107   3.957 -0.8215  0.1585  0.2872
   72SOL    HW2 1116   4.773   6.083   3.922 -0.5156 -1.1232 -0.2802
   73SOL     OW 1117   3.511   3.347   0.007  0.6126 -0.3988  0.0741
   73SOL    HW1 1118   3.494   3.375  -0.088  0.9458  1.2616  0.4714
   73SOL    HW2 1119   3.430   3.302   0.043 -0.0493  0.2587 -0.5566
   74SOL     OW 1120   2.958   1.371   5.102  0.2386 -0.0528 -0.0511
   74SOL    HW1 1121   3.017   1.357   5.181 -0.2830 -1.0413  0.1911
   74SOL    HW2 1122   2.892   1.296   5.096 -0.7332  0.8082 -0.5434
   75SOL     OW 1123   2.300   5.033   6.140  0.6158  0.0748  0.0330
   75SOL    HW1 1124   2.204   5.057   6.155  1.0420  2.0370 -0.0929
   75SOL    HW2 1125   2.306   4.965   6.067 -0.8067 -2.0464  1.7789
   76SOL     OW 1126   3.544   1.568   5.919  0.4067 -0.1335  0.0964
   76SOL    HW1 1127   3.602   1.498   5.877  0.5940  0.7839 -1.2400
   76SOL    HW2 1128   3.498   1.620   5.847 -1.5787 -0.3988  1.0984
   77SOL     OW 1129   6.897   5.167   0.415 -0.5844  0.7164 -0.6733
   77SOL    HW1 1130   6.944   5.207   0.494  1.6664 -1.3105 -0.8702
   77SOL    HW2 1131   6.907   5.068   0.417 -2.4106  0.4391 -2.3610
   78SOL     OW 1132   0.227   0.121   0.068 -0.8460 -0.0689 -0.3187
   78SOL    HW1 1133   0.228   0.092   0.164  2.2133  0.3058 -0.1470
   78SOL    HW2 1134   0.183   0.050   0.013 -1.1277 -1.0832  1.1539
   79SOL     OW 1135   4.777   6.340   6.919  0.0333  1.0084 -0.1437
   79SOL    HW1 1136   4.815   6.430   6.940 -0.3714  1.4734 -1.2882
   79SOL    HW2 1137   4.801   6.315   6.825 -1.9854  1.0890 -0.7426
   80SOL     OW 1138   5.358   2.049   3.594  0.4056  0.3172  0.0370
   80SOL    HW1 1139   5.436   2.077   3.539  1.2009 -1.4828  0.1774
   80SOL    HW2 1140   5.294   1.996   3.538 -0.8652  1.9352 -0.1267
   81SOL     OW 1141   1.364   6.896   3.157 -0.4045 -0.4875  0.6908
   81SOL    HW1 1142   1.303   6.819   3.173  2.2287 -2.8917 -0.1246
   81SOL    HW2 1143   1.423   6.877   3.078  0.1719  2.5289  0.2647
   82SOL     OW 1144   5.765   4.235   6.700  0.9608 -0.2383 -0.1159
   82SOL    HW1 1145   5.832   4.261   6.769 -1.0031 -1.3399  2.3782
   82SOL    HW2 1146   5.778   4.138   6.678 -1.3608 -1.2783  2.5072
   83SOL     OW 1147   4.565   0.985   5.405 -0.0622  0.6319 -0.6199
   83SOL    HW1 1148   4.599   0.900   5.444 -0.4327  0.8915  0.2836
   83SOL    HW2 1149   4.467   0.992   5.419 -0.0378  1.2065 -0.6955
   84SOL     OW 1150   6.594   1.686   3.300  0.4936  0.7562 -0.5422
   84SOL    HW1 1151   6.519   1.622   3.286 -1.1606  2.6965 -1.0779
   84SOL    HW2 1152   6.632   1.673   3.392 -0.2481 -0.5099 -0.3914
   85SOL     OW 1153   0.748   6.583   5.872 -0.0688 -0.4878 -0.2580
   85SOL    HW1 1154   0.671   6.526   5.902 -0.7472 -0.2214 -1.4346
   85SOL    HW2 1155   0.834   6.538   5.898 -0.5984 -1.3829  0.0207
   86SOL     OW 1156   1.966   6.920   4.437 -0.7302  0.0405 -0.1911
   86SOL    HW1 1157   1.897   6.865   4.391 -0.9952  1.1586 -1.1841
   86SOL    HW2 1158   1.930   7.011   4.456  0.1118  0.2972  0.2588
   87SOL     OW 1159   4.427   0.679   1.862  0.2321  0.0183  0.2413
   87SOL    HW1 1160   4.433   0.605   1.795 -1.0036  0.6881 -0.6494
   87SOL    HW2 1161   4.332   0.710   1.869  0.4518  0.4092  1.8358
   88SOL     OW 1162   6.586   1.837   2.062 -0.2561  0.6863  1.0316
   88SOL    HW1 1163   6.563   1.881   2.149 -1.8444 -0.2178  1.0922
   88SOL    HW2 1164   6.537   1.882   1.987 -1.7793 -0.7943  1.0752
   89SOL     OW 1165   2.870   2.265   4.883 -0.6066  0.0466  0.1978
   89SOL    HW1 1166   2.968   2.267   4.903 -0.4605 -0.2706 -0.4469
   89SOL    HW2 1167   2.820   2.308   4.958 -0.0650 -0.7637  1.0410
   90SOL     OW 1168   0.153   0.995   4.294 -0.3193  0.3206 -0.0459
   90SOL    HW1 1169   0.142   1.069   4.228  0.5539 -1.0921 -1.8461
   90SOL    HW2 1170   0.244   0.999   4.334  0.5366 -0.9844 -1.7584
   91SOL     OW 1171   5.604   5.881   5.318 -0.7040 -0.0437 -0.3011
   91SOL    HW1 1172   5.567   5.789   5.333 -0.2056  0.0373  1.6705
   91SOL    HW2 1173   5.637   5.918   5.404  0.5836  1.3725 -1.3511
   92SOL     OW 1174   2.630   6.722   0.077  0.0365 -0.0824  0.6547
   92SOL    HW1 1175   2.572   6.725   0.159 -0.5783 -1.2078  0.2753
   92SOL    HW2 1176   2.689   6.642   0.080 -1.2182 -1.1200 -0.7890
   93SOL     OW 1177   2.182   4.998   5.595  0.3713 -0.2505 -0.4133
   93SOL    HW1 1178   2.127   5.026   5.516  1.7658  0.4201 -1.1871
   93SOL    HW2 1179   2.262   4.948   5.563  2.3153  2.2179  0.3091
   94SOL     OW 1180   2.151   0.429   1.984  0.0869 -0.1445  0.4171
   94SOL    HW1 1181   2.228   0.490   2.000 -0.1429  0.2892 -0.0891
   94SOL    HW2 1182   2.079   0.448   2.051 -0.3242  0.7281 -0.2541
   95SOL     OW 1183   6.612   0.548   4.567  0.0303  0.4285  0.2801
   95SOL    HW1 1184   6.708   0.568   4.549  0.6217  0.1551  2.7920
   95SOL    HW2 1185   6.556   0.627   4.539  1.3799  2.0633  1.9758
   96SOL     OW 1186   1.826   4.043   3.274  0.4514 -0.0109 -0.3087
   96SOL    HW1 1187   1.810   4.125   3.217 -0.8673 -0.1485 -0.1732
   96SOL    HW2 1188   1.853   3.967   3.215  0.7122  0.2656 -0.5542
   97SOL     OW 1189   0.092   2.279   4.925  0.3856 -0.2269  0.2580
   97SOL    HW1 1190   0.084   2.275   5.024  1.8970 -2.1890  0.3547
   97SOL    HW2 1191   0.183   2.250   4.897 -0.7118 -1.9688 -1.8018
   98SOL     OW 1192   5.395   1.557   4.688 -0.2808  0.3752  0.1304
   98SOL    HW1 1193   5.318   1.521   4.635  0.3514  0.0394 -0.5859
   98SOL    HW2 1194   5.477   1.502   4.670  0.4760  1.5660 -0.2228
   99SOL     OW 1195   5.160   0.929   1.097 -0.6362 -0.1697 -0.3857
   99SOL    HW1 1196   5.179   0.982   1.180 -1.0719  1.0190 -1.0196
   99SOL    HW2 1197   5.094   0.979   1.041 -1.0260 -1.3860 -1.0307
  100SOL     OW 1198   5.339   3.795   1.298 -0.5244  0.2373  0.6770
  100SOL    HW1 1199   5.329   3.886   1.337  2.0255  0.9791 -0.2529
  100SOL    HW2 1200   5.280   3.786   1.217 -1.4235  0.7261  1.2652
  101SOL     OW 1201   0.568   0.295   4.943  0.3054 -0.2316  0.3610
  101SOL    HW1 1202   0.500   0.291   5.016 -0.1181 -0.2582 -0.0319
  101SOL    HW2 1203   0.537   0.357   4.871  0.1905 -1.0664 -0.3315
  102SOL     OW 1204   5.304   1.505   1.526  0.1665  0.0392 -0.4112
  102SOL    HW1 1205   5.292   1.604   1.527 -1.1339 -0.0569  2.0889
  102SOL    HW2 1206   5.397   1.482   1.552 -0.5813  0.6815  3.4844
  103SOL     OW 1207   6.088   6.334   3.663  0.3444 -0.5189  0.3432
  103SOL    HW1 1208   6.158   6.305   3.729  1.3342  1.5558  0.2848
  103SOL    HW2 1209   6.131   6.378   3.585 -0.9976  1.2774  0.5337
  104SOL     OW 1210   0.171   7.017   2.928 -0.0783  0.1852  0.0849
  104SOL    HW1 1211   0.132   6.943   2.982 -0.8924 -0.1215 -0.8950
  104SOL    HW2 1212   0.116   7.031   2.846  1.8932 -0.3409 -1.4243
  105SOL     OW 1213   0.416   1.773   5.691 -0.0751 -0.5653  0.3726
  105SOL    HW1 1214   0.415   1.858   5.638  2.0006  0.1962  1.4554
  105SOL    HW2 1215   0.477   1.707   5.647  2.8732  0.5976  2.4060
  106SOL     OW 1216   3.550   5.470   1.034 -0.1615 -0.2671 -0.0494
  106SOL    HW1 1217   3.615   5.442   0.963 -0.5193 -1.6937  0.1461
  106SOL    HW2 1218   3.459   5.437   1.010 -0.0816 -1.9048  1.6407
  107SOL     OW 1219   4.082   5.452   0.995 -0.5152  0.2763  0.2122
  107SOL    HW1 1220   4.081   5.521   0.922  1.5578 -2.3872 -2.5494
  107SOL    HW2 1221   3.987   5.431   1.021 -1.2813  2.0262 -0.9347
  108SOL     OW 1222   5.172   4.242   5.450  0.4819  0.1463  0.0453
  108SOL    HW1 1223   5.247   4.265   5.512  0.8781 -0.7412 -0.1011
  108SOL    HW2 1224   5.200   4.259   5.356  0.8432 -1.0670 -0.0790
  109SOL     OW 1225   0.373   4.070   3.392 -0.3916  0.0713  0.0196
  109SOL    HW1 1226   0.432   4.008   3.340 -1.7978  0.3608 -2.0255
  109SOL    HW2 1227   0.304   4.018   3.441  0.5466 -0.1587  1.1464
  110SOL     OW 1228   4.027   0.907   3.218  0.0837  0.5179  0.0112
  110SOL    HW1 1229   3.943   0.936   3.264  0.3366  1.2316  0.0204
  110SOL    HW2 1230   4.027   0.941   3.124  0.5033  0.7731  0.1020
  111SOL     OW 1231   2.606   2.180   3.757 -0.2016 -0.1833 -0.3218
  111SOL    HW1 1232   2.599   2.097   3.813 -0.1950 -0.0833 -0.1731
  111SOL    HW2 1233   2.637   2.256   3.814  0.4110 -0.2235 -0.6018
  112SOL     OW 1234   0.370   2.366   6.138  0.4777  0.5957  0.2570
  112SOL    HW1 1235   0.431   2.381   6.216 -0.0333 -0.2371  0.8369
  112SOL    HW2 1236   0.403   2.416   6.059  2.5179 -0.6485  0.2555
  113SOL     OW 1237   6.903   0.349   3.210 -0.1938 -0.4915  0.5050
  113SOL    HW1 1238   6.952   0.432   3.185  1.2044 -1.2069  0.7715
  113SOL    HW2 1239   6.952   0.303   3.284 -0.2717 -2.1883 -0.4609
  114SOL     OW 1240   1.823   5.921   0.640 -0.4111  0.1307  0.0400
  114SOL    HW1 1241   1.770   5.859   0.581 -0.3500  1.5195 -1.5543
  114SOL    HW2 1242   1.869   5.989   0.583  2.2788 -0.3834  1.4555
  115SOL     OW 1243   5.740   2.428   5.671  0.1073  0.6135  0.7220
  115SOL    HW1 1244   5.738   2.447   5.573  2.6342  0.2896  0.5282
  115SOL    HW2 1245   5.665   2.475   5.716 -1.5482  0.1767 -1.4452
  116SOL     OW 1246   6.177   5.058   2.317  0.0758  0.8090  0.2194
  116SOL    HW1 1247   6.112   5.133   2.330  0.3751  0.7565  2.3392
  116SOL    HW2 1248   6.131   4.980   2.276 -0.9931  1.0733  0.8947
  117SOL     OW 1249   6.946   1.224   4.620 -0.3583  0.4197 -0.4689
  117SOL    HW1 1250   7.004   1.197   4.543  0.5046  0.4505  0.1503
  117SOL    HW2 1251   6.873   1.284   4.588 -0.1676  0.2259 -1.2957
  118SOL     OW 1252   2.621   2.495   3.569  0.0418 -0.4398  0.2196
  118SOL    HW1 1253   2.557   2.474   3.644 -0.0820  0.1839  0.2970
  118SOL    HW2 1254   2.710   2.519   3.608 -0.4463  1.4221  0.2698
  119SOL     OW 1255   1.164   3.334   5.014  0.0802  0.1691 -0.0765
  119SOL    HW1 1256   1.246   3.374   4.973  0.4572  0.7559  1.2059
  119SOL    HW2 1257   1.082   3.371   4.969  0.4550  1.5829  0.3908
  120SOL     OW 1258   4.792   5.878   2.230  0.0478 -0.3891  0.2201
  120SOL    HW1 1259   4.886   5.858   2.259 -0.5936 -1.1107  1.9440
  120SOL    HW2 1260   4.765   5.814   2.157  0.7802 -0.3787 -0.0679
  121SOL     OW 1261   3.093   4.842   5.661  0.0268  0.5606  0.6524
  121SOL    HW1 1262   3.014   4.903   5.659  0.4131  1.0910  1.0904
  121SOL    HW2 1263   3.065   4.752   5.693 -0.0884  1.2615  2.7037
  122SOL     OW 1264   2.204   2.117   4.307 -0.2699  0.2647  0.4166
  122SOL    HW1 1265   2.230   2.210   4.283 -1.6728  0.5662  0.0025
  122SOL    HW2 1266   2.158   2.074   4.229 -1.9263  0.1320  1.4121
  123SOL     OW 1267   6.722   2.870   0.250 -0.2917  0.3250 -0.1263
  123SOL    HW1 1268   6.690   2.818   0.171  2.6465 -1.5528 -0.2665
  123SOL    HW2 1269   6.716   2.813   0.332  2.2178 -0.0899 -0.1347
  124SOL     OW 1270   4.930   4.528   2.476  0.1898  0.3923  0.2240
  124SOL    HW1 1271   4.846   4.543   2.529  0.5472 -0.1803  0.9666
  124SOL    HW2 1272   4.968   4.616   2.449 -0.7089  0.6633 -0.2283
  125SOL     OW 1273   0.991   5.200   1.277  0.1518 -0.3371  0.1367
  125SOL    HW1 1274   0.981   5.111   1.321 -0.2037 -0.5202 -0.3114
  125SOL    HW2 1275   1.042   5.261   1.338 -0.8983 -0.3810  1.1060
  126SOL     OW 1276   4.033   6.743   0.679  0.6441  0.1670  0.0632
  126SOL    HW1 1277   4.006   6.698   0.763 -0.2122  0.1191 -0.2280
  126SOL    HW2 1278   4.109   6.694   0.637 -0.3772 -1.1231 -0.3360
  127SOL     OW 1279   0.026   5.440   6.163  0.0115 -1.0034  0.2610
  127SOL    HW1 1280  -0.059   5.489   6.143  0.2095 -1.3001 -1.4615
  127SOL    HW2 1281   0.013   5.343   6.144 -0.0354 -1.4916  2.5613
  128SOL     OW 1282   5.174   1.929   0.376  0.1837 -0.1181  0.2453
  128SOL    HW1 1283   5.210   1.932   0.283  0.4637 -0.0574  0.3559
  128SOL    HW2 1284   5.248   1.944   0.442 -0.1929  0.9925  0.4430
  129SOL     OW 1285   2.827   3.509   6.038  0.2603 -0.8446 -0.4967
  129SOL    HW1 1286   2.750   3.562   6.001 -1.4468 -2.1898  0.9873
  129SOL    HW2 1287   2.889   3.485   5.963  0.2870  1.8241 -1.4706
  130SOL     OW 1288   1.278   0.935   5.418  0.4553 -0.4753  0.2356
  130SOL    HW1 1289   1.265   1.024   5.463  0.8767 -1.3076  2.0815
  130SOL    HW2 1290   1.314   0.950   5.326  1.4263  1.2523  0.8409
  131SOL     OW 1291   6.972   1.653   4.561 -0.3708  0.2524  0.2446
  131SOL    HW1 1292   6.903   1.685   4.625  0.0583  0.0825  0.8023
  131SOL    HW2 1293   6.932   1.646   4.470 -1.0191  0.3931  0.5109
  132SOL     OW 1294   0.223   3.608   1.130 -0.0546 -0.1307 -0.2310
  132SOL    HW1 1295   0.179   3.685   1.176  2.2104  1.4431 -0.5626
  132SOL    HW2 1296   0.249   3.539   1.197  3.0656  2.0586  1.0215
  133SOL     OW 1297   0.187   5.924   3.624 -0.1543  0.1426 -0.5326
  133SOL    HW1 1298   0.189   5.887   3.717 -0.1633  0.6010 -0.3479
  133SOL    HW2 1299   0.094   5.953   3.602  0.2248  1.9107  0.0687
  134SOL     OW 1300   1.829   2.415   3.262 -0.1621 -0.2378  0.6435
  134SOL    HW1 1301   1.857   2.510   3.248 -1.2238  0.1782  1.2313
  134SOL    HW2 1302   1.737   2.402   3.226  0.3825 -1.3456 -0.4354
  135SOL     OW 1303   4.652   0.795   2.628 -0.4424 -0.0636 -0.1375
  135SOL    HW1 1304   4.560   0.821   2.657 -0.8487 -1.7987  0.2613
  135SOL    HW2 1305   4.655   0.788   2.529 -1.3708 -1.9704 -0.0837
  136SOL     OW 1306   5.442   3.504   0.202 -0.1240  0.0616 -0.2232
  136SOL    HW1 1307   5.473   3.409   0.208 -0.3102  0.0852  1.2312
  136SOL    HW2 1308   5.510   3.564   0.245 -1.2101  0.3191  1.1726
  137SOL     OW 1309   4.632   6.820   0.788 -0.8863 -0.8230 -0.1904
  137SOL    HW1 1310   4.543   6.802   0.830 -1.1346  4.0255  2.0956
  137SOL    HW2 1311   4.620   6.844   0.692 -1.3567 -3.9897 -1.0468
  138SOL     OW 1312   5.344   6.194   5.870  0.3849  0.3335 -0.2227
  138SOL    HW1 1313   5.444   6.206   5.866  0.4566  0.2590  0.9701
  138SOL    HW2 1314   5.302   6.278   5.902 -0.0425  0.7035 -1.7186
  139SOL     OW 1315   3.987   0.021   5.319 -0.0081 -0.5558 -0.2015
  139SOL    HW1 1316   3.965   0.089   5.249  2.5084 -0.0656 -0.5984
  139SOL    HW2 1317   4.013   0.068   5.404 -2.7261 -1.1399  1.0716
  140SOL     OW 1318   7.014   6.249   4.014  0.1134  0.1024 -0.6466
  140SOL    HW1 1319   6.996   6.181   3.942 -1.1701 -0.9742  0.6245
  140SOL    HW2 1320   6.953   6.231   4.092  1.8288  0.9045  0.9354
  141SOL     OW 1321   1.535   1.513   2.604 -0.2605 -0.1252 -0.2689
  141SOL    HW1 1322   1.618   1.554   2.567 -0.2944 -0.0795 -0.2938
  141SOL    HW2 1323   1.557   1.422   2.640  0.0181  0.2882  0.6537
  142SOL     OW 1324   0.636   5.173   6.773  0.2841 -0.2030  0.0065
  142SOL    HW1 1325   0.722   5.169   6.824  0.6219  1.7541 -0.3426
  142SOL    HW2 1326   0.559   5.173   6.837  0.7180  3.3433  0.7557
  143SOL     OW 1327   3.723   5.625   4.716 -0.0343 -0.4302 -0.2919
  143SOL    HW1 1328   3.784   5.604   4.793  0.0500 -1.5973 -0.6631
  143SOL    HW2 1329   3.756   5.706   4.668  0.7582 -0.5787 -0.0037
  144SOL     OW 1330   5.868   0.324   2.540 -0.1058 -0.2244 -0.2679
  144SOL    HW1 1331   5.813   0.383   2.599  0.9039 -0.9965  1.5343
  144SOL    HW2 1332   5.808   0.273   2.478 -1.2052  0.6104  0.0824
  145SOL     OW 1333   5.722   3.120   1.000 -0.1029  0.4993  0.2598
  145SOL    HW1 1334   5.709   3.195   1.064 -1.2152 -0.1888  0.8806
  145SOL    HW2 1335   5.819   3.095   0.997  0.3264  2.1099 -0.1692
  146SOL     OW 1336   1.294   3.018   4.518 -0.5516  0.2955 -0.1726
  146SOL    HW1 1337   1.319   2.961   4.440  0.2239  0.3110  0.0495
  146SOL    HW2 1338   1.281   3.112   4.487  0.7444  0.5050 -0.1513
  147SOL     OW 1339   4.572   2.848   1.046  0.4384  0.2422 -0.4082
  147SOL    HW1 1340   4.554   2.815   1.138  0.8161  1.8667  0.2816
  147SOL    HW2 1341   4.549   2.945   1.040  0.0912  0.0840 -2.1334
  148SOL     OW 1342   6.142   0.871   6.418  0.3215 -0.7771  0.0615
  148SOL    HW1 1343   6.100   0.782   6.401 -1.1792 -0.1695  0.4037
  148SOL    HW2 1344   6.104   0.938   6.354 -0.0096  0.0130  1.0612
  149SOL     OW 1345   3.940   1.393   5.179 -0.5146 -0.1467 -0.0301
  149SOL    HW1 1346   3.937   1.433   5.087  2.0490  0.1152 -0.0531
  149SOL    HW2 1347   3.905   1.459   5.245 -1.3927  0.0536 -0.6748
  150SOL     OW 1348   0.066   2.617   4.808 -0.3913 -0.3788 -0.3887
  150SOL    HW1 1349  -0.007   2.613   4.876  0.0546  0.8007  0.1853
  150SOL    HW2 1350   0.148   2.574   4.845  0.2821  1.5205  0.4122
  151SOL     OW 1351   5.871   6.417   3.800  0.5154  0.3754  0.5206
  151SOL    HW1 1352   5.852   6.512   3.776  2.5235  0.9024  0.7981
  151SOL    HW2 1353   5.957   6.389   3.757 -0.3255 -1.5381 -0.0397
  152SOL     OW 1354   3.128   0.939   5.027 -0.3584  0.0058 -0.4542
  152SOL    HW1 1355   3.199   0.933   4.957  1.3890  2.1218  1.0016
  152SOL    HW2 1356   3.162   0.991   5.105 -2.4226 -1.7203  1.7763
  153SOL     OW 1357   2.114   6.789   1.696  0.2816  0.5000 -0.1439
  153SOL    HW1 1358   2.071   6.878   1.679 -0.9146  0.1219  0.6748
  153SOL    HW2 1359   2.184   6.799   1.767 -0.6507  0.6172  0.7889
  154SOL     OW 1360   0.420   2.734   2.067 -0.1916 -0.0033 -0.1507
  154SOL    HW1 1361   0.441   2.684   1.983  2.5622  0.6752  0.0153
  154SOL    HW2 1362   0.412   2.670   2.143  0.6365 -0.4022 -0.3851
  155SOL     OW 1363   1.223   1.139   1.772 -0.0225  0.3066 -0.2329
  155SOL    HW1 1364   1.261   1.203   1.838  0.6309 -1.9391  1.7406
  155SOL    HW2 1365   1.125   1.156   1.760  0.5718  3.2177 -1.8047
  156SOL     OW 1366   0.174   3.770   1.521  0.0370  0.3941 -0.2524
  156SOL    HW1 1367   0.101   3.829   1.555  0.1041 -0.0686  0.7107
  156SOL    HW2 1368   0.185   3.692   1.582 -0.2125 -0.7589 -1.6296
  157SOL     OW 1369   1.389   1.740   3.488 -0.0805  0.4687  0.1473
  157SOL    HW1 1370   1.436   1.798   3.422  0.9343 -0.2977  0.1770
  157SOL    HW2 1371   1.403   1.776   3.580  3.4264 -1.5580  0.5726
  158SOL     OW 1372   0.402   1.912   1.141 -0.2649 -0.1960  0.1284
  158SOL    HW1 1373   0.484   1.950   1.097 -1.4982  0.7587 -1.4326
  158SOL    HW2 1374   0.389   1.817   1.112 -0.2377 -0.0436 -0.3835
  159SOL     OW 1375   5.331   4.225   0.508  0.2359 -0.1967  0.3265
  159SOL    HW1 1376   5.306   4.179   0.593 -0.2353  0.8260  0.7473
  159SOL    HW2 1377   5.343   4.156   0.436 -2.8977 -0.8632  0.2895
  160SOL     OW 1378   6.999   5.182   6.057 -0.4449  0.0299  0.1480
  160SOL    HW1 1379   6.951   5.174   5.969  0.2735  2.6821 -0.5917
  160SOL    HW2 1380   7.096   5.162   6.044 -0.3990  0.0920  0.3892
  161SOL     OW 1381   1.602   4.664   5.134  0.1172 -0.4209 -0.2967
  161SOL    HW1 1382   1.702   4.656   5.133  0.1416 -0.5748  1.1361
  161SOL    HW2 1383   1.564   4.600   5.201 -1.0070 -0.8600 -1.3195
  162SOL     OW 1384   5.636   5.772   2.629  0.1998 -0.0435 -0.6266
  162SOL    HW1 1385   5.555   5.798   2.577  0.9817  0.9307 -1.3897
  162SOL    HW2 1386   5.703   5.730   2.568  1.2615  1.3898 -0.5073
  163SOL     OW 1387   5.398   6.013   1.461  0.4124 -0.1089  0.2923
  163SOL    HW1 1388   5.448   5.952   1.400  0.2152 -2.1098  1.9946
  163SOL    HW2 1389   5.335   6.070   1.408  0.5783 -1.4265 -1.3966
  164SOL     OW 1390   0.049   4.746   1.709  0.1653 -0.3703  0.0573
  164SOL    HW1 1391   0.066   4.648   1.697 -0.2085 -0.2521 -1.6740
  164SOL    HW2 1392  -0.048   4.764   1.692  0.7492  0.6754 -2.6906
  165SOL     OW 1393   5.835   2.554   0.019  0.3144  0.0907  0.1774
  165SOL    HW1 1394   5.912   2.618   0.015 -0.2353  0.7125 -2.2073
  165SOL    HW2 1395   5.828   2.517   0.111  3.8366 -0.4700  0.3828
  166SOL     OW 1396   1.312   2.059   6.516  0.3484 -0.3020 -0.1152
  166SOL    HW1 1397   1.329   2.157   6.514  0.8889 -0.4042 -1.8610
  166SOL    HW2 1398   1.398   2.011   6.534  0.0075 -0.4725  1.2030
  167SOL     OW 1399   6.995   1.703   5.976 -0.1963  0.1901  0.6919
  167SOL    HW1 1400   7.075   1.676   5.922  1.2332  1.3896  2.1244
  167SOL    HW2 1401   6.962   1.792   5.944 -0.4117  0.1041  0.6752
  168SOL     OW 1402   6.741   6.191   0.519 -0.6990 -0.5852  0.2970
  168SOL    HW1 1403   6.689   6.214   0.437  0.3503 -0.1388 -0.2742
  168SOL    HW2 1404   6.831   6.235   0.514 -0.4268 -0.9748  1.4505
  169SOL     OW 1405   0.958   0.063   1.500  0.3972  0.0777 -0.3774
  169SOL    HW1 1406   0.950  -0.035   1.481 -0.6992  0.1534 -0.3448
  169SOL    HW2 1407   0.969   0.112   1.414  4.0781 -0.2843 -0.2832
  170SOL     OW 1408   6.575   2.226   4.702 -0.1006 -0.0524  0.0517
  170SOL    HW1 1409   6.541   2.236   4.609  0.4314  0.0699 -0.1351
  170SOL    HW2 1410   6.670   2.195   4.699 -0.2995 -0.7358  0.5655
  171SOL     OW 1411   2.433   2.989   1.581  0.1821 -0.2150 -0.0686
  171SOL    HW1 1412   2.422   3.088   1.594  0.4769 -0.1682 -0.1741
  171SOL    HW2 1413   2.495   2.954   1.651  1.0583 -0.1166 -0.7755
  172SOL     OW 1414   6.964   1.722   0.786 -0.5314 -0.1624  0.5151
  172SOL    HW1 1415   7.041   1.671   0.748 -0.7900  0.5395 -1.0154
  172SOL    HW2 1416   6.936   1.679   0.872  1.5346 -0.4398  1.1168
  173SOL     OW 1417   6.269   0.903   1.126  0.5926  0.2640  0.5435
  173SOL    HW1 1418   6.344   0.839   1.110  0.2088  0.2224 -1.2842
  173SOL    HW2 1419   6.295   0.994   1.094 -0.2263  0.1769 -0.4182
  174SOL     OW 1420   1.275   0.957   2.942  0.7750  0.3677 -0.3590
  174SOL    HW1 1421   1.276   0.867   2.898 -2.6250  0.7504 -1.5010
  174SOL    HW2 1422   1.268   1.028   2.873 -1.1462  1.1955  0.5936
  175SOL     OW 1423   0.417   5.194   5.679 -0.0517  0.4739 -0.0105
  175SOL    HW1 1424   0.516   5.206   5.692 -0.0686 -0.0274  0.6524
  175SOL    HW2 1425   0.371   5.199   5.768 -0.5920  0.4036 -0.2819
  176SOL     OW 1426   2.990   4.509   1.007  0.0498 -0.4828  0.2624
  176SOL    HW1 1427   2.906   4.458   0.985  0.7507 -1.7176  0.3678
  176SOL    HW2 1428   3.018   4.563   0.928 -0.5862 -0.4227  0.0701
  177SOL     OW 1429   2.520   1.224   1.433 -0.5039 -0.0528 -0.8040
  177SOL    HW1 1430   2.435   1.228   1.485 -1.0410 -1.8768 -1.4541
  177SOL    HW2 1431   2.537   1.311   1.388 -0.6265  1.1966  1.4470
  178SOL     OW 1432   2.893   2.778   6.929  0.9898  0.0453  0.1415
  178SOL    HW1 1433   2.990   2.797   6.915  0.8788  0.6235  0.1692
  178SOL    HW2 1434   2.848   2.858   6.966  0.4580 -0.1540 -0.0661
  179SOL     OW 1435   5.556   5.946   6.387  0.2632  0.0162 -0.3725
  179SOL    HW1 1436   5.482   5.985   6.333  0.0942  1.1379  0.6159
  179SOL    HW2 1437   5.637   6.004   6.379  0.3363  0.0170  0.2949
  180SOL     OW 1438   1.439   3.424   1.834  0.1843  0.5982  0.1132
  180SOL    HW1 1439   1.354   3.453   1.790  0.1111  0.5230  0.2055
  180SOL    HW2 1440   1.485   3.503   1.874  1.3577  1.0506 -1.9953
  181SOL     OW 1441   3.313   3.071   4.212 -0.4217 -0.0331 -0.6687
  181SOL    HW1 1442   3.378   3.021   4.155 -0.0749 -0.3522  0.0043
  181SOL    HW2 1443   3.297   3.161   4.172  2.2583  1.0016  0.3965
  182SOL     OW 1444   5.088   3.099   4.960  0.4186 -0.0211  0.0510
  182SOL    HW1 1445   5.180   3.092   4.921  0.7191 -0.8005  0.8588
  182SOL    HW2 1446   5.094   3.086   5.059 -0.8051 -2.1564 -0.1008
  183SOL     OW 1447   0.381   1.201   2.075 -0.2946  0.0313 -0.4728
  183SOL    HW1 1448   0.423   1.251   2.000  1.0408  1.7523  1.3124
  183SOL    HW2 1449   0.322   1.129   2.039  1.5097 -0.2493 -3.1304
  184SOL     OW 1450   6.743   4.684   2.259 -0.1277 -0.3129  0.0109
  184SOL    HW1 1451   6.831   4.727   2.280 -0.2016 -0.3709  0.4509
  184SOL    HW2 1452   6.709   4.718   2.171 -0.5633  1.1374  0.7105
  185SOL     OW 1453   3.213   4.745   5.377 -0.3202  0.1419  0.2349
  185SOL    HW1 1454   3.168   4.748   5.466  0.7946  0.6786  0.7952
  185SOL    HW2 1455   3.253   4.654   5.364  0.8231  0.5303  0.9554
  186SOL     OW 1456   6.026   2.201   2.088  0.2512 -0.0550 -0.1706
  186SOL    HW1 1457   6.061   2.173   2.178 -2.4753  1.6547  1.5596
  186SOL    HW2 1458   5.983   2.123   2.043 -2.3012 -0.0797  2.0837
  187SOL     OW 1459   5.853   6.708   3.779  0.2846 -0.1905  0.2926
  187SOL    HW1 1460   5.926   6.767   3.814  1.0363 -0.6936 -0.4073
  187SOL    HW2 1461   5.768   6.729   3.828  0.6605  1.0763  0.4440
  188SOL     OW 1462   1.578   1.976   4.941  0.5099 -0.4453 -0.4005
  188SOL    HW1 1463   1.548   1.979   5.037  0.5766 -0.9103 -0.3592
  188SOL    HW2 1464   1.498   1.963   4.882  0.1381  2.4040 -0.6335
  189SOL     OW 1465   0.737   5.509   3.774  0.0527 -0.1315  0.2628
  189SOL    HW1 1466   0.654   5.464   3.740 -1.3097  0.2069  2.8800
  189SOL    HW2 1467   0.797   5.442   3.816  0.4241 -0.1673 -0.3136
  190SOL     OW 1468   4.939   0.317   1.027  0.1780 -0.0786 -0.2366
  190SOL    HW1 1469   4.925   0.379   1.104  1.6506  0.2164 -0.1745
  190SOL    HW2 1470   5.035   0.319   1.000  0.1383 -1.8688 -0.6405
  191SOL     OW 1471   4.011   6.332   5.173  0.3385  0.2644  0.3842
  191SOL    HW1 1472   4.039   6.411   5.229 -0.5714  0.1751  0.9880
  191SOL    HW2 1473   4.055   6.250   5.210  0.6687  0.3703  0.2357
  192SOL     OW 1474   4.708   6.867   0.534 -0.2642 -0.1346 -0.5861
  192SOL    HW1 1475   4.723   6.776   0.496 -0.6072 -0.7182  0.6519
  192SOL    HW2 1476   4.796   6.910   0.553 -0.0407 -1.6061  2.0703
  193SOL     OW 1477   5.227   3.037   6.333 -0.0899 -0.0715 -0.5768
  193SOL    HW1 1478   5.202   3.108   6.399  4.4015 -0.2749  1.7568
  193SOL    HW2 1479   5.255   3.079   6.247 -2.1945  0.4900 -1.0413
  194SOL     OW 1480   2.387   0.466   3.536  0.1732  0.0635  0.1361
  194SOL    HW1 1481   2.394   0.372   3.503  1.7491  1.0200 -2.5867
  194SOL    HW2 1482   2.296   0.502   3.515  0.5457  0.0496 -1.7442
  195SOL     OW 1483   6.724   5.938   3.522  0.5500  0.6513 -0.1628
  195SOL    HW1 1484   6.768   5.850   3.535 -0.4065  0.2977  0.9038
  195SOL    HW2 1485   6.724   5.988   3.608 -0.5447  0.9059 -0.2959
  196SOL     OW 1486   6.564   6.749   2.449  0.4186 -0.1230  0.0182
  196SOL    HW1 1487   6.613   6.831   2.478  1.3419 -0.7107  0.1524
  196SOL    HW2 1488   6.618   6.699   2.381 -0.0515 -0.7120  0.0627
  197SOL     OW 1489   0.502   2.643   0.994 -0.2742 -0.4413 -0.3578
  197SOL    HW1 1490   0.439   2.721   0.987 -1.8119 -1.7094 -1.4042
  197SOL    HW2 1491   0.501   2.591   0.908  0.9723 -1.4345  0.1920
  198SOL     OW 1492   2.893   2.240   6.004  0.2379  0.2434  0.0290
  198SOL    HW1 1493   2.918   2.302   5.929  1.6472  0.8199  0.9206
  198SOL    HW2 1494   2.901   2.289   6.091  0.6518 -0.9766  0.7057
  199SOL     OW 1495   1.318   0.210   4.004  0.6497  0.0684 -0.3812
  199SOL    HW1 1496   1.406   0.216   4.052  1.2149 -1.8464 -1.0795
  199SOL    HW2 1497   1.245   0.195   4.070  1.1021 -0.2110  0.0595
  200SOL     OW 1498   5.552   1.405   1.612 -0.3114 -0.2426 -0.1583
  200SOL    HW1 1499   5.500   1.388   1.696  1.0661  2.2697  1.3485
  200SOL    HW2 1500   5.650   1.399   1.631  0.0348 -0.4458 -1.8146
  201SOL     OW 1501   2.307   2.265   6.356  0.3248 -0.2065  0.1573
  201SOL    HW1 1502   2.309   2.239   6.452 -0.9766 -0.6085  0.0947
  201SOL    HW2 1503   2.400   2.269   6.320  1.0473  2.2103  2.0130
  202SOL     OW 1504   6.784   5.922   6.408 -0.4336 -0.5384 -0.3798
  202SOL    HW1 1505   6.687   5.904   6.418 -0.3036 -1.6466 -0.9317
  202SOL    HW2 1506   6.833   5.835   6.394  0.4404  0.1263 -1.6161
  203SOL     OW 1507   5.103   2.945   1.174 -0.1090  0.0174 -0.4742
  203SOL    HW1 1508   5.075   2.850   1.190 -0.7473  0.4236  0.9721
  203SOL    HW2 1509   5.202   2.952   1.175 -0.0770 -0.4926  0.3216
  204SOL     OW 1510   6.527   6.171   3.946  0.0779 -0.4513 -0.4973
  204SOL    HW1 1511   6.528   6.246   4.012 -0.8119 -0.7546 -0.1245
  204SOL    HW2 1512   6.576   6.093   3.984 -2.4427 -1.4779  0.8842
  205SOL     OW 1513   2.476   0.061   4.262 -0.7959  0.5041  0.0117
  205SOL    HW1 1514   2.490   0.015   4.350 -0.0352  1.6391  0.5077
  205SOL    HW2 1515   2.533   0.142   4.257 -1.4154  0.8961 -1.2249
  206SOL     OW 1516   0.782   3.322   0.433 -0.2312 -0.3896 -0.5184
  206SOL    HW1 1517   0.789   3.349   0.337  1.1827 -1.0967 -0.6319
  206SOL    HW2 1518   0.686   3.321   0.460 -0.6477 -0.1515 -1.9085
  207SOL     OW 1519   6.427   2.448   4.350 -0.3727 -0.3764  0.2216
  207SOL    HW1 1520   6.430   2.485   4.257  0.8661  0.7140  0.6559
  207SOL    HW2 1521   6.502   2.488   4.404  0.0635 -2.3697  1.1807
  208SOL     OW 1522   2.901   2.246   4.594 -0.0465 -0.2619  0.1731
  208SOL    HW1 1523   2.907   2.239   4.693  0.6529  0.8828  0.2225
  208SOL    HW2 1524   2.874   2.338   4.568  1.9670  0.1234 -0.7460
  209SOL     OW 1525   6.643   5.682   3.735 -0.6932  0.2326  0.3303
  209SOL    HW1 1526   6.558   5.629   3.729 -1.3355  1.1703  0.9168
  209SOL    HW2 1527   6.622   5.779   3.723  0.3918  0.4145 -0.1533
  210SOL     OW 1528   4.974   3.582   1.776 -0.7834 -0.3075 -0.5987
  210SOL    HW1 1529   4.903   3.558   1.711 -0.1243 -1.9125 -0.7580
  210SOL    HW2 1530   4.951   3.545   1.866 -1.1260  0.9163 -0.1609
  211SOL     OW 1531   3.538   1.176   6.978 -0.2958 -0.2377  0.2950
  211SOL    HW1 1532   3.557   1.266   6.938  1.9832 -0.9471 -0.3674
  211SOL    HW2 1533   3.508   1.113   6.906 -0.7203 -0.3330  0.5497
  212SOL     OW 1534   3.049   5.094   0.509  0.5498  0.1454  0.8226
  212SOL    HW1 1535   2.973   5.106   0.444  1.3913 -0.0010 -0.2095
  212SOL    HW2 1536   3.015   5.107   0.602 -0.2172  2.6409  0.2626
  213SOL     OW 1537   1.253   5.125   0.982 -0.0323  0.3474  0.2229
  213SOL    HW1 1538   1.182   5.195   0.982  0.2820  0.7095  1.4962
  213SOL    HW2 1539   1.277   5.103   1.077  2.5252  1.2609 -0.1279
  214SOL     OW 1540   5.964   6.057   3.027  0.6455 -0.1428 -0.0052
  214SOL    HW1 1541   5.967   6.069   3.126 -2.1730 -2.6888  0.5562
  214SOL    HW2 1542   5.881   6.099   2.991  0.8947 -0.5014 -1.0343
  215SOL     OW 1543   1.618   3.820   3.021  0.7329  0.3752  0.1434
  215SOL    HW1 1544   1.657   3.730   3.040  0.4641 -0.0008 -1.0077
  215SOL    HW2 1545   1.681   3.872   2.964  1.8992  1.7944  2.5569
  216SOL     OW 1546   2.114   4.605   2.577 -0.3663  0.0169  0.1001
  216SOL    HW1 1547   2.112   4.593   2.478  2.0738 -0.5875  0.0549
  216SOL    HW2 1548   2.174   4.536   2.617  0.5048  1.6371  1.7472
  217SOL     OW 1549   2.270   4.665   4.444 -0.1957  0.2238  0.0360
  217SOL    HW1 1550   2.357   4.714   4.443 -0.4012  0.6790  1.8172
  217SOL    HW2 1551   2.283   4.573   4.408  1.1120  0.1398  0.6760
  218SOL     OW 1552   1.052   2.293   5.033 -0.5475 -0.1711 -0.0010
  218SOL    HW1 1553   1.065   2.389   5.007 -0.0035 -0.4388 -0.7261
  218SOL    HW2 1554   1.035   2.238   4.952 -2.2524 -0.4870  0.5407
  219SOL     OW 1555   5.721   2.240   0.416  0.1854  0.2364 -0.2547
  219SOL    HW1 1556   5.781   2.218   0.494  1.6399  0.5749 -1.2400
  219SOL    HW2 1557   5.749   2.187   0.336 -2.3873 -1.4307 -0.1800
  220SOL     OW 1558   2.865   5.888   1.057  0.1784 -0.2858 -0.0768
  220SOL    HW1 1559   2.887   5.803   1.106  1.1399 -0.7284 -1.2258
  220SOL    HW2 1560   2.789   5.872   0.994 -0.3428 -0.0030  0.4730
  221SOL     OW 1561   3.633   5.047   1.519  0.0490 -0.5334  0.2112
  221SOL    HW1 1562   3.587   4.958   1.523 -1.6968  0.3563  1.1217
  221SOL    HW2 1563   3.721   5.036   1.473 -1.1138 -2.2931 -1.8299
  222SOL     OW 1564   0.282   4.295   6.075 -0.1412  0.3321  0.0008
  222SOL    HW1 1565   0.314   4.281   5.981  0.5147  0.1497  0.2459
  222SOL    HW2 1566   0.359   4.322   6.133 -0.5330  0.4003  0.4968
  223SOL     OW 1567   6.200   0.562   0.845  0.3163 -0.2862 -0.0548
  223SOL    HW1 1568   6.245   0.649   0.824  0.1957 -0.4145 -0.8827
  223SOL    HW2 1569   6.125   0.578   0.909 -0.7459  0.4930 -1.4324
  224SOL     OW 1570   2.522   3.333   5.672  0.2551  0.0379 -0.6873
  224SOL    HW1 1571   2.582   3.260   5.639 -0.0313  0.3981 -2.0253
  224SOL    HW2 1572   2.446   3.346   5.609  0.2862  1.4864 -0.4568
  225SOL     OW 1573   4.698   4.042   6.014  0.1787  0.3141 -0.4439
  225SOL    HW1 1574   4.648   4.016   5.931 -0.0554 -0.2002 -0.1467
  225SOL    HW2 1575   4.770   3.975   6.032  1.0502  1.0945 -0.9161
  226SOL     OW 1576   3.570   2.078   6.570 -0.1562  0.7384 -0.2652
  226SOL    HW1 1577   3.544   1.997   6.624  1.7900  0.2162 -0.0315
  226SOL    HW2 1578   3.651   2.121   6.611  1.2668  0.4701 -2.6058
  227SOL     OW 1579   2.014   4.255   1.855  0.0306  0.2272 -0.0048
  227SOL    HW1 1580   2.020   4.299   1.765 -0.8164  0.8028  0.2043
  227SOL    HW2 1581   1.922   4.220   1.869  0.2200 -0.0629  0.5488
  228SOL     OW 1582   1.416   6.730   1.086  0.5075  0.7531 -0.6221
  228SOL    HW1 1583   1.424   6.781   1.000 -0.3752  0.6670 -0.7691
  228SOL    HW2 1584   1.501   6.681   1.104  0.5103  0.3162 -1.7436
  229SOL     OW 1585   3.538   6.887   5.343 -0.5164 -0.0918 -0.5874
  229SOL    HW1 1586   3.442   6.894   5.317 -1.2898 -1.1364  1.7549
  229SOL    HW2 1587   3.578   6.806   5.301  0.1016  1.5733 -3.4926
  230SOL     OW 1588   3.911   2.327   6.084 -0.2372  0.2067 -0.2166
  230SOL    HW1 1589   3.834   2.277   6.125  0.3859  0.3467  1.1798
  230SOL    HW2 1590   3.930   2.290   5.993 -0.4347 -1.4399  0.3753
  231SOL     OW 1591   2.491   2.587   0.230  0.6679 -0.0405 -0.2139
  231SOL    HW1 1592   2.473   2.536   0.314 -0.1517  2.2379  1.0805
  231SOL    HW2 1593   2.588   2.578   0.206  1.6679  1.6068  2.7042
  232SOL     OW 1594   1.174   2.548   4.608 -0.5904 -1.1480  0.2828
  232SOL    HW1 1595   1.161   2.642   4.579 -0.1533 -1.1827 -0.0422
  232SOL    HW2 1596   1.244   2.505   4.551  0.9012 -0.9671  1.8975
  233SOL     OW 1597   3.102   1.905   3.120 -0.5406  0.2172 -0.1346
  233SOL    HW1 1598   3.113   1.814   3.079  0.3366  1.3646 -2.6278
  233SOL    HW2 1599   3.028   1.953   3.073 -1.0790  0.7879  1.2526
  234SOL     OW 1600   5.170   5.726   0.985  0.1200  0.2865  0.7000
  234SOL    HW1 1601   5.231   5.714   1.064  0.6951  0.0449  0.2267
  234SOL    HW2 1602   5.102   5.652   0.985  0.1550  0.2528  0.9366
  235SOL     OW 1603   5.111   3.222   2.489  0.0197 -0.3710  0.2598
  235SOL    HW1 1604   5.152   3.153   2.548 -1.6330 -0.0853  1.8260
  235SOL    HW2 1605   5.182   3.282   2.453  1.4618 -2.6257 -0.8827
  236SOL     OW 1606   3.543   4.405   5.860  0.0094 -0.5746  0.3265
  236SOL    HW1 1607   3.449   4.377   5.841 -0.3041 -0.8274  2.1117
  236SOL    HW2 1608   3.587   4.337   5.918  0.9148  0.1157  0.4668
  237SOL     OW 1609   5.039   2.582   3.582 -0.3065 -0.3033 -0.2347
  237SOL    HW1 1610   4.972   2.652   3.606 -1.5163 -1.2941 -0.6468
  237SOL    HW2 1611   5.043   2.513   3.654  0.7904  0.0853  0.1105
  238SOL     OW 1612   5.803   1.533   0.580  0.1596  0.1255 -0.6277
  238SOL    HW1 1613   5.750   1.452   0.556 -0.0415  0.7792 -2.5341
  238SOL    HW2 1614   5.836   1.525   0.675 -2.2829 -0.8443  0.2011
  239SOL     OW 1615   1.355   3.766   0.893 -0.0085  0.6239 -0.6697
  239SOL    HW1 1616   1.274   3.771   0.951  0.2376  1.9941 -0.4174
  239SOL    HW2 1617   1.327   3.750   0.798 -0.5349  0.6040 -0.5139
  240SOL     OW 1618   3.309   4.921   4.637 -0.3105  0.0415 -0.3132
  240SOL    HW1 1619   3.358   4.914   4.724  1.4639  0.9819 -1.1829
  240SOL    HW2 1620   3.211   4.921   4.654 -0.0358 -1.5342  1.5324
  241SOL     OW 1621   1.254   2.109   3.796 -0.3570 -0.1203  0.3978
  241SOL    HW1 1622   1.169   2.108   3.849 -0.6311  0.2833 -0.0212
  241SOL    HW2 1623   1.321   2.167   3.841 -0.2931 -0.4610  0.7444
  242SOL     OW 1624   2.876   3.438   2.705 -0.0415 -0.0690  0.6613
  242SOL    HW1 1625   2.782   3.411   2.724 -0.1715  1.1111  1.8651
  242SOL    HW2 1626   2.926   3.448   2.792  0.9916  0.0228  0.0767
  243SOL     OW 1627   3.069   2.424   5.830 -0.2626 -0.2857  0.3491
  243SOL    HW1 1628   3.023   2.490   5.770  0.2040 -1.2973 -1.1763
  243SOL    HW2 1629   3.133   2.472   5.890 -1.3313  0.8425  0.6435
  244SOL     OW 1630   5.089   3.642   5.021 -0.2342 -0.4258 -0.7900
  244SOL    HW1 1631   4.992   3.619   5.014 -0.2251 -0.5639 -0.5069
  244SOL    HW2 1632   5.144   3.558   5.017 -0.1408 -0.3678 -0.7414
  245SOL     OW 1633   3.768   1.531   3.787 -0.0124  0.3680  0.0450
  245SOL    HW1 1634   3.713   1.557   3.708  0.4550 -1.8192 -1.0868
  245SOL    HW2 1635   3.863   1.516   3.758  0.0840 -0.8655  0.9053
  246SOL     OW 1636   1.208   1.076   2.408  0.0488  0.5720 -0.0198
  246SOL    HW1 1637   1.217   1.175   2.410 -0.7719  0.6342  1.6599
  246SOL    HW2 1638   1.113   1.051   2.388 -0.0945  0.1691  1.0897
  247SOL     OW 1639   2.495   0.763   1.023 -0.3212  0.2243 -0.3090
  247SOL    HW1 1640   2.467   0.846   0.973  0.1946  1.4082  1.2832
  247SOL    HW2 1641   2.594   0.758   1.026 -0.3479 -0.6532 -0.6724
  248SOL     OW 1642   2.352   2.826   1.849 -0.0399 -0.5011  0.6409
  248SOL    HW1 1643   2.418   2.796   1.918 -0.8502  0.8248  2.0881
  248SOL    HW2 1644   2.283   2.884   1.893 -0.0741  1.1899 -1.4624
  249SOL     OW 1645   6.662   6.460   6.814 -0.2635 -0.2271 -0.0398
  249SOL    HW1 1646   6.672   6.417   6.725 -0.2732 -0.3319  0.0094
  249SOL    HW2 1647   6.590   6.414   6.866 -0.6025  0.1488 -0.1679
  250SOL     OW 1648   3.137   3.176   6.577  0.4902 -0.0814 -0.2405
  250SOL    HW1 1649   3.131   3.247   6.508 -1.4785  1.1748  1.1283
  250SOL    HW2 1650   3.068   3.106   6.561 -1.2148  1.1413  1.3528
  251SOL     OW 1651   4.971   4.030   6.314  0.4170 -0.1871 -0.2132
  251SOL    HW1 1652   4.982   3.932   6.332 -0.3399 -0.6759 -2.1551
  251SOL    HW2 1653   4.894   4.066   6.366  0.4990 -0.6975  0.2617
  252SOL     OW 1654   5.992   6.452   5.493  0.5521  0.1822 -0.3502
  252SOL    HW1 1655   6.067   6.499   5.539  0.5516  1.4342 -1.5624
  252SOL    HW2 1656   6.015   6.356   5.481  1.9035  0.5230 -0.5828
  253SOL     OW 1657   4.895   4.861   6.734 -0.2670 -0.3258  0.3213
  253SOL    HW1 1658   4.921   4.805   6.655  0.0475  0.9446 -0.5028
  253SOL    HW2 1659   4.957   4.842   6.810  0.5122 -0.3357 -0.2952
  254SOL     OW 1660   4.988   3.759   0.020 -0.3214 -0.7236  0.0544
  254SOL    HW1 1661   4.924   3.743   0.096  1.0725 -1.5372  1.1061
  254SOL    HW2 1662   5.015   3.672  -0.020  0.6383 -0.4425  0.0636
  255SOL     OW 1663   1.963   5.233   0.243 -0.5951 -0.1315 -0.0713
  255SOL    HW1 1664   1.983   5.275   0.332  2.1788 -0.6509 -0.3345
  255SOL    HW2 1665   2.040   5.174   0.217 -2.2932 -1.7075 -1.8529
  256SOL     OW 1666   4.569   1.709   4.937  0.5613 -0.3602  0.2588
  256SOL    HW1 1667   4.525   1.798   4.950 -0.7451 -0.9599  0.0894
  256SOL    HW2 1668   4.529   1.642   5.001  0.6622 -1.1042 -0.4378
  257SOL     OW 1669   5.583   6.234   1.939  0.4694  0.6058 -0.3069
  257SOL    HW1 1670   5.492   6.269   1.963 -0.0693 -0.5706 -0.5251
  257SOL    HW2 1671   5.640   6.309   1.906  0.5914  1.9415  2.6253
  258SOL     OW 1672   3.443   5.776   5.103  0.4343  0.4687 -0.0628
  258SOL    HW1 1673   3.524   5.738   5.146 -0.3929 -0.2746  0.8672
  258SOL    HW2 1674   3.361   5.745   5.151 -0.3780  1.7272 -0.5874
  259SOL     OW 1675   2.906   0.383   4.630 -0.1227  0.3736  0.3462
  259SOL    HW1 1676   2.949   0.317   4.569 -1.4376 -1.1681  1.0124
  259SOL    HW2 1677   2.902   0.472   4.585  0.7670 -0.2294 -0.9997
  260SOL     OW 1678   5.155   5.985   3.923 -0.2248  0.0795  0.3815
  260SOL    HW1 1679   5.118   6.032   4.003 -0.2958  0.2664  0.2372
  260SOL    HW2 1680   5.219   6.044   3.876  0.3173 -0.2714  0.6695
  261SOL     OW 1681   1.476   4.950   5.573 -0.7189 -0.6943  0.2936
  261SOL    HW1 1682   1.573   4.929   5.588 -1.0355 -0.5415  3.3345
  261SOL    HW2 1683   1.428   4.868   5.542  0.0651 -1.2873  0.6118
  262SOL     OW 1684   0.863   3.304   4.870  0.2975  0.5907 -0.2185
  262SOL    HW1 1685   0.873   3.318   4.968 -0.7113  0.1880 -0.0470
  262SOL    HW2 1686   0.919   3.226   4.841  0.5184  0.6495  0.0501
  263SOL     OW 1687   2.174   0.060   4.199 -0.0379 -0.1222 -0.1461
  263SOL    HW1 1688   2.259   0.007   4.204  0.3311  0.5216  0.5699
  263SOL    HW2 1689   2.123   0.033   4.117  1.5142  0.4756 -1.3667
  264SOL     OW 1690   0.045   3.488   4.783  0.1274  0.2648  0.4668
  264SOL    HW1 1691   0.010   3.436   4.861 -2.4538  2.1930  0.7151
  264SOL    HW2 1692  -0.000   3.456   4.700 -3.1151  3.1757  0.8648
  265SOL     OW 1693   0.165   0.402   3.137 -0.0747 -0.2618 -0.1443
  265SOL    HW1 1694   0.124   0.332   3.079 -0.4461  0.8558 -1.2757
  265SOL    HW2 1695   0.243   0.362   3.186 -0.7996 -1.6813 -0.0833
  266SOL     OW 1696   2.683   0.266   6.189 -0.5454 -0.3095  0.6189
  266SOL    HW1 1697   2.658   0.266   6.286  0.9409  1.8239  1.0636
  266SOL    HW2 1698   2.668   0.357   6.151 -0.9825 -1.0880 -1.1477
  267SOL     OW 1699   4.299   6.909   1.993 -0.0624  0.2283  0.6725
  267SOL    HW1 1700   4.199   6.912   1.997 -0.2260 -1.7848 -0.4034
  267SOL    HW2 1701   4.333   6.838   2.055  0.6252  0.1968  0.2683
  268SOL     OW 1702   4.677   2.208   1.235 -0.1958  0.4791  0.5947
  268SOL    HW1 1703   4.605   2.142   1.215  0.5247  0.2112 -1.2612
  268SOL    HW2 1704   4.646   2.300   1.211  0.1222  0.3481 -0.3218
  269SOL     OW 1705   5.477   6.993   0.036  0.0608 -0.2080  0.2608
  269SOL    HW1 1706   5.514   6.902   0.060  0.1032 -0.6690 -1.4661
  269SOL    HW2 1707   5.540   7.063   0.069  1.1804 -0.8972 -0.3421
  270SOL     OW 1708   5.180   6.573   6.434  0.6327  0.5522 -0.1437
  270SOL    HW1 1709   5.148   6.660   6.473  1.2247  0.6091  0.2105
  270SOL    HW2 1710   5.254   6.536   6.490  0.1854 -0.3383 -0.1193
  271SOL     OW 1711   6.037   4.637   5.752  0.0678  0.1781  0.0219
  271SOL    HW1 1712   5.962   4.576   5.778  0.4877 -0.7583 -0.8871
  271SOL    HW2 1713   6.079   4.603   5.667  2.9441 -0.6046  1.6459
  272SOL     OW 1714   3.278   5.485   3.595 -0.3525 -0.3079 -0.0761
  272SOL    HW1 1715   3.315   5.561   3.648  2.4371 -1.1399 -0.6342
  272SOL    HW2 1716   3.277   5.509   3.498  0.6607 -0.9485 -0.2700
  273SOL     OW 1717   1.236   5.640   0.051  0.0439  0.2827 -0.1915
  273SOL    HW1 1718   1.264   5.618  -0.043 -1.5471  1.9241 -1.0961
  273SOL    HW2 1719   1.273   5.729   0.076 -0.3732  0.2951  0.3797
  274SOL     OW 1720   4.648   1.564   2.943 -0.6986  0.5042 -0.2578
  274SOL    HW1 1721   4.719   1.496   2.926 -1.5836 -0.4598 -0.2052
  274SOL    HW2 1722   4.689   1.655   2.953  0.4825  0.0010 -0.4977
  275SOL     OW 1723   6.218   2.003   1.132 -0.1105 -0.0145 -0.2287
  275SOL    HW1 1724   6.231   2.008   1.033  1.9479 -0.2290 -0.0178
  275SOL    HW2 1725   6.168   1.919   1.155  0.2945 -0.4909 -1.0438
  276SOL     OW 1726   0.550   5.591   4.135  0.3030 -0.1066  0.3108
  276SOL    HW1 1727   0.506   5.532   4.202 -1.3160 -2.2295 -2.4254
  276SOL    HW2 1728   0.495   5.674   4.123 -0.9794 -1.0353 -0.4060
  277SOL     OW 1729   2.368   0.630   2.004  0.2283  0.0168  0.3409
  277SOL    HW1 1730   2.411   0.547   1.969  0.8481 -0.3819  1.9952
  277SOL    HW2 1731   2.430   0.675   2.069  0.2821  2.2489 -1.1150
  278SOL     OW 1732   1.800   3.843   4.150  0.6222 -0.2594 -0.3526
  278SOL    HW1 1733   1.776   3.761   4.203 -2.0490  0.6370 -0.0249
  278SOL    HW2 1734   1.794   3.923   4.208  1.3070  0.3863 -1.1449
  279SOL     OW 1735   6.396   0.859   3.667  0.6208  0.2786 -0.1276
  279SOL    HW1 1736   6.444   0.786   3.716  0.5020  0.2894  0.0042
  279SOL    HW2 1737   6.304   0.829   3.642  0.2160  0.7197  0.7851
  280SOL     OW 1738   3.283   6.349   0.483  0.2158  0.8641 -0.2100
  280SOL    HW1 1739   3.345   6.271   0.493  1.1605  1.7834  1.6319
  280SOL    HW2 1740   3.248   6.375   0.573  0.3602  2.9264 -0.7098
  281SOL     OW 1741   1.496   5.978   1.481 -0.0980 -0.6384 -0.3932
  281SOL    HW1 1742   1.537   5.904   1.428  0.6443  1.1473 -2.4879
  281SOL    HW2 1743   1.556   6.059   1.476 -2.4201  1.1358 -1.0299
  282SOL     OW 1744   1.518   1.177   5.404 -0.0021 -0.1263 -0.0375
  282SOL    HW1 1745   1.571   1.246   5.453  1.3182  0.6039 -2.3023
  282SOL    HW2 1746   1.424   1.177   5.437  0.3785  1.5939  1.1719
  283SOL     OW 1747   1.986   3.632   0.134 -0.6487 -0.0632  0.3261
  283SOL    HW1 1748   1.952   3.724   0.157 -1.6261 -0.1298 -0.7250
  283SOL    HW2 1749   1.960   3.568   0.206 -0.2369  0.4217  0.9150
  284SOL     OW 1750   1.225   4.047   5.310  0.2577 -0.5734 -0.2058
  284SOL    HW1 1751   1.246   3.957   5.271  1.6805 -0.1213 -0.5387
  284SOL    HW2 1752   1.186   4.035   5.401 -0.7773 -1.5586 -0.7466
  285SOL     OW 1753   4.870   3.741   3.995 -0.3190  0.0759  0.0655
  285SOL    HW1 1754   4.865   3.649   4.035  1.0033  0.6896  1.7316
  285SOL    HW2 1755   4.895   3.807   4.065  0.9934  1.3855 -1.5400
  286SOL     OW 1756   1.950   3.835   1.966  0.7216  0.0306 -0.3727
  286SOL    HW1 1757   1.892   3.888   2.028  1.5259  0.8089 -0.2709
  286SOL    HW2 1758   1.922   3.852   1.871  0.0057 -0.5493 -0.2767
  287SOL     OW 1759   1.286   3.120   1.151  0.3230 -0.4192 -0.2120
  287SOL    HW1 1760   1.191   3.130   1.180  0.2010 -1.4480 -0.2145
  287SOL    HW2 1761   1.344   3.181   1.204 -0.5557  1.6755 -1.5423
  288SOL     OW 1762   5.472   1.947   2.148 -0.1598  0.3012  0.2388
  288SOL    HW1 1763   5.386   1.910   2.184  0.4506 -1.5558 -0.1356
  288SOL    HW2 1764   5.542   1.944   2.220  0.5345 -1.5767 -0.4780
  289SOL     OW 1765   4.817   6.382   6.625 -0.4419 -0.1520  0.0342
  289SOL    HW1 1766   4.797   6.472   6.663  0.7971 -0.0983  0.6342
  289SOL    HW2 1767   4.868   6.393   6.540  2.0959 -0.2133  1.4463
  290SOL     OW 1768   1.275   1.152   5.786  0.1722 -0.0044  0.6442
  290SOL    HW1 1769   1.333   1.212   5.841  1.0010 -2.2556  2.4021
  290SOL    HW2 1770   1.191   1.131   5.836 -0.0697 -0.3856  0.0971
  291SOL     OW 1771   5.121   1.185   1.708 -0.4843  0.3486  0.3341
  291SOL    HW1 1772   5.055   1.219   1.775 -1.5239  0.5248 -0.7442
  291SOL    HW2 1773   5.081   1.108   1.658  0.6837 -0.4729  0.6307
  292SOL     OW 1774   4.828   0.561   2.796  0.2399 -0.5374  0.0731
  292SOL    HW1 1775   4.876   0.482   2.758  0.7592  0.8790 -2.4719
  292SOL    HW2 1776   4.787   0.613   2.722 -0.1507  1.5561  1.6636
  293SOL     OW 1777   2.400   4.836   2.228 -0.3379 -0.0624  0.8012
  293SOL    HW1 1778   2.412   4.896   2.149 -0.0266 -2.0733 -0.7576
  293SOL    HW2 1779   2.471   4.765   2.227 -1.7369 -1.5369  1.5145
  294SOL     OW 1780   4.704   1.536   0.126 -0.2319 -0.0094 -0.1487
  294SOL    HW1 1781   4.793   1.508   0.163 -0.6721 -2.0018 -0.5100
  294SOL    HW2 1782   4.679   1.625   0.164  2.4212  1.1553 -0.8958
  295SOL     OW 1783   5.640   0.782   5.097  0.2102 -0.0965 -0.2631
  295SOL    HW1 1784   5.628   0.867   5.148  1.3860 -0.2982  0.3845
  295SOL    HW2 1785   5.557   0.763   5.044 -0.7718  0.5193  0.9783
  296SOL     OW 1786   2.374   2.799   4.077  0.1350  0.0996  0.2443
  296SOL    HW1 1787   2.314   2.751   4.013 -1.9495  2.3930  0.3258
  296SOL    HW2 1788   2.415   2.734   4.141 -0.3963 -1.8189 -1.2875
  297SOL     OW 1789   2.330   4.190   2.563  0.1138  0.1488 -0.0699
  297SOL    HW1 1790   2.374   4.255   2.501 -1.9769  0.5480 -1.2322
  297SOL    HW2 1791   2.279   4.122   2.509 -1.2237  0.1096  1.1956
  298SOL     OW 1792   0.865   4.976   1.446  0.1007  0.1226  0.1105
  298SOL    HW1 1793   0.926   5.004   1.520  0.1461  0.6751 -0.1239
  298SOL    HW2 1794   0.884   4.882   1.420  1.6522  0.6369 -0.7328
  299SOL     OW 1795   5.574   3.095   2.862 -0.3431 -0.0329  0.3984
  299SOL    HW1 1796   5.631   3.032   2.915  0.6979  1.4829  1.1168
  299SOL    HW2 1797   5.478   3.075   2.880 -0.0360  0.6512  3.1934
  300SOL     OW 1798   6.734   1.106   2.598  0.1120 -0.0488 -0.5319
  300SOL    HW1 1799   6.698   1.045   2.669 -0.4072  0.2767 -0.5112
  300SOL    HW2 1800   6.658   1.140   2.543  0.0278  2.7650  1.1475
  301SOL     OW 1801   3.754   3.365   5.720  0.0855 -0.2117 -0.2905
  301SOL    HW1 1802   3.736   3.341   5.625 -1.2451 -0.0294 -0.0941
  301SOL    HW2 1803   3.670   3.361   5.773  0.6682  0.4157  0.7309
  302SOL     OW 1804   0.579   4.501   5.710 -0.0045  0.4017  0.0134
  302SOL    HW1 1805   0.502   4.493   5.646  1.1649 -1.4689 -1.2566
  302SOL    HW2 1806   0.663   4.519   5.660  0.7908 -0.0674  1.1310
  303SOL     OW 1807   5.881   0.614   3.475  0.3586 -0.2502  0.2499
  303SOL    HW1 1808   5.877   0.544   3.547  1.7605 -0.5890  0.0312
  303SOL    HW2 1809   5.823   0.586   3.398 -0.1064 -0.5353  0.6947
  304SOL     OW 1810   4.278   1.182   4.688 -0.0227  0.6191  0.0206
  304SOL    HW1 1811   4.210   1.255   4.685  0.3973  1.1043  1.6022
  304SOL    HW2 1812   4.238   1.100   4.727  0.1172  0.6971  0.3278
  305SOL     OW 1813   1.387   3.764   6.730 -0.6530  0.1012  0.4529
  305SOL    HW1 1814   1.398   3.780   6.632  0.1612  0.6687  0.6258
  305SOL    HW2 1815   1.403   3.667   6.750 -0.7223  0.0039  0.0383
  306SOL     OW 1816   1.914   1.305   3.645 -0.7169 -0.8311 -0.6162
  306SOL    HW1 1817   1.846   1.247   3.690 -0.1088 -1.1986 -0.1461
  306SOL    HW2 1818   1.968   1.250   3.581  0.6549 -1.0978  0.7035
  307SOL     OW 1819   2.166   6.353   1.362 -0.4895 -0.4422  0.3269
  307SOL    HW1 1820   2.164   6.373   1.460  3.0573 -0.6732  0.5782
  307SOL    HW2 1821   2.112   6.270   1.344 -1.4010 -0.2533  1.9926
  308SOL     OW 1822   6.782   5.063   3.379  0.6202 -0.2552 -0.1062
  308SOL    HW1 1823   6.687   5.086   3.395  1.2159  0.6675  2.5980
  308SOL    HW2 1824   6.841   5.132   3.420  2.4769 -1.4081 -0.6868
  309SOL     OW 1825   4.397   4.354   5.545  0.8077  0.7420 -0.3844
  309SOL    HW1 1826   4.469   4.290   5.571  0.9399  0.3578 -1.6300
  309SOL    HW2 1827   4.381   4.348   5.446 -0.6838  1.0731 -0.1938
  310SOL     OW 1828   6.350   0.357   0.010  0.0518 -0.0746  0.4247
  310SOL    HW1 1829   6.393   0.291   0.071 -1.0551 -0.8260  0.4088
  310SOL    HW2 1830   6.276   0.404   0.058 -1.4635 -1.3522 -0.5669
  311SOL     OW 1831   0.307   0.492   2.855 -0.2028  0.4119 -0.1540
  311SOL    HW1 1832   0.341   0.583   2.829  1.3091 -0.0910 -0.0358
  311SOL    HW2 1833   0.246   0.501   2.934  0.4961  1.2670  0.3079
  312SOL     OW 1834   4.412   0.681   6.798 -0.4022  0.6371  0.3850
  312SOL    HW1 1835   4.496   0.724   6.763 -0.4494  0.7492  0.4080
  312SOL    HW2 1836   4.433   0.629   6.881  0.0371 -1.0529 -0.7395
  313SOL     OW 1837   0.038   5.348   2.113  0.4802  0.0219  0.0570
  313SOL    HW1 1838   0.133   5.377   2.113  0.4500  0.1209 -0.0418
  313SOL    HW2 1839   0.021   5.290   2.192  0.5429  0.2578  0.2444
  314SOL     OW 1840   1.532   5.476   3.329  0.0952 -0.2616 -0.0691
  314SOL    HW1 1841   1.509   5.572   3.317  2.4554  0.1874 -1.5450
  314SOL    HW2 1842   1.546   5.457   3.426 -1.2905  0.6095  0.3300
  315SOL     OW 1843   6.993   4.655   2.116  0.0752  0.2025  0.1119
  315SOL    HW1 1844   6.999   4.663   2.216 -0.3917 -0.2221  0.1832
  315SOL    HW2 1845   7.045   4.575   2.086 -0.6485 -0.2897  0.1388
  316SOL     OW 1846   1.341   2.638   3.549 -0.5334 -0.4499 -0.4059
  316SOL    HW1 1847   1.308   2.611   3.639 -0.1849  0.5999  0.0518
  316SOL    HW2 1848   1.394   2.723   3.556  0.1868 -0.7840 -1.4850
  317SOL     OW 1849   0.615   1.879   0.064  0.1919  0.5689  0.8646
  317SOL    HW1 1850   0.624   1.787   0.102  0.2612  0.5487  0.7983
  317SOL    HW2 1851   0.538   1.880  -0.000  0.1218  0.5848  0.9482
  318SOL     OW 1852   2.916   2.403   0.369 -0.4587  0.4280  0.1581
  318SOL    HW1 1853   2.865   2.333   0.319  0.2090  0.2327 -0.2546
  318SOL    HW2 1854   2.960   2.466   0.305 -0.8308  1.0741  0.5224
  319SOL     OW 1855   6.655   2.914   4.231  0.0543 -0.4749 -0.5987
  319SOL    HW1 1856   6.685   2.856   4.155  0.8032 -0.2197 -0.5069
  319SOL    HW2 1857   6.717   2.901   4.309  1.8668  2.3895 -1.4458
  320SOL     OW 1858   4.300   3.604   1.271 -0.2329  0.3025 -0.1049
  320SOL    HW1 1859   4.316   3.537   1.343 -2.1440 -0.2590 -0.1515
  320SOL    HW2 1860   4.342   3.573   1.186 -0.5700 -0.5386  0.0340
  321SOL     OW 1861   1.799   0.144   0.513 -0.5618  0.0118 -0.7619
  321SOL    HW1 1862   1.800   0.057   0.562  0.5918  1.1695  1.3955
  321SOL    HW2 1863   1.841   0.131   0.423  0.3467 -1.4983 -0.1672
  322SOL     OW 1864   2.338   3.533   5.332  0.1604 -0.1222  0.1461
  322SOL    HW1 1865   2.432   3.565   5.328  0.0828 -0.0389 -1.1356
  322SOL    HW2 1866   2.337   3.436   5.357  0.5806 -0.1457  0.0746
  323SOL     OW 1867   1.230   4.397   3.330 -0.2689 -0.2061  0.0735
  323SOL    HW1 1868   1.279   4.432   3.409 -1.5571  1.9744  0.0003
  323SOL    HW2 1869   1.157   4.335   3.361 -0.1501 -0.1279  0.5186
  324SOL     OW 1870   1.824   3.793   3.675  0.1800 -0.0914 -0.2715
  324SOL    HW1 1871   1.769   3.837   3.746  0.4920 -0.8013  0.4290
  324SOL    HW2 1872   1.921   3.803   3.698  0.3165  0.4361 -1.0631
  325SOL     OW 1873   1.232   0.653   2.589  0.0496  0.0569  0.4354
  325SOL    HW1 1874   1.152   0.684   2.641  0.1931  0.7053  0.2848
  325SOL    HW2 1875   1.299   0.727   2.585  0.8036 -0.5886  0.8332
  326SOL     OW 1876   1.239   4.910   5.122 -0.2054  0.6298  0.0539
  326SOL    HW1 1877   1.317   4.970   5.139  1.7366 -2.1706  1.7505
  326SOL    HW2 1878   1.200   4.880   5.210 -0.6727 -1.0929 -0.6941
  327SOL     OW 1879   6.711   2.812   5.575  0.5725 -0.6677 -0.5627
  327SOL    HW1 1880   6.710   2.731   5.633 -2.1523 -0.6639 -0.4724
  327SOL    HW2 1881   6.652   2.882   5.614 -0.4323 -0.2371 -2.7316
  328SOL     OW 1882   2.549   5.368   2.780 -0.0093  0.2750 -0.0123
  328SOL    HW1 1883   2.500   5.380   2.867  1.6777  0.5843  0.9221
  328SOL    HW2 1884   2.535   5.274   2.747 -2.3738  0.7327 -0.5437
  329SOL     OW 1885   3.649   3.163   2.257  0.0908 -0.8213  0.3315
  329SOL    HW1 1886   3.736   3.134   2.219  0.1769 -0.1882  0.0379
  329SOL    HW2 1887   3.582   3.088   2.249  0.1991 -0.8049 -0.7636
  330SOL     OW 1888   1.681   3.779   1.354 -0.2022 -0.7198  0.2407
  330SOL    HW1 1889   1.759   3.843   1.359 -0.0046 -1.0229  1.1600
  330SOL    HW2 1890   1.715   3.686   1.347 -0.4947 -0.7614 -0.7463
  331SOL     OW 1891   5.214   4.250   3.864 -0.1153  0.2218 -0.1339
  331SOL    HW1 1892   5.213   4.286   3.770  0.4842  1.7636  0.4239
  331SOL    HW2 1893   5.197   4.325   3.928  0.5545 -0.6252  1.0474
  332SOL     OW 1894   3.195   0.361   4.384 -0.1926 -0.1594 -0.1814
  332SOL    HW1 1895   3.134   0.415   4.326 -0.1596 -0.1223 -0.1814
  332SOL    HW2 1896   3.269   0.322   4.328 -1.0984 -1.5328 -0.4895
  333SOL     OW 1897   4.001   5.399   1.996 -0.2078 -0.5544 -0.4832
  333SOL    HW1 1898   3.911   5.381   1.957 -0.8211  0.2927  0.5089
  333SOL    HW2 1899   3.992   5.454   2.079  1.2897  0.6663 -1.0594
  334SOL     OW 1900   5.743   1.115   3.528 -0.8256  0.1984  0.2458
  334SOL    HW1 1901   5.669   1.096   3.463  0.4825 -0.9376 -0.9585
  334SOL    HW2 1902   5.783   1.029   3.558 -0.4619  0.7777  1.4745
  335SOL     OW 1903   4.730   1.458   1.928 -0.0053  0.5793 -0.2027
  335SOL    HW1 1904   4.677   1.507   1.997 -0.3122 -0.7309  0.5160
  335SOL    HW2 1905   4.671   1.433   1.852  0.2535  1.7053 -0.7904
  336SOL     OW 1906   3.844   0.636   6.670  0.0493 -0.8428  0.4090
  336SOL    HW1 1907   3.938   0.639   6.705 -0.1743 -2.3864  1.1856
  336SOL    HW2 1908   3.781   0.668   6.740 -0.2728 -2.7148  1.0263
  337SOL     OW 1909   1.925   4.276   3.542  0.8068 -0.0015  0.4874
  337SOL    HW1 1910   1.896   4.370   3.554  0.4013 -0.1727  0.8656
  337SOL    HW2 1911   1.954   4.262   3.447 -2.5961 -0.4211 -0.6173
  338SOL     OW 1912   1.881   2.659   1.387 -0.6412  0.6720 -0.3099
  338SOL    HW1 1913   1.893   2.614   1.475  0.0315 -0.5105 -0.9720
  338SOL    HW2 1914   1.971   2.673   1.344 -1.0523 -0.9126 -1.8094
  339SOL     OW 1915   2.556   0.203   3.536 -0.1566 -0.2046  0.2787
  339SOL    HW1 1916   2.647   0.167   3.516 -0.0320  0.1925  0.1157
  339SOL    HW2 1917   2.553   0.236   3.631 -0.5073 -1.3554  0.6802
  340SOL     OW 1918   4.392   4.257   5.302 -0.0606 -0.7808 -0.2306
  340SOL    HW1 1919   4.323   4.185   5.295 -1.1810  0.3514 -1.7987
  340SOL    HW2 1920   4.361   4.337   5.249  1.2129  0.7796  1.2695
  341SOL     OW 1921   4.381   4.340   6.082  0.3151  0.3881 -0.1359
  341SOL    HW1 1922   4.474   4.347   6.117  0.2574  1.4452 -0.1566
  341SOL    HW2 1923   4.327   4.417   6.115 -0.2665  0.3513 -0.9666
  342SOL     OW 1924   4.725   3.771   5.625 -0.2817  0.0491  0.6733
  342SOL    HW1 1925   4.693   3.768   5.530  0.2442  0.9918  0.4580
  342SOL    HW2 1926   4.820   3.802   5.627 -0.1946 -0.2581  1.4936
  343SOL     OW 1927   3.947   1.035   2.981  0.3426  0.4775  0.8704
  343SOL    HW1 1928   3.899   1.105   3.033 -0.3461 -0.3523  1.3853
  343SOL    HW2 1929   3.885   0.959   2.962 -0.5643  2.0765 -4.1331
  344SOL     OW 1930   6.329   6.242   7.000 -0.4885  0.7590  0.6024
  344SOL    HW1 1931   6.370   6.159   7.038  0.3250  0.8126 -0.1160
  344SOL    HW2 1932   6.263   6.216   6.929  0.3195  0.7248 -0.1568
  345SOL     OW 1933   2.029   1.167   6.567  0.0158 -0.0675  0.1798
  345SOL    HW1 1934   2.119   1.132   6.544  1.1699  1.6059  1.8201
  345SOL    HW2 1935   1.993   1.119   6.647  1.0686  1.5654  1.6923
  346SOL     OW 1936   3.328   1.632   6.100 -0.3068 -0.3170 -0.1966
  346SOL    HW1 1937   3.236   1.616   6.066 -0.7960  0.5065  0.7141
  346SOL    HW2 1938   3.394   1.596   6.034 -1.2571 -0.4178 -1.1179
  347SOL     OW 1939   4.944   0.149   3.753 -0.1007  0.1549  0.8537
  347SOL    HW1 1940   4.913   0.064   3.795  0.2179 -0.5865 -0.3556
  347SOL    HW2 1941   4.865   0.205   3.728 -0.4285 -0.7337 -0.2071
  348SOL     OW 1942   1.171   6.157   5.075  0.3115  0.2468  0.6152
  348SOL    HW1 1943   1.262   6.191   5.099 -0.2282  0.1297  3.0324
  348SOL    HW2 1944   1.103   6.225   5.099 -0.2213  1.1595 -2.9307
  349SOL     OW 1945   1.632   0.486   3.459 -0.0352 -0.0614 -0.2488
  349SOL    HW1 1946   1.542   0.443   3.454 -0.4822  0.9591 -2.0937
  349SOL    HW2 1947   1.630   0.561   3.526  0.0170 -1.2093  1.0786
  350SOL     OW 1948   3.288   2.305   0.588  0.2160 -0.1303 -0.1966
  350SOL    HW1 1949   3.287   2.214   0.546  1.0045 -0.3903  0.3229
  350SOL    HW2 1950   3.241   2.302   0.676 -2.9733  0.7941 -1.7171
  351SOL     OW 1951   4.355   1.799   6.577  0.5839 -0.3287  0.4914
  351SOL    HW1 1952   4.389   1.717   6.622  1.5631 -1.0099 -1.3867
  351SOL    HW2 1953   4.432   1.852   6.542 -0.0782  1.0203  1.0117
  352SOL     OW 1954   3.911   1.106   0.810  0.3046  0.3772  0.0595
  352SOL    HW1 1955   3.877   1.012   0.806 -1.0100  0.8650 -1.3660
  352SOL    HW2 1956   3.847   1.166   0.762  1.8934  1.7731 -0.4059
  353SOL     OW 1957   4.579   0.616   1.435 -0.2494  0.2036  0.1108
  353SOL    HW1 1958   4.673   0.647   1.449  0.0630 -0.4810 -0.4687
  353SOL    HW2 1959   4.560   0.610   1.337 -0.4156 -1.1025  0.2153
  354SOL     OW 1960   6.113   2.744   2.291 -0.5358  0.1420 -0.1237
  354SOL    HW1 1961   6.090   2.842   2.295 -0.3834  0.3838 -2.7793
  354SOL    HW2 1962   6.181   2.723   2.360 -2.0094  1.4510  1.8269
  355SOL     OW 1963   0.553   0.970   2.005 -0.0285  0.4525  0.4236
  355SOL    HW1 1964   0.509   0.880   2.007  1.2732 -0.2463 -0.3703
  355SOL    HW2 1965   0.516   1.027   2.077 -0.0381 -1.1372  1.7383
  356SOL     OW 1966   3.485   6.685   2.972 -0.7446  0.6284 -0.4321
  356SOL    HW1 1967   3.545   6.661   2.895 -1.2773 -2.3407 -0.0582
  356SOL    HW2 1968   3.538   6.734   3.041  1.6918 -2.7140  0.3449
  357SOL     OW 1969   1.655   4.288   2.984 -0.2738  0.1107  0.0681
  357SOL    HW1 1970   1.718   4.354   3.026 -1.8577  3.0438 -1.7697
  357SOL    HW2 1971   1.565   4.296   3.027 -0.9273  0.4227 -1.3142
  358SOL     OW 1972   6.153   0.215   3.771 -0.4024 -0.5802 -0.0042
  358SOL    HW1 1973   6.128   0.303   3.811  1.0852  0.4172 -1.2198
  358SOL    HW2 1974   6.141   0.218   3.672  0.9129 -1.2948 -0.2093
  359SOL     OW 1975   6.637   3.039   1.362 -0.1825  0.1839  0.0455
  359SOL    HW1 1976   6.712   3.023   1.298  0.1928 -0.8367  0.7258
  359SOL    HW2 1977   6.632   3.137   1.383  1.9315  0.1123  1.1465
  360SOL     OW 1978   4.908   6.715   4.632  0.1347 -0.4147  0.1205
  360SOL    HW1 1979   4.991   6.748   4.677 -0.4241  0.5149  0.5092
  360SOL    HW2 1980   4.829   6.734   4.690 -0.3731 -1.1145 -0.3256
  361SOL     OW 1981   4.108   1.836   0.421 -0.3590  0.3185  0.1782
  361SOL    HW1 1982   4.105   1.871   0.327 -1.4405  0.1687  0.1394
  361SOL    HW2 1983   4.198   1.851   0.460 -0.2864  1.5705 -0.4371
  362SOL     OW 1984   1.030   3.932   0.543  0.2179  0.0124  0.2069
  362SOL    HW1 1985   1.087   4.014   0.534 -0.0878  0.3935  1.5219
  362SOL    HW2 1986   0.951   3.953   0.601 -0.9152 -0.6955 -1.0171
  363SOL     OW 1987   4.998   4.810   4.766  0.6520  0.0075  0.6077
  363SOL    HW1 1988   4.926   4.763   4.816 -0.4118  1.3475  0.3646
  363SOL    HW2 1989   4.959   4.861   4.689  1.9890 -0.1673 -0.2401
  364SOL     OW 1990   1.671   4.748   6.621  0.4220  0.0454 -0.3835
  364SOL    HW1 1991   1.681   4.649   6.623 -0.1111 -0.0025 -0.1107
  364SOL    HW2 1992   1.758   4.789   6.594  1.0342 -0.4293  0.7752
  365SOL     OW 1993   5.988   0.664   2.681  0.5438 -0.2079 -0.0854
  365SOL    HW1 1994   5.901   0.622   2.655  0.1816 -0.7558  1.8683
  365SOL    HW2 1995   6.064   0.612   2.642  0.1286  1.7716 -4.1229
  366SOL     OW 1996   2.823   1.401   2.299  0.5888 -0.0663 -0.1423
  366SOL    HW1 1997   2.799   1.322   2.242 -0.4561 -0.4024  0.7260
  366SOL    HW2 1998   2.807   1.485   2.247 -0.2747 -0.3679 -0.3855
  367SOL     OW 1999   5.845   2.434   1.370 -0.0210  0.1119 -0.4639
  367SOL    HW1 2000   5.924   2.431   1.430  0.5074 -1.1686 -1.1906
  367SOL    HW2 2001   5.873   2.459   1.278 -0.3653 -0.7995 -0.8356
  368SOL     OW 2002   0.462   0.030   6.287 -0.1005 -0.1896  0.0124
  368SOL    HW1 2003   0.377   0.035   6.236 -0.9265  0.1197  1.3819
  368SOL    HW2 2004   0.529  -0.023   6.234 -1.5386 -1.5505 -0.5122
  369SOL     OW 2005   1.835   4.926   3.154 -0.1202  0.5293  0.5731
  369SOL    HW1 2006   1.919   4.979   3.148  0.6796 -0.7641 -0.3694
  369SOL    HW2 2007   1.762   4.973   3.104  0.9225  0.1595 -1.4245
  370SOL     OW 2008   4.327   1.912   6.872  0.6219  0.3699 -0.4822
  370SOL    HW1 2009   4.302   1.918   6.775 -0.9128  1.0345 -0.0701
  370SOL    HW2 2010   4.351   1.818   6.894 -1.1906 -0.2741 -1.0428
  371SOL     OW 2011   2.527   2.786   5.945  0.1525  0.0877 -0.2894
  371SOL    HW1 2012   2.475   2.774   5.860  0.0553  2.7914 -0.7047
  371SOL    HW2 2013   2.624   2.770   5.927  0.3437  2.0516 -1.3751
  372SOL     OW 2014   4.332   6.886   1.585  0.1500 -0.4211 -0.7755
  372SOL    HW1 2015   4.348   6.798   1.629 -0.8788 -0.1257  0.2639
  372SOL    HW2 2016   4.413   6.943   1.593 -0.2649 -0.0778  1.5288
  373SOL     OW 2017   0.055   0.011   4.815 -0.4531 -0.0721 -0.3949
  373SOL    HW1 2018  -0.014  -0.043   4.863 -0.4547  0.9780  0.8214
  373SOL    HW2 2019   0.142   0.004   4.864 -0.5084  1.2000 -0.0822
  374SOL     OW 2020   4.491   0.175   6.943 -0.5495  0.4338  0.6015
  374SOL    HW1 2021   4.424   0.101   6.944 -0.6959  0.5598  0.3503
  374SOL    HW2 2022   4.578   0.142   6.979  0.6161 -1.0473 -3.0875
  375SOL     OW 2023   0.065   2.485   1.645 -0.2918 -0.4007 -0.4670
  375SOL    HW1 2024   0.061   2.403   1.702 -1.8476 -1.8886 -2.5940
  375SOL    HW2 2025   0.161   2.511   1.630  0.2037  0.4051  3.1655
  376SOL     OW 2026   1.173   4.804   4.094  0.2911 -0.5031 -0.5197
  376SOL    HW1 2027   1.269   4.784   4.116  0.7373  0.5133 -1.4521
  376SOL    HW2 2028   1.120   4.805   4.178  0.9318 -1.8443 -0.0564
  377SOL     OW 2029   4.183   0.671   4.549  0.3784  0.2361  0.3020
  377SOL    HW1 2030   4.250   0.725   4.600  0.4371 -0.0743  0.5646
  377SOL    HW2 2031   4.107   0.729   4.521  0.3651  0.4222  0.7150
  378SOL     OW 2032   5.998   3.192   6.531  0.1580  0.6408  0.4333
  378SOL    HW1 2033   5.925   3.147   6.480  0.1111  0.6271  0.5124
  378SOL    HW2 2034   6.055   3.123   6.576  0.5156  0.6253 -0.0281
  379SOL     OW 2035   6.758   1.239   0.154 -0.5072  0.2387  0.4964
  379SOL    HW1 2036   6.757   1.202   0.247  0.8626 -0.5879  0.1951
  379SOL    HW2 2037   6.747   1.164   0.088  0.7034  0.5379 -0.0680
  380SOL     OW 2038   6.300   2.266   6.812  0.1208  0.6854 -0.1809
  380SOL    HW1 2039   6.329   2.173   6.787  2.4561  1.0943  0.7486
  380SOL    HW2 2040   6.201   2.267   6.826  0.0961 -1.8111  0.3463
  381SOL     OW 2041   2.953   4.036   1.119 -0.1030  0.6451 -0.6769
  381SOL    HW1 2042   2.885   3.971   1.084  1.3708 -0.6925 -1.1388
  381SOL    HW2 2043   3.013   4.065   1.045  1.4028 -0.1593  0.1761
  382SOL     OW 2044   2.027   4.086   1.116  0.5004 -0.1545 -0.1353
  382SOL    HW1 2045   1.946   4.069   1.060  0.8548  0.2980 -0.8036
  382SOL    HW2 2046   2.098   4.129   1.059  1.4459 -1.1369  0.2691
  383SOL     OW 2047   5.103   1.767   0.746  0.3798 -0.1629  0.4623
  383SOL    HW1 2048   5.043   1.766   0.666 -0.8309  1.3843  1.3059
  383SOL    HW2 2049   5.195   1.798   0.719  0.4054 -1.0681 -0.5591
  384SOL     OW 2050   1.188   5.211   5.823  0.1106 -0.8442 -0.3813
  384SOL    HW1 2051   1.172   5.278   5.896 -0.8826 -0.8944 -0.5418
  384SOL    HW2 2052   1.118   5.222   5.752  0.7199 -1.1867 -1.0451
  385SOL     OW 2053   5.023   6.036   1.905 -0.1374 -0.5353 -0.3508
  385SOL    HW1 2054   5.019   5.936   1.912 -0.2381 -0.5755 -0.9318
  385SOL    HW2 2055   5.055   6.062   1.814  0.7084 -0.0399  0.0787
  386SOL     OW 2056   2.077   3.868   4.300 -0.1588 -0.2739  0.1583
  386SOL    HW1 2057   2.053   3.772   4.283  2.4444 -0.8540 -0.6659
  386SOL    HW2 2058   2.173   3.874   4.324 -0.1312  2.2210 -0.3787
  387SOL     OW 2059   0.065   6.920   3.422  0.3310 -0.1220  0.3153
  387SOL    HW1 2060   0.095   6.917   3.518 -0.6451  1.9879  0.7375
  387SOL    HW2 2061   0.088   6.833   3.378  0.9775 -1.0863  2.3972
  388SOL     OW 2062   2.153   2.384   5.122 -0.1014  0.1361  0.2006
  388SOL    HW1 2063   2.110   2.438   5.050  0.6824 -0.3839 -0.6833
  388SOL    HW2 2064   2.122   2.416   5.211 -0.1091  1.6350 -0.3225
  389SOL     OW 2065   5.282   4.282   3.289  0.6787  0.6955  0.3070
  389SOL    HW1 2066   5.192   4.240   3.280  1.2352 -0.5804  0.4582
  389SOL    HW2 2067   5.328   4.282   3.200  1.3024 -0.5180  0.6038
  390SOL     OW 2068   4.892   1.503   6.888 -0.0122  0.2797  0.1477
  390SOL    HW1 2069   4.880   1.582   6.947  0.1784  0.1656  0.3432
  390SOL    HW2 2070   4.816   1.440   6.900  0.9341 -0.6310  1.6745
  391SOL     OW 2071   3.884   3.937   4.475 -0.1701 -0.5046 -0.2290
  391SOL    HW1 2072   3.973   3.892   4.485  0.4881  0.9111  0.8112
  391SOL    HW2 2073   3.892   4.010   4.407 -0.6207 -0.5490 -0.3314
  392SOL     OW 2074   0.250   3.583   3.070 -0.4791  0.3028  0.1532
  392SOL    HW1 2075   0.300   3.498   3.055  2.3012  1.9552 -0.6315
  392SOL    HW2 2076   0.257   3.640   2.989  0.5839  2.6101  1.7563
  393SOL     OW 2077   1.847   5.962   1.085 -0.1220 -0.1704 -0.2032
  393SOL    HW1 2078   1.938   5.935   1.115  0.0683  0.0146 -0.6019
  393SOL    HW2 2079   1.810   5.893   1.022 -0.1375 -0.1062 -0.2657
  394SOL     OW 2080   4.410   3.416   5.801  0.0019  0.1315  0.1012
  394SOL    HW1 2081   4.313   3.400   5.821  0.0128  0.3857  0.3557
  394SOL    HW2 2082   4.465   3.393   5.881  0.1888 -0.3466 -0.1552
  395SOL     OW 2083   0.945   4.647   0.890 -0.4740  0.7851  0.4821
  395SOL    HW1 2084   0.931   4.739   0.927  1.6169  2.3431 -2.1819
  395SOL    HW2 2085   0.900   4.640   0.801  2.0729  0.5124 -0.8946
  396SOL     OW 2086   1.721   0.599   6.378 -0.2219 -0.1749 -0.0203
  396SOL    HW1 2087   1.622   0.615   6.373 -0.2361 -0.7212 -1.9116
  396SOL    HW2 2088   1.769   0.683   6.354 -0.1568  0.4508  2.0446
  397SOL     OW 2089   4.627   0.509   4.919 -0.1951  0.4480  0.3859
  397SOL    HW1 2090   4.710   0.473   4.877 -0.7501 -0.0598 -0.2992
  397SOL    HW2 2091   4.559   0.528   4.848 -0.8512  0.3777  0.9805
  398SOL     OW 2092   5.472   0.711   4.763 -1.0664 -0.5600 -0.4722
  398SOL    HW1 2093   5.536   0.734   4.690 -0.0969  0.0794  0.5541
  398SOL    HW2 2094   5.503   0.629   4.810 -0.3918  0.3465  0.7101
  399SOL     OW 2095   6.660   6.864   5.918  0.0496 -0.0778 -0.2146
  399SOL    HW1 2096   6.700   6.779   5.953 -2.7465 -1.2320  0.3992
  399SOL    HW2 2097   6.602   6.906   5.987 -0.7536  0.8904 -1.4217
  400SOL     OW 2098   2.481   1.330   3.501  0.5040 -0.1078 -0.2071
  400SOL    HW1 2099   2.537   1.357   3.423  2.5089  0.5888  1.3853
  400SOL    HW2 2100   2.514   1.242   3.536 -0.4248 -0.4495 -0.1556
  401SOL     OW 2101   2.621   4.579   3.622  0.1173 -0.3717 -0.3952
  401SOL    HW1 2102   2.629   4.547   3.528 -0.2048  0.0729 -0.5737
  401SOL    HW2 2103   2.559   4.518   3.672  0.8559 -1.0363 -0.2698
  402SOL     OW 2104   1.641   1.079   6.700 -0.4782 -0.3008 -0.5759
  402SOL    HW1 2105   1.655   1.101   6.604  0.8406 -0.1374 -0.3634
  402SOL    HW2 2106   1.625   1.163   6.752  1.7398 -0.0267 -0.2182
  403SOL     OW 2107   0.432   1.922   4.177 -0.0110  0.0457 -0.4636
  403SOL    HW1 2108   0.339   1.902   4.206  0.0439  1.1531  0.5639
  403SOL    HW2 2109   0.492   1.845   4.197 -0.4506 -0.1412  0.1307
  404SOL     OW 2110   1.844   6.175   4.385 -0.0168  0.1493  0.3403
  404SOL    HW1 2111   1.773   6.119   4.343 -0.5097  1.8615 -1.2279
  404SOL    HW2 2112   1.823   6.186   4.483 -1.8074  0.4332 -0.0361
  405SOL     OW 2113   3.917   5.246   4.618 -0.5386 -0.2677 -0.1763
  405SOL    HW1 2114   3.944   5.150   4.613 -0.7637 -0.2815 -1.4256
  405SOL    HW2 2115   3.993   5.304   4.589 -1.1334 -0.2092 -1.7338
  406SOL     OW 2116   1.383   0.559   0.899  0.1765 -0.3123 -0.5451
  406SOL    HW1 2117   1.348   0.525   0.812 -0.8341  1.8690 -1.0648
  406SOL    HW2 2118   1.478   0.590   0.887 -0.1523  0.5208 -1.0294
  407SOL     OW 2119   2.270   4.419   2.055 -0.0317 -0.7195  0.4557
  407SOL    HW1 2120   2.275   4.319   2.043  0.6889 -0.7073  0.6381
  407SOL    HW2 2121   2.332   4.463   1.991 -2.2914 -0.2271 -1.5297
  408SOL     OW 2122   2.211   1.843   1.630 -0.0621  0.2216  1.4348
  408SOL    HW1 2123   2.195   1.759   1.683  0.1519 -1.1374 -0.5281
  408SOL    HW2 2124   2.300   1.838   1.585 -0.8773  0.5562 -0.3128
  409SOL     OW 2125   6.366   3.151   1.981 -0.3756 -0.0884  0.5380
  409SOL    HW1 2126   6.339   3.247   1.983  0.6131  0.2319 -0.3796
  409SOL    HW2 2127   6.463   3.144   1.956 -0.2703 -1.3032  1.2188
  410SOL     OW 2128   1.231   4.397   2.043  0.2246  0.2671  0.1491
  410SOL    HW1 2129   1.296   4.375   2.116  0.2199  1.8135  0.6476
  410SOL    HW2 2130   1.140   4.412   2.083  0.2666  1.3468 -0.1335
  411SOL     OW 2131   6.107   6.949   0.460 -0.5677  0.4472  0.3151
  411SOL    HW1 2132   6.154   6.924   0.376 -0.9649  0.9207 -0.0531
  411SOL    HW2 2133   6.110   7.049   0.472 -0.0306  0.3492  1.1517
  412SOL     OW 2134   1.139   5.049   2.856 -0.1672 -0.2417 -0.2692
  412SOL    HW1 2135   1.238   5.039   2.843  0.1061  1.0918  0.5633
  412SOL    HW2 2136   1.114   5.014   2.947 -0.3571 -0.0222 -0.2366
  413SOL     OW 2137   6.102   4.559   3.842  0.1028  0.3109 -0.1751
  413SOL    HW1 2138   6.103   4.508   3.928 -0.5533  1.2858  0.4195
  413SOL    HW2 2139   6.094   4.656   3.860 -0.4330  0.5058 -1.3560
  414SOL     OW 2140   2.011   6.939   2.982  0.2542  0.0585  0.0511
  414SOL    HW1 2141   2.056   7.028   2.974  1.0749 -0.5212 -2.3211
  414SOL    HW2 2142   1.977   6.928   3.076  2.1305  1.8995  1.0369
  415SOL     OW 2143   5.198   1.394   2.408 -0.4423 -0.5446  0.1130
  415SOL    HW1 2144   5.099   1.407   2.409 -0.3130  0.6253 -0.4859
  415SOL    HW2 2145   5.242   1.480   2.383  0.6499 -1.4293 -1.1017
  416SOL     OW 2146   0.108   3.584   5.754 -0.2330 -0.2597  0.3073
  416SOL    HW1 2147   0.087   3.591   5.656  1.8868 -0.2294 -0.1885
  416SOL    HW2 2148   0.042   3.523   5.798  0.7414 -3.0768 -1.8496
  417SOL     OW 2149   3.010   1.475   6.745  0.1242  0.0699 -0.8335
  417SOL    HW1 2150   3.018   1.398   6.809  0.7442  0.1426 -0.8189
  417SOL    HW2 2151   3.052   1.556   6.785  1.3627 -0.1205 -1.7019
  418SOL     OW 2152   3.678   0.466   6.556  0.2945  0.3135  0.0270
  418SOL    HW1 2153   3.697   0.478   6.459  1.1526  0.0720  0.1488
  418SOL    HW2 2154   3.748   0.514   6.609  0.4002 -0.3659  0.5177
  419SOL     OW 2155   4.160   6.064   0.278  0.1529 -0.0909  0.4151
  419SOL    HW1 2156   4.172   6.135   0.348 -0.1491 -0.0988  0.4775
  419SOL    HW2 2157   4.130   6.106   0.193 -2.3876 -0.3573  1.1064
  420SOL     OW 2158   3.393   6.921   6.587 -0.1096 -0.2219  0.3735
  420SOL    HW1 2159   3.413   6.871   6.672  1.7981 -0.7269 -0.3054
  420SOL    HW2 2160   3.382   6.855   6.512  0.3584  0.2938 -0.1529
  421SOL     OW 2161   5.170   4.708   4.044  0.0371  0.2537  0.4412
  421SOL    HW1 2162   5.074   4.700   4.017  0.6852  0.2714 -2.1349
  421SOL    HW2 2163   5.178   4.775   4.119 -2.1847 -1.7354  2.6289
  422SOL     OW 2164   5.493   1.567   2.913  0.0848  0.4983  0.0401
  422SOL    HW1 2165   5.575   1.516   2.886 -1.3349 -1.7069 -0.3782
  422SOL    HW2 2166   5.441   1.592   2.831  0.1950  1.6851  0.3170
  423SOL     OW 2167   2.712   6.857   0.471  0.2789  0.6283  0.4678
  423SOL    HW1 2168   2.671   6.767   0.458  0.3664  0.8391 -1.8383
  423SOL    HW2 2169   2.769   6.879   0.392  0.7623  2.4500  1.2638
  424SOL     OW 2170   1.952   6.197   3.492  0.4831  0.3312  0.0882
  424SOL    HW1 2171   1.907   6.127   3.438  3.6259 -1.4805 -0.4117
  424SOL    HW2 2172   1.947   6.285   3.444 -2.6925  0.3910  0.2921
  425SOL     OW 2173   3.750   2.355   1.124  0.4946 -0.2661 -0.3008
  425SOL    HW1 2174   3.791   2.288   1.186  1.2074  1.4642  1.1870
  425SOL    HW2 2175   3.650   2.348   1.129  0.5307 -0.1105  1.1550
  426SOL     OW 2176   2.115   2.726   3.070  0.8376 -0.3185  0.3370
  426SOL    HW1 2177   2.120   2.646   3.011  1.3925 -0.2422  0.2711
  426SOL    HW2 2178   2.195   2.728   3.130  1.0200  0.3781  0.0820
  427SOL     OW 2179   4.960   0.638   4.908 -0.4841  0.0668  0.0035
  427SOL    HW1 2180   5.035   0.691   4.868 -0.1311  0.0543  0.6414
  427SOL    HW2 2181   4.892   0.701   4.946 -0.7888  0.0778 -0.5515
  428SOL     OW 2182   3.121   0.856   5.412  0.0687 -0.2101 -0.0251
  428SOL    HW1 2183   3.148   0.934   5.356  0.8435 -0.1155  0.4829
  428SOL    HW2 2184   3.115   0.882   5.508 -1.2068 -0.3909 -0.0266
  429SOL     OW 2185   6.314   6.960   4.465  0.0278 -0.4250  0.2205
  429SOL    HW1 2186   6.353   6.996   4.380  1.4339 -0.2857  0.8804
  429SOL    HW2 2187   6.381   6.971   4.538 -1.6471  0.7620  1.6746
  430SOL     OW 2188   2.694   6.584   3.691 -0.1422 -0.1559 -0.2158
  430SOL    HW1 2189   2.709   6.493   3.652 -2.7435 -1.0394  0.6655
  430SOL    HW2 2190   2.603   6.588   3.732 -0.1771  2.9542 -0.4197
  431SOL     OW 2191   0.359   1.920   0.502  0.5350 -0.3511 -0.1167
  431SOL    HW1 2192   0.387   1.838   0.452 -0.2021 -0.7736  0.1660
  431SOL    HW2 2193   0.439   1.961   0.545  1.5434  0.9304 -2.9149
  432SOL     OW 2194   1.272   0.598   1.778 -0.2736  0.4326  0.1211
  432SOL    HW1 2195   1.316   0.605   1.868 -1.2415 -0.2939  0.6772
  432SOL    HW2 2196   1.260   0.689   1.739  0.5816  0.7229  0.5201
  433SOL     OW 2197   1.174   4.275   6.572 -0.3969  0.1418 -0.6240
  433SOL    HW1 2198   1.155   4.279   6.474 -0.3878  0.0223 -0.6299
  433SOL    HW2 2199   1.211   4.185   6.596  1.0393  0.6587 -0.7766
  434SOL     OW 2200   3.001   5.099   2.833  0.5903 -0.1226  0.2598
  434SOL    HW1 2201   3.056   5.018   2.815 -0.9273 -0.8450 -1.4173
  434SOL    HW2 2202   3.061   5.178   2.847  2.0558 -0.8125 -1.7033
  435SOL     OW 2203   2.038   3.035   0.984  0.4044  0.1663  0.8423
  435SOL    HW1 2204   2.062   3.132   0.986  1.9677 -0.2002  2.4982
  435SOL    HW2 2205   1.940   3.025   1.002 -0.2587  1.4864 -1.5229
  436SOL     OW 2206   6.180   5.941   3.173 -0.4793 -0.1167 -0.1109
  436SOL    HW1 2207   6.121   5.954   3.253 -0.7695 -0.2653 -0.2980
  436SOL    HW2 2208   6.134   5.977   3.091 -1.1638 -1.9325 -0.5841
  437SOL     OW 2209   5.514   0.575   6.207  0.6678 -0.2947 -0.0835
  437SOL    HW1 2210   5.491   0.610   6.298  1.7716  1.4431 -0.4252
  437SOL    HW2 2211   5.533   0.651   6.145  1.9095 -1.4728 -1.2475
  438SOL     OW 2212   1.555   3.917   2.259  0.2655 -0.0413 -0.2628
  438SOL    HW1 2213   1.500   3.852   2.311 -0.8631  0.2773 -1.0308
  438SOL    HW2 2214   1.505   4.003   2.250  0.3560 -0.1348 -1.9960
  439SOL     OW 2215   0.864   2.031   6.349 -0.1794  0.0036 -0.0994
  439SOL    HW1 2216   0.916   1.984   6.419 -0.6233  0.1514  0.3327
  439SOL    HW2 2217   0.799   1.967   6.306 -2.3409  0.6668  1.9804
  440SOL     OW 2218   4.704   5.139   1.647 -0.3623 -0.7542 -0.2407
  440SOL    HW1 2219   4.772   5.111   1.579 -0.4260 -0.7329 -0.3126
  440SOL    HW2 2220   4.670   5.230   1.625  0.0448 -0.5025  0.1449
  441SOL     OW 2221   2.145   4.991   3.834 -0.0395  0.4868  0.1870
  441SOL    HW1 2222   2.165   5.010   3.738 -1.3109 -0.8847 -0.3874
  441SOL    HW2 2223   2.221   4.942   3.875  0.3989  0.8412 -0.1998
  442SOL     OW 2224   3.797   3.149   4.773 -0.6399  0.0955 -0.0126
  442SOL    HW1 2225   3.804   3.216   4.847  0.6378 -0.8719  0.7856
  442SOL    HW2 2226   3.845   3.183   4.692 -1.0291  0.6504 -0.0150
  443SOL     OW 2227   4.664   2.543   1.856 -0.2076 -0.1518 -0.0651
  443SOL    HW1 2228   4.651   2.642   1.847  0.3083 -0.0671  0.0895
  443SOL    HW2 2229   4.734   2.513   1.792 -0.8191 -0.5254 -0.5642
  444SOL     OW 2230   3.767   0.201   0.476 -0.0101 -0.4330 -0.5748
  444SOL    HW1 2231   3.718   0.238   0.556  1.9566 -0.1356  0.5550
  444SOL    HW2 2232   3.791   0.106   0.493  2.4877  0.2662  0.3197
  445SOL     OW 2233   1.657   5.943   2.411  0.7336  0.5689  0.3555
  445SOL    HW1 2234   1.608   5.856   2.412  1.3235  0.2279  1.7698
  445SOL    HW2 2235   1.605   6.010   2.358  0.6165 -0.8241 -1.3542
  446SOL     OW 2236   0.019   0.401   6.135  0.4600  0.1043 -0.7529
  446SOL    HW1 2237   0.060   0.401   6.044 -0.1492  0.1616 -1.0329
  446SOL    HW2 2238  -0.012   0.493   6.157 -0.0082 -0.0495 -0.7701
  447SOL     OW 2239   6.501   4.121   1.283 -0.6208  0.0925 -0.0841
  447SOL    HW1 2240   6.418   4.177   1.295 -1.8628 -1.4469 -1.0414
  447SOL    HW2 2241   6.495   4.041   1.344  0.8855  0.7008  0.9021
  448SOL     OW 2242   4.417   6.270   4.511  0.0622  0.4642 -0.3619
  448SOL    HW1 2243   4.441   6.173   4.517 -0.1995  0.3297 -1.4455
  448SOL    HW2 2244   4.344   6.290   4.576 -0.2271 -0.1735 -0.4827
  449SOL     OW 2245   0.837   5.574   4.180 -0.0518 -0.3048 -0.0319
  449SOL    HW1 2246   0.929   5.548   4.150 -0.1808 -0.0453 -0.6620
  449SOL    HW2 2247   0.770   5.538   4.115 -0.3431  0.1829 -0.0008
  450SOL     OW 2248   1.399   3.894   5.504 -0.3205  0.1084  0.3866
  450SOL    HW1 2249   1.428   3.982   5.467 -0.3649  0.1266  0.3952
  450SOL    HW2 2250   1.372   3.905   5.599  0.5651 -0.0901  0.6680
  451SOL     OW 2251   2.532   0.009   6.602  0.2410  0.1656 -0.0903
  451SOL    HW1 2252   2.490   0.008   6.693 -1.3933  0.7652 -0.8024
  451SOL    HW2 2253   2.524  -0.081   6.560  1.7934 -0.3604  0.6768
  452SOL     OW 2254   4.983   5.049   1.660 -0.3099  0.7069  0.1422
  452SOL    HW1 2255   4.973   5.139   1.703 -0.5093 -0.2623  2.2409
  452SOL    HW2 2256   4.931   4.981   1.712  0.4930 -0.7659 -0.9122
  453SOL     OW 2257   5.860   5.971   4.888  0.1600 -0.0392  0.5615
  453SOL    HW1 2258   5.826   5.901   4.950 -0.1322 -0.7835 -0.4006
  453SOL    HW2 2259   5.959   5.982   4.900 -0.3407  2.4719  3.7111
  454SOL     OW 2260   0.024   2.026   4.014 -0.3820  0.3621  0.6078
  454SOL    HW1 2261   0.005   2.107   4.070 -1.0076  0.2695  0.5350
  454SOL    HW2 2262   0.097   2.048   3.949 -0.6502  0.9257  0.4816
  455SOL     OW 2263   6.733   5.464   5.881  0.1744 -0.2767  0.0822
  455SOL    HW1 2264   6.701   5.535   5.818  0.6410  0.0491  0.2070
  455SOL    HW2 2265   6.826   5.486   5.911 -0.0358 -0.4325  0.8716
  456SOL     OW 2266   1.004   1.246   1.146  0.2729  0.7005 -0.6070
  456SOL    HW1 2267   1.089   1.269   1.193 -0.6698 -0.7664  2.0257
  456SOL    HW2 2268   1.019   1.168   1.085  0.8421  0.5461 -0.2713
  457SOL     OW 2269   3.261   4.792   0.827 -0.3267  0.2557 -0.1360
  457SOL    HW1 2270   3.351   4.750   0.812 -0.9198 -1.3490  0.5245
  457SOL    HW2 2271   3.254   4.821   0.923 -0.1049  1.4656 -0.4722
  458SOL     OW 2272   4.116   0.252   4.541 -0.6789 -0.3010  0.0318
  458SOL    HW1 2273   4.048   0.228   4.471  0.8014  1.2655 -2.0721
  458SOL    HW2 2274   4.071   0.301   4.615 -1.7484  1.9238 -1.9483
  459SOL     OW 2275   5.462   1.846   3.327 -0.2051  0.5609 -0.5116
  459SOL    HW1 2276   5.409   1.812   3.405  0.4911 -0.5752 -0.5006
  459SOL    HW2 2277   5.517   1.924   3.355  1.1088 -0.6845  0.5578
  460SOL     OW 2278   3.283   1.902   5.798 -0.2447  0.1264  0.9406
  460SOL    HW1 2279   3.362   1.892   5.859 -1.5812 -0.3588  2.6733
  460SOL    HW2 2280   3.224   1.975   5.832 -1.8542 -1.2454  1.2443
  461SOL     OW 2281   0.673   1.246   4.569 -0.0621 -0.1609  0.5658
  461SOL    HW1 2282   0.659   1.261   4.667 -0.1292  0.3435  0.4800
  461SOL    HW2 2283   0.592   1.276   4.519 -0.1469 -0.6945  0.3780
  462SOL     OW 2284   4.045   3.540   0.371  0.3236 -0.5987 -0.1499
  462SOL    HW1 2285   4.083   3.552   0.463 -1.1369 -0.0629  0.4140
  462SOL    HW2 2286   4.091   3.463   0.326  2.0571  0.0188  0.4582
  463SOL     OW 2287   0.800   6.875   2.483  0.6441  0.1762  0.0119
  463SOL    HW1 2288   0.845   6.964   2.490  1.7584 -0.4490  1.0961
  463SOL    HW2 2289   0.782   6.840   2.575 -0.9828 -0.1525 -0.3938
  464SOL     OW 2290   5.183   6.988   3.270  0.4495  0.0587 -0.1346
  464SOL    HW1 2291   5.113   7.059   3.268  2.1841  1.8619 -0.2184
  464SOL    HW2 2292   5.177   6.932   3.187  0.1756  1.2626 -0.9469
  465SOL     OW 2293   6.381   6.521   6.925 -0.4220 -0.1840 -0.4433
  465SOL    HW1 2294   6.347   6.432   6.956 -2.5563 -0.1956 -2.5664
  465SOL    HW2 2295   6.365   6.589   6.996  2.1471 -1.5641  1.6346
  466SOL     OW 2296   5.866   3.480   4.538 -0.3242  0.3867  0.8260
  466SOL    HW1 2297   5.929   3.558   4.541  0.3432  0.1430 -2.4460
  466SOL    HW2 2298   5.833   3.468   4.444 -1.6055 -2.3582  1.5329
  467SOL     OW 2299   0.223   5.907   0.710 -0.5111  0.0600  0.5181
  467SOL    HW1 2300   0.169   5.849   0.651  0.5143 -0.0713 -0.3168
  467SOL    HW2 2301   0.253   5.855   0.790 -0.8148 -0.1373  0.5030
  468SOL     OW 2302   2.997   5.971   6.859 -0.6976 -0.3158  0.2135
  468SOL    HW1 2303   2.978   6.064   6.892 -0.1498 -0.5238  1.1376
  468SOL    HW2 2304   3.095   5.956   6.857 -0.8008 -1.0891  0.6636
  469SOL     OW 2305   5.258   4.306   5.800 -0.2523 -0.1856  0.3112
  469SOL    HW1 2306   5.333   4.322   5.735  0.0865 -0.4297  0.6400
  469SOL    HW2 2307   5.249   4.208   5.817 -1.4224 -0.2644 -0.6256
  470SOL     OW 2308   1.023   5.311   1.004 -0.2359 -0.3069  0.3021
  470SOL    HW1 2309   0.965   5.274   0.932  0.3680  0.9550 -0.8783
  470SOL    HW2 2310   0.996   5.273   1.092 -1.6770 -1.0812 -0.4495
  471SOL     OW 2311   1.190   3.538   3.716 -0.3386  0.3707 -0.4423
  471SOL    HW1 2312   1.224   3.449   3.685 -0.9166 -0.5369  1.3995
  471SOL    HW2 2313   1.211   3.607   3.646  1.7051 -0.8552 -1.1568
  472SOL     OW 2314   3.477   3.879   5.147 -0.0030  0.3395 -0.3847
  472SOL    HW1 2315   3.414   3.802   5.145 -0.0724  0.3704  0.2785
  472SOL    HW2 2316   3.462   3.933   5.230  2.2418 -0.8049  0.8637
  473SOL     OW 2317   5.399   3.473   2.939 -0.1156 -0.1443 -0.4065
  473SOL    HW1 2318   5.301   3.451   2.946 -0.9457  3.3836  0.6891
  473SOL    HW2 2319   5.414   3.567   2.967  4.0423 -1.3194  2.2017
  474SOL     OW 2320   6.447   5.468   5.054 -0.2652  0.2426  0.1661
  474SOL    HW1 2321   6.527   5.426   5.013 -0.5953 -0.0694 -0.1604
  474SOL    HW2 2322   6.379   5.397   5.075 -0.6468  0.5592  0.0093
  475SOL     OW 2323   3.900   0.673   2.498  0.2456 -0.0446 -0.3970
  475SOL    HW1 2324   3.824   0.693   2.436 -0.5026 -1.9575 -0.1609
  475SOL    HW2 2325   3.880   0.710   2.589 -1.2040 -1.8973  0.0966
  476SOL     OW 2326   1.742   3.490   1.311 -0.4831 -0.0036  0.2422
  476SOL    HW1 2327   1.665   3.446   1.358 -0.9568 -0.8248 -1.2367
  476SOL    HW2 2328   1.828   3.456   1.350 -0.8509 -0.1021  0.9993
  477SOL     OW 2329   5.811   6.890   4.481  0.0111 -0.3066  0.6141
  477SOL    HW1 2330   5.724   6.939   4.493  0.5074  0.3588  1.5746
  477SOL    HW2 2331   5.859   6.885   4.568  0.8163 -0.9320  0.1492
  478SOL     OW 2332   5.714   5.997   1.168 -0.6672 -0.1674 -0.7325
  478SOL    HW1 2333   5.669   5.919   1.211  0.8196 -0.3358  0.6117
  478SOL    HW2 2334   5.813   5.982   1.168 -0.5376  0.1476 -3.6755
  479SOL     OW 2335   3.382   3.268   3.553  0.0695  0.1657 -0.0757
  479SOL    HW1 2336   3.428   3.283   3.640  0.3066 -0.2841 -0.1186
  479SOL    HW2 2337   3.332   3.181   3.556  2.3162 -1.2560 -1.3057
  480SOL     OW 2338   6.483   0.726   0.302 -0.8145  0.1268 -0.4290
  480SOL    HW1 2339   6.452   0.819   0.287  0.4661  0.8644  1.2475
  480SOL    HW2 2340   6.563   0.708   0.244 -0.7829  0.2211 -0.4148
  481SOL     OW 2341   4.045   5.683   6.829 -0.0400 -0.0604  0.4003
  481SOL    HW1 2342   4.133   5.675   6.877 -0.9731 -0.7054  2.0922
  481SOL    HW2 2343   4.019   5.593   6.794  0.1462  0.2150 -0.4809
  482SOL     OW 2344   4.211   6.033   3.300  0.5473  0.1598 -0.5354
  482SOL    HW1 2345   4.156   6.072   3.226 -0.5895  0.6781  0.5456
  482SOL    HW2 2346   4.222   5.935   3.285 -0.1873  0.1496 -1.0927
  483SOL     OW 2347   4.880   2.667   5.494  0.6155  0.1708 -0.1620
  483SOL    HW1 2348   4.845   2.595   5.553  3.2818 -1.1964 -0.1323
  483SOL    HW2 2349   4.919   2.740   5.550  0.3818  0.3518 -0.2314
  484SOL     OW 2350   3.777   5.820   5.981  0.2016 -0.3686  0.2017
  484SOL    HW1 2351   3.808   5.727   5.960 -0.3022 -0.2978 -0.9071
  484SOL    HW2 2352   3.688   5.835   5.940  0.8140  1.0074 -0.6913
  485SOL     OW 2353   4.359   0.271   1.107 -0.0657  0.1528  0.6826
  485SOL    HW1 2354   4.322   0.185   1.073 -0.8210  1.1481 -1.1757
  485SOL    HW2 2355   4.459   0.267   1.108 -0.0908 -0.6617  0.4254
  486SOL     OW 2356   5.867   0.979   5.756  0.3007 -0.0879 -0.1616
  486SOL    HW1 2357   5.923   0.966   5.837 -1.1241  1.1181  1.0946
  486SOL    HW2 2358   5.877   1.074   5.724 -1.6941  0.4774  0.7089
  487SOL     OW 2359   5.847   1.943   0.592 -0.1843 -0.4904 -0.4015
  487SOL    HW1 2360   5.772   1.996   0.632 -0.2262 -2.2204  2.0002
  487SOL    HW2 2361   5.854   1.964   0.495 -2.4893  1.1774 -0.2870
  488SOL     OW 2362   3.075   6.343   5.153 -0.3316  0.5925  0.2613
  488SOL    HW1 2363   3.088   6.264   5.213  0.2843 -0.3100 -1.0048
  488SOL    HW2 2364   3.035   6.313   5.066  0.2809  1.5913 -0.3949
  489SOL     OW 2365   2.337   4.147   5.576  0.3885 -0.3185 -0.0893
  489SOL    HW1 2366   2.408   4.096   5.625 -1.0606 -1.3047  1.0913
  489SOL    HW2 2367   2.267   4.083   5.544 -0.9014  0.7832  0.4132
  490SOL     OW 2368   6.985   3.260   3.801 -0.6793 -0.1497  0.0666
  490SOL    HW1 2369   7.051   3.190   3.828 -1.5699 -0.2634  2.1197
  490SOL    HW2 2370   6.976   3.328   3.874 -0.8752  1.3532 -1.3029
  491SOL     OW 2371   5.597   3.812   2.730 -0.3293 -0.8216 -0.2621
  491SOL    HW1 2372   5.667   3.774   2.791 -0.9082 -1.0807  0.2527
  491SOL    HW2 2373   5.562   3.740   2.670 -1.2882 -1.0908  0.5817
  492SOL     OW 2374   1.160   2.963   6.955 -0.3932  0.0217 -0.6574
  492SOL    HW1 2375   1.169   2.871   6.994  1.9034  0.2662 -0.4248
  492SOL    HW2 2376   1.198   2.963   6.862  1.2268  1.0520 -0.0396
  493SOL     OW 2377   1.417   5.254   4.588  0.0394  0.7458  0.0236
  493SOL    HW1 2378   1.324   5.278   4.619 -0.1867  1.2153 -0.9559
  493SOL    HW2 2379   1.413   5.225   4.492  0.7878 -0.1104  0.2469
  494SOL     OW 2380   2.855   5.056   1.383  0.1122  0.6932  0.2416
  494SOL    HW1 2381   2.892   4.980   1.329 -0.5051  0.5180  0.0607
  494SOL    HW2 2382   2.861   5.140   1.329  0.3046  0.6777  0.2372
  495SOL     OW 2383   2.455   5.000   6.646 -0.2109 -0.4174  0.2262
  495SOL    HW1 2384   2.458   5.086   6.595 -1.9737 -0.1309  0.5254
  495SOL    HW2 2385   2.402   4.933   6.594  1.1199 -1.3476  0.0101
  496SOL     OW 2386   6.815   0.445   2.913 -0.0352  0.4417  0.5729
  496SOL    HW1 2387   6.896   0.389   2.929  0.8692  1.9643  1.6588
  496SOL    HW2 2388   6.738   0.408   2.965 -0.2862 -1.4157 -1.0040
  497SOL     OW 2389   4.056   2.308   0.630 -0.1689 -0.2422 -0.3146
  497SOL    HW1 2390   4.062   2.230   0.693  0.2502 -0.0398 -0.0956
  497SOL    HW2 2391   3.976   2.298   0.571  0.0267 -0.9697 -0.4657
  498SOL     OW 2392   0.611   0.688   1.605  0.6055 -0.5701  0.1492
  498SOL    HW1 2393   0.623   0.769   1.547  1.7334 -0.2508  0.8131
  498SOL    HW2 2394   0.604   0.607   1.547 -1.2744  0.0395 -0.5668
  499SOL     OW 2395   4.444   5.583   6.163  0.4048 -0.3736 -0.1384
  499SOL    HW1 2396   4.528   5.635   6.179 -0.6303  1.6921 -1.0587
  499SOL    HW2 2397   4.369   5.625   6.215 -1.3408  1.7078 -3.9416
  500SOL     OW 2398   1.728   1.799   0.090 -0.0566 -0.7342 -0.2938
  500SOL    HW1 2399   1.704   1.703   0.075 -3.0947  0.1269 -1.7713
  500SOL    HW2 2400   1.663   1.840   0.154 -0.4825  0.9523 -1.7333
  501SOL     OW 2401   1.234   1.351   2.944 -0.7908  0.3910  0.4646
  501SOL    HW1 2402   1.218   1.425   2.878 -1.8613 -1.0248 -0.9268
  501SOL    HW2 2403   1.182   1.370   3.027  0.5593  2.1937  0.9541
  502SOL     OW 2404   3.953   2.118   6.375  0.1949  0.3427  0.2747
  502SOL    HW1 2405   3.857   2.122   6.344  0.1140  0.1663  0.5025
  502SOL    HW2 2406   3.981   2.022   6.383  0.0833  0.3790  1.1561
  503SOL     OW 2407   3.176   5.980   0.443  0.0629  0.2129 -0.7845
  503SOL    HW1 2408   3.269   6.015   0.453 -0.2683  0.8173  0.3388
  503SOL    HW2 2409   3.154   5.969   0.346  1.4249 -0.2754 -1.0522
  504SOL     OW 2410   2.312   2.586   1.013 -0.0963 -0.3610  0.6574
  504SOL    HW1 2411   2.238   2.644   1.047 -1.0437 -0.8507 -0.5020
  504SOL    HW2 2412   2.291   2.556   0.920  0.7869 -1.8576  0.9111
  505SOL     OW 2413   6.106   4.205   4.927  0.0302  0.1942  0.7557
  505SOL    HW1 2414   6.127   4.108   4.939 -0.1094  0.2985  2.0007
  505SOL    HW2 2415   6.151   4.258   4.999 -0.6335  0.9479  0.6273
  506SOL     OW 2416   5.198   0.072   1.611  0.0571 -0.5334 -0.4304
  506SOL    HW1 2417   5.227   0.002   1.676 -0.8029 -0.5800 -0.0809
  506SOL    HW2 2418   5.271   0.139   1.599 -0.6577  0.9805  2.6319
  507SOL     OW 2419   1.814   6.326   4.677  0.2655  0.7321  0.2333
  507SOL    HW1 2420   1.748   6.394   4.645 -0.9489 -0.1650  0.7494
  507SOL    HW2 2421   1.834   6.341   4.773  0.8761  1.0378  0.0636
  508SOL     OW 2422   0.270   4.472   2.096 -0.8978  1.0750  0.3223
  508SOL    HW1 2423   0.364   4.479   2.130 -0.7450  2.7432 -0.3569
  508SOL    HW2 2424   0.211   4.435   2.169  0.3850 -0.7825  0.4896
  509SOL     OW 2425   3.341   0.670   5.678 -0.0062 -0.0485 -0.5763
  509SOL    HW1 2426   3.354   0.668   5.777  0.5516 -2.5548 -0.6412
  509SOL    HW2 2427   3.321   0.578   5.645 -0.3739  0.7701 -2.7931
  510SOL     OW 2428   5.595   4.803   6.768 -0.8159  0.3918 -0.6435
  510SOL    HW1 2429   5.673   4.743   6.747 -0.5271 -0.1696  1.7266
  510SOL    HW2 2430   5.615   4.896   6.738  1.5414  0.6262  1.3405
  511SOL     OW 2431   5.961   2.183   6.474 -0.1929 -0.2198 -0.2189
  511SOL    HW1 2432   5.866   2.193   6.447  0.2016 -1.0720 -2.0671
  511SOL    HW2 2433   5.968   2.186   6.573 -2.1172 -0.0204 -0.0544
  512SOL     OW 2434   0.628   2.187   2.277  0.0929 -0.2731  0.3669
  512SOL    HW1 2435   0.608   2.112   2.341  0.8090 -1.4793 -0.7742
  512SOL    HW2 2436   0.721   2.220   2.292 -0.2209  0.4055  0.8661
  513SOL     OW 2437   5.468   4.671   3.651  0.2075 -0.6604 -0.3873
  513SOL    HW1 2438   5.386   4.675   3.710  0.1936 -0.8542 -0.3942
  513SOL    HW2 2439   5.449   4.719   3.566  0.7513  1.0286  0.4015
  514SOL     OW 2440   4.254   0.860   6.321 -0.4004  0.5669 -0.3685
  514SOL    HW1 2441   4.172   0.872   6.377 -0.0275 -0.9735  0.5491
  514SOL    HW2 2442   4.242   0.783   6.259 -0.1575  1.2037 -1.2363
  515SOL     OW 2443   2.820   6.502   0.948 -0.0557  0.1907 -0.3447
  515SOL    HW1 2444   2.846   6.419   0.899 -0.0786 -0.2227  0.3291
  515SOL    HW2 2445   2.872   6.579   0.912 -0.8781  0.1103 -1.7757
  516SOL     OW 2446   6.806   6.750   3.112  0.0878  0.2572  0.2764
  516SOL    HW1 2447   6.744   6.698   3.054 -1.7441  1.1586  1.3431
  516SOL    HW2 2448   6.826   6.697   3.195  0.2139  0.2656  0.2528
  517SOL     OW 2449   3.554   4.614   1.093  0.0005  0.3049 -0.0071
  517SOL    HW1 2450   3.531   4.677   1.168 -1.2984  0.6930 -0.7017
  517SOL    HW2 2451   3.623   4.549   1.124  1.1259  1.8320  0.8550
  518SOL     OW 2452   1.920   0.791   2.155  0.3222 -0.5595 -0.5190
  518SOL    HW1 2453   1.868   0.847   2.218 -1.1497 -1.6537 -0.6975
  518SOL    HW2 2454   2.018   0.803   2.172  0.0860  2.1301 -0.6790
  519SOL     OW 2455   6.395   6.606   4.410 -0.1226 -0.7177 -0.0728
  519SOL    HW1 2456   6.382   6.614   4.311  1.8128 -0.9799 -0.3829
  519SOL    HW2 2457   6.324   6.658   4.457 -0.4664  0.2692 -1.6165
  520SOL     OW 2458   2.112   6.038   6.345 -0.7624 -0.0230 -0.5523
  520SOL    HW1 2459   2.144   6.011   6.436 -0.7358 -0.2626 -0.6342
  520SOL    HW2 2460   2.155   5.980   6.276  0.7193  1.3799 -0.8728
  521SOL     OW 2461   0.139   1.008   5.444  0.5227 -0.0903  0.0936
  521SOL    HW1 2462   0.090   1.066   5.379  0.3734 -0.2813  0.0372
  521SOL    HW2 2463   0.221   0.972   5.400 -0.0824 -1.0094 -0.3136
  522SOL     OW 2464   2.100   4.587   5.878  0.4755 -0.5134 -0.5337
  522SOL    HW1 2465   2.092   4.514   5.946  0.6153  0.0250  0.0662
  522SOL    HW2 2466   2.122   4.547   5.789  0.3310 -1.2197 -0.2589
  523SOL     OW 2467   3.082   0.061   5.839  0.1890 -0.1350  0.0257
  523SOL    HW1 2468   3.182   0.073   5.839  0.0313  2.0429  1.6809
  523SOL    HW2 2469   3.049   0.068   5.933 -1.5346 -0.9968 -0.4853
  524SOL     OW 2470   0.071   1.045   0.925  0.8043 -0.2148 -0.1441
  524SOL    HW1 2471   0.142   1.084   0.983 -0.3598  2.9213 -0.5990
  524SOL    HW2 2472   0.100   1.053   0.829 -0.0074  0.8800 -0.3163
  525SOL     OW 2473   6.422   3.823   6.135 -0.5150  0.3349 -0.0827
  525SOL    HW1 2474   6.345   3.870   6.180  1.3246  0.1063  3.7430
  525SOL    HW2 2475   6.418   3.725   6.155  0.6810  0.3040  0.0914
  526SOL     OW 2476   5.786   1.819   5.744  0.1455 -0.0230 -0.0891
  526SOL    HW1 2477   5.839   1.886   5.797  0.8261 -0.1381 -0.6144
  526SOL    HW2 2478   5.694   1.811   5.783  1.0865 -1.2241  2.0455
  527SOL     OW 2479   6.523   1.561   0.245 -0.1833 -0.1517  0.0290
  527SOL    HW1 2480   6.568   1.617   0.175 -1.4420  2.8881  1.4901
  527SOL    HW2 2481   6.425   1.581   0.245 -0.1798  0.1936  2.8131
  528SOL     OW 2482   5.831   2.194   5.208  0.0751  0.0486  0.4452
  528SOL    HW1 2483   5.775   2.200   5.291  1.7653  0.2567  1.6443
  528SOL    HW2 2484   5.891   2.114   5.215 -1.4197 -1.3891 -1.7419
  529SOL     OW 2485   0.051   1.519   6.826  0.2007 -0.1996 -0.0563
  529SOL    HW1 2486  -0.013   1.459   6.873 -0.0953  2.0059  2.6397
  529SOL    HW2 2487   0.013   1.548   6.738 -1.6019 -0.5151  0.5831
  530SOL     OW 2488   2.900   3.916   1.410  0.5629  0.0245  0.5949
  530SOL    HW1 2489   2.878   3.909   1.507  2.4264 -4.1332  0.9026
  530SOL    HW2 2490   2.958   3.996   1.395 -0.0501  0.9540  2.7876
  531SOL     OW 2491   0.175   0.846   6.298 -0.1249  0.1906 -0.3877
  531SOL    HW1 2492   0.260   0.822   6.251  0.0865  0.2796 -0.0577
  531SOL    HW2 2493   0.130   0.921   6.249 -0.8462 -0.9193 -1.4824
  532SOL     OW 2494   1.808   7.010   5.582 -0.2391 -0.5334 -0.3112
  532SOL    HW1 2495   1.782   7.043   5.672  1.0013  3.9963 -1.3716
  532SOL    HW2 2496   1.905   6.984   5.582  0.0578  0.5346 -0.5400
  533SOL     OW 2497   4.247   6.821   5.009 -0.5730  0.2751 -0.5351
  533SOL    HW1 2498   4.300   6.737   5.015 -2.8574 -1.3522 -1.9676
  533SOL    HW2 2499   4.284   6.879   4.937  0.2553 -0.0612 -0.3902
  534SOL     OW 2500   1.173   3.746   1.115  0.2594 -0.0496  0.0072
  534SOL    HW1 2501   1.108   3.812   1.153 -0.3062 -1.5610  1.8083
  534SOL    HW2 2502   1.260   3.754   1.163  0.3754 -0.2456 -0.1684
  535SOL     OW 2503   5.417   2.343   4.412 -0.2094 -0.3167 -0.1502
  535SOL    HW1 2504   5.387   2.366   4.504  1.9886  0.6446  0.3962
  535SOL    HW2 2505   5.482   2.412   4.380  0.4944 -1.6199 -1.6992
  536SOL     OW 2506   6.394   5.381   0.437 -0.6458  0.0270 -0.5394
  536SOL    HW1 2507   6.453   5.447   0.484 -1.6289  0.2239  0.4555
  536SOL    HW2 2508   6.449   5.302   0.408  0.3056  0.7095 -0.6410
  537SOL     OW 2509   2.381   0.793   3.406  0.3478  0.2136 -0.4427
  537SOL    HW1 2510   2.455   0.826   3.347  0.7632  0.8006  0.3945
  537SOL    HW2 2511   2.420   0.737   3.479  0.2293  2.1898  1.2161
  538SOL     OW 2512   4.367   5.944   4.842 -0.0114 -0.4128  0.2116
  538SOL    HW1 2513   4.426   5.864   4.834 -0.3422 -0.5667 -0.9508
  538SOL    HW2 2514   4.370   5.996   4.756  0.1280  0.7767  0.9164
  539SOL     OW 2515   3.740   1.064   1.107 -0.4721 -0.0707 -0.1767
  539SOL    HW1 2516   3.656   1.118   1.119  0.1168  0.4814  2.1678
  539SOL    HW2 2517   3.817   1.126   1.091 -0.2008 -0.3987 -0.1545
  540SOL     OW 2518   0.954   2.569   4.240  0.0772  0.0988  0.1278
  540SOL    HW1 2519   0.878   2.576   4.304  0.0930  0.1971  0.1358
  540SOL    HW2 2520   0.919   2.546   4.149 -0.2632  2.8148 -0.5159
  541SOL     OW 2521   1.069   5.063   1.611 -0.1977  0.5815 -0.8212
  541SOL    HW1 2522   1.140   5.134   1.606 -1.0034  1.3566 -1.4213
  541SOL    HW2 2523   1.110   4.975   1.588  0.5353  1.0454 -1.3472
  542SOL     OW 2524   4.057   4.965   4.629  0.4773  0.2686 -0.0782
  542SOL    HW1 2525   4.069   4.961   4.728  1.0856 -1.1903 -0.1882
  542SOL    HW2 2526   3.976   4.912   4.603  1.3846 -0.9852 -0.4943
  543SOL     OW 2527   1.367   2.388   5.325  0.1062  0.3201  0.3272
  543SOL    HW1 2528   1.417   2.450   5.385  1.3767 -2.0306  1.8509
  543SOL    HW2 2529   1.330   2.312   5.379  0.2704 -1.2689 -1.6895
  544SOL     OW 2530   0.153   3.347   1.031 -0.2998  0.4605 -0.2650
  544SOL    HW1 2531   0.194   3.438   1.028 -0.6559  0.6226 -3.4217
  544SOL    HW2 2532   0.059   3.353   1.067 -0.9684  1.6884 -2.1087
  545SOL     OW 2533   6.789   4.653   2.720  0.4610  1.0496 -0.0602
  545SOL    HW1 2534   6.722   4.646   2.793  1.9652  0.5984  1.3210
  545SOL    HW2 2535   6.837   4.566   2.710  0.2744  1.0962 -1.6145
  546SOL     OW 2536   1.210   0.204   1.985  0.5825  0.0651  0.5083
  546SOL    HW1 2537   1.171   0.291   2.015  1.9726  0.3192  1.6828
  546SOL    HW2 2538   1.171   0.179   1.896 -1.2825  0.8988  1.0319
  547SOL     OW 2539   2.083   5.936   5.954  0.1570 -0.0440  0.4190
  547SOL    HW1 2540   2.125   6.027   5.953  0.0237  0.0425  1.5516
  547SOL    HW2 2541   1.991   5.943   5.992 -0.1897 -0.5281 -0.3103
  548SOL     OW 2542   2.939   3.930   4.988  0.0650 -0.4199 -0.3822
  548SOL    HW1 2543   3.004   3.956   4.916  0.0437  0.1814 -0.1849
  548SOL    HW2 2544   2.925   4.006   5.051 -0.2465 -0.7991  0.0217
  549SOL     OW 2545   5.035   2.829   4.702 -0.8256 -0.0160  0.1533
  549SOL    HW1 2546   5.052   2.810   4.798 -0.0423 -0.8271 -0.1232
  549SOL    HW2 2547   5.064   2.922   4.680  0.6634 -0.4002  0.3419
  550SOL     OW 2548   6.878   0.085   3.764 -0.5708  0.5881  0.1820
  550SOL    HW1 2549   6.927   0.167   3.791 -1.8258  2.1563 -2.0052
  550SOL    HW2 2550   6.782   0.107   3.745 -0.7345 -1.1658 -1.3563
  551SOL     OW 2551   6.336   0.366   6.761  0.4644  0.2937 -0.3595
  551SOL    HW1 2552   6.370   0.373   6.855  0.4946  0.2420 -0.3664
  551SOL    HW2 2553   6.367   0.280   6.721 -3.0207 -1.8360  1.0084
  552SOL     OW 2554   1.964   5.824   0.277  0.0998  0.3373  0.5632
  552SOL    HW1 2555   1.993   5.791   0.187  0.0693 -0.0674  0.7013
  552SOL    HW2 2556   2.021   5.784   0.348  0.2336  0.7913  0.7148
  553SOL     OW 2557   3.643   3.117   6.761 -0.2509 -0.2413  0.2385
  553SOL    HW1 2558   3.695   3.202   6.771 -2.0341  0.7508  1.5008
  553SOL    HW2 2559   3.690   3.057   6.696  0.8163  1.8741 -1.0381
  554SOL     OW 2560   6.014   1.644   0.351 -0.0967 -0.1132  0.0387
  554SOL    HW1 2561   6.021   1.662   0.252  1.3416 -0.4781  0.0521
  554SOL    HW2 2562   5.959   1.562   0.366  0.5818 -0.6990 -0.5520
  555SOL     OW 2563   4.402   4.527   6.971 -0.3451 -0.2880 -0.1052
  555SOL    HW1 2564   4.346   4.444   6.961  0.6809 -1.0496  0.3401
  555SOL    HW2 2565   4.424   4.542   7.067 -1.1123  0.9261 -0.0926
  556SOL     OW 2566   6.284   5.794   4.173  0.8871  0.3291  0.0295
  556SOL    HW1 2567   6.280   5.771   4.270  0.9193 -0.3053 -0.1134
  556SOL    HW2 2568   6.375   5.773   4.137  1.4273  2.1896  0.2460
  557SOL     OW 2569   0.134   6.086   1.388 -0.4858 -0.8910  0.1995
  557SOL    HW1 2570   0.177   6.062   1.475  3.2386 -0.0766 -1.2365
  557SOL    HW2 2571   0.084   6.173   1.398  1.6797  0.3192  1.1110
  558SOL     OW 2572   3.360   4.520   1.638  0.2077  0.7527  0.4765
  558SOL    HW1 2573   3.316   4.608   1.617  2.5270  1.5246 -1.7937
  558SOL    HW2 2574   3.434   4.535   1.703  1.0331  0.6543 -0.4132
  559SOL     OW 2575   6.003   1.037   5.293 -0.4715  0.3691 -0.0578
  559SOL    HW1 2576   6.085   1.072   5.339 -0.5123  1.3353 -0.7001
  559SOL    HW2 2577   6.027   0.956   5.239  0.1152  0.8027 -0.4526
  560SOL     OW 2578   1.909   2.127   1.828 -0.0325  0.5622  0.2082
  560SOL    HW1 2579   1.872   2.212   1.791 -0.2170 -0.7487 -2.9359
  560SOL    HW2 2580   1.848   2.051   1.803  2.4751 -1.0910 -1.3214
  561SOL     OW 2581   4.788   2.983   6.110 -0.3002  0.0152  0.3538
  561SOL    HW1 2582   4.778   2.976   6.011 -0.6634  0.7805  0.3278
  561SOL    HW2 2583   4.822   3.074   6.134 -0.3488 -0.1153  0.9413
  562SOL     OW 2584   3.736   5.789   3.311 -0.1800  0.4769 -0.1026
  562SOL    HW1 2585   3.642   5.765   3.335  0.3068 -1.4004  0.0539
  562SOL    HW2 2586   3.750   5.775   3.213  0.2151 -0.2863  0.0564
  563SOL     OW 2587   2.638   0.812   3.273 -0.4130 -0.2324 -0.0627
  563SOL    HW1 2588   2.707   0.835   3.343 -1.2893 -0.7888  1.0256
  563SOL    HW2 2589   2.672   0.838   3.183  1.2844 -0.6179  0.4236
  564SOL     OW 2590   5.546   1.005   6.651  0.3084  0.8295 -0.2693
  564SOL    HW1 2591   5.628   0.960   6.616  0.9013  1.4350  0.3352
  564SOL    HW2 2592   5.488   1.032   6.574 -0.3509 -1.4378 -0.6659
  565SOL     OW 2593   3.753   4.059   3.406 -0.2491  0.9906  0.3783
  565SOL    HW1 2594   3.690   4.135   3.423 -1.4211  0.5067 -1.5077
  565SOL    HW2 2595   3.783   4.021   3.494 -2.7223  1.1512  1.3852
  566SOL     OW 2596   2.312   1.958   2.127 -0.4311  0.0602  0.0358
  566SOL    HW1 2597   2.247   1.894   2.168 -2.3714  2.6861  1.3499
  566SOL    HW2 2598   2.270   2.004   2.049 -0.0452  1.5105  0.6487
  567SOL     OW 2599   1.919   3.174   4.533  0.5626  0.3460 -0.1159
  567SOL    HW1 2600   1.848   3.188   4.464  1.6415  1.9444 -0.9870
  567SOL    HW2 2601   1.907   3.239   4.607  0.3645 -0.2726  0.4042
  568SOL     OW 2602   5.740   5.409   6.956  1.1481 -0.7269  0.3531
  568SOL    HW1 2603   5.779   5.344   6.890 -0.5337 -2.4506  0.9757
  568SOL    HW2 2604   5.652   5.442   6.921  1.4496  0.3487  0.5859
  569SOL     OW 2605   6.030   4.639   6.123 -0.1475  0.0407 -0.1985
  569SOL    HW1 2606   6.046   4.693   6.205 -1.1388 -2.0024  1.4564
  569SOL    HW2 2607   5.994   4.549   6.149 -1.7477 -0.2441 -2.9461
  570SOL     OW 2608   2.239   1.376   4.967 -0.1493  0.1227 -0.0141
  570SOL    HW1 2609   2.307   1.313   5.005 -1.2380 -0.5179  0.9297
  570SOL    HW2 2610   2.269   1.406   4.876  0.1610 -2.1268 -0.7063
  571SOL     OW 2611   2.808   5.457   2.078  0.2837 -0.3565 -0.3170
  571SOL    HW1 2612   2.716   5.493   2.093 -0.3656 -2.0608 -0.0682
  571SOL    HW2 2613   2.806   5.388   2.006  1.2256 -0.9998  0.2560
  572SOL     OW 2614   2.419   6.407   4.199  0.4980  0.1665  0.1870
  572SOL    HW1 2615   2.322   6.433   4.203  0.2531 -0.2860 -1.6981
  572SOL    HW2 2616   2.472   6.483   4.161  0.9252  0.4474  1.2979
  573SOL     OW 2617   6.379   6.770   0.064  0.1236 -0.1419  0.3541
  573SOL    HW1 2618   6.282   6.750   0.079  0.0380 -0.3307 -0.3959
  573SOL    HW2 2619   6.430   6.756   0.149 -0.3176 -1.2252  0.4498
  574SOL     OW 2620   2.467   0.816   5.843  0.4311 -0.1377  0.0397
  574SOL    HW1 2621   2.458   0.909   5.808 -1.6361  0.7353  2.5561
  574SOL    HW2 2622   2.422   0.752   5.780  0.4920  0.7499 -0.9306
  575SOL     OW 2623   4.464   4.173   0.064 -0.7427  0.1670 -0.1729
  575SOL    HW1 2624   4.414   4.110   0.004 -1.9040 -2.9803  3.6856
  575SOL    HW2 2625   4.405   4.202   0.139  1.1914  2.2801  0.6571
  576SOL     OW 2626   0.846   1.101   2.882 -0.1960 -0.7066  0.0159
  576SOL    HW1 2627   0.865   1.157   2.963  0.3564 -2.2240  0.9609
  576SOL    HW2 2628   0.747   1.093   2.869 -0.3648  2.0310 -1.2766
  577SOL     OW 2629   6.341   0.875   1.428 -0.0269  0.5133 -0.3769
  577SOL    HW1 2630   6.430   0.828   1.422 -0.0228 -0.0642  2.5269
  577SOL    HW2 2631   6.295   0.870   1.340  1.2008 -2.5079 -1.0023
  578SOL     OW 2632   4.456   1.038   2.300  0.5899 -0.1557 -0.4279
  578SOL    HW1 2633   4.476   1.067   2.206  1.7664 -0.2433 -0.2266
  578SOL    HW2 2634   4.422   1.115   2.353  1.0089  0.1709 -0.6320
  579SOL     OW 2635   1.648   3.849   3.923 -0.2335 -0.0309  0.5151
  579SOL    HW1 2636   1.609   3.940   3.916  2.2958  1.2300  1.4690
  579SOL    HW2 2637   1.708   3.844   4.003  0.4288 -2.2515 -0.0360
  580SOL     OW 2638   3.852   4.947   6.305  0.3857  0.1912  0.2202
  580SOL    HW1 2639   3.884   4.914   6.217 -0.8417  0.0930 -0.2003
  580SOL    HW2 2640   3.888   4.889   6.378 -0.4482 -1.1399 -0.3913
  581SOL     OW 2641   3.881   1.960   4.199 -0.5276  0.2596 -0.1620
  581SOL    HW1 2642   3.795   2.011   4.213 -0.8754 -0.4224  0.2632
  581SOL    HW2 2643   3.955   2.025   4.179 -1.7772  0.7110 -4.2472
  582SOL     OW 2644   5.470   5.600   5.285  0.6264  0.1921 -0.5008
  582SOL    HW1 2645   5.467   5.541   5.366  1.8360 -1.7997 -1.8350
  582SOL    HW2 2646   5.381   5.598   5.239 -0.2034  1.6691  0.9387
  583SOL     OW 2647   2.231   0.358   5.615 -0.1371  0.1909  0.2985
  583SOL    HW1 2648   2.235   0.356   5.515 -1.0761 -0.9696  0.2652
  583SOL    HW2 2649   2.303   0.301   5.653 -0.8286 -0.7365  0.2372
  584SOL     OW 2650   3.158   0.623   5.242 -0.1038 -0.3398 -0.3650
  584SOL    HW1 2651   3.127   0.666   5.327  0.3482  1.3595 -1.0109
  584SOL    HW2 2652   3.231   0.678   5.202 -0.5903 -0.8779 -2.0639
  585SOL     OW 2653   5.316   6.337   1.963 -0.6329 -0.3229  0.0093
  585SOL    HW1 2654   5.249   6.365   2.032 -1.0045 -1.0691 -0.0338
  585SOL    HW2 2655   5.313   6.400   1.886  0.0618  0.7476  0.8368
  586SOL     OW 2656   2.172   6.215   2.826 -0.0208  0.2022 -0.2564
  586SOL    HW1 2657   2.077   6.247   2.822  0.1453  0.8479  0.8027
  586SOL    HW2 2658   2.181   6.146   2.897  0.0162 -0.9262 -1.3232
  587SOL     OW 2659   6.845   0.657   2.300 -0.1548  0.4835  0.4979
  587SOL    HW1 2660   6.917   0.710   2.345 -0.5028  1.2258  0.1953
  587SOL    HW2 2661   6.767   0.716   2.281  0.1671  0.3086 -1.5243
  588SOL     OW 2662   1.838   5.442   1.563 -0.0643  0.0728  0.4151
  588SOL    HW1 2663   1.802   5.530   1.593 -0.9112 -0.3788  0.7692
  588SOL    HW2 2664   1.781   5.406   1.489  0.2330 -0.2161  0.3226
  589SOL     OW 2665   4.559   4.510   4.887  0.4341  0.4039  0.3793
  589SOL    HW1 2666   4.597   4.428   4.929 -0.0315 -0.2824 -0.5075
  589SOL    HW2 2667   4.480   4.541   4.940 -0.1676 -0.4682  0.0044
  590SOL     OW 2668   2.584   1.809   6.308  0.1735  0.0734  0.3181
  590SOL    HW1 2669   2.543   1.866   6.236  0.9510  1.5791  1.0145
  590SOL    HW2 2670   2.550   1.840   6.397  0.2876 -0.8594  0.6926
  591SOL     OW 2671   4.278   5.350   2.978 -0.0803 -0.0671 -0.1876
  591SOL    HW1 2672   4.247   5.342   2.883 -0.1585  0.5733 -0.2240
  591SOL    HW2 2673   4.216   5.299   3.038  0.1473 -0.7312 -0.5101
  592SOL     OW 2674   5.277   2.843   3.599  0.4825 -0.6096 -0.7576
  592SOL    HW1 2675   5.317   2.816   3.686 -1.9585 -1.0023  0.3493
  592SOL    HW2 2676   5.306   2.781   3.527  2.5239 -0.2919 -0.2519
  593SOL     OW 2677   2.821   6.867   1.780  0.1737 -0.1475 -0.0765
  593SOL    HW1 2678   2.885   6.941   1.758 -0.5207  0.3692 -0.4069
  593SOL    HW2 2679   2.831   6.793   1.715 -0.8929  0.7682 -1.3376
  594SOL     OW 2680   3.885   1.991   5.430  0.1924 -0.0176  0.0064
  594SOL    HW1 2681   3.933   1.932   5.364 -0.0112 -0.6280  0.3947
  594SOL    HW2 2682   3.907   1.961   5.523 -1.7807 -1.0007  0.1970
  595SOL     OW 2683   6.323   3.071   2.296 -0.4234 -0.6977  0.5904
  595SOL    HW1 2684   6.350   3.054   2.201 -2.2119  2.3907 -0.6513
  595SOL    HW2 2685   6.228   3.044   2.309 -0.7875  0.6287  0.8751
  596SOL     OW 2686   5.867   0.062   5.049 -0.3411 -0.1305  0.3583
  596SOL    HW1 2687   5.830   0.140   4.999  0.7267  1.0804  1.3636
  596SOL    HW2 2688   5.838   0.067   5.145 -1.5064 -1.8310  0.1238
  597SOL     OW 2689   4.451   6.445   0.815 -0.3037  0.2002 -0.2575
  597SOL    HW1 2690   4.444   6.421   0.912  0.5850 -2.4285 -0.7487
  597SOL    HW2 2691   4.399   6.379   0.761  2.3620 -0.8276 -1.7656
  598SOL     OW 2692   2.997   3.831   4.245  0.7209  0.0762  0.5016
  598SOL    HW1 2693   3.076   3.770   4.252  1.7538  1.3921  0.6099
  598SOL    HW2 2694   2.942   3.805   4.166  2.5452  0.5550 -0.9933
  599SOL     OW 2695   1.861   0.223   3.608  0.9845 -0.7194  0.3108
  599SOL    HW1 2696   1.890   0.235   3.513  1.5766  0.9864  0.6811
  599SOL    HW2 2697   1.800   0.144   3.614 -1.5728  0.9022 -2.0103
  600SOL     OW 2698   0.529   5.183   4.547 -0.1016 -0.4493 -0.4388
  600SOL    HW1 2699   0.607   5.144   4.596 -2.0219 -2.2984  1.3765
  600SOL    HW2 2700   0.479   5.111   4.499 -1.7326  0.3043  0.0197
  601SOL     OW 2701   6.190   0.920   4.893  0.3439 -0.6315  0.2396
  601SOL    HW1 2702   6.115   0.966   4.846  0.6475 -1.5392 -1.2157
  601SOL    HW2 2703   6.154   0.860   4.964 -0.3735 -1.5526 -0.8722
  602SOL     OW 2704   1.052   2.289   4.168 -0.0232  0.1207 -0.2629
  602SOL    HW1 2705   1.088   2.237   4.246  0.5426 -0.5500 -0.9499
  602SOL    HW2 2706   0.956   2.311   4.185  0.1997  0.3342  0.7950
  603SOL     OW 2707   1.828   1.463   1.962 -0.2189  0.0099 -0.1041
  603SOL    HW1 2708   1.822   1.497   1.868 -0.3869 -0.0300 -0.1080
  603SOL    HW2 2709   1.817   1.364   1.963  2.7020 -0.4027 -0.3619
  604SOL     OW 2710   6.048   1.788   1.131  0.3293 -0.8001  0.6285
  604SOL    HW1 2711   5.950   1.778   1.114  0.2330  0.8024  0.1106
  604SOL    HW2 2712   6.099   1.738   1.062 -0.1238  0.8401 -0.9785
  605SOL     OW 2713   6.687   6.167   1.884  0.0079 -0.4430  0.1034
  605SOL    HW1 2714   6.679   6.096   1.954 -1.8613 -1.4033 -0.9977
  605SOL    HW2 2715   6.709   6.125   1.796  1.5713  0.6648 -0.0675
  606SOL     OW 2716   2.165   4.981   4.402 -0.4401  0.1487 -0.0815
  606SOL    HW1 2717   2.200   4.888   4.397 -0.3868  0.1959 -0.8504
  606SOL    HW2 2718   2.173   5.015   4.495  2.2300  0.4000 -0.3097
  607SOL     OW 2719   2.364   5.650   7.012 -0.6392 -0.5165  0.6646
  607SOL    HW1 2720   2.266   5.668   7.021 -0.5285 -0.1526  1.1977
  607SOL    HW2 2721   2.403   5.630   7.102  0.0993  1.0657  0.7443
  608SOL     OW 2722   2.162   0.790   6.844  0.0837  0.2889  0.4884
  608SOL    HW1 2723   2.163   0.718   6.775  0.0467 -0.6192  1.3993
  608SOL    HW2 2724   2.103   0.762   6.920 -0.6133  1.6616  0.4772
  609SOL     OW 2725   3.288   4.077   2.237  0.4673 -0.1807 -0.1670
  609SOL    HW1 2726   3.304   4.102   2.333  2.1674 -0.8425 -0.2378
  609SOL    HW2 2727   3.198   4.034   2.228  0.3112 -0.1605  1.1348
  610SOL     OW 2728   0.097   2.714   2.428  0.6276  0.2718 -0.7666
  610SOL    HW1 2729   0.083   2.631   2.374 -1.2959 -0.0874  0.1829
  610SOL    HW2 2730   0.021   2.777   2.410  0.8490  0.8409  0.2581
  611SOL     OW 2731   5.401   0.886   0.925  0.1475 -0.1579  0.0565
  611SOL    HW1 2732   5.375   0.881   0.829 -0.4623  0.7218  0.1647
  611SOL    HW2 2733   5.323   0.919   0.979  0.1806 -1.5281  0.9889
  612SOL     OW 2734   4.242   6.329   4.693 -0.0221 -0.0472 -0.4501
  612SOL    HW1 2735   4.158   6.372   4.660 -0.1080 -0.1900 -0.4203
  612SOL    HW2 2736   4.226   6.294   4.786  0.7133  1.8483  0.4420
  613SOL     OW 2737   5.968   5.514   5.790 -0.3287 -0.1684 -0.6789
  613SOL    HW1 2738   5.919   5.431   5.818  0.3061 -0.1921  0.4087
  613SOL    HW2 2739   5.902   5.586   5.770 -0.8426 -0.4897 -0.1777
  614SOL     OW 2740   1.932   0.484   6.739  0.0080  0.3435  0.3396
  614SOL    HW1 2741   1.884   0.572   6.734 -1.1764 -0.1644  1.9127
  614SOL    HW2 2742   1.951   0.463   6.835 -0.6155 -1.5762  0.0742
  615SOL     OW 2743   0.553   5.743   3.759 -0.6033  1.0132  0.1992
  615SOL    HW1 2744   0.503   5.755   3.673 -1.5195  0.7385  0.6790
  615SOL    HW2 2745   0.612   5.663   3.752 -0.3367  1.2455 -0.3178
  616SOL     OW 2746   4.983   3.906   6.796  0.9477  0.3799  1.1478
  616SOL    HW1 2747   4.986   3.865   6.887  1.3471  0.1172  1.0186
  616SOL    HW2 2748   4.957   4.002   6.804 -3.8265 -0.6884  1.1661
  617SOL     OW 2749   2.218   6.190   5.953 -0.0243 -0.4433  0.4040
  617SOL    HW1 2750   2.228   6.232   5.863 -1.2758 -1.6213 -0.3247
  617SOL    HW2 2751   2.259   6.250   6.022  0.4781  0.7442 -0.8646
  618SOL     OW 2752   4.970   0.149   3.255 -0.0333  0.1478 -0.1726
  618SOL    HW1 2753   5.030   0.223   3.225 -0.5211 -0.0760 -1.8291
  618SOL    HW2 2754   4.914   0.119   3.178  1.0130 -2.7894  0.1124
  619SOL     OW 2755   3.044   2.631   0.994 -0.7360  0.1590  0.1345
  619SOL    HW1 2756   3.130   2.617   1.043 -1.2812 -1.0090  0.8253
  619SOL    HW2 2757   3.023   2.729   0.989  0.9426  0.5143 -0.6418
  620SOL     OW 2758   5.492   4.204   0.933 -0.4007  0.0629 -0.1137
  620SOL    HW1 2759   5.480   4.260   0.851 -1.4622  0.1049  0.0453
  620SOL    HW2 2760   5.520   4.112   0.907  0.3360  0.3770 -0.4487
  621SOL     OW 2761   6.282   5.729   7.009 -0.1626 -0.3476 -0.5226
  621SOL    HW1 2762   6.263   5.631   7.016 -1.3734 -0.1026 -0.1748
  621SOL    HW2 2763   6.200   5.780   7.031  0.3570  0.7528 -1.0748
  622SOL     OW 2764   1.271   4.247   1.636  0.1376  0.1001  0.5226
  622SOL    HW1 2765   1.294   4.305   1.714 -0.2825 -0.3924  1.0251
  622SOL    HW2 2766   1.334   4.265   1.560  1.1146 -0.0403  1.2823
  623SOL     OW 2767   4.547   6.483   4.457 -0.5952  0.0452 -0.4221
  623SOL    HW1 2768   4.541   6.505   4.359 -1.0226 -1.1231 -0.6776
  623SOL    HW2 2769   4.488   6.404   4.477  0.9421 -0.9543  0.3985
  624SOL     OW 2770   5.931   0.840   1.467  0.0731  0.1467  0.1825
  624SOL    HW1 2771   5.835   0.863   1.452 -0.4446 -3.3529 -3.3459
  624SOL    HW2 2772   5.944   0.815   1.563 -2.3814  1.1597  0.8628
  625SOL     OW 2773   0.515   0.617   0.667 -0.3438  0.3929  0.2919
  625SOL    HW1 2774   0.418   0.600   0.687 -0.1649  0.0167  0.8773
  625SOL    HW2 2775   0.562   0.529   0.656 -0.5375  0.5579 -2.4304
  626SOL     OW 2776   1.803   1.118   6.430  0.3094 -0.2586  0.4696
  626SOL    HW1 2777   1.892   1.156   6.454  0.6236  1.0977 -2.5363
  626SOL    HW2 2778   1.813   1.021   6.408  0.6661 -0.5517  1.7931
  627SOL     OW 2779   3.520   4.200   0.184 -0.4944 -0.2006 -0.4231
  627SOL    HW1 2780   3.541   4.166   0.092  0.0137 -0.9312 -0.0499
  627SOL    HW2 2781   3.559   4.137   0.252 -2.6380 -0.8165  0.3075
  628SOL     OW 2782   6.000   4.755   4.453  0.0646 -0.2299 -0.0301
  628SOL    HW1 2783   5.958   4.694   4.385 -1.4115  1.1652 -0.4397
  628SOL    HW2 2784   5.929   4.793   4.512  0.6265  2.5018 -0.9680
  629SOL     OW 2785   0.650   0.000   2.693  0.2790 -0.1893 -0.1183
  629SOL    HW1 2786   0.701   0.030   2.774  1.3612 -1.6451 -0.2251
  629SOL    HW2 2787   0.555   0.031   2.700  1.2751  3.3630 -0.3063
  630SOL     OW 2788   1.663   2.006   1.522  0.1950  0.0120  0.4032
  630SOL    HW1 2789   1.712   2.092   1.533 -0.9847  0.9022 -0.8434
  630SOL    HW2 2790   1.705   1.952   1.448  0.0441  0.2143  0.1670
  631SOL     OW 2791   1.830   0.130   4.426  0.2081  0.2297 -0.2049
  631SOL    HW1 2792   1.838   0.225   4.457 -0.2596 -0.3345  1.8355
  631SOL    HW2 2793   1.735   0.111   4.401 -0.0055 -0.0579  0.7747
  632SOL     OW 2794   4.059   6.781   1.112 -1.1850 -0.0860  0.3285
  632SOL    HW1 2795   4.061   6.691   1.070 -0.2282  0.0907 -0.0233
  632SOL    HW2 2796   4.153   6.812   1.131 -1.5497  0.2208  1.7760
  633SOL     OW 2797   0.257   0.660   3.594 -0.3875 -0.5095  0.0033
  633SOL    HW1 2798   0.354   0.656   3.617  0.2508  3.2926 -1.3736
  633SOL    HW2 2799   0.209   0.715   3.662 -0.8573  0.5122 -1.1293
  634SOL     OW 2800   0.991   6.178   2.733  0.0183 -0.1973  1.0362
  634SOL    HW1 2801   0.972   6.267   2.775 -2.7918 -0.7666  1.1376
  634SOL    HW2 2802   0.973   6.183   2.635  2.8604  0.1007  0.4533
  635SOL     OW 2803   3.220   1.231   0.866  0.1937 -0.3995 -0.1755
  635SOL    HW1 2804   3.243   1.326   0.891 -1.7619  0.5556 -1.7105
  635SOL    HW2 2805   3.151   1.196   0.930 -0.0618 -0.3003 -0.3962
  636SOL     OW 2806   5.034   4.695   0.600 -0.5345  0.5676 -0.3316
  636SOL    HW1 2807   5.065   4.787   0.622 -2.2229  1.3547 -1.0876
  636SOL    HW2 2808   5.012   4.647   0.685  1.1783  0.5064  0.1250
  637SOL     OW 2809   5.992   4.480   4.804 -0.4577  0.4547 -0.1418
  637SOL    HW1 2810   6.022   4.387   4.827  1.2358  1.4408  1.9077
  637SOL    HW2 2811   6.061   4.524   4.746 -0.7117  0.8249 -0.1635
  638SOL     OW 2812   6.213   1.727   2.679  0.2491 -0.2478 -0.2124
  638SOL    HW1 2813   6.237   1.636   2.644  0.1577 -0.1422 -0.5584
  638SOL    HW2 2814   6.263   1.745   2.764 -1.4361 -1.5409  1.1231
  639SOL     OW 2815   3.635   2.693   1.444 -0.0407 -0.0960  0.4490
  639SOL    HW1 2816   3.688   2.644   1.375  0.5072  0.3959  0.5120
  639SOL    HW2 2817   3.687   2.698   1.529 -0.1498  0.4550  0.4893
  640SOL     OW 2818   3.088   1.437   5.367 -0.2824 -0.6073  0.1461
  640SOL    HW1 2819   3.094   1.361   5.433  1.2791 -0.0826  0.6650
  640SOL    HW2 2820   3.016   1.500   5.396 -0.8210 -1.2960  0.3465
  641SOL     OW 2821   0.471   1.775   4.723  0.4355  0.6935  0.3844
  641SOL    HW1 2822   0.506   1.745   4.812  2.0280  0.5052 -0.2810
  641SOL    HW2 2823   0.531   1.844   4.684  0.1304  0.2910 -0.8506
  642SOL     OW 2824   1.288   5.677   6.799  0.5341  0.9703  0.0318
  642SOL    HW1 2825   1.242   5.638   6.718  1.1022  0.1284  0.0972
  642SOL    HW2 2826   1.378   5.712   6.772  0.1229  2.0382  0.0242
  643SOL     OW 2827   6.591   6.143   5.544  0.3406 -0.2174  0.1034
  643SOL    HW1 2828   6.506   6.187   5.512 -0.5951 -1.6603  0.5233
  643SOL    HW2 2829   6.670   6.193   5.507 -0.6626  1.4705  0.1141
  644SOL     OW 2830   3.701   0.576   2.880  0.5398 -0.4614  0.1466
  644SOL    HW1 2831   3.613   0.534   2.856  1.3396 -1.8764 -0.3785
  644SOL    HW2 2832   3.767   0.559   2.807  1.1711  0.9251  0.3602
  645SOL     OW 2833   1.333   1.734   2.901  0.1886 -0.1229 -0.0930
  645SOL    HW1 2834   1.264   1.704   2.967  0.2678 -0.8252 -0.3232
  645SOL    HW2 2835   1.310   1.826   2.869 -0.1401  0.0103  0.5144
  646SOL     OW 2836   1.981   5.179   3.114  0.3281  0.3788  0.1689
  646SOL    HW1 2837   2.053   5.186   3.184  1.2931  2.6338 -0.9383
  646SOL    HW2 2838   1.937   5.268   3.104 -0.4325 -0.1561 -1.4251
  647SOL     OW 2839   5.164   5.094   0.543 -0.0455  0.2490  0.0682
  647SOL    HW1 2840   5.191   5.190   0.553 -0.6556  0.5520 -1.0821
  647SOL    HW2 2841   5.065   5.086   0.554 -0.0331 -0.2064 -0.1668
  648SOL     OW 2842   3.031   2.149   5.242  0.3257 -0.0332  0.1885
  648SOL    HW1 2843   3.091   2.220   5.205 -0.4637  1.6437  1.9254
  648SOL    HW2 2844   2.987   2.100   5.166 -0.3503  2.4676 -1.1570
  649SOL     OW 2845   2.855   5.382   1.596 -0.1628 -0.3732  0.9531
  649SOL    HW1 2846   2.825   5.309   1.657 -0.5763 -0.7259  0.3527
  649SOL    HW2 2847   2.952   5.371   1.575 -0.4899 -1.4825 -0.0879
  650SOL     OW 2848   6.619   5.064   1.491  0.1367  0.2859 -0.2779
  650SOL    HW1 2849   6.641   5.055   1.394 -1.4437  1.1244 -0.7625
  650SOL    HW2 2850   6.553   5.139   1.503  1.5955  1.3580  1.6662
  651SOL     OW 2851   2.247   6.258   0.368  0.4822  0.7463  0.1556
  651SOL    HW1 2852   2.234   6.170   0.323 -1.8676  0.9398  0.2989
  651SOL    HW2 2853   2.337   6.262   0.411  0.7755 -1.4281 -0.1837
  652SOL     OW 2854   4.048   1.785   6.849 -0.1018 -0.4841  0.2710
  652SOL    HW1 2855   4.040   1.750   6.756 -0.0497 -1.1758  0.5164
  652SOL    HW2 2856   4.054   1.884   6.848  1.5845 -0.5785 -0.5707
  653SOL     OW 2857   4.323   6.550   3.023 -0.3351 -0.3151  0.2897
  653SOL    HW1 2858   4.297   6.465   3.069 -2.8371  1.3272  2.1689
  653SOL    HW2 2859   4.376   6.606   3.086 -1.2809  0.7381  0.1763
  654SOL     OW 2860   6.365   5.676   5.688  0.1030  0.2066 -0.5760
  654SOL    HW1 2861   6.404   5.767   5.675 -2.1983  1.0667 -2.2831
  654SOL    HW2 2862   6.385   5.643   5.780  2.2003  1.7827 -0.4011
  655SOL     OW 2863   2.006   0.314   0.818  0.0010  0.1616  0.4715
  655SOL    HW1 2864   1.912   0.282   0.825  0.2607 -0.9414 -0.7524
  655SOL    HW2 2865   2.068   0.236   0.825  0.8064  0.8076  0.6640
  656SOL     OW 2866   3.111   6.272   0.281  0.7776  0.4719  0.4922
  656SOL    HW1 2867   3.035   6.278   0.346  0.3768  2.2464 -0.0868
  656SOL    HW2 2868   3.196   6.299   0.327  1.1943 -1.9415  1.2614
  657SOL     OW 2869   1.868   0.218   6.413 -0.7471 -0.4282  0.1896
  657SOL    HW1 2870   1.808   0.271   6.353 -2.2339  0.8740  2.7068
  657SOL    HW2 2871   1.910   0.143   6.360 -1.3106  1.1097 -2.6198
  658SOL     OW 2872   5.381   6.162   0.627  0.3567 -0.1776 -0.3297
  658SOL    HW1 2873   5.315   6.197   0.694 -0.0527 -0.6137 -0.4989
  658SOL    HW2 2874   5.335   6.099   0.566  0.7336  0.2076 -1.0195
  659SOL     OW 2875   4.459   1.620   5.540 -0.2262  0.6450  0.3891
  659SOL    HW1 2876   4.499   1.642   5.629  0.5309 -1.5250  0.6435
  659SOL    HW2 2877   4.363   1.596   5.552 -0.4208  1.4110  0.4386
  660SOL     OW 2878   2.301   4.984   3.237 -0.6314 -0.5071 -0.0395
  660SOL    HW1 2879   2.364   4.953   3.308 -0.6393 -0.5170 -0.0368
  660SOL    HW2 2880   2.241   4.909   3.210  1.5329 -1.5675 -2.4041
  661SOL     OW 2881   2.604   5.916   2.307 -0.1800 -0.2543  0.8823
  661SOL    HW1 2882   2.559   5.991   2.355 -0.7389 -1.3078  2.0541
  661SOL    HW2 2883   2.537   5.869   2.249  0.4383  0.8718 -0.8323
  662SOL     OW 2884   3.169   1.954   0.114  0.2302 -0.3366  0.1095
  662SOL    HW1 2885   3.139   2.048   0.101  1.9808  0.5667  2.0421
  662SOL    HW2 2886   3.244   1.933   0.051 -0.1968 -0.4744 -0.3590
  663SOL     OW 2887   6.060   3.735   3.287  0.3406 -0.0872 -0.0282
  663SOL    HW1 2888   5.963   3.727   3.313 -0.4325  2.4914 -1.7761
  663SOL    HW2 2889   6.068   3.794   3.207  3.3754 -0.4988 -0.1196
  664SOL     OW 2890   5.241   0.581   6.772 -0.6398 -0.3670  0.1212
  664SOL    HW1 2891   5.291   0.500   6.741  2.1922  1.3845 -0.1972
  664SOL    HW2 2892   5.283   0.663   6.733 -0.4361  1.5863  4.0409
  665SOL     OW 2893   0.445   3.387   0.908  0.0301 -0.1353 -0.3220
  665SOL    HW1 2894   0.473   3.409   1.001 -0.5439 -1.7868  0.2768
  665SOL    HW2 2895   0.407   3.294   0.905  1.8031 -0.8776 -2.5556
  666SOL     OW 2896   4.337   0.215   3.025  0.0240  0.3817 -0.4944
  666SOL    HW1 2897   4.241   0.217   3.056  0.4626  3.2643  1.0403
  666SOL    HW2 2898   4.348   0.274   2.946  0.7714  1.3254  0.2862
  667SOL     OW 2899   4.574   1.617   2.174 -0.3806  0.9081  0.5058
  667SOL    HW1 2900   4.512   1.565   2.232 -0.3787  0.9908  0.5816
  667SOL    HW2 2901   4.521   1.676   2.112 -0.3788  0.9386  0.5334
  668SOL     OW 2902   2.385   1.756   0.036 -0.1055 -0.0102 -0.4471
  668SOL    HW1 2903   2.307   1.790  -0.018  2.7086  3.4148 -2.8716
  668SOL    HW2 2904   2.435   1.687  -0.017 -0.0532 -0.2517 -0.0818
  669SOL     OW 2905   4.174   1.212   3.738 -0.1626  0.6908  0.0710
  669SOL    HW1 2906   4.171   1.155   3.656 -2.4137  0.5804  0.1876
  669SOL    HW2 2907   4.171   1.154   3.819  0.2183  0.8773  0.2211
  670SOL     OW 2908   3.876   0.200   1.582  0.2794  0.2838  0.2701
  670SOL    HW1 2909   3.967   0.240   1.569 -0.0869  2.3136  2.9810
  670SOL    HW2 2910   3.817   0.266   1.630 -2.7537 -0.8774 -1.5830
  671SOL     OW 2911   0.260   6.028   0.187 -0.4333  0.1773  0.3405
  671SOL    HW1 2912   0.291   5.948   0.240 -2.1738 -1.5512 -1.0889
  671SOL    HW2 2913   0.197   6.082   0.242 -0.5111 -0.3662  0.7994
  672SOL     OW 2914   1.128   1.838   6.218  0.0416 -0.0604 -0.4493
  672SOL    HW1 2915   1.041   1.822   6.170  0.3594  1.2806 -1.5378
  672SOL    HW2 2916   1.109   1.871   6.310 -0.5830 -1.9976  0.1729
  673SOL     OW 2917   6.900   4.781   6.071  0.1765  0.3057  0.4199
  673SOL    HW1 2918   6.938   4.844   6.139  2.0207 -1.0193  0.7244
  673SOL    HW2 2919   6.975   4.738   6.021 -1.0438 -0.9591 -0.3915
  674SOL     OW 2920   5.645   1.046   4.216  0.3176 -0.1878  0.1488
  674SOL    HW1 2921   5.637   0.949   4.236  1.0700 -0.4055 -0.5597
  674SOL    HW2 2922   5.629   1.062   4.119 -0.1426  0.4463  0.3182
  675SOL     OW 2923   3.403   5.142   2.657  0.7881  0.6402  0.1513
  675SOL    HW1 2924   3.385   5.148   2.559  2.8241  0.1384 -0.3021
  675SOL    HW2 2925   3.429   5.049   2.681  0.1734  0.7249  1.2098
  676SOL     OW 2926   2.513   5.921   5.273 -0.0692  0.0954 -0.1598
  676SOL    HW1 2927   2.495   5.831   5.235  1.1271 -1.3148  2.3376
  676SOL    HW2 2928   2.439   5.946   5.336  0.8950 -0.4312  1.2269
  677SOL     OW 2929   5.647   1.897   7.023 -0.0973  0.1184 -0.3311
  677SOL    HW1 2930   5.576   1.827   7.032 -0.0446 -0.0618 -1.2127
  677SOL    HW2 2931   5.689   1.890   6.932  2.6309 -1.2635  0.9311
  678SOL     OW 2932   0.813   6.714   4.021 -0.6061 -0.0897  0.1792
  678SOL    HW1 2933   0.875   6.704   4.099  1.0113  0.3913 -0.9961
  678SOL    HW2 2934   0.783   6.624   3.990  2.1075 -0.6152 -1.1946
  679SOL     OW 2935   4.059   0.845   5.282  0.1099 -0.8708 -0.9188
  679SOL    HW1 2936   3.991   0.795   5.336  0.6316 -0.2755  0.3216
  679SOL    HW2 2937   4.028   0.851   5.187 -2.0569  0.2076 -0.2165
  680SOL     OW 2938   6.835   1.764   1.965  0.1903  0.5524 -0.4539
  680SOL    HW1 2939   6.823   1.776   1.867  1.3026  0.1572 -0.6409
  680SOL    HW2 2940   6.746   1.773   2.010 -0.5149 -0.3928 -1.6031
  681SOL     OW 2941   5.043   5.184   3.347 -0.4334  0.3144 -0.4736
  681SOL    HW1 2942   5.024   5.104   3.405  0.5203  1.1968  1.1494
  681SOL    HW2 2943   4.990   5.177   3.262 -1.0030 -1.6150 -0.0219
  682SOL     OW 2944   5.752   2.739   4.161 -0.4266 -0.0334  0.2454
  682SOL    HW1 2945   5.718   2.820   4.113  1.1516 -0.2531 -1.3312
  682SOL    HW2 2946   5.833   2.704   4.115  0.7494 -0.7264  2.6563
  683SOL     OW 2947   1.483   0.186   1.364 -0.5802 -0.1656 -0.0346
  683SOL    HW1 2948   1.491   0.286   1.366 -0.7301 -0.1227  2.3407
  683SOL    HW2 2949   1.482   0.152   1.458  0.2522 -2.4868 -0.8039
  684SOL     OW 2950   5.934   2.056   6.749  0.2438  0.4556  0.9238
  684SOL    HW1 2951   5.902   1.964   6.768 -0.8931  0.9842  1.6768
  684SOL    HW2 2952   6.027   2.067   6.784  1.7573 -1.3766 -2.1134
  685SOL     OW 2953   4.511   0.089   2.176  0.1199 -1.3184  0.4898
  685SOL    HW1 2954   4.556   0.140   2.102 -0.8137 -0.7998  0.2631
  685SOL    HW2 2955   4.479   0.001   2.141  0.8248 -1.6296  0.6167
  686SOL     OW 2956   2.131   0.772   0.262 -0.1079  0.2170  0.0283
  686SOL    HW1 2957   2.188   0.720   0.327  1.8454  1.8013 -0.2989
  686SOL    HW2 2958   2.102   0.712   0.188 -0.0130 -0.9769  0.9260
  687SOL     OW 2959   5.958   2.923   4.983 -0.0057  0.3877 -0.0793
  687SOL    HW1 2960   6.010   2.842   4.955 -1.0574 -0.0059 -0.9812
  687SOL    HW2 2961   5.860   2.904   4.973 -0.2658  1.9933 -0.9885
  688SOL     OW 2962   4.781   1.855   0.099  0.5656 -0.4276 -0.4880
  688SOL    HW1 2963   4.784   1.955   0.106 -1.8369 -0.3333  0.2321
  688SOL    HW2 2964   4.836   1.815   0.172 -0.4023  0.4266  0.7681
  689SOL     OW 2965   1.943   6.187   0.207  0.4648  0.6415 -0.1884
  689SOL    HW1 2966   2.005   6.266   0.208 -1.6541  2.4215 -0.3195
  689SOL    HW2 2967   1.951   6.136   0.292 -0.4023  2.9941  1.4275
  690SOL     OW 2968   5.592   3.879   4.239 -0.2222 -0.0794 -0.0338
  690SOL    HW1 2969   5.657   3.821   4.190  1.5623  0.4446  1.5998
  690SOL    HW2 2970   5.556   3.948   4.176 -0.8197 -1.6403 -1.4867
  691SOL     OW 2971   6.274   0.568   2.725 -0.3740  0.3386 -0.2583
  691SOL    HW1 2972   6.327   0.533   2.647 -2.2642 -0.4784 -1.2500
  691SOL    HW2 2973   6.293   0.512   2.806  1.3061  0.9468 -0.1879
  692SOL     OW 2974   1.525   6.137   4.704  0.3795  0.1711  0.4558
  692SOL    HW1 2975   1.478   6.219   4.736  1.3200  0.7618  0.3624
  692SOL    HW2 2976   1.622   6.157   4.691  0.6115 -0.9428  0.3654
  693SOL     OW 2977   5.882   2.845   1.655 -0.2443  0.0102 -0.5167
  693SOL    HW1 2978   5.957   2.810   1.600  0.9315 -1.9046  2.0745
  693SOL    HW2 2979   5.907   2.934   1.692  0.6041 -0.4186 -0.0271
  694SOL     OW 2980   4.052   4.936   4.900 -0.4177 -0.1449  0.1205
  694SOL    HW1 2981   3.957   4.925   4.931 -1.4731  1.0683 -2.3761
  694SOL    HW2 2982   4.097   5.007   4.954 -0.5809 -1.3531  1.9309
  695SOL     OW 2983   3.256   2.122   3.110 -0.1901  0.3995  0.5145
  695SOL    HW1 2984   3.207   2.035   3.121  0.6783 -0.1557  0.1375
  695SOL    HW2 2985   3.271   2.163   3.199  0.5828 -0.5312  0.8371
  696SOL     OW 2986   0.327   3.762   2.883 -0.0145  0.1585  0.0629
  696SOL    HW1 2987   0.395   3.758   2.955  0.8194  0.7429 -0.6710
  696SOL    HW2 2988   0.262   3.835   2.902  0.5442  0.6970 -0.0524
  697SOL     OW 2989   0.890   5.413   1.503 -0.4734  0.1093 -0.7532
  697SOL    HW1 2990   0.925   5.471   1.429  1.5843 -0.6409 -0.4265
  697SOL    HW2 2991   0.896   5.464   1.589 -0.6838  0.1584 -0.7670
  698SOL     OW 2992   5.917   6.105   6.669  0.1295  0.0211 -0.3850
  698SOL    HW1 2993   5.860   6.072   6.745 -0.8953  0.1379 -1.0881
  698SOL    HW2 2994   5.859   6.126   6.590  1.0079  1.4076 -0.6962
  699SOL     OW 2995   5.460   2.252   1.541 -0.0743 -0.7099  0.1414
  699SOL    HW1 2996   5.505   2.233   1.454  1.5764  1.5420  0.4020
  699SOL    HW2 2997   5.527   2.253   1.615 -1.1836 -0.9603  1.1900
  700SOL     OW 2998   2.402   0.879   4.762  0.1126 -0.0812  0.2667
  700SOL    HW1 2999   2.474   0.946   4.781 -0.4106  0.5433  0.0887
  700SOL    HW2 3000   2.442   0.800   4.714  0.2076  1.6386 -2.7487
  701SOL     OW 3001   4.524   3.062   0.445 -0.0715  0.0235  0.4752
  701SOL    HW1 3002   4.489   2.969   0.462 -0.2672  0.2679  1.4882
  701SOL    HW2 3003   4.615   3.057   0.405 -0.4683 -0.6137 -0.3725
  702SOL     OW 3004   1.595   0.513   5.876  0.2961 -0.2078 -0.2533
  702SOL    HW1 3005   1.567   0.583   5.942  0.6312 -0.2593 -0.0537
  702SOL    HW2 3006   1.613   0.556   5.787 -0.8699 -0.2383 -0.5153
  703SOL     OW 3007   3.449   2.098   1.049 -0.0773  0.3407  0.1189
  703SOL    HW1 3008   3.432   2.042   1.130  1.8354 -0.1979  0.1940
  703SOL    HW2 3009   3.398   2.060   0.971  0.9683 -1.4260  0.2215
  704SOL     OW 3010   3.167   1.834   1.616 -0.2909 -0.2913 -0.5945
  704SOL    HW1 3011   3.167   1.738   1.589 -0.3015 -0.7808  1.0413
  704SOL    HW2 3012   3.088   1.853   1.675 -0.6470  0.8869 -1.4152
  705SOL     OW 3013   6.362   1.633   6.259 -0.0271  0.1733 -0.2688
  705SOL    HW1 3014   6.422   1.554   6.247 -2.3638 -1.6097 -0.9130
  705SOL    HW2 3015   6.373   1.669   6.352  2.3276  0.2422 -0.5190
  706SOL     OW 3016   3.736   6.825   6.139  0.0437 -0.2504  0.1635
  706SOL    HW1 3017   3.812   6.884   6.111 -0.2547  0.6018  1.0987
  706SOL    HW2 3018   3.729   6.748   6.075  1.8744 -0.5233  0.2299
  707SOL     OW 3019   3.276   5.135   5.334 -0.0463 -0.3615 -0.4787
  707SOL    HW1 3020   3.302   5.227   5.306  0.0856 -0.6479 -1.3133
  707SOL    HW2 3021   3.201   5.141   5.400 -0.9622  0.3094 -1.5400
  708SOL     OW 3022   1.387   6.039   4.317  0.6186 -0.2909  0.1375
  708SOL    HW1 3023   1.455   6.107   4.344  0.6298 -0.5177  0.6965
  708SOL    HW2 3024   1.384   5.966   4.386 -0.7366  0.1121  0.5262
  709SOL     OW 3025   3.365   6.029   1.042 -0.1244 -0.1650 -0.3335
  709SOL    HW1 3026   3.370   5.965   1.118 -0.6356  0.5927  0.3548
  709SOL    HW2 3027   3.417   5.993   0.964 -1.2374 -1.9092 -0.3306
  710SOL     OW 3028   4.314   1.816   4.214 -0.6935 -0.1906 -0.0507
  710SOL    HW1 3029   4.346   1.877   4.142 -2.0004 -0.5888 -1.0142
  710SOL    HW2 3030   4.306   1.723   4.177  0.5224 -0.8103  1.1748
  711SOL     OW 3031   5.238   1.345   0.869  0.2013  0.1222 -0.0339
  711SOL    HW1 3032   5.200   1.382   0.954 -0.3323  0.9411 -0.6042
  711SOL    HW2 3033   5.189   1.261   0.844 -0.3855  0.4793 -0.0974
  712SOL     OW 3034   6.325   4.295   5.692 -0.2043 -0.0488 -0.0558
  712SOL    HW1 3035   6.406   4.283   5.749  0.2469  0.7388 -0.5110
  712SOL    HW2 3036   6.349   4.280   5.596 -0.7129 -0.3213 -0.1426
  713SOL     OW 3037   1.603   4.065   5.701 -0.8554 -0.3261  0.2177
  713SOL    HW1 3038   1.702   4.048   5.700 -0.7690  0.1388  0.4174
  713SOL    HW2 3039   1.562   4.017   5.778 -0.5735  0.5619  0.9381
  714SOL     OW 3040   0.095   6.595   3.569 -0.1491 -0.4400  0.7246
  714SOL    HW1 3041   0.118   6.505   3.530 -0.7459 -0.3311  0.1033
  714SOL    HW2 3042   0.176   6.653   3.568  0.0647 -0.7358  0.4530
  715SOL     OW 3043   5.086   4.572   5.791  0.0537  0.3179 -0.5313
  715SOL    HW1 3044   5.005   4.547   5.738 -0.8612 -0.9389  1.3443
  715SOL    HW2 3045   5.144   4.491   5.804  0.1704  0.5574  0.5136
  716SOL     OW 3046   3.163   1.031   3.249 -0.2981  0.5441 -0.1521
  716SOL    HW1 3047   3.071   1.070   3.258 -0.9799 -1.0773  0.1018
  716SOL    HW2 3048   3.166   0.941   3.292  0.6418 -0.6904 -2.6240
  717SOL     OW 3049   4.375   5.463   4.517 -0.6488 -0.4065 -0.0307
  717SOL    HW1 3050   4.427   5.416   4.588 -0.0701 -0.7361 -0.6541
  717SOL    HW2 3051   4.348   5.554   4.549 -1.6217 -1.0785  1.1270
  718SOL     OW 3052   6.234   1.556   4.572  0.1605 -0.3274 -0.1890
  718SOL    HW1 3053   6.213   1.480   4.634  0.3996 -0.5955 -0.4287
  718SOL    HW2 3054   6.175   1.552   4.492 -2.3575  1.8358  1.4154
  719SOL     OW 3055   3.980   5.134   0.221 -0.8250 -0.2914 -0.9604
  719SOL    HW1 3056   4.063   5.083   0.196 -1.1871 -1.1036 -0.5713
  719SOL    HW2 3057   3.917   5.072   0.269 -1.1255  0.6327 -0.1417
  720SOL     OW 3058   2.530   0.484   1.005  0.0477  0.1714  0.5090
  720SOL    HW1 3059   2.554   0.488   0.908  0.9714  0.3460  0.7346
  720SOL    HW2 3060   2.506   0.576   1.037  0.9891  0.3515  0.7375
  721SOL     OW 3061   6.952   2.256   3.173  0.2398  0.1334  0.0769
  721SOL    HW1 3062   6.876   2.215   3.122  0.3357 -0.3521  0.3191
  721SOL    HW2 3063   7.006   2.313   3.111  1.3426 -1.7720 -0.8149
  722SOL     OW 3064   4.767   0.077   1.465  0.0402  0.0111 -0.0621
  722SOL    HW1 3065   4.808   0.168   1.460 -2.9996  1.7257  2.1238
  722SOL    HW2 3066   4.690   0.072   1.400 -0.8787 -0.2844  1.0122
  723SOL     OW 3067   4.061   0.648   4.281  0.2115  0.1159 -0.0785
  723SOL    HW1 3068   4.114   0.606   4.354 -0.2386  0.1448  0.2720
  723SOL    HW2 3069   4.050   0.583   4.206 -0.7879 -0.5559  0.6102
  724SOL     OW 3070   6.090   2.594   3.292  0.5351  0.5039  0.5066
  724SOL    HW1 3071   6.160   2.653   3.252 -1.0385  0.8780 -1.9326
  724SOL    HW2 3072   6.024   2.568   3.221 -0.7736 -1.3583  2.2872
  725SOL     OW 3073   6.981   2.522   3.028  0.1760  0.2253  0.3545
  725SOL    HW1 3074   7.054   2.576   2.986 -1.3043  2.4396  0.4877
  725SOL    HW2 3075   6.972   2.547   3.124 -0.4446 -0.3939  0.4624
  726SOL     OW 3076   2.814   3.337   6.263 -0.5048 -0.6938  0.5426
  726SOL    HW1 3077   2.821   3.382   6.173  2.1055 -0.7320  0.6462
  726SOL    HW2 3078   2.830   3.404   6.335  2.0338 -1.4049  0.7481
  727SOL     OW 3079   5.123   4.448   6.859 -0.1626 -0.0544  0.6465
  727SOL    HW1 3080   5.024   4.458   6.862 -0.1521  0.4372  4.3202
  727SOL    HW2 3081   5.150   4.364   6.906  1.1928  1.1284  2.1080
  728SOL     OW 3082   6.138   3.885   3.049 -0.2900  0.0176  0.7826
  728SOL    HW1 3083   6.055   3.912   2.999  0.2079  0.5737  0.2235
  728SOL    HW2 3084   6.215   3.940   3.016  0.6506 -1.6442  0.0761
  729SOL     OW 3085   6.904   4.604   0.323  0.0362  0.0146  0.0951
  729SOL    HW1 3086   6.897   4.519   0.271 -1.2418  0.7071 -0.8879
  729SOL    HW2 3087   6.904   4.582   0.421 -0.2626 -1.1116 -0.1378
  730SOL     OW 3088   4.345   2.289   3.989 -0.5126 -0.0429  0.3548
  730SOL    HW1 3089   4.396   2.353   4.046  0.4236  1.3574 -1.9207
  730SOL    HW2 3090   4.399   2.206   3.975 -0.5448 -0.1912  1.0936
  731SOL     OW 3091   4.127   4.633   5.269 -0.1705  0.2265 -0.7381
  731SOL    HW1 3092   4.107   4.726   5.239 -0.0707  0.7703  0.8134
  731SOL    HW2 3093   4.176   4.584   5.196  1.2561  1.9067 -0.9789
  732SOL     OW 3094   5.757   1.554   4.862 -0.3379 -0.0991  0.6206
  732SOL    HW1 3095   5.715   1.469   4.831 -0.6277  0.2099  0.1579
  732SOL    HW2 3096   5.711   1.586   4.945 -0.2962 -0.3360  0.7359
  733SOL     OW 3097   0.486   4.340   2.623  0.0809  0.0371 -0.4305
  733SOL    HW1 3098   0.463   4.258   2.571  0.2485 -0.2438 -0.0728
  733SOL    HW2 3099   0.583   4.338   2.647  0.4867  1.1543 -1.8391
  734SOL     OW 3100   0.215   5.602   4.108 -0.1031 -0.1195  0.3450
  734SOL    HW1 3101   0.204   5.554   4.195  1.0890  0.2647  0.7302
  734SOL    HW2 3102   0.145   5.673   4.100  1.0247  1.2519  1.9901
  735SOL     OW 3103   6.474   6.244   2.964  0.5607 -0.6565 -0.1065
  735SOL    HW1 3104   6.443   6.278   3.053 -0.0136 -2.3021  0.3569
  735SOL    HW2 3105   6.411   6.276   2.893  0.3872 -0.2388  0.2311
  736SOL     OW 3106   1.329   2.254   4.053 -0.5458  0.6001 -0.6172
  736SOL    HW1 3107   1.405   2.318   4.071  0.6128 -0.6801 -0.7835
  736SOL    HW2 3108   1.243   2.297   4.078  0.4997  0.6213  3.9069
  737SOL     OW 3109   4.128   1.548   6.947  0.0200 -0.0665 -0.6447
  737SOL    HW1 3110   4.085   1.514   7.031  0.4298  0.3591 -0.2583
  737SOL    HW2 3111   4.111   1.646   6.939 -0.4542 -0.2002 -1.3285
  738SOL     OW 3112   1.043   4.832   6.413  0.1411 -0.2093 -0.7460
  738SOL    HW1 3113   1.102   4.800   6.488  0.0510  2.4941  0.6049
  738SOL    HW2 3114   0.952   4.854   6.448  0.5137  2.5034 -1.2256
  739SOL     OW 3115   1.658   6.958   3.408  0.8644  0.0829 -0.3688
  739SOL    HW1 3116   1.715   6.880   3.382 -3.0780 -3.7168  1.1355
  739SOL    HW2 3117   1.698   7.003   3.487  2.9967 -0.7005 -0.9165
  740SOL     OW 3118   4.047   0.547   1.726  0.7238  0.4623 -0.9735
  740SOL    HW1 3119   4.027   0.617   1.658 -0.6242  1.0370 -0.0421
  740SOL    HW2 3120   4.070   0.591   1.813 -0.5582 -0.2088 -0.2571
  741SOL     OW 3121   2.125   0.576   3.552  0.3018 -0.1354 -0.3275
  741SOL    HW1 3122   2.074   0.521   3.487  0.9540  1.1544 -1.9973
  741SOL    HW2 3123   2.062   0.609   3.624 -1.4795  1.9338 -2.6558
  742SOL     OW 3124   2.851   0.786   0.823 -0.6791  0.6943  0.0303
  742SOL    HW1 3125   2.870   0.871   0.774 -0.7163  0.5645 -0.2104
  742SOL    HW2 3126   2.906   0.712   0.783 -0.1383  0.7416  0.6707
  743SOL     OW 3127   6.467   0.569   1.527 -0.1082  0.0753 -0.4149
  743SOL    HW1 3128   6.426   0.575   1.436 -0.0503  1.1500 -0.3835
  743SOL    HW2 3129   6.401   0.530   1.591 -0.5156  0.3048 -0.6899
  744SOL     OW 3130   5.907   0.573   6.991  0.1350  0.4066 -0.0439
  744SOL    HW1 3131   5.975   0.570   7.063 -0.0107 -0.4517  0.0639
  744SOL    HW2 3132   5.952   0.576   6.902  0.3260  1.9979  0.0621
  745SOL     OW 3133   0.025   4.597   5.505 -0.0610  0.4179  0.0218
  745SOL    HW1 3134  -0.025   4.554   5.580 -1.1255  1.8233  0.1417
  745SOL    HW2 3135   0.047   4.527   5.436 -1.6579 -0.3526  0.2454
  746SOL     OW 3136   6.055   5.070   6.737 -0.7546  0.1598  0.1756
  746SOL    HW1 3137   6.127   5.139   6.733 -0.0435 -0.4782  1.2335
  746SOL    HW2 3138   6.092   4.982   6.707 -0.1191 -0.8654  3.4971
  747SOL     OW 3139   2.208   4.625   3.719  0.8802 -0.1212  0.2067
  747SOL    HW1 3140   2.284   4.671   3.764 -0.3210  2.0903  0.1536
  747SOL    HW2 3141   2.152   4.578   3.787  0.2500  1.4168  0.7903
  748SOL     OW 3142   6.711   6.623   2.900  0.3756 -0.2694 -0.3997
  748SOL    HW1 3143   6.743   6.657   2.812 -2.1328 -2.5338 -2.3523
  748SOL    HW2 3144   6.706   6.523   2.897 -1.0629 -0.3311  1.8585
  749SOL     OW 3145   4.369   4.857   5.088 -0.5600  0.2922  0.6788
  749SOL    HW1 3146   4.458   4.895   5.062 -0.4971  0.6790  1.4365
  749SOL    HW2 3147   4.354   4.772   5.038  1.0091 -0.6766  1.7546
  750SOL     OW 3148   3.667   1.517   2.294 -0.1667  0.7677  0.3150
  750SOL    HW1 3149   3.637   1.475   2.380  1.8579 -2.7060 -0.4633
  750SOL    HW2 3150   3.592   1.515   2.228  0.2474 -3.9761 -0.3535
  751SOL     OW 3151   4.998   0.839   0.403 -0.2042  0.4058 -0.0247
  751SOL    HW1 3152   5.075   0.864   0.345  0.2663  0.1380  0.4722
  751SOL    HW2 3153   4.925   0.906   0.393  0.0002  0.5389 -0.6722
  752SOL     OW 3154   3.134   3.592   5.889  0.3203  0.1103 -0.1929
  752SOL    HW1 3155   3.054   3.588   5.829  1.3852 -1.4564 -1.6207
  752SOL    HW2 3156   3.136   3.512   5.948 -0.1105  1.0739  1.1589
  753SOL     OW 3157   3.679   3.315   2.477  0.4021 -0.3301 -0.0332
  753SOL    HW1 3158   3.604   3.341   2.537  1.4576 -1.0202  1.6776
  753SOL    HW2 3159   3.646   3.252   2.407 -0.8873  0.5514 -0.2433
  754SOL     OW 3160   3.388   5.780   6.759  0.1409  0.0046 -0.1980
  754SOL    HW1 3161   3.346   5.698   6.797 -1.0316  0.3627 -0.6673
  754SOL    HW2 3162   3.402   5.768   6.661  0.2679  0.2443 -0.2101
  755SOL     OW 3163   4.609   3.797   5.328  0.1939 -0.7870  0.0014
  755SOL    HW1 3164   4.523   3.838   5.296  1.2263  0.6395 -1.0647
  755SOL    HW2 3165   4.645   3.736   5.258  0.5006 -0.6819  0.0663
  756SOL     OW 3166   4.342   3.806   5.993 -0.4700 -0.1252 -0.6794
  756SOL    HW1 3167   4.347   3.706   5.997  0.4959 -0.0589  0.0318
  756SOL    HW2 3168   4.405   3.840   5.924  0.0450  0.0489 -0.1287
  757SOL     OW 3169   0.645   1.391   0.546 -0.0806  0.0345 -0.1638
  757SOL    HW1 3170   0.672   1.483   0.516  1.7584  0.1531  1.6207
  757SOL    HW2 3171   0.659   1.327   0.471  1.1066  0.8290 -0.6552
  758SOL     OW 3172   4.231   1.336   6.238 -0.6779  0.3842  0.2643
  758SOL    HW1 3173   4.290   1.396   6.185  1.1153  0.4884  2.2345
  758SOL    HW2 3174   4.270   1.243   6.238 -1.1609  0.1783  0.6107
  759SOL     OW 3175   0.779   6.199   6.276  0.0585  0.3005 -0.7226
  759SOL    HW1 3176   0.752   6.115   6.228  0.0476 -0.1845  0.1018
  759SOL    HW2 3177   0.877   6.212   6.268  0.2025 -0.3065 -0.0868
  760SOL     OW 3178   0.793   6.845   5.058 -0.1080  0.9905  0.5758
  760SOL    HW1 3179   0.890   6.829   5.043  0.0524  2.1916  0.2062
  760SOL    HW2 3180   0.747   6.856   4.970 -0.4633  1.0382  0.7667
  761SOL     OW 3181   4.855   4.497   6.841 -0.4698  0.3447  0.0851
  761SOL    HW1 3182   4.771   4.476   6.890 -0.7204  0.9794 -0.0547
  761SOL    HW2 3183   4.861   4.596   6.826 -0.2655  0.2000 -0.8986
  762SOL     OW 3184   4.075   6.748   2.695  0.0849  0.6689  0.0205
  762SOL    HW1 3185   3.989   6.772   2.650 -0.1568  0.3743  0.3248
  762SOL    HW2 3186   4.061   6.740   2.793  0.7325  1.8580  0.2331
  763SOL     OW 3187   4.851   0.561   6.159  0.5853  0.1738 -0.3089
  763SOL    HW1 3188   4.868   0.552   6.060  1.6120  1.5950 -0.2852
  763SOL    HW2 3189   4.910   0.497   6.208  3.0526  2.1881 -0.4582
  764SOL     OW 3190   5.989   1.396   4.938 -0.1207  0.3689  0.2883
  764SOL    HW1 3191   5.961   1.340   5.016 -0.1615 -0.9425 -0.6476
  764SOL    HW2 3192   5.909   1.416   4.881  0.2487 -0.4751 -0.5456
  765SOL     OW 3193   0.734   5.238   5.373 -0.7119  0.2636  0.3206
  765SOL    HW1 3194   0.641   5.244   5.411  0.4374  0.9608  3.2899
  765SOL    HW2 3195   0.796   5.293   5.428  1.7119 -1.0943 -0.8846
  766SOL     OW 3196   3.301   1.840   4.626 -0.0941  0.0728 -0.3291
  766SOL    HW1 3197   3.377   1.778   4.608 -0.1372 -0.0371 -0.1397
  766SOL    HW2 3198   3.216   1.800   4.590  0.2983  1.3647 -2.9187
  767SOL     OW 3199   4.388   0.525   3.124  0.3297 -0.4577  0.0383
  767SOL    HW1 3200   4.488   0.525   3.114  0.3189  0.1308 -0.0777
  767SOL    HW2 3201   4.363   0.469   3.203  0.7700 -0.3730  0.2417
  768SOL     OW 3202   2.047   6.113   1.331  0.3245 -0.2577 -0.0469
  768SOL    HW1 3203   2.080   6.071   1.415  1.3827  2.1722  0.8288
  768SOL    HW2 3204   2.078   6.060   1.252  0.7386 -1.6360  1.0170
  769SOL     OW 3205   3.807   3.333   4.965 -0.9551 -0.4284  0.4913
  769SOL    HW1 3206   3.866   3.297   5.037  1.0067 -0.8607 -1.2344
  769SOL    HW2 3207   3.794   3.431   4.978  1.3147 -0.0393  0.2144
  770SOL     OW 3208   0.450   5.057   5.191  0.0243  0.2452  0.3396
  770SOL    HW1 3209   0.352   5.073   5.177 -0.8839 -2.8812  2.0485
  770SOL    HW2 3210   0.484   5.000   5.116  0.1852  0.2628  0.4006
  771SOL     OW 3211   0.960   6.690   4.246  0.5706  0.5948  0.0400
  771SOL    HW1 3212   0.907   6.605   4.250 -0.7810  1.3663 -0.7136
  771SOL    HW2 3213   0.988   6.715   4.339  1.8398 -1.1466  0.1891
  772SOL     OW 3214   5.988   5.014   6.297 -0.0004 -0.0218  0.5111
  772SOL    HW1 3215   6.006   5.108   6.327 -1.5464  0.3017  0.5202
  772SOL    HW2 3216   5.938   4.965   6.368 -0.0469 -0.5547  0.1180
  773SOL     OW 3217   1.182   5.590   1.884 -0.2211  0.4622  0.0345
  773SOL    HW1 3218   1.105   5.533   1.911 -0.2072  1.2244  1.8008
  773SOL    HW2 3219   1.247   5.596   1.959 -0.2126  2.7700 -0.0890
  774SOL     OW 3220   1.348   2.021   2.538  0.4597  0.0186 -0.0609
  774SOL    HW1 3221   1.439   1.987   2.513  0.5755  0.2974 -0.0263
  774SOL    HW2 3222   1.294   1.946   2.578  0.7435 -0.1024  0.1042
  775SOL     OW 3223   0.250   6.459   1.272  0.2095  0.8629 -0.5712
  775SOL    HW1 3224   0.323   6.494   1.213 -0.6084  0.8344 -1.6382
  775SOL    HW2 3225   0.163   6.463   1.223 -0.7580  2.1723  1.1494
  776SOL     OW 3226   2.291   3.882   1.019  0.2521 -0.4831 -0.7039
  776SOL    HW1 3227   2.258   3.805   1.074  0.1448 -0.2985 -0.5127
  776SOL    HW2 3228   2.310   3.960   1.078  1.4724 -0.7331 -0.7546
  777SOL     OW 3229   6.446   2.328   0.585  0.7107  0.2810 -0.7371
  777SOL    HW1 3230   6.423   2.301   0.679  0.0153  1.0761 -0.6651
  777SOL    HW2 3231   6.375   2.388   0.550 -0.3887 -1.9933 -2.7081
  778SOL     OW 3232   2.339   4.039   0.486 -0.1726  0.1190 -0.2150
  778SOL    HW1 3233   2.351   4.124   0.434  0.7042 -0.5555 -1.1259
  778SOL    HW2 3234   2.414   4.030   0.552 -1.6587  1.3438  1.7808
  779SOL     OW 3235   5.528   2.963   4.467 -0.0839  0.0747 -0.1354
  779SOL    HW1 3236   5.520   3.011   4.380  0.7308 -0.8687 -0.7565
  779SOL    HW2 3237   5.448   2.903   4.479  0.2198 -0.4432 -0.6568
  780SOL     OW 3238   4.214   0.621   5.207 -0.3326  0.1174  0.1136
  780SOL    HW1 3239   4.158   0.703   5.205 -1.0660 -0.3960 -1.2930
  780SOL    HW2 3240   4.253   0.604   5.116 -0.9936 -1.6213  0.1156
  781SOL     OW 3241   1.888   4.248   4.735  0.2219  0.3311 -0.2902
  781SOL    HW1 3242   1.813   4.189   4.704  0.9512 -1.0270  0.4152
  781SOL    HW2 3243   1.865   4.288   4.824  0.6740 -0.8226  0.3687
  782SOL     OW 3244   3.242   3.650   5.090  0.0847  0.3082  0.2156
  782SOL    HW1 3245   3.206   3.582   5.153  1.8194 -0.6854  0.1739
  782SOL    HW2 3246   3.181   3.659   5.011 -0.5558 -0.6247  0.5983
  783SOL     OW 3247   6.716   4.241   5.407 -0.6091  0.3043 -0.6474
  783SOL    HW1 3248   6.707   4.244   5.307 -1.0370 -0.7213 -0.6465
  783SOL    HW2 3249   6.752   4.329   5.439  2.5411 -0.3678 -1.9822
  784SOL     OW 3250   3.220   5.656   5.204  0.7479  0.5968 -0.2384
  784SOL    HW1 3251   3.158   5.688   5.276  3.2581  2.0950  1.4286
  784SOL    HW2 3252   3.167   5.627   5.125 -2.1811 -1.2969  2.2041
  785SOL     OW 3253   1.854   0.737   5.255  0.1827 -0.1590  1.0606
  785SOL    HW1 3254   1.815   0.691   5.175 -0.1500 -0.8589  1.6119
  785SOL    HW2 3255   1.907   0.816   5.226 -0.9056  0.2868  0.2162
  786SOL     OW 3256   6.970   1.628   3.378  0.3285 -0.2329 -0.0976
  786SOL    HW1 3257   7.037   1.669   3.441  1.4169 -1.3754 -0.4711
  786SOL    HW2 3258   7.014   1.610   3.290 -0.5843 -0.6401 -0.4785
  787SOL     OW 3259   3.402   0.687   0.489  0.0404  0.1686 -0.8204
  787SOL    HW1 3260   3.321   0.735   0.521  0.4685 -0.0087  0.6029
  787SOL    HW2 3261   3.470   0.754   0.457  0.5796  0.5675  1.0246
  788SOL     OW 3262   1.376   3.196   2.287  0.0306 -0.7243  0.2530
  788SOL    HW1 3263   1.429   3.127   2.337 -1.7222 -1.1134  1.6892
  788SOL    HW2 3264   1.303   3.151   2.236  0.7041 -0.1521 -1.2755
  789SOL     OW 3265   2.198   5.430   3.133  0.5262 -0.0072 -0.1039
  789SOL    HW1 3266   2.254   5.458   3.212  1.0627 -1.6514  0.1433
  789SOL    HW2 3267   2.110   5.477   3.136  1.1746  1.2097  0.5491
  790SOL     OW 3268   6.783   3.543   2.980  0.5786  0.3876 -0.0828
  790SOL    HW1 3269   6.713   3.559   3.049  0.5486  0.1690 -0.0611
  790SOL    HW2 3270   6.799   3.444   2.971  0.5736  0.4154 -0.3970
  791SOL     OW 3271   2.469   0.410   5.196  0.2004 -0.1927  0.1418
  791SOL    HW1 3272   2.508   0.339   5.254 -0.0536 -0.5451 -0.1203
  791SOL    HW2 3273   2.376   0.430   5.225  0.3475  0.1928  0.3565
  792SOL     OW 3274   3.546   1.150   0.240  0.1119  0.2274 -0.0253
  792SOL    HW1 3275   3.548   1.186   0.146 -1.4760  0.3003 -0.0592
  792SOL    HW2 3276   3.481   1.203   0.295 -0.6256 -1.1722  0.5122
  793SOL     OW 3277   2.971   5.235   4.852  1.0575  0.4619  0.3397
  793SOL    HW1 3278   3.032   5.198   4.921  0.0129  1.8650  2.1166
  793SOL    HW2 3279   2.920   5.160   4.809  0.5888 -0.3673  2.2314
  794SOL     OW 3280   4.462   3.867   1.700 -0.7306 -0.0958  0.3905
  794SOL    HW1 3281   4.407   3.948   1.679 -1.1759 -0.2789  0.8281
  794SOL    HW2 3282   4.402   3.787   1.705 -0.1943 -0.5883 -0.7876
  795SOL     OW 3283   3.109   0.219   0.433 -0.3225 -0.5731 -0.2482
  795SOL    HW1 3284   3.093   0.281   0.357  1.5732  0.7031  0.3213
  795SOL    HW2 3285   3.188   0.160   0.412  0.7140  0.3201  0.9746
  796SOL     OW 3286   2.377   3.018   6.384 -0.1737 -0.6027  0.0964
  796SOL    HW1 3287   2.459   3.072   6.403  0.1700 -1.5129  1.3357
  796SOL    HW2 3288   2.399   2.921   6.389 -0.9078 -0.8855 -1.5488
  797SOL     OW 3289   3.109   1.282   1.401  0.6880 -0.3385 -0.0260
  797SOL    HW1 3290   3.045   1.235   1.462 -0.0010  1.4582  0.6943
  797SOL    HW2 3291   3.153   1.215   1.341  0.2973 -1.9756  1.4360
  798SOL     OW 3292   4.931   5.154   1.989 -0.4208  0.0198  0.1812
  798SOL    HW1 3293   4.833   5.136   1.985  0.0483 -3.2417  0.0185
  798SOL    HW2 3294   4.956   5.219   1.918 -1.9303 -2.7286 -3.1929
  799SOL     OW 3295   3.185   4.042   3.670 -0.3554  0.0497  0.1777
  799SOL    HW1 3296   3.237   3.969   3.713  0.8355  0.2364 -0.8692
  799SOL    HW2 3297   3.112   4.003   3.614 -0.4169 -0.2918  0.4966
  800SOL     OW 3298   4.792   3.018   4.231  0.4572 -0.2237  0.1984
  800SOL    HW1 3299   4.702   3.006   4.274  0.5954 -0.6635  0.3676
  800SOL    HW2 3300   4.833   3.104   4.264 -0.4423  0.6347 -0.8471
  801SOL     OW 3301   4.951   5.558   1.017  0.0864 -0.0865 -0.3464
  801SOL    HW1 3302   5.007   5.479   1.040 -0.2357  0.0447  1.0221
  801SOL    HW2 3303   4.904   5.590   1.100  4.0061  4.5703  0.5327
  802SOL     OW 3304   3.396   2.860   5.496  0.4709 -0.0289  0.3583
  802SOL    HW1 3305   3.417   2.807   5.579  4.1531  1.9450  0.9251
  802SOL    HW2 3306   3.359   2.799   5.426 -2.8189 -1.7766  3.3248
  803SOL     OW 3307   2.350   2.337   3.847 -0.4312  0.0963  0.1869
  803SOL    HW1 3308   2.349   2.266   3.778 -0.1035 -1.7960  2.0228
  803SOL    HW2 3309   2.268   2.394   3.838 -1.4848 -1.4488 -0.4168
  804SOL     OW 3310   6.405   1.476   3.174 -0.2106 -0.4019 -0.6224
  804SOL    HW1 3311   6.418   1.429   3.087  0.6596  0.6035 -1.0593
  804SOL    HW2 3312   6.368   1.412   3.241 -2.5779 -0.8073 -2.1615
  805SOL     OW 3313   4.161   1.954   3.942  0.2453 -0.6475 -0.2345
  805SOL    HW1 3314   4.236   1.899   3.903 -0.2017 -1.4098 -0.0459
  805SOL    HW2 3315   4.113   2.002   3.869 -0.1914 -1.5680 -0.5753
  806SOL     OW 3316   5.217   0.233   6.219 -0.0676 -0.6242 -0.1258
  806SOL    HW1 3317   5.141   0.189   6.170 -0.8591  0.2059  0.3363
  806SOL    HW2 3318   5.229   0.326   6.186 -0.0048 -0.3652  0.6142
  807SOL     OW 3319   6.653   0.435   3.939  0.4278 -0.3330  0.1516
  807SOL    HW1 3320   6.718   0.374   3.984  0.7147  0.8276  1.3756
  807SOL    HW2 3321   6.595   0.382   3.877  2.0059 -1.5000 -0.3721
  808SOL     OW 3322   5.139   0.835   4.862 -0.0688  0.4473  0.3062
  808SOL    HW1 3323   5.131   0.934   4.856 -1.8191  0.2956 -0.3441
  808SOL    HW2 3324   5.175   0.810   4.952  1.5962  1.6929  0.0475
  809SOL     OW 3325   3.006   6.748   5.775  0.6676 -1.0561 -0.3922
  809SOL    HW1 3326   3.011   6.649   5.789  0.6946 -0.8595  1.1804
  809SOL    HW2 3327   3.028   6.795   5.860 -1.2770  0.2790 -0.5603
  810SOL     OW 3328   3.586   1.870   6.750 -0.4857 -0.5086 -0.2526
  810SOL    HW1 3329   3.653   1.883   6.822 -0.1839 -0.4635 -0.5405
  810SOL    HW2 3330   3.625   1.814   6.677 -0.6394 -0.1997 -0.5800
  811SOL     OW 3331   5.841   4.041   6.037  0.0999 -0.2784  0.3605
  811SOL    HW1 3332   5.903   3.971   6.000  0.8812  1.3113 -1.4967
  811SOL    HW2 3333   5.886   4.130   6.034 -1.8985  0.7696 -0.0541
  812SOL     OW 3334   1.212   2.890   6.437  0.1233  0.0163  0.0401
  812SOL    HW1 3335   1.231   2.969   6.379  1.9828 -0.0835  0.4560
  812SOL    HW2 3336   1.136   2.837   6.398 -0.5141  1.4590 -0.7542
  813SOL     OW 3337   1.484   1.955   5.239 -0.1982 -0.5864  0.1109
  813SOL    HW1 3338   1.570   2.006   5.242  0.0668 -1.0180 -0.0422
  813SOL    HW2 3339   1.460   1.924   5.331  0.4275 -1.4732 -0.0106
  814SOL     OW 3340   1.639   3.741   2.671  0.0162 -0.1371  0.3939
  814SOL    HW1 3341   1.730   3.701   2.678  0.4254  0.7035  0.0525
  814SOL    HW2 3342   1.647   3.841   2.664 -0.8683 -0.1342 -0.8171
  815SOL     OW 3343   3.420   1.530   4.116  0.3938  0.3167  0.0452
  815SOL    HW1 3344   3.387   1.475   4.039  0.6828  1.3765 -0.8497
  815SOL    HW2 3345   3.500   1.486   4.157 -1.1989 -1.5703  1.3724
  816SOL     OW 3346   4.805   4.830   0.150 -0.3741 -0.0517 -0.2161
  816SOL    HW1 3347   4.734   4.795   0.089  0.5922  0.1866 -1.5207
  816SOL    HW2 3348   4.864   4.755   0.180  1.1972  0.2500 -2.3494
  817SOL     OW 3349   5.505   5.145   0.469  0.5009  0.3719  0.7149
  817SOL    HW1 3350   5.486   5.130   0.372  0.3332  0.3723  0.7459
  817SOL    HW2 3351   5.445   5.217   0.504  0.9177  0.7287  0.6977
  818SOL     OW 3352   0.652   1.663   5.901 -0.0350  0.0876  0.2807
  818SOL    HW1 3353   0.721   1.602   5.942  0.7530  0.4671 -0.4491
  818SOL    HW2 3354   0.566   1.654   5.951  0.4587 -0.6129  1.0350
  819SOL     OW 3355   6.266   2.610   6.536 -0.2493 -0.0530  0.3599
  819SOL    HW1 3356   6.220   2.535   6.488  0.4239  0.0477 -0.4566
  819SOL    HW2 3357   6.323   2.661   6.472  1.3451 -0.4380  1.4123
  820SOL     OW 3358   3.083   2.306   0.063  0.3166 -0.3582 -0.2074
  820SOL    HW1 3359   3.077   2.393   0.112  1.0983 -0.6349  0.3950
  820SOL    HW2 3360   2.993   2.263   0.062  0.2377 -0.2396  0.7912
  821SOL     OW 3361   5.477   2.888   0.695 -0.2455  0.1262 -0.2135
  821SOL    HW1 3362   5.410   2.839   0.638 -0.9652  1.6915 -0.7603
  821SOL    HW2 3363   5.535   2.821   0.742 -1.0802 -1.2453 -1.0466
  822SOL     OW 3364   6.575   3.586   3.178  0.2413  0.5424 -0.1354
  822SOL    HW1 3365   6.561   3.677   3.137  1.2859  0.1233 -1.4987
  822SOL    HW2 3366   6.631   3.595   3.260 -0.3264  1.2119  0.1856
  823SOL     OW 3367   6.992   3.151   4.301 -0.1632 -0.2400 -0.3379
  823SOL    HW1 3368   6.911   3.150   4.242 -1.0538 -0.7972  0.8658
  823SOL    HW2 3369   7.048   3.231   4.278 -2.6898  2.0611  0.9604
  824SOL     OW 3370   5.779   0.215   6.021  0.4308  0.3476  0.0489
  824SOL    HW1 3371   5.737   0.232   6.111 -2.1328  1.1960 -1.2209
  824SOL    HW2 3372   5.824   0.126   6.023  1.2569  0.7280  2.4297
  825SOL     OW 3373   0.195   5.425   1.564  0.5179  0.0462  0.0595
  825SOL    HW1 3374   0.227   5.482   1.488  0.7797  0.2298  0.3070
  825SOL    HW2 3375   0.200   5.476   1.649 -0.8571  0.2306  0.0531
  826SOL     OW 3376   1.649   1.689   0.407 -0.0199 -0.0136 -1.0111
  826SOL    HW1 3377   1.731   1.709   0.353 -0.5951  1.9579 -1.2188
  826SOL    HW2 3378   1.676   1.644   0.492  1.4034  1.5680 -0.5695
  827SOL     OW 3379   3.849   3.029   5.407 -0.0382  0.5055 -0.3581
  827SOL    HW1 3380   3.816   2.952   5.463 -1.8432  1.1704 -0.4476
  827SOL    HW2 3381   3.947   3.040   5.421 -0.0800 -0.6335  1.1085
  828SOL     OW 3382   0.623   6.869   6.156 -0.6967 -0.0050  0.0413
  828SOL    HW1 3383   0.717   6.854   6.187 -0.3666  0.5309 -0.6684
  828SOL    HW2 3384   0.570   6.785   6.169 -0.6970  0.2917  2.3946
  829SOL     OW 3385   4.041   3.355   1.544  1.0507 -0.2760  0.1569
  829SOL    HW1 3386   4.059   3.327   1.638  0.1205 -0.7377  0.2027
  829SOL    HW2 3387   3.945   3.341   1.522  0.4850  2.8615  0.1593
  830SOL     OW 3388   6.745   3.097   3.750 -0.3190 -0.4753 -0.2594
  830SOL    HW1 3389   6.834   3.093   3.795 -0.7368 -0.2947  0.5965
  830SOL    HW2 3390   6.753   3.059   3.658  0.5503 -0.8389 -0.0455
  831SOL     OW 3391   3.398   0.941   2.547 -0.0615 -0.1046 -0.6660
  831SOL    HW1 3392   3.377   1.038   2.565  0.0332 -0.2407  0.2169
  831SOL    HW2 3393   3.480   0.935   2.491  1.2405  0.3042  1.1010
  832SOL     OW 3394   3.153   1.779   5.023  0.7202 -0.5276  0.3634
  832SOL    HW1 3395   3.212   1.860   5.016 -0.2477  0.2799  1.2629
  832SOL    HW2 3396   3.081   1.785   4.955 -1.8118  1.5165  2.9892
  833SOL     OW 3397   2.962   2.112   6.890  0.0111  0.4496 -0.1375
  833SOL    HW1 3398   2.952   2.062   6.804 -1.1519  1.7335 -0.7697
  833SOL    HW2 3399   3.056   2.147   6.897  0.2439 -0.0499 -0.6503
  834SOL     OW 3400   4.520   3.576   1.494  0.3808 -0.0324  0.1664
  834SOL    HW1 3401   4.567   3.519   1.426 -3.1334 -2.2610 -0.6854
  834SOL    HW2 3402   4.488   3.519   1.569 -1.1016  1.2626  0.5801
  835SOL     OW 3403   6.725   5.954   5.947 -0.0381 -0.7584 -0.0526
  835SOL    HW1 3404   6.806   5.926   5.999  0.6388 -0.3698 -0.8738
  835SOL    HW2 3405   6.751   5.974   5.853 -0.9240  0.2455 -0.1097
  836SOL     OW 3406   6.246   1.402   6.046  0.6797  0.2855  0.0921
  836SOL    HW1 3407   6.148   1.409   6.065  0.1380 -1.1051 -1.8372
  836SOL    HW2 3408   6.296   1.388   6.132 -0.8125  0.7650  1.0802
  837SOL     OW 3409   6.782   5.606   6.222 -0.1955 -0.2809 -0.0415
  837SOL    HW1 3410   6.725   5.662   6.283 -1.0876 -0.5350 -0.6290
  837SOL    HW2 3411   6.818   5.663   6.148  1.0810  0.0809  0.8209
  838SOL     OW 3412   1.114   6.666   0.918  0.2767 -0.3424 -0.3004
  838SOL    HW1 3413   1.143   6.578   0.957 -2.3351 -0.5804  1.3156
  838SOL    HW2 3414   1.134   6.740   0.982 -0.2618 -0.1780 -0.3127
  839SOL     OW 3415   3.990   2.294   5.820 -0.4817  0.2420  0.4269
  839SOL    HW1 3416   3.951   2.255   5.737  0.6797  1.6866 -0.8750
  839SOL    HW2 3417   4.083   2.258   5.832 -0.0030  1.3540  0.1101
  840SOL     OW 3418   1.703   4.285   0.786 -0.2495 -0.1692  0.5565
  840SOL    HW1 3419   1.619   4.291   0.733 -1.7341 -0.6115  2.7216
  840SOL    HW2 3420   1.766   4.357   0.756 -2.0858  1.3065  0.0114
  841SOL     OW 3421   2.968   5.176   0.759  0.4170 -0.2505  0.0511
  841SOL    HW1 3422   3.026   5.142   0.834 -0.0954 -1.6652 -0.1687
  841SOL    HW2 3423   2.881   5.126   0.759 -0.4345  1.1824 -0.2194
  842SOL     OW 3424   4.108   0.221   0.299  0.2909 -0.0210  0.1081
  842SOL    HW1 3425   4.081   0.169   0.218 -0.4252  1.5300 -0.6911
  842SOL    HW2 3426   4.154   0.305   0.271  0.4136  0.3377  1.3320
  843SOL     OW 3427   1.763   1.582   2.451 -0.2724 -0.2449  0.8667
  843SOL    HW1 3428   1.800   1.596   2.359  0.4780  1.5744  1.4126
  843SOL    HW2 3429   1.831   1.607   2.519 -1.9478  1.8610  1.9057
  844SOL     OW 3430   0.928   6.385   0.406  0.0325  0.0275  0.2194
  844SOL    HW1 3431   0.838   6.429   0.405 -0.6962 -1.3799  1.0566
  844SOL    HW2 3432   0.949   6.349   0.316  0.3710  1.5067 -0.3209
  845SOL     OW 3433   2.397   1.472   0.896 -0.2281  0.1995  0.2651
  845SOL    HW1 3434   2.335   1.402   0.933  0.2327 -1.1823 -1.4445
  845SOL    HW2 3435   2.344   1.537   0.841 -0.4620  0.3113  0.6214
  846SOL     OW 3436   1.436   6.481   2.304  0.3317 -0.1124  0.3141
  846SOL    HW1 3437   1.453   6.579   2.318 -1.1789  0.3296 -0.7021
  846SOL    HW2 3438   1.523   6.435   2.282  1.3393  0.6638  2.3995
  847SOL     OW 3439   5.280   2.614   1.133  0.3074  0.0442  0.2232
  847SOL    HW1 3440   5.311   2.708   1.143 -0.0929  0.2828 -0.6893
  847SOL    HW2 3441   5.305   2.562   1.215  0.8943  0.8331  0.5593
  848SOL     OW 3442   2.836   5.975   2.135 -0.2706  0.5208  0.0342
  848SOL    HW1 3443   2.897   6.023   2.197  0.6118  0.5096 -0.8024
  848SOL    HW2 3444   2.752   5.949   2.183  1.1494 -1.1346  1.7192
  849SOL     OW 3445   5.037   1.666   6.618  0.4239  0.2686 -0.1393
  849SOL    HW1 3446   5.094   1.690   6.539 -0.7388 -1.3260 -1.5168
  849SOL    HW2 3447   5.039   1.567   6.632 -0.6421  0.3713  0.8548
  850SOL     OW 3448   1.773   0.629   5.686  0.0573  0.0048  0.7285
  850SOL    HW1 3449   1.774   0.726   5.713 -0.2338  0.7983 -1.8572
  850SOL    HW2 3450   1.862   0.603   5.650 -0.1504 -0.4104  0.5048
  851SOL     OW 3451   5.141   1.761   4.671 -0.0932  0.2692 -0.3407
  851SOL    HW1 3452   5.230   1.745   4.714  0.4651 -1.7628 -2.0521
  851SOL    HW2 3453   5.072   1.704   4.716 -0.1716  0.5312 -0.1272
  852SOL     OW 3454   0.461   3.265   6.298  0.0630 -0.1208 -0.5118
  852SOL    HW1 3455   0.560   3.253   6.301  0.1411 -0.0102 -2.0226
  852SOL    HW2 3456   0.417   3.200   6.361  1.0835 -0.0206  0.3363
  853SOL     OW 3457   3.793   2.825   1.026 -0.0736 -0.3121 -0.3891
  853SOL    HW1 3458   3.788   2.765   0.946 -0.4259 -0.4618 -0.2587
  853SOL    HW2 3459   3.703   2.864   1.044  0.4032  1.2649 -1.2206
  854SOL     OW 3460   5.737   2.416   6.834 -0.3680 -0.4636 -0.1809
  854SOL    HW1 3461   5.785   2.486   6.888  1.1403 -1.7130  0.1611
  854SOL    HW2 3462   5.704   2.344   6.895  0.3070 -1.2940 -0.7808
  855SOL     OW 3463   4.793   2.525   0.375  0.0730  0.8637  0.2361
  855SOL    HW1 3464   4.884   2.563   0.362  0.2284  0.1189 -0.9464
  855SOL    HW2 3465   4.738   2.539   0.293 -0.6591  0.7146  0.6880
  856SOL     OW 3466   3.173   6.389   6.484  0.0023 -0.4074  0.6663
  856SOL    HW1 3467   3.167   6.469   6.544 -1.0403 -1.1322  1.5556
  856SOL    HW2 3468   3.101   6.324   6.507 -1.2162 -0.2033 -2.1746
  857SOL     OW 3469   0.046   5.822   0.261 -0.0894  0.5364 -0.1090
  857SOL    HW1 3470  -0.012   5.755   0.214 -0.9306  1.2954 -0.1879
  857SOL    HW2 3471   0.002   5.912   0.258  0.6415  0.9367  0.6897
  858SOL     OW 3472   2.734   4.414   0.899 -0.6554  0.0620  0.3225
  858SOL    HW1 3473   2.657   4.352   0.916 -0.1365 -0.2992  1.5261
  858SOL    HW2 3474   2.723   4.458   0.810 -1.6297 -0.8910 -0.0553
  859SOL     OW 3475   3.709   6.363   5.220  0.1476 -0.6593 -0.4510
  859SOL    HW1 3476   3.800   6.396   5.197 -0.9493  1.0188 -2.8232
  859SOL    HW2 3477   3.691   6.277   5.171 -0.0508 -0.2313 -1.1332
  860SOL     OW 3478   5.178   1.625   5.893 -0.1428  0.4785 -0.6063
  860SOL    HW1 3479   5.164   1.688   5.816 -0.7862 -0.9470 -1.7059
  860SOL    HW2 3480   5.188   1.532   5.859  0.0704 -0.1336  1.0260
  861SOL     OW 3481   0.950   0.080   2.446 -0.4717  0.1621  0.0908
  861SOL    HW1 3482   1.029   0.140   2.462  0.6025 -1.2802  0.3296
  861SOL    HW2 3483   0.888   0.124   2.381  0.4259  1.4053  0.0426
  862SOL     OW 3484   1.134   3.219   4.642 -0.2932  0.0990  0.2030
  862SOL    HW1 3485   1.176   3.139   4.686  0.8172  0.3043 -0.4490
  862SOL    HW2 3486   1.206   3.278   4.605 -1.1339 -0.5622 -2.7770
  863SOL     OW 3487   6.939   0.410   1.332  0.7069 -0.1147 -0.4502
  863SOL    HW1 3488   6.948   0.426   1.430 -1.9713  2.0679 -0.4509
  863SOL    HW2 3489   6.866   0.344   1.315 -0.2473  1.0335 -0.9731
  864SOL     OW 3490   6.516   4.045   3.765 -0.1038  0.0594  0.3417
  864SOL    HW1 3491   6.541   3.951   3.788 -1.3803  0.2306  2.7584
  864SOL    HW2 3492   6.588   4.107   3.795 -0.1365 -0.0067  0.5581
  865SOL     OW 3493   1.705   4.787   5.888  0.5492 -0.0860 -0.1701
  865SOL    HW1 3494   1.737   4.759   5.979 -0.2392 -0.9145 -0.1386
  865SOL    HW2 3495   1.743   4.878   5.866 -0.5079  0.8512  1.6612
  866SOL     OW 3496   6.100   0.019   1.591  0.1444  0.2420 -0.0975
  866SOL    HW1 3497   6.186  -0.028   1.572 -0.0535 -1.2486  2.3384
  866SOL    HW2 3498   6.058   0.046   1.504  2.3561 -0.2346 -1.4063
  867SOL     OW 3499   6.652   4.131   4.509  0.1449 -0.2900  0.4620
  867SOL    HW1 3500   6.705   4.047   4.525 -0.5607 -0.3581  2.7110
  867SOL    HW2 3501   6.711   4.199   4.464  1.2456 -1.3764  0.1990
  868SOL     OW 3502   6.291   1.475   2.617  0.1849 -0.0213  0.5733
  868SOL    HW1 3503   6.343   1.437   2.693  2.1244 -0.9833 -1.1363
  868SOL    HW2 3504   6.211   1.418   2.600  0.3058 -0.4038  1.2239
  869SOL     OW 3505   1.198   1.608   1.437  0.5658  1.0509 -0.3118
  869SOL    HW1 3506   1.158   1.669   1.369 -1.9679 -0.1699 -0.0552
  869SOL    HW2 3507   1.150   1.619   1.524  0.1835 -1.0761 -0.1932
  870SOL     OW 3508   3.221   4.853   2.514 -0.6431  0.1772 -0.4589
  870SOL    HW1 3509   3.251   4.909   2.438 -1.1223  0.1414 -0.6757
  870SOL    HW2 3510   3.131   4.814   2.494  0.3896 -2.0777 -1.0695
  871SOL     OW 3511   6.096   2.542   2.532  0.1537  0.4125  0.6185
  871SOL    HW1 3512   6.051   2.625   2.501 -0.4285 -0.2869 -0.4411
  871SOL    HW2 3513   6.028   2.471   2.547  0.7614 -0.2134  0.4389
  872SOL     OW 3514   3.771   0.667   4.923 -0.2628 -0.5060  0.1462
  872SOL    HW1 3515   3.715   0.587   4.944  0.6139 -1.3858 -0.7526
  872SOL    HW2 3516   3.777   0.680   4.824  0.6125 -0.0773  0.2391
  873SOL     OW 3517   2.754   6.891   6.418  0.0410  0.3427 -0.2430
  873SOL    HW1 3518   2.853   6.907   6.425 -0.1185  1.6107 -0.6938
  873SOL    HW2 3519   2.705   6.964   6.465 -0.7173  0.3658 -1.0436
  874SOL     OW 3520   5.405   5.111   2.514  0.2740  0.3815  0.3525
  874SOL    HW1 3521   5.426   5.037   2.578 -0.3554  1.5833  2.0086
  874SOL    HW2 3522   5.307   5.111   2.493  0.8454 -1.8917 -3.1397
  875SOL     OW 3523   5.444   5.662   2.188 -0.4035  0.5274  0.1902
  875SOL    HW1 3524   5.397   5.606   2.255  1.1013 -1.8821 -0.6279
  875SOL    HW2 3525   5.531   5.694   2.227 -0.0232  0.0093 -0.2086
  876SOL     OW 3526   6.581   2.915   6.525  0.0581  0.3351  0.2143
  876SOL    HW1 3527   6.547   2.870   6.608 -0.4671  1.6309  0.7323
  876SOL    HW2 3528   6.591   2.847   6.452 -0.2442 -0.6892  1.0960
  877SOL     OW 3529   0.838   4.964   4.430 -0.1280  0.1677  0.3393
  877SOL    HW1 3530   0.911   5.015   4.474 -0.0248 -0.5168  0.9774
  877SOL    HW2 3531   0.782   4.919   4.499 -0.2130 -0.5842 -0.2065
  878SOL     OW 3532   6.803   6.372   3.797 -0.2535  0.1180 -0.1394
  878SOL    HW1 3533   6.889   6.327   3.772 -0.5558 -0.1254 -0.7616
  878SOL    HW2 3534   6.812   6.413   3.888  0.4829  0.0004 -0.1533
  879SOL     OW 3535   0.345   6.557   6.526  0.7646 -0.3238 -0.0349
  879SOL    HW1 3536   0.358   6.537   6.624 -1.2390  0.3869  0.4154
  879SOL    HW2 3537   0.385   6.646   6.505  1.7849 -0.7680 -0.0331
  880SOL     OW 3538   3.543   3.310   3.959  0.2363 -0.2727 -0.0938
  880SOL    HW1 3539   3.611   3.271   4.021 -0.9472 -0.8925  0.8514
  880SOL    HW2 3540   3.578   3.307   3.865  1.1342 -1.4347  0.2497
  881SOL     OW 3541   5.037   1.985   2.008 -0.3987  0.1842  0.0065
  881SOL    HW1 3542   5.034   1.898   1.958 -0.5344  0.2473 -0.0965
  881SOL    HW2 3543   5.115   2.038   1.978 -0.2082  0.0172  0.2038
  882SOL     OW 3544   1.649   1.827   4.127  0.0302  0.5934  0.3246
  882SOL    HW1 3545   1.686   1.887   4.198 -2.8668  0.8528  1.7532
  882SOL    HW2 3546   1.612   1.883   4.052  0.8221  0.4076 -0.2157
  883SOL     OW 3547   4.399   6.099   2.389 -0.3155  0.0243 -0.1485
  883SOL    HW1 3548   4.350   6.179   2.422  0.1158  0.2239  0.0051
  883SOL    HW2 3549   4.424   6.112   2.293 -2.5271 -1.0009 -0.9237
  884SOL     OW 3550   3.990   3.281   5.660 -0.4539  0.0824 -0.1536
  884SOL    HW1 3551   4.026   3.329   5.580  1.1597 -0.0255  0.4692
  884SOL    HW2 3552   3.903   3.324   5.688 -1.0596  0.0968 -1.9401
  885SOL     OW 3553   3.382   3.337   6.048  0.0686  0.2434  0.8559
  885SOL    HW1 3554   3.307   3.331   5.983 -0.0839 -0.6024  1.0898
  885SOL    HW2 3555   3.346   3.355   6.139  0.2337  0.8247  0.8091
  886SOL     OW 3556   3.521   2.295   6.808  0.1341 -0.3780 -0.4902
  886SOL    HW1 3557   3.437   2.272   6.857 -0.9223  1.5841 -1.2880
  886SOL    HW2 3558   3.526   2.243   6.723 -0.3418 -0.3995 -0.5067
  887SOL     OW 3559   3.083   0.487   6.077 -0.1798  0.1417 -0.1412
  887SOL    HW1 3560   3.175   0.518   6.101  0.4607 -1.8222  0.1135
  887SOL    HW2 3561   3.079   0.464   5.979 -0.7602  1.3323 -0.4176
  888SOL     OW 3562   0.962   0.037   0.071 -0.2695 -0.3311  0.0445
  888SOL    HW1 3563   0.992   0.102   0.140  0.1904 -1.5688  1.0660
  888SOL    HW2 3564   0.884   0.074   0.021  0.8074  1.5436 -0.3529
  889SOL     OW 3565   6.273   4.975   2.846 -0.3550 -0.3005 -0.7257
  889SOL    HW1 3566   6.257   5.057   2.791  0.4941 -0.2017 -0.8502
  889SOL    HW2 3567   6.371   4.953   2.844  0.0625  0.7806  2.2061
  890SOL     OW 3568   1.553   4.916   4.450 -0.2890 -0.2535  0.0674
  890SOL    HW1 3569   1.532   4.855   4.526 -1.0506 -0.7590 -0.5383
  890SOL    HW2 3570   1.470   4.935   4.398  0.3986 -0.8166 -1.2942
  891SOL     OW 3571   2.224   4.109   3.506 -0.3855  0.6238 -0.6500
  891SOL    HW1 3572   2.167   4.157   3.572  0.9570  1.4252 -0.0174
  891SOL    HW2 3573   2.291   4.172   3.467  0.0737 -0.2719 -1.3618
  892SOL     OW 3574   3.330   3.180   1.606  0.0242 -1.0767  0.0535
  892SOL    HW1 3575   3.378   3.227   1.680 -0.6668  1.2368 -0.8608
  892SOL    HW2 3576   3.395   3.131   1.549  1.3670  1.7972 -1.0315
  893SOL     OW 3577   0.875   5.560   1.779 -0.0084 -0.8358  0.5036
  893SOL    HW1 3578   0.826   5.483   1.819 -0.1391 -0.3657  1.2604
  893SOL    HW2 3579   0.863   5.642   1.836  0.2399 -0.2842 -0.2107
  894SOL     OW 3580   6.722   2.528   6.821  0.0197 -0.5819  0.4188
  894SOL    HW1 3581   6.813   2.487   6.816  0.5004  0.5125 -0.2775
  894SOL    HW2 3582   6.693   2.555   6.729 -0.5197  0.1139  0.7858
  895SOL     OW 3583   6.238   6.837   5.496 -0.4997  0.3417  0.1404
  895SOL    HW1 3584   6.263   6.909   5.561 -0.2139  0.4942 -0.1353
  895SOL    HW2 3585   6.151   6.861   5.452 -1.6082 -0.6047  1.7269
  896SOL     OW 3586   0.235   1.006   5.106  0.0326 -0.5786  0.1150
  896SOL    HW1 3587   0.175   0.926   5.103 -0.3483 -0.2901 -0.0732
  896SOL    HW2 3588   0.184   1.084   5.143  0.9344 -0.8730  2.0783
  897SOL     OW 3589   4.900   5.671   6.568 -0.6339 -0.2802  0.0782
  897SOL    HW1 3590   4.978   5.613   6.544 -0.2359 -0.2723  1.2983
  897SOL    HW2 3591   4.819   5.640   6.517  0.1531 -0.2532 -1.2443
  898SOL     OW 3592   3.409   1.347   4.842 -0.6943  0.0831  0.3453
  898SOL    HW1 3593   3.463   1.282   4.789  1.4018  0.8026  1.4648
  898SOL    HW2 3594   3.374   1.418   4.782  0.3004  0.0415 -0.3063
  899SOL     OW 3595   5.683   5.260   5.020 -0.4614  0.4342  0.2795
  899SOL    HW1 3596   5.750   5.186   5.015 -0.3185  0.4986  1.0763
  899SOL    HW2 3597   5.591   5.221   5.030 -0.4137  0.3615  0.4367
  900SOL     OW 3598   4.986   4.274   0.314  0.2075  0.4156  0.0975
  900SOL    HW1 3599   4.996   4.243   0.409 -0.6031 -0.7128 -0.1642
  900SOL    HW2 3600   4.891   4.301   0.298  0.3487  0.6275 -0.3925
  901SOL     OW 3601   0.842   0.396   2.823  0.6825 -0.2735 -0.3327
  901SOL    HW1 3602   0.798   0.363   2.906  1.3886 -0.6524 -0.1031
  901SOL    HW2 3603   0.775   0.445   2.767  0.4806  1.0682  1.0212
  902SOL     OW 3604   0.417   0.377   1.851 -0.0720  0.4382  0.6791
  902SOL    HW1 3605   0.441   0.290   1.809 -0.8335  0.9234 -0.8704
  902SOL    HW2 3606   0.500   0.423   1.884  0.2377 -1.2562  2.3832
  903SOL     OW 3607   4.272   0.616   0.735  0.0864 -0.1160  0.0778
  903SOL    HW1 3608   4.242   0.673   0.658  0.2918  1.1038  0.8745
  903SOL    HW2 3609   4.244   0.659   0.821 -2.2229 -2.6201  0.7093
  904SOL     OW 3610   4.499   1.407   2.610 -0.4688 -0.0706 -0.5099
  904SOL    HW1 3611   4.523   1.489   2.662  0.9910 -0.8394  0.0888
  904SOL    HW2 3612   4.434   1.352   2.663 -0.0699 -0.1660 -0.1131
  905SOL     OW 3613   4.623   3.281   6.256 -0.0955  0.2030 -0.6209
  905SOL    HW1 3614   4.715   3.261   6.224 -0.2589  1.2489 -1.7931
  905SOL    HW2 3615   4.616   3.258   6.353  0.7389 -1.9685 -1.0127
  906SOL     OW 3616   5.332   4.053   1.391  0.3271  0.3042  0.4446
  906SOL    HW1 3617   5.278   4.122   1.439  1.5704  0.6378  1.4161
  906SOL    HW2 3618   5.375   4.093   1.311 -2.5527 -0.4900 -1.6600
  907SOL     OW 3619   1.538   6.580   1.593  0.2326 -0.0128 -0.7038
  907SOL    HW1 3620   1.509   6.623   1.508  1.0254  1.4148 -0.2949
  907SOL    HW2 3621   1.470   6.596   1.664  0.1012 -0.2229 -0.7826
  908SOL     OW 3622   1.179   5.209   4.065 -0.7551  0.9058 -0.2474
  908SOL    HW1 3623   1.250   5.139   4.069 -2.0975 -0.6149 -1.5433
  908SOL    HW2 3624   1.090   5.167   4.081 -1.6204  2.2641 -1.3050
  909SOL     OW 3625   4.702   4.754   6.927 -0.0330 -0.0952 -0.2905
  909SOL    HW1 3626   4.616   4.707   6.907 -0.5489  0.1301  1.2951
  909SOL    HW2 3627   4.720   4.821   6.855 -1.5504  0.3341 -0.3074
  910SOL     OW 3628   3.465   4.276   0.540 -0.3264 -0.4290 -0.0971
  910SOL    HW1 3629   3.468   4.196   0.479 -2.0897 -0.0351 -0.7713
  910SOL    HW2 3630   3.499   4.356   0.491 -1.9980 -0.0560 -0.7303
  911SOL     OW 3631   0.511   4.246   6.315 -0.0948 -0.5415 -0.0179
  911SOL    HW1 3632   0.578   4.264   6.243 -2.1240  0.5351 -1.7433
  911SOL    HW2 3633   0.528   4.156   6.355  1.8159 -0.6620 -1.0049
  912SOL     OW 3634   5.341   6.400   5.296  0.2376  0.2416 -0.3683
  912SOL    HW1 3635   5.268   6.332   5.290  1.4899 -1.1030 -0.9120
  912SOL    HW2 3636   5.314   6.471   5.361 -1.2616 -0.5718 -0.0453
  913SOL     OW 3637   6.933   5.427   1.181  0.3895 -1.1031 -0.2758
  913SOL    HW1 3638   6.900   5.354   1.121  1.2959 -0.8614 -1.0957
  913SOL    HW2 3639   6.956   5.389   1.271  0.8422 -1.8266 -0.6921
  914SOL     OW 3640   1.614   6.100   3.814 -0.3914  0.3389 -0.2191
  914SOL    HW1 3641   1.650   6.007   3.821 -0.8868  0.0662 -1.0443
  914SOL    HW2 3642   1.520   6.102   3.849 -0.7242  0.3000 -1.0740
  915SOL     OW 3643   6.022   6.303   2.409 -0.2910  0.0079  0.3958
  915SOL    HW1 3644   6.087   6.274   2.338  2.3904  0.9500  2.3112
  915SOL    HW2 3645   5.957   6.368   2.370 -0.6470 -1.5432 -1.7793
  916SOL     OW 3646   1.212   4.952   3.855 -0.4963  0.6085  0.3155
  916SOL    HW1 3647   1.197   4.902   3.941  0.3250  0.4444  0.3653
  916SOL    HW2 3648   1.306   4.939   3.824 -0.9287  0.2137 -0.9044
  917SOL     OW 3649   6.001   6.122   1.364 -0.0391 -0.1926  0.5458
  917SOL    HW1 3650   5.974   6.026   1.371  1.2458 -0.7476 -1.3400
  917SOL    HW2 3651   6.059   6.135   1.284  0.8844  1.9406  1.4673
  918SOL     OW 3652   4.233   4.086   6.055 -0.1957 -0.1643 -0.2881
  918SOL    HW1 3653   4.293   4.161   6.083  0.2604 -0.1533 -1.2255
  918SOL    HW2 3654   4.279   3.998   6.074 -0.2163 -0.1729 -0.2791
  919SOL     OW 3655   3.638   6.350   5.861 -0.3249  0.1323  0.3731
  919SOL    HW1 3656   3.701   6.425   5.882 -1.0224  0.4323  1.4699
  919SOL    HW2 3657   3.571   6.342   5.934 -0.6124 -1.2034 -0.0216
  920SOL     OW 3658   4.831   5.322   1.277  0.0613 -0.1662  0.5218
  920SOL    HW1 3659   4.902   5.389   1.297 -0.1589 -0.2969  1.8442
  920SOL    HW2 3660   4.871   5.242   1.233  0.5870  0.1442  0.4364
  921SOL     OW 3661   4.462   5.538   5.866  0.3047 -0.4334  0.6890
  921SOL    HW1 3662   4.538   5.582   5.819 -0.0702 -0.0848  0.4067
  921SOL    HW2 3663   4.451   5.578   5.956 -0.1030  0.1290  0.3924
  922SOL     OW 3664   3.849   4.023   3.920  0.1011  0.1252 -0.2798
  922SOL    HW1 3665   3.885   4.057   3.833  2.4550  1.5868  1.1545
  922SOL    HW2 3666   3.768   4.076   3.946 -1.1410 -0.8855 -1.9026
  923SOL     OW 3667   3.013   4.298   6.620  0.5659  0.0937 -0.3142
  923SOL    HW1 3668   2.985   4.393   6.634  0.3777  0.0487 -0.3866
  923SOL    HW2 3669   3.032   4.282   6.523 -0.9845 -0.3651 -0.5717
  924SOL     OW 3670   0.083   0.706   0.421 -0.3612 -0.0249 -0.3542
  924SOL    HW1 3671   0.130   0.775   0.476 -0.0431  0.8470 -1.6642
  924SOL    HW2 3672   0.019   0.752   0.359 -1.8978 -1.0876  0.3801
  925SOL     OW 3673   0.444   1.011   0.769 -0.4694  0.1271 -0.2700
  925SOL    HW1 3674   0.447   1.110   0.757  2.2511  0.4325  1.7414
  925SOL    HW2 3675   0.491   0.966   0.692  1.7964  0.7866  0.6256
  926SOL     OW 3676   0.508   2.864   2.698  0.5109  0.5374  0.4405
  926SOL    HW1 3677   0.459   2.795   2.644 -0.0831  1.8987 -0.8376
  926SOL    HW2 3678   0.566   2.818   2.765 -1.9021 -1.1702  1.5161
  927SOL     OW 3679   1.806   3.470   4.181 -0.2371 -0.6715 -0.4032
  927SOL    HW1 3680   1.803   3.519   4.094 -0.2402 -0.7173 -0.4292
  927SOL    HW2 3681   1.896   3.484   4.224 -0.0598 -1.0410 -0.6442
  928SOL     OW 3682   2.729   5.532   4.669 -0.3981  0.7968 -0.0334
  928SOL    HW1 3683   2.715   5.486   4.757 -1.2068 -0.4619 -0.7834
  928SOL    HW2 3684   2.760   5.466   4.602 -0.8117  1.5273 -0.9611
  929SOL     OW 3685   2.913   1.505   3.919 -0.6049  0.0860  0.5061
  929SOL    HW1 3686   2.814   1.515   3.909 -0.3804  0.6690 -1.6519
  929SOL    HW2 3687   2.955   1.596   3.926 -0.1837 -0.1507  1.1277
  930SOL     OW 3688   6.284   4.873   1.755 -0.0183 -0.0113  0.3148
  930SOL    HW1 3689   6.224   4.948   1.781 -0.0048 -0.5391  2.0368
  930SOL    HW2 3690   6.353   4.859   1.826  1.4451 -0.1630 -1.0807
  931SOL     OW 3691   6.699   0.017   2.432 -0.0842  0.4521 -0.5893
  931SOL    HW1 3692   6.788  -0.025   2.448 -0.0531  0.2425 -1.2623
  931SOL    HW2 3693   6.705   0.080   2.355 -0.5727  0.2353 -0.8140
  932SOL     OW 3694   5.888   0.343   2.999  0.9651 -0.2423 -0.3377
  932SOL    HW1 3695   5.962   0.364   3.062  2.1103 -2.2992 -0.9014
  932SOL    HW2 3696   5.820   0.417   3.001  1.9945  0.7323  1.7004
  933SOL     OW 3697   2.281   6.629   1.521  0.2839 -0.5768  0.8162
  933SOL    HW1 3698   2.217   6.688   1.571  1.2399 -0.4307  1.9119
  933SOL    HW2 3699   2.273   6.647   1.423  0.0036  0.8276  1.0722
  934SOL     OW 3700   0.122   2.915   0.843 -0.3012  0.6388  0.3097
  934SOL    HW1 3701   0.134   2.847   0.771 -0.6883  1.3714 -0.4705
  934SOL    HW2 3702   0.192   2.902   0.913 -0.8529 -1.0645  0.6045
  935SOL     OW 3703   6.500   4.734   4.545 -0.8041  0.2581 -0.7446
  935SOL    HW1 3704   6.573   4.798   4.567 -0.2073 -1.1065  1.6512
  935SOL    HW2 3705   6.416   4.762   4.591 -0.3193 -1.0042  1.0661
  936SOL     OW 3706   3.196   1.319   0.104  0.6086  0.1629 -0.4758
  936SOL    HW1 3707   3.271   1.256   0.088 -0.2263 -0.3120 -2.9661
  936SOL    HW2 3708   3.208   1.401   0.047  0.1955  0.9541  0.5380
  937SOL     OW 3709   3.538   1.882   5.619  0.1704 -0.0066  0.3526
  937SOL    HW1 3710   3.450   1.882   5.666  0.7310 -1.5670  1.4750
  937SOL    HW2 3711   3.524   1.861   5.522 -0.8429  1.5831  0.1304
  938SOL     OW 3712   5.443   6.744   2.940  0.3364  0.7500 -0.1096
  938SOL    HW1 3713   5.472   6.754   3.036 -1.3045  0.7476  0.4158
  938SOL    HW2 3714   5.346   6.724   2.937  0.5681 -0.2604 -1.7698
  939SOL     OW 3715   1.900   6.151   6.024 -0.2773  0.0471  0.5563
  939SOL    HW1 3716   1.822   6.201   6.063 -0.0038  2.3015 -1.5652
  939SOL    HW2 3717   1.967   6.216   5.989  1.1105 -1.8507 -0.4614
  940SOL     OW 3718   2.336   4.934   0.739  0.8716 -0.1336  0.2595
  940SOL    HW1 3719   2.348   4.954   0.642  0.8658  0.0069  0.2872
  940SOL    HW2 3720   2.246   4.967   0.769  1.1728  0.5009  0.4873
  941SOL     OW 3721   6.134   6.657   6.509 -0.2932 -0.1289 -0.0500
  941SOL    HW1 3722   6.072   6.582   6.531 -0.6536 -0.0102 -0.6680
  941SOL    HW2 3723   6.108   6.699   6.422  0.2106  0.3896  0.0410
  942SOL     OW 3724   5.910   2.956   0.184 -0.5164 -0.1454  0.7001
  942SOL    HW1 3725   5.826   2.974   0.236 -1.8401  1.5159 -1.7831
  942SOL    HW2 3726   5.978   3.026   0.207 -1.2244  0.8017  0.0037
  943SOL     OW 3727   3.028   5.441   0.658 -0.3209  0.5216  0.4102
  943SOL    HW1 3728   3.013   5.353   0.702 -1.7355  0.7429  0.4085
  943SOL    HW2 3729   3.093   5.430   0.583  0.0351 -0.3802  0.8406
  944SOL     OW 3730   5.894   6.913   3.232  0.2692 -0.1865 -0.4697
  944SOL    HW1 3731   5.871   6.882   3.324  1.1131  1.0872  0.1964
  944SOL    HW2 3732   5.841   6.995   3.210  1.1829  0.4121 -0.5004
  945SOL     OW 3733   0.767   4.105   5.682  0.2737  0.2670  0.2531
  945SOL    HW1 3734   0.788   4.189   5.632  1.6456 -0.1382  0.1152
  945SOL    HW2 3735   0.720   4.041   5.621 -0.9596  0.9785  0.4115
  946SOL     OW 3736   5.020   1.591   4.837 -0.0256  0.5237 -0.2489
  946SOL    HW1 3737   4.935   1.644   4.843  0.1668  1.1996 -2.4127
  946SOL    HW2 3738   5.037   1.544   4.923 -3.2959 -0.7367 -0.1588
  947SOL     OW 3739   3.737   3.760   3.404  0.0511  0.1422  0.6315
  947SOL    HW1 3740   3.711   3.856   3.416  0.7632  0.2719  1.2220
  947SOL    HW2 3741   3.810   3.737   3.468  1.0413 -0.3529 -0.6304
  948SOL     OW 3742   5.113   2.611   3.877 -0.0576  0.0644 -0.2089
  948SOL    HW1 3743   5.041   2.649   3.819  0.0118 -1.5407 -1.4362
  948SOL    HW2 3744   5.133   2.517   3.848  0.5568 -0.5264  1.9366
  949SOL     OW 3745   1.755   0.436   0.201  0.2851 -0.2296 -0.2852
  949SOL    HW1 3746   1.722   0.525   0.232  1.4327 -0.0869  0.6026
  949SOL    HW2 3747   1.682   0.368   0.210 -1.7958  1.1837 -4.1950
  950SOL     OW 3748   0.184   0.374   1.284  0.6770  0.6652  0.3822
  950SOL    HW1 3749   0.168   0.472   1.297 -0.3312  0.4902  0.5710
  950SOL    HW2 3750   0.107   0.334   1.235  1.3757  0.0701 -0.2611
  951SOL     OW 3751   0.707   0.379   2.187  0.8505 -0.5314 -0.2403
  951SOL    HW1 3752   0.698   0.428   2.100  0.6178 -0.0967  0.0272
  951SOL    HW2 3753   0.625   0.323   2.201  1.1278 -1.0266 -0.5583
  952SOL     OW 3754   2.105   1.689   4.341 -0.5793  0.2571  0.1646
  952SOL    HW1 3755   2.025   1.672   4.282 -0.1551 -0.3948 -0.2294
  952SOL    HW2 3756   2.176   1.736   4.288 -0.6372  0.7017  0.4750
  953SOL     OW 3757   6.197   4.256   6.631  0.0169 -0.1339  0.1408
  953SOL    HW1 3758   6.157   4.166   6.649 -0.6337  0.5894  2.7110
  953SOL    HW2 3759   6.275   4.270   6.691  0.5880  0.7376 -0.7806
  954SOL     OW 3760   4.344   6.935   3.229  0.6762 -0.1597  0.1483
  954SOL    HW1 3761   4.407   7.010   3.207 -1.0831  1.3900  0.1220
  954SOL    HW2 3762   4.365   6.899   3.320  1.7682  0.1153  0.0177
  955SOL     OW 3763   2.934   5.031   1.965 -0.2128 -0.5347  0.1417
  955SOL    HW1 3764   2.852   4.975   1.951  0.3477 -0.7896 -3.0538
  955SOL    HW2 3765   3.005   4.976   2.008 -0.4311 -1.6248 -0.8361
  956SOL     OW 3766   3.819   0.450   0.329  0.4763  0.0200  0.0766
  956SOL    HW1 3767   3.808   0.359   0.370 -4.6184  1.1234  1.9413
  956SOL    HW2 3768   3.778   0.450   0.238 -0.9485  0.6536  0.6762
  957SOL     OW 3769   0.404   1.120   4.049  0.2264  0.1505  0.9532
  957SOL    HW1 3770   0.458   1.120   3.965  0.4515  0.1246  1.0976
  957SOL    HW2 3771   0.444   1.186   4.114 -0.5096  0.8845  0.6736
  958SOL     OW 3772   5.145   5.007   1.913  0.4022  0.0743  0.0067
  958SOL    HW1 3773   5.075   5.053   1.967  0.2248  0.6091 -0.6628
  958SOL    HW2 3774   5.148   5.047   1.821  0.5458 -0.9549 -0.4525
  959SOL     OW 3775   6.265   5.603   1.288 -0.8068 -0.1664 -0.2546
  959SOL    HW1 3776   6.360   5.628   1.305 -0.9283  0.5791 -0.6679
  959SOL    HW2 3777   6.248   5.598   1.190 -1.1158 -0.6308 -0.1840
  960SOL     OW 3778   2.385   6.065   0.772 -0.3257  0.1205 -0.4794
  960SOL    HW1 3779   2.391   6.141   0.837 -1.6803 -0.0704 -0.0822
  960SOL    HW2 3780   2.398   5.979   0.821  1.1178  0.0777 -0.9134
  961SOL     OW 3781   4.981   0.520   4.168 -0.4661  0.7285  0.4928
  961SOL    HW1 3782   5.021   0.497   4.079 -0.9219 -2.1269  0.9411
  961SOL    HW2 3783   4.881   0.526   4.159 -0.7293 -1.7871  1.1570
  962SOL     OW 3784   0.816   2.175   5.167 -0.4318 -0.3762 -0.5793
  962SOL    HW1 3785   0.874   2.119   5.108 -1.1691 -0.0476 -1.6609
  962SOL    HW2 3786   0.868   2.205   5.246  0.0123 -2.4756 -0.0185
  963SOL     OW 3787   5.456   2.695   2.120 -0.1950 -0.1785 -0.0634
  963SOL    HW1 3788   5.505   2.754   2.055  0.6243 -0.2954  0.4301
  963SOL    HW2 3789   5.358   2.713   2.114  0.0687  1.6530  0.4571
  964SOL     OW 3790   4.550   1.297   4.412  0.4559 -0.0452 -0.4138
  964SOL    HW1 3791   4.532   1.199   4.416  0.2149  0.0360  1.7431
  964SOL    HW2 3792   4.623   1.320   4.477 -0.6052  1.3899  0.3259
  965SOL     OW 3793   1.883   1.852   5.569 -0.2729 -0.4354  0.3553
  965SOL    HW1 3794   1.875   1.911   5.650  1.0721 -0.7876  0.7745
  965SOL    HW2 3795   1.913   1.907   5.491 -2.0510  0.0009 -0.0628
  966SOL     OW 3796   5.366   0.883   4.336  0.4759 -0.7097 -0.9557
  966SOL    HW1 3797   5.329   0.870   4.427 -1.3574 -0.7078 -1.6639
  966SOL    HW2 3798   5.337   0.971   4.299 -0.7787 -1.6632 -2.3910
  967SOL     OW 3799   0.555   5.856   6.697 -0.0177 -0.2816 -0.0816
  967SOL    HW1 3800   0.634   5.828   6.644 -0.6969  0.0898 -1.3212
  967SOL    HW2 3801   0.511   5.935   6.653 -3.5750 -3.0082 -1.9305
  968SOL     OW 3802   4.303   1.220   2.424 -0.2341 -0.2885 -0.2036
  968SOL    HW1 3803   4.253   1.160   2.487  0.9461 -0.2546  0.7926
  968SOL    HW2 3804   4.239   1.286   2.384 -1.3305 -1.4077 -0.3905
  969SOL     OW 3805   3.608   4.386   0.751 -0.0802 -0.1551  0.3982
  969SOL    HW1 3806   3.647   4.314   0.810 -0.5892 -0.3889  0.4612
  969SOL    HW2 3807   3.539   4.345   0.691  1.6695 -0.2577 -1.6287
  970SOL     OW 3808   3.454   6.929   4.236 -0.4800  0.1939  0.0487
  970SOL    HW1 3809   3.553   6.920   4.241 -0.2787 -0.8427 -3.3467
  970SOL    HW2 3810   3.413   6.888   4.317  1.7995 -0.1982  1.0938
  971SOL     OW 3811   5.977   3.348   3.474  0.0480  0.0007  0.1170
  971SOL    HW1 3812   6.022   3.383   3.392  1.4884  0.8463  1.2134
  971SOL    HW2 3813   6.000   3.251   3.486 -2.5625 -0.9962 -1.9971
  972SOL     OW 3814   1.702   2.345   1.310 -0.3128 -0.4018 -0.3060
  972SOL    HW1 3815   1.792   2.335   1.352 -0.1923 -0.7823 -0.6412
  972SOL    HW2 3816   1.632   2.355   1.381  0.0458  0.3482 -0.0542
  973SOL     OW 3817   2.194   1.952   5.645 -0.1273 -0.3411 -0.2509
  973SOL    HW1 3818   2.149   2.039   5.626 -1.3667 -0.6091  1.2635
  973SOL    HW2 3819   2.263   1.934   5.574  2.3482  3.2833  0.9366
  974SOL     OW 3820   1.894   3.148   0.652  0.1427  0.2209  0.1401
  974SOL    HW1 3821   1.946   3.067   0.625  0.4969  0.5863 -0.3044
  974SOL    HW2 3822   1.815   3.157   0.592 -0.1862 -0.0823  0.5243
  975SOL     OW 3823   2.303   6.117   2.582  0.2286 -0.1313  0.2657
  975SOL    HW1 3824   2.246   6.126   2.664  0.4935 -0.0495  0.4425
  975SOL    HW2 3825   2.391   6.077   2.607  0.7706  1.0108  0.2239
  976SOL     OW 3826   0.162   2.708   4.028  0.1992  0.5009  0.0943
  976SOL    HW1 3827   0.107   2.739   4.105 -1.2977 -2.5787  0.4158
  976SOL    HW2 3828   0.128   2.748   3.944 -1.7775 -0.3452  0.4452
  977SOL     OW 3829   5.152   1.279   2.672  0.0860 -0.5491 -0.2519
  977SOL    HW1 3830   5.153   1.312   2.577  2.6505  1.9788  0.5324
  977SOL    HW2 3831   5.243   1.247   2.697 -0.0401  0.6459  1.9166
  978SOL     OW 3832   4.511   2.367   1.554  0.0642 -0.0265  0.5476
  978SOL    HW1 3833   4.494   2.358   1.652 -0.6504 -1.9304  0.2857
  978SOL    HW2 3834   4.586   2.307   1.527  1.8204  2.1688  0.2603
  979SOL     OW 3835   0.534   6.783   5.863  0.5272  0.1255 -0.6643
  979SOL    HW1 3836   0.580   6.701   5.895 -0.8916 -0.9560 -1.3043
  979SOL    HW2 3837   0.602   6.849   5.831  1.7052 -0.6282  0.2096
  980SOL     OW 3838   5.672   2.388   3.437  0.7515 -0.1808 -0.1646
  980SOL    HW1 3839   5.593   2.338   3.403  0.7572 -0.5464  0.3566
  980SOL    HW2 3840   5.748   2.326   3.452  0.3121 -0.2849  1.8670
  981SOL     OW 3841   0.833   0.161   0.673 -0.5906 -0.3608 -0.1643
  981SOL    HW1 3842   0.795   0.112   0.594 -1.6699 -1.0510  0.7500
  981SOL    HW2 3843   0.857   0.095   0.744  0.8581  0.2087 -0.0777
  982SOL     OW 3844   6.566   4.967   6.928 -0.1893 -0.1393 -1.1428
  982SOL    HW1 3845   6.484   4.930   6.972  0.0330 -0.3037 -0.8628
  982SOL    HW2 3846   6.539   5.026   6.852 -0.8260  3.8762  1.8891
  983SOL     OW 3847   0.376   3.369   1.495  0.4322 -0.3116  0.3373
  983SOL    HW1 3848   0.284   3.382   1.459 -0.0385  2.2252  2.1464
  983SOL    HW2 3849   0.440   3.357   1.419 -0.9781  1.0826 -1.1502
  984SOL     OW 3850   1.031   5.481   5.581 -0.6153  0.3126 -0.1466
  984SOL    HW1 3851   1.105   5.520   5.526 -0.0902  0.0451  0.3648
  984SOL    HW2 3852   1.049   5.384   5.597  0.1611  0.7514  1.9734
  985SOL     OW 3853   6.068   5.050   0.015  0.4416  0.6874 -0.8323
  985SOL    HW1 3854   5.983   5.081   0.057 -0.5349 -3.6197  0.8986
  985SOL    HW2 3855   6.048   5.006  -0.073  0.5573 -1.4085  0.1215
  986SOL     OW 3856   5.413   5.836   2.470  0.8502  0.1276  0.3794
  986SOL    HW1 3857   5.332   5.894   2.467 -0.1184 -0.8888  3.0732
  986SOL    HW2 3858   5.386   5.740   2.465  2.0230 -0.2089  0.0348
  987SOL     OW 3859   4.326   4.619   6.511  0.1488  0.1238 -0.1202
  987SOL    HW1 3860   4.409   4.668   6.537  0.6142 -0.6297 -0.1650
  987SOL    HW2 3861   4.286   4.575   6.591 -1.2141  1.9302  0.2596
  988SOL     OW 3862   2.618   4.719   1.670 -0.1634 -0.0127 -0.8631
  988SOL    HW1 3863   2.657   4.628   1.683 -0.2424  0.3460  3.4152
  988SOL    HW2 3864   2.520   4.710   1.651 -0.4187 -0.8839  0.6748
  989SOL     OW 3865   6.252   1.631   0.657  0.0926 -0.6239 -0.3395
  989SOL    HW1 3866   6.257   1.541   0.614  0.2355 -0.7408 -0.0774
  989SOL    HW2 3867   6.163   1.672   0.638 -0.8555 -1.7505  1.4122
  990SOL     OW 3868   4.896   0.497   3.615  0.2233  0.2460  0.2936
  990SOL    HW1 3869   4.857   0.456   3.533  2.4518 -0.6620 -0.3977
  990SOL    HW2 3870   4.889   0.597   3.609  2.6156  0.3611 -2.3311
  991SOL     OW 3871   0.851   5.946   4.522  0.0799  0.0226  0.2643
  991SOL    HW1 3872   0.867   5.849   4.504 -0.3559 -0.0360  0.1766
  991SOL    HW2 3873   0.922   5.981   4.583  0.2174 -0.3629  0.3285
  992SOL     OW 3874   0.292   2.240   0.439 -0.1844 -0.0405  0.1856
  992SOL    HW1 3875   0.311   2.289   0.524  0.5712  0.7129 -0.4003
  992SOL    HW2 3876   0.227   2.167   0.457 -0.6924  0.6441  1.2492
  993SOL     OW 3877   3.722   0.149   5.765  0.1208  0.2569  0.2198
  993SOL    HW1 3878   3.653   0.079   5.747  0.9506 -0.5984  0.2407
  993SOL    HW2 3879   3.772   0.126   5.849 -0.7793  1.8505  1.2330
  994SOL     OW 3880   4.270   0.257   2.190  0.1662 -0.0670  0.1068
  994SOL    HW1 3881   4.359   0.218   2.167  1.1316  1.6488  0.7520
  994SOL    HW2 3882   4.198   0.194   2.161  1.5645 -1.5102 -0.4164
  995SOL     OW 3883   6.662   5.717   5.071 -0.0814  0.5076  0.1511
  995SOL    HW1 3884   6.638   5.812   5.089 -2.5943  0.1330 -0.7364
  995SOL    HW2 3885   6.581   5.659   5.084  1.3476 -1.5154  0.5448
  996SOL     OW 3886   3.525   6.929   5.666 -0.0479  0.2332  0.4032
  996SOL    HW1 3887   3.461   6.858   5.696 -0.0325 -0.1991 -0.5477
  996SOL    HW2 3888   3.563   6.904   5.577 -1.6935  2.4518 -1.0264
  997SOL     OW 3889   1.044   0.415   4.743  0.0739  0.2434  0.7794
  997SOL    HW1 3890   1.132   0.437   4.701 -1.5225  1.3214 -2.2953
  997SOL    HW2 3891   0.992   0.500   4.758 -1.1311 -0.4728  0.8259
  998SOL     OW 3892   4.870   0.535   5.881  0.0701  0.7319 -0.5296
  998SOL    HW1 3893   4.845   0.439   5.890  2.4102 -0.1903 -2.7352
  998SOL    HW2 3894   4.791   0.587   5.849 -1.4219 -0.2376  1.3217
  999SOL     OW 3895   5.685   1.542   1.344  0.0785  0.3211  0.7747
  999SOL    HW1 3896   5.768   1.546   1.399  0.3126 -1.3879  0.6003
  999SOL    HW2 3897   5.606   1.561   1.402  0.5676  1.8773  0.9568
 1000SOL     OW 3898   6.048   0.814   1.732  0.3379  0.2135 -0.1844
 1000SOL    HW1 3899   6.006   0.780   1.816  0.1562  1.6657  0.3450
 1000SOL    HW2 3900   6.147   0.820   1.744  0.1921  1.7146  0.4431
 1001SOL     OW 3901   2.365   5.902   3.672 -0.2497 -0.0306  0.7885
 1001SOL    HW1 3902   2.317   5.986   3.648  0.3477  0.4947  1.3977
 1001SOL    HW2 3903   2.335   5.871   3.763 -0.4749 -0.4889  0.5639
 1002SOL     OW 3904   4.377   0.635   0.181 -0.1963 -0.1154  0.6119
 1002SOL    HW1 3905   4.364   0.609   0.276 -2.0130  0.8343  0.6679
 1002SOL    HW2 3906   4.385   0.553   0.124  0.5470 -0.6881  1.5256
 1003SOL     OW 3907   1.576   1.627   3.755  0.2466 -0.3131  0.4616
 1003SOL    HW1 3908   1.654   1.617   3.818  0.0868 -1.2573  0.5316
 1003SOL    HW2 3909   1.590   1.707   3.697  0.6825  0.2285  1.2966
 1004SOL     OW 3910   2.711   1.758   4.383 -0.1108  0.7113  0.1129
 1004SOL    HW1 3911   2.776   1.829   4.411 -0.3427  1.0483 -0.1871
 1004SOL    HW2 3912   2.650   1.737   4.459  0.1682  0.5933  0.3076
 1005SOL     OW 3913   6.749   0.703   2.934  0.1669 -0.1221 -0.1218
 1005SOL    HW1 3914   6.785   0.610   2.927 -0.4258 -0.5943  2.3577
 1005SOL    HW2 3915   6.790   0.749   3.013 -1.8988  0.5972  0.5831
 1006SOL     OW 3916   3.868   5.181   2.445  0.4606  0.2164 -0.1171
 1006SOL    HW1 3917   3.898   5.175   2.350  1.2768  0.7542  0.0923
 1006SOL    HW2 3918   3.779   5.227   2.449 -0.9040 -2.2102 -0.8304
 1007SOL     OW 3919   4.915   6.020   6.324  0.0299  0.1938 -0.0046
 1007SOL    HW1 3920   4.961   5.936   6.296  0.4967  0.4983 -0.1554
 1007SOL    HW2 3921   4.890   6.013   6.421  1.3185  0.4268  0.3654
 1008SOL     OW 3922   0.828   3.220   4.235  0.0133  0.0078 -0.3018
 1008SOL    HW1 3923   0.879   3.235   4.150 -1.6363  1.5898 -1.0871
 1008SOL    HW2 3924   0.890   3.225   4.313  1.5242 -1.2565 -1.3749
 1009SOL     OW 3925   6.357   6.262   5.470  0.0295  0.3929 -0.3963
 1009SOL    HW1 3926   6.293   6.245   5.544  0.1722 -1.8149 -0.6921
 1009SOL    HW2 3927   6.310   6.251   5.382  0.3655  0.7842 -0.6326
 1010SOL     OW 3928   3.346   3.969   1.001 -0.6134  0.8215 -0.2151
 1010SOL    HW1 3929   3.301   3.899   1.056 -2.0199  2.5969  0.9868
 1010SOL    HW2 3930   3.364   3.932   0.909 -1.7486 -0.9362  0.2214
 1011SOL     OW 3931   0.259   5.322   3.453  0.1114 -0.7028 -0.3169
 1011SOL    HW1 3932   0.201   5.344   3.532  2.4890 -1.5557  1.8121
 1011SOL    HW2 3933   0.331   5.391   3.444 -0.9092  0.1741 -2.7206
 1012SOL     OW 3934   6.352   6.568   2.594  0.4822 -0.3006 -0.4201
 1012SOL    HW1 3935   6.337   6.490   2.654  0.1713 -0.5905 -0.8622
 1012SOL    HW2 3936   6.445   6.602   2.605  0.1451  0.2377  0.8898
 1013SOL     OW 3937   1.313   6.780   5.292  0.4841 -0.0020  0.5077
 1013SOL    HW1 3938   1.365   6.861   5.320  0.2497  0.4460 -0.3341
 1013SOL    HW2 3939   1.336   6.703   5.352 -0.1017  0.9540  2.0206
 1014SOL     OW 3940   0.975   6.493   3.834  0.2286  0.8640 -0.1219
 1014SOL    HW1 3941   0.902   6.426   3.850 -1.4397  2.6491  0.1419
 1014SOL    HW2 3942   1.055   6.447   3.796 -0.1002 -1.5953  1.8752
 1015SOL     OW 3943   2.923   4.388   6.995  0.8031  0.6017  0.0404
 1015SOL    HW1 3944   2.989   4.447   6.948  1.6809  0.5322  1.1411
 1015SOL    HW2 3945   2.839   4.383   6.941  1.7318  0.5911 -1.4594
 1016SOL     OW 3946   6.019   4.090   2.519  0.6300  0.0127 -0.4878
 1016SOL    HW1 3947   5.928   4.115   2.553  0.9195  2.4606 -1.3198
 1016SOL    HW2 3948   6.089   4.134   2.574  1.3401 -1.5231 -0.1123
 1017SOL     OW 3949   1.436   1.573   0.058 -0.1333  0.7628 -0.1881
 1017SOL    HW1 3950   1.420   1.543   0.151 -2.0258 -2.1033 -1.3064
 1017SOL    HW2 3951   1.365   1.638   0.031  0.3702  1.5324  0.3113
 1018SOL     OW 3952   6.817   4.647   6.812 -0.1132  0.3215  0.0927
 1018SOL    HW1 3953   6.846   4.730   6.860  1.7068 -0.2495  0.0541
 1018SOL    HW2 3954   6.803   4.667   6.715 -0.3631  0.7189  0.2085
 1019SOL     OW 3955   4.871   3.853   2.572 -0.2608 -0.2258  0.0824
 1019SOL    HW1 3956   4.937   3.927   2.583  3.5053 -2.8384 -2.3841
 1019SOL    HW2 3957   4.796   3.884   2.513  0.6427  1.8878 -0.0573
 1020SOL     OW 3958   5.801   3.170   4.288  0.4347  0.5687  0.4588
 1020SOL    HW1 3959   5.865   3.117   4.344 -1.8191  0.1951  2.9238
 1020SOL    HW2 3960   5.846   3.253   4.256  1.6821  1.4261  3.9034
 1021SOL     OW 3961   3.741   0.622   0.601  0.2579 -0.9009  0.5415
 1021SOL    HW1 3962   3.683   0.694   0.637  3.3227  1.4740  1.1691
 1021SOL    HW2 3963   3.755   0.637   0.503 -0.3534 -1.5722  0.3533
 1022SOL     OW 3964   1.288   6.194   6.729  0.2389  0.5030 -0.3923
 1022SOL    HW1 3965   1.338   6.114   6.697 -0.1352  0.8653 -1.9607
 1022SOL    HW2 3966   1.350   6.253   6.781  0.7164 -0.3856  0.0748
 1023SOL     OW 3967   6.621   2.264   6.569 -0.2964  0.3528  0.2399
 1023SOL    HW1 3968   6.581   2.335   6.628 -1.0852 -0.0858  0.2496
 1023SOL    HW2 3969   6.548   2.222   6.514  0.6639  2.2900 -2.7720
 1024SOL     OW 3970   1.830   1.593   2.805 -0.5627  0.3116 -0.4967
 1024SOL    HW1 3971   1.762   1.528   2.840 -1.2600  0.9875 -0.5665
 1024SOL    HW2 3972   1.788   1.684   2.796  0.9888  1.3352  1.7666
 1025SOL     OW 3973   3.398   3.091   6.379  0.4369 -0.0311  0.1613
 1025SOL    HW1 3974   3.383   3.020   6.449  0.0600  0.7427  0.8868
 1025SOL    HW2 3975   3.471   3.152   6.409 -0.6716  1.1433  0.5740
 1026SOL     OW 3976   4.682   3.390   1.320  0.2716  0.1034 -0.1056
 1026SOL    HW1 3977   4.770   3.418   1.359  1.7665 -1.9858 -1.7468
 1026SOL    HW2 3978   4.660   3.298   1.351 -1.4436  0.6357  0.3590
 1027SOL     OW 3979   0.270   6.369   0.084  0.6624 -0.1048  0.2095
 1027SOL    HW1 3980   0.313   6.458   0.068  0.4991  0.6200  3.1578
 1027SOL    HW2 3981   0.323   6.298   0.039  2.7013  1.1803  0.4378
 1028SOL     OW 3982   6.535   6.393   4.172 -0.2434  0.0573 -0.0091
 1028SOL    HW1 3983   6.607   6.450   4.134 -0.0513 -1.8019 -2.7844
 1028SOL    HW2 3984   6.452   6.448   4.186  0.9528  1.7010  0.9225
 1029SOL     OW 3985   6.711   0.294   6.937 -0.3606 -0.5637  0.3248
 1029SOL    HW1 3986   6.681   0.321   6.845  0.5308 -1.1881 -0.1557
 1029SOL    HW2 3987   6.755   0.204   6.933 -2.7209 -1.8910  1.7902
 1030SOL     OW 3988   2.990   3.818   0.343 -0.3653 -0.0923 -0.2243
 1030SOL    HW1 3989   2.897   3.782   0.348  0.0879 -1.4475 -0.9922
 1030SOL    HW2 3990   3.010   3.871   0.425 -1.3030 -1.0453  0.6486
 1031SOL     OW 3991   3.240   3.190   0.445 -0.6573  0.2005 -0.3633
 1031SOL    HW1 3992   3.212   3.265   0.385  0.3047 -0.3042 -1.4976
 1031SOL    HW2 3993   3.209   3.103   0.406 -1.2037 -0.0488  0.6038
 1032SOL     OW 3994   1.687   6.926   0.835  0.0329 -0.0163 -0.3573
 1032SOL    HW1 3995   1.600   6.883   0.815 -0.3327  0.4234  0.2344
 1032SOL    HW2 3996   1.683   7.023   0.812 -0.3442  0.4702  1.5386
 1033SOL     OW 3997   0.985   5.567   1.289 -0.5655 -0.7145 -0.8055
 1033SOL    HW1 3998   0.969   5.653   1.241 -1.4519 -0.5508 -0.2286
 1033SOL    HW2 3999   1.080   5.564   1.320 -0.3438 -0.2485 -1.4235
 1034SOL     OW 4000   2.027   0.539   6.265 -0.4062  0.0635  0.2477
 1034SOL    HW1 4001   1.936   0.527   6.304 -0.1784  1.5492  1.3446
 1034SOL    HW2 4002   2.061   0.631   6.287  0.7634  0.0872 -1.3977
 1035SOL     OW 4003   1.707   2.142   5.275 -0.6092 -0.4916 -0.2846
 1035SOL    HW1 4004   1.695   2.193   5.190  0.8225 -0.7696 -0.6802
 1035SOL    HW2 4005   1.719   2.206   5.351 -0.0580 -0.2315 -0.5836
 1036SOL     OW 4006   5.007   1.050   0.911 -0.1355  0.4288  0.3518
 1036SOL    HW1 4007   4.987   0.953   0.896  0.9016  0.3968 -1.0082
 1036SOL    HW2 4008   4.936   1.106   0.868 -0.1255  0.2843  0.1474
 1037SOL     OW 4009   1.064   6.074   2.988  0.0726  0.0766  0.0389
 1037SOL    HW1 4010   1.058   6.130   2.905 -1.2102 -0.7783 -0.4648
 1037SOL    HW2 4011   1.157   6.039   2.997  0.0173 -0.5607 -1.5362
 1038SOL     OW 4012   2.475   6.479   5.935 -0.2054  0.0837 -0.4367
 1038SOL    HW1 4013   2.459   6.556   5.997  0.0814 -0.0600 -0.1780
 1038SOL    HW2 4014   2.461   6.508   5.841 -0.1523  0.4386 -0.3370
 1039SOL     OW 4015   3.281   4.108   2.509  0.0673 -0.2482  0.3302
 1039SOL    HW1 4016   3.331   4.164   2.575  0.5865 -0.1538 -0.1435
 1039SOL    HW2 4017   3.299   4.011   2.527 -0.9438 -0.2921  1.2403
 1040SOL     OW 4018   4.999   1.775   2.271  0.3113 -0.5935 -0.6294
 1040SOL    HW1 4019   5.067   1.735   2.209 -0.3021 -0.2380 -1.5499
 1040SOL    HW2 4020   4.926   1.708   2.288 -0.0699 -0.3287 -1.1685
 1041SOL     OW 4021   1.260   2.670   6.196  0.2132 -0.1378 -0.3153
 1041SOL    HW1 4022   1.317   2.631   6.124  1.2419 -4.3077  2.4108
 1041SOL    HW2 4023   1.193   2.602   6.226  0.6928  0.8434  3.4537
 1042SOL     OW 4024   5.197   2.239   4.241 -0.2342  0.2159  0.0914
 1042SOL    HW1 4025   5.276   2.290   4.273 -0.1313  1.7188 -2.3253
 1042SOL    HW2 4026   5.160   2.184   4.317  1.7700  1.1266  1.8408
 1043SOL     OW 4027   1.663   2.698   4.970  0.4495  0.2540  0.5180
 1043SOL    HW1 4028   1.647   2.722   5.066  1.5200  0.6928  0.5982
 1043SOL    HW2 4029   1.627   2.607   4.951 -1.8927  1.0676  0.7312
 1044SOL     OW 4030   5.811   4.787   2.015 -0.1998  0.2196 -0.0241
 1044SOL    HW1 4031   5.839   4.778   1.920  1.9799  0.8531  0.4949
 1044SOL    HW2 4032   5.777   4.699   2.049 -1.0078 -0.0076 -1.3521
 1045SOL     OW 4033   4.983   3.157   3.019 -0.3282 -1.1707 -0.0405
 1045SOL    HW1 4034   4.961   3.142   3.115  0.4422 -0.6439  0.2355
 1045SOL    HW2 4035   5.063   3.102   2.994 -0.3330 -1.0656 -0.2908
 1046SOL     OW 4036   2.700   2.678   0.819 -0.4153  1.3389 -0.4577
 1046SOL    HW1 4037   2.779   2.620   0.800 -0.8468  1.2389 -2.1564
 1046SOL    HW2 4038   2.727   2.774   0.813 -0.0380  1.3292  0.8232
 1047SOL     OW 4039   2.902   2.036   3.028 -0.0329 -0.3488 -0.4132
 1047SOL    HW1 4040   2.850   2.093   3.092  0.8265 -0.1970  0.1670
 1047SOL    HW2 4041   2.849   1.954   3.007  0.0767 -0.8777  1.2663
 1048SOL     OW 4042   5.813   0.509   0.341 -0.0407  0.5051  0.0309
 1048SOL    HW1 4043   5.854   0.482   0.253 -2.0160 -0.5078 -0.6351
 1048SOL    HW2 4044   5.849   0.451   0.414  0.3700  0.2276 -0.3878
 1049SOL     OW 4045   5.226   5.850   6.235 -0.1504  0.2063 -0.6807
 1049SOL    HW1 4046   5.229   5.921   6.304  2.1350  0.4232 -0.9370
 1049SOL    HW2 4047   5.308   5.793   6.242 -1.0922 -1.3354 -1.5975
 1050SOL     OW 4048   2.859   1.946   3.823  0.1096  0.1814  0.1128
 1050SOL    HW1 4049   2.870   2.034   3.777 -2.1306  1.5297  1.9572
 1050SOL    HW2 4050   2.783   1.951   3.887 -0.2441 -3.2120  0.1367
 1051SOL     OW 4051   2.688   0.851   4.836  0.3147  0.1171  0.4037
 1051SOL    HW1 4052   2.747   0.840   4.916 -1.3439  0.1979  1.6752
 1051SOL    HW2 4053   2.674   0.763   4.792  3.9637  0.4815 -1.9224
 1052SOL     OW 4054   5.642   2.212   4.308 -0.2497 -0.3724  0.1716
 1052SOL    HW1 4055   5.545   2.233   4.318  0.1252  1.5862  0.1813
 1052SOL    HW2 4056   5.688   2.288   4.262  1.0148 -1.9813 -1.3587
 1053SOL     OW 4057   4.292   2.947   5.857  0.1621  0.2274  0.0723
 1053SOL    HW1 4058   4.286   2.877   5.929  0.6886 -0.0762 -0.1725
 1053SOL    HW2 4059   4.269   3.036   5.895 -3.6890 -0.4686 -0.2813
 1054SOL     OW 4060   4.862   5.156   6.443 -0.0078  0.1546  0.0171
 1054SOL    HW1 4061   4.789   5.200   6.390  0.5943  1.0338 -0.0975
 1054SOL    HW2 4062   4.897   5.077   6.392  1.7186  1.9558 -1.7340
 1055SOL     OW 4063   0.946   3.617   6.854 -0.4240 -0.3255 -0.3441
 1055SOL    HW1 4064   0.935   3.710   6.887  0.4323 -0.8897  1.6398
 1055SOL    HW2 4065   0.928   3.552   6.928  0.6533 -1.6809 -1.2121
 1056SOL     OW 4066   4.005   3.117   0.154  0.5084  0.7298  0.0524
 1056SOL    HW1 4067   4.010   3.085   0.059 -0.7873 -0.2043  0.2594
 1056SOL    HW2 4068   3.927   3.179   0.164  0.9144  1.1923  0.4196
 1057SOL     OW 4069   2.464   4.373   0.772  0.5053  0.3475 -0.0058
 1057SOL    HW1 4070   2.389   4.406   0.829 -0.6995 -0.9446 -0.7688
 1057SOL    HW2 4071   2.504   4.449   0.722  1.3381  1.4453  2.2121
 1058SOL     OW 4072   3.532   3.059   1.444  0.5242 -0.2236  0.3149
 1058SOL    HW1 4073   3.531   3.095   1.350 -0.1705  0.4654  0.5748
 1058SOL    HW2 4074   3.621   3.017   1.462  0.9176  0.2485 -0.4228
 1059SOL     OW 4075   0.025   4.119   1.358 -0.0404 -0.3275  0.0974
 1059SOL    HW1 4076   0.056   4.140   1.450 -0.9801  0.7614  0.1944
 1059SOL    HW2 4077   0.094   4.149   1.292 -1.1250  2.9351  0.2570
 1060SOL     OW 4078   0.715   5.164   6.481 -0.3794 -0.3586  0.2848
 1060SOL    HW1 4079   0.729   5.161   6.580  1.3383  0.4498  0.0946
 1060SOL    HW2 4080   0.617   5.158   6.462 -0.7311 -0.7819  2.0065
 1061SOL     OW 4081   1.238   5.447   5.281 -0.1166  0.4179  0.1448
 1061SOL    HW1 4082   1.322   5.395   5.268  0.4491  1.4381 -0.3064
 1061SOL    HW2 4083   1.253   5.519   5.348 -0.7505  0.3428  0.3741
 1062SOL     OW 4084   3.319   4.498   5.390  0.1365 -0.5680 -0.6317
 1062SOL    HW1 4085   3.327   4.517   5.488 -0.2239  0.3950 -0.7764
 1062SOL    HW2 4086   3.227   4.465   5.370 -0.2129  0.4723 -0.8204
 1063SOL     OW 4087   4.103   5.649   3.098  0.0746 -0.5696  0.5401
 1063SOL    HW1 4088   4.066   5.602   3.179 -0.8161  0.6533  0.8742
 1063SOL    HW2 4089   4.059   5.613   3.016  0.3496 -1.2122  0.6674
 1064SOL     OW 4090   1.715   2.356   5.435 -0.2661 -0.2820  0.2584
 1064SOL    HW1 4091   1.645   2.424   5.459 -0.7750 -1.3872  2.1008
 1064SOL    HW2 4092   1.797   2.403   5.402 -0.3853  1.2920  2.0191
 1065SOL     OW 4093   5.388   1.955   4.985 -0.1124  1.1178  0.0083
 1065SOL    HW1 4094   5.421   1.887   4.920  1.9960  2.4643 -0.4365
 1065SOL    HW2 4095   5.355   2.035   4.935  0.3061  1.6462  0.5596
 1066SOL     OW 4096   5.767   6.008   2.676 -0.3711 -0.3371 -0.1106
 1066SOL    HW1 4097   5.768   6.035   2.773  1.1806 -1.7331  0.3089
 1066SOL    HW2 4098   5.723   5.918   2.667  1.8395 -1.4714 -0.2695
 1067SOL     OW 4099   5.355   1.568   1.212  0.3330 -0.6437 -0.1924
 1067SOL    HW1 4100   5.411   1.630   1.267 -2.2516  0.5334  1.3210
 1067SOL    HW2 4101   5.365   1.474   1.246  0.5117 -0.2706  0.8129
 1068SOL     OW 4102   5.765   1.823   4.761 -0.0525  0.0015  0.0933
 1068SOL    HW1 4103   5.791   1.890   4.831 -0.8511 -0.1729  0.5727
 1068SOL    HW2 4104   5.760   1.732   4.801 -2.3912  0.1591  0.3212
 1069SOL     OW 4105   0.019   2.278   1.842 -0.0140 -0.1145 -0.2024
 1069SOL    HW1 4106   0.080   2.296   1.919 -0.1805  2.5054 -0.5941
 1069SOL    HW2 4107  -0.048   2.208   1.868  0.4558  0.1006  1.7374
 1070SOL     OW 4108   0.356   0.844   0.972  0.3681 -0.3112  0.1573
 1070SOL    HW1 4109   0.308   0.783   0.910  0.2427  0.2804 -0.3353
 1070SOL    HW2 4110   0.418   0.903   0.920 -1.4642  1.8583  0.2665
 1071SOL     OW 4111   2.350   1.173   4.580  0.2416  0.0368 -0.0335
 1071SOL    HW1 4112   2.347   1.110   4.503 -1.0960 -1.8014  1.4154
 1071SOL    HW2 4113   2.412   1.136   4.650 -0.6347  0.2666  0.8747
 1072SOL     OW 4114   2.063   1.048   2.856  0.0870 -0.3734  0.5067
 1072SOL    HW1 4115   2.108   0.982   2.916 -1.3089 -1.1075  0.7866
 1072SOL    HW2 4116   2.000   1.104   2.910 -1.1947 -1.0508 -0.2375
 1073SOL     OW 4117   5.920   2.795   2.784  0.4457  0.4215  0.4021
 1073SOL    HW1 4118   5.985   2.742   2.838 -0.1738 -1.0097 -0.2052
 1073SOL    HW2 4119   5.864   2.733   2.730 -0.0176  1.7404 -0.6764
 1074SOL     OW 4120   4.332   0.338   2.439  0.1387 -0.5710 -0.2948
 1074SOL    HW1 4121   4.277   0.420   2.426  0.3949 -0.5323 -1.2174
 1074SOL    HW2 4122   4.343   0.290   2.352  1.4382 -0.6456 -0.1213
 1075SOL     OW 4123   6.871   3.764   3.674 -0.1432 -0.2836 -0.4242
 1075SOL    HW1 4124   6.885   3.823   3.753 -1.7172 -0.3723 -0.0495
 1075SOL    HW2 4125   6.913   3.806   3.593  1.6939 -0.3111  0.4583
 1076SOL     OW 4126   3.431   3.153   5.487 -1.0987  0.1189 -0.2504
 1076SOL    HW1 4127   3.525   3.187   5.481 -1.1109  0.0572 -0.8444
 1076SOL    HW2 4128   3.420   3.074   5.426 -1.4907  0.0255 -0.0620
 1077SOL     OW 4129   0.446   6.187   1.703 -0.0201 -0.4224  0.1852
 1077SOL    HW1 4130   0.398   6.247   1.768  0.4203 -2.1469  2.2068
 1077SOL    HW2 4131   0.492   6.243   1.634 -2.5602  1.3864 -0.1693
 1078SOL     OW 4132   6.870   6.675   3.594  0.5065 -0.2842 -0.3797
 1078SOL    HW1 4133   6.836   6.767   3.577 -0.2391 -0.8030 -1.9267
 1078SOL    HW2 4134   6.970   6.675   3.593  0.5199  0.2649 -2.0280
 1079SOL     OW 4135   0.726   5.196   0.552 -0.1669  0.2999  0.0587
 1079SOL    HW1 4136   0.753   5.108   0.513 -0.5651  1.0848 -2.0954
 1079SOL    HW2 4137   0.637   5.188   0.597 -0.0230 -0.4698  0.2077
 1080SOL     OW 4138   6.054   5.433   0.895  0.0760  0.1879  0.4556
 1080SOL    HW1 4139   6.070   5.528   0.868 -0.9408  0.6998  1.5731
 1080SOL    HW2 4140   6.016   5.382   0.817  1.3048  0.4932 -0.3671
 1081SOL     OW 4141   0.483   6.612   2.363  0.0235 -0.4520 -0.0398
 1081SOL    HW1 4142   0.397   6.642   2.324 -0.4963 -1.1350  0.5536
 1081SOL    HW2 4143   0.472   6.598   2.461  0.9432 -0.0745  0.1305
 1082SOL     OW 4144   4.146   5.744   5.595  0.2019  0.4124  0.1465
 1082SOL    HW1 4145   4.125   5.723   5.500 -0.1920  2.0606 -0.1699
 1082SOL    HW2 4146   4.189   5.665   5.638 -0.5946 -0.7434 -1.0804
 1083SOL     OW 4147   6.420   3.845   1.332  0.5354  0.5518  0.5495
 1083SOL    HW1 4148   6.408   3.788   1.250 -1.2129  0.1257  1.0517
 1083SOL    HW2 4149   6.370   3.931   1.319 -1.2621 -0.2523  1.8179
 1084SOL     OW 4150   4.682   0.374   5.738  0.4213 -0.0887  0.1064
 1084SOL    HW1 4151   4.680   0.473   5.725  1.5784 -0.3186 -2.3712
 1084SOL    HW2 4152   4.610   0.331   5.684 -0.6403 -0.6025  1.8400
 1085SOL     OW 4153   2.281   3.841   5.320 -0.5095  0.4756  0.0420
 1085SOL    HW1 4154   2.342   3.764   5.338  0.1352  1.0626  0.4096
 1085SOL    HW2 4155   2.325   3.904   5.257 -0.8635  0.7567  0.0708
 1086SOL     OW 4156   3.530   4.911   2.780 -0.3669  0.4431 -0.0314
 1086SOL    HW1 4157   3.535   4.843   2.707  1.5786  0.6203 -0.1164
 1086SOL    HW2 4158   3.621   4.946   2.799 -0.9273  0.9219  2.0221
 1087SOL     OW 4159   0.670   6.936   5.682  1.2195 -0.4198 -0.0598
 1087SOL    HW1 4160   0.681   6.898   5.590  0.1285 -0.7766 -0.0579
 1087SOL    HW2 4161   0.638   7.031   5.675  0.9656 -0.5027 -0.0598
 1088SOL     OW 4162   5.512   5.254   5.900 -0.0522  0.8379  0.3524
 1088SOL    HW1 4163   5.415   5.235   5.916  0.3850 -0.8210  1.1823
 1088SOL    HW2 4164   5.549   5.308   5.976 -0.0622  0.4943  0.6035
 1089SOL     OW 4165   0.268   6.793   3.617 -0.3137  0.2049  0.3757
 1089SOL    HW1 4166   0.200   6.834   3.677 -0.3273  0.3439  0.2681
 1089SOL    HW2 4167   0.358   6.798   3.660 -0.4207 -0.2937  0.6702
 1090SOL     OW 4168   5.883   2.761   5.715  0.5365 -0.2041  0.2632
 1090SOL    HW1 4169   5.860   2.833   5.649  0.1967 -0.4750  0.0885
 1090SOL    HW2 4170   5.931   2.802   5.793 -1.7138  0.6160  1.3060
 1091SOL     OW 4171   2.020   3.740   4.008 -0.1108 -0.5131  0.0935
 1091SOL    HW1 4172   2.040   3.790   3.924  0.2535  0.9728  1.0253
 1091SOL    HW2 4173   1.947   3.787   4.058 -0.1224 -1.2133  0.7527
 1092SOL     OW 4174   3.217   0.537   1.507  0.4234 -0.6304 -0.4585
 1092SOL    HW1 4175   3.305   0.493   1.525 -0.0808 -1.5555 -0.1708
 1092SOL    HW2 4176   3.174   0.561   1.594 -0.4061 -1.8316 -0.5084
 1093SOL     OW 4177   1.093   0.352   5.074 -0.0529  0.0605  0.3664
 1093SOL    HW1 4178   1.008   0.395   5.045  0.1660  0.2990  0.0572
 1093SOL    HW2 4179   1.084   0.253   5.070  0.7730 -0.0357 -3.1879
 1094SOL     OW 4180   0.914   6.502   3.483 -0.7416  0.4033  0.0944
 1094SOL    HW1 4181   0.845   6.555   3.532  0.3900  1.1257  0.9577
 1094SOL    HW2 4182   1.004   6.541   3.500 -0.1465 -0.2942 -1.3162
 1095SOL     OW 4183   0.153   5.277   0.877 -0.3506 -0.1827 -0.5777
 1095SOL    HW1 4184   0.183   5.213   0.807 -0.0562 -0.2678 -0.3744
 1095SOL    HW2 4185   0.102   5.229   0.947  0.1288 -0.2485 -0.2689
 1096SOL     OW 4186   3.829   6.591   1.847 -0.7394 -0.0729  0.6014
 1096SOL    HW1 4187   3.872   6.519   1.902  0.1420 -0.0030  0.0188
 1096SOL    HW2 4188   3.881   6.676   1.856  1.4534 -0.8426 -2.8624
 1097SOL     OW 4189   3.308   5.175   4.490  0.6765 -0.8048  0.1968
 1097SOL    HW1 4190   3.262   5.088   4.508 -0.7302 -0.2716 -0.6925
 1097SOL    HW2 4191   3.320   5.224   4.576  2.6747 -2.4019  0.9073
 1098SOL     OW 4192   2.260   6.205   6.734 -0.0018 -0.7317 -0.6790
 1098SOL    HW1 4193   2.253   6.191   6.833 -0.7400 -0.3960 -0.6761
 1098SOL    HW2 4194   2.237   6.300   6.712  0.6201 -0.6791 -1.1297
 1099SOL     OW 4195   4.983   0.399   0.040 -0.1194 -0.3775  0.1470
 1099SOL    HW1 4196   5.031   0.338   0.103  0.9480 -0.7757 -1.0074
 1099SOL    HW2 4197   4.886   0.402   0.064  0.4103  0.3407  2.4551
 1100SOL     OW 4198   6.062   1.937   2.574  0.2663  0.3138  0.0560
 1100SOL    HW1 4199   6.110   1.877   2.638 -1.0691 -0.2216  0.6044
 1100SOL    HW2 4200   5.989   1.986   2.623 -0.4781  0.2533 -0.9653
 1101SOL     OW 4201   6.121   1.592   1.329 -0.0736  0.0833  0.8866
 1101SOL    HW1 4202   6.094   1.672   1.275 -0.9005 -1.6389 -1.4218
 1101SOL    HW2 4203   6.147   1.621   1.421 -1.3860  2.8632  0.4856
 1102SOL     OW 4204   5.710   2.226   5.854  0.4490 -0.0210 -0.7511
 1102SOL    HW1 4205   5.741   2.241   5.948  1.0676  0.0491 -0.9580
 1102SOL    HW2 4206   5.714   2.313   5.804  1.8203 -0.3773 -1.3193
 1103SOL     OW 4207   3.607   0.178   0.719 -0.2978  0.5069 -0.3788
 1103SOL    HW1 4208   3.646   0.244   0.782 -0.9879 -0.2267  0.8558
 1103SOL    HW2 4209   3.527   0.218   0.674  1.0168  1.5366 -1.9105
 1104SOL     OW 4210   6.421   0.361   3.741  0.2530  0.9236  0.4570
 1104SOL    HW1 4211   6.379   0.369   3.651  0.2791  0.1385  0.3625
 1104SOL    HW2 4212   6.355   0.321   3.805  0.0113  2.1033  0.9619
 1105SOL     OW 4213   3.786   0.759   5.371  0.1216 -0.0160 -0.4432
 1105SOL    HW1 4214   3.738   0.838   5.332 -2.1420 -0.7978  0.5919
 1105SOL    HW2 4215   3.740   0.675   5.344 -0.2603 -0.7072  2.1098
 1106SOL     OW 4216   5.729   0.363   0.042 -0.0430  0.8717 -0.9188
 1106SOL    HW1 4217   5.798   0.332   0.107 -0.9025  0.7385 -0.0436
 1106SOL    HW2 4218   5.762   0.443  -0.006  1.4609 -0.2615 -1.8582
 1107SOL     OW 4219   1.107   3.490   5.561 -0.3684 -0.1847  0.2427
 1107SOL    HW1 4220   1.192   3.501   5.512 -1.3201  1.0874 -1.1950
 1107SOL    HW2 4221   1.119   3.520   5.656  0.5086  0.9755 -0.2151
 1108SOL     OW 4222   1.754   6.750   3.735 -0.1523  0.3010 -0.6856
 1108SOL    HW1 4223   1.834   6.810   3.742 -1.1374  1.5934  0.0851
 1108SOL    HW2 4224   1.758   6.698   3.650  2.5266 -1.2325  0.2552
 1109SOL     OW 4225   3.848   0.771   6.127 -0.1944 -0.9104 -0.0528
 1109SOL    HW1 4226   3.903   0.835   6.072  0.6377 -1.8872 -0.3920
 1109SOL    HW2 4227   3.889   0.761   6.217 -0.4237 -0.8385  0.0597
 1110SOL     OW 4228   2.859   6.550   0.374  0.0012 -0.5226 -0.3646
 1110SOL    HW1 4229   2.893   6.472   0.426 -0.5967 -0.5092  0.0562
 1110SOL    HW2 4230   2.930   6.583   0.312  1.0264 -0.0163  1.0354
 1111SOL     OW 4231   3.603   3.925   6.127  0.2331 -0.8922 -0.0334
 1111SOL    HW1 4232   3.524   3.903   6.184  0.8420 -3.9264 -0.1999
 1111SOL    HW2 4233   3.580   3.911   6.031  0.7723 -1.0849 -0.1398
 1112SOL     OW 4234   5.444   2.558   2.369 -0.1602 -0.4188  0.2760
 1112SOL    HW1 4235   5.445   2.609   2.283 -2.9464  1.6205  1.3144
 1112SOL    HW2 4236   5.400   2.469   2.355  1.0563 -0.9024 -0.7099
 1113SOL     OW 4237   0.485   0.591   4.539 -0.0208  0.2789 -0.2432
 1113SOL    HW1 4238   0.410   0.640   4.494 -0.5702 -0.3235 -0.0036
 1113SOL    HW2 4239   0.476   0.493   4.522  1.8324  0.3240 -1.8684
 1114SOL     OW 4240   3.528   2.927   4.390  0.1750 -0.1786  0.2528
 1114SOL    HW1 4241   3.610   2.902   4.441 -1.3280 -0.7911  2.5180
 1114SOL    HW2 4242   3.451   2.935   4.453 -0.9537  3.3186 -1.3221
 1115SOL     OW 4243   1.728   4.015   4.372  0.4117  0.5506  0.8185
 1115SOL    HW1 4244   1.789   3.984   4.444  0.4258  1.2063  1.0938
 1115SOL    HW2 4245   1.746   4.111   4.351  1.6359 -0.0788 -1.3049
 1116SOL     OW 4246   4.827   6.173   1.019  0.0428  0.3299 -0.2561
 1116SOL    HW1 4247   4.907   6.115   1.037  0.4867  0.4176 -1.7920
 1116SOL    HW2 4248   4.856   6.269   1.015 -0.1267  0.3658 -0.7617
 1117SOL     OW 4249   2.723   1.614   2.177  0.2128 -0.0368 -0.1482
 1117SOL    HW1 4250   2.724   1.690   2.112  1.3764 -0.3518 -0.5214
 1117SOL    HW2 4251   2.635   1.567   2.170  0.3748 -0.1823 -1.6533
 1118SOL     OW 4252   3.880   6.080   4.956 -0.0020 -0.5114  0.0967
 1118SOL    HW1 4253   3.970   6.038   4.968  0.3132  0.5981  1.9750
 1118SOL    HW2 4254   3.886   6.152   4.887  0.5173 -0.5073  0.1424
 1119SOL     OW 4255   2.768   5.866   4.755 -0.4767 -0.6612  0.7150
 1119SOL    HW1 4256   2.750   5.847   4.658  1.6122  1.5178 -0.2146
 1119SOL    HW2 4257   2.830   5.796   4.791 -0.0603 -0.6752  0.0102
 1120SOL     OW 4258   1.207   4.761   1.315  0.2416 -0.1102  0.3284
 1120SOL    HW1 4259   1.196   4.771   1.414  1.9595  3.2725  0.3402
 1120SOL    HW2 4260   1.276   4.692   1.296 -0.1819 -0.8795  1.4796
 1121SOL     OW 4261   5.380   4.280   4.808  0.1453 -0.2336  0.1664
 1121SOL    HW1 4262   5.385   4.205   4.875  1.0313 -1.1365 -0.8734
 1121SOL    HW2 4263   5.285   4.308   4.796 -0.1415 -0.8264  0.9605
 1122SOL     OW 4264   4.842   1.988   4.027  0.0711  0.1351  0.5353
 1122SOL    HW1 4265   4.874   1.934   3.949  0.6071  0.6404  0.3978
 1122SOL    HW2 4266   4.749   1.960   4.051 -0.4404  0.5747 -0.8273
 1123SOL     OW 4267   1.973   2.248   2.929 -0.0007  0.4789  0.7485
 1123SOL    HW1 4268   2.053   2.221   2.983 -0.0437 -0.4375  0.3765
 1123SOL    HW2 4269   1.955   2.178   2.860 -1.0417  0.7487  0.7389
 1124SOL     OW 4270   2.234   1.256   3.294 -0.4909 -0.0569  0.2304
 1124SOL    HW1 4271   2.328   1.262   3.326 -0.3647 -0.7147 -0.0188
 1124SOL    HW2 4272   2.205   1.161   3.289 -0.9518  0.1031 -0.3282
 1125SOL     OW 4273   1.297   3.111   2.612 -0.5672  0.2088 -0.1081
 1125SOL    HW1 4274   1.337   3.060   2.535  1.5873 -0.5769  1.4536
 1125SOL    HW2 4275   1.311   3.060   2.697 -1.2424  1.9200  1.0869
 1126SOL     OW 4276   2.658   4.686   2.524  0.3947  0.4010  0.2446
 1126SOL    HW1 4277   2.695   4.620   2.459 -0.4166 -0.2556  0.4250
 1126SOL    HW2 4278   2.732   4.733   2.571  0.9829  0.0069 -0.2801
 1127SOL     OW 4279   4.062   6.822   1.418 -0.4771  0.1517  0.8109
 1127SOL    HW1 4280   4.043   6.820   1.320 -0.8779 -0.5303  0.8942
 1127SOL    HW2 4281   4.143   6.767   1.438 -0.3903  0.2969  0.8612
 1128SOL     OW 4282   3.097   0.363   5.826  0.2448  0.1769  0.0046
 1128SOL    HW1 4283   3.190   0.384   5.797 -0.1838  1.2169 -0.6689
 1128SOL    HW2 4284   3.076   0.268   5.803  0.8861  0.1519 -0.5021
 1129SOL     OW 4285   1.331   2.169   1.275 -0.4442 -0.0756 -0.1682
 1129SOL    HW1 4286   1.406   2.104   1.265  0.1736  0.7263 -0.8711
 1129SOL    HW2 4287   1.292   2.190   1.186 -1.2952 -0.2167  0.1560
 1130SOL     OW 4288   1.405   5.557   2.256  0.6556  0.3974  0.2690
 1130SOL    HW1 4289   1.423   5.631   2.192 -0.2329  0.1425 -0.2972
 1130SOL    HW2 4290   1.428   5.586   2.349  2.2318  0.6707 -0.1878
 1131SOL     OW 4291   0.582   5.125   1.939  0.0790  0.6094 -0.2229
 1131SOL    HW1 4292   0.556   5.050   1.999 -0.4334 -0.6833 -1.9604
 1131SOL    HW2 4293   0.666   5.101   1.890 -0.2519  1.0201 -1.0186
 1132SOL     OW 4294   6.511   1.555   4.543 -0.5129  0.3099 -0.2817
 1132SOL    HW1 4295   6.417   1.529   4.563 -1.2823  3.2196  0.2288
 1132SOL    HW2 4296   6.513   1.623   4.470  1.2975 -0.3614 -0.9180
 1133SOL     OW 4297   1.832   6.423   1.923 -0.8468  0.2766 -0.2493
 1133SOL    HW1 4298   1.779   6.506   1.910 -0.9672  0.0944 -0.9737
 1133SOL    HW2 4299   1.791   6.348   1.871 -0.8895 -0.3056  0.5916
 1134SOL     OW 4300   2.553   4.994   2.064 -0.5260  0.3438 -0.3474
 1134SOL    HW1 4301   2.539   5.079   2.013 -3.9017 -0.4824 -1.0462
 1134SOL    HW2 4302   2.603   4.929   2.007 -0.6336  0.8258 -1.0041
 1135SOL     OW 4303   1.867   5.906   4.555  0.0162  0.5039 -0.3323
 1135SOL    HW1 4304   1.941   5.883   4.492 -0.2556  0.1617 -0.5282
 1135SOL    HW2 4305   1.797   5.834   4.552 -0.3053  0.8077 -0.1190
 1136SOL     OW 4306   2.563   6.721   2.999 -0.0846 -0.6187 -0.7009
 1136SOL    HW1 4307   2.505   6.789   2.953 -3.5027 -1.7597  1.5901
 1136SOL    HW2 4308   2.597   6.759   3.084  1.7524 -0.3459 -1.5160
 1137SOL     OW 4309   1.076   6.745   3.771  0.0601 -0.4660  0.0227
 1137SOL    HW1 4310   1.072   6.808   3.848 -0.8522  0.4616 -0.7707
 1137SOL    HW2 4311   1.027   6.661   3.794 -2.2105  0.6979 -0.3274
 1138SOL     OW 4312   4.062   4.935   5.231  0.6041 -0.0616 -0.5951
 1138SOL    HW1 4313   4.036   4.976   5.318  0.2004  0.3737 -0.9174
 1138SOL    HW2 4314   4.116   5.001   5.178 -0.6211  0.3306 -1.4062
 1139SOL     OW 4315   4.098   5.190   3.643  0.2496  0.1954  0.6527
 1139SOL    HW1 4316   4.143   5.160   3.726  0.0901  1.7933  1.3602
 1139SOL    HW2 4317   3.999   5.191   3.657  0.2228  0.5011  0.4540
 1140SOL     OW 4318   6.688   3.684   2.767  0.5799  0.6261 -0.7282
 1140SOL    HW1 4319   6.739   3.629   2.700  1.3671  2.2757 -1.5486
 1140SOL    HW2 4320   6.721   3.664   2.859 -0.2807 -1.4367 -0.8244
 1141SOL     OW 4321   1.230   5.908   5.245 -0.4436  0.1427  0.0287
 1141SOL    HW1 4322   1.227   5.836   5.176 -1.0542 -0.0135  0.2067
 1141SOL    HW2 4323   1.183   5.989   5.211  2.4517  1.4293 -1.2071
 1142SOL     OW 4324   2.621   4.591   3.059 -0.2053 -0.3660 -0.0665
 1142SOL    HW1 4325   2.674   4.676   3.058 -1.2816  0.3225  0.0420
 1142SOL    HW2 4326   2.586   4.574   2.967 -0.9516 -0.0710  0.1593
 1143SOL     OW 4327   6.219   4.108   2.275  0.0290  0.7146  0.2984
 1143SOL    HW1 4328   6.177   4.147   2.193 -1.3173  0.4382  0.8485
 1143SOL    HW2 4329   6.154   4.110   2.351  0.4643 -1.1547  0.7637
 1144SOL     OW 4330   6.591   3.775   0.786  0.2814 -0.0599 -0.0354
 1144SOL    HW1 4331   6.522   3.754   0.717  1.2167  0.5840 -1.2058
 1144SOL    HW2 4332   6.588   3.706   0.859 -3.6397  1.5300  1.6149
 1145SOL     OW 4333   6.527   5.778   1.752  0.3094 -0.7634  0.4017
 1145SOL    HW1 4334   6.500   5.712   1.682  0.1920 -0.1863 -0.1035
 1145SOL    HW2 4335   6.583   5.850   1.711  0.3418 -0.4822  0.9244
 1146SOL     OW 4336   2.222   6.893   0.367  0.5956 -0.0061  0.1370
 1146SOL    HW1 4337   2.259   6.980   0.399  0.1640  1.1166 -2.1655
 1146SOL    HW2 4338   2.161   6.855   0.437  1.1464  1.2928  1.3822
 1147SOL     OW 4339   0.832   5.803   0.612 -0.0060 -0.4977  0.1046
 1147SOL    HW1 4340   0.895   5.773   0.683  1.1323 -2.0955 -1.4736
 1147SOL    HW2 4341   0.738   5.783   0.640  0.2723  0.4053  1.8010
 1148SOL     OW 4342   4.469   5.475   1.799  0.1609  0.3867  0.7431
 1148SOL    HW1 4343   4.391   5.531   1.830 -1.6242 -1.1328 -0.8144
 1148SOL    HW2 4344   4.451   5.379   1.818 -0.8094 -0.6478 -4.0934
 1149SOL     OW 4345   6.820   1.925   1.709 -0.3373  0.1618  0.4859
 1149SOL    HW1 4346   6.725   1.946   1.687  0.0671  2.3715  0.6087
 1149SOL    HW2 4347   6.859   1.868   1.637 -2.3595 -2.8816  1.6058
 1150SOL     OW 4348   0.394   2.534   6.912  0.1871  0.2865  0.4374
 1150SOL    HW1 4349   0.402   2.434   6.906 -1.8204  0.1653 -3.8836
 1150SOL    HW2 4350   0.300   2.558   6.935  0.1932  1.1364 -0.3883
 1151SOL     OW 4351   5.132   6.936   5.274 -0.1320  0.3905  0.2350
 1151SOL    HW1 4352   5.073   6.907   5.349  0.7505  0.3131  0.9196
 1151SOL    HW2 4353   5.221   6.891   5.283 -0.2448 -0.2208 -1.2936
 1152SOL     OW 4354   3.798   5.753   5.568  0.6575 -0.3982  0.4782
 1152SOL    HW1 4355   3.880   5.772   5.623  0.6689  2.5280 -0.3977
 1152SOL    HW2 4356   3.798   5.811   5.487 -1.0438 -2.2073 -0.9184
 1153SOL     OW 4357   5.854   6.267   0.455 -0.0649 -0.4010  0.0737
 1153SOL    HW1 4358   5.883   6.236   0.546 -0.6637 -0.9747  0.0700
 1153SOL    HW2 4359   5.756   6.286   0.456  0.4167  2.6008  0.3981
 1154SOL     OW 4360   1.936   2.548   0.836  0.3385 -0.1071  0.2910
 1154SOL    HW1 4361   1.864   2.613   0.809  0.0094 -0.5002  0.2234
 1154SOL    HW2 4362   2.022   2.575   0.793  1.0648  2.3490  2.9600
 1155SOL     OW 4363   4.361   5.598   5.033  0.3265  0.2745 -0.1821
 1155SOL    HW1 4364   4.400   5.506   5.035  1.0558  0.5587 -0.7505
 1155SOL    HW2 4365   4.276   5.597   4.980  0.6052  0.0297 -0.6272
 1156SOL     OW 4366   3.975   6.455   1.570  0.2756  0.0213  0.3579
 1156SOL    HW1 4367   3.890   6.421   1.530  0.3850 -0.4045  0.4786
 1156SOL    HW2 4368   3.957   6.539   1.620  0.0722  0.3666 -0.2862
 1157SOL     OW 4369   2.430   0.888   6.943 -0.2659 -0.3654 -0.3060
 1157SOL    HW1 4370   2.427   0.899   7.043  2.4777  1.8761 -0.3336
 1157SOL    HW2 4371   2.339   0.866   6.909 -1.6851  0.6237  2.5097
 1158SOL     OW 4372   4.771   5.349   2.979 -0.1003  0.2838 -0.5949
 1158SOL    HW1 4373   4.679   5.389   2.985  0.2402  1.0943 -0.5965
 1158SOL    HW2 4374   4.838   5.422   2.963  0.8971  0.1066  2.2442
 1159SOL     OW 4375   4.533   5.151   7.017 -0.4488 -0.0892 -0.2592
 1159SOL    HW1 4376   4.520   5.077   7.084  0.6526  0.1284  0.2115
 1159SOL    HW2 4377   4.445   5.173   6.975 -1.3468  0.3493  1.7412
 1160SOL     OW 4378   3.260   1.434   1.831 -0.0034 -0.1986  0.2259
 1160SOL    HW1 4379   3.170   1.391   1.831 -0.1857  0.1635  0.9592
 1160SOL    HW2 4380   3.331   1.365   1.821 -0.3921 -0.3918 -1.4725
 1161SOL     OW 4381   1.208   5.075   2.297 -0.3122 -0.3463 -0.1039
 1161SOL    HW1 4382   1.123   5.110   2.258 -0.8055 -1.7265 -0.3124
 1161SOL    HW2 4383   1.285   5.108   2.242 -0.5956  1.7013  0.6486
 1162SOL     OW 4384   2.055   1.710   4.600  0.2287  0.1789 -0.2943
 1162SOL    HW1 4385   2.149   1.716   4.633 -0.1977  1.7524  0.7648
 1162SOL    HW2 4386   2.054   1.697   4.501  1.5767  1.4033 -0.4950
 1163SOL     OW 4387   1.595   1.347   3.343 -0.2357  0.6208  0.0635
 1163SOL    HW1 4388   1.534   1.267   3.338 -0.4465  0.7759  0.1404
 1163SOL    HW2 4389   1.614   1.368   3.439 -0.2099  0.6860  0.0440
 1164SOL     OW 4390   3.519   3.135   0.391  0.5191 -0.8341  0.2078
 1164SOL    HW1 4391   3.422   3.145   0.410  0.5823 -1.8123  1.1630
 1164SOL    HW2 4392   3.531   3.085   0.305  0.1678 -1.1028  0.3112
 1165SOL     OW 4393   4.095   4.837   5.743 -0.0146 -0.0252 -0.0626
 1165SOL    HW1 4394   4.117   4.788   5.659  0.0394  0.6541 -0.4471
 1165SOL    HW2 4395   4.138   4.791   5.820  1.4802  0.3810 -0.6165
 1166SOL     OW 4396   3.967   2.483   0.241 -0.1913 -0.0280  0.5787
 1166SOL    HW1 4397   4.022   2.503   0.321  1.0774  1.2586 -0.5530
 1166SOL    HW2 4398   3.927   2.391   0.249  1.1323 -0.5084  1.9759
 1167SOL     OW 4399   4.545   5.039   2.915 -0.4702  0.3597 -0.2114
 1167SOL    HW1 4400   4.524   5.090   2.999 -1.9883  0.4347 -0.6110
 1167SOL    HW2 4401   4.505   5.086   2.837  0.5550  0.0487 -0.9390
 1168SOL     OW 4402   2.526   2.017   6.135  0.4777  0.1866 -0.4638
 1168SOL    HW1 4403   2.430   2.029   6.108  0.4961  1.6943  0.0377
 1168SOL    HW2 4404   2.586   2.044   6.059  0.5137  0.1806 -0.4379
 1169SOL     OW 4405   5.440   0.597   3.257  0.3880  0.1652 -0.0777
 1169SOL    HW1 4406   5.405   0.672   3.201  1.2113  0.4240 -0.2635
 1169SOL    HW2 4407   5.367   0.562   3.316 -0.6690 -0.5341 -1.7373
 1170SOL     OW 4408   6.344   5.491   0.940 -0.3259 -0.9082 -0.5191
 1170SOL    HW1 4409   6.332   5.411   0.999 -2.8825 -0.0794  0.2215
 1170SOL    HW2 4410   6.415   5.550   0.978  0.0185 -1.7434  0.1642
 1171SOL     OW 4411   6.268   4.162   1.596 -0.5285  0.3889  0.3254
 1171SOL    HW1 4412   6.217   4.078   1.582  0.4912 -0.4144  1.2100
 1171SOL    HW2 4413   6.206   4.236   1.623 -1.2962 -0.4000  0.7516
 1172SOL     OW 4414   5.849   2.988   1.379  0.3461  0.0060  0.2489
 1172SOL    HW1 4415   5.778   3.021   1.317  0.5493 -2.5883 -1.4932
 1172SOL    HW2 4416   5.828   3.019   1.472 -3.0654 -0.6216 -0.1727
 1173SOL     OW 4417   4.465   1.535   1.794  0.2107 -0.4220  0.1868
 1173SOL    HW1 4418   4.418   1.569   1.712 -1.9824 -0.5842  1.3195
 1173SOL    HW2 4419   4.489   1.612   1.853 -2.1927 -0.5571  1.4166
 1174SOL     OW 4420   2.722   5.371   6.867 -0.3919 -0.5929  0.3231
 1174SOL    HW1 4421   2.668   5.435   6.813  1.5478 -0.3827 -1.4826
 1174SOL    HW2 4422   2.706   5.278   6.835 -0.0884 -0.5861  0.1497
 1175SOL     OW 4423   3.070   3.056   2.679 -0.1523 -0.2038 -0.4786
 1175SOL    HW1 4424   3.066   2.978   2.616  0.4782 -0.8374  0.2523
 1175SOL    HW2 4425   3.140   3.040   2.748 -1.9588 -0.3133  1.4275
 1176SOL     OW 4426   5.591   4.849   1.081  0.4275  0.6007  0.2934
 1176SOL    HW1 4427   5.642   4.862   0.996 -0.3411  1.3313 -0.0727
 1176SOL    HW2 4428   5.527   4.924   1.094  0.5970  0.5563  1.5811
 1177SOL     OW 4429   0.554   0.494   5.372  0.3438  0.2831 -0.3402
 1177SOL    HW1 4430   0.620   0.530   5.306  0.8728 -0.1875 -0.0777
 1177SOL    HW2 4431   0.534   0.565   5.440  0.3417  0.5343 -0.6018
 1178SOL     OW 4432   6.298   5.966   6.603  0.4939 -0.3455 -0.2263
 1178SOL    HW1 4433   6.346   5.921   6.679  0.2835 -0.1099  0.0497
 1178SOL    HW2 4434   6.319   6.064   6.603  2.3341 -0.6861 -1.8732
 1179SOL     OW 4435   0.737   4.500   0.312 -0.5138  0.4303 -0.4600
 1179SOL    HW1 4436   0.774   4.511   0.404  1.2614  0.0441 -1.0963
 1179SOL    HW2 4437   0.667   4.428   0.313  0.9163 -1.0284  0.2321
 1180SOL     OW 4438   3.386   5.467   1.848  0.1076  0.3469 -0.4788
 1180SOL    HW1 4439   3.444   5.549   1.852 -0.2548  0.5917  3.3550
 1180SOL    HW2 4440   3.426   5.395   1.905 -1.9750 -0.4303  0.0793
 1181SOL     OW 4441   6.832   0.436   1.048 -0.4910  0.3676 -0.1066
 1181SOL    HW1 4442   6.832   0.342   1.015 -0.9451  0.4659 -0.3868
 1181SOL    HW2 4443   6.924   0.461   1.077  0.0307  0.4420 -1.7501
 1182SOL     OW 4444   5.435   4.552   4.748  0.3780  0.2712  0.8794
 1182SOL    HW1 4445   5.401   4.459   4.736 -0.3947  0.6444  0.1682
 1182SOL    HW2 4446   5.534   4.554   4.731  0.1373 -0.1318 -0.6275
 1183SOL     OW 4447   0.252   2.533   5.910 -0.6613  0.1339 -0.4212
 1183SOL    HW1 4448   0.163   2.494   5.887 -1.0667  1.3682 -1.0216
 1183SOL    HW2 4449   0.298   2.563   5.826 -0.6971  1.6177  0.0651
 1184SOL     OW 4450   1.918   2.287   6.452  0.1898 -0.2845 -0.3587
 1184SOL    HW1 4451   1.935   2.384   6.469  1.8193 -0.4344 -0.9184
 1184SOL    HW2 4452   1.973   2.232   6.515 -2.2721 -0.9122  1.3730
 1185SOL     OW 4453   0.825   1.470   6.004 -0.0537 -0.5978  0.0777
 1185SOL    HW1 4454   0.902   1.447   5.945 -0.8114 -1.9223 -0.4472
 1185SOL    HW2 4455   0.856   1.474   6.099  1.3680  2.4367 -0.3979
 1186SOL     OW 4456   5.125   6.523   4.141  0.3741 -0.4469  0.0848
 1186SOL    HW1 4457   5.212   6.522   4.192  1.8427 -2.3487 -2.2358
 1186SOL    HW2 4458   5.131   6.589   4.067  0.2180 -1.2671 -0.6670
 1187SOL     OW 4459   0.878   1.566   0.156 -0.0345  0.4192  0.0701
 1187SOL    HW1 4460   0.908   1.471   0.164 -0.7006  0.1768 -0.2221
 1187SOL    HW2 4461   0.939   1.615   0.093  1.7131  0.8169  1.9856
 1188SOL     OW 4462   4.635   1.255   5.444  0.2376  0.2415  0.8103
 1188SOL    HW1 4463   4.573   1.330   5.420 -0.0342 -0.0590  0.5605
 1188SOL    HW2 4464   4.599   1.169   5.407  0.2084 -0.1185  1.6493
 1189SOL     OW 4465   6.267   2.093   3.770 -0.4780  0.1115  0.3719
 1189SOL    HW1 4466   6.170   2.066   3.771  0.0603 -2.0130  1.6052
 1189SOL    HW2 4467   6.318   2.032   3.710  0.3067  0.3660  0.7672
 1190SOL     OW 4468   2.298   0.894   5.062 -0.3236 -0.7477  0.3326
 1190SOL    HW1 4469   2.364   0.820   5.048  0.8056  0.2030  0.4326
 1190SOL    HW2 4470   2.215   0.876   5.010 -0.3809 -2.4483  0.9496
 1191SOL     OW 4471   3.123   0.579   2.699 -0.3999 -0.0747 -0.0382
 1191SOL    HW1 4472   3.166   0.548   2.614  1.6392 -0.2203  0.9884
 1191SOL    HW2 4473   3.111   0.679   2.696  0.9067  0.0997  0.0071
 1192SOL     OW 4474   6.200   5.218   3.652  0.4502 -0.2656  0.0446
 1192SOL    HW1 4475   6.248   5.285   3.595  0.8623 -2.1392 -1.9682
 1192SOL    HW2 4476   6.263   5.180   3.719  0.2926  1.0840  1.0009
 1193SOL     OW 4477   6.810   6.180   5.259 -0.0419  0.0134  0.3219
 1193SOL    HW1 4478   6.748   6.257   5.245 -1.3265 -0.8196  1.1205
 1193SOL    HW2 4479   6.871   6.199   5.336 -1.2730 -0.2573  1.4096
 1194SOL     OW 4480   3.124   6.320   2.417  0.0105  0.1415  0.1624
 1194SOL    HW1 4481   3.215   6.361   2.410  0.5751 -1.0907  0.0966
 1194SOL    HW2 4482   3.118   6.266   2.500 -0.5660 -0.0263  0.0158
 1195SOL     OW 4483   4.516   4.794   2.753  0.1699  0.2356 -0.5648
 1195SOL    HW1 4484   4.512   4.883   2.798  1.7547  0.2722 -0.4404
 1195SOL    HW2 4485   4.436   4.740   2.779  0.2959  0.8064  1.1432
 1196SOL     OW 4486   6.702   4.830   5.883  0.1271  0.0977 -0.0425
 1196SOL    HW1 4487   6.656   4.914   5.911 -0.8254  0.0172 -1.2926
 1196SOL    HW2 4488   6.780   4.814   5.943 -0.5354  1.0807  1.1442
 1197SOL     OW 4489   3.033   6.612   5.123 -0.5047 -0.4387 -0.1485
 1197SOL    HW1 4490   3.078   6.615   5.033 -0.4393 -0.1946 -0.1085
 1197SOL    HW2 4491   3.065   6.531   5.173  1.0267  0.4995  0.4633
 1198SOL     OW 4492   1.771   3.083   0.269 -0.1174 -0.1743  0.1358
 1198SOL    HW1 4493   1.728   3.061   0.182  1.7994  0.2564 -0.9667
 1198SOL    HW2 4494   1.700   3.107   0.336 -1.6244 -0.5083 -1.2818
 1199SOL     OW 4495   0.083   5.027   4.708  0.3583  0.0862 -0.1648
 1199SOL    HW1 4496   0.118   5.070   4.791 -1.4660  1.4459 -0.0593
 1199SOL    HW2 4497   0.044   5.097   4.648  0.6935 -1.0000 -1.7100
 1200SOL     OW 4498   2.954   3.686   2.032 -0.3210 -0.3859 -0.0225
 1200SOL    HW1 4499   2.994   3.597   2.009 -1.4548 -0.6707 -1.0285
 1200SOL    HW2 4500   2.911   3.681   2.122  0.8031 -0.4371  0.5226
 1201SOL     OW 4501   0.537   1.758   5.339  0.0207  0.1502  0.1060
 1201SOL    HW1 4502   0.610   1.784   5.275 -0.4051 -0.5425 -0.6752
 1201SOL    HW2 4503   0.529   1.658   5.341  0.2134  0.1490  1.4638
 1202SOL     OW 4504   0.443   6.811   6.416  0.1759 -0.4549 -0.5560
 1202SOL    HW1 4505   0.401   6.889   6.371 -2.7557 -1.3405  0.4164
 1202SOL    HW2 4506   0.522   6.841   6.469 -1.0912  1.9332  0.1068
 1203SOL     OW 4507   3.933   5.492   5.149  0.4424  0.5491  0.2412
 1203SOL    HW1 4508   3.839   5.506   5.180  0.3749  4.6491 -1.1707
 1203SOL    HW2 4509   3.933   5.429   5.071 -1.0767  0.2398  0.4605
 1204SOL     OW 4510   0.355   3.535   2.127 -0.0999 -0.4256 -0.2076
 1204SOL    HW1 4511   0.260   3.509   2.108 -0.2381 -0.8236  0.9389
 1204SOL    HW2 4512   0.356   3.626   2.168  0.1666  0.2854 -1.7205
 1205SOL     OW 4513   6.326   1.611   2.310  0.2968 -0.4229  0.7285
 1205SOL    HW1 4514   6.377   1.595   2.394  1.5338 -1.7529 -0.2315
 1205SOL    HW2 4515   6.385   1.594   2.231 -1.3005 -0.8847 -0.4192
 1206SOL     OW 4516   4.036   3.167   3.596 -0.1949  0.9103 -0.8413
 1206SOL    HW1 4517   3.949   3.118   3.607  0.1027  0.3549 -0.9205
 1206SOL    HW2 4518   4.045   3.198   3.502  0.1304  0.1034 -1.0887
 1207SOL     OW 4519   0.807   6.170   3.016 -0.2980 -0.0228  0.3377
 1207SOL    HW1 4520   0.900   6.149   3.045 -0.0208 -0.1763 -0.6296
 1207SOL    HW2 4521   0.757   6.212   3.092  0.2072 -0.9714  1.2151
 1208SOL     OW 4522   3.272   3.231   0.090  0.3619 -0.1241  0.3522
 1208SOL    HW1 4523   3.288   3.133   0.100 -0.6178 -0.2126  1.1355
 1208SOL    HW2 4524   3.208   3.262   0.160 -0.0933  0.8924 -0.4899
 1209SOL     OW 4525   4.851   0.039   6.612 -0.0457 -0.2021  0.2269
 1209SOL    HW1 4526   4.942   0.072   6.636 -0.4625  0.1076  1.4237
 1209SOL    HW2 4527   4.787   0.115   6.607 -0.1105 -0.3222 -1.3504
 1210SOL     OW 4528   3.450   1.799   3.352  0.0040  0.3335 -0.1643
 1210SOL    HW1 4529   3.414   1.869   3.413 -2.5636 -1.5697  0.6848
 1210SOL    HW2 4530   3.454   1.835   3.259  1.2472  2.3632  0.6072
 1211SOL     OW 4531   1.129   2.299   1.366  0.5443  0.1641 -0.2034
 1211SOL    HW1 4532   1.079   2.231   1.421 -2.5755  1.5189 -1.1483
 1211SOL    HW2 4533   1.214   2.259   1.334  0.7385 -1.9119  2.5257
 1212SOL     OW 4534   0.762   0.035   0.428  0.4114 -0.3492 -0.1680
 1212SOL    HW1 4535   0.826   0.069   0.359  0.4808  0.2878  0.2011
 1212SOL    HW2 4536   0.767  -0.065   0.432  1.0550 -0.3355 -0.4528
 1213SOL     OW 4537   6.431   2.222   0.842 -0.5880  0.4479  0.3549
 1213SOL    HW1 4538   6.421   2.122   0.837 -1.9971  0.5357  1.0421
 1213SOL    HW2 4539   6.508   2.244   0.903 -0.9080 -0.2103  1.0113
 1214SOL     OW 4540   6.969   4.298   2.915 -0.7561  0.7259 -0.0787
 1214SOL    HW1 4541   6.934   4.234   2.984 -1.2130  0.7500 -0.2862
 1214SOL    HW2 4542   7.034   4.250   2.855 -1.4583  0.3314 -0.5305
 1215SOL     OW 4543   1.793   5.529   3.917  0.0379  0.2214 -0.2522
 1215SOL    HW1 4544   1.781   5.534   4.016 -0.0207 -0.4125 -0.2244
 1215SOL    HW2 4545   1.884   5.493   3.896  0.1573  0.6187 -0.4350
 1216SOL     OW 4546   4.954   0.781   0.919 -0.2962 -0.0583 -0.1457
 1216SOL    HW1 4547   4.985   0.774   0.825 -1.4133  0.9041 -0.6048
 1216SOL    HW2 4548   5.026   0.748   0.981  1.8441  2.4724 -1.1152
 1217SOL     OW 4549   2.244   5.492   2.343  0.1345 -0.3675 -0.5910
 1217SOL    HW1 4550   2.301   5.472   2.263  1.3921 -1.8505  0.6116
 1217SOL    HW2 4551   2.258   5.587   2.371  1.1716 -0.3976 -0.9787
 1218SOL     OW 4552   3.273   4.915   4.350  0.1700  0.1625 -0.5978
 1218SOL    HW1 4553   3.355   4.931   4.296  0.6186  0.7495  0.2233
 1218SOL    HW2 4554   3.295   4.861   4.431 -0.7609 -1.9610 -1.6960
 1219SOL     OW 4555   0.939   6.350   0.865  0.4018 -0.0362  0.4018
 1219SOL    HW1 4556   0.968   6.329   0.772 -0.0639 -1.8817  0.6430
 1219SOL    HW2 4557   1.015   6.335   0.928  0.6932  1.1355  0.3584
 1220SOL     OW 4558   0.935   5.697   2.199  0.0716  0.0723 -0.7803
 1220SOL    HW1 4559   0.986   5.772   2.240  0.4487 -0.7720  0.3359
 1220SOL    HW2 4560   0.951   5.697   2.100 -1.0668  2.2949 -1.0233
 1221SOL     OW 4561   3.176   3.777   6.733 -0.0749 -0.3372  0.0988
 1221SOL    HW1 4562   3.126   3.816   6.656  1.6458  0.3217 -0.7553
 1221SOL    HW2 4563   3.199   3.682   6.713  0.5863 -0.0934 -0.3331
 1222SOL     OW 4564   0.790   0.358   0.451 -0.1668  0.0057  0.1340
 1222SOL    HW1 4565   0.847   0.440   0.440 -2.9221  1.9712 -0.2846
 1222SOL    HW2 4566   0.740   0.364   0.537 -0.6663 -1.1106 -0.0606
 1223SOL     OW 4567   2.623   4.027   1.301 -0.6208 -0.1258  0.2395
 1223SOL    HW1 4568   2.647   4.071   1.387  1.3260  0.4570 -0.5423
 1223SOL    HW2 4569   2.665   3.936   1.297 -0.5023 -0.0552 -0.1821
 1224SOL     OW 4570   2.574   0.849   0.592 -0.1459  0.1912 -0.2797
 1224SOL    HW1 4571   2.669   0.848   0.560  0.7006 -0.2817  2.0587
 1224SOL    HW2 4572   2.518   0.903   0.528  1.6082  0.2542 -1.8590
 1225SOL     OW 4573   2.237   3.445   6.670 -0.2042 -0.7040 -0.1589
 1225SOL    HW1 4574   2.289   3.495   6.739 -0.9163  1.7191 -1.2691
 1225SOL    HW2 4575   2.230   3.349   6.697 -0.0116  0.0169  2.8526
 1226SOL     OW 4576   3.194   6.180   1.951 -1.0344 -0.1028 -0.3419
 1226SOL    HW1 4577   3.157   6.243   2.020  0.2289 -0.7012  0.9251
 1226SOL    HW2 4578   3.290   6.161   1.971 -0.8560 -0.9264 -1.8366
 1227SOL     OW 4579   1.590   3.443   6.682 -0.3325  0.0940 -0.0243
 1227SOL    HW1 4580   1.510   3.415   6.629 -2.3384 -0.2830  2.9795
 1227SOL    HW2 4581   1.629   3.363   6.728 -0.0125  0.7185  0.8192
 1228SOL     OW 4582   2.535   2.379   1.985  0.2133 -0.2167  0.2938
 1228SOL    HW1 4583   2.500   2.301   1.934 -1.4955  1.1671 -0.7714
 1228SOL    HW2 4584   2.596   2.433   1.927  0.3449 -0.0440  0.5875
 1229SOL     OW 4585   1.642   3.601   5.267 -0.8570  0.3188 -0.4927
 1229SOL    HW1 4586   1.728   3.647   5.289 -0.2234 -0.0849 -1.9921
 1229SOL    HW2 4587   1.611   3.631   5.176 -0.6616 -1.8517 -1.3220
 1230SOL     OW 4588   6.238   6.056   3.496  0.4121  0.0254  0.1590
 1230SOL    HW1 4589   6.332   6.089   3.483 -0.1586  0.9339 -2.3827
 1230SOL    HW2 4590   6.178   6.133   3.516 -0.0481 -0.2939  0.0326
 1231SOL     OW 4591   0.870   3.164   3.086  0.2997  0.6716  0.0965
 1231SOL    HW1 4592   0.948   3.147   3.146  0.2817  1.5436  0.3748
 1231SOL    HW2 4593   0.902   3.178   2.993  0.2344 -2.0410 -0.4103
 1232SOL     OW 4594   0.857   2.641   1.862 -0.3386 -0.0766 -0.7698
 1232SOL    HW1 4595   0.800   2.708   1.909  0.6698  0.5178 -0.3569
 1232SOL    HW2 4596   0.855   2.554   1.912  2.1470  1.0367  1.5762
 1233SOL     OW 4597   0.761   1.678   5.645 -0.6901  0.1576  0.2713
 1233SOL    HW1 4598   0.797   1.589   5.615  0.5703  0.6996  0.1318
 1233SOL    HW2 4599   0.704   1.665   5.726 -0.0727 -0.7166  0.5808
 1234SOL     OW 4600   6.278   4.774   2.590 -0.4472 -0.3062 -0.2291
 1234SOL    HW1 4601   6.236   4.775   2.499  0.7994 -0.2720 -0.8380
 1234SOL    HW2 4602   6.370   4.812   2.584 -0.3900 -0.1899  1.0888
 1235SOL     OW 4603   0.508   5.782   5.018 -0.1489 -0.2123  0.4917
 1235SOL    HW1 4604   0.534   5.807   5.111 -1.8999 -0.5264  1.1068
 1235SOL    HW2 4605   0.408   5.779   5.011 -0.0445 -0.9806 -1.1893
 1236SOL     OW 4606   6.461   1.346   0.032 -0.0123 -0.4443  0.4126
 1236SOL    HW1 4607   6.537   1.353   0.096  0.3069 -0.0990  0.0025
 1236SOL    HW2 4608   6.492   1.373  -0.059 -0.3946 -1.1553  0.0601
 1237SOL     OW 4609   2.694   3.863   6.573 -0.7526  0.4188  0.5896
 1237SOL    HW1 4610   2.607   3.836   6.615 -1.2531  1.2472  0.1142
 1237SOL    HW2 4611   2.769   3.815   6.618 -1.4305 -0.0725  1.2197
 1238SOL     OW 4612   3.314   3.597   1.915 -0.3893  0.7170 -0.3984
 1238SOL    HW1 4613   3.302   3.640   2.005  0.4271  0.2466 -0.0519
 1238SOL    HW2 4614   3.248   3.524   1.904  0.9578 -0.7589  0.7947
 1239SOL     OW 4615   1.036   0.979   2.694  0.2235 -0.0185 -0.1466
 1239SOL    HW1 4616   1.107   1.043   2.665  2.0821 -1.9812 -0.1794
 1239SOL    HW2 4617   0.992   1.014   2.778  0.2870  1.8462 -0.8368
 1240SOL     OW 4618   5.613   4.706   1.625 -0.4904  0.7611 -0.8977
 1240SOL    HW1 4619   5.679   4.646   1.671  0.2389  0.2606 -2.5117
 1240SOL    HW2 4620   5.526   4.658   1.614  0.3132 -0.3504 -2.8386
 1241SOL     OW 4621   0.994   2.704   3.920 -0.0094  0.2853 -0.0076
 1241SOL    HW1 4622   0.924   2.633   3.926  1.5371 -1.3326 -0.0652
 1241SOL    HW2 4623   0.983   2.768   3.996 -0.9279 -0.5227  0.5758
 1242SOL     OW 4624   0.191   2.835   1.520  0.1180 -0.6175 -0.0289
 1242SOL    HW1 4625   0.229   2.862   1.609  1.1228 -0.4119 -0.5040
 1242SOL    HW2 4626   0.096   2.807   1.531  0.3080 -0.8348  1.1520
 1243SOL     OW 4627   3.277   5.286   5.861  0.8362 -0.0072  0.4270
 1243SOL    HW1 4628   3.188   5.328   5.877 -0.1460 -2.4566  1.9751
 1243SOL    HW2 4629   3.347   5.338   5.909 -0.3691 -0.2227  2.5529
 1244SOL     OW 4630   1.673   2.594   2.394  0.6247  0.1189 -0.2988
 1244SOL    HW1 4631   1.574   2.594   2.406  0.5063  1.4044 -1.0432
 1244SOL    HW2 4632   1.698   2.534   2.318 -0.1966  3.6447 -3.7201
 1245SOL     OW 4633   3.553   3.173   4.661 -0.0647  0.7502  0.2964
 1245SOL    HW1 4634   3.634   3.170   4.720  0.4139  1.0833 -0.3413
 1245SOL    HW2 4635   3.497   3.092   4.678 -0.2041  1.0857  1.5876
 1246SOL     OW 4636   6.921   0.376   2.369 -0.0270 -0.6589  0.0132
 1246SOL    HW1 4637   6.881   0.468   2.358  0.5623 -0.1487  1.7985
 1246SOL    HW2 4638   6.866   0.310   2.319 -1.1537  0.5096 -0.3482
 1247SOL     OW 4639   5.779   4.716   2.371 -0.5487  0.4752  0.0827
 1247SOL    HW1 4640   5.686   4.680   2.383 -1.0373  1.7482  0.3638
 1247SOL    HW2 4641   5.799   4.781   2.445  0.7410 -0.1024  0.2641
 1248SOL     OW 4642   3.048   0.362   2.306  0.1034  0.1165  0.2211
 1248SOL    HW1 4643   3.111   0.344   2.230  0.6040 -0.5103  0.7688
 1248SOL    HW2 4644   2.970   0.415   2.273  1.2327  1.4876 -0.3420
 1249SOL     OW 4645   0.715   2.288   3.234  0.3954  0.3618 -0.3104
 1249SOL    HW1 4646   0.772   2.221   3.186 -0.4532 -0.9514  0.4537
 1249SOL    HW2 4647   0.665   2.342   3.167 -1.2609 -1.8601 -0.9883
 1250SOL     OW 4648   5.125   5.433   5.267 -0.6135  0.0858 -0.5610
 1250SOL    HW1 4649   5.214   5.444   5.222  0.6446  0.6747  1.8971
 1250SOL    HW2 4650   5.118   5.340   5.305  0.0077  0.7281  1.2355
 1251SOL     OW 4651   3.501   0.087   6.441 -0.1443  0.1736 -0.0962
 1251SOL    HW1 4652   3.593   0.048   6.434 -0.5565 -0.7573 -0.4863
 1251SOL    HW2 4653   3.448   0.038   6.509 -0.2279  0.9876  0.4393
 1252SOL     OW 4654   1.362   4.470   0.412  0.3471 -0.1680 -0.1162
 1252SOL    HW1 4655   1.282   4.498   0.359  0.3377  1.6620  0.7595
 1252SOL    HW2 4656   1.392   4.379   0.383 -0.8261 -0.0494 -1.8461
 1253SOL     OW 4657   5.161   3.847   3.663  0.5491  0.2992  0.4636
 1253SOL    HW1 4658   5.068   3.844   3.698 -0.3484  2.2934 -1.4276
 1253SOL    HW2 4659   5.174   3.775   3.595 -1.4011  2.7636 -2.8475
 1254SOL     OW 4660   4.500   1.012   4.316  0.1403  0.3558 -0.1406
 1254SOL    HW1 4661   4.512   0.967   4.404 -1.1745 -0.1454 -0.2004
 1254SOL    HW2 4662   4.546   0.958   4.245  1.8007  1.1237  0.3009
 1255SOL     OW 4663   5.710   5.779   0.036 -1.0759  0.2366  0.0920
 1255SOL    HW1 4664   5.734   5.874   0.058  0.3691 -0.3904  1.4457
 1255SOL    HW2 4665   5.684   5.731   0.119  1.0132 -1.2723 -0.0333
 1256SOL     OW 4666   6.659   2.876   2.223 -0.4222 -0.5435  0.3890
 1256SOL    HW1 4667   6.633   2.782   2.246 -0.4629 -1.1182 -1.7836
 1256SOL    HW2 4668   6.652   2.889   2.124  1.5668  1.1514  0.4116
 1257SOL     OW 4669   6.172   2.799   5.387  0.4509  0.1732 -0.2371
 1257SOL    HW1 4670   6.203   2.844   5.303  0.3585 -1.8741 -1.4477
 1257SOL    HW2 4671   6.096   2.738   5.366 -0.4766  0.6098  1.6189
 1258SOL     OW 4672   1.021   6.963   2.968 -0.8983 -0.2333 -0.6111
 1258SOL    HW1 4673   1.103   6.930   2.920 -0.3281  0.7981 -0.3788
 1258SOL    HW2 4674   0.967   7.019   2.906  0.8639  2.8104  0.3766
 1259SOL     OW 4675   5.356   3.468   5.966 -0.1393 -0.4200 -0.5470
 1259SOL    HW1 4676   5.256   3.462   5.973 -0.4445  1.5396 -2.1404
 1259SOL    HW2 4677   5.389   3.401   5.900 -0.6130 -0.0250 -1.1947
 1260SOL     OW 4678   1.629   0.988   4.782 -0.4411  0.2622  0.4608
 1260SOL    HW1 4679   1.551   1.040   4.817 -0.7723 -0.5139  0.9014
 1260SOL    HW2 4680   1.704   0.991   4.849 -0.3365  0.4530  0.3354
 1261SOL     OW 4681   5.669   2.210   0.720  0.1583 -0.2357 -0.2003
 1261SOL    HW1 4682   5.718   2.290   0.756 -0.6634  0.4999 -0.6822
 1261SOL    HW2 4683   5.577   2.208   0.758 -0.9060  0.8258 -2.5411
 1262SOL     OW 4684   0.156   5.140   1.607 -0.2609  0.1203 -0.0038
 1262SOL    HW1 4685   0.076   5.115   1.662  0.2782 -2.5610 -0.2827
 1262SOL    HW2 4686   0.160   5.239   1.596 -2.7274  0.4249  1.2159
 1263SOL     OW 4687   0.522   3.099   4.744  0.1526 -0.4001  0.1166
 1263SOL    HW1 4688   0.533   3.175   4.808  0.5211  0.1463 -0.5839
 1263SOL    HW2 4689   0.497   3.016   4.794  2.6421 -0.5513  1.2516
 1264SOL     OW 4690   1.848   3.686   4.413  0.4990 -0.4283 -0.0069
 1264SOL    HW1 4691   1.816   3.775   4.447  0.9031 -0.8302  1.5040
 1264SOL    HW2 4692   1.788   3.614   4.446 -0.3302 -0.6784 -1.9360
 1265SOL     OW 4693   6.753   2.347   6.004  0.2612 -0.6805 -0.2734
 1265SOL    HW1 4694   6.696   2.309   5.930  0.8268 -1.7812 -0.1719
 1265SOL    HW2 4695   6.780   2.273   6.066  0.9566 -0.0019  0.2503
 1266SOL     OW 4696   2.117   2.273   0.377 -0.1037  0.2941 -0.1723
 1266SOL    HW1 4697   2.035   2.256   0.323 -0.6128  0.6749  0.4816
 1266SOL    HW2 4698   2.175   2.339   0.329  1.2818 -2.1551 -2.1145
 1267SOL     OW 4699   2.361   0.170   1.348  0.5218  0.1523  0.3690
 1267SOL    HW1 4700   2.332   0.075   1.338  1.7770 -0.3353  1.1274
 1267SOL    HW2 4701   2.370   0.193   1.445  1.6746  0.5745  0.1832
 1268SOL     OW 4702   3.756   2.552   5.669 -0.0423 -0.1966  0.1953
 1268SOL    HW1 4703   3.776   2.495   5.748 -1.7045 -0.3256  0.5570
 1268SOL    HW2 4704   3.784   2.505   5.585 -1.0612 -1.3897  0.5154
 1269SOL     OW 4705   5.776   3.551   2.745  0.3548  0.2021  0.2438
 1269SOL    HW1 4706   5.703   3.505   2.695  0.3880 -0.9601  1.2145
 1269SOL    HW2 4707   5.860   3.497   2.739  0.1229 -0.4731  2.2793
 1270SOL     OW 4708   5.492   5.307   5.411  0.2430 -0.3003  0.3601
 1270SOL    HW1 4709   5.577   5.256   5.420 -0.9082 -1.9877  2.9862
 1270SOL    HW2 4710   5.439   5.270   5.334  0.6816 -1.1680  0.4636
 1271SOL     OW 4711   0.382   0.051   2.738  0.7400 -0.8040 -0.8192
 1271SOL    HW1 4712   0.319   0.041   2.815  1.1637  2.2028  0.0541
 1271SOL    HW2 4713   0.348  -0.003   2.661 -1.8482 -0.8510  0.2310
 1272SOL     OW 4714   5.392   2.247   0.424 -0.1180  0.2680  0.0477
 1272SOL    HW1 4715   5.476   2.296   0.448 -0.7891  1.3461  0.2682
 1272SOL    HW2 4716   5.376   2.174   0.491  0.1846  0.6246  0.5127
 1273SOL     OW 4717   2.205   3.827   4.670  0.5387 -0.1315  0.6320
 1273SOL    HW1 4718   2.203   3.787   4.762  1.5127 -3.0048 -0.5023
 1273SOL    HW2 4719   2.192   3.756   4.602  0.7182  1.7908 -1.5433
 1274SOL     OW 4720   0.001   4.235   3.582 -0.1360  0.3041  0.0731
 1274SOL    HW1 4721   0.023   4.171   3.655 -0.2363 -1.5167 -1.4196
 1274SOL    HW2 4722   0.044   4.204   3.497 -0.6206  1.9590 -0.8125
 1275SOL     OW 4723   0.911   1.392   3.030 -0.5926 -0.3140 -0.0598
 1275SOL    HW1 4724   0.894   1.483   3.069 -0.0151  0.2457 -1.0783
 1275SOL    HW2 4725   0.893   1.394   2.932  1.4102 -0.7376 -0.4831
 1276SOL     OW 4726   5.545   4.392   3.625  0.2006  0.0618  0.2014
 1276SOL    HW1 4727   5.546   4.364   3.529  1.2252 -0.3217  0.3059
 1276SOL    HW2 4728   5.502   4.482   3.634  0.7606  0.4292 -0.7121
 1277SOL     OW 4729   6.818   6.777   4.727 -0.0934 -0.1974  0.2070
 1277SOL    HW1 4730   6.839   6.840   4.802 -1.2676 -0.2638  0.6186
 1277SOL    HW2 4731   6.896   6.771   4.665  0.3524  0.9972  0.6268
 1278SOL     OW 4732   6.271   6.041   0.600  0.4994  0.1682 -0.5207
 1278SOL    HW1 4733   6.201   5.986   0.554 -1.9277  1.2482  1.6101
 1278SOL    HW2 4734   6.334   5.980   0.648 -0.1841 -0.8212 -0.8328
 1279SOL     OW 4735   1.008   3.419   0.566  0.2556 -0.3828  0.5231
 1279SOL    HW1 4736   1.058   3.488   0.513  1.5401 -1.5780  0.1344
 1279SOL    HW2 4737   0.926   3.392   0.516  0.4727 -0.1440  0.0288
 1280SOL     OW 4738   2.813   2.274   3.400 -0.1352 -0.2137  0.1999
 1280SOL    HW1 4739   2.751   2.341   3.440  0.8333  0.4064  0.6867
 1280SOL    HW2 4740   2.773   2.238   3.316 -0.8080  0.7554  0.0894
 1281SOL     OW 4741   5.919   5.372   5.182 -0.2999  0.1775 -0.1925
 1281SOL    HW1 4742   5.839   5.351   5.125 -0.7945 -3.1230  1.4347
 1281SOL    HW2 4743   5.945   5.468   5.170 -3.7330  1.0758 -1.6998
 1282SOL     OW 4744   6.325   4.501   1.888  0.2251 -0.2758 -1.0261
 1282SOL    HW1 4745   6.303   4.545   1.801  0.2088 -1.8002 -1.8314
 1282SOL    HW2 4746   6.404   4.546   1.930 -1.1230  1.9079 -0.6853
 1283SOL     OW 4747   2.462   4.393   3.735  0.2280 -0.1271 -0.0911
 1283SOL    HW1 4748   2.481   4.435   3.824  1.3909  0.7494 -0.7187
 1283SOL    HW2 4749   2.404   4.313   3.747 -1.1737  1.0166  1.2807
 1284SOL     OW 4750   2.819   1.716   1.095 -0.3226 -0.2825  0.3511
 1284SOL    HW1 4751   2.807   1.652   1.170  2.0137  0.6807  1.6578
 1284SOL    HW2 4752   2.908   1.761   1.104 -0.3573  0.5555 -2.4933
 1285SOL     OW 4753   5.171   1.189   5.252  0.1728 -0.3170 -0.5982
 1285SOL    HW1 4754   5.100   1.223   5.314  0.1002  0.1204 -0.9154
 1285SOL    HW2 4755   5.135   1.115   5.196  0.4523 -1.2269  0.3948
 1286SOL     OW 4756   5.722   1.360   1.865 -0.0681  0.4504  0.3436
 1286SOL    HW1 4757   5.760   1.307   1.789 -0.1687 -0.3437  0.8383
 1286SOL    HW2 4758   5.732   1.308   1.950 -0.2777  1.1787  0.8205
 1287SOL     OW 4759   4.900   3.221   4.378  0.1011 -0.1939 -0.2898
 1287SOL    HW1 4760   4.877   3.232   4.475  0.3605  0.9517 -0.3343
 1287SOL    HW2 4761   4.951   3.302   4.347  0.9954 -1.0392 -1.1053
 1288SOL     OW 4762   2.970   3.021   6.422  0.5672 -0.2917  0.1609
 1288SOL    HW1 4763   2.876   3.027   6.389  0.4362 -3.2899 -0.3469
 1288SOL    HW2 4764   3.031   2.997   6.346  1.1974 -1.4750  0.9925
 1289SOL     OW 4765   2.122   5.752   2.102  0.1835  0.1174 -0.0770
 1289SOL    HW1 4766   2.107   5.820   2.173 -0.2546 -0.3220  0.2541
 1289SOL    HW2 4767   2.039   5.697   2.089  0.8767 -1.0938  0.4530
 1290SOL     OW 4768   1.211   5.409   6.010 -0.6602  0.5537  0.4900
 1290SOL    HW1 4769   1.134   5.451   6.059  0.2055  2.5748  0.1997
 1290SOL    HW2 4770   1.286   5.391   6.074 -0.7919 -0.0263  0.4938
 1291SOL     OW 4771   4.177   6.300   4.340 -0.3070 -0.8670  0.3648
 1291SOL    HW1 4772   4.164   6.253   4.253 -0.4624 -1.6997  0.8268
 1291SOL    HW2 4773   4.265   6.273   4.380 -0.2381 -0.4924  0.4761
 1292SOL     OW 4774   0.150   6.689   3.263 -0.6453 -0.4877 -0.1342
 1292SOL    HW1 4775   0.238   6.673   3.309 -0.9138 -0.0797  0.5284
 1292SOL    HW2 4776   0.089   6.611   3.281 -0.9286 -0.0963  0.6421
 1293SOL     OW 4777   6.192   1.893   0.812  0.5089  0.1025 -0.0598
 1293SOL    HW1 4778   6.187   1.810   0.867  1.3661 -0.3394 -0.6309
 1293SOL    HW2 4779   6.135   1.883   0.731 -0.7221  0.7379  0.7037
 1294SOL     OW 4780   1.359   4.770   5.916  0.2652  0.0434 -0.2690
 1294SOL    HW1 4781   1.318   4.814   5.836 -0.9974 -0.8942 -0.1605
 1294SOL    HW2 4782   1.457   4.792   5.919  0.6932 -1.0988 -2.9140
 1295SOL     OW 4783   0.388   6.134   6.704 -0.0550  0.0030  0.2047
 1295SOL    HW1 4784   0.294   6.150   6.676 -0.2420 -0.4100  0.5740
 1295SOL    HW2 4785   0.450   6.184   6.644 -0.3920 -1.3563 -1.3707
 1296SOL     OW 4786   1.012   0.836   5.413  0.1130  0.0031 -0.4085
 1296SOL    HW1 4787   0.976   0.913   5.360  0.9102 -0.0392 -1.0321
 1296SOL    HW2 4788   1.111   0.831   5.401 -0.1247 -2.3939 -2.1077
 1297SOL     OW 4789   5.331   5.476   6.245  0.4736  0.2565 -0.1535
 1297SOL    HW1 4790   5.231   5.488   6.249  0.3144 -1.2703  1.9718
 1297SOL    HW2 4791   5.375   5.566   6.246 -0.8549  0.9391 -0.4392
 1298SOL     OW 4792   5.269   0.556   1.669  0.2685  0.2225 -0.5384
 1298SOL    HW1 4793   5.281   0.528   1.764 -1.0593 -1.8098 -0.8823
 1298SOL    HW2 4794   5.351   0.604   1.637  1.1678  0.0042  1.3020
 1299SOL     OW 4795   1.459   4.654   4.912 -0.1624  0.4212  0.3667
 1299SOL    HW1 4796   1.377   4.596   4.908 -0.1983  0.4925  0.0529
 1299SOL    HW2 4797   1.490   4.661   5.007 -0.2180 -0.0291  0.4186
 1300SOL     OW 4798   1.446   5.986   6.216 -0.2350  0.6440  0.5111
 1300SOL    HW1 4799   1.423   6.042   6.295 -0.2396  2.0842 -0.4805
 1300SOL    HW2 4800   1.538   5.949   6.227 -0.1972  0.9157  1.1480
 1301SOL     OW 4801   0.325   2.794   5.748  0.0655 -0.0799  0.2554
 1301SOL    HW1 4802   0.252   2.736   5.713  0.6672  0.5378 -2.2261
 1301SOL    HW2 4803   0.408   2.779   5.694  0.5929  2.1430  0.3320
 1302SOL     OW 4804   6.864   1.778   5.012  0.3622 -0.8593  0.2811
 1302SOL    HW1 4805   6.923   1.845   5.058 -0.2728 -0.1796  0.1288
 1302SOL    HW2 4806   6.768   1.798   5.034  0.0091 -0.3186 -1.5616
 1303SOL     OW 4807   3.425   0.611   0.846 -0.1323 -0.7407 -0.0763
 1303SOL    HW1 4808   3.502   0.662   0.807  0.8229 -1.6769  0.5293
 1303SOL    HW2 4809   3.391   0.545   0.779 -1.2498  0.5153 -0.7950
 1304SOL     OW 4810   6.198   2.522   6.967 -0.2171  0.2780 -0.1936
 1304SOL    HW1 4811   6.133   2.589   7.002 -1.2704 -1.7103  1.9683
 1304SOL    HW2 4812   6.156   2.470   6.893 -0.3673  0.2506 -0.0886
 1305SOL     OW 4813   3.067   4.163   6.847  0.0046  0.6121  0.2018
 1305SOL    HW1 4814   3.046   4.212   6.762 -1.2455 -1.4811 -0.7766
 1305SOL    HW2 4815   3.142   4.099   6.830  3.4231  3.7502  2.1159
 1306SOL     OW 4816   1.407   6.708   4.374  0.0447  0.0564 -0.2491
 1306SOL    HW1 4817   1.356   6.709   4.288 -0.8487 -1.5300  0.2086
 1306SOL    HW2 4818   1.382   6.788   4.429 -0.4992  0.3034 -0.8495
 1307SOL     OW 4819   2.639   1.141   1.952  0.3762 -0.3992  0.0037
 1307SOL    HW1 4820   2.619   1.203   1.876  0.2177 -0.2999  0.1245
 1307SOL    HW2 4821   2.697   1.188   2.019 -2.1517  0.6812  1.5639
 1308SOL     OW 4822   6.192   3.578   6.124 -0.0140 -0.3468 -0.3129
 1308SOL    HW1 4823   6.110   3.581   6.180 -0.5351 -0.0753 -1.0858
 1308SOL    HW2 4824   6.240   3.491   6.140 -1.4702 -1.3743 -1.2717
 1309SOL     OW 4825   0.138   6.544   6.360 -0.1987 -0.0622  0.0729
 1309SOL    HW1 4826   0.070   6.481   6.398  1.1322 -1.9596 -0.4969
 1309SOL    HW2 4827   0.218   6.546   6.419 -0.4266  1.5806  0.3669
 1310SOL     OW 4828   0.767   2.839   3.259 -0.4600 -0.9178  0.3538
 1310SOL    HW1 4829   0.682   2.817   3.305 -0.4868 -3.7007 -0.8072
 1310SOL    HW2 4830   0.835   2.869   3.326 -2.5763  2.7044  1.1710
 1311SOL     OW 4831   0.421   4.269   5.829 -0.0001  0.4501  0.1425
 1311SOL    HW1 4832   0.363   4.229   5.757  0.3986 -2.0118  1.0868
 1311SOL    HW2 4833   0.486   4.333   5.787 -0.2995 -0.3095 -1.5932
 1312SOL     OW 4834   1.628   0.621   0.807  0.5740 -0.1632  0.2622
 1312SOL    HW1 4835   1.697   0.562   0.765  0.6006  0.3972 -0.5038
 1312SOL    HW2 4836   1.634   0.713   0.767 -0.0648  0.1159  0.7852
 1313SOL     OW 4837   4.348   4.636   5.788  0.3247 -0.5024 -0.5952
 1313SOL    HW1 4838   4.303   4.546   5.780  0.1747 -0.4279 -0.6048
 1313SOL    HW2 4839   4.329   4.690   5.706  1.9941 -1.1553 -1.4562
 1314SOL     OW 4840   3.584   2.131   3.104  0.1934 -0.6122  0.7334
 1314SOL    HW1 4841   3.508   2.195   3.091 -0.3393 -1.5776 -1.2137
 1314SOL    HW2 4842   3.613   2.133   3.200 -0.3895  1.8601  0.9138
 1315SOL     OW 4843   0.688   4.839   4.601  0.2337  0.0120 -0.3976
 1315SOL    HW1 4844   0.652   4.753   4.637 -0.5895  0.0607 -1.0755
 1315SOL    HW2 4845   0.658   4.915   4.659  1.2787 -0.1719  0.4226
 1316SOL     OW 4846   5.699   4.884   5.633 -0.1973  0.2183  0.0625
 1316SOL    HW1 4847   5.690   4.819   5.708  1.5901  0.1095  0.2217
 1316SOL    HW2 4848   5.788   4.872   5.588  0.4026  2.8055  0.3608
 1317SOL     OW 4849   3.244   3.652   3.503 -0.0134  0.8816 -0.5279
 1317SOL    HW1 4850   3.248   3.721   3.431 -2.3515  0.6818 -0.9279
 1317SOL    HW2 4851   3.229   3.562   3.463 -2.1523  0.8710  0.1729
 1318SOL     OW 4852   2.397   6.364   2.158  0.1638  0.1237 -0.1429
 1318SOL    HW1 4853   2.466   6.377   2.087  1.6379  0.3238  1.2715
 1318SOL    HW2 4854   2.360   6.453   2.185 -0.5796  0.0271 -0.8131
 1319SOL     OW 4855   6.277   1.809   6.877  0.6140 -0.2815 -0.0378
 1319SOL    HW1 4856   6.365   1.767   6.899 -1.1051 -3.5194  1.2901
 1319SOL    HW2 4857   6.225   1.823   6.961 -1.6812 -2.2324 -1.0205
 1320SOL     OW 4858   2.670   2.042   5.132 -0.1986  0.3102  0.5475
 1320SOL    HW1 4859   2.768   2.030   5.117 -0.2677  1.6492 -1.1325
 1320SOL    HW2 4860   2.625   1.953   5.125  0.9281 -0.4370  2.0157
 1321SOL     OW 4861   1.673   4.863   2.763 -0.5189  0.2160 -0.1669
 1321SOL    HW1 4862   1.640   4.771   2.742  1.7597 -0.5766 -0.5437
 1321SOL    HW2 4863   1.764   4.876   2.724  0.0990  1.8991  1.6405
 1322SOL     OW 4864   2.338   2.220   1.082 -0.1937  0.4281 -0.0100
 1322SOL    HW1 4865   2.266   2.265   1.134  1.8295  1.4785  2.0416
 1322SOL    HW2 4866   2.398   2.288   1.039  0.4668 -0.3780 -0.4221
 1323SOL     OW 4867   4.706   1.985   0.432  0.6244 -0.2168 -0.0648
 1323SOL    HW1 4868   4.798   2.009   0.400  0.5112  0.8886  0.4093
 1323SOL    HW2 4869   4.649   2.068   0.436 -0.2633 -0.8172  0.0767
 1324SOL     OW 4870   3.546   6.009   0.339  0.2910 -0.1884  0.0390
 1324SOL    HW1 4871   3.474   6.022   0.271 -0.8939  1.3792  1.5155
 1324SOL    HW2 4872   3.633   6.041   0.302  0.0205 -0.9176 -1.3050
 1325SOL     OW 4873   4.075   4.847   2.986  0.1321 -0.5676 -0.3151
 1325SOL    HW1 4874   4.077   4.883   2.893  3.1852 -1.4662 -0.6841
 1325SOL    HW2 4875   3.991   4.878   3.031  0.7946  4.0365 -1.7167
 1326SOL     OW 4876   5.003   0.431   3.857 -0.0327  0.4167  0.0174
 1326SOL    HW1 4877   4.975   0.475   3.771  1.5745 -0.1539 -0.8378
 1326SOL    HW2 4878   4.950   0.348   3.871 -1.8770  1.6387  0.7643
 1327SOL     OW 4879   5.950   5.694   0.309  0.1023  0.2793 -0.1674
 1327SOL    HW1 4880   5.861   5.712   0.267 -0.1231  2.3796  1.0540
 1327SOL    HW2 4881   5.977   5.599   0.292 -1.8164 -0.0704 -1.5358
 1328SOL     OW 4882   2.183   1.135   5.635 -0.1138 -0.7569  0.5640
 1328SOL    HW1 4883   2.160   1.232   5.639 -3.1112 -1.2929 -0.9321
 1328SOL    HW2 4884   2.278   1.125   5.605  0.4937  1.6803  1.4097
 1329SOL     OW 4885   0.324   3.277   2.815  0.0416 -0.0903  0.2520
 1329SOL    HW1 4886   0.390   3.283   2.740  1.5567 -2.6774  1.2380
 1329SOL    HW2 4887   0.363   3.317   2.897 -0.3199 -0.0870  0.4239
 1330SOL     OW 4888   5.927   2.072   4.084  0.0244  0.8430  0.6435
 1330SOL    HW1 4889   5.987   2.151   4.092  1.2799  0.3376 -2.3730
 1330SOL    HW2 4890   5.978   1.988   4.100 -0.7288  0.5116  1.4225
 1331SOL     OW 4891   4.217   0.570   2.432 -0.2332  0.3244  0.7838
 1331SOL    HW1 4892   4.121   0.583   2.405  0.0296  0.3993 -0.1418
 1331SOL    HW2 4893   4.254   0.657   2.465  0.2760  0.9847 -1.3778
 1332SOL     OW 4894   3.415   6.500   1.615  0.0090 -0.2493 -0.9345
 1332SOL    HW1 4895   3.331   6.547   1.590  0.2148  0.9563  0.5072
 1332SOL    HW2 4896   3.402   6.452   1.702  0.3147 -1.5295 -1.5605
 1333SOL     OW 4897   3.003   3.285   3.248  0.4045  0.5299 -0.1735
 1333SOL    HW1 4898   2.983   3.337   3.165  2.1524  0.7432 -0.4997
 1333SOL    HW2 4899   2.983   3.188   3.231 -2.1110  0.9314  0.1833
 1334SOL     OW 4900   1.158   4.811   2.436  0.3047 -0.2061 -0.0623
 1334SOL    HW1 4901   1.179   4.896   2.388 -1.2489 -0.2922 -0.9679
 1334SOL    HW2 4902   1.093   4.829   2.510  0.7347 -0.4578  0.3808
 1335SOL     OW 4903   5.777   3.828   3.339  0.0366 -0.8641 -0.1490
 1335SOL    HW1 4904   5.841   3.902   3.360 -0.5929 -0.9225  2.2945
 1335SOL    HW2 4905   5.718   3.855   3.262  0.0197  1.0728  0.4915
 1336SOL     OW 4906   1.043   6.117   6.214 -0.1992  0.3741 -0.2697
 1336SOL    HW1 4907   1.050   6.018   6.213  0.0529  0.3907 -0.2197
 1336SOL    HW2 4908   1.049   6.152   6.120  1.0978  0.4302 -0.1824
 1337SOL     OW 4909   0.748   1.384   1.187  0.1593 -0.5312 -0.2681
 1337SOL    HW1 4910   0.664   1.354   1.233  0.3268 -1.6169 -0.6408
 1337SOL    HW2 4911   0.823   1.324   1.214 -0.1523 -2.6937 -3.5926
 1338SOL     OW 4912   5.566   4.187   3.818 -0.4964  0.4605  0.4789
 1338SOL    HW1 4913   5.635   4.121   3.789 -0.9941 -0.0754  0.4952
 1338SOL    HW2 4914   5.570   4.268   3.761 -0.3640  0.1081 -0.0157
 1339SOL     OW 4915   4.574   2.231   0.390  0.2110 -0.2828 -0.5483
 1339SOL    HW1 4916   4.579   2.264   0.485  1.4312 -0.6746 -0.4597
 1339SOL    HW2 4917   4.480   2.209   0.368 -0.0837 -0.2820  0.6117
 1340SOL     OW 4918   1.582   3.779   0.618 -0.3102  0.3112 -0.4012
 1340SOL    HW1 4919   1.662   3.834   0.642 -1.5162  1.1285  2.2009
 1340SOL    HW2 4920   1.525   3.829   0.553 -0.2670  1.1602  0.1992
 1341SOL     OW 4921   6.365   6.460   1.537  0.2171 -0.1377 -0.2739
 1341SOL    HW1 4922   6.359   6.518   1.619 -1.6438  0.2193 -0.6128
 1341SOL    HW2 4923   6.376   6.364   1.565 -0.1859  0.0006  0.3845
 1342SOL     OW 4924   3.194   6.605   2.109  0.2104  0.5515  0.0731
 1342SOL    HW1 4925   3.141   6.690   2.104 -1.0182 -0.0023  2.3612
 1342SOL    HW2 4926   3.287   6.625   2.140  0.2623  1.1606 -0.4502
 1343SOL     OW 4927   6.312   5.297   4.751 -0.0289  0.0079  0.0888
 1343SOL    HW1 4928   6.215   5.320   4.762  0.1149  0.3060  0.7749
 1343SOL    HW2 4929   6.338   5.229   4.819  1.1850  2.8022  2.6601
 1344SOL     OW 4930   1.587   0.514   3.142 -0.6769  0.1983 -0.1213
 1344SOL    HW1 4931   1.493   0.545   3.135 -0.6245  0.2870 -0.4850
 1344SOL    HW2 4932   1.648   0.593   3.151 -0.7832  0.0815  2.1802
 1345SOL     OW 4933   1.693   5.892   5.994  0.4513  0.4457 -0.3119
 1345SOL    HW1 4934   1.774   5.898   5.936  0.1548  1.0641 -0.6775
 1345SOL    HW2 4935   1.615   5.862   5.939  0.7541 -1.7209  0.3709
 1346SOL     OW 4936   3.051   1.779   2.849 -0.3865 -0.2547 -0.6388
 1346SOL    HW1 4937   3.079   1.690   2.812  0.1812 -0.0016 -0.8253
 1346SOL    HW2 4938   3.128   1.842   2.847  0.4181 -0.8797  3.0651
 1347SOL     OW 4939   5.893   1.369   0.352 -0.0244  0.0079  0.0100
 1347SOL    HW1 4940   5.971   1.306   0.351  0.7149  0.8683 -1.7372
 1347SOL    HW2 4941   5.823   1.334   0.414  1.0039 -1.7030  0.2862
 1348SOL     OW 4942   1.123   6.111   4.261  0.2558  0.2015 -0.5557
 1348SOL    HW1 4943   1.222   6.101   4.269  0.5865  0.6398 -3.2848
 1348SOL    HW2 4944   1.078   6.040   4.314  2.0984 -1.4007 -1.0422
 1349SOL     OW 4945   4.856   3.334   5.508  0.0704  0.0632 -0.3315
 1349SOL    HW1 4946   4.870   3.399   5.434 -1.1918 -0.6408 -1.2128
 1349SOL    HW2 4947   4.760   3.334   5.536  0.3671 -0.2677  0.7659
 1350SOL     OW 4948   5.249   4.520   0.508 -0.2811  0.1149 -0.0973
 1350SOL    HW1 4949   5.190   4.598   0.527 -0.2897  0.0725  0.0466
 1350SOL    HW2 4950   5.199   4.435   0.523 -0.9520  0.0544 -2.2837
 1351SOL     OW 4951   5.768   3.766   0.905  0.1010 -0.1925  0.5472
 1351SOL    HW1 4952   5.834   3.841   0.902  0.3079 -0.2862  2.0666
 1351SOL    HW2 4953   5.804   3.687   0.856  0.2500  0.3940 -0.3212
 1352SOL     OW 4954   7.009   1.987   5.402  0.0532 -0.3937  0.6857
 1352SOL    HW1 4955   6.980   1.990   5.306 -1.7551 -3.1965  1.0271
 1352SOL    HW2 4956   7.096   1.938   5.408  0.5223  0.3800  0.4701
 1353SOL     OW 4957   5.566   3.328   6.130  0.5112 -0.0743  0.2444
 1353SOL    HW1 4958   5.580   3.265   6.206  0.8960 -1.6299 -1.0572
 1353SOL    HW2 4959   5.499   3.397   6.156 -0.8614 -1.7351  1.3506
 1354SOL     OW 4960   5.460   5.613   4.871 -0.6650  0.4714 -0.0312
 1354SOL    HW1 4961   5.535   5.608   4.937 -2.0401  1.2850  1.7082
 1354SOL    HW2 4962   5.457   5.704   4.831 -1.1280  0.6937  0.4780
 1355SOL     OW 4963   3.233   4.060   4.261 -0.0045 -0.0394  0.2527
 1355SOL    HW1 4964   3.190   4.080   4.174 -0.0701 -0.3250  0.2183
 1355SOL    HW2 4965   3.163   4.047   4.331  0.0078 -0.8758  0.1172
 1356SOL     OW 4966   1.895   3.938   1.382 -0.0325  0.1701  0.3999
 1356SOL    HW1 4967   1.960   3.923   1.457  1.1300  0.4496 -0.5107
 1356SOL    HW2 4968   1.944   3.976   1.303 -1.5957  1.9528  0.2171
 1357SOL     OW 4969   0.124   4.125   5.421  1.0121  0.6803  0.2017
 1357SOL    HW1 4970   0.182   4.075   5.356 -0.2499  1.7654 -1.8868
 1357SOL    HW2 4971   0.061   4.061   5.466 -0.4184  0.2407 -2.2390
 1358SOL     OW 4972   1.706   6.858   5.071 -0.3053 -0.0772  0.2596
 1358SOL    HW1 4973   1.791   6.858   5.018 -0.0186  2.1344  0.6433
 1358SOL    HW2 4974   1.628   6.845   5.009  0.2236 -0.9024 -0.2480
 1359SOL     OW 4975   0.971   4.090   5.969 -0.2590 -0.5555  0.2407
 1359SOL    HW1 4976   0.933   4.086   5.876  1.6115 -1.2692 -0.5386
 1359SOL    HW2 4977   1.040   4.163   5.973  0.9800 -1.7071  0.5166
 1360SOL     OW 4978   3.706   2.497   5.989 -0.4371  0.4166 -0.0694
 1360SOL    HW1 4979   3.804   2.506   6.010 -0.9167 -0.4153  2.9517
 1360SOL    HW2 4980   3.653   2.553   6.052 -1.9805  0.7004 -1.5353
 1361SOL     OW 4981   1.697   5.229   3.857  0.2107 -0.1318  0.2313
 1361SOL    HW1 4982   1.702   5.326   3.881 -0.2307  0.1349 -0.7073
 1361SOL    HW2 4983   1.786   5.187   3.872  0.8978  0.8199 -0.9622
 1362SOL     OW 4984   3.010   3.432   2.952 -0.4585 -0.2595  0.0664
 1362SOL    HW1 4985   3.017   3.332   2.953  0.7145 -0.1875 -0.1531
 1362SOL    HW2 4986   3.089   3.472   2.998 -0.0830  0.6026 -1.2747
 1363SOL     OW 4987   0.465   0.338   2.699 -0.2666 -0.0303 -0.1823
 1363SOL    HW1 4988   0.446   0.244   2.727 -0.4745  0.0416 -0.0786
 1363SOL    HW2 4989   0.426   0.402   2.766  0.9956  0.1179  0.4476
 1364SOL     OW 4990   4.772   5.095   0.987  0.4455  0.9635 -0.1944
 1364SOL    HW1 4991   4.693   5.130   0.937  1.5811  2.3289 -1.1072
 1364SOL    HW2 4992   4.830   5.042   0.925  0.3395  0.0979  0.4315
 1365SOL     OW 4993   4.663   1.855   6.333  0.4238  0.0081  0.1612
 1365SOL    HW1 4994   4.691   1.838   6.238  1.5620 -2.1816  0.8264
 1365SOL    HW2 4995   4.743   1.876   6.389  0.4524 -3.1016  1.4582
 1366SOL     OW 4996   1.123   0.755   5.089 -0.2600  0.2736 -0.0160
 1366SOL    HW1 4997   1.153   0.850   5.100  0.8222 -0.0924  0.2647
 1366SOL    HW2 4998   1.187   0.694   5.134 -0.5527 -0.6548 -0.8135
 1367SOL     OW 4999   2.173   1.733   3.559  0.7995 -0.1137 -0.1922
 1367SOL    HW1 5000   2.203   1.817   3.516  2.9383 -0.4381  0.5717
 1367SOL    HW2 5001   2.074   1.722   3.545  0.8608  1.3508 -2.2236
 1368SOL     OW 5002   0.092   1.918   1.830  0.5084 -0.8028 -0.1367
 1368SOL    HW1 5003   0.002   1.946   1.796  0.9655  0.4538 -0.3900
 1368SOL    HW2 5004   0.084   1.890   1.926 -0.0178  0.1800  0.1240
 1369SOL     OW 5005   6.797   6.806   2.026  0.2984  0.2835 -0.3000
 1369SOL    HW1 5006   6.720   6.859   1.991  0.3072  1.6248  1.5911
 1369SOL    HW2 5007   6.879   6.863   2.028  1.0818 -0.7646 -1.1370
 1370SOL     OW 5008   2.159   2.046   1.891  0.5742  0.2397 -0.0333
 1370SOL    HW1 5009   2.183   1.968   1.833  0.0029 -0.3752  0.5346
 1370SOL    HW2 5010   2.073   2.086   1.859  1.9990  2.1387 -1.7690
 1371SOL     OW 5011   1.626   0.699   5.472  0.1865 -0.6227  0.3253
 1371SOL    HW1 5012   1.689   0.745   5.409 -0.0640 -1.3586 -0.4900
 1371SOL    HW2 5013   1.678   0.661   5.549  0.5773 -0.1960  0.2732
 1372SOL     OW 5014   3.189   4.391   1.143  0.8158  0.3798  0.5438
 1372SOL    HW1 5015   3.113   4.435   1.095  0.0501 -2.4791 -1.1046
 1372SOL    HW2 5016   3.161   4.368   1.236 -0.7006 -1.2460 -0.2425
 1373SOL     OW 5017   0.078   0.050   6.421  0.5004  0.3727 -0.3103
 1373SOL    HW1 5018   0.126   0.036   6.334 -0.3548 -0.3741 -0.6834
 1373SOL    HW2 5019   0.061  -0.039   6.464 -1.9608  0.4365 -0.9956
 1374SOL     OW 5020   3.986   2.204   2.768  0.0778  0.6883 -0.2638
 1374SOL    HW1 5021   3.913   2.202   2.836 -1.0863 -0.1753 -1.4668
 1374SOL    HW2 5022   4.069   2.164   2.806 -0.9890 -1.2193  0.2065
 1375SOL     OW 5023   0.393   4.127   2.448  0.0138  0.0326 -0.0442
 1375SOL    HW1 5024   0.345   4.127   2.361 -0.0594 -1.3419 -0.0293
 1375SOL    HW2 5025   0.342   4.072   2.515 -0.8601  2.4809  1.4380
 1376SOL     OW 5026   5.118   6.385   3.601 -0.1517  0.1712  0.3365
 1376SOL    HW1 5027   5.169   6.398   3.687  0.8319 -0.9110 -0.0541
 1376SOL    HW2 5028   5.056   6.307   3.611  1.0336 -0.8901 -0.3783
 1377SOL     OW 5029   6.138   2.785   4.646 -0.3102 -0.5988  0.0785
 1377SOL    HW1 5030   6.169   2.781   4.551  1.9958 -0.4790  0.7512
 1377SOL    HW2 5031   6.082   2.705   4.666  0.5524 -1.4938 -0.9465
 1378SOL     OW 5032   1.293   2.553   0.454  0.1279  0.2533 -0.1023
 1378SOL    HW1 5033   1.233   2.608   0.396 -0.0780 -1.2463 -1.3668
 1378SOL    HW2 5034   1.388   2.581   0.441  0.0913 -0.1198 -1.2532
 1379SOL     OW 5035   5.382   6.168   3.805 -0.1852  0.2863 -0.0565
 1379SOL    HW1 5036   5.481   6.160   3.806 -0.1484  0.5083 -1.0538
 1379SOL    HW2 5037   5.353   6.233   3.876  0.2128 -1.2007  1.5321
 1380SOL     OW 5038   0.896   4.692   4.392  0.0137  0.0388 -0.2064
 1380SOL    HW1 5039   0.890   4.791   4.398  0.0602  0.0698 -0.6361
 1380SOL    HW2 5040   0.954   4.658   4.466 -1.0091  0.2089  0.7041
 1381SOL     OW 5041   5.428   0.502   2.515  0.7602  0.2731 -0.1389
 1381SOL    HW1 5042   5.341   0.454   2.507  0.9519 -0.1005 -0.0208
 1381SOL    HW2 5043   5.503   0.436   2.510  0.9988  0.4366  0.9823
 1382SOL     OW 5044   0.067   3.789   1.259 -0.0399 -0.0056 -0.3093
 1382SOL    HW1 5045   0.063   3.884   1.227 -2.4217  0.7254  1.8701
 1382SOL    HW2 5046   0.107   3.786   1.351 -2.2896 -0.7251  0.6982
 1383SOL     OW 5047   1.998   0.482   1.043  0.2193  0.1206 -0.2636
 1383SOL    HW1 5048   2.025   0.429   1.123  0.8905  0.6149 -0.1612
 1383SOL    HW2 5049   1.981   0.421   0.966  2.4240 -0.1576 -0.5669
 1384SOL     OW 5050   5.642   1.718   3.966  0.5657 -0.5680  0.0121
 1384SOL    HW1 5051   5.559   1.664   3.973  0.6401 -1.1877 -2.8648
 1384SOL    HW2 5052   5.620   1.811   3.939  0.7527 -0.5158  0.0353
 1385SOL     OW 5053   5.457   3.674   3.812  0.1744 -0.5905 -0.2365
 1385SOL    HW1 5054   5.395   3.753   3.817 -1.2416 -1.5987 -1.2619
 1385SOL    HW2 5055   5.551   3.707   3.796 -0.5628  0.8629 -1.9242
 1386SOL     OW 5056   1.803   2.903   4.557 -0.1039  0.7334 -0.5954
 1386SOL    HW1 5057   1.841   2.995   4.553  1.4503  0.1584  0.3157
 1386SOL    HW2 5058   1.877   2.835   4.557 -0.7440 -0.3606  4.4531
 1387SOL     OW 5059   1.864   0.491   5.365  0.2964 -0.2657 -0.1575
 1387SOL    HW1 5060   1.767   0.476   5.382  0.2952  1.8394  2.3550
 1387SOL    HW2 5061   1.877   0.580   5.320  1.0648 -0.4566 -0.3274
 1388SOL     OW 5062   5.546   2.430   3.692  0.4706 -0.3937  0.3371
 1388SOL    HW1 5063   5.448   2.438   3.676  0.5202 -0.2946  0.0778
 1388SOL    HW2 5064   5.596   2.480   3.621  0.6790  0.6070  1.1595
 1389SOL     OW 5065   5.609   1.488   4.268  0.0898 -0.0348  0.6490
 1389SOL    HW1 5066   5.513   1.507   4.246  0.1750 -0.0773  0.2460
 1389SOL    HW2 5067   5.613   1.415   4.336 -0.1176 -1.1259 -0.4742
 1390SOL     OW 5068   5.997   3.801   2.409 -0.0073 -0.2110  0.2745
 1390SOL    HW1 5069   6.027   3.785   2.503  1.0429  0.0269 -0.0026
 1390SOL    HW2 5070   5.986   3.900   2.394 -1.2764 -0.3176  0.4653
 1391SOL     OW 5071   5.797   2.052   5.557  0.3868  0.3040  0.5211
 1391SOL    HW1 5072   5.857   2.118   5.603  1.8006 -0.7620  0.2491
 1391SOL    HW2 5073   5.767   1.983   5.623  0.7064 -0.0319  0.3150
 1392SOL     OW 5074   2.657   0.678   4.348 -0.3052 -0.3792  0.1081
 1392SOL    HW1 5075   2.736   0.620   4.366 -0.2530 -0.4728 -0.4220
 1392SOL    HW2 5076   2.681   0.774   4.364 -0.2357 -0.4500  0.4429
 1393SOL     OW 5077   5.081   6.381   5.759  0.1015  0.1720  0.4426
 1393SOL    HW1 5078   5.167   6.408   5.802  1.0212 -0.6189 -0.8249
 1393SOL    HW2 5079   5.052   6.292   5.796  1.2333 -0.8267 -0.9256
 1394SOL     OW 5080   3.202   6.861   5.602 -0.0250  0.0463  0.5968
 1394SOL    HW1 5081   3.135   6.833   5.671  0.0864 -0.1047  0.6431
 1394SOL    HW2 5082   3.249   6.781   5.566  1.1001  0.2549  1.5395
 1395SOL     OW 5083   0.092   6.271   1.976 -0.5867  0.0838  0.3009
 1395SOL    HW1 5084   0.149   6.194   2.006  0.4189  1.1573  1.2735
 1395SOL    HW2 5085   0.063   6.323   2.056  1.2549  2.4075 -0.4212
 1396SOL     OW 5086   1.293   4.012   4.183  0.1363 -0.3173  0.4631
 1396SOL    HW1 5087   1.241   3.997   4.099 -1.5704  1.2401  1.1835
 1396SOL    HW2 5088   1.299   3.926   4.234 -2.5202 -0.3956  0.7632
 1397SOL     OW 5089   3.333   6.034   5.012  0.1145  0.1574 -0.2899
 1397SOL    HW1 5090   3.399   5.961   4.997  0.6881  0.6129 -0.0269
 1397SOL    HW2 5091   3.370   6.099   5.078 -0.8844  0.0599  0.3870
 1398SOL     OW 5092   3.178   5.685   1.133 -0.0758  0.5408  0.4693
 1398SOL    HW1 5093   3.199   5.725   1.222  0.9968 -2.3043  1.5983
 1398SOL    HW2 5094   3.255   5.698   1.071  0.9471 -0.9900  1.3389
 1399SOL     OW 5095   4.035   6.947   0.250  0.3379 -0.1786  0.3235
 1399SOL    HW1 5096   4.104   6.888   0.208  0.2382  0.8781 -1.3906
 1399SOL    HW2 5097   4.066   6.973   0.341  0.9809 -1.8020  0.6182
 1400SOL     OW 5098   0.244   3.064   5.170 -0.1101  0.2628  0.2645
 1400SOL    HW1 5099   0.294   3.145   5.201  0.7868  0.4612 -1.5445
 1400SOL    HW2 5100   0.146   3.076   5.190  0.0835  1.5385  0.5490
 1401SOL     OW 5101   5.256   1.209   3.365 -0.5550  0.3853 -0.2016
 1401SOL    HW1 5102   5.237   1.274   3.438  0.7025  0.0439  0.4568
 1401SOL    HW2 5103   5.177   1.203   3.304 -1.1810  1.5370  0.4681
 1402SOL     OW 5104   5.861   3.925   2.973  0.3492 -0.8949 -0.1681
 1402SOL    HW1 5105   5.832   3.998   3.036 -0.3910 -0.2737 -1.1881
 1402SOL    HW2 5106   5.804   3.845   2.987 -0.0529 -0.6336 -0.2834
 1403SOL     OW 5107   4.122   2.090   6.974  0.3080  0.3851 -0.2004
 1403SOL    HW1 5108   4.062   2.092   6.894 -0.0123 -3.8748 -0.2914
 1403SOL    HW2 5109   4.212   2.056   6.947  0.1993 -1.1220  1.1569
 1404SOL     OW 5110   4.624   5.005   0.402  0.0965 -0.1724  0.1390
 1404SOL    HW1 5111   4.652   4.963   0.315  0.0635  0.5421 -0.2209
 1404SOL    HW2 5112   4.589   4.933   0.463 -1.6396 -0.4866 -1.1210
 1405SOL     OW 5113   1.025   3.981   6.668  0.2430 -0.3429 -0.1086
 1405SOL    HW1 5114   1.124   3.994   6.659  0.2447 -0.6038 -0.5147
 1405SOL    HW2 5115   0.980   4.069   6.678  0.7156 -0.3016  2.3229
 1406SOL     OW 5116   2.305   3.346   6.407 -0.4344  0.7007  0.0060
 1406SOL    HW1 5117   2.276   3.390   6.492  0.7094 -1.7243  1.7777
 1406SOL    HW2 5118   2.263   3.256   6.400  1.1751 -0.0207 -0.8754
 1407SOL     OW 5119   6.782   3.991   2.152 -0.8159 -0.0957  0.2129
 1407SOL    HW1 5120   6.755   4.047   2.074  1.7563 -1.5378 -1.8979
 1407SOL    HW2 5121   6.717   3.916   2.163 -0.2924 -0.9177 -1.7904
 1408SOL     OW 5122   1.257   0.660   2.287  0.1064  0.5765 -0.1471
 1408SOL    HW1 5123   1.352   0.685   2.305 -0.2576  0.9648  1.3775
 1408SOL    HW2 5124   1.251   0.560   2.277  0.4657  0.3834  1.3258
 1409SOL     OW 5125   5.519   2.676   5.249 -0.3465 -0.3771 -0.4659
 1409SOL    HW1 5126   5.537   2.681   5.151 -3.0624 -0.5742 -1.0319
 1409SOL    HW2 5127   5.482   2.763   5.281 -1.2904 -0.9307 -0.0301
 1410SOL     OW 5128   4.494   0.107   3.683 -0.3640 -0.7101  0.0621
 1410SOL    HW1 5129   4.492   0.012   3.712 -2.8008 -0.8083 -0.2454
 1410SOL    HW2 5130   4.403   0.147   3.691  0.5488  1.5725  0.0254
 1411SOL     OW 5131   1.285   1.211   7.001 -0.9614 -0.8706  0.3801
 1411SOL    HW1 5132   1.343   1.142   6.958  1.3261  1.3287 -0.2621
 1411SOL    HW2 5133   1.317   1.227   7.095 -0.4524  0.3719  0.0167
 1412SOL     OW 5134   3.057   0.759   4.750 -0.0828  0.0055  0.1456
 1412SOL    HW1 5135   3.051   0.703   4.833  1.1310  1.4213  1.2431
 1412SOL    HW2 5136   3.026   0.852   4.770  0.1663  0.3577 -1.0217
 1413SOL     OW 5137   2.717   1.306   4.752  0.6310  0.5873  0.6359
 1413SOL    HW1 5138   2.722   1.373   4.679  3.0966  1.0579  1.1681
 1413SOL    HW2 5139   2.809   1.278   4.779 -0.2176 -0.2897  2.9030
 1414SOL     OW 5140   0.149   5.617   3.290 -0.2680 -0.0571  0.4990
 1414SOL    HW1 5141   0.244   5.587   3.299 -0.4458 -0.2923  1.7226
 1414SOL    HW2 5142   0.146   5.700   3.234  0.5374 -0.6531 -0.4585
 1415SOL     OW 5143   3.593   3.777   5.492  0.5306  0.1035  0.4894
 1415SOL    HW1 5144   3.665   3.760   5.558  2.9383 -3.6663 -2.6691
 1415SOL    HW2 5145   3.517   3.715   5.509  0.7462 -0.2245  0.2583
 1416SOL     OW 5146   2.353   0.754   5.491  0.3589  0.4109  0.0080
 1416SOL    HW1 5147   2.258   0.772   5.465  0.4959 -0.4032 -1.1255
 1416SOL    HW2 5148   2.356   0.700   5.576 -0.1093  2.7227  1.5882
 1417SOL     OW 5149   3.708   3.702   4.551 -0.0989 -0.2310 -0.3883
 1417SOL    HW1 5150   3.778   3.757   4.505  0.9550 -2.0420 -1.0816
 1417SOL    HW2 5151   3.707   3.610   4.511 -1.6690 -0.7812  0.8205
 1418SOL     OW 5152   4.618   4.254   5.812  0.7786  0.7492 -0.8513
 1418SOL    HW1 5153   4.682   4.281   5.884 -0.5103  2.6729 -0.3317
 1418SOL    HW2 5154   4.527   4.243   5.851  0.5736 -1.0111 -1.7364
 1419SOL     OW 5155   0.161   4.878   1.510  0.4119 -0.0684  0.4721
 1419SOL    HW1 5156   0.124   4.817   1.581 -0.8814  0.4931  0.3099
 1419SOL    HW2 5157   0.169   4.970   1.546  0.9675 -0.0404  0.2746
 1420SOL     OW 5158   1.982   5.930   4.203 -0.4432 -0.4408 -0.0070
 1420SOL    HW1 5159   2.054   5.879   4.157 -0.7616 -0.4143 -0.5551
 1420SOL    HW2 5160   2.021   6.006   4.255 -0.0281 -0.8268  0.2450
 1421SOL     OW 5161   1.905   5.882   6.563 -0.0734 -0.2480  0.0788
 1421SOL    HW1 5162   1.832   5.946   6.541 -0.4205 -1.5518 -3.0422
 1421SOL    HW2 5163   1.993   5.919   6.534  0.1017 -0.0921  0.7744
 1422SOL     OW 5164   2.125   4.497   6.837 -0.5984  0.5332  0.2733
 1422SOL    HW1 5165   2.137   4.452   6.748  1.4539  0.5355  0.4877
 1422SOL    HW2 5166   2.172   4.444   6.907  1.7659  2.8225  0.5777
 1423SOL     OW 5167   4.449   0.308   5.562 -0.1584  0.4887  0.2469
 1423SOL    HW1 5168   4.506   0.234   5.526  0.3818  0.5359  0.9726
 1423SOL    HW2 5169   4.403   0.354   5.487 -1.2686 -1.1894 -0.1573
 1424SOL     OW 5170   0.244   3.592   6.761 -0.3581  0.6015 -0.0659
 1424SOL    HW1 5171   0.312   3.661   6.786  0.7958 -0.6852  0.4707
 1424SOL    HW2 5172   0.176   3.585   6.834  0.6347 -0.1775  0.8273
 1425SOL     OW 5173   4.904   0.878   2.264 -0.7997 -0.0912 -0.2489
 1425SOL    HW1 5174   4.808   0.870   2.293 -0.8081  0.5377 -0.0936
 1425SOL    HW2 5175   4.963   0.844   2.337 -0.7772  2.2981  0.9580
 1426SOL     OW 5176   5.360   0.178   0.316 -0.5342 -0.6588  0.1166
 1426SOL    HW1 5177   5.265   0.196   0.291 -0.6143  1.0153  1.4110
 1426SOL    HW2 5178   5.413   0.262   0.305  0.5991 -1.3324  0.2974
 1427SOL     OW 5179   3.096   0.557   4.200 -0.2535 -0.2106 -0.1971
 1427SOL    HW1 5180   3.188   0.595   4.200 -0.0330 -0.7079 -1.2725
 1427SOL    HW2 5181   3.047   0.588   4.118 -1.4632  1.0086  0.9368
 1428SOL     OW 5182   0.501   5.456   4.590  0.0330 -0.3015  0.0170
 1428SOL    HW1 5183   0.521   5.359   4.580 -0.7576 -0.3656 -1.0793
 1428SOL    HW2 5184   0.583   5.505   4.619  1.0115 -0.9745 -1.5400
 1429SOL     OW 5185   5.216   6.939   0.906 -0.0584  0.0413  0.4796
 1429SOL    HW1 5186   5.309   6.915   0.933 -0.1148  0.6073  1.1990
 1429SOL    HW2 5187   5.176   7.000   0.974 -0.9775 -0.2369  0.2053
 1430SOL     OW 5188   1.826   2.890   4.824 -0.1544 -0.1055  0.4186
 1430SOL    HW1 5189   1.781   2.918   4.739 -2.5877  0.0847  1.6976
 1430SOL    HW2 5190   1.777   2.812   4.864  1.3005 -0.5737  1.3946
 1431SOL     OW 5191   4.076   0.617   6.417 -0.3077 -0.0486 -0.4063
 1431SOL    HW1 5192   4.033   0.707   6.417  0.2336  0.2318 -1.5700
 1431SOL    HW2 5193   4.173   0.626   6.440 -0.4912 -0.4876  0.6189
 1432SOL     OW 5194   2.787   1.292   1.701  0.3225  0.1444 -0.7639
 1432SOL    HW1 5195   2.794   1.298   1.601 -0.6961  1.6446 -0.7694
 1432SOL    HW2 5196   2.704   1.337   1.732  0.6988 -0.1663  0.7969
 1433SOL     OW 5197   4.267   0.490   3.684  0.5743 -0.0193  0.0470
 1433SOL    HW1 5198   4.279   0.509   3.782 -0.0348  1.6217 -0.1646
 1433SOL    HW2 5199   4.245   0.393   3.671  0.5049 -0.2248  1.5413
 1434SOL     OW 5200   6.817   2.151   6.729 -0.6875 -0.2314  0.1635
 1434SOL    HW1 5201   6.740   2.187   6.677 -0.0223 -0.9320 -1.3668
 1434SOL    HW2 5202   6.851   2.068   6.684  2.4985  1.3694 -0.5978
 1435SOL     OW 5203   0.483   6.541   3.584  0.3586 -0.0552  0.7188
 1435SOL    HW1 5204   0.540   6.596   3.645 -1.9601  1.9080  1.2205
 1435SOL    HW2 5205   0.416   6.490   3.637 -0.1971 -0.1398 -0.0510
 1436SOL     OW 5206   0.438   0.671   6.389 -0.4186 -0.3266  0.2036
 1436SOL    HW1 5207   0.406   0.669   6.295  0.1371 -0.7668  0.0206
 1436SOL    HW2 5208   0.537   0.683   6.391 -0.3939 -0.5886  0.7216
 1437SOL     OW 5209   2.379   0.900   0.189 -0.1925  0.2339 -0.5894
 1437SOL    HW1 5210   2.299   0.850   0.220 -0.4664  0.4223 -0.9882
 1437SOL    HW2 5211   2.406   0.966   0.258  0.6309 -0.9720  0.2842
 1438SOL     OW 5212   1.539   0.224   3.249  0.1199 -0.3265 -0.0028
 1438SOL    HW1 5213   1.594   0.306   3.234 -0.9379  0.0603 -2.0788
 1438SOL    HW2 5214   1.519   0.215   3.347 -1.8155  3.3064  0.1329
 1439SOL     OW 5215   0.363   6.503   3.305 -0.1925 -0.3266  0.5610
 1439SOL    HW1 5216   0.459   6.483   3.322 -0.2916 -2.3269 -0.8664
 1439SOL    HW2 5217   0.338   6.472   3.213 -1.7251  2.0337  0.1028
 1440SOL     OW 5218   3.483   3.386   2.675  0.8807  0.2226  0.2708
 1440SOL    HW1 5219   3.499   3.452   2.748 -0.1290 -0.0282  0.7336
 1440SOL    HW2 5220   3.387   3.391   2.646  1.2008  0.1256 -0.8504
 1441SOL     OW 5221   6.494   3.832   5.605 -0.8073 -0.0129  0.6648
 1441SOL    HW1 5222   6.571   3.792   5.654  0.2280 -1.4383 -1.9543
 1441SOL    HW2 5223   6.528   3.881   5.525 -2.5435  0.9818  0.4849
 1442SOL     OW 5224   5.222   4.876   1.302 -0.1615 -0.1591 -0.0080
 1442SOL    HW1 5225   5.180   4.947   1.358  1.9672  0.0499  1.4627
 1442SOL    HW2 5226   5.245   4.797   1.359 -1.3995 -1.5821 -1.3950
 1443SOL     OW 5227   1.654   2.195   2.737 -0.1199  0.2169 -0.0242
 1443SOL    HW1 5228   1.686   2.258   2.809  0.4004  0.6994 -0.6697
 1443SOL    HW2 5229   1.663   2.239   2.648 -2.0194  0.1259 -0.2922
 1444SOL     OW 5230   3.526   2.235   5.603 -0.2374 -0.1870 -0.5059
 1444SOL    HW1 5231   3.534   2.268   5.509  0.4192 -0.0841 -0.4194
 1444SOL    HW2 5232   3.449   2.172   5.610 -0.6732  0.2862 -0.9737
 1445SOL     OW 5233   6.320   2.959   6.934 -0.6048 -0.0601 -0.6715
 1445SOL    HW1 5234   6.243   3.022   6.932  0.1520  0.8694 -1.4665
 1445SOL    HW2 5235   6.316   2.898   6.854 -1.1451 -0.8213 -0.0863
 1446SOL     OW 5236   3.674   0.004   3.704  0.5357 -0.0609 -0.4018
 1446SOL    HW1 5237   3.599   0.043   3.757  1.6821  0.5257  0.8135
 1446SOL    HW2 5238   3.756   0.059   3.715  1.0463 -0.4002 -2.1354
 1447SOL     OW 5239   1.600   1.449   6.198 -0.2214 -0.0243 -0.1794
 1447SOL    HW1 5240   1.644   1.368   6.235 -0.9371 -0.3813 -0.0829
 1447SOL    HW2 5241   1.551   1.426   6.114  0.5002  0.5537 -0.7726
 1448SOL     OW 5242   3.941   1.510   1.070  0.2660 -0.1964  0.5830
 1448SOL    HW1 5243   3.975   1.600   1.042  1.6276 -0.5573  1.0000
 1448SOL    HW2 5244   3.842   1.508   1.059  0.3598  0.8237 -0.9372
 1449SOL     OW 5245   5.661   4.917   7.020  0.7298 -0.2257  0.1621
 1449SOL    HW1 5246   5.653   4.871   6.932 -1.3243  1.2532 -0.4998
 1449SOL    HW2 5247   5.712   5.003   7.008 -0.6014  0.5784  0.1301
 1450SOL     OW 5248   7.006   3.268   4.592 -0.5700 -0.1415  0.1237
 1450SOL    HW1 5249   6.972   3.228   4.507 -3.0223  0.1539  0.8793
 1450SOL    HW2 5250   7.105   3.258   4.597 -0.4210 -0.5331 -2.5476
 1451SOL     OW 5251   1.586   0.865   2.065 -0.5908 -0.4678 -0.2414
 1451SOL    HW1 5252   1.587   0.774   2.107 -3.0572 -1.7953 -2.7323
 1451SOL    HW2 5253   1.536   0.928   2.125  0.0981 -1.0248  0.9587
 1452SOL     OW 5254   0.039   0.746   0.929  0.1205  0.0492 -0.1216
 1452SOL    HW1 5255   0.028   0.720   1.024 -0.5195 -1.2821 -0.5342
 1452SOL    HW2 5256   0.037   0.846   0.921  2.1072  0.2745  1.4517
 1453SOL     OW 5257   1.342   4.643   3.228  0.1496  0.4880  0.4235
 1453SOL    HW1 5258   1.267   4.665   3.166 -0.7038 -0.5641  1.0582
 1453SOL    HW2 5259   1.312   4.575   3.294  1.6594  0.0601  0.7046
 1454SOL     OW 5260   6.428   4.883   3.629  0.0808 -0.4429  0.0780
 1454SOL    HW1 5261   6.335   4.911   3.652 -0.7202 -3.3447  0.7405
 1454SOL    HW2 5262   6.429   4.840   3.539  1.0802  0.7261 -0.5022
 1455SOL     OW 5263   2.790   0.226   3.010  0.1320  0.1802  0.2171
 1455SOL    HW1 5264   2.828   0.296   2.950 -1.5951  0.9009 -0.0836
 1455SOL    HW2 5265   2.790   0.259   3.104 -1.7976  1.1249 -0.0800
 1456SOL     OW 5266   5.216   3.513   4.679 -0.3929  0.4718 -0.1630
 1456SOL    HW1 5267   5.176   3.463   4.756  0.9160 -0.6068 -0.1326
 1456SOL    HW2 5268   5.259   3.597   4.713  1.7289 -0.8407  0.6724
 1457SOL     OW 5269   2.121   0.748   5.802  0.0774  0.1271  0.3492
 1457SOL    HW1 5270   2.198   0.687   5.783  0.1263  0.4900 -0.7186
 1457SOL    HW2 5271   2.060   0.704   5.868  0.4885 -0.7579  0.1687
 1458SOL     OW 5272   6.047   5.155   5.662  0.5569  0.6886 -0.5106
 1458SOL    HW1 5273   6.140   5.173   5.694  0.6791 -0.0108 -0.4656
 1458SOL    HW2 5274   5.985   5.224   5.700  1.3331  2.3148 -2.0761
 1459SOL     OW 5275   4.699   6.689   2.257 -0.3978  0.1345  0.1758
 1459SOL    HW1 5276   4.734   6.596   2.252 -3.0162 -1.0230  1.4788
 1459SOL    HW2 5277   4.729   6.732   2.342 -1.7843 -0.7379  1.1391
 1460SOL     OW 5278   0.109   1.049   6.789  0.1958  0.3938 -0.2128
 1460SOL    HW1 5279   0.052   1.012   6.716 -1.0856  0.5684  0.6572
 1460SOL    HW2 5280   0.196   1.080   6.751 -0.6878  1.0754 -1.7757
 1461SOL     OW 5281   5.800   2.258   3.015 -0.3763 -0.0072 -0.1411
 1461SOL    HW1 5282   5.853   2.173   3.004 -0.4026 -0.3004  1.6281
 1461SOL    HW2 5283   5.727   2.242   3.082 -0.6105  1.3082 -0.0711
 1462SOL     OW 5284   5.050   0.728   4.354 -0.0952  0.4746  0.3784
 1462SOL    HW1 5285   5.027   0.631   4.342  1.3454  0.2496 -0.7610
 1462SOL    HW2 5286   5.075   0.767   4.266  0.6384  1.5417  1.0486
 1463SOL     OW 5287   5.404   1.777   6.826  0.5567  0.3023  0.2377
 1463SOL    HW1 5288   5.402   1.877   6.821 -0.2623  0.2829 -0.0511
 1463SOL    HW2 5289   5.324   1.745   6.877  1.2743 -0.1723  1.0780
 1464SOL     OW 5290   0.121   6.913   2.206  0.2030  0.1653 -0.5020
 1464SOL    HW1 5291   0.208   6.863   2.210  0.2935  0.3728  1.0850
 1464SOL    HW2 5292   0.091   6.921   2.111  2.0830  0.3707 -1.1312
 1465SOL     OW 5293   1.804   6.346   3.719  0.3447 -0.7441  0.0346
 1465SOL    HW1 5294   1.822   6.293   3.637  2.2275  1.2451 -0.9563
 1465SOL    HW2 5295   1.778   6.285   3.794 -1.5119 -2.5936 -2.0033
 1466SOL     OW 5296   5.264   6.049   4.915 -0.2827 -0.1473 -0.5994
 1466SOL    HW1 5297   5.170   6.015   4.921 -0.8333  1.0375 -2.0320
 1466SOL    HW2 5298   5.265   6.138   4.870  1.5308 -0.0922 -0.5316
 1467SOL     OW 5299   0.571   4.904   3.452 -0.3523  0.2807 -0.3763
 1467SOL    HW1 5300   0.504   4.977   3.437 -0.0965  0.9637  1.5565
 1467SOL    HW2 5301   0.567   4.874   3.547 -0.2465 -2.0665 -1.0481
 1468SOL     OW 5302   5.311   0.549   3.497  0.7800 -0.3560 -0.3106
 1468SOL    HW1 5303   5.238   0.483   3.515  0.9684 -0.7413 -0.9163
 1468SOL    HW2 5304   5.378   0.545   3.570 -0.2783  0.6908  0.7599
 1469SOL     OW 5305   6.364   0.862   1.962  0.2439 -1.6633  0.6006
 1469SOL    HW1 5306   6.411   0.812   1.889 -0.6476 -1.7346  0.0515
 1469SOL    HW2 5307   6.412   0.849   2.048  1.8695 -0.8192 -0.1340
 1470SOL     OW 5308   2.200   0.487   3.023 -0.4455 -0.0237 -0.2501
 1470SOL    HW1 5309   2.178   0.557   3.091 -2.4901 -0.0629 -0.8285
 1470SOL    HW2 5310   2.279   0.433   3.056  0.3979  1.7282  0.7547
 1471SOL     OW 5311   6.524   1.530   2.162  0.0589 -0.0006 -0.2601
 1471SOL    HW1 5312   6.557   1.604   2.103 -0.2492  0.2668 -0.1007
 1471SOL    HW2 5313   6.575   1.532   2.249 -0.4881  0.5271  0.0590
 1472SOL     OW 5314   5.550   4.560   5.055  0.0200 -0.0484 -0.0876
 1472SOL    HW1 5315   5.587   4.481   5.006  0.5785  0.6923 -0.8831
 1472SOL    HW2 5316   5.460   4.582   5.017 -0.2164 -0.4030  0.2564
 1473SOL     OW 5317   0.666   3.020   2.950  0.3576 -0.2440  0.1725
 1473SOL    HW1 5318   0.738   3.042   3.016  0.8025  1.0023 -0.6915
 1473SOL    HW2 5319   0.702   2.957   2.881  0.6173  0.3367 -0.2288
 1474SOL     OW 5320   5.621   6.450   2.580  0.1363  0.3556  0.4970
 1474SOL    HW1 5321   5.703   6.400   2.608 -0.0338  0.8602  1.9847
 1474SOL    HW2 5322   5.617   6.537   2.629 -2.0313 -0.3009  1.5895
 1475SOL     OW 5323   5.378   0.633   2.800 -0.2805 -0.4087  0.8165
 1475SOL    HW1 5324   5.410   0.548   2.842 -0.1827 -1.3933 -1.0955
 1475SOL    HW2 5325   5.300   0.612   2.741 -0.7709  0.9893  0.9451
 1476SOL     OW 5326   6.542   3.519   0.474  0.4211 -0.9116  0.3535
 1476SOL    HW1 5327   6.582   3.463   0.401  1.3598  0.6788 -0.4333
 1476SOL    HW2 5328   6.602   3.519   0.554  0.9706 -0.2291 -0.0408
 1477SOL     OW 5329   2.197   6.792   4.569 -0.0187  0.3765  0.2061
 1477SOL    HW1 5330   2.123   6.845   4.528  0.2220  0.3843 -0.2192
 1477SOL    HW2 5331   2.285   6.832   4.543  0.1500  2.1791  3.0300
 1478SOL     OW 5332   0.538   3.131   6.869  0.3799 -0.3063 -0.0290
 1478SOL    HW1 5333   0.492   3.066   6.809  0.6844 -0.5673  0.0137
 1478SOL    HW2 5334   0.484   3.215   6.876  0.2246 -0.3674 -0.4754
 1479SOL     OW 5335   0.669   6.180   5.711  0.1762  0.3319 -0.3215
 1479SOL    HW1 5336   0.624   6.203   5.797  1.6107  0.1911  0.4999
 1479SOL    HW2 5337   0.616   6.217   5.634 -2.0000 -0.9203  0.4978
 1480SOL     OW 5338   4.182   6.876   6.529  0.0851  0.3344 -0.1603
 1480SOL    HW1 5339   4.271   6.864   6.486  0.2694 -1.6013  0.6755
 1480SOL    HW2 5340   4.173   6.970   6.561  2.9889 -0.0442  2.1790
 1481SOL     OW 5341   5.711   2.577   1.817 -0.4783 -0.2205 -0.0223
 1481SOL    HW1 5342   5.743   2.604   1.726 -2.0154 -0.0689 -0.5535
 1481SOL    HW2 5343   5.786   2.535   1.868  0.6960  0.6811 -0.9526
 1482SOL     OW 5344   5.715   1.755   6.086  0.4554 -0.2345  0.1112
 1482SOL    HW1 5345   5.651   1.760   6.010  0.3873 -2.6748 -0.0719
 1482SOL    HW2 5346   5.666   1.768   6.172  0.0762 -0.0821 -0.1261
 1483SOL     OW 5347   0.232   0.996   0.346 -0.4227 -0.0157 -0.2319
 1483SOL    HW1 5348   0.214   0.955   0.435 -1.5638  1.7251  0.3950
 1483SOL    HW2 5349   0.158   1.059   0.322  0.5099  0.5653 -1.8004
 1484SOL     OW 5350   6.300   5.241   4.058 -0.1573 -0.4048  0.5904
 1484SOL    HW1 5351   6.207   5.268   4.035  0.1259  1.6974  1.6488
 1484SOL    HW2 5352   6.335   5.177   3.989 -2.1247 -0.7241 -0.1670
 1485SOL     OW 5353   4.942   5.631   5.147  0.0392 -0.0528  0.4162
 1485SOL    HW1 5354   5.004   5.559   5.179  0.3141  0.3050  0.6935
 1485SOL    HW2 5355   4.992   5.717   5.140  1.3143 -0.8497 -5.2732
 1486SOL     OW 5356   4.870   2.120   1.046  0.8714  0.9460  0.7822
 1486SOL    HW1 5357   4.840   2.117   1.141  1.0855  1.7304  0.8812
 1486SOL    HW2 5358   4.885   2.215   1.018  0.4047  0.7615 -0.1675
 1487SOL     OW 5359   0.151   5.444   5.000 -0.1464  0.0608 -0.0808
 1487SOL    HW1 5360   0.073   5.442   5.064 -1.1140  1.2812 -1.1683
 1487SOL    HW2 5361   0.125   5.494   4.918  2.2473  1.7813  0.1105
 1488SOL     OW 5362   4.418   1.969   4.423 -0.1927  0.1355 -0.1970
 1488SOL    HW1 5363   4.348   1.925   4.367 -0.8126  1.2968 -0.3708
 1488SOL    HW2 5364   4.403   2.068   4.423 -0.0473  0.1856  1.8065
 1489SOL     OW 5365   2.789   5.842   3.609 -0.2755 -0.3065  0.1866
 1489SOL    HW1 5366   2.755   5.794   3.528  1.9312 -1.6485 -0.0436
 1489SOL    HW2 5367   2.750   5.801   3.691  0.3888 -1.5102 -0.0757
 1490SOL     OW 5368   4.621   2.586   0.565  0.5271 -0.1175 -0.9127
 1490SOL    HW1 5369   4.652   2.635   0.646 -0.3026  1.7028 -1.6343
 1490SOL    HW2 5370   4.696   2.579   0.499  1.4410 -2.3072  0.2512
 1491SOL     OW 5371   0.809   1.877   4.808  0.1703 -0.0740  0.1929
 1491SOL    HW1 5372   0.780   1.936   4.884 -1.8508 -1.6300  0.7160
 1491SOL    HW2 5373   0.752   1.897   4.727  0.9973  0.2169 -0.3269
 1492SOL     OW 5374   4.927   3.488   2.025 -0.0333  0.0311 -0.2787
 1492SOL    HW1 5375   4.877   3.547   2.089  1.4113 -0.1667  1.1130
 1492SOL    HW2 5376   5.025   3.496   2.042  0.3288 -1.0054 -1.6561
 1493SOL     OW 5377   1.126   3.639   4.270 -0.0265 -0.2307  0.7686
 1493SOL    HW1 5378   1.074   3.593   4.343 -0.7429 -0.4429  0.1336
 1493SOL    HW2 5379   1.224   3.636   4.292  0.5441 -5.5730 -0.9891
 1494SOL     OW 5380   0.821   1.744   5.359 -0.3406 -0.1470  0.2886
 1494SOL    HW1 5381   0.919   1.755   5.374 -0.5839  1.1496  1.1025
 1494SOL    HW2 5382   0.775   1.736   5.447 -1.0002 -0.4727 -0.0818
 1495SOL     OW 5383   0.599   4.019   0.817 -0.0846  0.6604 -0.3997
 1495SOL    HW1 5384   0.540   3.965   0.758 -1.6749  0.7173  1.0391
 1495SOL    HW2 5385   0.621   3.966   0.899 -1.4289  2.0164  0.8984
 1496SOL     OW 5386   6.518   0.219   1.126 -0.4741 -0.2351 -0.3008
 1496SOL    HW1 5387   6.463   0.202   1.208  0.3725  0.0251  0.3463
 1496SOL    HW2 5388   6.604   0.264   1.153  0.4225 -1.3553 -1.1599
 1497SOL     OW 5389   4.695   3.282   6.732 -0.6175 -0.3444  0.1975
 1497SOL    HW1 5390   4.648   3.312   6.815  0.1855 -0.0437  0.5476
 1497SOL    HW2 5391   4.738   3.361   6.688  1.5989 -0.9273  1.1787
 1498SOL     OW 5392   1.619   6.488   4.616 -0.2132 -0.2113  0.2605
 1498SOL    HW1 5393   1.614   6.587   4.607 -2.2488 -0.3056 -0.2732
 1498SOL    HW2 5394   1.526   6.451   4.624  0.4042 -2.1892 -0.9474
 1499SOL     OW 5395   1.915   4.533   3.606  0.1498 -0.5311  0.1320
 1499SOL    HW1 5396   1.897   4.509   3.701  0.3642  1.3330  0.6941
 1499SOL    HW2 5397   1.871   4.621   3.586  0.0771 -0.9171 -1.5095
 1500SOL     OW 5398   3.041   3.285   4.519  0.9072 -0.3687 -0.3206
 1500SOL    HW1 5399   3.033   3.186   4.526  0.6815 -0.3526 -0.3279
 1500SOL    HW2 5400   3.136   3.313   4.534  0.8466 -0.5267  0.4024
 1501SOL     OW 5401   2.331   1.950   1.085 -0.4282 -0.2210  0.4140
 1501SOL    HW1 5402   2.423   1.916   1.066  0.4781  0.8437  2.5783
 1501SOL    HW2 5403   2.331   2.050   1.084 -1.8864 -0.2013 -0.8032
 1502SOL     OW 5404   6.878   1.512   6.123 -0.4596  0.0202  0.0472
 1502SOL    HW1 5405   6.939   1.570   6.069  0.6095 -1.0468  0.0746
 1502SOL    HW2 5406   6.801   1.482   6.066  0.2096 -0.4054 -0.6473
 1503SOL     OW 5407   2.231   3.961   5.778  0.1203 -0.7691 -0.3225
 1503SOL    HW1 5408   2.163   3.936   5.846  0.9806  0.5033  1.0516
 1503SOL    HW2 5409   2.267   3.878   5.734  0.5094 -1.7253  1.7108
 1504SOL     OW 5410   3.904   0.383   3.768 -0.0060 -0.8311 -0.1466
 1504SOL    HW1 5411   3.806   0.381   3.752 -0.4076 -0.1012  1.8697
 1504SOL    HW2 5412   3.942   0.471   3.738 -0.5188  0.0197  1.5433
 1505SOL     OW 5413   5.990   5.624   5.214 -0.4632  0.7960 -0.6523
 1505SOL    HW1 5414   5.946   5.707   5.180  0.5267  0.9599 -1.5896
 1505SOL    HW2 5415   6.084   5.620   5.180 -0.1684 -0.1959  0.2350
 1506SOL     OW 5416   5.207   1.010   3.594 -1.1947 -0.5022  0.1513
 1506SOL    HW1 5417   5.135   1.071   3.563  1.4721  2.7625 -0.2137
 1506SOL    HW2 5418   5.267   1.058   3.658  0.9807 -2.8353  0.0641
 1507SOL     OW 5419   3.382   6.399   0.030 -0.2514 -0.3763  0.8461
 1507SOL    HW1 5420   3.396   6.439   0.121  0.1904 -0.1928  0.6986
 1507SOL    HW2 5421   3.470   6.370  -0.008  0.2515  3.2697 -1.2286
 1508SOL     OW 5422   4.878   6.111   2.632 -0.6596  0.1105  0.1917
 1508SOL    HW1 5423   4.878   6.017   2.664 -2.4932 -0.0016 -0.0723
 1508SOL    HW2 5424   4.790   6.133   2.591 -0.4873  2.1158  0.7735
 1509SOL     OW 5425   5.452   3.510   5.616 -0.5792 -0.0565  0.0546
 1509SOL    HW1 5426   5.525   3.444   5.633 -0.2328  0.2865 -0.1016
 1509SOL    HW2 5427   5.490   3.602   5.610 -0.3802 -0.2071 -3.9508
 1510SOL     OW 5428   0.406   1.701   1.881 -0.1728  0.1520  0.4944
 1510SOL    HW1 5429   0.310   1.675   1.894 -0.0468  0.1710  1.5513
 1510SOL    HW2 5430   0.436   1.757   1.958  0.9907 -0.7361  0.7194
 1511SOL     OW 5431   0.337   3.061   5.511  0.2608 -0.3989 -0.7585
 1511SOL    HW1 5432   0.320   3.043   5.608  1.6654 -0.1929 -0.4360
 1511SOL    HW2 5433   0.283   2.999   5.454 -1.5951  0.3530  0.1078
 1512SOL     OW 5434   1.783   1.111   2.084 -0.1102 -0.0537 -0.2539
 1512SOL    HW1 5435   1.741   1.033   2.130 -0.6649  0.1440 -0.4279
 1512SOL    HW2 5436   1.714   1.163   2.035  0.2746  0.4896 -0.2332
 1513SOL     OW 5437   3.454   6.727   2.143 -0.3469 -0.6020  0.9978
 1513SOL    HW1 5438   3.400   6.779   2.209 -1.7740 -1.4246  0.5198
 1513SOL    HW2 5439   3.537   6.692   2.187 -0.3128  0.4784  1.8121
 1514SOL     OW 5440   3.272   1.076   4.232  0.4168  0.1844 -0.3373
 1514SOL    HW1 5441   3.229   1.123   4.155 -2.8369 -1.4525  0.3190
 1514SOL    HW2 5442   3.302   0.985   4.203 -1.4635 -0.7194  0.3689
 1515SOL     OW 5443   4.842   4.011   4.174  0.3222  0.2502  0.2989
 1515SOL    HW1 5444   4.800   4.092   4.216  0.8353  1.0749 -0.7255
 1515SOL    HW2 5445   4.886   3.956   4.244 -0.1975  0.7640  1.0405
 1516SOL     OW 5446   5.446   2.515   2.931  0.3950 -0.4497  0.2021
 1516SOL    HW1 5447   5.515   2.485   2.865  0.0059 -0.2891 -0.2836
 1516SOL    HW2 5448   5.487   2.581   2.994  1.0377 -1.3488  0.7561
 1517SOL     OW 5449   3.993   4.664   0.869 -0.5225  0.1245  0.3429
 1517SOL    HW1 5450   3.931   4.595   0.833  0.6828 -1.3881  1.0545
 1517SOL    HW2 5451   3.995   4.658   0.969  1.3789 -0.4422  0.3070
 1518SOL     OW 5452   2.082   3.657   6.620 -0.2789  0.1104  0.1369
 1518SOL    HW1 5453   2.029   3.632   6.539 -0.8384 -3.4865  1.4202
 1518SOL    HW2 5454   2.143   3.581   6.644  3.2859  2.8190  0.5575
 1519SOL     OW 5455   6.955   4.134   1.828  0.6226 -0.0318  0.4240
 1519SOL    HW1 5456   7.048   4.098   1.833  0.8418  0.3922 -0.4662
 1519SOL    HW2 5457   6.946   4.213   1.888  0.6864 -0.3860  0.9034
 1520SOL     OW 5458   1.762   3.572   3.095 -0.0405  0.2518  0.1517
 1520SOL    HW1 5459   1.757   3.510   3.174 -2.3148 -0.3017 -0.3392
 1520SOL    HW2 5460   1.763   3.518   3.011 -0.0575  0.8493 -0.2339
 1521SOL     OW 5461   4.116   5.997   6.225 -0.2312 -0.4467  0.3926
 1521SOL    HW1 5462   4.134   6.023   6.320  0.2045  1.2278 -0.0993
 1521SOL    HW2 5463   4.018   5.999   6.207 -0.2429  0.4303  0.5126
 1522SOL     OW 5464   0.143   6.401   5.793  0.2943  0.5394 -0.3369
 1522SOL    HW1 5465   0.207   6.411   5.718  1.0719  1.0092  0.3834
 1522SOL    HW2 5466   0.120   6.490   5.831  1.8408  0.1888  1.5731
 1523SOL     OW 5467   4.501   0.228   0.627  0.4746  0.1991  0.7501
 1523SOL    HW1 5468   4.411   0.273   0.621 -0.8065 -2.3548 -0.8578
 1523SOL    HW2 5469   4.571   0.290   0.592 -1.2471  0.8863 -1.8051
 1524SOL     OW 5470   0.236   3.014   2.772  0.6770  0.2676 -0.0913
 1524SOL    HW1 5471   0.292   3.094   2.791  1.7678 -0.2834 -0.9160
 1524SOL    HW2 5472   0.273   2.965   2.694  0.2875 -1.3015  0.6754
 1525SOL     OW 5473   4.974   0.520   6.809  0.0807  0.0584  0.2979
 1525SOL    HW1 5474   5.059   0.569   6.792 -0.3766  1.2421  1.2051
 1525SOL    HW2 5475   4.977   0.477   6.899 -0.9435  1.7060  1.1701
 1526SOL     OW 5476   4.987   2.905   0.488 -0.0687 -0.3395  0.2393
 1526SOL    HW1 5477   5.075   2.942   0.515  0.2986 -0.4908 -0.6994
 1526SOL    HW2 5478   4.926   2.901   0.567  0.9053 -0.6612  0.9907
 1527SOL     OW 5479   3.345   5.354   4.933  0.4172  0.1436 -0.5528
 1527SOL    HW1 5480   3.371   5.449   4.919 -1.1686  0.4115 -2.0500
 1527SOL    HW2 5481   3.409   5.294   4.884 -0.1601  0.6346 -1.9707
 1528SOL     OW 5482   5.987   0.407   3.945 -0.4428  0.0689  0.1146
 1528SOL    HW1 5483   5.926   0.331   3.971  2.9732 -3.1319 -0.4127
 1528SOL    HW2 5484   6.050   0.426   4.019  0.1868  0.8406 -0.6010
 1529SOL     OW 5485   0.857   6.597   0.093 -0.2146  0.4068  0.0263
 1529SOL    HW1 5486   0.943   6.598   0.143 -1.2435  1.6860  1.9201
 1529SOL    HW2 5487   0.858   6.668   0.023 -0.7744  2.6376  2.1338
 1530SOL     OW 5488   4.445   1.068   3.514  0.0239 -0.1878 -0.0369
 1530SOL    HW1 5489   4.511   1.047   3.442  1.4720  0.2187  1.1028
 1530SOL    HW2 5490   4.360   1.100   3.474  0.6805 -0.2816 -1.5661
 1531SOL     OW 5491   0.267   1.378   6.761 -0.1009  0.2530 -0.1743
 1531SOL    HW1 5492   0.199   1.446   6.789  0.6960  1.4199 -0.9855
 1531SOL    HW2 5493   0.310   1.339   6.843 -1.3148 -0.0777  0.3279
 1532SOL     OW 5494   3.362   1.297   3.972 -0.1535 -0.1533 -0.4598
 1532SOL    HW1 5495   3.383   1.272   3.877 -1.3852 -1.3080 -0.4643
 1532SOL    HW2 5496   3.264   1.318   3.980  0.0269  0.3755  0.4651
 1533SOL     OW 5497   3.339   3.559   2.386  0.5821  0.4654  0.3828
 1533SOL    HW1 5498   3.288   3.619   2.324  0.1785  0.5933  0.8400
 1533SOL    HW2 5499   3.394   3.495   2.332  1.2756  1.4563 -0.1169
 1534SOL     OW 5500   5.314   0.822   6.657  0.0126 -0.6582 -0.2945
 1534SOL    HW1 5501   5.396   0.869   6.689 -1.7313  1.5800  1.1634
 1534SOL    HW2 5502   5.256   0.886   6.607 -2.5877 -1.0397  1.9846
 1535SOL     OW 5503   3.373   5.626   4.890  0.0888 -0.0842  0.5011
 1535SOL    HW1 5504   3.399   5.692   4.960  1.4620  0.1772 -0.2111
 1535SOL    HW2 5505   3.409   5.656   4.801 -2.6146  0.2314 -0.5881
 1536SOL     OW 5506   2.141   5.694   3.867  0.0263  0.0965 -0.6987
 1536SOL    HW1 5507   2.080   5.734   3.799  0.4688  1.1557 -0.4794
 1536SOL    HW2 5508   2.087   5.642   3.933 -0.6624  1.1387 -0.4205
 1537SOL     OW 5509   1.645   4.355   3.418  0.2892  0.0770  0.3724
 1537SOL    HW1 5510   1.554   4.386   3.446 -0.6110 -0.2840 -1.9352
 1537SOL    HW2 5511   1.681   4.292   3.486  0.3554  2.8109  3.0635
 1538SOL     OW 5512   5.147   4.417   6.075  0.3705 -0.2389  0.4702
 1538SOL    HW1 5513   5.156   4.389   5.979 -0.8045  0.2262  0.2027
 1538SOL    HW2 5514   5.217   4.485   6.097  1.0141 -0.7718  0.1208
 1539SOL     OW 5515   4.087   6.631   2.076 -0.3106 -0.2087 -0.0722
 1539SOL    HW1 5516   4.179   6.606   2.048  0.2342  1.7807 -0.2138
 1539SOL    HW2 5517   4.060   6.717   2.032 -2.3421 -0.8694 -0.2284
 1540SOL     OW 5518   6.587   0.978   5.701 -0.0917  0.3048  0.1797
 1540SOL    HW1 5519   6.607   1.075   5.704  1.1998  0.0552  0.3300
 1540SOL    HW2 5520   6.496   0.961   5.739 -0.3062  1.4387  0.1985
 1541SOL     OW 5521   5.052   2.730   4.253  0.0964 -0.4094 -0.5451
 1541SOL    HW1 5522   4.988   2.758   4.325  0.6508 -1.3841  0.3469
 1541SOL    HW2 5523   5.046   2.631   4.240  0.2660 -0.2875 -1.6022
 1542SOL     OW 5524   0.802   6.060   0.520  0.2842  0.1397 -0.3617
 1542SOL    HW1 5525   0.807   5.962   0.535 -0.4862 -0.1453 -1.8065
 1542SOL    HW2 5526   0.828   6.081   0.426 -1.3101  1.1166 -0.6287
 1543SOL     OW 5527   3.620   4.149   4.010  0.4396 -0.0981  0.6393
 1543SOL    HW1 5528   3.550   4.173   3.942  0.3223  3.2610  1.7920
 1543SOL    HW2 5529   3.594   4.186   4.099  1.9293 -2.0365  1.9536
 1544SOL     OW 5530   2.917   3.425   1.671  0.1042  0.2116  0.1519
 1544SOL    HW1 5531   2.897   3.328   1.660  1.4140 -0.0509 -0.0789
 1544SOL    HW2 5532   2.961   3.460   1.588 -2.8952  1.7276 -0.9455
 1545SOL     OW 5533   1.128   5.952   0.710 -0.1249 -0.1002  0.0547
 1545SOL    HW1 5534   1.223   5.924   0.715  0.2484  0.9126 -1.0260
 1545SOL    HW2 5535   1.122   6.046   0.675 -1.4469  0.3291  1.2974
 1546SOL     OW 5536   6.620   6.327   6.597 -0.2902  0.0604  0.1717
 1546SOL    HW1 5537   6.656   6.353   6.508 -0.6510 -0.3552 -0.1003
 1546SOL    HW2 5538   6.665   6.244   6.629  0.1437  0.4449  0.5777
 1547SOL     OW 5539   3.465   5.856   6.379  0.3958  0.3843 -0.3210
 1547SOL    HW1 5540   3.410   5.910   6.315 -0.2361  2.3639  1.7583
 1547SOL    HW2 5541   3.431   5.762   6.381 -0.3861  0.5918 -1.8914
 1548SOL     OW 5542   5.399   5.368   2.618  0.5594 -0.2519  0.1387
 1548SOL    HW1 5543   5.485   5.414   2.640 -0.3915  0.9694  1.5128
 1548SOL    HW2 5544   5.418   5.279   2.577  2.4665  0.6110 -0.9805
 1549SOL     OW 5545   5.804   1.745   1.720 -0.2159  0.0712  0.3117
 1549SOL    HW1 5546   5.865   1.819   1.749  0.1893 -0.7400  1.5961
 1549SOL    HW2 5547   5.712   1.761   1.756 -0.1855  0.0554  0.3948
 1550SOL     OW 5548   2.821   5.182   1.754  0.1182 -0.1529  0.3391
 1550SOL    HW1 5549   2.763   5.117   1.706  1.8723 -2.9427  1.7399
 1550SOL    HW2 5550   2.891   5.133   1.805  3.6960  2.9806 -1.1293
 1551SOL     OW 5551   1.355   3.487   3.171 -0.0793  0.0322  0.5451
 1551SOL    HW1 5552   1.261   3.512   3.193 -0.0725  1.8512 -1.2829
 1551SOL    HW2 5553   1.417   3.535   3.233 -0.2864  0.1650  0.6532
 1552SOL     OW 5554   2.009   6.580   3.783  0.2832 -0.3402  0.2440
 1552SOL    HW1 5555   1.934   6.517   3.765 -0.0357 -0.3248  1.4351
 1552SOL    HW2 5556   1.985   6.671   3.749 -0.7892 -0.0446  1.6919
 1553SOL     OW 5557   6.468   0.964   4.929  0.0257  0.9821  0.1776
 1553SOL    HW1 5558   6.500   1.021   4.853  0.2395 -0.7476 -1.0788
 1553SOL    HW2 5559   6.372   0.940   4.915  0.2808  0.0164  0.0350
 1554SOL     OW 5560   1.673   3.710   5.820 -0.1226  0.2449  0.1171
 1554SOL    HW1 5561   1.721   3.797   5.808 -0.1759  0.2289 -0.2136
 1554SOL    HW2 5562   1.657   3.668   5.731 -1.6055  0.7036  0.1537
 1555SOL     OW 5563   5.042   0.741   0.655 -0.1692 -0.4708  0.1584
 1555SOL    HW1 5564   5.036   0.777   0.562 -0.4036 -0.7579  0.0630
 1555SOL    HW2 5565   5.072   0.646   0.652  1.4948  0.0116  0.4575
 1556SOL     OW 5566   2.565   4.051   5.682 -0.4163 -0.2139 -0.1835
 1556SOL    HW1 5567   2.587   4.149   5.692 -1.5470  0.0600 -0.2451
 1556SOL    HW2 5568   2.584   4.004   5.768  0.6312 -0.0497 -0.3113
 1557SOL     OW 5569   1.474   3.180   0.847  0.2146  0.3821 -0.4382
 1557SOL    HW1 5570   1.567   3.217   0.848  0.8295 -1.0901 -0.4894
 1557SOL    HW2 5571   1.414   3.239   0.901  1.8907 -0.3335  2.4099
 1558SOL     OW 5572   5.275   2.630   6.602  0.5512 -0.0544 -0.7026
 1558SOL    HW1 5573   5.297   2.703   6.666 -0.3973  0.1197 -0.5575
 1558SOL    HW2 5574   5.353   2.613   6.542  1.0920  0.4636 -0.1609
 1559SOL     OW 5575   3.714   5.166   4.971 -0.0776 -0.1286  0.3949
 1559SOL    HW1 5576   3.657   5.190   5.049  0.7920  0.7141  0.7853
 1559SOL    HW2 5577   3.767   5.084   4.991 -1.0552 -0.8635  0.0644
 1560SOL     OW 5578   4.941   2.553   2.141 -0.0529 -0.1005  0.0564
 1560SOL    HW1 5579   4.942   2.454   2.138  0.7320 -0.1958  2.1305
 1560SOL    HW2 5580   4.846   2.586   2.147 -0.3978 -0.6077 -1.8144
 1561SOL     OW 5581   0.382   0.147   0.695  0.5138  0.1537  0.1201
 1561SOL    HW1 5582   0.459   0.119   0.752  0.0491 -1.4565 -0.0054
 1561SOL    HW2 5583   0.316   0.072   0.688  0.3490  0.4471 -2.1707
 1562SOL     OW 5584   2.569   6.282   2.359 -0.4675 -0.2111 -0.0529
 1562SOL    HW1 5585   2.639   6.254   2.293  0.9161  1.5307  0.5944
 1562SOL    HW2 5586   2.499   6.335   2.311  0.4859  0.9754 -0.1772
 1563SOL     OW 5587   2.445   6.104   4.058 -0.4164 -0.5044  0.5142
 1563SOL    HW1 5588   2.535   6.144   4.039 -2.0842  2.9015 -1.1435
 1563SOL    HW2 5589   2.430   6.025   3.999  0.7742  0.0725 -0.6108
 1564SOL     OW 5590   6.675   2.386   0.732 -0.1258 -0.0473  0.2235
 1564SOL    HW1 5591   6.690   2.309   0.794 -2.8726  0.0189  1.0899
 1564SOL    HW2 5592   6.604   2.363   0.666 -0.3306  1.4068 -0.0998
 1565SOL     OW 5593   5.290   3.182   6.123  0.4137 -0.5502 -0.4905
 1565SOL    HW1 5594   5.231   3.190   6.043  0.7573  1.2863 -0.6121
 1565SOL    HW2 5595   5.384   3.201   6.097  0.3243  1.6590  0.5548
 1566SOL     OW 5596   1.377   2.177   2.782 -0.0745  0.0842  0.1955
 1566SOL    HW1 5597   1.475   2.195   2.791  0.2797 -2.2605  1.6382
 1566SOL    HW2 5598   1.361   2.127   2.697  0.0952 -0.3414  0.4150
 1567SOL     OW 5599   5.790   0.660   2.336 -0.9820  0.7431 -0.6781
 1567SOL    HW1 5600   5.799   0.724   2.260 -0.4812  0.0155 -1.2417
 1567SOL    HW2 5601   5.726   0.698   2.403 -0.6006  1.8817 -0.9345
 1568SOL     OW 5602   3.113   4.450   0.502 -0.3178  0.4675  0.4324
 1568SOL    HW1 5603   3.148   4.390   0.573  0.1088 -0.4391 -0.5212
 1568SOL    HW2 5604   3.189   4.482   0.445 -0.8961 -1.0381 -1.2929
 1569SOL     OW 5605   2.030   1.656   2.580 -0.4002 -0.3782 -0.5556
 1569SOL    HW1 5606   2.120   1.614   2.567  0.3903  1.3329 -0.8280
 1569SOL    HW2 5607   1.998   1.636   2.672  0.3461 -0.8326 -0.3770
 1570SOL     OW 5608   3.731   6.813   4.444  0.4304  0.0085  0.2974
 1570SOL    HW1 5609   3.807   6.863   4.486  0.8339 -0.8391  0.6152
 1570SOL    HW2 5610   3.709   6.853   4.355  1.1474  0.3580  0.2709
 1571SOL     OW 5611   2.196   0.698   4.410 -0.3938  0.0572 -0.3084
 1571SOL    HW1 5612   2.196   0.708   4.510 -0.4950  0.6197 -0.3587
 1571SOL    HW2 5613   2.206   0.602   4.386 -1.1180 -0.1605  0.2481
 1572SOL     OW 5614   1.157   6.506   5.562  0.4088 -0.2993 -0.2865
 1572SOL    HW1 5615   1.092   6.436   5.534  1.2778 -0.7103 -1.3706
 1572SOL    HW2 5616   1.140   6.532   5.657 -0.4952 -1.3269 -0.1524
 1573SOL     OW 5617   6.440   6.601   6.083  0.0113  0.0435 -0.1272
 1573SOL    HW1 5618   6.535   6.617   6.055 -0.1230 -1.0430 -1.2889
 1573SOL    HW2 5619   6.435   6.520   6.141 -0.2238 -0.0006 -0.2084
 1574SOL     OW 5620   1.018   2.044   0.905  0.0886  0.0881 -0.6942
 1574SOL    HW1 5621   1.030   2.029   1.003 -2.2887  0.7289 -0.2401
 1574SOL    HW2 5622   1.055   1.967   0.854  2.0944  0.1095  0.6179
 1575SOL     OW 5623   5.307   2.809   0.494 -0.0036  0.1382 -0.1058
 1575SOL    HW1 5624   5.343   2.824   0.403  0.0595 -0.6850 -0.2215
 1575SOL    HW2 5625   5.267   2.718   0.500 -1.0299  0.5955  0.3570
 1576SOL     OW 5626   1.798   0.296   1.349  0.0225 -0.0312  0.1663
 1576SOL    HW1 5627   1.714   0.351   1.347  0.4901  0.7402  1.2803
 1576SOL    HW2 5628   1.806   0.247   1.262 -0.4713  1.5609 -0.8418
 1577SOL     OW 5629   3.587   5.798   3.591  0.0949 -0.3652 -0.4663
 1577SOL    HW1 5630   3.492   5.812   3.564 -0.5104 -0.0984  1.6257
 1577SOL    HW2 5631   3.619   5.877   3.643  2.3188  0.6776 -3.1249
 1578SOL     OW 5632   4.423   1.131   0.821  0.2954 -0.5078 -0.1684
 1578SOL    HW1 5633   4.501   1.106   0.879 -0.0352  0.8090  0.8744
 1578SOL    HW2 5634   4.407   1.058   0.754 -0.0150 -2.6158  2.0685
 1579SOL     OW 5635   0.908   3.491   3.305  0.5844 -0.4998 -0.8203
 1579SOL    HW1 5636   0.981   3.557   3.322 -0.7803  0.7567  0.5090
 1579SOL    HW2 5637   0.855   3.520   3.225 -0.5642  0.5813  0.2919
 1580SOL     OW 5638   3.575   3.206   4.373 -0.3588 -0.8343 -0.2479
 1580SOL    HW1 5639   3.573   3.180   4.469 -2.2810 -0.6294 -0.1859
 1580SOL    HW2 5640   3.562   3.124   4.316 -0.9133 -0.7400 -0.2608
 1581SOL     OW 5641   0.613   4.074   3.959 -0.8659 -0.0216  0.1229
 1581SOL    HW1 5642   0.610   3.987   3.910 -1.4122 -0.5774  1.1021
 1581SOL    HW2 5643   0.620   4.149   3.894 -0.3733 -0.7947 -0.7368
 1582SOL     OW 5644   6.535   6.461   5.519  0.6506 -0.8554  0.4932
 1582SOL    HW1 5645   6.470   6.385   5.520  0.5568 -0.7755  0.3451
 1582SOL    HW2 5646   6.595   6.453   5.439  1.3646 -1.3911  1.0637
 1583SOL     OW 5647   1.816   5.130   2.697 -0.3479 -0.1715  0.4752
 1583SOL    HW1 5648   1.763   5.048   2.675  0.7333 -0.8839  0.4849
 1583SOL    HW2 5649   1.889   5.107   2.761  0.2046  0.7297  0.1879
 1584SOL     OW 5650   6.587   4.412   0.769 -0.1392 -0.0653 -0.2621
 1584SOL    HW1 5651   6.636   4.483   0.718  0.4602 -0.2444  0.0484
 1584SOL    HW2 5652   6.601   4.323   0.724  1.4469 -0.4365  0.8746
 1585SOL     OW 5653   3.590   6.374   4.251  0.0806  1.1110  0.3042
 1585SOL    HW1 5654   3.644   6.450   4.215 -1.2261  1.3454 -1.2756
 1585SOL    HW2 5655   3.494   6.399   4.253 -0.8594 -1.4049 -3.1945
 1586SOL     OW 5656   3.663   6.390   2.943 -0.2940 -0.6322 -0.0896
 1586SOL    HW1 5657   3.737   6.416   3.004 -0.0485  1.9483 -1.3585
 1586SOL    HW2 5658   3.693   6.395   2.848 -1.5355 -1.5420 -0.5735
 1587SOL     OW 5659   5.457   2.139   5.841  0.2282 -0.0808 -0.2328
 1587SOL    HW1 5660   5.553   2.165   5.828  0.0518  0.7538  0.0564
 1587SOL    HW2 5661   5.436   2.139   5.939 -0.1353 -0.0205 -0.3102
 1588SOL     OW 5662   6.439   4.084   3.487  0.7620  0.3259 -0.4164
 1588SOL    HW1 5663   6.440   3.984   3.488  3.1058  0.2470 -2.2528
 1588SOL    HW2 5664   6.444   4.119   3.580  0.7236 -1.2510  0.2115
 1589SOL     OW 5665   6.048   0.606   6.382 -0.9012 -0.2516  0.2893
 1589SOL    HW1 5666   6.121   0.540   6.365  1.2000  1.3393  2.4063
 1589SOL    HW2 5667   5.985   0.608   6.304 -0.4461 -3.8358 -0.3429
 1590SOL     OW 5668   6.214   0.443   5.526  0.0963  0.1173  0.1080
 1590SOL    HW1 5669   6.219   0.430   5.427  1.0681  2.3549 -0.1760
 1590SOL    HW2 5670   6.298   0.485   5.559 -1.0300  1.3583  1.5433
 1591SOL     OW 5671   0.116   3.822   0.038 -0.1315 -0.4293 -0.1353
 1591SOL    HW1 5672   0.046   3.877   0.084 -0.4807 -1.0917  0.1317
 1591SOL    HW2 5673   0.080   3.731   0.019  0.8823 -1.0095  0.6282
 1592SOL     OW 5674   6.795   4.962   2.895  0.7824 -0.1182 -0.7246
 1592SOL    HW1 5675   6.808   5.059   2.915  1.0520  0.3791 -3.0431
 1592SOL    HW2 5676   6.818   4.908   2.976 -0.8171  1.7837  1.1128
 1593SOL     OW 5677   5.080   6.092   1.640  0.2180 -0.5230 -0.2351
 1593SOL    HW1 5678   5.168   6.133   1.664  0.4366 -1.3382  0.3904
 1593SOL    HW2 5679   5.023   6.161   1.595  0.3602  0.6554  1.2967
 1594SOL     OW 5680   5.469   0.297   2.053 -0.0353  0.1335  0.8402
 1594SOL    HW1 5681   5.468   0.344   1.965  0.5339  2.0814  1.8067
 1594SOL    HW2 5682   5.555   0.316   2.100 -0.0741 -1.3696  1.5800
 1595SOL     OW 5683   6.500   4.160   6.274  0.2128 -0.7721  0.1361
 1595SOL    HW1 5684   6.463   4.224   6.207  0.1696 -0.3352  0.5707
 1595SOL    HW2 5685   6.586   4.122   6.240  1.3549  1.1125  0.7434
 1596SOL     OW 5686   6.435   6.803   6.275 -0.0712  0.5076  0.4798
 1596SOL    HW1 5687   6.414   6.731   6.209  1.0146  0.4737  0.1580
 1596SOL    HW2 5688   6.456   6.888   6.226 -0.2563  0.7556  0.8241
 1597SOL     OW 5689   5.538   0.229   2.630  0.0624  0.4114 -0.2280
 1597SOL    HW1 5690   5.595   0.160   2.674  0.5311  0.1956 -1.1504
 1597SOL    HW2 5691   5.444   0.219   2.661  0.2545 -0.1918  0.1783
 1598SOL     OW 5692   1.592   6.410   6.330 -0.7338 -0.3715  0.2246
 1598SOL    HW1 5693   1.554   6.503   6.334 -0.1482 -0.0472 -1.1044
 1598SOL    HW2 5694   1.692   6.416   6.336 -0.7434 -1.0353  1.4008
 1599SOL     OW 5695   4.321   4.909   3.089 -0.1630  0.4956  0.0801
 1599SOL    HW1 5696   4.335   4.990   3.032 -1.7366 -1.3511 -3.1867
 1599SOL    HW2 5697   4.224   4.885   3.089  0.2393 -1.2997  1.1225
 1600SOL     OW 5698   5.838   3.004   2.627 -0.5598  0.3060  0.2203
 1600SOL    HW1 5699   5.770   3.006   2.700 -0.5743 -0.4694  0.2384
 1600SOL    HW2 5700   5.918   2.953   2.658  0.0659  1.2721  0.2225
 1601SOL     OW 5701   4.057   6.782   5.199 -0.1232 -0.2580 -0.1380
 1601SOL    HW1 5702   4.105   6.778   5.111  1.7142  1.5830  0.6927
 1601SOL    HW2 5703   4.071   6.872   5.240 -2.4412 -0.4685  1.2519
 1602SOL     OW 5704   1.992   5.414   2.384  0.2128 -0.0163 -0.7210
 1602SOL    HW1 5705   2.088   5.442   2.383  0.1729  0.5487  2.3471
 1602SOL    HW2 5706   1.961   5.404   2.479 -2.3676 -1.6492 -1.6346
 1603SOL     OW 5707   2.266   6.093   1.828 -0.2676  0.3189 -0.2237
 1603SOL    HW1 5708   2.201   6.163   1.857 -0.1271  0.0984  0.6445
 1603SOL    HW2 5709   2.347   6.137   1.788 -0.4305  0.6292 -0.2148
 1604SOL     OW 5710   4.242   5.093   0.544 -0.3108  0.2144 -0.4284
 1604SOL    HW1 5711   4.201   5.008   0.510  1.9364 -1.1341 -0.0548
 1604SOL    HW2 5712   4.270   5.081   0.639 -1.2206  1.9019  0.0851
 1605SOL     OW 5713   4.331   3.848   0.213 -0.0172  0.1395 -0.2454
 1605SOL    HW1 5714   4.409   3.830   0.274  0.0134 -0.6014 -0.4860
 1605SOL    HW2 5715   4.259   3.895   0.264  0.5468  0.7554  0.0042
 1606SOL     OW 5716   4.109   6.622   4.400  0.5495  0.7356 -0.1392
 1606SOL    HW1 5717   4.130   6.530   4.368 -3.0752 -0.0506 -0.6066
 1606SOL    HW2 5718   4.105   6.622   4.500  1.9682  0.7832 -0.0618
 1607SOL     OW 5719   4.927   4.346   5.485 -0.1281 -0.7458 -0.3492
 1607SOL    HW1 5720   5.020   4.311   5.478 -0.0410 -0.4629 -0.5967
 1607SOL    HW2 5721   4.893   4.370   5.394  1.8336  5.1353  0.0961
 1608SOL     OW 5722   4.822   2.962   3.548 -0.4148  0.3714 -0.1372
 1608SOL    HW1 5723   4.916   2.994   3.535 -0.7012  1.1913 -0.2551
 1608SOL    HW2 5724   4.781   2.943   3.458 -0.2909 -0.2139 -0.0745
 1609SOL     OW 5725   3.209   6.826   0.499  0.1502 -0.0532 -0.1297
 1609SOL    HW1 5726   3.261   6.786   0.575  1.4534  0.4046 -0.7585
 1609SOL    HW2 5727   3.161   6.753   0.450  0.1103 -0.4745  0.5222
 1610SOL     OW 5728   4.422   4.773   6.895 -0.0068  0.6585 -0.0058
 1610SOL    HW1 5729   4.351   4.808   6.833  0.0714  0.0623 -0.4329
 1610SOL    HW2 5730   4.394   4.685   6.932 -0.2946  1.2464  1.2420
 1611SOL     OW 5731   1.677   4.329   6.013 -0.4192  0.4197  0.5623
 1611SOL    HW1 5732   1.704   4.390   5.938 -1.5260  0.6592  0.3479
 1611SOL    HW2 5733   1.722   4.359   6.098 -0.6536  1.3043  0.3839
 1612SOL     OW 5734   5.115   5.339   1.089  0.2837  0.0570  0.8040
 1612SOL    HW1 5735   5.173   5.275   1.038 -0.0196 -1.0683  1.8169
 1612SOL    HW2 5736   5.141   5.336   1.186 -2.0315 -1.1893  1.4597
 1613SOL     OW 5737   0.050   0.017   2.692 -0.5409  0.2114 -0.6538
 1613SOL    HW1 5738   0.065   0.089   2.623  1.1025  1.0936  0.5554
 1613SOL    HW2 5739   0.081  -0.071   2.655  1.9735  0.9572 -0.5029
 1614SOL     OW 5740   0.166   3.357   6.249  0.4462  0.0471  0.5029
 1614SOL    HW1 5741   0.132   3.269   6.283 -1.4738  1.0177  1.2555
 1614SOL    HW2 5742   0.206   3.410   6.324 -1.5618  1.1785  0.8622
 1615SOL     OW 5743   6.767   4.083   6.234  0.6949  0.3273 -0.4259
 1615SOL    HW1 5744   6.779   4.044   6.325 -2.4942  0.7670  0.2846
 1615SOL    HW2 5745   6.766   4.183   6.241 -1.8610  0.3615 -0.4991
 1616SOL     OW 5746   2.004   1.144   1.070  0.5035 -0.2957 -0.0507
 1616SOL    HW1 5747   1.922   1.201   1.060  1.4410  0.7419 -2.2467
 1616SOL    HW2 5748   1.982   1.065   1.128 -1.7354  0.5172  0.3046
 1617SOL     OW 5749   0.141   6.440   4.768 -0.4061  0.3842 -0.6307
 1617SOL    HW1 5750   0.122   6.529   4.727  0.7210  1.0042  0.1380
 1617SOL    HW2 5751   0.217   6.449   4.832 -0.1396 -1.1759 -0.6997
 1618SOL     OW 5752   2.663   5.780   3.091 -0.2472  0.6422 -0.0879
 1618SOL    HW1 5753   2.567   5.756   3.104 -0.4022  0.6582 -1.1541
 1618SOL    HW2 5754   2.670   5.864   3.037  0.3755 -0.0043 -1.0418
 1619SOL     OW 5755   2.414   3.567   6.887 -0.1149 -0.7624  0.2783
 1619SOL    HW1 5756   2.478   3.491   6.874 -1.4311 -1.9161  0.2986
 1619SOL    HW2 5757   2.405   3.587   6.985  0.3894 -0.4402  0.2594
 1620SOL     OW 5758   4.888   6.333   1.693 -0.0815  0.5195  0.3785
 1620SOL    HW1 5759   4.948   6.375   1.761 -0.4379  0.0829  0.9726
 1620SOL    HW2 5760   4.931   6.337   1.603  0.6532  0.5851  0.7277
 1621SOL     OW 5761   4.062   5.157   1.705  0.8834 -0.3334 -0.5622
 1621SOL    HW1 5762   4.121   5.191   1.778 -0.4120  0.0828  0.3200
 1621SOL    HW2 5763   4.014   5.075   1.736 -1.4589  1.1431 -0.0113
 1622SOL     OW 5764   0.039   1.187   4.869 -0.4635 -0.9718  0.1747
 1622SOL    HW1 5765  -0.015   1.163   4.789 -1.4246  1.0959  0.1551
 1622SOL    HW2 5766   0.103   1.261   4.846 -0.0751 -1.0094  1.0789
 1623SOL     OW 5767   0.159   1.519   2.228  0.2399 -0.5638  0.3011
 1623SOL    HW1 5768   0.167   1.420   2.239  4.7224 -0.5691 -0.8011
 1623SOL    HW2 5769   0.231   1.564   2.280 -0.8106  2.0546 -0.3401
 1624SOL     OW 5770   2.358   4.131   1.157 -0.0284  0.0621  0.1985
 1624SOL    HW1 5771   2.453   4.118   1.185 -0.2278 -1.3957  0.2808
 1624SOL    HW2 5772   2.305   4.169   1.232  0.7105  2.0328 -0.2178
 1625SOL     OW 5773   1.528   0.087   2.062  1.0104 -0.2367  0.5275
 1625SOL    HW1 5774   1.612   0.123   2.104  1.8093 -2.6462  1.1567
 1625SOL    HW2 5775   1.480   0.161   2.015  2.9439  1.4320  1.0345
 1626SOL     OW 5776   2.310   6.227   3.811 -0.6191 -0.0228 -0.0178
 1626SOL    HW1 5777   2.237   6.175   3.855 -1.4299  1.5504  0.5431
 1626SOL    HW2 5778   2.383   6.244   3.877 -1.2328  1.1836  0.3793
 1627SOL     OW 5779   3.919   0.202   5.594 -0.2271 -0.0418 -0.1341
 1627SOL    HW1 5780   3.834   0.196   5.645 -1.1509  2.0422 -1.3286
 1627SOL    HW2 5781   3.986   0.138   5.633 -1.2237  0.6366  2.9324
 1628SOL     OW 5782   4.823   5.343   2.268  0.5746 -0.5040  0.6180
 1628SOL    HW1 5783   4.910   5.364   2.313 -0.2174  0.6450  1.6831
 1628SOL    HW2 5784   4.783   5.260   2.310 -0.3914  0.8283  2.4864
 1629SOL     OW 5785   1.068   5.907   2.724  0.5296 -0.2149 -0.3656
 1629SOL    HW1 5786   1.061   5.852   2.806  1.7798  0.5772  0.3153
 1629SOL    HW2 5787   1.023   5.995   2.739  1.2893  0.1717 -0.2844
 1630SOL     OW 5788   6.255   4.348   5.139  0.0881  0.0600  0.6362
 1630SOL    HW1 5789   6.285   4.433   5.097  1.4779 -0.1952  1.0811
 1630SOL    HW2 5790   6.326   4.279   5.130 -0.2594 -0.5030  1.9438
 1631SOL     OW 5791   5.473   2.850   6.960  0.2070  0.1922 -0.2285
 1631SOL    HW1 5792   5.487   2.758   6.996 -1.0254  0.8339  2.1271
 1631SOL    HW2 5793   5.532   2.865   6.880  0.0118 -2.7912 -1.0244
 1632SOL     OW 5794   5.355   3.734   0.876 -0.2230  0.3861  0.0087
 1632SOL    HW1 5795   5.296   3.766   0.950  1.3055  0.4918  1.2241
 1632SOL    HW2 5796   5.357   3.634   0.875 -0.0992  0.3868  0.2297
 1633SOL     OW 5797   5.676   3.958   4.485  0.2466  0.1762 -0.0667
 1633SOL    HW1 5798   5.630   3.935   4.399 -1.8184  0.3512  0.9304
 1633SOL    HW2 5799   5.740   3.885   4.509  1.4096  0.4518 -2.0651
 1634SOL     OW 5800   5.886   5.522   4.392  0.5683 -0.3240 -0.5186
 1634SOL    HW1 5801   5.965   5.466   4.367 -0.4620 -1.7282 -0.7416
 1634SOL    HW2 5802   5.817   5.517   4.320  0.6264  1.6305 -0.7546
 1635SOL     OW 5803   4.384   2.253   5.700 -0.0866  0.0171 -0.0022
 1635SOL    HW1 5804   4.321   2.198   5.754  0.0447 -0.8495 -0.7068
 1635SOL    HW2 5805   4.476   2.246   5.739  0.1105 -1.0397 -0.6318
 1636SOL     OW 5806   6.246   5.657   3.152  0.1374 -0.1801 -0.0816
 1636SOL    HW1 5807   6.197   5.618   3.230 -0.0751 -1.0967 -0.6530
 1636SOL    HW2 5808   6.248   5.756   3.159  0.0274 -0.2461  1.0311
 1637SOL     OW 5809   2.005   1.911   0.328 -0.0334 -0.2693  0.1515
 1637SOL    HW1 5810   1.991   1.983   0.397 -0.6610  0.7769 -1.0153
 1637SOL    HW2 5811   1.941   1.926   0.253  1.0072 -1.0656 -0.9057
 1638SOL     OW 5812   5.448   0.170   3.115  0.4953  0.4826 -0.0143
 1638SOL    HW1 5813   5.422   0.137   3.205 -1.6005 -0.0203 -0.7501
 1638SOL    HW2 5814   5.462   0.093   3.053  1.5888  0.8330 -0.2301
 1639SOL     OW 5815   6.038   3.198   1.034  0.2889  0.1456 -1.0204
 1639SOL    HW1 5816   6.107   3.126   1.032  1.7033  1.4651 -2.1126
 1639SOL    HW2 5817   6.036   3.240   1.125  0.7426 -0.0879 -0.9007
 1640SOL     OW 5818   1.727   1.492   0.138 -0.1277 -0.1000 -0.4357
 1640SOL    HW1 5819   1.789   1.504   0.061  0.3950 -0.0027 -0.0079
 1640SOL    HW2 5820   1.635   1.521   0.112  0.2662  0.9714 -0.6838
 1641SOL     OW 5821   0.495   1.251   3.794 -0.2075  0.3976  0.0962
 1641SOL    HW1 5822   0.560   1.186   3.756  1.5661  1.2251  1.5736
 1641SOL    HW2 5823   0.411   1.251   3.739  1.6046  0.4862 -2.8877
 1642SOL     OW 5824   6.475   2.600   0.362  0.4132  0.4879 -0.3411
 1642SOL    HW1 5825   6.572   2.604   0.386  0.8609 -0.7133 -1.7847
 1642SOL    HW2 5826   6.432   2.526   0.414  0.4788  0.4328 -0.3643
 1643SOL     OW 5827   1.393   4.733   4.218  0.7773 -0.1472 -0.4414
 1643SOL    HW1 5828   1.477   4.737   4.163  0.0349  1.9529 -1.5155
 1643SOL    HW2 5829   1.396   4.652   4.277  1.7508 -2.4465 -3.3670
 1644SOL     OW 5830   6.135   1.360   2.907  0.0271 -0.0096  0.1733
 1644SOL    HW1 5831   6.229   1.377   2.875  0.1844 -0.1056  0.5821
 1644SOL    HW2 5832   6.104   1.439   2.960 -0.8424  0.8981 -1.5708
 1645SOL     OW 5833   3.083   1.091   4.431  0.1874 -0.2419  0.8765
 1645SOL    HW1 5834   3.000   1.110   4.377 -0.5524 -1.1630  1.6538
 1645SOL    HW2 5835   3.161   1.084   4.369 -0.3328  0.4797  0.1071
 1646SOL     OW 5836   1.349   0.008   2.512  0.2282 -0.1071 -0.5942
 1646SOL    HW1 5837   1.436   0.004   2.463  0.7302 -2.2810  0.3439
 1646SOL    HW2 5838   1.275  -0.012   2.448  0.1898  3.0602 -1.6948
 1647SOL     OW 5839   6.354   4.658   0.020  0.2334 -0.8385 -1.0868
 1647SOL    HW1 5840   6.322   4.621   0.107  0.2640  1.6586  0.0565
 1647SOL    HW2 5841   6.454   4.650   0.016  0.4119  0.5489 -0.0973
 1648SOL     OW 5842   0.513   6.632   0.719  0.1746  0.0035  0.3133
 1648SOL    HW1 5843   0.524   6.611   0.622 -0.3676  0.5779  0.1179
 1648SOL    HW2 5844   0.495   6.548   0.770 -1.9160 -0.0503 -0.4391
 1649SOL     OW 5845   2.204   1.045   3.806  0.0026 -0.4783 -0.3518
 1649SOL    HW1 5846   2.164   1.001   3.725  1.4440 -1.3983 -0.6044
 1649SOL    HW2 5847   2.294   1.004   3.824  0.3227  0.7272  0.8643
 1650SOL     OW 5848   2.389   2.736   5.666  0.0365 -0.2876  0.3104
 1650SOL    HW1 5849   2.401   2.826   5.624 -0.1806 -0.0527  0.7467
 1650SOL    HW2 5850   2.311   2.689   5.623 -2.2554  1.2267  2.5068
 1651SOL     OW 5851   2.097   1.964   4.055  0.4983  0.2250 -0.2227
 1651SOL    HW1 5852   2.060   2.045   4.010 -1.2613  0.0268  0.7551
 1651SOL    HW2 5853   2.056   1.882   4.015  1.1876 -0.1126 -0.2514
 1652SOL     OW 5854   6.269   3.351   2.402  0.2399 -0.1036  0.1786
 1652SOL    HW1 5855   6.306   3.258   2.399  0.8517  0.1256  0.4759
 1652SOL    HW2 5856   6.262   3.381   2.497  0.9392  0.4984  0.0509
 1653SOL     OW 5857   5.165   2.723   1.883 -0.4332  0.1462 -0.5020
 1653SOL    HW1 5858   5.223   2.792   1.840 -0.1295  0.1056 -0.1650
 1653SOL    HW2 5859   5.177   2.727   1.983  0.8867 -1.5106 -0.5338
 1654SOL     OW 5860   0.684   3.503   3.592  0.0837 -0.2960  0.1271
 1654SOL    HW1 5861   0.776   3.544   3.598 -0.6284  1.4685 -0.5067
 1654SOL    HW2 5862   0.665   3.453   3.677  1.5848 -0.6020  0.3109
 1655SOL     OW 5863   5.841   0.673   6.556 -0.1011 -0.2231  0.0849
 1655SOL    HW1 5864   5.891   0.602   6.507 -1.2852 -1.3771  0.4778
 1655SOL    HW2 5865   5.744   0.648   6.560 -0.5482  1.4583  0.1830
 1656SOL     OW 5866   2.078   3.066   3.309  0.0688 -0.1642 -0.4442
 1656SOL    HW1 5867   2.028   3.122   3.375  0.0086  1.6634 -1.9438
 1656SOL    HW2 5868   2.147   3.012   3.356 -1.4349 -0.6212  1.3406
 1657SOL     OW 5869   6.108   0.876   0.235  0.2065  0.3900  0.0320
 1657SOL    HW1 5870   6.021   0.833   0.258  0.0005  0.9180  0.2398
 1657SOL    HW2 5871   6.109   0.899   0.137 -0.2565  1.2194  0.2149
 1658SOL     OW 5872   5.840   6.822   6.429  0.3452 -0.0716 -0.5968
 1658SOL    HW1 5873   5.879   6.773   6.351  1.5471 -1.2563  0.6783
 1658SOL    HW2 5874   5.885   6.911   6.438  0.0216  0.1773 -1.3905
 1659SOL     OW 5875   3.081   2.306   1.098  0.4408 -1.1388 -0.0089
 1659SOL    HW1 5876   3.083   2.212   1.133 -1.3823 -1.4261 -0.5834
 1659SOL    HW2 5877   3.116   2.368   1.169  1.0264 -2.1718  0.6318
 1660SOL     OW 5878   2.657   1.015   6.902  0.8041  0.1957 -0.3996
 1660SOL    HW1 5879   2.561   0.987   6.897  1.1946 -1.3217 -0.0458
 1660SOL    HW2 5880   2.703   0.965   6.976  1.7608  1.2715 -0.2304
 1661SOL     OW 5881   3.374   5.150   3.290 -0.0718  0.5693 -0.8452
 1661SOL    HW1 5882   3.284   5.168   3.328 -0.9871 -0.7143 -2.2820
 1661SOL    HW2 5883   3.404   5.228   3.235  1.7339  2.9179  3.0583
 1662SOL     OW 5884   0.588   2.192   4.823 -0.5380  0.4233 -0.0708
 1662SOL    HW1 5885   0.584   2.152   4.915  1.7137  0.1250 -0.0440
 1662SOL    HW2 5886   0.544   2.281   4.824 -0.6920  0.3599  1.2831
 1663SOL     OW 5887   2.064   5.024   1.064  0.1553 -0.6025 -0.3066
 1663SOL    HW1 5888   2.154   5.066   1.078 -0.7520  1.8873 -1.3423
 1663SOL    HW2 5889   2.036   4.978   1.148  1.8289 -0.2957  0.4741
 1664SOL     OW 5890   7.008   0.055   6.812  0.2171  0.2670  0.9084
 1664SOL    HW1 5891   7.066  -0.023   6.786 -0.8002 -0.5291  0.9687
 1664SOL    HW2 5892   6.925   0.054   6.757 -0.4000  0.5453  1.8224
 1665SOL     OW 5893   6.758   3.590   0.080 -0.4749  0.4823 -0.0149
 1665SOL    HW1 5894   6.776   3.520   0.011  0.0138  1.1118 -0.5476
 1665SOL    HW2 5895   6.662   3.617   0.077 -0.1187  1.6909 -1.6159
 1666SOL     OW 5896   6.918   6.202   5.522 -0.3490  0.2202  0.4520
 1666SOL    HW1 5897   6.900   6.295   5.553 -0.6274  1.0777 -2.0453
 1666SOL    HW2 5898   7.016   6.182   5.527 -0.0371  1.3471 -0.6495
 1667SOL     OW 5899   6.280   5.434   1.520 -0.6001 -0.1545  0.1299
 1667SOL    HW1 5900   6.205   5.470   1.575 -0.9504  0.4982 -0.7466
 1667SOL    HW2 5901   6.274   5.471   1.427  1.0925  0.3288  0.1677
 1668SOL     OW 5902   6.098   3.314   2.184  0.1220  0.0672  0.5285
 1668SOL    HW1 5903   6.046   3.237   2.223  0.9132 -0.3919  0.6984
 1668SOL    HW2 5904   6.174   3.337   2.245  2.1217 -1.4631 -1.2342
 1669SOL     OW 5905   0.312   2.791   5.219  0.3011 -0.2483  0.5091
 1669SOL    HW1 5906   0.391   2.790   5.280 -0.4277  1.0821  1.5239
 1669SOL    HW2 5907   0.276   2.884   5.212 -0.2782 -0.5556 -1.1380
 1670SOL     OW 5908   2.736   4.676   5.483 -0.2184 -0.2905  0.6527
 1670SOL    HW1 5909   2.784   4.620   5.551 -0.2254 -3.0130 -1.4566
 1670SOL    HW2 5910   2.803   4.719   5.422 -0.1756  2.6170  2.5262
 1671SOL     OW 5911   4.161   2.322   6.788 -0.2824  0.2981  0.2088
 1671SOL    HW1 5912   4.170   2.251   6.718 -1.4588  0.7773 -0.4519
 1671SOL    HW2 5913   4.203   2.290   6.873 -0.4644 -1.0441 -0.1819
 1672SOL     OW 5914   6.988   2.376   6.230  0.2029  0.2183 -0.0941
 1672SOL    HW1 5915   6.993   2.444   6.157  2.3645  0.2832  0.0387
 1672SOL    HW2 5916   6.996   2.422   6.319  1.9227 -0.1448 -0.0104
 1673SOL     OW 5917   0.098   6.561   0.348  0.1585 -0.1191 -0.6372
 1673SOL    HW1 5918   0.078   6.561   0.250  0.8997  0.4025 -0.8019
 1673SOL    HW2 5919   0.152   6.480   0.372 -1.1432 -0.9421 -0.3995
 1674SOL     OW 5920   5.422   2.883   2.404 -0.9716  0.0088  0.2396
 1674SOL    HW1 5921   5.506   2.878   2.459 -1.3937  1.8147  1.1547
 1674SOL    HW2 5922   5.414   2.802   2.347  1.2140 -0.3659  0.3860
 1675SOL     OW 5923   3.760   0.737   0.336  0.2319 -0.2323 -0.5190
 1675SOL    HW1 5924   3.834   0.785   0.287  0.5545 -0.5808 -0.3806
 1675SOL    HW2 5925   3.772   0.638   0.325  0.4461 -0.3233  0.4618
 1676SOL     OW 5926   2.471   2.132   3.491 -0.2435  0.1962  0.3011
 1676SOL    HW1 5927   2.520   2.144   3.578 -1.3145  1.0022  0.8189
 1676SOL    HW2 5928   2.529   2.082   3.427  1.5771  1.7729  0.6185
 1677SOL     OW 5929   3.301   4.155   3.405  0.9308 -0.4195 -0.9013
 1677SOL    HW1 5930   3.210   4.161   3.445  0.6345 -2.1011 -1.2420
 1677SOL    HW2 5931   3.370   4.162   3.477  0.4722 -0.7407 -0.4260
 1678SOL     OW 5932   1.102   0.142   1.721  0.1381 -0.2592  0.3393
 1678SOL    HW1 5933   1.046   0.094   1.654  1.1126 -0.4040 -0.3938
 1678SOL    HW2 5934   1.114   0.237   1.692  1.2188 -0.5212 -0.1343
 1679SOL     OW 5935   5.937   1.697   6.438  0.2158  0.0086  0.0606
 1679SOL    HW1 5936   6.000   1.757   6.487 -0.5535  0.7835  0.1183
 1679SOL    HW2 5937   5.904   1.625   6.500  0.6559 -0.1055  0.1638
 1680SOL     OW 5938   5.237   0.858   4.575 -0.5377 -0.4817  0.2746
 1680SOL    HW1 5939   5.143   0.873   4.545 -1.1483 -3.3233  0.5075
 1680SOL    HW2 5940   5.238   0.839   4.673  0.4988  0.9233  0.5721
 1681SOL     OW 5941   3.031   5.323   3.610  0.3338  0.3570  0.5261
 1681SOL    HW1 5942   3.020   5.285   3.702 -1.1482  0.8117  0.5605
 1681SOL    HW2 5943   3.112   5.382   3.608  1.2438 -0.8235  1.1166
 1682SOL     OW 5944   4.957   2.022   4.660 -0.8423  0.7159 -0.2207
 1682SOL    HW1 5945   5.004   1.966   4.591 -0.9617 -0.1738  0.3955
 1682SOL    HW2 5946   5.022   2.086   4.700 -0.5089  0.5070 -0.4155
 1683SOL     OW 5947   0.733   5.605   4.669 -0.0662  0.5692 -0.2435
 1683SOL    HW1 5948   0.759   5.671   4.739  0.2699  1.9782 -1.6283
 1683SOL    HW2 5949   0.763   5.514   4.695  0.1228  1.0648  1.3763
 1684SOL     OW 5950   4.007   5.966   1.402 -0.4869 -0.3999  0.0170
 1684SOL    HW1 5951   3.991   5.974   1.500  2.6754  0.6614  0.5414
 1684SOL    HW2 5952   4.083   5.904   1.384 -2.0819 -1.9820 -1.9805
 1685SOL     OW 5953   5.527   2.798   6.366 -0.0649 -0.4752 -0.3633
 1685SOL    HW1 5954   5.428   2.787   6.366  0.1155 -2.5971  0.3682
 1685SOL    HW2 5955   5.566   2.753   6.286  0.3732 -0.6663 -0.0541
 1686SOL     OW 5956   3.059   6.069   2.283  0.0129 -0.5411  0.0221
 1686SOL    HW1 5957   3.155   6.071   2.254 -0.3009 -1.2145 -1.1208
 1686SOL    HW2 5958   3.052   6.025   2.372  1.0042  1.5391  1.2165
 1687SOL     OW 5959   4.964   5.521   0.007  0.1294 -0.2302  0.3224
 1687SOL    HW1 5960   4.946   5.548   0.101  3.0128  1.3417  0.5366
 1687SOL    HW2 5961   4.900   5.566  -0.054 -1.1752 -0.5319  1.4275
 1688SOL     OW 5962   2.819   1.326   1.442  0.3352  0.0826 -0.6806
 1688SOL    HW1 5963   2.791   1.422   1.442  0.3361  0.0834 -0.5226
 1688SOL    HW2 5964   2.821   1.292   1.348  1.4896  0.5826 -0.8562
 1689SOL     OW 5965   5.550   3.271   1.971 -0.5175  0.4437  0.1360
 1689SOL    HW1 5966   5.571   3.213   1.892 -0.8507 -0.3852  0.6466
 1689SOL    HW2 5967   5.635   3.301   2.014 -0.3158 -1.6602  1.3029
 1690SOL     OW 5968   6.716   3.342   3.898 -0.0006 -0.3606 -0.1365
 1690SOL    HW1 5969   6.620   3.369   3.893  0.7801  2.5376 -3.3506
 1690SOL    HW2 5970   6.732   3.265   3.836 -0.0531  0.0441 -0.6639
 1691SOL     OW 5971   4.497   2.576   5.037 -0.4680  0.3044 -0.6278
 1691SOL    HW1 5972   4.525   2.650   5.097 -0.6282  0.1991 -0.4193
 1691SOL    HW2 5973   4.397   2.568   5.038 -0.5427  0.9449 -1.6830
 1692SOL     OW 5974   6.130   6.632   3.624  0.0790  0.4373  0.9502
 1692SOL    HW1 5975   6.132   6.712   3.684 -0.6750  1.5319 -0.4284
 1692SOL    HW2 5976   6.223   6.602   3.605  0.4071  1.4447  0.9170
 1693SOL     OW 5977   5.397   0.106   6.842 -0.3964  0.1604  0.2974
 1693SOL    HW1 5978   5.432   0.047   6.915 -1.0771 -0.7280 -0.0782
 1693SOL    HW2 5979   5.426   0.070   6.753 -0.3442  0.7199  0.0833
 1694SOL     OW 5980   4.028   1.055   5.807  0.2474  0.0767 -0.1623
 1694SOL    HW1 5981   4.111   1.063   5.752 -0.7169 -0.8882 -1.8530
 1694SOL    HW2 5982   3.951   1.094   5.757 -0.3896  0.6581  1.2366
 1695SOL     OW 5983   5.355   6.857   5.020 -1.5647  0.5396 -0.1964
 1695SOL    HW1 5984   5.353   6.855   5.120 -2.2161  0.1877 -0.2137
 1695SOL    HW2 5985   5.312   6.774   4.984  0.4816 -0.3422 -0.7664
 1696SOL     OW 5986   5.737   0.393   2.188  0.4914 -0.2080 -0.0430
 1696SOL    HW1 5987   5.714   0.316   2.248 -1.3227  0.8898  0.7599
 1696SOL    HW2 5988   5.774   0.468   2.244 -0.3959  0.5050 -0.3805
 1697SOL     OW 5989   4.449   3.565   1.015 -0.0560  0.1908  0.2222
 1697SOL    HW1 5990   4.535   3.514   1.020 -0.4712 -0.4733  0.7326
 1697SOL    HW2 5991   4.469   3.663   1.005  0.8617  0.4716  3.4406
 1698SOL     OW 5992   4.462   2.179   0.864  0.3112  0.2110  0.0626
 1698SOL    HW1 5993   4.509   2.237   0.798 -0.1941 -0.9571 -1.3804
 1698SOL    HW2 5994   4.517   2.097   0.882  0.4814  0.5508  1.1856
 1699SOL     OW 5995   1.441   6.523   0.816  0.6420  0.0529  0.1413
 1699SOL    HW1 5996   1.422   6.447   0.754  1.4854  0.3624 -0.5340
 1699SOL    HW2 5997   1.520   6.500   0.873 -0.4447 -0.4304  1.4779
 1700SOL     OW 5998   5.273   2.115   1.167  0.3768  0.2526  0.0768
 1700SOL    HW1 5999   5.359   2.146   1.126 -0.5406 -0.4291 -2.5388
 1700SOL    HW2 6000   5.231   2.045   1.109 -1.3340 -0.3875  1.9501
 1701SOL     OW 6001   2.315   4.833   6.493  0.1596  0.0227 -0.6674
 1701SOL    HW1 6002   2.253   4.873   6.426  0.0769  0.1772 -0.5002
 1701SOL    HW2 6003   2.279   4.746   6.526  0.5579 -0.4185 -1.3642
 1702SOL     OW 6004   2.733   3.014   5.924 -0.6587 -0.1756  0.0021
 1702SOL    HW1 6005   2.704   2.983   5.833  1.5082  0.2404 -0.8809
 1702SOL    HW2 6006   2.815   3.071   5.916 -0.2965 -0.2790  2.2463
 1703SOL     OW 6007   3.053   2.090   2.072 -0.0621 -0.0405  0.5875
 1703SOL    HW1 6008   3.139   2.071   2.023  1.0417  1.6758  1.7423
 1703SOL    HW2 6009   3.027   2.186   2.057 -0.4697  0.1193  2.1830
 1704SOL     OW 6010   2.051   4.265   6.305  0.4693 -0.1602 -0.2094
 1704SOL    HW1 6011   2.049   4.174   6.348 -1.8544  0.0725  0.3227
 1704SOL    HW2 6012   2.002   4.330   6.363  1.2548  1.2390 -1.0554
 1705SOL     OW 6013   5.037   2.630   0.322 -0.2951 -0.2424 -0.0782
 1705SOL    HW1 6014   5.042   2.721   0.363 -0.2025 -0.0946 -0.4157
 1705SOL    HW2 6015   5.070   2.634   0.228  1.2748 -0.9554  0.4145
 1706SOL     OW 6016   4.106   5.178   1.080 -0.0643  0.4186 -0.0013
 1706SOL    HW1 6017   4.027   5.204   1.136  1.2045  0.1535  2.0290
 1706SOL    HW2 6018   4.157   5.260   1.055  0.0333  0.4512  0.2979
 1707SOL     OW 6019   2.941   1.430   3.113  0.3940 -0.3375 -0.4544
 1707SOL    HW1 6020   3.005   1.506   3.121  0.8321 -0.7446 -0.0302
 1707SOL    HW2 6021   2.982   1.357   3.057  0.4304 -0.7283  0.0772
 1708SOL     OW 6022   2.245   4.184   0.914 -0.1035  0.2472 -0.3530
 1708SOL    HW1 6023   2.222   4.280   0.901 -0.3288  0.2708  0.1844
 1708SOL    HW2 6024   2.290   4.172   1.003 -0.0862 -0.1437 -0.4122
 1709SOL     OW 6025   5.659   4.740   4.361  0.0195  0.2537  0.5459
 1709SOL    HW1 6026   5.645   4.830   4.401 -0.6231  0.0297  0.8432
 1709SOL    HW2 6027   5.613   4.671   4.417  0.9935 -0.3303  0.6448
 1710SOL     OW 6028   4.034   2.100   4.774 -0.4058  0.4269 -0.1416
 1710SOL    HW1 6029   3.990   2.125   4.688 -1.0642 -1.6806 -0.4873
 1710SOL    HW2 6030   4.114   2.043   4.755  0.5486  1.4751  0.6136
 1711SOL     OW 6031   2.192   3.975   0.730  0.5350 -0.1024  0.2073
 1711SOL    HW1 6032   2.263   4.002   0.665  1.0284  0.3139  0.9065
 1711SOL    HW2 6033   2.202   4.028   0.815 -0.8326  0.2265  0.1867
 1712SOL     OW 6034   0.359   4.471   3.227 -0.1282  0.4745  0.2272
 1712SOL    HW1 6035   0.290   4.543   3.241  0.0480  0.8631 -0.8003
 1712SOL    HW2 6036   0.449   4.513   3.221  0.0139  0.1275 -0.0500
 1713SOL     OW 6037   3.612   0.677   2.352  0.1443 -0.1096  0.0309
 1713SOL    HW1 6038   3.632   0.615   2.277 -0.9653  0.0958 -0.4527
 1713SOL    HW2 6039   3.544   0.637   2.412 -1.8850  1.2788 -1.2278
 1714SOL     OW 6040   3.655   4.239   1.482 -0.3771  0.3338  0.4767
 1714SOL    HW1 6041   3.633   4.238   1.580  0.9255  1.0241  0.8054
 1714SOL    HW2 6042   3.722   4.167   1.462 -3.0309 -2.0220 -0.5819
 1715SOL     OW 6043   1.228   5.665   2.531  0.1462  0.1013  0.6373
 1715SOL    HW1 6044   1.177   5.580   2.516  2.3333 -1.0046 -1.1903
 1715SOL    HW2 6045   1.249   5.674   2.628  0.1286 -1.6385  0.8477
 1716SOL     OW 6046   4.017   1.896   2.853  0.3636 -0.4004 -0.8294
 1716SOL    HW1 6047   3.955   1.836   2.804 -1.2582 -0.2626  0.9597
 1716SOL    HW2 6048   3.968   1.977   2.884  1.1825 -0.6760  1.3538
 1717SOL     OW 6049   3.689   6.368   3.767  0.1614  0.3448 -0.1601
 1717SOL    HW1 6050   3.743   6.366   3.682  0.0166  0.2654 -0.2511
 1717SOL    HW2 6051   3.664   6.275   3.792 -0.4399  0.4213 -0.4453
 1718SOL     OW 6052   1.326   5.385   3.940  0.0579  0.0139 -0.1747
 1718SOL    HW1 6053   1.414   5.403   3.985 -0.2438 -0.4131  0.6163
 1718SOL    HW2 6054   1.273   5.321   3.996 -0.9513  0.6343 -0.3967
 1719SOL     OW 6055   0.919   6.006   2.061  0.0226 -0.3908  0.0124
 1719SOL    HW1 6056   0.948   6.096   2.029  0.1470 -0.6303 -0.5498
 1719SOL    HW2 6057   0.823   6.011   2.091  0.5581  0.3659  1.7622
 1720SOL     OW 6058   1.977   2.542   6.065  0.2249 -0.2798  0.2176
 1720SOL    HW1 6059   2.028   2.468   6.109  0.9771 -0.1888 -0.4812
 1720SOL    HW2 6060   1.898   2.566   6.122  0.9278 -0.4579  1.3103
 1721SOL     OW 6061   1.384   1.981   1.011 -0.6080  0.8069  0.4947
 1721SOL    HW1 6062   1.462   2.029   1.051 -2.3400  3.4872  0.8931
 1721SOL    HW2 6063   1.333   2.043   0.951 -0.5257 -1.8666 -2.6335
 1722SOL     OW 6064   3.931   2.156   3.390  0.0264  0.1730  0.1975
 1722SOL    HW1 6065   3.885   2.096   3.324  0.2235 -0.5425  0.7033
 1722SOL    HW2 6066   3.903   2.132   3.483  2.0722 -0.8860  0.5971
 1723SOL     OW 6067   0.605   6.023   2.071 -0.1507 -0.1977  0.1922
 1723SOL    HW1 6068   0.627   6.071   1.986 -2.0451  0.6465  0.1209
 1723SOL    HW2 6069   0.540   5.950   2.052 -2.7010  1.6642  1.1676
 1724SOL     OW 6070   5.612   2.891   1.674 -0.0882  0.0246 -0.3251
 1724SOL    HW1 6071   5.549   2.815   1.656  0.8838 -0.6198 -1.1161
 1724SOL    HW2 6072   5.705   2.863   1.650  0.2204  1.6488 -1.1624
 1725SOL     OW 6073   1.992   5.518   4.723  0.1688 -0.4314 -0.2623
 1725SOL    HW1 6074   2.009   5.588   4.654 -0.0968 -1.0104 -0.9321
 1725SOL    HW2 6075   1.901   5.531   4.762  0.1782 -0.3139 -0.2794
 1726SOL     OW 6076   0.117   4.641   3.338  0.1314 -0.6344  0.3442
 1726SOL    HW1 6077   0.121   4.719   3.401 -1.4716 -0.4006  0.1978
 1726SOL    HW2 6078   0.092   4.673   3.247 -2.6091 -1.4495  0.6988
 1727SOL     OW 6079   3.861   4.386   5.538 -0.0178 -0.4125  0.0592
 1727SOL    HW1 6080   3.785   4.323   5.557 -0.8272  0.0040 -1.5971
 1727SOL    HW2 6081   3.918   4.348   5.466 -0.4264  0.6530 -0.8520
 1728SOL     OW 6082   0.466   2.359   5.029 -0.2572  0.0829  0.5389
 1728SOL    HW1 6083   0.471   2.324   5.123 -2.0669 -1.3152  0.1739
 1728SOL    HW2 6084   0.401   2.435   5.025 -0.1157  0.1991  0.4158
 1729SOL     OW 6085   0.605   3.790   0.997  0.1032  0.0273  0.2932
 1729SOL    HW1 6086   0.704   3.776   1.004 -0.0378 -2.4820 -1.3566
 1729SOL    HW2 6087   0.563   3.778   1.087  0.9730 -2.7039  0.4244
 1730SOL     OW 6088   3.426   0.449   4.198 -0.7025 -0.3022 -0.0145
 1730SOL    HW1 6089   3.482   0.528   4.173  0.9105 -1.1764  0.6905
 1730SOL    HW2 6090   3.475   0.391   4.263 -2.2428 -1.3864  0.2682
 1731SOL     OW 6091   0.940   5.290   2.780 -0.6421 -0.1986 -0.3539
 1731SOL    HW1 6092   0.980   5.205   2.813 -0.3342  0.1364  0.1654
 1731SOL    HW2 6093   0.930   5.287   2.680  1.1509 -0.1192 -0.5781
 1732SOL     OW 6094   4.077   3.729   5.366  0.1333 -0.1577  0.4254
 1732SOL    HW1 6095   3.978   3.721   5.372  0.0835  0.7138  0.8555
 1732SOL    HW2 6096   4.106   3.712   5.271 -0.4565 -0.0640  0.2254
 1733SOL     OW 6097   1.772   2.641   6.219 -0.3027 -0.4900 -0.5683
 1733SOL    HW1 6098   1.743   2.555   6.259  2.0499 -1.3657 -0.5908
 1733SOL    HW2 6099   1.730   2.717   6.268 -1.2674 -1.6200  0.3883
 1734SOL     OW 6100   0.736   4.760   1.143  0.0567 -0.1812  0.5085
 1734SOL    HW1 6101   0.723   4.661   1.131  1.3082 -0.5552  1.9808
 1734SOL    HW2 6102   0.824   4.787   1.104 -0.2072  0.3292  0.2580
 1735SOL     OW 6103   4.034   6.839   4.034 -0.6985  0.1248  0.5201
 1735SOL    HW1 6104   3.939   6.868   4.048 -0.2537  0.7598  2.5200
 1735SOL    HW2 6105   4.040   6.785   3.950 -2.9119 -0.3458  0.6001
 1736SOL     OW 6106   5.077   1.049   5.968  0.2241  0.6227 -0.6433
 1736SOL    HW1 6107   5.132   1.125   6.000  0.9015  1.0214 -2.5947
 1736SOL    HW2 6108   5.134   0.967   5.960 -0.1416  0.2995 -0.0167
 1737SOL     OW 6109   1.219   0.067   0.819  0.2071  0.1203  0.1295
 1737SOL    HW1 6110   1.226  -0.006   0.750 -1.5846 -0.5452  0.6103
 1737SOL    HW2 6111   1.149   0.132   0.791 -1.6801 -0.9950  2.0018
 1738SOL     OW 6112   1.356   3.963   2.735  0.0679  0.1190 -0.4278
 1738SOL    HW1 6113   1.392   3.871   2.755  0.4168  0.5947  1.3815
 1738SOL    HW2 6114   1.355   4.017   2.820 -0.9553  1.5121 -1.2846
 1739SOL     OW 6115   5.287   5.647   3.991  0.0128  0.2140  0.7246
 1739SOL    HW1 6116   5.361   5.692   4.039 -0.2969 -0.5232  1.9233
 1739SOL    HW2 6117   5.306   5.549   3.983  1.3241  0.6102 -3.0189
 1740SOL     OW 6118   6.804   2.728   4.426 -0.6596 -0.4824 -0.0883
 1740SOL    HW1 6119   6.810   2.631   4.453 -4.3157 -1.0329 -0.8309
 1740SOL    HW2 6120   6.794   2.784   4.508 -1.9384 -1.1183  0.2106
 1741SOL     OW 6121   3.198   1.981   5.380  0.2713  0.1365  0.3304
 1741SOL    HW1 6122   3.273   1.946   5.323 -1.0425 -1.5053 -0.4892
 1741SOL    HW2 6123   3.135   2.033   5.323 -0.7795 -1.0730  0.3446
 1742SOL     OW 6124   6.149   1.517   6.789 -0.3130  0.2735 -0.2459
 1742SOL    HW1 6125   6.207   1.499   6.710 -0.9945 -1.9842 -0.3059
 1742SOL    HW2 6126   6.069   1.571   6.760 -0.3568 -0.2029 -1.0329
 1743SOL     OW 6127   6.564   0.877   3.252  0.0419 -0.2595  0.0332
 1743SOL    HW1 6128   6.621   0.939   3.198 -1.5329  2.1950  1.0393
 1743SOL    HW2 6129   6.520   0.811   3.190  0.4872  0.6555 -1.3085
 1744SOL     OW 6130   1.880   1.878   4.496  0.2933  0.2795  0.4962
 1744SOL    HW1 6131   1.960   1.834   4.537 -0.8849 -2.1134  0.4102
 1744SOL    HW2 6132   1.807   1.886   4.564 -1.3417 -2.8639 -0.6755
 1745SOL     OW 6133   5.387   6.034   0.124  0.6876  0.0830 -0.6825
 1745SOL    HW1 6134   5.402   5.965   0.053 -1.4389  0.4526 -1.5679
 1745SOL    HW2 6135   5.395   6.125   0.082 -0.1676  0.3104 -0.3560
 1746SOL     OW 6136   4.161   5.744   2.257 -0.7391 -0.8312  0.0997
 1746SOL    HW1 6137   4.247   5.698   2.237 -0.9940 -0.5415 -1.7865
 1746SOL    HW2 6138   4.093   5.677   2.287 -0.8015 -1.5628 -1.6037
 1747SOL     OW 6139   4.088   6.684   2.974 -0.1227 -0.3634  0.4194
 1747SOL    HW1 6140   4.168   6.631   3.001  1.6126  0.7649 -2.0879
 1747SOL    HW2 6141   4.106   6.782   2.986 -1.1811 -0.0820 -0.0781
 1748SOL     OW 6142   5.331   2.238   4.940  0.2149  0.1273 -0.6530
 1748SOL    HW1 6143   5.402   2.261   4.872  1.8420 -2.4382  0.0389
 1748SOL    HW2 6144   5.367   2.254   5.032  1.2016 -3.8768 -0.1424
 1749SOL     OW 6145   6.804   6.597   1.842 -0.2074  0.5336  0.3111
 1749SOL    HW1 6146   6.723   6.589   1.784 -0.6530 -0.6323  1.0539
 1749SOL    HW2 6147   6.790   6.670   1.909 -0.2301  1.0074 -0.2106
 1750SOL     OW 6148   2.385   1.516   0.341  0.0553  0.3988 -0.1469
 1750SOL    HW1 6149   2.329   1.505   0.259 -0.2197 -0.8865  0.1902
 1750SOL    HW2 6150   2.331   1.490   0.421  1.0038 -0.4311  0.2308
 1751SOL     OW 6151   0.615   3.169   4.044  0.4631 -0.0658 -0.7394
 1751SOL    HW1 6152   0.689   3.177   4.111 -0.1502  2.6617 -0.2407
 1751SOL    HW2 6153   0.537   3.123   4.087  0.9252 -0.5579 -0.4093
 1752SOL     OW 6154   6.482   1.113   2.876  0.3753  0.0637  0.5640
 1752SOL    HW1 6155   6.445   1.056   2.803  0.6695  0.8182 -0.1848
 1752SOL    HW2 6156   6.445   1.083   2.964  1.3335 -1.9605  0.3277
 1753SOL     OW 6157   7.002   2.839   1.273 -0.3760  0.6159  0.2449
 1753SOL    HW1 6158   6.977   2.835   1.370  1.4667  1.0975  0.7959
 1753SOL    HW2 6159   7.063   2.763   1.251 -2.6032 -0.8527 -1.1762
 1754SOL     OW 6160   2.143   3.365   3.199  0.1214  0.2943 -0.1921
 1754SOL    HW1 6161   2.123   3.383   3.103  4.1175  1.8392 -0.9435
 1754SOL    HW2 6162   2.138   3.267   3.217 -1.2415  0.0308 -1.7649
 1755SOL     OW 6163   4.804   1.461   5.125  0.0454 -0.4094  0.0070
 1755SOL    HW1 6164   4.797   1.388   5.056 -0.2946 -0.6825  0.3258
 1755SOL    HW2 6165   4.889   1.511   5.112 -1.0746  1.0773 -2.1150
 1756SOL     OW 6166   5.928   5.109   0.859  0.0148  0.3742  0.5722
 1756SOL    HW1 6167   5.886   5.097   0.769  0.3320 -0.5459  0.5398
 1756SOL    HW2 6168   5.947   5.206   0.873  1.9302  0.3343 -1.2576
 1757SOL     OW 6169   1.490   6.069   5.810 -0.1703  0.0953  0.4653
 1757SOL    HW1 6170   1.482   6.078   5.909  2.0710  1.6324  0.5678
 1757SOL    HW2 6171   1.416   6.119   5.765 -1.4405 -0.9474  1.3051
 1758SOL     OW 6172   0.757   0.326   3.095  0.2990  0.1659  0.0026
 1758SOL    HW1 6173   0.723   0.240   3.057  1.1061 -0.0344 -0.3024
 1758SOL    HW2 6174   0.681   0.379   3.132 -0.2841 -0.4107 -0.3444
 1759SOL     OW 6175   0.311   6.123   0.884 -0.8714 -0.2032 -0.1208
 1759SOL    HW1 6176   0.273   6.060   0.817  1.0263 -1.8318  0.2188
 1759SOL    HW2 6177   0.299   6.085   0.976 -1.3743  0.8743  0.2761
 1760SOL     OW 6178   5.327   3.023   3.374  0.0775 -0.1919 -0.3667
 1760SOL    HW1 6179   5.409   2.996   3.324  1.2677  0.7021  0.9966
 1760SOL    HW2 6180   5.283   2.942   3.413  0.5116 -0.6472 -0.8160
 1761SOL     OW 6181   4.196   1.852   4.939  0.0637  0.4841  0.4140
 1761SOL    HW1 6182   4.211   1.864   4.841 -0.3153 -0.8288  0.1814
 1761SOL    HW2 6183   4.099   1.835   4.957 -0.0533  1.8047  1.1476
 1762SOL     OW 6184   1.150   1.040   4.437 -0.5860 -0.4372  0.4175
 1762SOL    HW1 6185   1.065   1.063   4.485 -1.3935  0.4096 -1.3234
 1762SOL    HW2 6186   1.221   1.017   4.504 -0.9686  2.8901  2.1788
 1763SOL     OW 6187   0.827   4.689   3.846  0.0568 -0.1197 -0.4546
 1763SOL    HW1 6188   0.915   4.701   3.799  0.6829 -2.8484 -0.1254
 1763SOL    HW2 6189   0.831   4.736   3.935  1.3902 -0.6370 -0.2144
 1764SOL     OW 6190   6.914   5.766   1.986  0.3828 -0.3395  0.0891
 1764SOL    HW1 6191   6.877   5.751   1.894 -0.1805 -0.3396  0.3128
 1764SOL    HW2 6192   6.887   5.691   2.046 -0.7219  0.5191  0.6961
 1765SOL     OW 6193   5.490   5.066   0.188  0.1065  0.7356  0.3822
 1765SOL    HW1 6194   5.407   5.030   0.145  0.4693  0.1150  0.1838
 1765SOL    HW2 6195   5.568   5.011   0.159  0.8901  2.5112 -1.0172
 1766SOL     OW 6196   2.248   4.622   4.068 -0.1150 -0.2032 -0.7561
 1766SOL    HW1 6197   2.273   4.715   4.041  2.3734  0.6862  3.5694
 1766SOL    HW2 6198   2.331   4.572   4.094 -1.6812 -2.5401  0.0387
 1767SOL     OW 6199   3.730   3.717   1.683  0.4966  0.0285  0.2562
 1767SOL    HW1 6200   3.652   3.702   1.622  0.6575 -0.7512  0.2331
 1767SOL    HW2 6201   3.697   3.740   1.774  0.2384 -0.0670  0.1874
 1768SOL     OW 6202   3.547   5.240   2.897  0.3681  0.9202 -0.1832
 1768SOL    HW1 6203   3.487   5.313   2.930  1.9804  2.2985 -0.2328
 1768SOL    HW2 6204   3.494   5.178   2.838 -0.5704  3.2395 -1.9336
 1769SOL     OW 6205   4.322   6.956   6.937  0.2709 -0.1336 -0.5093
 1769SOL    HW1 6206   4.293   6.915   7.024 -0.3675  0.1027 -0.6027
 1769SOL    HW2 6207   4.245   7.007   6.897  0.4395 -0.5649 -1.4072
 1770SOL     OW 6208   0.689   3.759   0.561  0.3285 -0.0711  0.2585
 1770SOL    HW1 6209   0.617   3.786   0.625  0.5454 -0.0730  0.5094
 1770SOL    HW2 6210   0.758   3.705   0.610  0.6521  0.1867  0.0875
 1771SOL     OW 6211   6.997   2.812   4.233 -0.3788  0.1155  0.3836
 1771SOL    HW1 6212   6.994   2.903   4.274  1.2004  0.0210  0.7706
 1771SOL    HW2 6213   6.937   2.750   4.285 -2.1443  1.0822 -0.3982
 1772SOL     OW 6214   2.760   5.001   0.797  0.2878 -0.5076 -0.0692
 1772SOL    HW1 6215   2.768   4.975   0.894 -0.1427 -0.6120 -0.0596
 1772SOL    HW2 6216   2.676   5.053   0.784  0.7103  0.1252 -0.2551
 1773SOL     OW 6217   1.187   5.911   6.557 -0.2464 -0.1612  0.0306
 1773SOL    HW1 6218   1.166   5.829   6.504  0.9489  0.5280 -1.6178
 1773SOL    HW2 6219   1.143   5.905   6.647 -2.0247 -1.5682 -0.8585
 1774SOL     OW 6220   4.657   4.097   0.367 -0.1385 -0.4243 -0.0269
 1774SOL    HW1 6221   4.674   4.046   0.283 -1.1844 -0.9150  0.0472
 1774SOL    HW2 6222   4.672   4.195   0.351 -0.7561 -0.4713 -0.9027
 1775SOL     OW 6223   2.256   6.873   2.847 -0.0901 -0.2704  0.0716
 1775SOL    HW1 6224   2.337   6.933   2.850  0.7196 -1.3838  1.4900
 1775SOL    HW2 6225   2.186   6.909   2.909 -0.8360  0.8384 -1.3497
 1776SOL     OW 6226   2.499   4.590   5.387 -0.3637 -0.2547  0.2079
 1776SOL    HW1 6227   2.564   4.614   5.459 -1.4752 -0.0920  1.1878
 1776SOL    HW2 6228   2.534   4.622   5.299 -0.0026  1.5530  0.9649
 1777SOL     OW 6229   3.234   4.668   0.392 -0.4770 -0.3603  0.0703
 1777SOL    HW1 6230   3.198   4.706   0.307 -0.0017 -0.4924 -0.1943
 1777SOL    HW2 6231   3.174   4.694   0.468 -0.8407 -0.1431 -0.2847
 1778SOL     OW 6232   5.686   1.822   2.328  0.3959  0.9827  0.2441
 1778SOL    HW1 6233   5.636   1.787   2.407 -1.5102  0.5412 -1.0858
 1778SOL    HW2 6234   5.784   1.817   2.346  0.3030 -3.7241  0.7609
 1779SOL     OW 6235   0.344   1.156   5.932  0.7523  0.1296  0.5077
 1779SOL    HW1 6236   0.287   1.133   6.012 -1.7935  1.9294 -0.6453
 1779SOL    HW2 6237   0.412   1.225   5.959  1.9769 -1.4799  1.7376
 1780SOL     OW 6238   3.633   4.801   5.247 -0.5940 -0.2964  0.0146
 1780SOL    HW1 6239   3.644   4.708   5.281  0.7583 -0.7367 -1.4889
 1780SOL    HW2 6240   3.538   4.830   5.259 -0.9549 -1.7081  0.8467
 1781SOL     OW 6241   3.161   0.274   4.794 -0.0075  0.3084 -0.1026
 1781SOL    HW1 6242   3.065   0.294   4.774 -0.3452 -1.0568  0.0820
 1781SOL    HW2 6243   3.178   0.287   4.892 -0.3856 -0.8692  0.1319
 1782SOL     OW 6244   6.989   0.650   2.076  0.1373 -0.5133  0.5747
 1782SOL    HW1 6245   7.046   0.568   2.085 -0.0604 -0.6236  0.8337
 1782SOL    HW2 6246   6.934   0.662   2.159  0.7651  0.3406  0.8806
 1783SOL     OW 6247   0.723   2.603   6.570  0.0974 -0.5249  0.2627
 1783SOL    HW1 6248   0.803   2.557   6.530 -0.4895 -0.4720 -1.0016
 1783SOL    HW2 6249   0.643   2.544   6.561 -0.1350 -0.3371  1.0161
 1784SOL     OW 6250   3.307   6.673   0.718 -0.2990  0.1762 -0.0551
 1784SOL    HW1 6251   3.404   6.660   0.695 -0.8741 -3.0331 -1.1430
 1784SOL    HW2 6252   3.273   6.593   0.767 -2.1142  1.8870  1.6867
 1785SOL     OW 6253   1.800   5.490   4.453 -0.1943 -0.1537  0.2190
 1785SOL    HW1 6254   1.754   5.552   4.517  0.2571 -1.6682  2.1042
 1785SOL    HW2 6255   1.760   5.399   4.462  1.9697 -1.1129  0.6600
 1786SOL     OW 6256   0.952   6.655   1.851 -0.6085  0.1009 -0.0022
 1786SOL    HW1 6257   1.010   6.583   1.888  3.1087  4.2352  3.2663
 1786SOL    HW2 6258   0.883   6.681   1.919 -0.7006  0.8384 -0.3602
 1787SOL     OW 6259   2.171   1.842   6.900 -0.4448 -0.4987  0.0309
 1787SOL    HW1 6260   2.201   1.925   6.853  0.6361 -0.4636  0.7352
 1787SOL    HW2 6261   2.200   1.762   6.848  0.9627 -0.4660  0.7006
 1788SOL     OW 6262   3.287   3.957   0.368 -0.6102 -0.0600  0.2654
 1788SOL    HW1 6263   3.375   3.982   0.409 -0.9913  0.1268  0.9858
 1788SOL    HW2 6264   3.214   3.972   0.434 -1.0424 -1.5182  0.1503
 1789SOL     OW 6265   5.248   2.505   4.098 -0.2532  0.1955  0.4603
 1789SOL    HW1 6266   5.183   2.437   4.131  0.6695 -0.1456  1.6788
 1789SOL    HW2 6267   5.204   2.566   4.032 -1.6248 -0.3825  0.8259
 1790SOL     OW 6268   2.545   2.146   4.676 -0.0726 -0.3792  0.1319
 1790SOL    HW1 6269   2.532   2.074   4.743  0.5168 -0.0112  0.6538
 1790SOL    HW2 6270   2.476   2.218   4.690 -1.2869 -1.2773 -1.0152
 1791SOL     OW 6271   6.402   0.148   4.246 -0.0026  0.1322  0.5068
 1791SOL    HW1 6272   6.355   0.095   4.175 -1.0704  0.4736  0.9408
 1791SOL    HW2 6273   6.399   0.245   4.222  1.7454  0.0435 -0.1707
 1792SOL     OW 6274   0.562   3.899   0.021  0.4956  0.3018 -0.1119
 1792SOL    HW1 6275   0.616   3.966   0.070  0.8934  0.1082 -0.2805
 1792SOL    HW2 6276   0.589   3.898  -0.076 -0.4406  0.8458 -0.3902
 1793SOL     OW 6277   2.489   2.222   5.159 -0.0714  0.8127  0.4854
 1793SOL    HW1 6278   2.572   2.177   5.124 -0.0596 -0.7795  2.4202
 1793SOL    HW2 6279   2.410   2.193   5.105  0.4334  1.3904 -0.5981
 1794SOL     OW 6280   1.892   2.086   6.268 -0.0752  0.1991  0.6272
 1794SOL    HW1 6281   1.878   2.145   6.348  0.3687 -0.9956  1.6260
 1794SOL    HW2 6282   1.975   2.115   6.220  0.2467  0.2732  1.2197
 1795SOL     OW 6283   6.417   3.717   2.422 -0.4098  0.4377 -0.2165
 1795SOL    HW1 6284   6.386   3.662   2.345 -0.3136  0.4366 -0.2543
 1795SOL    HW2 6285   6.374   3.684   2.506 -0.8267  0.6965 -0.3257
 1796SOL     OW 6286   1.103   5.840   5.827  0.5249  0.0326  0.1555
 1796SOL    HW1 6287   1.121   5.761   5.769  1.4787  0.4091 -0.0794
 1796SOL    HW2 6288   1.173   5.845   5.898  1.1085  1.2603 -0.4755
 1797SOL     OW 6289   2.089   6.998   5.572  0.5437  0.0037  0.1214
 1797SOL    HW1 6290   2.109   7.049   5.488  0.9136 -0.0167  0.1916
 1797SOL    HW2 6291   2.109   6.901   5.557 -0.5990 -0.2031 -0.1565
 1798SOL     OW 6292   5.135   5.278   6.442 -0.8922  0.4025 -0.4251
 1798SOL    HW1 6293   5.079   5.204   6.479 -0.9433  0.9820  0.6770
 1798SOL    HW2 6294   5.226   5.242   6.421  0.5471  0.7980  4.0975
 1799SOL     OW 6295   5.135   1.456   1.095  0.3095 -0.0385  0.1947
 1799SOL    HW1 6296   5.056   1.457   1.156  0.1539 -0.5296  0.0028
 1799SOL    HW2 6297   5.218   1.473   1.148  0.0426  0.8551  0.3412
 1800SOL     OW 6298   4.947   1.218   5.783  0.2724  0.0507 -0.0947
 1800SOL    HW1 6299   4.977   1.160   5.859 -0.3844  1.0211  0.9326
 1800SOL    HW2 6300   4.848   1.211   5.772  0.0969  1.3769  0.4246
 1801SOL     OW 6301   1.761   1.084   1.676 -0.7571 -0.5846  0.2037
 1801SOL    HW1 6302   1.830   1.157   1.678  1.0206 -2.1820  0.0838
 1801SOL    HW2 6303   1.730   1.070   1.582  0.8144 -1.6583 -0.1847
 1802SOL     OW 6304   1.045   4.164   3.386  0.5028 -0.6586 -0.3254
 1802SOL    HW1 6305   0.978   4.212   3.443 -0.0107 -1.6591 -0.0761
 1802SOL    HW2 6306   1.104   4.108   3.445  1.2202 -0.2082 -0.5970
 1803SOL     OW 6307   5.693   0.220   4.874  0.3638 -0.4845 -0.0062
 1803SOL    HW1 6308   5.657   0.130   4.895  1.1388 -0.2713  2.6857
 1803SOL    HW2 6309   5.770   0.212   4.811 -0.3409 -1.5414 -0.7608
 1804SOL     OW 6310   0.894   0.980   6.624 -0.1933 -0.4417 -0.3257
 1804SOL    HW1 6311   0.847   1.013   6.705 -2.7920 -5.3313  0.5378
 1804SOL    HW2 6312   0.990   0.963   6.645 -0.3395  0.3237  1.0355
 1805SOL     OW 6313   5.197   4.944   4.874  0.5367  0.5196  0.0863
 1805SOL    HW1 6314   5.125   4.884   4.838  0.7224  1.1123 -1.3298
 1805SOL    HW2 6315   5.158   5.035   4.892  0.9353  0.8746 -0.7918
 1806SOL     OW 6316   1.129   1.642   3.066  0.0861 -0.5053  0.4198
 1806SOL    HW1 6317   1.164   1.668   3.156 -0.4923 -0.7859  0.7366
 1806SOL    HW2 6318   1.029   1.637   3.070  0.1104 -1.6699  0.0903
 1807SOL     OW 6319   6.409   1.781   2.877  0.0772  0.6567  0.2369
 1807SOL    HW1 6320   6.483   1.726   2.915  1.2798  0.2634 -2.4100
 1807SOL    HW2 6321   6.407   1.871   2.922  0.8430 -0.0326  1.7119
 1808SOL     OW 6322   4.878   2.365   6.695 -0.2624  0.1789  0.2237
 1808SOL    HW1 6323   4.793   2.392   6.650 -0.5873 -0.2738  0.5441
 1808SOL    HW2 6324   4.942   2.441   6.696 -0.1068  0.1011 -1.3122
 1809SOL     OW 6325   4.076   0.465   6.196 -0.3566 -0.0993  1.1526
 1809SOL    HW1 6326   4.066   0.527   6.274 -2.6944  0.4894  0.4633
 1809SOL    HW2 6327   4.066   0.371   6.228 -1.0590  0.1199  1.6041
 1810SOL     OW 6328   0.212   1.334   4.703  0.1917 -0.6992  0.3991
 1810SOL    HW1 6329   0.141   1.323   4.635 -1.2839 -0.0967  1.7817
 1810SOL    HW2 6330   0.211   1.428   4.738  1.8055 -0.6199  0.3202
 1811SOL     OW 6331   2.167   5.972   1.529  0.4155 -0.3130  0.1563
 1811SOL    HW1 6332   2.175   5.883   1.484 -1.1460 -0.7474  0.6517
 1811SOL    HW2 6333   2.196   5.964   1.624 -0.0396 -0.3969  0.2935
 1812SOL     OW 6334   3.219   1.219   6.703 -0.1756 -0.5240 -0.1517
 1812SOL    HW1 6335   3.135   1.191   6.657 -1.0935  0.5209  0.8374
 1812SOL    HW2 6336   3.259   1.298   6.655 -0.2304 -0.4743 -0.1153
 1813SOL     OW 6337   6.074   2.240   0.618  0.6155 -0.9996  0.3676
 1813SOL    HW1 6338   6.031   2.307   0.557  0.2371 -0.3785  1.2950
 1813SOL    HW2 6339   6.090   2.282   0.707  1.8892 -1.6478  0.4654
 1814SOL     OW 6340   0.298   1.145   1.315 -0.3905 -0.7608  0.2307
 1814SOL    HW1 6341   0.340   1.056   1.331  0.5914 -0.2484  0.5983
 1814SOL    HW2 6342   0.290   1.161   1.216  1.2020 -0.4761  0.1151
 1815SOL     OW 6343   6.337   5.616   2.546 -0.2410 -0.6494  0.5657
 1815SOL    HW1 6344   6.404   5.678   2.506 -1.2603  0.1850  0.1133
 1815SOL    HW2 6345   6.344   5.527   2.501  0.7343 -0.6570  0.7117
 1816SOL     OW 6346   2.546   4.908   4.737  0.1067 -0.8452 -0.2112
 1816SOL    HW1 6347   2.616   4.840   4.760  1.1637  0.8300  1.8928
 1816SOL    HW2 6348   2.463   4.890   4.790  0.4937 -0.3660  0.5807
 1817SOL     OW 6349   7.009   4.508   3.524 -0.1858 -0.0527  0.4406
 1817SOL    HW1 6350   7.063   4.541   3.447 -1.8018 -1.2256 -1.2861
 1817SOL    HW2 6351   7.018   4.408   3.530 -0.3949 -0.0154  1.5486
 1818SOL     OW 6352   3.341   0.075   5.747  0.0969 -0.3062  0.2548
 1818SOL    HW1 6353   3.404   0.001   5.722 -0.0108 -0.8054  1.3794
 1818SOL    HW2 6354   3.267   0.080   5.680  1.9251  1.1058 -1.8018
 1819SOL     OW 6355   1.307   3.787   0.012  0.3806  0.1481  0.0266
 1819SOL    HW1 6356   1.402   3.801  -0.016  1.0481 -0.7931  1.7022
 1819SOL    HW2 6357   1.248   3.790  -0.069  1.7154  1.5650 -0.9529
 1820SOL     OW 6358   2.926   0.229   3.839  0.5354 -0.1550 -0.3830
 1820SOL    HW1 6359   2.831   0.200   3.848  0.0185  1.8566  1.9992
 1820SOL    HW2 6360   2.975   0.207   3.923  0.5179  3.8977  0.9136
 1821SOL     OW 6361   4.561   1.184   2.069 -0.1348  0.4253 -0.3783
 1821SOL    HW1 6362   4.487   1.119   2.052  0.6164 -0.6512  0.2908
 1821SOL    HW2 6363   4.638   1.163   2.009  0.1060  0.7023 -0.1716
 1822SOL     OW 6364   1.244   3.281   3.616 -0.0768 -0.6741 -0.5140
 1822SOL    HW1 6365   1.209   3.187   3.618  1.7843 -1.4030 -0.3871
 1822SOL    HW2 6366   1.313   3.290   3.545 -0.0407  0.5383 -0.3485
 1823SOL     OW 6367   3.655   0.735   5.653  0.4133 -0.2423  0.6901
 1823SOL    HW1 6368   3.660   0.784   5.566  1.3263 -1.2409  0.1583
 1823SOL    HW2 6369   3.587   0.662   5.647  0.3029 -0.1608  0.9082
 1824SOL     OW 6370   6.112   2.856   2.997  0.1581  0.1748 -0.2806
 1824SOL    HW1 6371   6.192   2.869   2.938 -0.5620 -0.1559 -1.3676
 1824SOL    HW2 6372   6.082   2.761   2.992 -0.3386  0.3094  0.0606
 1825SOL     OW 6373   2.579   5.071   0.206  0.2444 -0.0175  0.1512
 1825SOL    HW1 6374   2.563   4.995   0.269 -0.1722  1.4055  1.8326
 1825SOL    HW2 6375   2.593   5.035   0.113  6.0175 -2.7207  1.6232
 1826SOL     OW 6376   4.772   3.099   0.329  0.1937  0.9064 -0.5302
 1826SOL    HW1 6377   4.756   3.045   0.246 -2.4183  0.8489 -0.0859
 1826SOL    HW2 6378   4.870   3.118   0.338  0.6426  0.3341 -3.2304
 1827SOL     OW 6379   3.960   4.711   0.195 -0.1580  0.0964 -0.6898
 1827SOL    HW1 6380   3.955   4.645   0.270 -1.8048  0.2049 -0.6658
 1827SOL    HW2 6381   3.931   4.801   0.228 -0.7868  0.1729 -1.4155
 1828SOL     OW 6382   2.381   6.625   4.955 -0.4048  0.3158 -0.0522
 1828SOL    HW1 6383   2.317   6.698   4.979  0.0383  0.0593  2.1384
 1828SOL    HW2 6384   2.347   6.575   4.875 -2.3231  0.9190  0.3411
 1829SOL     OW 6385   2.195   5.569   3.602  0.4469 -0.0019  0.0323
 1829SOL    HW1 6386   2.172   5.618   3.686 -1.2001  1.7355 -1.3300
 1829SOL    HW2 6387   2.149   5.480   3.602 -0.7400  0.5855  0.3646
 1830SOL     OW 6388   5.416   2.928   5.333  0.3419  0.1766 -0.1424
 1830SOL    HW1 6389   5.471   2.974   5.263  1.5395  1.0553  1.2976
 1830SOL    HW2 6390   5.320   2.928   5.305  0.7576  0.6174 -1.7019
 1831SOL     OW 6391   3.925   2.458   0.897 -0.4795  0.4491 -0.4672
 1831SOL    HW1 6392   3.865   2.417   0.966  1.8153 -0.6657  1.0053
 1831SOL    HW2 6393   3.967   2.385   0.842  1.2882  0.9728  0.1186
 1832SOL     OW 6394   2.570   0.593   5.401  0.1318  0.8159 -0.2420
 1832SOL    HW1 6395   2.528   0.538   5.328 -0.6932  1.4680 -0.2784
 1832SOL    HW2 6396   2.507   0.665   5.428  1.1910  1.7368 -0.1770
 1833SOL     OW 6397   6.041   2.709   0.097  0.4432 -0.0613 -0.2205
 1833SOL    HW1 6398   6.071   2.688   0.190  0.7379 -1.4457 -0.6044
 1833SOL    HW2 6399   5.987   2.793   0.098 -0.1397 -0.4133  1.3005
 1834SOL     OW 6400   0.933   3.786   5.597  0.1693 -0.1649 -0.7220
 1834SOL    HW1 6401   0.980   3.850   5.537  1.8756 -0.7909 -0.1102
 1834SOL    HW2 6402   0.836   3.810   5.602  0.4996  1.4812 -1.6176
 1835SOL     OW 6403   4.963   0.921   5.386  0.5397 -0.5935  0.0102
 1835SOL    HW1 6404   4.915   0.906   5.472 -2.0393  1.3371 -0.9621
 1835SOL    HW2 6405   4.900   0.909   5.310  2.1404  0.0790 -1.4943
 1836SOL     OW 6406   6.681   0.310   4.642  0.8092 -0.2161 -0.1644
 1836SOL    HW1 6407   6.666   0.394   4.590  1.0480  0.7124  1.1972
 1836SOL    HW2 6408   6.674   0.231   4.581  0.8854  0.7992 -1.5396
 1837SOL     OW 6409   1.175   1.564   0.558 -0.2687  0.0860 -0.4148
 1837SOL    HW1 6410   1.132   1.603   0.477  2.0647 -0.6094 -2.0863
 1837SOL    HW2 6411   1.151   1.467   0.564  0.6766 -0.2038 -1.1153
 1838SOL     OW 6412   3.746   0.301   6.865  0.0238 -0.3924 -0.5259
 1838SOL    HW1 6413   3.648   0.297   6.848  0.0284  0.1618 -0.7180
 1838SOL    HW2 6414   3.792   0.227   6.816 -0.2213 -0.2093 -1.0352
 1839SOL     OW 6415   6.543   1.090   0.670  0.2377  0.2023 -0.0051
 1839SOL    HW1 6416   6.470   1.078   0.602  1.1214  1.8137 -1.2943
 1839SOL    HW2 6417   6.628   1.052   0.634  0.4745  0.0708  0.6866
 1840SOL     OW 6418   2.365   0.142   6.297  0.3641 -0.0863 -0.6350
 1840SOL    HW1 6419   2.453   0.183   6.323  0.4293 -0.2278 -0.6330
 1840SOL    HW2 6420   2.294   0.175   6.359  0.6174 -0.8621  0.0829
 1841SOL     OW 6421   3.098   6.627   1.704 -0.4648 -0.4522 -0.5076
 1841SOL    HW1 6422   3.100   6.688   1.625  0.1701  0.5216  0.2314
 1841SOL    HW2 6423   3.029   6.660   1.769  0.6018  0.1319  0.3733
 1842SOL     OW 6424   0.225   4.102   2.216  0.6137 -0.0640  0.2127
 1842SOL    HW1 6425   0.244   4.162   2.138 -0.6166 -1.6248 -1.3469
 1842SOL    HW2 6426   0.127   4.091   2.227  0.8111 -1.3162  0.8612
 1843SOL     OW 6427   3.745   6.608   7.000 -0.2681 -0.0608 -0.1551
 1843SOL    HW1 6428   3.841   6.632   7.013 -0.0258 -1.6759  1.6145
 1843SOL    HW2 6429   3.737   6.536   6.931 -0.1601 -0.1764 -0.0472
 1844SOL     OW 6430   4.938   3.211   1.063 -0.0781 -0.8356 -0.0904
 1844SOL    HW1 6431   4.940   3.169   1.153 -0.5997  1.1877  0.9262
 1844SOL    HW2 6432   4.850   3.193   1.019 -0.0210 -1.3929  0.0190
 1845SOL     OW 6433   1.745   2.283   4.540 -0.9515  0.1154  0.3551
 1845SOL    HW1 6434   1.825   2.225   4.532  0.5455  2.0033  0.7542
 1845SOL    HW2 6435   1.753   2.340   4.623 -1.0733  2.6318 -1.2469
 1846SOL     OW 6436   3.452   1.342   1.371  0.0665 -0.1458 -0.4432
 1846SOL    HW1 6437   3.482   1.292   1.290 -1.3430 -0.4546 -0.8017
 1846SOL    HW2 6438   3.361   1.381   1.354  0.4122  1.0951  0.4436
 1847SOL     OW 6439   2.224   5.837   6.157 -0.6563 -0.7050 -0.3245
 1847SOL    HW1 6440   2.315   5.878   6.148 -0.8974 -0.3748 -1.3840
 1847SOL    HW2 6441   2.173   5.851   6.072 -1.6949 -0.8988  0.2582
 1848SOL     OW 6442   1.671   5.673   4.630 -0.3739 -0.4579  0.1682
 1848SOL    HW1 6443   1.657   5.714   4.719  0.3463  2.1553 -0.8412
 1848SOL    HW2 6444   1.591   5.619   4.605 -0.9782 -0.4376  1.9451
 1849SOL     OW 6445   6.519   2.471   2.571  0.1236 -0.1699  0.6120
 1849SOL    HW1 6446   6.590   2.500   2.635  0.0931 -0.0497  0.5924
 1849SOL    HW2 6447   6.561   2.425   2.493  0.3942  1.9356 -0.5523
 1850SOL     OW 6448   6.500   1.165   2.455 -0.0814  0.1219  0.7125
 1850SOL    HW1 6449   6.438   1.212   2.519 -1.1002 -1.3303  0.8457
 1850SOL    HW2 6450   6.446   1.125   2.381  0.7294 -0.8999  0.6557
 1851SOL     OW 6451   1.855   5.456   3.105  0.2422 -0.3274 -0.1389
 1851SOL    HW1 6452   1.877   5.498   3.193 -0.5893 -0.0743 -0.0431
 1851SOL    HW2 6453   1.765   5.486   3.075 -0.5915 -2.3555  0.1446
 1852SOL     OW 6454   5.972   6.632   5.741  0.0707 -0.1939  0.2125
 1852SOL    HW1 6455   5.897   6.566   5.738 -1.1313  1.1418 -1.2435
 1852SOL    HW2 6456   6.059   6.584   5.747 -0.5848 -2.1348 -3.0503
 1853SOL     OW 6457   1.525   0.827   3.898 -0.2111 -0.4014  0.1673
 1853SOL    HW1 6458   1.466   0.803   3.974 -0.6174 -0.5215 -0.1811
 1853SOL    HW2 6459   1.479   0.893   3.839  0.5869  0.6428  0.6881
 1854SOL     OW 6460   1.530   0.378   3.836 -0.6845  0.1365  0.2328
 1854SOL    HW1 6461   1.502   0.304   3.896 -0.8264  2.0472  2.7033
 1854SOL    HW2 6462   1.629   0.383   3.832 -0.6756 -0.2770 -0.0633
 1855SOL     OW 6463   5.323   0.558   0.008  0.4560 -0.2586 -0.1087
 1855SOL    HW1 6464   5.370   0.470   0.015 -1.8526 -1.4862  1.0739
 1855SOL    HW2 6465   5.287   0.570  -0.085  0.7418 -0.5929 -0.2641
 1856SOL     OW 6466   4.506   3.915   5.810  0.6137 -0.0311 -0.3394
 1856SOL    HW1 6467   4.482   3.986   5.744 -0.9114 -0.1371  0.0622
 1856SOL    HW2 6468   4.592   3.872   5.783  1.6873  2.0646 -0.4978
 1857SOL     OW 6469   5.141   1.301   5.616  0.6578  0.2754 -0.1282
 1857SOL    HW1 6470   5.064   1.265   5.668  0.0925  1.4549 -0.1080
 1857SOL    HW2 6471   5.111   1.379   5.561  1.5131 -0.1834 -1.2938
 1858SOL     OW 6472   1.923   1.836   3.402  0.0695  0.1394  0.5812
 1858SOL    HW1 6473   1.838   1.787   3.386  0.5853 -0.3586 -0.7952
 1858SOL    HW2 6474   1.918   1.885   3.489 -1.1893 -0.7807  1.0455
 1859SOL     OW 6475   6.326   1.104   3.746 -0.2918  0.6872  0.2705
 1859SOL    HW1 6476   6.330   1.012   3.707  3.1175  1.8253 -2.5922
 1859SOL    HW2 6477   6.244   1.150   3.713 -2.0714 -1.1886  1.7660
 1860SOL     OW 6478   2.620   6.451   1.365  0.3261 -0.4872 -0.2830
 1860SOL    HW1 6479   2.605   6.530   1.425  2.0563  0.1446 -0.6225
 1860SOL    HW2 6480   2.542   6.389   1.372  0.0378  0.0342  1.8803
 1861SOL     OW 6481   6.660   1.877   6.663 -0.1775 -0.7544 -0.2377
 1861SOL    HW1 6482   6.599   1.925   6.726  0.5304 -2.0429  1.5071
 1861SOL    HW2 6483   6.662   1.926   6.575 -1.3240  1.0119  0.6544
 1862SOL     OW 6484   5.519   4.026   6.947 -0.1067  0.3496  0.3218
 1862SOL    HW1 6485   5.450   3.955   6.960 -0.9210  1.1738  0.6155
 1862SOL    HW2 6486   5.549   4.027   6.851  0.2548 -0.6796  0.4147
 1863SOL     OW 6487   5.433   2.037   6.299  0.1774  0.3822  0.3055
 1863SOL    HW1 6488   5.444   2.102   6.223  1.3414 -1.3461 -1.0716
 1863SOL    HW2 6489   5.336   2.032   6.323 -0.1138  1.5950 -0.4914
 1864SOL     OW 6490   4.220   5.753   4.020  0.1362 -0.2661 -0.0157
 1864SOL    HW1 6491   4.175   5.805   3.947  0.3950  1.1386  0.7843
 1864SOL    HW2 6492   4.270   5.816   4.080  1.0548 -1.5253  0.5984
 1865SOL     OW 6493   6.308   1.824   4.569 -0.0726 -0.3311 -0.4247
 1865SOL    HW1 6494   6.234   1.890   4.569 -0.0157 -0.2453  0.7502
 1865SOL    HW2 6495   6.270   1.731   4.569 -0.1601 -0.2986 -0.9963
 1866SOL     OW 6496   1.621   4.539   2.815  0.3068  1.2882 -0.3472
 1866SOL    HW1 6497   1.637   4.492   2.902 -1.3015  1.2942 -0.0227
 1866SOL    HW2 6498   1.576   4.477   2.751 -2.5088  2.4896  0.3249
 1867SOL     OW 6499   3.890   6.702   0.375  0.0845  0.0151 -0.1905
 1867SOL    HW1 6500   3.960   6.663   0.435  1.5950  1.0003 -1.2472
 1867SOL    HW2 6501   3.933   6.746   0.297 -1.5821  2.4987  0.1633
 1868SOL     OW 6502   6.877   2.707   5.122  0.1496  0.3107 -0.4571
 1868SOL    HW1 6503   6.811   2.722   5.195  1.4586  0.0487  0.8185
 1868SOL    HW2 6504   6.964   2.677   5.161 -0.1279 -3.5167 -2.2766
 1869SOL     OW 6505   4.963   2.320   4.455 -0.1023  0.3499  0.1450
 1869SOL    HW1 6506   4.991   2.405   4.500  0.2049  1.3986 -1.8990
 1869SOL    HW2 6507   4.887   2.279   4.505  0.1868  1.4547  1.5563
 1870SOL     OW 6508   6.190   1.490   0.044 -0.0777 -0.1903 -0.2374
 1870SOL    HW1 6509   6.179   1.512  -0.053 -1.2390 -0.1399 -0.1162
 1870SOL    HW2 6510   6.273   1.436   0.057  0.7550  0.8560 -1.0763
 1871SOL     OW 6511   1.944   4.485   0.716  0.6724 -0.4788  0.5831
 1871SOL    HW1 6512   1.889   4.553   0.669  1.0270 -1.0834 -0.7615
 1871SOL    HW2 6513   1.979   4.419   0.650  0.5106 -1.8564  1.8168
 1872SOL     OW 6514   2.069   3.497   4.885  0.3620 -0.3743 -0.2870
 1872SOL    HW1 6515   2.022   3.585   4.889 -0.3087 -0.7527  0.4661
 1872SOL    HW2 6516   2.081   3.469   4.790  0.1574  0.3130 -0.5142
 1873SOL     OW 6517   5.513   2.705   3.145 -0.3385  0.9566 -0.9069
 1873SOL    HW1 6518   5.476   2.700   3.238  0.4555 -0.0862 -0.6322
 1873SOL    HW2 6519   5.597   2.759   3.146 -0.4012  1.0573 -1.0505
 1874SOL     OW 6520   3.149   6.078   5.568 -0.1841 -0.8922 -0.0793
 1874SOL    HW1 6521   3.091   6.124   5.634 -1.2085 -2.3236  0.0808
 1874SOL    HW2 6522   3.242   6.071   5.604 -0.4234 -0.4855  0.6285
 1875SOL     OW 6523   3.929   6.027   1.038  0.2967 -0.7104 -0.0320
 1875SOL    HW1 6524   4.014   6.001   1.084  0.2064  0.7782  1.0629
 1875SOL    HW2 6525   3.905   6.121   1.062 -0.9314 -0.6083 -1.4437
 1876SOL     OW 6526   0.446   5.523   4.912 -0.1475 -0.2222  0.1924
 1876SOL    HW1 6527   0.475   5.606   4.960 -0.4719  0.3024 -0.5009
 1876SOL    HW2 6528   0.368   5.483   4.960  0.0903 -0.2006  0.6023
 1877SOL     OW 6529   6.548   0.312   6.259  0.1483 -0.2375  0.4816
 1877SOL    HW1 6530   6.452   0.333   6.240 -0.1028 -2.1962 -0.7402
 1877SOL    HW2 6531   6.591   0.276   6.176  2.0177  0.7786  0.9614
 1878SOL     OW 6532   5.498   3.499   4.874  0.0639 -0.3647  0.3285
 1878SOL    HW1 6533   5.408   3.542   4.886 -0.1981 -1.2271  1.7508
 1878SOL    HW2 6534   5.526   3.507   4.778 -1.1896  0.5643  0.0056
 1879SOL     OW 6535   3.573   5.504   4.376  0.3415  0.2800 -0.3196
 1879SOL    HW1 6536   3.592   5.467   4.467  0.0045 -0.9509 -0.7279
 1879SOL    HW2 6537   3.525   5.435   4.322 -1.1296  1.6555 -0.8345
 1880SOL     OW 6538   2.717   4.792   3.818 -0.1491  0.2283 -0.0997
 1880SOL    HW1 6539   2.676   4.714   3.770 -1.3086  0.2746  0.7639
 1880SOL    HW2 6540   2.737   4.766   3.912 -2.0795  1.3896  0.7017
 1881SOL     OW 6541   3.956   1.027   3.500  0.0733  0.2988  0.1805
 1881SOL    HW1 6542   3.962   0.997   3.595 -2.0669  0.1623  0.3074
 1881SOL    HW2 6543   3.909   1.115   3.496  3.3137  2.1594 -0.4949
 1882SOL     OW 6544   4.568   0.289   6.700  0.3578  0.0747  0.1178
 1882SOL    HW1 6545   4.531   0.232   6.773 -0.2008 -1.1015 -1.0643
 1882SOL    HW2 6546   4.576   0.236   6.616  0.6816  1.4937 -0.7851
 1883SOL     OW 6547   2.037   3.331   2.680  0.7516 -0.0649 -0.0655
 1883SOL    HW1 6548   1.998   3.367   2.595  1.7129 -0.3786 -0.6526
 1883SOL    HW2 6549   2.098   3.255   2.659  1.5384  0.2978  0.8342
 1884SOL     OW 6550   5.362   0.209   0.713 -0.1222  0.2231  0.3443
 1884SOL    HW1 6551   5.426   0.215   0.636 -1.6340  1.6650 -0.8773
 1884SOL    HW2 6552   5.413   0.195   0.798  1.8483  1.8360 -0.4961
 1885SOL     OW 6553   0.297   3.502   6.423 -0.1495 -0.6253 -0.0603
 1885SOL    HW1 6554   0.365   3.445   6.377  0.4391  1.5571 -2.0786
 1885SOL    HW2 6555   0.343   3.574   6.475 -0.8949 -0.5909  0.5738
 1886SOL     OW 6556   3.957   3.112   4.363  0.7323  0.5007 -0.2953
 1886SOL    HW1 6557   4.001   3.164   4.290 -1.3446  2.1232 -0.4880
 1886SOL    HW2 6558   3.964   3.162   4.449  0.0833  0.3461 -0.1428
 1887SOL     OW 6559   0.693   6.103   6.538  0.2238 -0.1123 -0.3235
 1887SOL    HW1 6560   0.725   6.011   6.515  1.9523 -0.2857  2.2738
 1887SOL    HW2 6561   0.711   6.165   6.462  0.1017 -1.6480 -1.6716
 1888SOL     OW 6562   6.456   1.082   5.198  0.4685  0.0696  0.2428
 1888SOL    HW1 6563   6.538   1.030   5.222  1.1880  0.5673 -1.0551
 1888SOL    HW2 6564   6.437   1.071   5.101 -0.0639  1.2710  0.1987
 1889SOL     OW 6565   4.157   5.541   6.555 -0.7625 -0.1125  0.4018
 1889SOL    HW1 6566   4.122   5.501   6.640  0.3315  1.5090  1.6608
 1889SOL    HW2 6567   4.110   5.628   6.537  1.5609  1.4241  1.3926
 1890SOL     OW 6568   6.504   6.727   5.706 -0.0069  0.1342 -0.0441
 1890SOL    HW1 6569   6.559   6.791   5.761 -1.2210  1.5155 -0.3587
 1890SOL    HW2 6570   6.540   6.724   5.613  0.7697 -0.5797  0.2643
 1891SOL     OW 6571   5.719   3.113   6.586  0.2428  0.0661  0.2722
 1891SOL    HW1 6572   5.619   3.104   6.582  0.2088  0.1224  0.8688
 1891SOL    HW2 6573   5.760   3.022   6.592  0.2710  0.0060 -0.7263
 1892SOL     OW 6574   3.738   0.300   3.050  0.0482  0.0677 -0.0959
 1892SOL    HW1 6575   3.773   0.374   2.993  1.6380 -1.0490 -0.6300
 1892SOL    HW2 6576   3.745   0.213   3.000 -0.1562 -0.6889  1.1457
 1893SOL     OW 6577   2.360   4.066   0.158 -0.5981  0.2188 -0.1268
 1893SOL    HW1 6578   2.429   4.084   0.087  0.5447  1.6677  1.2614
 1893SOL    HW2 6579   2.387   3.985   0.211 -0.1831  0.5173  0.1265
 1894SOL     OW 6580   5.311   3.467   0.899  0.0159  0.3384  0.0662
 1894SOL    HW1 6581   5.352   3.415   0.974  1.0260  0.3696 -0.4491
 1894SOL    HW2 6582   5.217   3.437   0.885  0.4439 -1.0519  0.0562
 1895SOL     OW 6583   5.775   6.446   4.469 -0.3684 -0.0014  0.3120
 1895SOL    HW1 6584   5.783   6.409   4.562  0.5831  0.9722  0.6367
 1895SOL    HW2 6585   5.866   6.467   4.434 -0.8059  0.8602 -0.3466
 1896SOL     OW 6586   1.533   2.424   4.696 -0.1511 -0.0291  0.0951
 1896SOL    HW1 6587   1.546   2.465   4.606  0.9201 -1.1446 -0.2916
 1896SOL    HW2 6588   1.622   2.409   4.739 -0.6778  1.0612  1.6217
 1897SOL     OW 6589   5.383   4.237   6.081  0.3393 -0.2212  0.1945
 1897SOL    HW1 6590   5.291   4.265   6.110  0.7297  1.2315  0.0817
 1897SOL    HW2 6591   5.450   4.302   6.117  1.2800 -0.9892 -0.1453
 1898SOL     OW 6592   5.633   6.164   6.108 -0.9235 -0.2257  0.4738
 1898SOL    HW1 6593   5.548   6.116   6.129 -0.2650 -2.5888 -1.7398
 1898SOL    HW2 6594   5.710   6.104   6.127  0.3949  2.0529  2.9465
 1899SOL     OW 6595   0.195   2.914   6.722  0.0484  0.0092 -0.2565
 1899SOL    HW1 6596   0.293   2.918   6.703 -0.1772  0.0401 -1.5182
 1899SOL    HW2 6597   0.168   2.820   6.739  0.1919 -0.0878 -0.5580
 1900SOL     OW 6598   0.658   6.665   1.251 -0.3289 -0.1420 -0.0147
 1900SOL    HW1 6599   0.719   6.601   1.205 -0.5223 -0.3515  0.0180
 1900SOL    HW2 6600   0.573   6.674   1.200 -1.0110 -1.2475  0.8755
 1901SOL     OW 6601   6.040   0.216   1.835 -0.3879 -0.0017 -0.1279
 1901SOL    HW1 6602   6.119   0.191   1.891 -0.2314 -0.1649 -0.4219
 1901SOL    HW2 6603   6.058   0.193   1.739 -0.2291  1.2537 -0.4099
 1902SOL     OW 6604   2.179   3.060   4.731  0.2018  0.0281 -0.0061
 1902SOL    HW1 6605   2.259   3.097   4.777 -0.5112  1.2816  0.2853
 1902SOL    HW2 6606   2.098   3.074   4.788 -0.5663  0.8430 -1.2491
 1903SOL     OW 6607   6.760   1.039   4.692  0.1540  0.4589  0.3733
 1903SOL    HW1 6608   6.800   0.950   4.714 -2.3088 -0.7320  0.4137
 1903SOL    HW2 6609   6.832   1.103   4.667  2.1355 -1.1248  1.7177
 1904SOL     OW 6610   1.239   0.049   4.468 -0.1348  0.1736  0.5357
 1904SOL    HW1 6611   1.141   0.030   4.457 -0.2408  1.0643 -0.2019
 1904SOL    HW2 6612   1.256   0.146   4.451  1.0709 -0.2172 -0.6319
 1905SOL     OW 6613   1.142   3.813   5.207  0.6135 -0.0452  0.6386
 1905SOL    HW1 6614   1.052   3.769   5.200  0.4300  0.0580  1.9878
 1905SOL    HW2 6615   1.208   3.748   5.245  0.7542  0.3243  1.0304
 1906SOL     OW 6616   2.867   0.183   4.209  0.1951 -0.5204  0.3050
 1906SOL    HW1 6617   2.794   0.226   4.155  3.1003  1.5544 -2.3439
 1906SOL    HW2 6618   2.849   0.085   4.218 -0.7982 -0.9666 -4.2108
 1907SOL     OW 6619   4.603   1.658   3.338  0.1072 -0.1342 -0.4273
 1907SOL    HW1 6620   4.572   1.588   3.403  0.9585  0.5949  0.8091
 1907SOL    HW2 6621   4.701   1.647   3.323 -0.0637 -0.2390 -1.5551
 1908SOL     OW 6622   4.497   4.890   1.122  0.2480  0.0009 -0.2276
 1908SOL    HW1 6623   4.478   4.818   1.055  0.3995 -0.8526  0.6344
 1908SOL    HW2 6624   4.465   4.978   1.086 -2.9762 -0.9433  0.0378
 1909SOL     OW 6625   5.074   6.278   4.802  0.3473 -0.4385 -0.3603
 1909SOL    HW1 6626   5.139   6.240   4.736 -0.3922  0.1771 -1.4907
 1909SOL    HW2 6627   4.984   6.284   4.759 -0.2657 -0.4510  0.8803
 1910SOL     OW 6628   5.387   3.705   4.396 -0.3923 -0.1137 -0.3945
 1910SOL    HW1 6629   5.417   3.610   4.383 -1.4847 -0.5037 -0.1690
 1910SOL    HW2 6630   5.460   3.767   4.368  0.6392 -1.0252  0.1972
 1911SOL     OW 6631   1.965   2.766   5.872 -0.2379  0.1606 -0.0395
 1911SOL    HW1 6632   2.054   2.802   5.843 -0.0504 -0.7028 -0.5471
 1911SOL    HW2 6633   1.978   2.684   5.927 -0.7537 -0.5003 -0.8893
 1912SOL     OW 6634   3.668   1.476   2.958 -0.2643  0.6874 -0.4463
 1912SOL    HW1 6635   3.582   1.480   3.009  1.0802  0.6002  2.0327
 1912SOL    HW2 6636   3.740   1.520   3.013  1.1018  1.6396 -2.8580
 1913SOL     OW 6637   3.932   4.560   1.113  0.0176  0.5591  0.4427
 1913SOL    HW1 6638   3.860   4.499   1.081  0.5904 -1.1837  2.2508
 1913SOL    HW2 6639   3.933   4.561   1.213  2.1771  0.9059  0.4685
 1914SOL     OW 6640   4.694   2.497   5.674  0.0315 -0.2934  0.1091
 1914SOL    HW1 6641   4.754   2.429   5.632 -0.3515 -0.8044  0.3743
 1914SOL    HW2 6642   4.742   2.543   5.748  0.2631 -0.3390 -0.0121
 1915SOL     OW 6643   2.703   5.680   4.994  0.9282  0.4791  0.2511
 1915SOL    HW1 6644   2.701   5.586   4.961  0.7548 -0.6202  3.1347
 1915SOL    HW2 6645   2.630   5.732   4.951  0.5281 -0.9076 -0.8237
 1916SOL     OW 6646   4.358   0.784   3.246 -0.3690 -0.2026 -0.0864
 1916SOL    HW1 6647   4.260   0.805   3.247 -0.6837 -1.5544  1.5216
 1916SOL    HW2 6648   4.373   0.700   3.194  0.0387  0.3239 -0.8444
 1917SOL     OW 6649   3.024   2.619   1.661  0.0212  0.1162  0.0453
 1917SOL    HW1 6650   2.979   2.576   1.740 -1.0846  3.4722  1.4534
 1917SOL    HW2 6651   3.116   2.647   1.687 -0.5065  1.6462  0.4209
 1918SOL     OW 6652   0.819   0.290   5.069  0.3308  0.8102 -0.0936
 1918SOL    HW1 6653   0.734   0.295   5.017 -0.6009  0.4774  1.3319
 1918SOL    HW2 6654   0.873   0.212   5.037 -0.2338  0.5891 -0.5280
 1919SOL     OW 6655   5.491   1.756   1.365 -0.3181  0.6247  0.5249
 1919SOL    HW1 6656   5.430   1.834   1.379  0.4383  1.7491 -1.8280
 1919SOL    HW2 6657   5.584   1.782   1.392 -0.0254  0.6647 -0.4572
 1920SOL     OW 6658   5.655   6.873   5.847  0.0394 -0.0019 -0.1812
 1920SOL    HW1 6659   5.746   6.915   5.845  0.0750 -0.1062 -0.7186
 1920SOL    HW2 6660   5.602   6.903   5.768 -0.4229  0.1113  0.1667
 1921SOL     OW 6661   1.991   6.694   1.399  0.4448  0.0846  0.4139
 1921SOL    HW1 6662   2.071   6.712   1.342  1.2606 -1.7278  0.9436
 1921SOL    HW2 6663   1.994   6.752   1.480  1.1339  0.1398  0.3526
 1922SOL     OW 6664   3.879   3.758   0.316 -0.3269 -0.0384  0.3091
 1922SOL    HW1 6665   3.849   3.780   0.408 -1.4516 -0.7739  0.1354
 1922SOL    HW2 6666   3.922   3.668   0.316 -1.7533 -0.7441 -0.1419
 1923SOL     OW 6667   0.587   3.845   1.765 -0.2533 -0.3378  0.2718
 1923SOL    HW1 6668   0.624   3.934   1.792  1.3986 -0.8903 -0.0174
 1923SOL    HW2 6669   0.498   3.831   1.808 -1.2406  2.0432 -0.7945
 1924SOL     OW 6670   1.054   3.532   2.105  0.3614  0.5727  0.1847
 1924SOL    HW1 6671   1.030   3.444   2.147  2.9877  0.1193  0.8889
 1924SOL    HW2 6672   0.981   3.598   2.124 -2.3078 -1.6861 -1.4216
 1925SOL     OW 6673   3.021   6.189   6.561  0.6145 -0.1005 -0.0671
 1925SOL    HW1 6674   2.933   6.232   6.578 -0.0844 -1.1264 -0.9794
 1925SOL    HW2 6675   3.008   6.104   6.510  1.9268 -1.4398  1.6725
 1926SOL     OW 6676   6.539   1.203   1.408  0.4852 -0.5320  0.0663
 1926SOL    HW1 6677   6.588   1.273   1.356  0.3460 -0.4979 -0.0181
 1926SOL    HW2 6678   6.605   1.146   1.457  0.6022 -0.3783  0.0892
 1927SOL     OW 6679   5.258   2.328   6.591 -0.3194 -0.5028  0.7765
 1927SOL    HW1 6680   5.273   2.426   6.576 -3.0992 -0.2177 -0.7749
 1927SOL    HW2 6681   5.333   2.276   6.548 -0.2676  0.8883 -0.9131
 1928SOL     OW 6682   0.378   5.619   5.380  0.1443 -0.2181 -0.4062
 1928SOL    HW1 6683   0.316   5.545   5.350 -0.5148  0.0649  0.2180
 1928SOL    HW2 6684   0.468   5.581   5.399 -0.1677 -0.8584 -0.1721
 1929SOL     OW 6685   1.023   4.839   1.099  0.2573 -0.2238 -0.2065
 1929SOL    HW1 6686   1.056   4.860   1.191  1.2362  3.0284 -1.1714
 1929SOL    HW2 6687   1.101   4.835   1.037 -0.6197  1.0630 -1.4337
 1930SOL     OW 6688   0.293   5.248   0.428  0.2414 -0.4043 -0.0677
 1930SOL    HW1 6689   0.236   5.241   0.346 -0.8578 -0.4488  0.6753
 1930SOL    HW2 6690   0.293   5.343   0.461 -1.5711 -0.8255  1.3791
 1931SOL     OW 6691   2.319   0.954   4.379 -0.2850  0.4833 -0.3380
 1931SOL    HW1 6692   2.320   0.904   4.293  1.7552 -0.0975 -0.0261
 1931SOL    HW2 6693   2.275   0.898   4.450 -1.4944  0.7519 -0.8618
 1932SOL     OW 6694   0.142   4.081   3.778 -0.6451  0.0691  0.0491
 1932SOL    HW1 6695   0.174   4.083   3.872  0.2197  0.7858 -0.2441
 1932SOL    HW2 6696   0.139   3.987   3.745  1.7397 -0.0328 -0.0768
 1933SOL     OW 6697   2.422   4.617   0.318  0.4189  0.1948 -0.2855
 1933SOL    HW1 6698   2.425   4.589   0.222  1.8024 -0.2827 -0.1237
 1933SOL    HW2 6699   2.399   4.538   0.374 -1.3743  0.6746 -0.2582
 1934SOL     OW 6700   0.221   1.264   2.289 -1.0326 -0.0867  0.0473
 1934SOL    HW1 6701   0.261   1.247   2.379 -1.4075  0.3027  0.2943
 1934SOL    HW2 6702   0.283   1.232   2.218 -0.3098  0.4661  0.4204
 1935SOL     OW 6703   5.784   1.108   1.094  0.5011  0.2540 -0.2048
 1935SOL    HW1 6704   5.872   1.088   1.136 -0.0081 -0.7931  0.4164
 1935SOL    HW2 6705   5.768   1.207   1.095  0.9179  0.3272  1.2494
 1936SOL     OW 6706   0.934   6.580   6.297  0.2231  0.2681  0.1641
 1936SOL    HW1 6707   0.845   6.559   6.338  0.3329 -0.2501  0.1440
 1936SOL    HW2 6708   1.005   6.571   6.367  0.4213 -0.7005 -0.1591
 1937SOL     OW 6709   5.676   2.650   3.484 -0.6761 -0.2853  0.5837
 1937SOL    HW1 6710   5.688   2.551   3.477  0.5910 -0.1380  0.5515
 1937SOL    HW2 6711   5.710   2.694   3.402  1.5930  0.3872  1.8019
 1938SOL     OW 6712   4.852   0.193   4.751 -0.2425 -0.1952  0.2971
 1938SOL    HW1 6713   4.789   0.161   4.822  0.5338  0.2667  1.2109
 1938SOL    HW2 6714   4.944   0.201   4.789  0.3334 -0.6443 -0.9629
 1939SOL     OW 6715   2.132   0.150   2.978  0.3478 -0.1480  0.1271
 1939SOL    HW1 6716   2.200   0.171   2.908  1.3443  0.1956  1.1738
 1939SOL    HW2 6717   2.099   0.235   3.019 -0.1882 -0.3488  0.1205
 1940SOL     OW 6718   4.925   2.093   6.124 -0.4020 -0.2781 -0.2799
 1940SOL    HW1 6719   4.912   2.187   6.092 -0.5221 -0.0894  0.3152
 1940SOL    HW2 6720   4.917   2.030   6.046 -1.3246  0.1190 -0.5205
 1941SOL     OW 6721   3.127   5.461   3.943  0.8146 -0.4794  0.1975
 1941SOL    HW1 6722   3.085   5.373   3.924 -0.8030  0.0352  1.2214
 1941SOL    HW2 6723   3.182   5.455   4.026 -0.1767 -0.2729  0.8799
 1942SOL     OW 6724   0.123   5.068   2.712 -0.2186  0.0353  0.1850
 1942SOL    HW1 6725   0.157   5.125   2.787  0.4170  0.8738 -0.7201
 1942SOL    HW2 6726   0.177   5.086   2.630 -1.0925 -0.6608 -0.5539
 1943SOL     OW 6727   2.435   6.585   3.781 -0.3845 -0.6669  0.2997
 1943SOL    HW1 6728   2.351   6.532   3.769  0.3411 -1.3528 -2.8318
 1943SOL    HW2 6729   2.416   6.682   3.764 -0.6345 -0.7545  0.0721
 1944SOL     OW 6730   6.169   0.645   3.461 -0.1207  0.1743  0.4515
 1944SOL    HW1 6731   6.075   0.611   3.466  0.3281 -1.1257  0.6574
 1944SOL    HW2 6732   6.186   0.684   3.371 -0.9787  0.8212  0.5616
 1945SOL     OW 6733   4.635   4.901   2.492  0.2812 -0.2194  0.1602
 1945SOL    HW1 6734   4.572   4.876   2.418  0.2121 -2.5708  0.9471
 1945SOL    HW2 6735   4.584   4.917   2.576  0.2540  3.3870 -0.3630
 1946SOL     OW 6736   1.420   0.114   0.548  0.3473 -0.1145 -0.0376
 1946SOL    HW1 6737   1.480   0.061   0.488 -1.9834 -2.5598 -0.3893
 1946SOL    HW2 6738   1.328   0.118   0.509 -0.3483  1.5117  1.5952
 1947SOL     OW 6739   4.117   1.542   4.213  0.3671 -0.1451  0.3040
 1947SOL    HW1 6740   4.129   1.609   4.285 -2.5089 -0.6274  1.3588
 1947SOL    HW2 6741   4.197   1.481   4.210  1.7926  1.6005  1.1304
 1948SOL     OW 6742   6.144   2.874   6.357  0.1202 -0.2634 -0.2057
 1948SOL    HW1 6743   6.149   2.937   6.280 -1.2848 -0.6506 -0.6431
 1948SOL    HW2 6744   6.065   2.814   6.347  0.4900 -1.0203  1.0268
 1949SOL     OW 6745   4.922   3.723   6.581  0.4454 -0.9719 -0.3404
 1949SOL    HW1 6746   4.993   3.732   6.511  0.5961 -1.1358 -0.2077
 1949SOL    HW2 6747   4.941   3.787   6.655  1.1578 -1.8975  0.2966
 1950SOL     OW 6748   2.773   5.542   6.338 -0.2557 -0.1955 -0.2360
 1950SOL    HW1 6749   2.679   5.557   6.369 -0.3560 -0.5309 -0.3717
 1950SOL    HW2 6750   2.804   5.453   6.372  0.4433  0.4347  0.8431
 1951SOL     OW 6751   5.876   2.053   1.280  0.4875  0.4853 -0.1535
 1951SOL    HW1 6752   5.920   2.131   1.236  0.9362  0.1930 -0.2291
 1951SOL    HW2 6753   5.913   1.968   1.243 -1.5754  0.1787 -1.6957
 1952SOL     OW 6754   3.546   3.414   3.132 -0.1750  0.0590 -0.5473
 1952SOL    HW1 6755   3.507   3.346   3.194 -1.0267  0.1780 -0.9348
 1952SOL    HW2 6756   3.558   3.501   3.182  0.0686 -0.1190 -0.2928
 1953SOL     OW 6757   1.854   1.259   3.332 -0.3566 -0.6855 -0.3793
 1953SOL    HW1 6758   1.761   1.294   3.343  0.1790  1.2663 -1.6482
 1953SOL    HW2 6759   1.919   1.335   3.326  1.1230 -1.9445 -1.2618
 1954SOL     OW 6760   2.319   1.420   0.612 -0.3818 -0.1357  0.2608
 1954SOL    HW1 6761   2.343   1.327   0.638 -1.3280 -0.3589  0.3757
 1954SOL    HW2 6762   2.247   1.454   0.672 -0.9531  0.1875 -0.5832
 1955SOL     OW 6763   6.796   0.100   3.090  0.6999 -0.1567  0.0773
 1955SOL    HW1 6764   6.777   0.034   3.162  1.1427 -0.6575 -0.2545
 1955SOL    HW2 6765   6.876   0.154   3.115  0.5731 -0.0137  0.1720
 1956SOL     OW 6766   4.369   6.901   4.746  0.5081  0.2898 -0.8913
 1956SOL    HW1 6767   4.317   6.933   4.666 -0.0242 -0.5351 -0.8866
 1956SOL    HW2 6768   4.425   6.823   4.720  1.3659  0.8502 -0.7650
 1957SOL     OW 6769   1.627   0.721   4.813  0.3023 -0.0386 -0.4023
 1957SOL    HW1 6770   1.630   0.820   4.797  0.1178 -0.0793 -0.7106
 1957SOL    HW2 6771   1.556   0.701   4.880  0.6562  0.0787  0.0127
 1958SOL     OW 6772   4.733   3.692   0.236 -0.0792 -0.4557  0.5437
 1958SOL    HW1 6773   4.813   3.632   0.236 -0.5364 -1.0908  0.0551
 1958SOL    HW2 6774   4.684   3.681   0.149 -1.0945 -0.6308  1.1225
 1959SOL     OW 6775   2.553   5.944   1.537  0.6177 -0.1559  0.4560
 1959SOL    HW1 6776   2.477   6.006   1.553  0.4830 -0.6538  1.9166
 1959SOL    HW2 6777   2.636   5.982   1.578  1.0399  0.1089 -0.6183
 1960SOL     OW 6778   3.710   5.241   3.866 -0.0541  0.2594  0.2157
 1960SOL    HW1 6779   3.768   5.199   3.796  0.5682  0.2752  0.7030
 1960SOL    HW2 6780   3.701   5.178   3.943 -0.7110  0.2517  0.1326
 1961SOL     OW 6781   4.397   0.770   5.898  0.3138  0.2584 -0.0375
 1961SOL    HW1 6782   4.478   0.714   5.914 -0.0240  0.1088  1.2687
 1961SOL    HW2 6783   4.340   0.770   5.980  0.6840  3.1760  0.3112
 1962SOL     OW 6784   2.278   0.266   3.805 -0.6222  0.0495 -0.0983
 1962SOL    HW1 6785   2.290   0.354   3.852  0.4848 -0.8931  1.4932
 1962SOL    HW2 6786   2.325   0.194   3.857 -2.2567 -1.6489 -0.8591
 1963SOL     OW 6787   2.576   1.683   2.529 -0.0590 -0.2002 -0.9546
 1963SOL    HW1 6788   2.498   1.710   2.584 -1.2586 -1.0494 -2.1674
 1963SOL    HW2 6789   2.604   1.760   2.471  0.1420  0.1699 -0.3724
 1964SOL     OW 6790   0.239   2.137   1.178  0.1966 -0.3266  0.2544
 1964SOL    HW1 6791   0.292   2.054   1.157 -0.7115 -1.1633  1.1568
 1964SOL    HW2 6792   0.210   2.180   1.092  0.0418 -1.3672 -0.2416
 1965SOL     OW 6793   1.230   4.965   3.195 -0.1454 -0.0604 -0.3465
 1965SOL    HW1 6794   1.223   4.876   3.151  1.6411  0.0212 -0.8819
 1965SOL    HW2 6795   1.172   4.966   3.277 -0.6993 -1.4695 -0.6889
 1966SOL     OW 6796   1.201   1.016   6.628  0.1642 -0.0280  0.1828
 1966SOL    HW1 6797   1.207   1.111   6.597  0.7423  0.0885  0.6456
 1966SOL    HW2 6798   1.243   0.956   6.560 -0.6517 -0.0080 -0.3488
 1967SOL     OW 6799   6.539   2.600   4.569 -0.7369 -0.1378  0.3848
 1967SOL    HW1 6800   6.553   2.693   4.605 -1.1964  0.0670  0.0371
 1967SOL    HW2 6801   6.610   2.540   4.606 -0.9473  0.1569  1.3211
 1968SOL     OW 6802   5.138   6.367   3.884  0.2699 -0.0657  0.0630
 1968SOL    HW1 6803   5.087   6.451   3.901  0.3801 -0.1059  0.6156
 1968SOL    HW2 6804   5.081   6.287   3.907  0.7309 -0.1004  1.1454
 1969SOL     OW 6805   4.782   6.864   0.085  0.1100  0.4604  0.2441
 1969SOL    HW1 6806   4.759   6.772   0.115  0.0099  1.3773  3.4000
 1969SOL    HW2 6807   4.765   6.873  -0.013 -2.4236 -2.1084  0.3155
 1970SOL     OW 6808   1.089   0.952   5.687  0.1617  0.2852 -0.5059
 1970SOL    HW1 6809   1.055   0.862   5.715  1.3848 -1.0404 -2.8901
 1970SOL    HW2 6810   1.188   0.947   5.674  0.2134  1.9170 -0.9251
 1971SOL     OW 6811   0.388   2.312   5.807 -0.4094 -0.1834 -0.2973
 1971SOL    HW1 6812   0.359   2.361   5.889  0.3504 -0.8286  0.3813
 1971SOL    HW2 6813   0.309   2.298   5.747 -1.0033  0.1969  0.3737
 1972SOL     OW 6814   1.785   5.595   4.179 -0.2360 -0.3540  0.2609
 1972SOL    HW1 6815   1.877   5.634   4.174 -0.7096  0.9170  0.9035
 1972SOL    HW2 6816   1.775   5.546   4.266  0.3378 -1.8997 -0.5176
 1973SOL     OW 6817   2.919   3.395   0.422  0.5702 -0.4497 -0.1966
 1973SOL    HW1 6818   2.992   3.389   0.490 -0.3827  0.1083  0.9018
 1973SOL    HW2 6819   2.865   3.478   0.438 -0.5615 -1.0611 -0.7233
 1974SOL     OW 6820   6.633   1.255   5.825  0.6767  0.0665  0.0904
 1974SOL    HW1 6821   6.535   1.237   5.832  0.8456 -0.9802 -0.0962
 1974SOL    HW2 6822   6.648   1.343   5.780 -0.1588 -0.6310 -1.6057
 1975SOL     OW 6823   2.874   6.910   4.199  0.0255 -0.0348 -0.1972
 1975SOL    HW1 6824   2.861   6.823   4.247 -1.6521 -0.7438 -1.8079
 1975SOL    HW2 6825   2.950   6.901   4.134  0.4768  0.0294  0.3158
 1976SOL     OW 6826   6.766   3.730   5.354 -0.1114 -0.6435 -0.7033
 1976SOL    HW1 6827   6.702   3.806   5.343 -4.1476 -3.8951 -2.6413
 1976SOL    HW2 6828   6.744   3.681   5.438  1.4596 -0.5802 -0.2285
 1977SOL     OW 6829   2.151   3.631   4.201 -0.3311  0.2436 -0.6551
 1977SOL    HW1 6830   2.102   3.691   4.138 -1.8765 -0.7021 -0.3973
 1977SOL    HW2 6831   2.186   3.552   4.151 -2.2037 -0.8896 -0.2690
 1978SOL     OW 6832   4.803   1.017   4.814 -0.1654  0.0035 -0.3062
 1978SOL    HW1 6833   4.862   0.989   4.739 -0.8119  0.4094 -0.9865
 1978SOL    HW2 6834   4.759   0.936   4.854  1.2831 -0.3716  0.6152
 1979SOL     OW 6835   4.412   4.626   3.971  0.2246  0.3262  0.1463
 1979SOL    HW1 6836   4.316   4.652   3.976  0.2894  0.7875 -0.8509
 1979SOL    HW2 6837   4.440   4.586   4.058 -0.3174  2.1079  1.1963
 1980SOL     OW 6838   2.037   6.637   3.245 -0.0620 -0.7792 -0.7249
 1980SOL    HW1 6839   2.116   6.695   3.265 -0.2680  0.2282 -2.5467
 1980SOL    HW2 6840   2.055   6.584   3.162 -1.0708 -0.9866 -0.8243
 1981SOL     OW 6841   5.960   4.371   3.358  0.0759  0.1524  0.1050
 1981SOL    HW1 6842   6.034   4.325   3.408 -0.7808 -0.4809  0.8272
 1981SOL    HW2 6843   5.881   4.309   3.351 -0.1256  0.5470 -1.3084
 1982SOL     OW 6844   0.515   0.291   6.373  0.2536 -0.1475 -0.0929
 1982SOL    HW1 6845   0.510   0.194   6.353 -0.6617  0.0655 -0.9420
 1982SOL    HW2 6846   0.553   0.340   6.295  2.0671  0.0303  0.8554
 1983SOL     OW 6847   2.094   3.661   2.127 -0.6033  0.3487  0.2230
 1983SOL    HW1 6848   2.132   3.594   2.063 -2.0243  1.5942 -2.0497
 1983SOL    HW2 6849   2.013   3.704   2.087 -0.9827  1.9318  2.4817
 1984SOL     OW 6850   4.323   5.914   6.529 -0.0760  0.5570  0.0673
 1984SOL    HW1 6851   4.243   5.961   6.492  0.4995  1.1722 -0.4302
 1984SOL    HW2 6852   4.354   5.961   6.612 -2.1733 -1.5953  2.2456
 1985SOL     OW 6853   1.195   5.308   1.454  0.5537 -0.1099  0.7274
 1985SOL    HW1 6854   1.143   5.374   1.508 -0.3243 -0.4509  0.3280
 1985SOL    HW2 6855   1.291   5.334   1.453  0.2607  1.0680  0.7300
 1986SOL     OW 6856   2.968   1.560   2.504  0.8277 -0.0114 -0.4267
 1986SOL    HW1 6857   2.997   1.598   2.416  0.7941 -1.7784 -1.2587
 1986SOL    HW2 6858   2.869   1.570   2.514  1.2008  3.4212  1.1075
 1987SOL     OW 6859   1.081   4.493   0.242  0.8676 -0.2724  0.3762
 1987SOL    HW1 6860   1.021   4.529   0.170  1.6595  1.8792  0.7072
 1987SOL    HW2 6861   1.148   4.431   0.202 -0.4948 -1.3740 -0.2586
 1988SOL     OW 6862   5.067   3.284   0.501 -0.1437 -0.2088  0.5365
 1988SOL    HW1 6863   4.996   3.346   0.536  0.5637 -0.5797  2.8325
 1988SOL    HW2 6864   5.151   3.297   0.554  2.5142  2.0634 -3.6537
 1989SOL     OW 6865   0.808   2.189   1.646  0.5970  0.4247  0.4996
 1989SOL    HW1 6866   0.883   2.134   1.610  0.5487  0.4295  0.3922
 1989SOL    HW2 6867   0.774   2.250   1.575 -1.2342 -1.3839 -0.2997
 1990SOL     OW 6868   1.322   1.296   1.968  0.4844  0.1272 -0.7234
 1990SOL    HW1 6869   1.294   1.390   1.947  2.4366  1.1570  0.8250
 1990SOL    HW2 6870   1.299   1.275   2.063  1.2485 -0.4468 -0.6490
 1991SOL     OW 6871   4.848   4.983   2.184 -0.5743 -0.3221 -0.2866
 1991SOL    HW1 6872   4.775   5.040   2.222 -0.0976  0.2089 -0.1514
 1991SOL    HW2 6873   4.873   5.016   2.093  0.0164 -0.0145 -0.0235
 1992SOL     OW 6874   3.055   5.622   4.399 -0.4341 -0.4162 -0.3474
 1992SOL    HW1 6875   3.059   5.721   4.411 -1.8253 -0.3538 -0.2616
 1992SOL    HW2 6876   3.136   5.580   4.441  0.1016  0.6619 -0.2727
 1993SOL     OW 6877   4.083   3.418   3.749 -0.0783  0.1206 -1.4500
 1993SOL    HW1 6878   4.142   3.381   3.677 -1.6215 -1.6214 -1.9054
 1993SOL    HW2 6879   4.070   3.348   3.820  2.0690  2.0639  1.0325
 1994SOL     OW 6880   6.033   2.851   1.235  0.1929 -0.4315  0.2489
 1994SOL    HW1 6881   5.970   2.909   1.285  0.5223 -0.9237  1.2689
 1994SOL    HW2 6882   6.068   2.779   1.296  2.0225  0.0493 -0.1723
 1995SOL     OW 6883   3.683   2.116   1.729  0.4190  0.0835 -0.0923
 1995SOL    HW1 6884   3.641   2.030   1.757  2.2238 -0.5404  0.8557
 1995SOL    HW2 6885   3.675   2.183   1.803 -1.6935  1.0541 -1.1245
 1996SOL     OW 6886   3.121   6.360   3.866  0.6071  0.0901 -0.2277
 1996SOL    HW1 6887   3.133   6.262   3.880  2.7868  0.5296  1.5360
 1996SOL    HW2 6888   3.134   6.382   3.770  2.5348 -1.0763 -0.2704
 1997SOL     OW 6889   6.487   6.257   5.106  0.0448 -0.6549  0.2422
 1997SOL    HW1 6890   6.500   6.281   5.010 -2.6442 -1.7520 -0.4958
 1997SOL    HW2 6891   6.486   6.157   5.115 -0.8753 -0.5775  1.1942
 1998SOL     OW 6892   3.727   6.622   5.944  0.0105  0.6831  0.3406
 1998SOL    HW1 6893   3.781   6.692   5.897  0.2465 -0.2869 -0.8789
 1998SOL    HW2 6894   3.789   6.558   5.989 -0.1571  0.3774  0.1375
 1999SOL     OW 6895   3.366   1.158   1.878 -0.2947  0.4036 -0.4631
 1999SOL    HW1 6896   3.323   1.117   1.798 -0.9625 -0.1190  0.1427
 1999SOL    HW2 6897   3.464   1.135   1.879 -0.5410 -0.7414 -0.4381
 2000SOL     OW 6898   0.370   0.343   5.156 -0.0310  0.5363 -0.3697
 2000SOL    HW1 6899   0.422   0.382   5.232 -0.5226 -1.8616  1.3245
 2000SOL    HW2 6900   0.293   0.403   5.134  0.0190  1.2061  1.1620
 2001SOL     OW 6901   2.443   0.436   1.252 -0.4818 -0.4906  0.2749
 2001SOL    HW1 6902   2.387   0.354   1.264 -2.1725  0.6840  0.8278
 2001SOL    HW2 6903   2.459   0.450   1.155 -0.1843 -1.4578  0.1697
 2002SOL     OW 6904   2.060   4.088   4.146 -0.5935 -0.1263 -0.8255
 2002SOL    HW1 6905   2.060   4.015   4.214 -2.7116  1.3168  0.8917
 2002SOL    HW2 6906   1.995   4.066   4.073  0.2776 -0.8240 -1.4117
 2003SOL     OW 6907   6.337   4.093   4.168  0.2671  1.1850 -0.2371
 2003SOL    HW1 6908   6.326   4.159   4.094 -2.1127  0.1381 -0.9105
 2003SOL    HW2 6909   6.248   4.055   4.192  1.5077 -1.5435  0.3822
 2004SOL     OW 6910   0.988   6.456   5.934 -0.1325  0.0387 -0.3002
 2004SOL    HW1 6911   1.042   6.527   5.889 -0.7738 -1.1651 -3.2268
 2004SOL    HW2 6912   1.048   6.380   5.960  0.2829  0.8483  1.2110
 2005SOL     OW 6913   2.088   0.034   5.067  0.4328 -0.2557 -0.7627
 2005SOL    HW1 6914   2.060   0.038   5.162 -1.1775 -1.2826 -1.1538
 2005SOL    HW2 6915   2.057   0.117   5.019  0.4805 -0.1353 -0.5857
 2006SOL     OW 6916   5.964   6.273   1.951 -0.4448  0.2431  0.3981
 2006SOL    HW1 6917   6.001   6.349   2.004 -2.2581  0.4054  1.5456
 2006SOL    HW2 6918   5.917   6.210   2.013 -1.1437 -0.4819 -0.8324
 2007SOL     OW 6919   5.066   4.820   2.097  0.1795 -0.3251  0.0261
 2007SOL    HW1 6920   5.001   4.872   2.152  1.3173  2.2877 -0.9237
 2007SOL    HW2 6921   5.073   4.860   2.006  0.0820 -3.0991 -1.3202
 2008SOL     OW 6922   0.795   5.537   5.680 -0.7499  0.3366 -0.1164
 2008SOL    HW1 6923   0.876   5.530   5.623 -1.1787  0.2884 -0.7228
 2008SOL    HW2 6924   0.803   5.616   5.741 -0.7397  0.9905 -0.9613
 2009SOL     OW 6925   6.511   6.693   0.634 -0.1348  0.3326  0.4194
 2009SOL    HW1 6926   6.469   6.629   0.569  1.2489 -0.0483 -0.1275
 2009SOL    HW2 6927   6.535   6.644   0.718 -0.2007  0.4071  0.4817
 2010SOL     OW 6928   4.355   6.482   2.052  0.0497 -0.1635  0.1514
 2010SOL    HW1 6929   4.363   6.384   2.037  0.8505  0.0137 -0.6728
 2010SOL    HW2 6930   4.403   6.531   1.980 -0.0422  0.8335  0.7422
 2011SOL     OW 6931   0.469   1.032   5.594  0.1350  0.5807 -0.0617
 2011SOL    HW1 6932   0.415   0.990   5.521 -0.4921  0.9283  0.1925
 2011SOL    HW2 6933   0.564   1.042   5.564  0.2834 -0.9166 -0.1592
 2012SOL     OW 6934   5.515   2.449   0.591 -0.1707 -0.3720 -0.2303
 2012SOL    HW1 6935   5.488   2.404   0.676 -0.5669 -0.4759 -0.4092
 2012SOL    HW2 6936   5.614   2.442   0.580 -0.0436  0.1170  0.4933
 2013SOL     OW 6937   4.567   1.802   1.903  0.0001 -0.6578  0.2885
 2013SOL    HW1 6938   4.500   1.816   1.975 -0.9841  1.7864 -0.9841
 2013SOL    HW2 6939   4.658   1.825   1.938 -0.5982  1.6078  0.5573
 2014SOL     OW 6940   4.350   4.637   3.569  0.3882 -0.3331 -0.1064
 2014SOL    HW1 6941   4.293   4.632   3.487 -0.7980  1.1016  0.5729
 2014SOL    HW2 6942   4.303   4.692   3.638  1.7273 -0.8195  1.2411
 2015SOL     OW 6943   2.432   5.775   2.151  0.1826  0.3433  0.1405
 2015SOL    HW1 6944   2.404   5.817   2.065  1.4236  1.3010  0.1725
 2015SOL    HW2 6945   2.352   5.765   2.211 -0.4900  0.7587 -0.6639
 2016SOL     OW 6946   0.271   6.113   3.855  0.3054  0.3456  0.1376
 2016SOL    HW1 6947   0.310   6.021   3.860 -0.0726  0.1916  0.2725
 2016SOL    HW2 6948   0.171   6.107   3.857  0.2812  0.7614  0.2168
 2017SOL     OW 6949   1.923   6.049   3.719 -0.4897  0.6103  0.3571
 2017SOL    HW1 6950   1.831   6.014   3.707 -0.1751 -0.0764 -0.1167
 2017SOL    HW2 6951   1.948   6.109   3.643 -0.8800  1.5848  0.9658
 2018SOL     OW 6952   2.384   4.291   3.387 -0.0867 -0.0936 -0.0755
 2018SOL    HW1 6953   2.306   4.346   3.417 -0.6599 -0.6830 -0.4612
 2018SOL    HW2 6954   2.463   4.350   3.373 -0.4735  0.5187  0.2834
 2019SOL     OW 6955   0.282   0.896   2.395 -0.7076 -0.3250 -0.4839
 2019SOL    HW1 6956   0.214   0.858   2.332 -0.2127 -1.6107 -0.2653
 2019SOL    HW2 6957   0.367   0.845   2.388 -0.8270 -0.9374  1.6707
 2020SOL     OW 6958   1.180   5.362   4.615  0.2203 -0.1857 -0.1014
 2020SOL    HW1 6959   1.159   5.353   4.518  3.6173  2.8178 -1.3104
 2020SOL    HW2 6960   1.141   5.448   4.650  2.1266  0.6346  0.1207
 2021SOL     OW 6961   5.055   6.352   1.483 -0.0425  0.0644 -0.1055
 2021SOL    HW1 6962   5.039   6.356   1.384  0.3938 -3.6468 -0.4646
 2021SOL    HW2 6963   5.154   6.345   1.500 -0.1419  0.2263  0.5742
 2022SOL     OW 6964   2.699   6.183   0.377  0.5552 -0.1383  0.2964
 2022SOL    HW1 6965   2.694   6.098   0.325 -0.3468  0.2543 -0.2784
 2022SOL    HW2 6966   2.609   6.205   0.415  0.9632  0.1339  1.1443
 2023SOL     OW 6967   1.075   2.432   5.266  0.4011  0.4635 -0.5760
 2023SOL    HW1 6968   1.067   2.372   5.187  0.6559  0.2965 -0.4792
 2023SOL    HW2 6969   1.156   2.405   5.319 -0.5079 -0.2799  0.4679
 2024SOL     OW 6970   0.805   1.023   3.945 -0.4176  0.2179 -0.2132
 2024SOL    HW1 6971   0.762   0.935   3.966 -0.6544  0.1557 -0.9198
 2024SOL    HW2 6972   0.758   1.065   3.867 -0.3993  1.0431  0.2169
 2025SOL     OW 6973   0.321   6.740   1.397  0.2487 -0.6187  0.0310
 2025SOL    HW1 6974   0.296   6.665   1.458  1.3018  0.1811  1.5081
 2025SOL    HW2 6975   0.248   6.754   1.329 -1.8220 -0.4316  2.1723
 2026SOL     OW 6976   1.726   1.862   2.777 -0.4942  0.1251 -0.3084
 2026SOL    HW1 6977   1.663   1.937   2.794  0.4205  1.0135 -0.7543
 2026SOL    HW2 6978   1.820   1.896   2.779 -0.1425 -0.4678 -3.0252
 2027SOL     OW 6979   4.463   1.363   3.060  0.4614 -0.3923 -0.0549
 2027SOL    HW1 6980   4.492   1.303   3.135  1.0278 -1.1669 -0.8702
 2027SOL    HW2 6981   4.523   1.442   3.056 -0.1440  0.1382  0.8791
 2028SOL     OW 6982   2.177   4.482   5.640 -0.3886  0.0112  0.5820
 2028SOL    HW1 6983   2.176   4.395   5.589 -0.8100  1.0081 -1.2100
 2028SOL    HW2 6984   2.170   4.558   5.575 -0.2549  1.3907  2.1311
 2029SOL     OW 6985   0.895   6.867   6.269  0.2963  0.1857  0.4627
 2029SOL    HW1 6986   0.902   6.768   6.277 -1.8592 -0.0488  0.2567
 2029SOL    HW2 6987   0.950   6.899   6.192  1.2510 -0.7972  0.7228
 2030SOL     OW 6988   0.972   4.951   1.905 -0.4487  0.1248  0.3850
 2030SOL    HW1 6989   0.994   5.046   1.884 -1.5251  0.3408  0.1610
 2030SOL    HW2 6990   1.027   4.920   1.982  0.1550  0.8176  0.2453
 2031SOL     OW 6991   6.690   1.328   3.756 -0.2020 -0.6785  0.3246
 2031SOL    HW1 6992   6.720   1.233   3.763  1.1087 -0.2685  0.4922
 2031SOL    HW2 6993   6.743   1.385   3.820 -0.4970  0.2716 -0.2487
 2032SOL     OW 6994   5.435   0.053   3.371  0.2161 -0.7260 -0.3196
 2032SOL    HW1 6995   5.361  -0.006   3.340 -0.1922 -0.6392  0.4803
 2032SOL    HW2 6996   5.422   0.077   3.467 -1.5906  3.4915 -1.3810
 2033SOL     OW 6997   1.054   3.474   1.037 -0.2831  0.0905 -0.2761
 2033SOL    HW1 6998   0.993   3.476   0.958 -3.5383 -0.5761  2.0244
 2033SOL    HW2 6999   1.082   3.567   1.060 -0.8767  0.4766 -1.0505
 2034SOL     OW 7000   1.404   4.636   2.213  0.3760  0.2091  0.5428
 2034SOL    HW1 7001   1.456   4.641   2.128  0.8211  4.2534  0.8562
 2034SOL    HW2 7002   1.309   4.611   2.193  0.5699  0.6638 -1.1003
 2035SOL     OW 7003   5.838   0.996   4.519 -0.6130 -0.0111 -0.2260
 2035SOL    HW1 7004   5.838   1.075   4.458 -0.4922 -0.8262 -1.3025
 2035SOL    HW2 7005   5.920   0.941   4.503 -1.5439 -1.3041 -0.7837
 2036SOL     OW 7006   1.429   3.702   2.444  0.2506  0.2304 -0.2119
 2036SOL    HW1 7007   1.445   3.616   2.397 -0.4776 -0.9252  1.5700
 2036SOL    HW2 7008   1.498   3.716   2.515  0.8693  1.5595 -1.0285
 2037SOL     OW 7009   3.169   2.923   0.403 -0.0561 -1.0943 -0.1856
 2037SOL    HW1 7010   3.074   2.922   0.372  0.2927 -0.9684 -1.3109
 2037SOL    HW2 7011   3.202   2.829   0.413 -1.0155 -1.2263  2.6364
 2038SOL     OW 7012   5.792   6.475   6.034  0.3347  0.3995  0.5640
 2038SOL    HW1 7013   5.800   6.395   6.095  1.0493  0.5366  0.6656
 2038SOL    HW2 7014   5.723   6.538   6.070 -1.9652 -1.2205 -0.7284
 2039SOL     OW 7015   2.160   5.053   1.822  0.0235  0.1536  0.4202
 2039SOL    HW1 7016   2.217   4.976   1.850  1.1477  0.8089  0.0008
 2039SOL    HW2 7017   2.070   5.019   1.792  1.2028 -1.2479 -1.8243
 2040SOL     OW 7018   3.318   3.372   4.371 -0.1331 -0.0890  0.4947
 2040SOL    HW1 7019   3.317   3.351   4.273 -0.3823 -0.5820  0.6000
 2040SOL    HW2 7020   3.412   3.371   4.405  0.2633  2.5486 -0.2437
 2041SOL     OW 7021   5.884   3.327   0.152  0.4418 -0.5812  1.0649
 2041SOL    HW1 7022   5.956   3.291   0.212  0.7708  2.9353  3.0697
 2041SOL    HW2 7023   5.905   3.422   0.129 -0.7657 -1.1634 -3.1352
 2042SOL     OW 7024   5.363   1.075   0.056 -0.1451 -0.2591 -0.0368
 2042SOL    HW1 7025   5.387   0.979   0.070 -2.9000 -1.1863 -1.0094
 2042SOL    HW2 7026   5.319   1.111   0.138 -0.6876 -0.3930 -0.2617
 2043SOL     OW 7027   5.693   5.050   2.023  0.0290  0.1978 -0.0923
 2043SOL    HW1 7028   5.695   5.056   2.122  0.4603 -2.2968  0.1192
 2043SOL    HW2 7029   5.749   4.972   1.993 -2.4253 -0.9500 -2.0765
 2044SOL     OW 7030   6.085   0.722   1.211 -0.1593  1.3113 -0.7793
 2044SOL    HW1 7031   6.023   0.745   1.286 -1.4870  0.8001 -1.6852
 2044SOL    HW2 7032   6.115   0.806   1.165 -0.0831  1.5719 -0.2547
 2045SOL     OW 7033   3.723   6.566   4.135 -0.3964 -0.0163  0.2522
 2045SOL    HW1 7034   3.656   6.635   4.107 -0.3185 -0.1449 -0.2622
 2045SOL    HW2 7035   3.800   6.610   4.181 -0.3027  0.2506 -0.1604
 2046SOL     OW 7036   6.818   6.939   6.626  0.0305 -0.1299 -0.4879
 2046SOL    HW1 7037   6.827   7.030   6.584 -0.1982 -1.0714 -2.6657
 2046SOL    HW2 7038   6.832   6.868   6.557 -1.2856 -1.7712  0.8494
 2047SOL     OW 7039   5.737   5.533   0.241  0.0860 -0.3099  0.5806
 2047SOL    HW1 7040   5.783   5.476   0.173  0.8248  0.1182  0.7205
 2047SOL    HW2 7041   5.638   5.522   0.232  0.1897 -0.5240 -0.3303
 2048SOL     OW 7042   5.379   0.835   5.641  0.0751 -0.0736  0.3711
 2048SOL    HW1 7043   5.408   0.890   5.562  1.3491  0.9466  1.5031
 2048SOL    HW2 7044   5.294   0.788   5.619 -0.8237  1.9619 -0.8427
 2049SOL     OW 7045   5.237   5.561   6.972 -0.3837  0.4568 -0.3208
 2049SOL    HW1 7046   5.252   5.498   7.048 -0.1652  0.1520 -0.6108
 2049SOL    HW2 7047   5.139   5.580   6.963 -0.4037  0.5415  0.0733
 2050SOL     OW 7048   5.040   1.516   3.142 -0.0636 -0.3081  0.1842
 2050SOL    HW1 7049   4.990   1.429   3.144  1.4951 -1.2480  0.5450
 2050SOL    HW2 7050   5.070   1.539   3.235 -0.8722  0.8886  0.1700
 2051SOL     OW 7051   2.426   5.955   0.323 -0.5160 -0.4441  0.7160
 2051SOL    HW1 7052   2.406   6.003   0.237 -1.2645 -2.3398 -0.2273
 2051SOL    HW2 7053   2.521   5.971   0.349  0.0477 -0.6860 -1.0669
 2052SOL     OW 7054   2.146   0.037   0.695 -0.3618 -0.8781 -0.2696
 2052SOL    HW1 7055   2.212  -0.031   0.726 -0.5036  0.4578  3.4156
 2052SOL    HW2 7056   2.064  -0.009   0.661 -0.1098 -2.5747  1.3001
 2053SOL     OW 7057   6.124   0.229   0.393  0.2138  0.0706  0.0807
 2053SOL    HW1 7058   6.215   0.226   0.352  1.0082 -0.9142  1.8184
 2053SOL    HW2 7059   6.119   0.305   0.458 -0.4666  0.5638 -0.5251
 2054SOL     OW 7060   1.041   2.876   6.114  0.1059  0.4972 -0.5210
 2054SOL    HW1 7061   0.945   2.871   6.089  0.2798  0.3030 -1.1918
 2054SOL    HW2 7062   1.066   2.797   6.170 -0.0337  0.3282 -0.6940
 2055SOL     OW 7063   1.411   6.508   6.558  0.4282 -0.2319 -0.4633
 2055SOL    HW1 7064   1.495   6.555   6.585  1.0288 -1.3249 -0.3851
 2055SOL    HW2 7065   1.404   6.421   6.607 -2.4852  1.3107  2.2210
 2056SOL     OW 7066   0.710   1.156   1.414  0.8035  0.5982 -0.5579
 2056SOL    HW1 7067   0.802   1.172   1.448  2.0883 -0.2063 -3.3353
 2056SOL    HW2 7068   0.649   1.227   1.447  1.8992  0.1050  2.9446
 2057SOL     OW 7069   5.773   3.292   3.044 -0.6029 -0.4030 -0.1812
 2057SOL    HW1 7070   5.772   3.250   2.954  0.4672 -0.7944 -0.0236
 2057SOL    HW2 7071   5.867   3.303   3.075 -0.9051  0.8337  0.3824
 2058SOL     OW 7072   1.880   0.542   0.677  0.2133  0.1137  0.7905
 2058SOL    HW1 7073   1.913   0.631   0.709  2.0932 -0.2985  0.0961
 2058SOL    HW2 7074   1.931   0.469   0.723  1.2307 -0.5175 -1.2388
 2059SOL     OW 7075   3.465   6.425   1.155 -0.2610 -1.0139  0.0346
 2059SOL    HW1 7076   3.517   6.506   1.127  0.7169 -1.3266  0.8849
 2059SOL    HW2 7077   3.378   6.453   1.196 -1.5707 -0.5166 -2.7787
 2060SOL     OW 7078   6.967   6.043   3.488  0.1885 -0.1046 -0.4883
 2060SOL    HW1 7079   6.958   6.142   3.503 -0.5221 -0.3119  0.5642
 2060SOL    HW2 7080   6.880   5.998   3.509  0.6175 -0.9978 -0.5842
 2061SOL     OW 7081   0.327   1.652   1.029  0.2926  0.2367 -0.2760
 2061SOL    HW1 7082   0.408   1.599   1.003 -0.8654 -1.8685  0.2131
 2061SOL    HW2 7083   0.263   1.655   0.952 -1.3944 -2.6327  0.8464
 2062SOL     OW 7084   3.585   0.321   2.067  0.0997  0.2665 -0.0098
 2062SOL    HW1 7085   3.641   0.397   2.035  2.4921 -0.6579  1.6342
 2062SOL    HW2 7086   3.570   0.331   2.166  2.4207 -2.3824  0.7426
 2063SOL     OW 7087   2.461   2.770   6.406 -0.2295  0.7330  0.6390
 2063SOL    HW1 7088   2.535   2.801   6.467  2.9720 -2.6441 -1.0872
 2063SOL    HW2 7089   2.439   2.675   6.427 -1.1658  0.4124 -1.5121
 2064SOL     OW 7090   6.344   2.510   1.118 -0.4314 -0.9254 -0.3784
 2064SOL    HW1 7091   6.428   2.471   1.154 -0.1234  0.7023  0.7767
 2064SOL    HW2 7092   6.366   2.578   1.048 -0.8180 -0.9285 -0.5075
 2065SOL     OW 7093   6.946   2.997   3.988  0.3940 -0.1949  0.4916
 2065SOL    HW1 7094   6.903   3.081   4.020 -2.2283 -0.9835 -0.7065
 2065SOL    HW2 7095   6.917   2.920   4.046 -0.7571 -0.9037 -0.9503
 2066SOL     OW 7096   1.164   0.275   3.769  0.0518 -0.0341 -0.7922
 2066SOL    HW1 7097   1.249   0.260   3.819 -1.0752  0.6633  1.4676
 2066SOL    HW2 7098   1.154   0.205   3.699  2.1655 -0.5063 -0.6895
 2067SOL     OW 7099   0.047   6.579   1.972  0.4606 -0.2717 -0.0339
 2067SOL    HW1 7100   0.017   6.557   2.065  0.4166  2.2129  0.6289
 2067SOL    HW2 7101  -0.030   6.574   1.910 -0.4784  1.8970  0.8602
 2068SOL     OW 7102   3.854   2.096   4.997  0.2329 -0.0304  0.0377
 2068SOL    HW1 7103   3.918   2.106   4.920  0.6414  0.7189  0.4720
 2068SOL    HW2 7104   3.761   2.114   4.965  0.1077 -1.7947 -0.7622
 2069SOL     OW 7105   0.845   3.054   2.129  0.7592  0.6686  0.5988
 2069SOL    HW1 7106   0.933   3.100   2.145  0.5913  0.5112  2.1126
 2069SOL    HW2 7107   0.776   3.093   2.189 -0.1434  0.5689 -0.3573
 2070SOL     OW 7108   0.790   3.434   2.654  0.1055 -0.0308  0.2689
 2070SOL    HW1 7109   0.796   3.510   2.719  1.2796  0.3582 -0.2814
 2070SOL    HW2 7110   0.787   3.347   2.704  0.6044  0.2808  0.8448
 2071SOL     OW 7111   2.750   5.055   4.975  0.0148  0.4276  0.1871
 2071SOL    HW1 7112   2.789   4.977   4.927  2.4891  1.4957  0.2920
 2071SOL    HW2 7113   2.733   5.031   5.070 -0.4767 -0.3310 -0.0814
 2072SOL     OW 7114   5.776   3.546   1.794  0.0901 -0.2184  0.1140
 2072SOL    HW1 7115   5.874   3.560   1.809  0.0021  0.2820  0.2515
 2072SOL    HW2 7116   5.762   3.479   1.721  0.5546  0.8738 -1.0218
 2073SOL     OW 7117   5.605   6.684   2.721  0.4299  0.1286  0.0507
 2073SOL    HW1 7118   5.557   6.675   2.808  0.8609 -0.0543  0.2721
 2073SOL    HW2 7119   5.588   6.775   2.683 -0.5868 -0.1418 -0.1769
 2074SOL     OW 7120   4.674   1.330   1.153 -0.1081 -0.2177 -0.1852
 2074SOL    HW1 7121   4.618   1.306   1.233 -2.0235  0.0037 -1.3857
 2074SOL    HW2 7122   4.758   1.375   1.183 -0.2824 -1.0810  1.7293
 2075SOL     OW 7123   4.707   1.728   5.300 -0.8666 -0.2089 -0.5498
 2075SOL    HW1 7124   4.678   1.675   5.380  1.1287  0.7204  0.8735
 2075SOL    HW2 7125   4.710   1.668   5.220 -0.3675 -1.8144  0.6281
 2076SOL     OW 7126   4.815   4.632   0.492  0.3628 -0.0303  0.1100
 2076SOL    HW1 7127   4.868   4.614   0.409 -0.3845 -0.4216 -0.2988
 2076SOL    HW2 7128   4.874   4.671   0.562  1.5011 -1.6757  0.1227
 2077SOL     OW 7129   3.833   1.398   4.697  0.4485  0.5517 -0.0165
 2077SOL    HW1 7130   3.751   1.442   4.660 -0.6562 -2.4928 -1.5627
 2077SOL    HW2 7131   3.907   1.403   4.630  0.2481 -0.0996 -0.2929
 2078SOL     OW 7132   2.163   5.750   3.415  0.8965  0.5689 -0.5080
 2078SOL    HW1 7133   2.224   5.823   3.446  1.2731  0.1754 -0.3119
 2078SOL    HW2 7134   2.163   5.675   3.481 -0.5098  0.9393 -0.0515
 2079SOL     OW 7135   6.202   0.560   3.718  0.2857 -0.0967 -0.4932
 2079SOL    HW1 7136   6.288   0.586   3.761  0.8659  0.6180 -2.0199
 2079SOL    HW2 7137   6.213   0.557   3.619 -1.7250  1.1739 -0.8250
 2080SOL     OW 7138   3.915   1.506   3.464  0.3169  0.3021 -0.1081
 2080SOL    HW1 7139   3.909   1.525   3.367 -0.7926  3.2351  0.4481
 2080SOL    HW2 7140   3.875   1.416   3.483  1.0175 -0.5483 -2.3592
 2081SOL     OW 7141   1.884   5.900   4.832  0.1580  0.4574 -0.5851
 2081SOL    HW1 7142   1.827   5.830   4.874  0.4829  0.9160  0.6592
 2081SOL    HW2 7143   1.891   5.883   4.734 -1.4948 -0.0293 -0.6447
 2082SOL     OW 7144   5.151   1.540   1.843  0.0465  0.2948  0.1312
 2082SOL    HW1 7145   5.200   1.539   1.930  1.0722  2.6922 -0.3469
 2082SOL    HW2 7146   5.216   1.527   1.768 -0.2094  2.0210 -0.4345
 2083SOL     OW 7147   5.347   2.205   6.095  0.4590 -0.2734  0.2079
 2083SOL    HW1 7148   5.393   2.294   6.097 -0.4002  0.1984  2.7947
 2083SOL    HW2 7149   5.252   2.218   6.068  0.8901 -0.8048 -1.7810
 2084SOL     OW 7150   0.468   1.857   3.910  0.4739 -0.1233  0.2479
 2084SOL    HW1 7151   0.450   1.895   4.001  0.3346 -1.1342  0.6507
 2084SOL    HW2 7152   0.468   1.931   3.843 -3.5609  0.2229  0.4027
 2085SOL     OW 7153   5.595   5.184   0.765  0.1391 -0.0539 -0.0913
 2085SOL    HW1 7154   5.500   5.210   0.746  0.0689 -0.6318 -0.5782
 2085SOL    HW2 7155   5.639   5.155   0.680  1.4788  2.4116 -0.3094
 2086SOL     OW 7156   3.338   5.858   5.444 -0.4570  0.1869 -0.5420
 2086SOL    HW1 7157   3.369   5.891   5.354 -2.0371 -1.4533 -1.7496
 2086SOL    HW2 7158   3.307   5.936   5.499 -1.0684  1.0649 -2.0792
 2087SOL     OW 7159   6.929   5.284   3.486  0.3673  0.5988  0.3201
 2087SOL    HW1 7160   6.896   5.353   3.551  1.1823  0.8057  0.5241
 2087SOL    HW2 7161   6.976   5.329   3.410 -0.3105  0.3392 -0.2688
 2088SOL     OW 7162   2.355   0.475   0.560 -0.1971  0.3570  0.1654
 2088SOL    HW1 7163   2.429   0.465   0.625  0.5483  0.9579 -0.5655
 2088SOL    HW2 7164   2.312   0.386   0.543  1.0426 -0.1814 -0.2050
 2089SOL     OW 7165   3.044   0.388   0.197  0.0352 -0.0599  0.6972
 2089SOL    HW1 7166   3.091   0.383   0.109  0.4853 -1.6021  1.0099
 2089SOL    HW2 7167   3.017   0.483   0.214  2.8856  0.9123  0.4241
 2090SOL     OW 7168   2.854   3.619   3.102  0.0303 -0.3187 -0.3154
 2090SOL    HW1 7169   2.874   3.557   3.026  0.1701 -0.5553 -0.0868
 2090SOL    HW2 7170   2.899   3.707   3.086 -2.7206  0.8939 -2.2411
 2091SOL     OW 7171   2.350   3.244   1.672  0.9093  0.2326 -0.1099
 2091SOL    HW1 7172   2.257   3.221   1.645  0.6162  0.2650  0.8241
 2091SOL    HW2 7173   2.349   3.329   1.726  1.5630  0.5976 -0.6540
 2092SOL     OW 7174   6.358   6.208   0.355  0.3124  0.2788 -0.1713
 2092SOL    HW1 7175   6.273   6.162   0.331  1.5214 -2.2304 -0.0112
 2092SOL    HW2 7176   6.389   6.175   0.445  1.6013  0.9022 -0.3643
 2093SOL     OW 7177   2.031   0.455   1.744  0.0244  0.1415  0.1865
 2093SOL    HW1 7178   2.054   0.453   1.842 -2.6220 -1.5716  0.8885
 2093SOL    HW2 7179   1.966   0.528   1.727  0.4601  0.4177 -0.3239
 2094SOL     OW 7180   5.993   1.170   4.090 -0.4801 -0.0523 -0.3400
 2094SOL    HW1 7181   5.921   1.101   4.102 -1.4907  1.2946  2.1422
 2094SOL    HW2 7182   6.027   1.198   4.180  0.9245  1.6489 -1.3415
 2095SOL     OW 7183   6.712   4.931   4.615 -0.0774 -0.0667  0.0378
 2095SOL    HW1 7184   6.781   4.884   4.670 -0.9170 -1.9239 -0.4224
 2095SOL    HW2 7185   6.740   5.026   4.602  2.9283 -0.9540 -0.9707
 2096SOL     OW 7186   4.163   5.144   6.119  0.6899  0.4797  0.6078
 2096SOL    HW1 7187   4.184   5.105   6.208  1.5796  0.2519  0.3111
 2096SOL    HW2 7188   4.235   5.210   6.094  0.9357 -0.1299 -0.3323
 2097SOL     OW 7189   5.031   3.823   4.341  0.2899 -0.0986 -0.1383
 2097SOL    HW1 7190   5.069   3.796   4.252 -1.1587  2.2033 -1.5482
 2097SOL    HW2 7191   5.099   3.877   4.391  1.2566 -1.7371  0.3793
 2098SOL     OW 7192   4.577   0.224   4.050  1.2261 -0.0133  0.1269
 2098SOL    HW1 7193   4.619   0.256   3.964  0.4168 -1.2101 -0.7478
 2098SOL    HW2 7194   4.478   0.231   4.043  1.1873  0.9729  1.4427
 2099SOL     OW 7195   3.060   1.422   6.075 -0.6773  0.1484 -0.1889
 2099SOL    HW1 7196   3.057   1.414   5.976 -1.2154  2.9158 -0.4521
 2099SOL    HW2 7197   2.974   1.461   6.109 -1.7603 -3.3832  1.7696
 2100SOL     OW 7198   2.524   3.329   6.824  0.3054 -0.0182  0.1039
 2100SOL    HW1 7199   2.449   3.263   6.828  1.1011 -0.9677 -0.1606
 2100SOL    HW2 7200   2.583   3.308   6.745  1.5640 -0.0933  1.0379
 2101SOL     OW 7201   5.448   1.326   2.491  0.1796 -0.4193  0.5305
 2101SOL    HW1 7202   5.368   1.324   2.431  0.5823 -2.8739 -0.0602
 2101SOL    HW2 7203   5.528   1.356   2.439  0.1460 -0.6260  0.3547
 2102SOL     OW 7204   1.616   6.133   1.116 -0.1021 -0.3719  0.4233
 2102SOL    HW1 7205   1.665   6.047   1.127 -0.4195 -0.6250 -0.1001
 2102SOL    HW2 7206   1.653   6.182   1.036 -1.2307 -0.9417 -0.4705
 2103SOL     OW 7207   3.914   2.991   0.670  0.1792  0.0291 -0.0062
 2103SOL    HW1 7208   3.916   3.089   0.689  1.3444  0.0951 -0.3779
 2103SOL    HW2 7209   3.839   2.970   0.608 -0.4594  0.5875  0.5700
 2104SOL     OW 7210   0.016   6.294   1.011  0.1704 -0.0737  0.0920
 2104SOL    HW1 7211   0.035   6.330   0.919  1.3687 -2.8608 -0.8609
 2104SOL    HW2 7212  -0.054   6.223   1.005 -0.1695  0.1264  1.4525
 2105SOL     OW 7213   5.607   6.988   0.996 -0.5014  0.2900 -0.0962
 2105SOL    HW1 7214   5.618   6.932   1.078 -1.9075 -0.8298 -0.6335
 2105SOL    HW2 7215   5.638   7.082   1.015  0.9103 -0.3824  1.1289
 2106SOL     OW 7216   6.151   6.718   6.761  0.1743  0.2030 -0.4748
 2106SOL    HW1 7217   6.089   6.795   6.772 -1.0747 -0.5808 -1.6838
 2106SOL    HW2 7218   6.155   6.692   6.665  0.9853 -0.8948 -0.1608
 2107SOL     OW 7219   3.837   5.232   1.391 -0.0645 -0.4512 -0.3178
 2107SOL    HW1 7220   3.864   5.283   1.473  0.5402  1.4468 -1.6314
 2107SOL    HW2 7221   3.875   5.140   1.394  1.8181  0.3166  0.5180
 2108SOL     OW 7222   0.524   5.823   6.393 -0.3041 -0.1112  0.0158
 2108SOL    HW1 7223   0.455   5.896   6.396  0.1105  0.2833  0.1393
 2108SOL    HW2 7224   0.480   5.735   6.409 -0.7671  0.1455  0.1834
 2109SOL     OW 7225   6.162   5.132   4.362 -0.4866 -0.2802  0.5118
 2109SOL    HW1 7226   6.209   5.078   4.292 -0.3079  0.7037 -0.1536
 2109SOL    HW2 7227   6.226   5.155   4.435 -0.3278 -0.2023  0.3479
 2110SOL     OW 7228   1.443   3.762   6.468 -0.3746  0.1426  0.2127
 2110SOL    HW1 7229   1.381   3.795   6.398 -0.0997 -0.5194 -0.3653
 2110SOL    HW2 7230   1.527   3.816   6.467 -1.2676  1.6319  1.6111
 2111SOL     OW 7231   0.365   1.435   6.134 -0.2831  0.1593 -0.2142
 2111SOL    HW1 7232   0.272   1.421   6.166 -1.4034  0.9552 -2.8211
 2111SOL    HW2 7233   0.374   1.528   6.098  1.3478 -0.0854 -0.5101
 2112SOL     OW 7234   6.929   3.763   6.717  0.3117 -0.1886  0.3230
 2112SOL    HW1 7235   6.871   3.705   6.660  0.9308 -1.8971  1.3526
 2112SOL    HW2 7236   7.017   3.718   6.732  0.9801  1.2297  0.8226
 2113SOL     OW 7237   0.418   1.638   6.476  0.2238 -0.6628  0.3544
 2113SOL    HW1 7238   0.518   1.637   6.473  0.2428 -2.6498 -0.0337
 2113SOL    HW2 7239   0.384   1.544   6.467 -1.6049 -0.4084  3.1715
 2114SOL     OW 7240   0.435   3.584   5.468  0.5407 -0.1769  0.0293
 2114SOL    HW1 7241   0.420   3.487   5.485  1.5187 -0.3096  0.1892
 2114SOL    HW2 7242   0.353   3.623   5.426  0.3905 -1.2296 -0.7096
 2115SOL     OW 7243   2.533   4.104   0.670  0.0511  0.5076 -1.0161
 2115SOL    HW1 7244   2.510   4.196   0.704  1.2635  0.6430 -0.5129
 2115SOL    HW2 7245   2.518   4.037   0.742  0.1275  0.4429 -1.0606
 2116SOL     OW 7246   0.446   5.948   4.762 -0.7718 -0.3459 -0.0416
 2116SOL    HW1 7247   0.495   5.908   4.685 -1.0439  0.6013 -0.7347
 2116SOL    HW2 7248   0.464   5.896   4.845  2.7875  0.8978  0.1344
 2117SOL     OW 7249   5.636   4.048   4.736  0.2562  0.6677  0.4894
 2117SOL    HW1 7250   5.633   4.030   4.638 -0.9435  1.3533  0.3854
 2117SOL    HW2 7251   5.731   4.061   4.764  0.6921 -0.4334 -0.3965
 2118SOL     OW 7252   0.559   2.786   2.387  0.3166 -0.2155  0.3127
 2118SOL    HW1 7253   0.588   2.881   2.391  0.4145 -0.2510  0.4646
 2118SOL    HW2 7254   0.563   2.753   2.293  0.6379 -0.1803  0.3127
 2119SOL     OW 7255   2.643   6.364   5.164  0.2695  0.2091 -0.1492
 2119SOL    HW1 7256   2.599   6.283   5.126 -1.4783  0.7871  0.5444
 2119SOL    HW2 7257   2.710   6.336   5.233  0.6832 -0.6736 -0.8804
 2120SOL     OW 7258   1.367   5.001   1.663 -0.1585  1.0830 -0.1578
 2120SOL    HW1 7259   1.382   4.918   1.717  1.2612  0.8132 -0.9017
 2120SOL    HW2 7260   1.441   5.009   1.595 -0.8282  2.4358 -0.7459
 2121SOL     OW 7261   0.522   4.848   2.185  0.0744 -0.2622 -0.0203
 2121SOL    HW1 7262   0.567   4.764   2.156  0.8412 -0.0599  0.5219
 2121SOL    HW2 7263   0.424   4.842   2.168 -0.2950 -2.3215  2.3353
 2122SOL     OW 7264   4.452   4.836   0.145 -0.5358 -0.6654 -0.0592
 2122SOL    HW1 7265   4.456   4.820   0.046 -0.8397  0.8002 -0.3296
 2122SOL    HW2 7266   4.359   4.861   0.171 -0.3663 -0.6329  0.5294
 2123SOL     OW 7267   5.874   6.676   2.633  0.2574 -0.5259  0.2190
 2123SOL    HW1 7268   5.777   6.671   2.654  0.4161  0.0863  1.1585
 2123SOL    HW2 7269   5.915   6.585   2.640  0.1275 -0.5000  1.8136
 2124SOL     OW 7270   2.583   2.356   1.027 -0.1387  0.1265 -0.1978
 2124SOL    HW1 7271   2.644   2.411   0.970 -1.0656  0.2180 -1.1332
 2124SOL    HW2 7272   2.539   2.415   1.095 -0.4926  0.3905 -0.6510
 2125SOL     OW 7273   5.798   6.298   5.250  0.4633  0.0265 -0.0121
 2125SOL    HW1 7274   5.704   6.291   5.282  0.5945 -1.3680  0.1215
 2125SOL    HW2 7275   5.823   6.395   5.241 -1.1129  0.4120 -0.4955
 2126SOL     OW 7276   3.290   0.607   2.148 -0.4031 -0.1367 -0.1403
 2126SOL    HW1 7277   3.211   0.560   2.109  0.2708 -2.3134  0.9758
 2126SOL    HW2 7278   3.373   0.577   2.101 -0.0752  1.0717 -0.3667
 2127SOL     OW 7279   5.987   3.037   5.683 -0.0840  0.8641 -0.1952
 2127SOL    HW1 7280   5.959   3.060   5.589 -1.3400  1.8289  0.3921
 2127SOL    HW2 7281   6.050   3.107   5.717  0.0868  0.7014 -0.1700
 2128SOL     OW 7282   1.616   2.828   4.388 -0.0455 -0.2311 -0.0133
 2128SOL    HW1 7283   1.652   2.893   4.322 -1.0154 -0.9913 -1.3568
 2128SOL    HW2 7284   1.677   2.822   4.466  2.1941 -0.6777 -1.6804
 2129SOL     OW 7285   4.138   1.608   5.381 -0.0566 -0.4702 -0.5090
 2129SOL    HW1 7286   4.110   1.547   5.456  0.9914 -0.4580 -0.0886
 2129SOL    HW2 7287   4.057   1.651   5.341 -0.6009  0.0816  1.0888
 2130SOL     OW 7288   5.667   0.801   2.552 -0.4668 -0.5830 -0.0948
 2130SOL    HW1 7289   5.581   0.852   2.553 -0.6780 -0.9347  0.4845
 2130SOL    HW2 7290   5.740   0.857   2.593 -0.2406 -0.0124 -1.2205
 2131SOL     OW 7291   4.906   2.436   0.986 -0.5789 -0.0469  0.0849
 2131SOL    HW1 7292   4.935   2.455   0.892 -0.5911 -0.2494  0.0377
 2131SOL    HW2 7293   4.986   2.414   1.042 -0.6872 -1.3341 -0.2200
 2132SOL     OW 7294   6.347   2.171   0.268 -0.5350  0.2832  0.3707
 2132SOL    HW1 7295   6.437   2.215   0.262 -0.1303 -0.6843 -1.2808
 2132SOL    HW2 7296   6.276   2.238   0.246  0.0262  0.3502 -1.3943
 2133SOL     OW 7297   2.957   3.652   4.989 -0.4423 -0.1561  0.1425
 2133SOL    HW1 7298   2.961   3.751   4.995 -1.3481  0.0058 -1.3893
 2133SOL    HW2 7299   2.893   3.617   5.058  2.2746 -0.0420  2.9533
 2134SOL     OW 7300   1.484   0.708   6.740 -0.3004 -0.0549 -0.1385
 2134SOL    HW1 7301   1.396   0.666   6.720 -0.7584  0.2612  1.0742
 2134SOL    HW2 7302   1.504   0.696   6.838 -0.4426  2.4579  0.2577
 2135SOL     OW 7303   6.503   4.599   6.018 -0.4367  0.1681  0.0449
 2135SOL    HW1 7304   6.597   4.631   6.032 -0.0451  0.4657 -2.6861
 2135SOL    HW2 7305   6.441   4.652   6.075  0.7497  2.2657 -0.5128
 2136SOL     OW 7306   0.970   0.184   6.742  0.2366  0.1661 -0.3944
 2136SOL    HW1 7307   0.893   0.181   6.806 -0.3019 -0.8953 -1.0625
 2136SOL    HW2 7308   0.965   0.106   6.680  0.2542  1.6065 -2.3075
 2137SOL     OW 7309   1.312   6.980   4.222 -0.4976  0.2505  0.4848
 2137SOL    HW1 7310   1.295   6.986   4.320 -0.4655  0.6351  0.4672
 2137SOL    HW2 7311   1.279   6.891   4.188  0.2093 -0.2091  0.9806
 2138SOL     OW 7312   5.257   2.159   6.816 -0.0391 -0.2674  0.3387
 2138SOL    HW1 7313   5.227   2.226   6.747 -2.8242 -0.0200  1.6335
 2138SOL    HW2 7314   5.351   2.133   6.798  0.2935  1.9806 -1.8076
 2139SOL     OW 7315   3.605   1.164   3.290  0.7230 -0.4728  0.1045
 2139SOL    HW1 7316   3.616   1.074   3.247  0.5202 -0.0430 -0.8727
 2139SOL    HW2 7317   3.513   1.169   3.331  0.1976 -0.2134 -1.0754
 2140SOL     OW 7318   2.068   1.839   2.170  0.0928 -0.0431  0.4784
 2140SOL    HW1 7319   2.043   1.886   2.254 -0.1701 -0.4979  0.6606
 2140SOL    HW2 7320   2.011   1.873   2.094  0.1684  0.2007  0.5314
 2141SOL     OW 7321   5.517   5.102   3.712 -0.7280 -0.3204  0.0434
 2141SOL    HW1 7322   5.590   5.081   3.777  0.9678  1.0935 -1.3112
 2141SOL    HW2 7323   5.450   5.028   3.711  0.9118 -1.8749  1.0180
 2142SOL     OW 7324   3.151   0.317   0.895 -0.5572 -0.3643 -0.4499
 2142SOL    HW1 7325   3.090   0.260   0.840 -1.0660  0.0133 -0.2807
 2142SOL    HW2 7326   3.227   0.349   0.838 -1.3766  0.4828 -1.0834
 2143SOL     OW 7327   0.704   5.517   6.089 -0.4013  0.3668 -0.2535
 2143SOL    HW1 7328   0.635   5.463   6.137 -0.4227  0.5097 -0.1203
 2143SOL    HW2 7329   0.682   5.520   5.991 -0.1473 -0.2368 -0.3331
 2144SOL     OW 7330   5.824   4.897   2.556  0.2725  0.1797  0.0376
 2144SOL    HW1 7331   5.911   4.918   2.601 -0.4166  3.1106  0.2475
 2144SOL    HW2 7332   5.748   4.931   2.612 -0.8309  0.4217 -1.5256
 2145SOL     OW 7333   4.400   5.568   2.212  0.6219  0.1609  0.1084
 2145SOL    HW1 7334   4.442   5.581   2.122  0.1535 -1.2634 -0.3481
 2145SOL    HW2 7335   4.471   5.555   2.281  0.9708 -0.8786 -0.4289
 2146SOL     OW 7336   2.522   3.201   0.722 -0.5027  0.1196 -0.1798
 2146SOL    HW1 7337   2.615   3.221   0.689 -0.3544  0.0464  0.1849
 2146SOL    HW2 7338   2.460   3.195   0.645  0.0800 -1.3824 -0.5632
 2147SOL     OW 7339   4.789   6.218   4.952  0.4019  0.2326 -0.0133
 2147SOL    HW1 7340   4.788   6.255   4.859  2.2664  0.4466  0.0092
 2147SOL    HW2 7341   4.721   6.265   5.008 -0.6499  0.1997 -1.2192
 2148SOL     OW 7342   2.475   2.595   4.291  0.1825  0.3548 -0.0278
 2148SOL    HW1 7343   2.504   2.515   4.238 -0.5019  0.6653 -0.8883
 2148SOL    HW2 7344   2.497   2.580   4.388  1.0457 -0.4065 -0.3281
 2149SOL     OW 7345   6.796   0.084   0.208  0.0823  0.1701 -0.3940
 2149SOL    HW1 7346   6.867   0.145   0.175 -0.5107  0.9567 -0.2409
 2149SOL    HW2 7347   6.718   0.137   0.240  0.1837 -0.6060  1.2280
 2150SOL     OW 7348   1.307   1.284   0.241 -0.1418  0.4665 -0.0969
 2150SOL    HW1 7349   1.353   1.371   0.264  2.3253 -1.0148  1.0417
 2150SOL    HW2 7350   1.316   1.221   0.319 -3.8380 -0.1392 -0.0034
 2151SOL     OW 7351   6.570   4.285   5.811 -0.7442 -0.1588  0.8289
 2151SOL    HW1 7352   6.646   4.246   5.863  0.7902 -1.9269 -2.4270
 2151SOL    HW2 7353   6.599   4.370   5.769 -1.1127 -0.0284  0.8360
 2152SOL     OW 7354   6.093   6.004   4.369  0.1497  0.1054 -0.3604
 2152SOL    HW1 7355   6.138   5.916   4.354  1.8694  0.8207  0.3044
 2152SOL    HW2 7356   6.145   6.077   4.325 -1.2905  0.8150 -0.9766
 2153SOL     OW 7357   4.312   0.884   3.684  0.3682 -0.3759  0.0758
 2153SOL    HW1 7358   4.261   0.817   3.630 -0.0239  0.4910 -0.6560
 2153SOL    HW2 7359   4.378   0.931   3.624  2.7456 -2.1016  1.1526
 2154SOL     OW 7360   3.510   6.129   2.530 -0.1131 -0.0239 -0.0669
 2154SOL    HW1 7361   3.446   6.179   2.588 -0.3341 -0.6241  0.2154
 2154SOL    HW2 7362   3.475   6.038   2.512  0.5251 -0.2604 -0.1508
 2155SOL     OW 7363   4.639   0.292   1.133 -0.0454 -0.8890  0.4877
 2155SOL    HW1 7364   4.645   0.249   1.043  0.1308  0.1819 -0.0263
 2155SOL    HW2 7365   4.709   0.363   1.141 -1.6125  0.7314  0.5164
 2156SOL     OW 7366   6.275   2.326   3.896  0.5820  0.0034  0.7328
 2156SOL    HW1 7367   6.274   2.246   3.837 -0.4379  0.9194 -0.5536
 2156SOL    HW2 7368   6.195   2.323   3.956 -0.2875  0.7521 -0.3450
 2157SOL     OW 7369   6.476   5.920   3.760 -0.4200 -0.8957 -0.1163
 2157SOL    HW1 7370   6.408   5.956   3.824 -2.1955 -1.1944 -1.7398
 2157SOL    HW2 7371   6.447   5.939   3.667  3.1908  1.5977 -0.9658
 2158SOL     OW 7372   3.939   6.327   5.775  0.2613  0.2771 -0.2292
 2158SOL    HW1 7373   3.846   6.364   5.776 -0.1318 -0.6554  1.0818
 2158SOL    HW2 7374   3.935   6.228   5.760  1.0156  0.1825  0.1435
 2159SOL     OW 7375   1.125   1.706   4.310 -0.5072  0.3608 -0.1579
 2159SOL    HW1 7376   1.063   1.783   4.320  1.8126  2.1424  1.8086
 2159SOL    HW2 7377   1.219   1.740   4.303  0.4078 -2.2237 -2.2526
 2160SOL     OW 7378   5.261   5.452   0.226  0.3090 -0.2885  0.0609
 2160SOL    HW1 7379   5.349   5.497   0.213  1.6872 -2.4777  1.1233
 2160SOL    HW2 7380   5.214   5.492   0.304  0.2047  1.0719 -0.6716
 2161SOL     OW 7381   1.159   3.097   6.242 -0.2040 -0.4577  0.0393
 2161SOL    HW1 7382   1.104   3.029   6.193 -0.6803 -0.4909  0.6087
 2161SOL    HW2 7383   1.103   3.140   6.313  0.4502 -0.3512  0.4991
 2162SOL     OW 7384   2.798   6.651   1.639 -0.3534  0.2385  0.2936
 2162SOL    HW1 7385   2.867   6.623   1.573 -2.1866 -1.9663 -0.8354
 2162SOL    HW2 7386   2.720   6.691   1.591 -0.7936  0.6738  1.3345
 2163SOL     OW 7387   6.998   4.035   4.799 -0.0565 -0.0247 -0.5627
 2163SOL    HW1 7388   6.916   3.984   4.776  0.9788 -2.0656  0.0345
 2163SOL    HW2 7389   7.065   3.974   4.842  0.9298  2.0343  1.0141
 2164SOL     OW 7390   6.979   3.826   2.287 -0.3279  0.0517 -0.3893
 2164SOL    HW1 7391   7.015   3.893   2.352 -0.5436  0.5521 -0.7785
 2164SOL    HW2 7392   6.895   3.861   2.245 -0.8748 -0.7905 -0.0367
 2165SOL     OW 7393   0.909   2.495   4.595  0.1475 -0.0790  0.6203
 2165SOL    HW1 7394   1.008   2.502   4.592  0.1182  0.2279  0.1005
 2165SOL    HW2 7395   0.871   2.533   4.510 -0.3510 -1.2602  0.3029
 2166SOL     OW 7396   6.429   1.363   3.812 -0.3397  0.0427  0.4403
 2166SOL    HW1 7397   6.388   1.272   3.817 -1.5260  0.5808  1.0212
 2166SOL    HW2 7398   6.527   1.355   3.795 -0.4046 -1.3401  0.6013
 2167SOL     OW 7399   4.042   1.805   2.424 -0.2190 -0.4805 -0.4583
 2167SOL    HW1 7400   4.075   1.862   2.349  0.8383  0.5025  0.7190
 2167SOL    HW2 7401   4.102   1.725   2.434 -0.4254 -0.6703 -0.7174
 2168SOL     OW 7402   1.401   1.488   3.947 -0.9414 -0.5721  0.7336
 2168SOL    HW1 7403   1.458   1.540   3.883 -1.4195 -0.9501 -0.0030
 2168SOL    HW2 7404   1.449   1.480   4.035  0.9840 -2.4715 -0.4055
 2169SOL     OW 7405   6.927   6.498   1.600 -0.3028 -0.0204 -0.2231
 2169SOL    HW1 7406   6.949   6.591   1.570  1.7438  0.2357  1.7505
 2169SOL    HW2 7407   6.831   6.493   1.626 -0.6793  1.2572 -1.2170
 2170SOL     OW 7408   1.777   3.271   6.542 -0.2893 -1.0589  0.1555
 2170SOL    HW1 7409   1.749   3.353   6.591 -2.0021 -0.0088 -2.3371
 2170SOL    HW2 7410   1.837   3.296   6.466 -0.4586 -2.1466 -0.3626
 2171SOL     OW 7411   6.143   1.205   1.111  0.0913 -0.3602 -0.0719
 2171SOL    HW1 7412   6.096   1.165   1.190 -1.1241  0.3697 -0.3902
 2171SOL    HW2 7413   6.082   1.203   1.032  0.9678 -0.2599 -0.7609
 2172SOL     OW 7414   0.824   4.724   4.966  0.5378  0.2204  0.5286
 2172SOL    HW1 7415   0.891   4.799   4.966 -0.1223  0.8286  1.3503
 2172SOL    HW2 7416   0.863   4.645   5.014  1.9377 -0.6557 -1.9065
 2173SOL     OW 7417   3.384   1.207   5.070 -0.7045  0.0336  0.9623
 2173SOL    HW1 7418   3.360   1.240   4.979  0.6603 -0.3421  0.4426
 2173SOL    HW2 7419   3.473   1.243   5.097 -1.9934  1.8792  3.0830
 2174SOL     OW 7420   3.868   6.262   4.729  0.3864 -0.4248  0.4615
 2174SOL    HW1 7421   3.887   6.254   4.631 -0.6327 -0.9834  0.2989
 2174SOL    HW2 7422   3.866   6.358   4.754 -0.2634 -0.2369 -0.2620
 2175SOL     OW 7423   3.428   4.171   4.890 -0.4647  0.0975  0.2021
 2175SOL    HW1 7424   3.396   4.219   4.971 -0.6437  0.9527 -0.3648
 2175SOL    HW2 7425   3.465   4.082   4.917  0.0277  0.6059  1.2931
 2176SOL     OW 7426   0.124   1.335   1.411  0.5051  0.2484  0.2333
 2176SOL    HW1 7427   0.150   1.425   1.379 -0.7679  0.3752 -0.4978
 2176SOL    HW2 7428   0.194   1.268   1.384 -0.5807  0.2907 -3.1340
 2177SOL     OW 7429   6.060   1.094   5.967  0.4166 -0.0521  0.2516
 2177SOL    HW1 7430   6.144   1.082   5.914  1.5779  1.6247  1.6185
 2177SOL    HW2 7431   6.055   1.023   6.038  0.0699 -0.8525 -0.5602
 2178SOL     OW 7432   1.996   4.420   0.985 -0.7444  0.0448 -0.0694
 2178SOL    HW1 7433   2.082   4.468   0.998 -0.0764 -0.8462 -0.9816
 2178SOL    HW2 7434   1.968   4.428   0.889  1.1991 -4.1072 -1.2142
 2179SOL     OW 7435   2.315   3.292   6.108  0.1675  0.0811  0.3855
 2179SOL    HW1 7436   2.333   3.213   6.050 -2.2217  0.3549 -0.8564
 2179SOL    HW2 7437   2.328   3.267   6.204 -1.9892 -2.3492  0.1471
 2180SOL     OW 7438   6.335   5.316   3.397 -0.9118  0.5015 -0.0603
 2180SOL    HW1 7439   6.252   5.372   3.391 -0.7726  0.6354 -0.7361
 2180SOL    HW2 7440   6.416   5.373   3.382 -0.3743  1.1794  4.1560
 2181SOL     OW 7441   5.798   5.596   2.469 -0.3405 -0.1783  0.6375
 2181SOL    HW1 7442   5.895   5.622   2.471 -0.2327 -0.5812  0.7597
 2181SOL    HW2 7443   5.756   5.632   2.385  0.0749 -0.5539  0.2569
 2182SOL     OW 7444   6.305   6.793   5.919 -0.6568 -0.3541  0.3531
 2182SOL    HW1 7445   6.346   6.728   5.983 -0.0981 -2.3905 -1.9353
 2182SOL    HW2 7446   6.347   6.783   5.829 -1.2531  2.5690 -0.3629
 2183SOL     OW 7447   3.206   3.084   0.863 -0.3660 -0.1341  0.0736
 2183SOL    HW1 7448   3.260   3.163   0.834 -1.9838  1.0132 -0.0076
 2183SOL    HW2 7449   3.139   3.061   0.792 -2.7420  1.1682  1.7070
 2184SOL     OW 7450   0.799   1.136   6.836 -0.0669  0.1544 -0.0174
 2184SOL    HW1 7451   0.825   1.123   6.931  0.1047  2.1408  0.2367
 2184SOL    HW2 7452   0.704   1.166   6.831 -0.6008 -1.4800 -0.6112
 2185SOL     OW 7453   0.144   2.362   4.343  0.0651 -0.1481 -0.6964
 2185SOL    HW1 7454   0.141   2.418   4.426 -1.5826 -2.4491  0.9204
 2185SOL    HW2 7455   0.191   2.276   4.362 -0.1422 -0.6404 -2.2371
 2186SOL     OW 7456   6.207   4.194   0.956  0.0451  0.0090  0.3636
 2186SOL    HW1 7457   6.282   4.128   0.949  0.0035  0.1120 -2.5297
 2186SOL    HW2 7458   6.163   4.204   0.866 -2.8146  0.7092  1.7124
 2187SOL     OW 7459   7.002   3.873   0.659  0.1413  0.6410 -0.3006
 2187SOL    HW1 7460   6.953   3.956   0.685 -0.7534 -0.6089  2.3471
 2187SOL    HW2 7461   7.047   3.833   0.739 -0.3488 -1.9845 -1.2060
 2188SOL     OW 7462   3.961   1.915   2.077 -0.7587 -0.2628 -0.1434
 2188SOL    HW1 7463   3.939   2.012   2.090 -1.1724 -0.4988  1.0496
 2188SOL    HW2 7464   3.913   1.861   2.146  0.8246 -1.1622  0.2957
 2189SOL     OW 7465   1.489   2.053   1.936 -0.3130 -0.2099 -0.0522
 2189SOL    HW1 7466   1.557   2.042   2.008 -1.7688  2.8288  1.9902
 2189SOL    HW2 7467   1.422   1.979   1.942 -0.0082 -0.4028  1.2592
 2190SOL     OW 7468   6.990   4.128   2.275 -0.2969 -0.3514 -0.6729
 2190SOL    HW1 7469   6.913   4.089   2.225 -2.6444  0.9960  1.6565
 2190SOL    HW2 7470   6.988   4.098   2.370  1.6200  0.3843 -0.3374
 2191SOL     OW 7471   3.064   0.522   2.044  0.6650  0.3060  0.0081
 2191SOL    HW1 7472   3.005   0.546   2.121  1.2943  0.4691  0.4448
 2191SOL    HW2 7473   3.010   0.476   1.974  0.1453 -0.1438  0.6918
 2192SOL     OW 7474   4.213   1.798   1.674  0.2775 -0.0792 -0.0514
 2192SOL    HW1 7475   4.117   1.817   1.652  0.8941  0.2379 -2.8574
 2192SOL    HW2 7476   4.240   1.852   1.754 -1.7075  0.2680  0.4440
 2193SOL     OW 7477   1.927   6.502   1.098  0.3781  0.6884  0.6750
 2193SOL    HW1 7478   1.877   6.578   1.057 -1.2770 -0.6105  0.1849
 2193SOL    HW2 7479   1.905   6.498   1.196  0.3663  0.7727  0.6762
 2194SOL     OW 7480   2.600   4.620   5.129  0.4897 -0.0357  0.0533
 2194SOL    HW1 7481   2.551   4.579   5.052  1.3779 -1.4073  0.1656
 2194SOL    HW2 7482   2.698   4.619   5.110  0.6827  0.0532  0.9912
 2195SOL     OW 7483   0.138   5.066   3.202  0.0306 -0.3951 -0.4959
 2195SOL    HW1 7484   0.061   5.065   3.266  0.9842  0.5826  0.7054
 2195SOL    HW2 7485   0.109   5.111   3.117 -0.4617  0.8941  0.3260
 2196SOL     OW 7486   3.686   0.432   5.049 -0.1280 -0.1512 -0.3067
 2196SOL    HW1 7487   3.600   0.382   5.038 -0.1519  0.1273 -1.6050
 2196SOL    HW2 7488   3.679   0.493   5.128 -1.1792 -0.0196 -0.4819
 2197SOL     OW 7489   1.479   4.500   5.329 -0.1674  0.1746  0.2368
 2197SOL    HW1 7490   1.431   4.417   5.299  1.3583 -0.1668 -1.4334
 2197SOL    HW2 7491   1.552   4.475   5.393 -0.7912  0.4434  1.0666
 2198SOL     OW 7492   6.875   6.674   0.423 -0.4127 -0.1752 -0.4512
 2198SOL    HW1 7493   6.882   6.738   0.347  0.4241  0.9456  0.5377
 2198SOL    HW2 7494   6.949   6.607   0.418 -0.3759 -0.1183 -0.6345
 2199SOL     OW 7495   5.596   0.040   4.077  0.0531 -0.5967  0.4071
 2199SOL    HW1 7496   5.501   0.007   4.072 -0.0035 -0.2960 -1.4376
 2199SOL    HW2 7497   5.607   0.100   4.156 -1.8449  0.9550 -0.4263
 2200SOL     OW 7498   1.939   1.007   3.382  0.3317 -0.1720  0.3799
 2200SOL    HW1 7499   1.897   1.098   3.384 -0.8579 -0.6832 -0.2764
 2200SOL    HW2 7500   2.024   1.011   3.329  0.2569  0.5423  0.3045
 2201SOL     OW 7501   5.564   2.314   2.304 -0.3135 -0.6955  0.2808
 2201SOL    HW1 7502   5.632   2.386   2.311 -0.5949 -0.4018  0.0092
 2201SOL    HW2 7503   5.584   2.255   2.226 -0.0217 -0.9793  0.5675
 2202SOL     OW 7504   4.880   0.864   3.411  0.0173 -0.2195 -0.3883
 2202SOL    HW1 7505   4.793   0.899   3.375 -0.6407 -2.4033 -1.0847
 2202SOL    HW2 7506   4.921   0.803   3.343 -0.3028 -2.9980  1.7551
 2203SOL     OW 7507   2.720   3.775   1.240 -0.1140 -0.0694  0.3658
 2203SOL    HW1 7508   2.754   3.739   1.152  0.3615  0.2305  0.4193
 2203SOL    HW2 7509   2.796   3.816   1.290 -0.9673  3.0177 -0.6602
 2204SOL     OW 7510   2.971   5.312   5.757 -0.5087  1.7154 -0.0281
 2204SOL    HW1 7511   3.020   5.311   5.670 -1.4026  1.1907 -0.5360
 2204SOL    HW2 7512   2.892   5.251   5.752 -0.5293  1.6124  1.1809
 2205SOL     OW 7513   5.670   5.434   2.659 -0.2445 -0.1210 -0.1128
 2205SOL    HW1 7514   5.712   5.479   2.580 -1.4056  1.1904 -0.0323
 2205SOL    HW2 7515   5.740   5.388   2.712  1.4725  3.3319  0.9304
 2206SOL     OW 7516   2.501   2.175   5.471  0.1923  0.0454  0.2743
 2206SOL    HW1 7517   2.519   2.189   5.374  3.9698  0.3300  0.8581
 2206SOL    HW2 7518   2.487   2.077   5.489  0.4382 -0.1294 -0.4599
 2207SOL     OW 7519   4.759   3.699   0.760  0.4193  0.2266 -0.2462
 2207SOL    HW1 7520   4.750   3.599   0.761  0.9271  0.1774  0.0076
 2207SOL    HW2 7521   4.831   3.725   0.695  2.0655  0.2475  1.4958
 2208SOL     OW 7522   6.856   5.888   5.335 -0.1759  0.2786  0.0351
 2208SOL    HW1 7523   6.949   5.923   5.342  0.4020 -1.3259  0.9986
 2208SOL    HW2 7524   6.794   5.962   5.309  1.4183  1.2786 -1.1098
 2209SOL     OW 7525   2.755   5.134   3.223  0.0194 -0.5759 -0.4852
 2209SOL    HW1 7526   2.721   5.194   3.151 -2.0205  0.4066  1.2109
 2209SOL    HW2 7527   2.853   5.118   3.209  0.5099  2.5978 -1.4049
 2210SOL     OW 7528   0.344   5.562   1.330  0.0377  0.3579  0.2454
 2210SOL    HW1 7529   0.387   5.639   1.283 -0.2594 -0.0822 -0.7987
 2210SOL    HW2 7530   0.312   5.496   1.262 -0.2477 -0.4042  1.0944
 2211SOL     OW 7531   2.111   2.218   0.636  0.2142  0.0352 -0.6987
 2211SOL    HW1 7532   2.131   2.228   0.538  1.8509 -0.9631 -0.4891
 2211SOL    HW2 7533   2.162   2.141   0.673 -0.8705  0.0134  0.8318
 2212SOL     OW 7534   2.970   6.873   0.643 -0.3006  0.3251  0.6317
 2212SOL    HW1 7535   3.046   6.869   0.577 -0.0059  1.8099  0.8439
 2212SOL    HW2 7536   2.883   6.868   0.594 -0.1443 -2.2249  0.4388
 2213SOL     OW 7537   2.451   2.578   4.609  0.6257 -0.4429 -0.3849
 2213SOL    HW1 7538   2.405   2.666   4.616  2.8624  0.9061 -1.5480
 2213SOL    HW2 7539   2.500   2.559   4.694 -0.3209 -0.8920  0.0820
 2214SOL     OW 7540   3.756   4.578   6.783  0.3604  0.0596  0.3893
 2214SOL    HW1 7541   3.685   4.647   6.766  0.6143 -0.2904 -2.6809
 2214SOL    HW2 7542   3.846   4.621   6.778  0.4589  0.0006  1.4677
 2215SOL     OW 7543   5.496   5.879   1.683 -0.3114  0.3329 -0.0421
 2215SOL    HW1 7544   5.443   5.919   1.608 -0.7619 -0.5702 -0.2136
 2215SOL    HW2 7545   5.446   5.889   1.768  1.4062  3.9371  0.7416
 2216SOL     OW 7546   6.945   4.875   1.047  0.3799  0.6150  0.4519
 2216SOL    HW1 7547   6.997   4.843   1.126  0.0861  0.4184  0.5690
 2216SOL    HW2 7548   6.854   4.834   1.049  1.1451 -1.3732 -1.2712
 2217SOL     OW 7549   2.672   2.101   4.393 -0.2921  0.0868 -0.1836
 2217SOL    HW1 7550   2.640   2.174   4.454 -0.5230 -1.7112  1.9870
 2217SOL    HW2 7551   2.751   2.056   4.434 -1.9048 -2.7379  0.0810
 2218SOL     OW 7552   6.559   5.515   5.399 -0.0471  0.1239  0.4380
 2218SOL    HW1 7553   6.569   5.416   5.392  0.3919  0.1885  0.0742
 2218SOL    HW2 7554   6.538   5.540   5.494  0.9954 -0.2334  0.7854
 2219SOL     OW 7555   3.297   2.894   1.512 -0.0868 -0.1453  0.3787
 2219SOL    HW1 7556   3.338   2.939   1.432  0.2190  0.0538  0.6443
 2219SOL    HW2 7557   3.368   2.879   1.581 -0.3968 -0.1087  0.7056
 2220SOL     OW 7558   0.367   6.437   4.927 -0.1459 -0.0940 -0.1956
 2220SOL    HW1 7559   0.404   6.347   4.903 -1.2147 -0.0807 -2.0818
 2220SOL    HW2 7560   0.339   6.437   5.023  1.1624 -1.3055  0.2233
 2221SOL     OW 7561   5.232   5.564   2.009  0.3607 -0.6551  0.1600
 2221SOL    HW1 7562   5.156   5.561   2.073  0.2109  1.4433  0.1650
 2221SOL    HW2 7563   5.312   5.604   2.054 -0.1389  2.1474 -1.2087
 2222SOL     OW 7564   5.727   6.544   5.462  0.0982 -0.7971 -0.0657
 2222SOL    HW1 7565   5.643   6.494   5.482  0.2613 -0.7094  0.9203
 2222SOL    HW2 7566   5.806   6.488   5.486  0.3071 -0.6246 -0.3452
 2223SOL     OW 7567   2.328   0.595   5.733  0.3033  0.5887 -0.3214
 2223SOL    HW1 7568   2.378   0.556   5.810 -1.7848 -0.3882  0.6188
 2223SOL    HW2 7569   2.301   0.521   5.671 -1.7960  0.7448  0.3293
 2224SOL     OW 7570   5.406   5.167   6.551 -0.2936  0.0099 -0.2741
 2224SOL    HW1 7571   5.355   5.202   6.629  0.1276  1.2373 -0.5298
 2224SOL    HW2 7572   5.379   5.072   6.533 -1.0000 -0.0145  0.8283
 2225SOL     OW 7573   5.938   0.132   0.946  0.0155 -0.2152 -0.1156
 2225SOL    HW1 7574   5.913   0.096   1.035 -0.5398 -0.2150 -0.2682
 2225SOL    HW2 7575   6.030   0.102   0.922  0.2443 -0.0546  0.5409
 2226SOL     OW 7576   1.625   3.439   0.467 -0.4292  0.7662  0.6235
 2226SOL    HW1 7577   1.716   3.478   0.455 -0.1737  0.2419  0.8506
 2226SOL    HW2 7578   1.572   3.453   0.383  0.1182  0.3973  0.2099
 2227SOL     OW 7579   3.952   0.965   1.666  0.7965 -0.2561  0.1895
 2227SOL    HW1 7580   3.910   1.007   1.746 -1.3102 -1.8151 -0.0022
 2227SOL    HW2 7581   3.920   1.011   1.583  0.4063 -0.6767  0.1025
 2228SOL     OW 7582   4.984   5.960   0.694 -0.1868  0.4488 -0.1183
 2228SOL    HW1 7583   4.976   5.998   0.786  0.5175  0.6811 -0.1422
 2228SOL    HW2 7584   4.939   5.871   0.690 -1.5127  1.0908  0.0400
 2229SOL     OW 7585   4.152   3.480   4.676  0.0569  0.1670  0.0678
 2229SOL    HW1 7586   4.248   3.499   4.653  0.2698 -0.3661  0.4927
 2229SOL    HW2 7587   4.139   3.489   4.774 -0.3921  0.4745 -0.0177
 2230SOL     OW 7588   5.572   0.945   5.826 -0.3056 -0.3622  0.3852
 2230SOL    HW1 7589   5.511   0.900   5.761  0.5176  1.2735 -1.6476
 2230SOL    HW2 7590   5.667   0.929   5.799  0.1072 -0.6142  1.9067
 2231SOL     OW 7591   0.432   6.410   2.992  0.8899  0.5288  0.2583
 2231SOL    HW1 7592   0.422   6.466   2.909 -1.0353  1.3653  0.9924
 2231SOL    HW2 7593   0.527   6.414   3.024  1.3328  1.3683 -1.0789
 2232SOL     OW 7594   3.686   0.291   0.952 -0.1016  0.2216  0.2365
 2232SOL    HW1 7595   3.654   0.382   0.978  1.4939  0.7388  0.5147
 2232SOL    HW2 7596   3.673   0.228   1.029 -1.3200  0.1726  0.0013
 2233SOL     OW 7597   2.627   5.596   1.175  0.2133  0.4426  0.4225
 2233SOL    HW1 7598   2.546   5.636   1.219  0.1501 -0.5271  1.2387
 2233SOL    HW2 7599   2.652   5.650   1.095 -1.3758  0.6516  0.0270
 2234SOL     OW 7600   3.770   2.048   3.605 -0.0559  0.0227 -0.2237
 2234SOL    HW1 7601   3.814   1.958   3.615 -0.6115 -0.4111 -1.4273
 2234SOL    HW2 7602   3.684   2.048   3.657  0.0361 -0.0721 -0.0686
 2235SOL     OW 7603   0.947   6.681   2.380 -0.3709 -0.2868 -0.3567
 2235SOL    HW1 7604   0.898   6.764   2.406  0.4974  0.3236 -0.5843
 2235SOL    HW2 7605   0.896   6.632   2.310 -0.2437  0.8185 -1.2567
 2236SOL     OW 7606   1.697   5.692   4.910 -0.0234  0.6343 -0.1012
 2236SOL    HW1 7607   1.713   5.730   5.001  0.2443  1.0918 -0.3383
 2236SOL    HW2 7608   1.722   5.595   4.911  0.7788  0.8296  0.1021
 2237SOL     OW 7609   6.496   5.685   1.009  0.3459 -0.5544 -0.1333
 2237SOL    HW1 7610   6.473   5.761   1.069 -0.2615 -0.8469  0.0076
 2237SOL    HW2 7611   6.561   5.716   0.939 -1.1798  0.5297 -1.1100
 2238SOL     OW 7612   6.695   2.769   3.178  0.4516 -0.2336 -0.1146
 2238SOL    HW1 7613   6.711   2.698   3.109 -0.9532 -0.0945 -0.6277
 2238SOL    HW2 7614   6.750   2.750   3.259  0.2645 -1.8052 -0.3186
 2239SOL     OW 7615   4.068   6.803   3.273  0.2133  0.1212  0.2613
 2239SOL    HW1 7616   4.018   6.889   3.272 -1.1323 -0.6087 -1.9374
 2239SOL    HW2 7617   4.114   6.790   3.186  0.4947 -1.3324  0.5952
 2240SOL     OW 7618   0.408   5.573   3.412  0.3709 -0.1145  0.5114
 2240SOL    HW1 7619   0.484   5.591   3.350 -0.0676  0.5832  0.1609
 2240SOL    HW2 7620   0.379   5.659   3.455 -0.3690 -0.3353  0.4683
 2241SOL     OW 7621   0.590   0.948   4.574 -0.5832 -0.0693 -0.6033
 2241SOL    HW1 7622   0.641   0.863   4.562  0.0028 -0.0776  1.5290
 2241SOL    HW2 7623   0.648   1.016   4.618 -0.9992  1.5324 -2.4059
 2242SOL     OW 7624   4.926   0.795   3.682  0.7769  0.0893  0.4474
 2242SOL    HW1 7625   4.860   0.813   3.755 -0.3991  1.1016 -0.8141
 2242SOL    HW2 7626   4.879   0.795   3.594  1.5056 -4.3062 -0.2027
 2243SOL     OW 7627   1.262   0.077   1.300  0.1626 -0.3854  0.1137
 2243SOL    HW1 7628   1.234   0.014   1.374 -0.6843  0.7971  0.8301
 2243SOL    HW2 7629   1.352   0.115   1.321 -0.2737  0.2967  0.7861
 2244SOL     OW 7630   0.079   3.328   1.803 -0.1726 -0.2757  0.5919
 2244SOL    HW1 7631   0.159   3.270   1.785 -0.1302  0.0737 -0.4355
 2244SOL    HW2 7632   0.089   3.372   1.892  0.4476 -0.7798  0.7804
 2245SOL     OW 7633   0.903   1.938   6.798 -0.1741  0.2874 -0.2335
 2245SOL    HW1 7634   0.845   2.006   6.754  1.1403  0.7176 -1.3627
 2245SOL    HW2 7635   0.996   1.974   6.806  0.0357 -0.4965  1.2790
 2246SOL     OW 7636   4.803   1.347   6.218 -0.3025  0.3562 -0.0502
 2246SOL    HW1 7637   4.825   1.415   6.148 -2.9685  1.0549 -0.3332
 2246SOL    HW2 7638   4.876   1.279   6.222 -0.0415  0.2094 -3.6161
 2247SOL     OW 7639   2.881   1.901   1.423  0.6069  0.3118  0.1354
 2247SOL    HW1 7640   2.862   1.972   1.354 -0.7145 -0.3602 -0.2343
 2247SOL    HW2 7641   2.811   1.905   1.495 -0.1076 -1.2318 -0.4195
 2248SOL     OW 7642   4.900   2.866   4.426  0.2947  0.2841 -0.6856
 2248SOL    HW1 7643   4.971   2.925   4.463 -0.2990  1.9453 -2.0434
 2248SOL    HW2 7644   4.845   2.917   4.360 -2.4208 -0.8073  0.5763
 2249SOL     OW 7645   3.114   0.233   4.066  0.0507 -0.0446  0.1089
 2249SOL    HW1 7646   3.172   0.155   4.088  0.1225  0.6084  2.5396
 2249SOL    HW2 7647   3.027   0.225   4.115  0.1667  1.4815  0.6276
 2250SOL     OW 7648   2.681   5.111   6.787 -0.0070  0.2025 -0.0023
 2250SOL    HW1 7649   2.762   5.080   6.738  0.1719  1.5866 -0.6457
 2250SOL    HW2 7650   2.599   5.072   6.745  0.3178 -1.5713  0.9421
 2251SOL     OW 7651   4.449   6.826   3.753  0.0298  0.1922 -0.2646
 2251SOL    HW1 7652   4.523   6.759   3.744  0.7002  0.7360  0.9242
 2251SOL    HW2 7653   4.361   6.780   3.748  0.4730 -0.6857 -0.1022
 2252SOL     OW 7654   2.655   2.155   4.134  0.3170 -0.3288  0.5764
 2252SOL    HW1 7655   2.656   2.137   4.233  1.3868  1.2821  0.8902
 2252SOL    HW2 7656   2.634   2.070   4.085 -0.5960 -1.0826  2.1870
 2253SOL     OW 7657   1.316   3.821   1.898  0.3956 -0.4802  0.2536
 2253SOL    HW1 7658   1.326   3.879   1.818 -0.6165 -1.1975 -0.4158
 2253SOL    HW2 7659   1.278   3.875   1.974 -1.2628 -0.3933 -0.5838
 2254SOL     OW 7660   2.882   3.891   1.668  0.3452  0.2096 -0.0277
 2254SOL    HW1 7661   2.875   3.801   1.711 -0.3084  0.8792  1.3157
 2254SOL    HW2 7662   2.918   3.957   1.733 -1.0884  1.3563 -0.3363
 2255SOL     OW 7663   3.117   1.088   5.929 -0.1052 -0.3392 -0.3358
 2255SOL    HW1 7664   3.086   1.027   5.856 -1.6685  0.0213 -0.0280
 2255SOL    HW2 7665   3.125   1.181   5.894  1.6716 -0.5865 -0.6526
 2256SOL     OW 7666   5.145   5.978   6.478 -0.1166 -0.3623  0.0565
 2256SOL    HW1 7667   5.143   6.078   6.483  2.0100 -0.3173  2.5202
 2256SOL    HW2 7668   5.055   5.942   6.505 -0.6670  0.8552 -0.0651
 2257SOL     OW 7669   6.859   0.831   5.693 -0.1793  0.4570  0.2412
 2257SOL    HW1 7670   6.819   0.915   5.657  0.7276  0.5637 -0.5725
 2257SOL    HW2 7671   6.957   0.830   5.673  0.0540 -0.2440  1.3095
 2258SOL     OW 7672   1.160   6.677   3.181 -0.2011  0.0738  0.0161
 2258SOL    HW1 7673   1.066   6.710   3.178  0.1408  1.0337 -0.7847
 2258SOL    HW2 7674   1.189   6.648   3.090  0.0993 -0.7747  0.3664
 2259SOL     OW 7675   6.499   6.134   4.773 -0.3227 -0.2019 -0.2389
 2259SOL    HW1 7676   6.492   6.183   4.686 -0.3619  0.4087  0.1037
 2259SOL    HW2 7677   6.419   6.154   4.829  0.3629  0.5157  0.4935
 2260SOL     OW 7678   0.930   1.298   6.657 -0.0568  0.4218  0.7536
 2260SOL    HW1 7679   0.901   1.273   6.565  2.1535  2.3672 -0.6002
 2260SOL    HW2 7680   0.897   1.230   6.723 -0.9150 -1.5401 -1.5683
 2261SOL     OW 7681   5.346   2.961   5.883  0.2011  0.3030 -0.3238
 2261SOL    HW1 7682   5.277   3.031   5.868  0.2034  0.0730 -1.5145
 2261SOL    HW2 7683   5.365   2.913   5.796 -0.0114 -1.3530  0.5027
 2262SOL     OW 7684   6.479   1.957   6.158  0.5187  0.4334 -0.0361
 2262SOL    HW1 7685   6.523   1.900   6.089  1.1393 -1.4037  1.7450
 2262SOL    HW2 7686   6.387   1.922   6.177  0.2540  1.0764 -0.1141
 2263SOL     OW 7687   3.637   6.075   6.339 -0.5097 -0.1594 -0.2695
 2263SOL    HW1 7688   3.591   5.991   6.367 -0.6668 -0.1651 -0.5379
 2263SOL    HW2 7689   3.648   6.135   6.418  1.5532 -1.3234  0.3899
 2264SOL     OW 7690   1.171   6.260   5.958 -0.1259  0.3588 -0.0861
 2264SOL    HW1 7691   1.242   6.295   6.019  0.6846 -2.4212  0.6829
 2264SOL    HW2 7692   1.212   6.212   5.881 -1.1813 -0.1727 -0.3458
 2265SOL     OW 7693   0.165   0.516   5.062  0.1265 -0.7838 -0.1796
 2265SOL    HW1 7694   0.145   0.565   5.147 -0.3496 -1.0890 -0.1155
 2265SOL    HW2 7695   0.080   0.492   5.016  0.3646  1.3342 -1.8908
 2266SOL     OW 7696   4.084   4.403   0.102 -0.0745 -0.3954  0.7195
 2266SOL    HW1 7697   4.073   4.453   0.188  0.6765  1.7087 -0.3239
 2266SOL    HW2 7698   4.002   4.414   0.046  0.8340  1.4679 -0.3382
 2267SOL     OW 7699   5.574   2.736   3.867 -0.3265  0.4280  0.6157
 2267SOL    HW1 7700   5.588   2.644   3.905  0.5593  0.8476  1.3474
 2267SOL    HW2 7701   5.477   2.761   3.877 -0.4836 -0.2350  0.8365
 2268SOL     OW 7702   0.626   4.073   4.729  0.4199  0.2177 -0.2089
 2268SOL    HW1 7703   0.575   4.046   4.647 -2.1387  1.1185  0.9801
 2268SOL    HW2 7704   0.626   3.997   4.794 -1.8523  1.0344  0.8533
 2269SOL     OW 7705   3.295   2.118   5.599 -0.1831 -0.5791 -0.1381
 2269SOL    HW1 7706   3.216   2.137   5.656 -0.8402 -0.0187 -1.1974
 2269SOL    HW2 7707   3.268   2.059   5.523  0.6908 -1.3741  0.1433
 2270SOL     OW 7708   4.909   1.159   7.022  0.3707  0.6733  0.1379
 2270SOL    HW1 7709   4.970   1.226   6.981  0.8563  1.2857  1.7880
 2270SOL    HW2 7710   4.841   1.206   7.079 -0.5747 -0.1115 -0.3116
 2271SOL     OW 7711   4.817   5.535   5.785 -0.3054  0.4728  0.3418
 2271SOL    HW1 7712   4.853   5.513   5.695 -0.5090  0.0142  0.3703
 2271SOL    HW2 7713   4.770   5.623   5.782  0.9775  1.1820  0.3480
 2272SOL     OW 7714   0.061   1.284   6.066 -0.0678 -0.4012 -0.4189
 2272SOL    HW1 7715   0.058   1.304   5.968  1.1967 -1.4555 -0.7079
 2272SOL    HW2 7716   0.075   1.370   6.116 -2.0873  0.3258 -1.0270
 2273SOL     OW 7717   1.720   2.344   3.851 -0.3348 -0.2692  0.2090
 2273SOL    HW1 7718   1.701   2.275   3.782  2.0803 -0.0004 -0.8317
 2273SOL    HW2 7719   1.735   2.432   3.807  0.1579  0.1472  1.1818
 2274SOL     OW 7720   2.300   3.238   0.580  0.5079 -0.2986  0.2221
 2274SOL    HW1 7721   2.228   3.211   0.516  2.2220 -3.3541 -0.6160
 2274SOL    HW2 7722   2.288   3.188   0.665  0.2264  1.1443  1.0558
 2275SOL     OW 7723   4.591   2.227   3.147  0.1350  0.3782 -0.7157
 2275SOL    HW1 7724   4.685   2.257   3.129  0.2415 -0.4671 -1.7248
 2275SOL    HW2 7725   4.532   2.306   3.161  0.5126  1.0704 -2.7134
 2276SOL     OW 7726   0.624   2.754   1.384  0.2627  0.1326  0.7219
 2276SOL    HW1 7727   0.626   2.854   1.376  0.4041  0.0650 -0.2422
 2276SOL    HW2 7728   0.689   2.725   1.453  1.3769  0.6191 -0.0867
 2277SOL     OW 7729   3.992   3.953   3.293 -0.0271 -0.3051 -0.3190
 2277SOL    HW1 7730   3.980   3.942   3.195  1.6881  2.0575 -0.9087
 2277SOL    HW2 7731   3.917   4.008   3.330 -0.7994 -1.3924 -0.2186
 2278SOL     OW 7732   5.829   1.948   3.548 -0.1417  0.1441 -0.3310
 2278SOL    HW1 7733   5.798   1.853   3.558  0.0521  0.1711  0.6417
 2278SOL    HW2 7734   5.900   1.953   3.478  0.6993 -0.6365  0.4529
 2279SOL     OW 7735   0.712   4.294   6.133  0.5140 -0.0068  0.3770
 2279SOL    HW1 7736   0.695   4.226   6.062 -0.4361  0.6981 -0.0922
 2279SOL    HW2 7737   0.773   4.365   6.098 -0.5792  0.7538  0.0006
 2280SOL     OW 7738   6.805   3.462   5.257 -0.3428  0.4393 -0.0042
 2280SOL    HW1 7739   6.796   3.411   5.342 -2.8202  0.1973 -0.3488
 2280SOL    HW2 7740   6.753   3.547   5.263 -3.0341 -0.8833 -2.1507
 2281SOL     OW 7741   6.401   7.014   3.614 -0.3682  0.6605  0.0421
 2281SOL    HW1 7742   6.307   7.009   3.648  0.6501 -0.8477  3.0894
 2281SOL    HW2 7743   6.427   6.925   3.576  0.4026  0.3740  1.1727
 2282SOL     OW 7744   2.695   4.515   0.638  0.4282  0.4245  0.8396
 2282SOL    HW1 7745   2.736   4.455   0.569 -2.1612 -0.3666 -0.1214
 2282SOL    HW2 7746   2.711   4.611   0.614  0.5613  0.1423 -0.2258
 2283SOL     OW 7747   6.770   1.043   6.332  0.8551 -0.6391  0.0511
 2283SOL    HW1 7748   6.712   1.053   6.251  1.3009 -1.5489 -0.3969
 2283SOL    HW2 7749   6.796   0.947   6.342  0.9004 -0.5119  1.2142
 2284SOL     OW 7750   1.820   3.352   4.734 -0.0060 -0.0368  0.2971
 2284SOL    HW1 7751   1.792   3.380   4.826  1.5034 -3.4896  2.0023
 2284SOL    HW2 7752   1.918   3.367   4.722 -0.0599 -0.2522 -0.4731
 2285SOL     OW 7753   2.442   5.379   4.594  0.0355  0.0804 -0.3125
 2285SOL    HW1 7754   2.353   5.352   4.631  0.8129 -0.7551  1.0210
 2285SOL    HW2 7755   2.512   5.313   4.623  1.2340  1.1457 -0.6757
 2286SOL     OW 7756   5.337   5.053   3.426  0.1855 -0.0706 -0.1476
 2286SOL    HW1 7757   5.248   5.055   3.380  0.7090  0.0332 -1.1848
 2286SOL    HW2 7758   5.407   5.092   3.366  0.5580  2.0186  1.5278
 2287SOL     OW 7759   2.121   0.162   3.611 -0.3124 -0.1098  0.2407
 2287SOL    HW1 7760   2.024   0.183   3.619  0.0387  1.5159  0.8397
 2287SOL    HW2 7761   2.172   0.214   3.680  0.8604 -2.0637  0.9329
 2288SOL     OW 7762   0.733   5.603   3.138 -0.3520  0.7705  0.9746
 2288SOL    HW1 7763   0.792   5.528   3.106  0.3908  1.5929  0.3590
 2288SOL    HW2 7764   0.657   5.614   3.074 -0.4450  0.5757  1.0482
 2289SOL     OW 7765   0.186   5.597   7.003 -0.2047 -0.0043 -0.2447
 2289SOL    HW1 7766   0.196   5.566   7.098 -0.0483 -0.6409 -0.4639
 2289SOL    HW2 7767   0.095   5.573   6.969  0.1282 -0.8032 -0.6125
 2290SOL     OW 7768   2.758   4.792   6.110 -0.6115 -0.3403 -0.1254
 2290SOL    HW1 7769   2.717   4.781   6.201  0.5412 -2.1860  0.2234
 2290SOL    HW2 7770   2.703   4.742   6.043 -0.4288 -0.5401 -0.1248
 2291SOL     OW 7771   0.319   0.582   0.382 -0.3451 -0.3357 -0.6013
 2291SOL    HW1 7772   0.388   0.655   0.388 -0.2007 -0.5278  0.2330
 2291SOL    HW2 7773   0.228   0.622   0.395 -0.1170 -0.5995  2.8556
 2292SOL     OW 7774   2.183   1.723   5.273  0.2743  0.1358  0.2198
 2292SOL    HW1 7775   2.137   1.784   5.209  0.5811 -0.2796 -0.4053
 2292SOL    HW2 7776   2.255   1.672   5.225  0.2521 -0.4598  0.8025
 2293SOL     OW 7777   4.485   5.538   2.968  0.0248 -0.0301  0.1335
 2293SOL    HW1 7778   4.404   5.479   2.966  0.3509 -0.4687 -0.4727
 2293SOL    HW2 7779   4.507   5.561   3.063 -0.2318 -0.7124  0.3625
 2294SOL     OW 7780   3.463   6.892   6.203 -0.4521  0.6071 -0.2473
 2294SOL    HW1 7781   3.459   6.920   6.107  1.3754 -0.8085 -0.7967
 2294SOL    HW2 7782   3.559   6.878   6.230 -1.0334 -2.0563  0.8127
 2295SOL     OW 7783   0.469   2.651   1.784  0.4481 -0.1668  0.4150
 2295SOL    HW1 7784   0.558   2.667   1.741  0.6773 -0.6891  0.6909
 2295SOL    HW2 7785   0.418   2.582   1.733  0.0032  0.4636 -0.0106
 2296SOL     OW 7786   3.294   6.526   5.760 -0.2677 -0.1632  0.0450
 2296SOL    HW1 7787   3.329   6.548   5.669  0.5603 -1.3254  0.0653
 2296SOL    HW2 7788   3.331   6.591   5.827 -1.1991  0.9429 -0.4877
 2297SOL     OW 7789   4.337   5.348   6.367  0.1824  0.3486  0.3843
 2297SOL    HW1 7790   4.282   5.423   6.404  0.1597  0.7780 -0.5024
 2297SOL    HW2 7791   4.420   5.385   6.325  0.4959 -0.1842  0.5300
 2298SOL     OW 7792   3.492   2.610   0.065 -0.4991  0.3194  0.0084
 2298SOL    HW1 7793   3.500   2.587  -0.032  0.2733 -1.8625  0.5262
 2298SOL    HW2 7794   3.581   2.641   0.100 -0.7865  1.1540  0.0413
 2299SOL     OW 7795   4.897   1.395   1.292 -0.0284  0.4563  0.0837
 2299SOL    HW1 7796   4.895   1.295   1.301 -0.3201  0.3760 -0.7755
 2299SOL    HW2 7797   4.951   1.434   1.367 -0.3953 -0.2976  0.7589
 2300SOL     OW 7798   0.107   3.530   2.013  0.2608  0.5979 -0.0605
 2300SOL    HW1 7799   0.083   3.490   2.101 -0.1596  1.1537  0.0856
 2300SOL    HW2 7800   0.081   3.627   2.013  0.6560  0.7080 -0.6378
 2301SOL     OW 7801   0.853   3.886   0.345 -0.4954  0.3637  0.0392
 2301SOL    HW1 7802   0.928   3.891   0.411 -0.8729  0.4715  0.4646
 2301SOL    HW2 7803   0.783   3.823   0.380  0.5404 -1.8104 -1.5174
 2302SOL     OW 7804   1.856   4.602   2.281 -0.3283 -0.4622  0.4726
 2302SOL    HW1 7805   1.762   4.568   2.274 -0.8598  1.2000 -1.3978
 2302SOL    HW2 7806   1.908   4.569   2.202 -0.9077  2.9043 -1.5138
 2303SOL     OW 7807   0.945   3.517   4.444  0.3472  0.3621  0.3272
 2303SOL    HW1 7808   0.865   3.478   4.489  1.1472 -2.9221 -0.8012
 2303SOL    HW2 7809   1.009   3.550   4.513  0.2598 -1.8172  1.5564
 2304SOL     OW 7810   3.801   1.485   6.340 -0.1013 -0.5986 -0.4971
 2304SOL    HW1 7811   3.842   1.557   6.284  0.8099  1.3669  2.4320
 2304SOL    HW2 7812   3.701   1.490   6.332  0.0039 -0.7909 -2.3272
 2305SOL     OW 7813   3.773   4.031   1.849 -0.4764 -0.0269  0.1377
 2305SOL    HW1 7814   3.726   4.112   1.815 -0.2596 -0.1505 -0.4620
 2305SOL    HW2 7815   3.869   4.034   1.821 -0.8080 -1.2261 -1.1991
 2306SOL     OW 7816   6.933   4.316   6.893 -0.7476 -0.0528  0.0538
 2306SOL    HW1 7817   6.969   4.290   6.804  0.3066 -1.2664  0.8059
 2306SOL    HW2 7818   6.934   4.416   6.902 -1.4123  0.1277 -1.4800
 2307SOL     OW 7819   2.321   0.095   3.445  1.1047 -0.0405 -0.4155
 2307SOL    HW1 7820   2.411   0.131   3.473  1.7597 -1.4433 -0.6367
 2307SOL    HW2 7821   2.250   0.135   3.503  2.0680 -0.2564  0.9704
 2308SOL     OW 7822   6.488   0.024   6.104  0.0474  0.2822  0.5907
 2308SOL    HW1 7823   6.402   0.070   6.126  0.4312  1.7002 -0.6503
 2308SOL    HW2 7824   6.562   0.091   6.102  0.8977 -0.6422  0.1174
 2309SOL     OW 7825   4.293   5.719   6.892  0.4132  0.4709 -0.0945
 2309SOL    HW1 7826   4.376   5.707   6.837  1.5416  0.9578  1.4643
 2309SOL    HW2 7827   4.296   5.807   6.939 -0.8386  0.3422  0.2638
 2310SOL     OW 7828   5.282   1.384   3.585  0.2534  0.6838  0.0119
 2310SOL    HW1 7829   5.212   1.445   3.549  1.2044  0.5612 -2.2769
 2310SOL    HW2 7830   5.362   1.437   3.612 -0.2108  0.7103  1.4281
 2311SOL     OW 7831   3.164   6.996   4.586 -0.2885 -0.0843  0.2134
 2311SOL    HW1 7832   3.086   7.047   4.548  0.0129  0.9451  0.9278
 2311SOL    HW2 7833   3.240   7.059   4.600  0.3640 -0.9032  0.4000
 2312SOL     OW 7834   3.044   0.689   6.798  0.2751  0.4640 -0.1899
 2312SOL    HW1 7835   3.132   0.675   6.753  0.0777  1.7051 -1.0153
 2312SOL    HW2 7836   2.973   0.639   6.749  0.4283 -0.1098  0.1646
 2313SOL     OW 7837   4.590   5.309   1.444 -0.2494  0.7227  0.1322
 2313SOL    HW1 7838   4.667   5.371   1.456 -0.0736  0.5663 -0.1793
 2313SOL    HW2 7839   4.578   5.289   1.347 -0.3360  0.3087  0.2276
 2314SOL     OW 7840   0.648   0.065   3.059 -0.0853  0.3796  0.1407
 2314SOL    HW1 7841   0.580  -0.006   3.072 -0.2207  0.5872  0.6087
 2314SOL    HW2 7842   0.710   0.067   3.138  0.4938  0.1638 -0.2967
 2315SOL     OW 7843   5.034   5.480   6.268  0.0958  0.6957 -0.7402
 2315SOL    HW1 7844   4.962   5.459   6.203  1.1294 -0.3135 -1.5985
 2315SOL    HW2 7845   5.056   5.399   6.322 -1.3405  1.7266  1.5423
 2316SOL     OW 7846   3.137   2.836   6.936  0.1174  0.0733  0.5276
 2316SOL    HW1 7847   3.171   2.929   6.921 -2.1636  1.3767  2.5999
 2316SOL    HW2 7848   3.172   2.801   7.023  0.4798 -0.7814  0.0498
 2317SOL     OW 7849   0.327   4.636   1.814 -0.3552  0.6079  0.3746
 2317SOL    HW1 7850   0.299   4.588   1.897 -1.4918 -0.1426 -0.3978
 2317SOL    HW2 7851   0.290   4.729   1.814 -1.5790  0.1521  0.1044
 2318SOL     OW 7852   6.958   6.682   5.227 -0.5089 -1.1596  0.8183
 2318SOL    HW1 7853   6.932   6.636   5.142 -1.5843 -0.6201  0.8309
 2318SOL    HW2 7854   6.991   6.774   5.205 -2.8340 -0.1809  1.0719
 2319SOL     OW 7855   3.260   4.896   1.089  0.0431 -0.0226  0.1582
 2319SOL    HW1 7856   3.265   4.806   1.132 -0.3771  0.7313  1.8653
 2319SOL    HW2 7857   3.245   4.966   1.159  0.2503  1.3775 -1.1391
 2320SOL     OW 7858   1.111   2.818   4.526 -0.4179  0.4758  0.4144
 2320SOL    HW1 7859   1.153   2.909   4.524  0.5320  0.0365 -0.1942
 2320SOL    HW2 7860   1.025   2.820   4.474 -0.3200  0.9839  0.2640
 2321SOL     OW 7861   2.516   5.231   5.725 -0.5063 -0.4459 -0.3553
 2321SOL    HW1 7862   2.490   5.278   5.640 -0.7537  0.3011  0.1259
 2321SOL    HW2 7863   2.608   5.192   5.714 -0.3580  0.0209 -0.8148
 2322SOL     OW 7864   1.402   2.970   2.812 -0.2313  0.0267  0.3303
 2322SOL    HW1 7865   1.495   2.984   2.778 -0.0117 -0.1524  0.8562
 2322SOL    HW2 7866   1.381   2.872   2.814 -1.1573  0.1291 -1.7045
 2323SOL     OW 7867   2.245   6.684   6.853  0.0773  0.0143 -0.1454
 2323SOL    HW1 7868   2.275   6.663   6.946  0.8387  0.5683 -0.2620
 2323SOL    HW2 7869   2.319   6.729   6.803 -0.5080  0.2067 -0.8541
 2324SOL     OW 7870   6.048   2.530   1.129  0.0048  0.3889 -0.5008
 2324SOL    HW1 7871   6.138   2.568   1.153  1.1384 -1.7415 -1.0988
 2324SOL    HW2 7872   5.992   2.602   1.087  0.8408  2.1500  1.1859
 2325SOL     OW 7873   6.525   4.390   2.722 -0.2377  0.4960  0.2024
 2325SOL    HW1 7874   6.553   4.294   2.718  0.0288  0.5716  0.2371
 2325SOL    HW2 7875   6.481   4.416   2.635  0.2679  0.5180 -0.0505
 2326SOL     OW 7876   1.438   6.813   0.828 -0.3554 -0.3625  0.2575
 2326SOL    HW1 7877   1.351   6.862   0.823  0.3923  0.8433 -2.5092
 2326SOL    HW2 7878   1.423   6.716   0.809 -1.0742 -0.1190 -0.4536
 2327SOL     OW 7879   2.145   0.697   2.588 -0.5411 -0.4890 -0.1755
 2327SOL    HW1 7880   2.133   0.747   2.502 -1.8283  0.7060  0.6516
 2327SOL    HW2 7881   2.215   0.742   2.643 -0.1724 -0.8713 -0.3342
 2328SOL     OW 7882   2.176   2.938   2.015  0.0386  0.3601  0.2383
 2328SOL    HW1 7883   2.154   3.030   1.982 -0.4974  0.8874  1.9753
 2328SOL    HW2 7884   2.193   2.941   2.114  2.5683 -0.9871 -0.0769
 2329SOL     OW 7885   6.520   5.126   3.395  0.1138 -0.1285 -0.1244
 2329SOL    HW1 7886   6.490   5.031   3.403  0.5476 -0.1513  1.7221
 2329SOL    HW2 7887   6.441   5.185   3.380 -0.5106 -0.5167  1.4892
 2330SOL     OW 7888   5.831   4.471   1.707 -0.2935 -0.2586  1.2189
 2330SOL    HW1 7889   5.754   4.478   1.770  0.9700  0.2359  2.7740
 2330SOL    HW2 7890   5.799   4.434   1.619 -2.3956  0.5594  1.5836
 2331SOL     OW 7891   5.130   5.514   6.575  0.4462 -0.1417  0.2488
 2331SOL    HW1 7892   5.110   5.500   6.672 -0.9188  0.8993  0.1563
 2331SOL    HW2 7893   5.134   5.426   6.529  1.9529 -0.7101  1.3716
 2332SOL     OW 7894   5.125   6.081   6.852 -0.7422  0.3199  0.4297
 2332SOL    HW1 7895   5.142   6.059   6.756 -0.4406  0.6147  0.4121
 2332SOL    HW2 7896   5.148   6.177   6.869 -0.5289  0.1972  0.8569
 2333SOL     OW 7897   1.166   3.316   2.778  0.8894 -0.1691  0.1396
 2333SOL    HW1 7898   1.217   3.401   2.786  1.8789 -0.6013 -1.1556
 2333SOL    HW2 7899   1.190   3.271   2.692  0.3927 -1.7536  0.7861
 2334SOL     OW 7900   3.959   1.774   5.252  0.5727  0.1960 -0.0478
 2334SOL    HW1 7901   3.866   1.767   5.290  0.9173  0.1806  0.8049
 2334SOL    HW2 7902   3.953   1.780   5.152 -0.2816 -1.2238 -0.1145
 2335SOL     OW 7903   0.001   0.853   3.029 -0.0983  0.2911  0.0788
 2335SOL    HW1 7904  -0.027   0.948   3.014 -0.5358  0.2735  0.7710
 2335SOL    HW2 7905   0.008   0.806   2.940  0.2620  1.0001 -0.2779
 2336SOL     OW 7906   3.037   0.067   3.166 -0.4064  0.3778  0.3970
 2336SOL    HW1 7907   3.072   0.132   3.099  0.7070  1.6711  2.1386
 2336SOL    HW2 7908   2.939   0.082   3.179 -0.4865  0.5857 -0.4220
 2337SOL     OW 7909   3.682   1.850   2.802 -0.1629  1.0124  0.4268
 2337SOL    HW1 7910   3.709   1.804   2.718 -0.9816 -1.8674  1.6104
 2337SOL    HW2 7911   3.651   1.943   2.781  0.3226  0.6393 -2.3033
 2338SOL     OW 7912   6.337   2.821   2.837  0.1294 -1.0009 -0.3515
 2338SOL    HW1 7913   6.425   2.847   2.877 -1.2105  1.1054  1.4776
 2338SOL    HW2 7914   6.338   2.725   2.811  1.8020 -2.0142  3.0037
 2339SOL     OW 7915   3.809   3.781   2.595 -0.2303  0.6909  0.8122
 2339SOL    HW1 7916   3.767   3.730   2.520  2.0900 -0.4034  0.1632
 2339SOL    HW2 7917   3.791   3.734   2.681  0.9383 -0.6785  0.3517
 2340SOL     OW 7918   1.263   3.391   6.260 -0.3695 -0.1621 -0.8146
 2340SOL    HW1 7919   1.242   3.296   6.235  0.1559 -0.2568 -0.9059
 2340SOL    HW2 7920   1.213   3.453   6.200 -0.6231 -0.3814 -0.8321
 2341SOL     OW 7921   2.094   4.231   3.756 -0.4702 -0.2335  0.0289
 2341SOL    HW1 7922   2.101   4.319   3.804 -1.6883 -1.1351  1.9759
 2341SOL    HW2 7923   2.028   4.240   3.681 -1.0563  0.3535  0.6017
 2342SOL     OW 7924   4.668   3.112   5.387  0.0244  0.0371  0.1357
 2342SOL    HW1 7925   4.620   3.157   5.463  1.1394  0.9300  0.3466
 2342SOL    HW2 7926   4.626   3.023   5.369 -0.8469  0.2110  1.1827
 2343SOL     OW 7927   0.617   6.543   1.554  0.3279  0.3064 -0.4160
 2343SOL    HW1 7928   0.632   6.467   1.491 -1.1443  0.4575 -0.9700
 2343SOL    HW2 7929   0.606   6.628   1.502  1.3580  0.8140  0.1699
 2344SOL     OW 7930   5.804   4.424   5.642  0.5228 -0.3382  0.3479
 2344SOL    HW1 7931   5.805   4.477   5.557  1.1384  1.3976  1.3693
 2344SOL    HW2 7932   5.894   4.382   5.656  0.9375  0.6820  0.8735
 2345SOL     OW 7933   1.961   6.936   3.455  0.0229 -0.5670 -0.4540
 2345SOL    HW1 7934   2.020   6.878   3.400 -0.6321  0.6441 -2.5530
 2345SOL    HW2 7935   1.965   7.030   3.421 -1.3995 -0.0162  0.7678
 2346SOL     OW 7936   4.535   3.846   0.690 -0.1009 -0.9290  0.3326
 2346SOL    HW1 7937   4.624   3.812   0.721  0.2399  0.2780  0.7217
 2346SOL    HW2 7938   4.471   3.847   0.766 -1.1325 -3.7855 -0.3693
 2347SOL     OW 7939   0.172   0.844   1.340 -0.1701  0.4127 -0.2318
 2347SOL    HW1 7940   0.168   0.752   1.381  1.2053  0.1845 -0.5623
 2347SOL    HW2 7941   0.091   0.859   1.284  0.4829 -1.3698 -1.7399
 2348SOL     OW 7942   6.928   4.329   1.992 -0.4211 -0.7314 -0.2432
 2348SOL    HW1 7943   6.968   4.336   2.083  0.5075  0.4584 -0.7158
 2348SOL    HW2 7944   6.848   4.388   1.986  2.3220  3.3125 -1.5668
 2349SOL     OW 7945   1.178   5.512   2.761 -0.0788  0.3995  0.4986
 2349SOL    HW1 7946   1.109   5.441   2.776 -0.2258  0.3940 -0.1693
 2349SOL    HW2 7947   1.267   5.469   2.748  0.0273  0.3992  1.2140
 2350SOL     OW 7948   5.366   3.265   0.685  0.6211  0.5576 -0.1300
 2350SOL    HW1 7949   5.364   3.193   0.754 -1.5989  0.9967  0.3507
 2350SOL    HW2 7950   5.361   3.354   0.730 -1.3301  0.8437 -0.8051
 2351SOL     OW 7951   3.138   6.959   1.088 -0.3420 -0.3617 -0.2980
 2351SOL    HW1 7952   3.234   6.983   1.077  0.2609 -2.8299 -1.2265
 2351SOL    HW2 7953   3.095   6.950   0.998 -1.2087 -0.1600  0.0829
 2352SOL     OW 7954   0.074   1.637   3.839  0.2418  0.2880  0.0190
 2352SOL    HW1 7955   0.054   1.563   3.775  0.0085  0.9043 -0.6320
 2352SOL    HW2 7956   0.145   1.696   3.801 -1.3191  1.8476 -0.6629
 2353SOL     OW 7957   1.706   5.981   4.216  0.0206 -0.4421 -0.4579
 2353SOL    HW1 7958   1.796   5.938   4.224 -0.9010 -2.2019  1.3760
 2353SOL    HW2 7959   1.635   5.911   4.212 -1.4265  0.9035  0.3559
 2354SOL     OW 7960   2.104   2.653   2.676  0.6301 -0.0192  0.5071
 2354SOL    HW1 7961   2.053   2.734   2.647 -1.8331 -0.8618  2.1390
 2354SOL    HW2 7962   2.106   2.587   2.602 -0.1129  0.2967  0.1903
 2355SOL     OW 7963   1.636   4.052   6.020  0.0087  0.3335 -0.2544
 2355SOL    HW1 7964   1.660   4.149   6.024 -0.2559  0.3776  0.7165
 2355SOL    HW2 7965   1.710   3.998   6.061  0.5413  0.0374 -1.5746
 2356SOL     OW 7966   6.482   2.023   6.851  0.1260  0.5134 -0.5608
 2356SOL    HW1 7967   6.431   2.021   6.937  0.2866  0.2368 -0.4700
 2356SOL    HW2 7968   6.546   2.100   6.852  0.1556  0.4880 -0.4129
 2357SOL     OW 7969   3.912   0.346   1.857  0.4805 -0.5090  0.6574
 2357SOL    HW1 7970   3.969   0.417   1.816 -0.2468  0.1616  0.7840
 2357SOL    HW2 7971   3.817   0.357   1.826  0.0663 -0.4741  1.8755
 2358SOL     OW 7972   4.287   3.578   6.500  0.3138  0.2515 -0.0967
 2358SOL    HW1 7973   4.320   3.488   6.474 -0.2174 -0.4040  1.3895
 2358SOL    HW2 7974   4.345   3.615   6.573 -0.7349  0.1593  0.8121
 2359SOL     OW 7975   1.510   0.476   4.352 -0.2216  0.1249  0.3051
 2359SOL    HW1 7976   1.575   0.512   4.418 -0.0280 -2.2109  1.5136
 2359SOL    HW2 7977   1.451   0.549   4.319 -0.1714  1.4270  2.8986
 2360SOL     OW 7978   5.790   3.722   6.580  0.5998 -0.0226  0.0816
 2360SOL    HW1 7979   5.799   3.623   6.591 -0.1198 -0.3530 -2.0201
 2360SOL    HW2 7980   5.878   3.761   6.553  0.9641 -0.0062  1.2260
 2361SOL     OW 7981   3.776   5.538   0.867  0.7001  0.3752  0.3159
 2361SOL    HW1 7982   3.804   5.558   0.773 -2.9120 -0.9045 -1.2067
 2361SOL    HW2 7983   3.740   5.620   0.910  1.0993  0.6682  0.0968
 2362SOL     OW 7984   2.873   5.378   3.368  0.0210 -0.5235 -0.0052
 2362SOL    HW1 7985   2.896   5.281   3.361  0.7044 -0.3159 -0.7407
 2362SOL    HW2 7986   2.882   5.408   3.463  0.1740 -1.0869  0.1607
 2363SOL     OW 7987   4.184   0.877   1.804  0.1132  0.0414  0.4187
 2363SOL    HW1 7988   4.114   0.900   1.736  0.5294 -0.8482 -0.3345
 2363SOL    HW2 7989   4.153   0.798   1.858 -0.4771  1.1117  1.6958
 2364SOL     OW 7990   0.920   3.273   2.470  0.1344  0.2538 -0.2017
 2364SOL    HW1 7991   0.890   3.182   2.501 -0.7182  0.8547  0.7926
 2364SOL    HW2 7992   0.968   3.319   2.544  0.2962  0.7392 -0.6048
 2365SOL     OW 7993   4.484   2.021   1.130  0.3333  0.2300 -0.1928
 2365SOL    HW1 7994   4.547   2.027   1.053  1.3165  1.2209  0.6648
 2365SOL    HW2 7995   4.392   2.047   1.099  0.4011 -0.8209 -1.3522
 2366SOL     OW 7996   4.633   5.554   6.487  0.1464 -0.2653 -0.1739
 2366SOL    HW1 7997   4.558   5.599   6.537  0.9159  2.1436 -1.0563
 2366SOL    HW2 7998   4.683   5.494   6.550  0.0384  1.3439  1.5449
 2367SOL     OW 7999   3.157   3.666   0.163  0.1813 -0.1752  0.6509
 2367SOL    HW1 8000   3.102   3.734   0.212 -0.0979 -1.5289  2.3218
 2367SOL    HW2 8001   3.222   3.712   0.103 -1.8557  1.5139 -0.4065
 2368SOL     OW 8002   5.689   4.222   2.499 -0.2260  0.6292 -0.3031
 2368SOL    HW1 8003   5.697   4.146   2.563 -0.5678  0.1233 -0.8489
 2368SOL    HW2 8004   5.714   4.307   2.545 -1.4115  0.4164  0.7716
 2369SOL     OW 8005   1.685   1.362   2.865 -0.0728 -0.2294  0.1077
 2369SOL    HW1 8006   1.637   1.308   2.934 -1.7681 -0.3521 -1.1334
 2369SOL    HW2 8007   1.733   1.301   2.802  0.0946 -0.1669  0.1709
 2370SOL     OW 8008   5.571   3.049   6.001 -0.1485 -0.0108  0.1156
 2370SOL    HW1 8009   5.645   3.056   5.934 -0.1566 -0.4149  0.0607
 2370SOL    HW2 8010   5.486   3.024   5.953  0.1091 -1.5643  0.4213
 2371SOL     OW 8011   0.950   0.278   2.229  0.0461 -0.1283 -0.0870
 2371SOL    HW1 8012   0.952   0.189   2.184 -0.8093 -0.0137 -0.3636
 2371SOL    HW2 8013   0.862   0.322   2.212 -0.2181  0.0207  1.5082
 2372SOL     OW 8014   1.133   2.723   3.398 -0.7428 -0.2359  0.3069
 2372SOL    HW1 8015   1.044   2.698   3.436 -0.9347  0.2970  0.2267
 2372SOL    HW2 8016   1.206   2.682   3.452 -1.0273 -0.0055  0.8691
 2373SOL     OW 8017   1.992   3.172   4.931 -0.9576 -0.1126 -0.3679
 2373SOL    HW1 8018   1.940   3.256   4.918 -1.2967 -0.2025  0.3540
 2373SOL    HW2 8019   1.934   3.093   4.910 -0.1761 -0.1756 -2.6622
 2374SOL     OW 8020   6.505   1.787   4.359 -0.3222  0.7614 -0.5459
 2374SOL    HW1 8021   6.507   1.850   4.282 -3.5121  0.8581 -0.6853
 2374SOL    HW2 8022   6.449   1.826   4.432  0.0670 -0.6691  0.5637
 2375SOL     OW 8023   0.206   5.457   6.715  0.0109  0.6117  0.4641
 2375SOL    HW1 8024   0.188   5.416   6.804  0.2375 -1.6361 -0.4388
 2375SOL    HW2 8025   0.132   5.518   6.690 -0.8644 -0.0037  1.5037
 2376SOL     OW 8026   6.135   2.421   4.347  0.4773  0.4398  0.9952
 2376SOL    HW1 8027   6.119   2.518   4.365  0.0081  0.8681 -1.3664
 2376SOL    HW2 8028   6.233   2.403   4.345  0.7412  1.6418 -1.6776
 2377SOL     OW 8029   3.497   3.008   3.122 -0.0210  0.1170  0.2444
 2377SOL    HW1 8030   3.459   3.097   3.097  0.1649 -0.0070 -0.4886
 2377SOL    HW2 8031   3.573   2.985   3.062 -0.0728 -0.5410  0.4157
 2378SOL     OW 8032   4.110   2.656   1.497  0.5348 -0.0720  0.4184
 2378SOL    HW1 8033   4.112   2.723   1.572 -0.7581 -1.0011  1.3349
 2378SOL    HW2 8034   4.144   2.568   1.530 -0.9672 -0.7551  0.2126
 2379SOL     OW 8035   6.466   4.736   5.392  0.3245  0.1583 -0.6563
 2379SOL    HW1 8036   6.386   4.796   5.391  1.6346  2.0217  0.5709
 2379SOL    HW2 8037   6.436   4.641   5.397 -1.8981  0.8554  1.9676
 2380SOL     OW 8038   6.550   1.616   4.802  0.3746 -0.1599 -0.1388
 2380SOL    HW1 8039   6.548   1.624   4.702  0.2769  2.7706 -0.0067
 2380SOL    HW2 8040   6.613   1.685   4.839  1.0079 -1.7100  1.8240
 2381SOL     OW 8041   3.962   5.521   2.233 -0.1876  0.3309  0.5872
 2381SOL    HW1 8042   4.034   5.479   2.289  0.7354 -1.4005 -1.7404
 2381SOL    HW2 8043   3.873   5.505   2.276  0.3850 -1.8593  1.0809
 2382SOL     OW 8044   2.723   2.376   3.909  0.7384  0.0002  0.3608
 2382SOL    HW1 8045   2.691   2.346   3.999  0.8658 -0.3961  0.2771
 2382SOL    HW2 8046   2.820   2.354   3.898  1.0962  1.3282  0.6665
 2383SOL     OW 8047   5.556   5.052   2.270  0.0107  0.1384 -0.0183
 2383SOL    HW1 8048   5.520   4.987   2.203 -0.3141  0.6553 -0.3457
 2383SOL    HW2 8049   5.504   5.045   2.355 -0.7509  0.7567 -0.4291
 2384SOL     OW 8050   4.793   0.703   0.162  0.0394  0.0630  0.4332
 2384SOL    HW1 8051   4.727   0.713   0.088  1.0385  1.0408 -0.3525
 2384SOL    HW2 8052   4.883   0.683   0.124  0.4416 -0.0688  1.4285
 2385SOL     OW 8053   2.086   3.292   1.041 -1.0461  0.2160  0.4402
 2385SOL    HW1 8054   2.169   3.289   0.986 -2.6725 -1.2186 -2.1644
 2385SOL    HW2 8055   2.045   3.383   1.034  0.4716  1.0596  2.0923
 2386SOL     OW 8056   3.385   4.867   3.050 -0.5307  0.0098  0.3098
 2386SOL    HW1 8057   3.302   4.908   3.012 -1.0731  0.7609  2.2465
 2386SOL    HW2 8058   3.433   4.817   2.977 -1.1287  1.9801 -1.5360
 2387SOL     OW 8059   0.220   1.988   1.595 -0.7129 -0.3033  0.1170
 2387SOL    HW1 8060   0.315   1.957   1.596 -1.1588 -1.7434 -0.2869
 2387SOL    HW2 8061   0.172   1.951   1.674 -1.5499 -1.6757 -0.9874
 2388SOL     OW 8062   5.009   1.163   3.211  0.2207  0.4288 -0.1705
 2388SOL    HW1 8063   5.041   1.125   3.125 -0.6454 -0.4824 -0.1096
 2388SOL    HW2 8064   4.945   1.238   3.192  1.6178  1.6401 -0.2900
 2389SOL     OW 8065   4.795   6.844   2.049  0.2962  0.2981  0.6153
 2389SOL    HW1 8066   4.753   6.790   2.122  1.1988 -0.1407  0.8154
 2389SOL    HW2 8067   4.726   6.863   1.978  0.1856 -1.9308  0.0718
 2390SOL     OW 8068   5.734   6.545   1.192 -0.1345  0.5877 -0.1657
 2390SOL    HW1 8069   5.707   6.520   1.099  0.6289  2.3240 -0.9005
 2390SOL    HW2 8070   5.679   6.622   1.224 -1.5780 -1.0623  1.5422
 2391SOL     OW 8071   6.044   5.338   4.788  0.2183 -0.1645 -0.5429
 2391SOL    HW1 8072   5.979   5.403   4.826 -0.2974 -1.2546  0.5171
 2391SOL    HW2 8073   5.995   5.256   4.756  0.6649  0.5048 -3.2572
 2392SOL     OW 8074   3.618   0.565   5.274 -0.1134  0.6606 -0.2417
 2392SOL    HW1 8075   3.586   0.479   5.313  0.7573  0.1480 -0.6430
 2392SOL    HW2 8076   3.539   0.625   5.258 -0.7959 -0.2947 -0.5582
 2393SOL     OW 8077   4.368   4.918   4.643 -0.1175 -0.7064 -0.2719
 2393SOL    HW1 8078   4.281   4.966   4.631  1.0976  2.1195  1.4092
 2393SOL    HW2 8079   4.370   4.875   4.733 -0.1892 -1.8385 -0.7869
 2394SOL     OW 8080   0.243   6.747   5.223 -0.0679 -0.4771  0.5194
 2394SOL    HW1 8081   0.204   6.791   5.304 -0.8833  0.0435 -0.1509
 2394SOL    HW2 8082   0.311   6.808   5.182 -0.2254 -0.4105  0.3585
 2395SOL     OW 8083   5.756   5.426   0.512  0.1941 -0.0574  0.0262
 2395SOL    HW1 8084   5.703   5.463   0.588 -1.0176  1.2647 -1.3927
 2395SOL    HW2 8085   5.769   5.497   0.443 -0.3831 -1.7010 -1.8633
 2396SOL     OW 8086   3.672   0.058   1.421  0.3645  0.2785  0.0442
 2396SOL    HW1 8087   3.751   0.085   1.476  2.2560 -0.0555 -2.3290
 2396SOL    HW2 8088   3.650  -0.038   1.440  0.7112  0.2870  0.5164
 2397SOL     OW 8089   0.538   2.714   3.411  0.3398  0.0249 -0.3195
 2397SOL    HW1 8090   0.559   2.620   3.440 -0.0445  0.1264  0.2914
 2397SOL    HW2 8091   0.457   2.713   3.353 -3.1096  0.4709  3.9527
 2398SOL     OW 8092   6.385   3.018   4.888 -0.5994 -0.0877 -0.1861
 2398SOL    HW1 8093   6.323   3.015   4.810 -1.6423 -1.2605  0.6492
 2398SOL    HW2 8094   6.347   3.077   4.960 -2.4472 -3.2219  1.6196
 2399SOL     OW 8095   4.356   1.762   2.073  0.4206  0.4155 -0.0806
 2399SOL    HW1 8096   4.297   1.708   2.012  0.2843  1.7631 -1.1901
 2399SOL    HW2 8097   4.301   1.829   2.122  0.9711  1.5285 -0.9495
 2400SOL     OW 8098   0.478   2.908   0.479 -0.3402  0.1175 -0.1454
 2400SOL    HW1 8099   0.556   2.952   0.523  0.7028  0.1835 -1.9362
 2400SOL    HW2 8100   0.413   2.977   0.449 -1.2977  0.0390  1.6706
 2401SOL     OW 8101   1.116   6.751   6.635  0.2241  0.0441  0.1450
 2401SOL    HW1 8102   1.102   6.697   6.718  1.0042 -0.3817  0.0155
 2401SOL    HW2 8103   1.138   6.689   6.559 -1.0827  0.3809 -0.5236
 2402SOL     OW 8104   1.127   0.084   3.199 -0.0529 -0.7849 -0.2092
 2402SOL    HW1 8105   1.100   0.028   3.121 -0.4513  0.2184 -0.8156
 2402SOL    HW2 8106   1.208   0.046   3.242 -0.0088 -1.5162 -0.9362
 2403SOL     OW 8107   1.384   6.903   3.423 -0.5964 -0.2097 -0.4186
 2403SOL    HW1 8108   1.355   6.907   3.327  0.3236  0.9839 -0.6571
 2403SOL    HW2 8109   1.481   6.923   3.430 -0.8673  0.8009  0.8721
 2404SOL     OW 8110   2.927   6.377   5.990 -0.2248 -0.7936 -0.2363
 2404SOL    HW1 8111   2.953   6.287   6.025  1.4947 -0.1007  0.3432
 2404SOL    HW2 8112   2.981   6.397   5.908  0.1593  0.1414  0.2414
 2405SOL     OW 8113   3.694   5.538   2.341  0.2741  0.0895  0.3169
 2405SOL    HW1 8114   3.663   5.604   2.272 -1.5225 -2.0102 -1.0088
 2405SOL    HW2 8115   3.712   5.586   2.427  0.4720  2.4881 -0.9630
 2406SOL     OW 8116   4.433   2.389   1.819 -0.3363  0.0944  0.3026
 2406SOL    HW1 8117   4.437   2.290   1.836 -1.0707 -0.2389 -1.2788
 2406SOL    HW2 8118   4.503   2.435   1.874  0.1117 -1.3107  0.9611
 2407SOL     OW 8119   6.209   6.758   3.903  0.2194 -0.2409  1.1860
 2407SOL    HW1 8120   6.194   6.664   3.935  1.6900 -0.6591  0.7202
 2407SOL    HW2 8121   6.175   6.822   3.971  0.9822 -1.1192  2.4324
 2408SOL     OW 8122   4.455   5.193   3.115  0.2798  0.1121  0.3318
 2408SOL    HW1 8123   4.394   5.256   3.067 -0.8215 -0.2690  1.1751
 2408SOL    HW2 8124   4.459   5.218   3.212  1.4790  0.1238  0.2969
 2409SOL     OW 8125   0.865   3.428   5.443 -0.1732 -0.6784  0.7384
 2409SOL    HW1 8126   0.860   3.347   5.502  2.3972 -1.7953 -0.4212
 2409SOL    HW2 8127   0.947   3.480   5.465 -1.9643  1.9294  1.7036
 2410SOL     OW 8128   2.931   3.165   2.065  0.2183 -0.0280  0.1497
 2410SOL    HW1 8129   2.849   3.128   2.021  0.4558  1.6048 -1.8647
 2410SOL    HW2 8130   2.978   3.093   2.116 -1.0852 -1.6178 -0.7928
 2411SOL     OW 8131   3.143   1.733   4.435  0.5188  0.2817  0.0864
 2411SOL    HW1 8132   3.187   1.799   4.374 -1.4405  2.0710  0.4770
 2411SOL    HW2 8133   3.081   1.675   4.382 -1.6200  2.2084  0.2674
 2412SOL     OW 8134   4.438   3.391   1.690  0.1945 -0.3176  0.1028
 2412SOL    HW1 8135   4.379   3.311   1.677 -1.3568  0.6055  1.0454
 2412SOL    HW2 8136   4.527   3.362   1.723  0.1892 -1.7486 -1.0522
 2413SOL     OW 8137   2.170   1.446   2.224 -0.2740 -0.6468  0.0864
 2413SOL    HW1 8138   2.109   1.367   2.222  1.3102 -1.9013 -0.6201
 2413SOL    HW2 8139   2.191   1.470   2.318 -0.7370 -1.0779  0.3009
 2414SOL     OW 8140   4.282   4.644   2.834  0.2748  0.0691 -0.2181
 2414SOL    HW1 8141   4.214   4.691   2.891  0.1988  0.4703 -0.6292
 2414SOL    HW2 8142   4.266   4.667   2.738  2.1431  1.7442 -0.1917
 2415SOL     OW 8143   4.257   0.521   2.163  0.0057 -0.1228 -0.2897
 2415SOL    HW1 8144   4.237   0.543   2.258  0.8483 -0.0282 -0.1292
 2415SOL    HW2 8145   4.259   0.422   2.151  2.0105 -0.2081  0.2895
 2416SOL     OW 8146   0.426   2.181   0.804  0.2653  0.1348 -0.1648
 2416SOL    HW1 8147   0.468   2.258   0.853  0.5467  0.0397 -0.2569
 2416SOL    HW2 8148   0.466   2.174   0.713 -1.1160  1.0665 -0.8741
 2417SOL     OW 8149   3.828   4.204   6.908  0.1955 -0.1401  0.2537
 2417SOL    HW1 8150   3.847   4.293   6.951 -1.0597  0.8852 -1.1897
 2417SOL    HW2 8151   3.731   4.182   6.919  0.2824 -0.8395 -0.3065
 2418SOL     OW 8152   3.109   3.129   1.811  0.4432 -0.0596  0.4285
 2418SOL    HW1 8153   3.144   3.096   1.723 -1.5718 -1.3306  0.0287
 2418SOL    HW2 8154   3.009   3.129   1.808  0.3474  1.5238  2.1627
 2419SOL     OW 8155   0.234   0.385   3.820 -0.0994  0.0709  0.7307
 2419SOL    HW1 8156   0.320   0.363   3.865  0.1419  0.1969  0.3403
 2419SOL    HW2 8157   0.215   0.483   3.829 -0.0978  0.0798  0.6377
 2420SOL     OW 8158   3.087   0.695   0.249  0.2297  0.1152  0.3911
 2420SOL    HW1 8159   3.028   0.665   0.174 -0.1531 -1.5696  1.3022
 2420SOL    HW2 8160   3.102   0.794   0.243  0.5514 -0.0195 -2.1054
 2421SOL     OW 8161   5.471   1.806   4.759 -0.3002 -0.0070 -0.1655
 2421SOL    HW1 8162   5.446   1.710   4.746 -0.5958  0.0010  0.3232
 2421SOL    HW2 8163   5.570   1.817   4.747 -0.0805 -0.5953  0.9849
 2422SOL     OW 8164   3.656   1.700   1.613 -0.1565  0.1426  0.4151
 2422SOL    HW1 8165   3.744   1.703   1.566  0.4597  2.3796  1.5440
 2422SOL    HW2 8166   3.669   1.724   1.709 -1.8724 -0.5996  0.8688
 2423SOL     OW 8167   0.674   6.076   1.803 -0.0524  0.3967  0.1533
 2423SOL    HW1 8168   0.588   6.114   1.768 -1.6887 -2.2688  0.9724
 2423SOL    HW2 8169   0.703   5.999   1.746 -0.5711 -1.4062  2.1761
 2424SOL     OW 8170   5.611   5.460   0.759  0.1510  0.1066 -0.7668
 2424SOL    HW1 8171   5.555   5.517   0.819 -2.1512 -1.5458 -1.2367
 2424SOL    HW2 8172   5.642   5.379   0.809  0.0698 -0.1815 -1.1747
 2425SOL     OW 8173   0.707   5.394   4.886 -0.1445 -0.7524 -0.0056
 2425SOL    HW1 8174   0.630   5.452   4.911  0.1188 -0.4137  0.0243
 2425SOL    HW2 8175   0.749   5.356   4.969 -0.0856 -0.6832 -0.0031
 2426SOL     OW 8176   1.098   4.740   3.496 -0.5229 -0.0400 -0.4116
 2426SOL    HW1 8177   1.092   4.723   3.594  0.0546  0.2512 -0.3205
 2426SOL    HW2 8178   1.046   4.670   3.447 -0.9294 -0.1067  0.1036
 2427SOL     OW 8179   5.666   0.583   4.462  0.3206  0.8875  0.5726
 2427SOL    HW1 8180   5.675   0.656   4.530  0.7775  0.1241  1.3592
 2427SOL    HW2 8181   5.597   0.517   4.493 -0.5002  1.2684 -0.4062
 2428SOL     OW 8182   4.614   2.976   6.793 -0.0259  0.2282  0.0398
 2428SOL    HW1 8183   4.592   3.037   6.717 -2.1512  0.8286  1.0509
 2428SOL    HW2 8184   4.595   2.881   6.766 -0.5758  0.4187 -0.2521
 2429SOL     OW 8185   5.305   4.923   3.693 -0.1841 -0.5126 -0.1273
 2429SOL    HW1 8186   5.298   4.954   3.598  1.6382 -2.0675 -0.8244
 2429SOL    HW2 8187   5.246   4.844   3.707  2.0095 -2.4046 -0.9851
 2430SOL     OW 8188   5.703   0.037   2.746 -0.0493 -0.0673 -0.0231
 2430SOL    HW1 8189   5.779   0.030   2.811 -0.7573 -1.0999  0.7301
 2430SOL    HW2 8190   5.720  -0.024   2.669 -0.5574 -1.0857  0.6418
 2431SOL     OW 8191   3.346   1.749   1.126 -0.0367  0.4155  0.1112
 2431SOL    HW1 8192   3.346   1.724   1.029 -0.2822  0.9102 -0.0223
 2431SOL    HW2 8193   3.278   1.694   1.175 -0.4315  0.6737 -0.1388
 2432SOL     OW 8194   5.157   0.338   3.156 -0.2001 -0.9495 -0.1670
 2432SOL    HW1 8195   5.162   0.355   3.058  0.1728  1.0401  0.1502
 2432SOL    HW2 8196   5.248   0.310   3.189 -0.4233 -2.0361 -0.4276
 2433SOL     OW 8197   4.362   0.423   0.001 -0.0282 -0.0455 -0.5372
 2433SOL    HW1 8198   4.270   0.418  -0.036  0.7595  1.3971 -2.9153
 2433SOL    HW2 8199   4.418   0.351  -0.039  0.3937  0.4272 -0.8099
 2434SOL     OW 8200   2.942   3.159   5.540 -0.0401 -0.5116  0.0390
 2434SOL    HW1 8201   3.020   3.098   5.528 -0.4104 -0.9715 -0.0823
 2434SOL    HW2 8202   2.974   3.250   5.565  0.5982 -0.4251 -0.9966
 2435SOL     OW 8203   3.930   5.386   0.023  0.9491 -0.0736 -0.4197
 2435SOL    HW1 8204   3.835   5.416   0.012  0.5710 -1.4352 -1.1182
 2435SOL    HW2 8205   3.937   5.329   0.105  1.4066  0.8948  0.2297
 2436SOL     OW 8206   2.677   3.645   0.153  0.2466 -0.0321 -0.0886
 2436SOL    HW1 8207   2.749   3.650   0.083 -2.2992  2.6842 -2.7931
 2436SOL    HW2 8208   2.619   3.566   0.136  0.1735  0.1075 -0.5036
 2437SOL     OW 8209   0.846   1.637   3.108 -0.6733  0.3520  0.4140
 2437SOL    HW1 8210   0.839   1.622   3.207 -1.7623 -0.0708  0.2818
 2437SOL    HW2 8211   0.755   1.641   3.069 -0.2406  0.3490 -0.6094
 2438SOL     OW 8212   4.084   3.212   2.385  0.2956 -0.0804  0.0945
 2438SOL    HW1 8213   4.068   3.288   2.322 -1.7161 -0.3025  0.2711
 2438SOL    HW2 8214   4.069   3.243   2.479  0.0034 -0.5454  0.2074
 2439SOL     OW 8215   5.314   5.186   0.938  0.1213  0.5553 -0.0504
 2439SOL    HW1 8216   5.260   5.145   0.864  0.1006 -0.4204  0.4970
 2439SOL    HW2 8217   5.342   5.116   1.003 -0.2276  1.4525  1.1127
 2440SOL     OW 8218   6.032   6.942   6.879  0.1767 -0.4924 -0.0872
 2440SOL    HW1 8219   5.935   6.943   6.901  0.3818 -1.7273  0.9782
 2440SOL    HW2 8220   6.086   6.954   6.963  0.9433 -2.1284 -0.2964
 2441SOL     OW 8221   6.497   2.287   1.981 -0.0255  0.0827  0.7085
 2441SOL    HW1 8222   6.567   2.328   1.923  1.0013 -1.0589  1.0987
 2441SOL    HW2 8223   6.420   2.350   1.990 -0.0875  0.4489 -1.6142
 2442SOL     OW 8224   4.591   4.524   4.223 -0.2660 -0.1399  0.2123
 2442SOL    HW1 8225   4.658   4.451   4.234 -0.6317 -0.6434 -0.7898
 2442SOL    HW2 8226   4.636   4.605   4.184 -0.3287 -0.6651 -0.9902
 2443SOL     OW 8227   1.926   6.058   5.560 -0.3983  0.1571 -0.0829
 2443SOL    HW1 8228   2.013   6.105   5.566  0.6856 -1.8423  1.0273
 2443SOL    HW2 8229   1.875   6.072   5.646  0.3198 -1.3128  0.6224
 2444SOL     OW 8230   3.591   3.637   0.615 -0.1916 -0.3856  0.0871
 2444SOL    HW1 8231   3.521   3.652   0.545 -1.1124  0.2536  1.1155
 2444SOL    HW2 8232   3.604   3.539   0.628  0.4250 -0.5225 -1.3798
 2445SOL     OW 8233   5.938   0.701   0.553  0.5592  0.0492  0.6773
 2445SOL    HW1 8234   5.890   0.728   0.469  0.7595 -0.9346  0.2272
 2445SOL    HW2 8235   6.017   0.760   0.567  0.9107 -0.2012 -0.1966
 2446SOL     OW 8236   3.337   2.963   0.102 -0.4319  0.2063 -0.2383
 2446SOL    HW1 8237   3.277   2.898   0.149 -0.0845 -0.0608 -0.1601
 2446SOL    HW2 8238   3.372   2.921   0.018  0.5855 -0.0891  0.3178
 2447SOL     OW 8239   1.147   1.579   5.613 -0.2099  0.3057  0.5026
 2447SOL    HW1 8240   1.240   1.600   5.642 -0.2356 -0.0956  0.8832
 2447SOL    HW2 8241   1.084   1.646   5.652 -0.1925  0.0166  1.0301
 2448SOL     OW 8242   6.583   5.318   6.069  0.4769  0.6452 -0.4560
 2448SOL    HW1 8243   6.623   5.233   6.103 -1.4690 -0.7196 -1.4356
 2448SOL    HW2 8244   6.655   5.375   6.029  1.6240 -1.1719 -1.0747
 2449SOL     OW 8245   6.087   3.932   5.952 -0.3359  0.0670 -0.4689
 2449SOL    HW1 8246   6.180   3.954   5.982 -0.8089 -0.3816  1.5197
 2449SOL    HW2 8247   6.070   3.835   5.966 -1.9505  0.6012  1.9268
 2450SOL     OW 8248   2.211   2.479   0.721  0.8794 -0.3217 -0.5563
 2450SOL    HW1 8249   2.303   2.490   0.684  2.1116 -4.0755  0.9431
 2450SOL    HW2 8250   2.182   2.383   0.713 -2.3083  0.4226  0.4147
 2451SOL     OW 8251   1.342   5.469   3.119 -0.2038  0.1781 -0.0314
 2451SOL    HW1 8252   1.289   5.396   3.075 -1.3709  0.7431  0.3931
 2451SOL    HW2 8253   1.407   5.429   3.183 -0.2290 -0.5249 -0.4305
 2452SOL     OW 8254   3.004   2.145   2.789 -0.1479 -0.0926 -0.4550
 2452SOL    HW1 8255   2.982   2.101   2.876  0.4869 -0.0120 -0.2535
 2452SOL    HW2 8256   2.934   2.214   2.768 -0.5648 -0.4509 -0.2514
 2453SOL     OW 8257   6.942   3.720   0.255  0.5097 -0.6658  0.3748
 2453SOL    HW1 8258   6.873   3.749   0.321 -0.5493 -0.8284 -0.6185
 2453SOL    HW2 8259   6.901   3.654   0.192  1.1107  0.4463 -1.2299
 2454SOL     OW 8260   6.922   6.088   0.223  0.5763 -0.0523  0.4350
 2454SOL    HW1 8261   6.948   6.177   0.185 -0.3722 -0.0726 -0.2793
 2454SOL    HW2 8262   6.856   6.044   0.164  2.2250 -1.9882 -0.0700
 2455SOL     OW 8263   4.870   2.832   2.032  0.0805  0.8230 -0.1390
 2455SOL    HW1 8264   4.845   2.779   2.113  1.1966  1.5580  0.7074
 2455SOL    HW2 8265   4.853   2.929   2.048 -0.0532  0.9393 -0.9314
 2456SOL     OW 8266   3.994   6.467   0.506  0.0073 -0.6836  0.6679
 2456SOL    HW1 8267   3.970   6.402   0.434  0.7069  0.0859 -0.2841
 2456SOL    HW2 8268   3.930   6.457   0.582  0.0273 -2.3861  0.4990
 2457SOL     OW 8269   6.170   6.673   0.922  0.1711 -0.8841  0.3144
 2457SOL    HW1 8270   6.071   6.680   0.936  0.2175 -0.7600  0.6011
 2457SOL    HW2 8271   6.193   6.698   0.828 -0.1623 -1.7727 -0.0103
 2458SOL     OW 8272   0.618   6.113   2.321  0.3457  0.7276  0.1526
 2458SOL    HW1 8273   0.605   6.069   2.232 -0.5299  0.3027  0.4804
 2458SOL    HW2 8274   0.588   6.051   2.393  0.3165  1.3658  0.6972
 2459SOL     OW 8275   1.155   2.822   4.825 -0.0697  0.3764 -0.2717
 2459SOL    HW1 8276   1.241   2.789   4.864 -2.1566 -2.6213  2.2341
 2459SOL    HW2 8277   1.155   2.806   4.726  0.8017 -3.3829  0.2105
 2460SOL     OW 8278   2.514   3.594   1.663  0.2855 -0.2687 -0.0658
 2460SOL    HW1 8279   2.569   3.669   1.700  1.9535 -1.6951  0.4797
 2460SOL    HW2 8280   2.461   3.553   1.738  0.2338 -0.3533 -0.1494
 2461SOL     OW 8281   5.329   6.931   4.089 -1.1683  0.6666  0.9308
 2461SOL    HW1 8282   5.233   6.957   4.092 -1.4117  0.2115 -1.1720
 2461SOL    HW2 8283   5.345   6.869   4.012  0.9218  1.1974  0.8598
 2462SOL     OW 8284   3.768   3.981   0.241 -0.0441  0.1811 -0.0358
 2462SOL    HW1 8285   3.812   4.046   0.303 -1.0866  0.1171  0.8191
 2462SOL    HW2 8286   3.807   3.890   0.254  0.9690  0.5035 -0.7651
 2463SOL     OW 8287   2.093   4.097   5.169  0.2153 -0.3216 -0.3620
 2463SOL    HW1 8288   2.099   4.110   5.268 -1.0048  0.2726 -0.3511
 2463SOL    HW2 8289   2.154   4.023   5.142 -0.0146 -1.0293  0.9544
 2464SOL     OW 8290   6.688   3.752   1.383 -0.0759 -0.0650 -0.4272
 2464SOL    HW1 8291   6.751   3.823   1.350  0.5414  0.0982  1.0339
 2464SOL    HW2 8292   6.594   3.786   1.379  0.1479  0.5712 -0.3984
 2465SOL     OW 8293   6.060   4.926   2.678 -0.0773 -0.1040 -0.2573
 2465SOL    HW1 8294   6.147   4.876   2.683 -1.2897 -2.2204  2.3150
 2465SOL    HW2 8295   6.050   4.983   2.759  0.6678  3.5805 -2.5403
 2466SOL     OW 8296   2.559   1.224   6.621  0.5662 -0.1826  0.3052
 2466SOL    HW1 8297   2.655   1.201   6.640  0.3820  0.2250  1.9148
 2466SOL    HW2 8298   2.554   1.283   6.541  1.4321 -2.0044 -1.1825
 2467SOL     OW 8299   0.564   1.451   3.947 -0.1673  0.5433  0.3037
 2467SOL    HW1 8300   0.547   1.442   4.045 -2.3136  2.4204  0.1798
 2467SOL    HW2 8301   0.529   1.370   3.900  0.9876 -0.4252  1.0538
 2468SOL     OW 8302   0.930   3.693   6.435 -0.8688  0.3155 -0.6480
 2468SOL    HW1 8303   0.900   3.624   6.369  2.8865 -2.2322 -0.0010
 2468SOL    HW2 8304   0.950   3.778   6.388 -0.3805 -0.7633 -2.4851
 2469SOL     OW 8305   3.209   0.906   5.685  0.0098  0.0972 -0.4230
 2469SOL    HW1 8306   3.280   0.968   5.651  1.5202 -2.6998 -2.9207
 2469SOL    HW2 8307   3.249   0.815   5.699 -2.6306 -1.0513  0.3175
 2470SOL     OW 8308   5.780   2.959   2.983 -0.3023  0.6085 -0.2007
 2470SOL    HW1 8309   5.818   2.892   2.919 -0.1307  0.2018  0.3174
 2470SOL    HW2 8310   5.853   2.996   3.040 -0.5110  0.6580  0.0387
 2471SOL     OW 8311   1.342   0.910   2.588  0.2686 -0.4743 -0.5754
 2471SOL    HW1 8312   1.341   0.993   2.644 -0.9872  0.7954 -2.3759
 2471SOL    HW2 8313   1.289   0.925   2.505 -1.4936 -3.6859 -0.1778
 2472SOL     OW 8314   6.830   0.667   5.081 -0.5328  0.1164 -0.2051
 2472SOL    HW1 8315   6.757   0.719   5.037  0.1689  0.5823 -0.8336
 2472SOL    HW2 8316   6.875   0.609   5.013 -0.3925 -0.2681  0.2071
 2473SOL     OW 8317   0.332   5.621   6.538  0.1612  0.1871 -0.2088
 2473SOL    HW1 8318   0.336   5.713   6.579 -0.0504 -0.4876  1.4166
 2473SOL    HW2 8319   0.285   5.559   6.601 -2.7232 -0.3458 -2.6836
 2474SOL     OW 8320   0.549   5.990   3.096 -0.1208  0.2733 -0.2795
 2474SOL    HW1 8321   0.625   6.044   3.060  0.8364 -1.4525 -0.9832
 2474SOL    HW2 8322   0.567   5.966   3.191 -0.5436  1.1517  0.0316
 2475SOL     OW 8323   4.692   3.356   0.314 -0.1185  0.7622 -0.2618
 2475SOL    HW1 8324   4.689   3.401   0.225 -1.6350  0.4135 -0.4276
 2475SOL    HW2 8325   4.719   3.261   0.303 -0.4565  0.6773 -0.3874
 2476SOL     OW 8326   5.756   0.320   5.257  0.0741  0.2213  0.3944
 2476SOL    HW1 8327   5.756   0.294   5.354 -0.9081 -2.6948 -0.2852
 2476SOL    HW2 8328   5.674   0.374   5.237  1.1831  2.4169  1.4861
 2477SOL     OW 8329   4.998   5.088   2.661 -0.4803 -0.1727  0.0851
 2477SOL    HW1 8330   4.957   4.996   2.668 -0.6209 -0.2977 -1.8697
 2477SOL    HW2 8331   5.056   5.092   2.580  0.3012  1.1995  0.6883
 2478SOL     OW 8332   6.931   0.798   0.249  0.3957  0.1324  1.2080
 2478SOL    HW1 8333   6.987   0.838   0.175  0.9098 -1.6349  0.5978
 2478SOL    HW2 8334   6.851   0.754   0.210  0.5662 -0.6419  1.7108
 2479SOL     OW 8335   1.480   3.490   0.707  0.7177 -0.3693 -0.4545
 2479SOL    HW1 8336   1.552   3.467   0.641  0.9908  2.3099 -1.1859
 2479SOL    HW2 8337   1.405   3.425   0.699  0.6133  0.0264 -3.6246
 2480SOL     OW 8338   0.158   4.892   0.434 -0.2401  0.2948  0.0018
 2480SOL    HW1 8339   0.070   4.850   0.415  0.1131  0.2340 -1.6331
 2480SOL    HW2 8340   0.231   4.838   0.393  0.5979  0.2988  1.3881
 2481SOL     OW 8341   4.464   4.894   1.878  0.2492  0.7685  0.1322
 2481SOL    HW1 8342   4.480   4.820   1.812  1.2791  0.4102  0.7547
 2481SOL    HW2 8343   4.366   4.910   1.888  0.0152 -0.4553 -0.0869
 2482SOL     OW 8344   3.908   2.219   5.245 -0.2789 -0.1377 -0.7522
 2482SOL    HW1 8345   4.000   2.193   5.275 -1.2069 -0.4709  2.1417
 2482SOL    HW2 8346   3.879   2.160   5.170  0.8032 -1.9489  0.1925
 2483SOL     OW 8347   1.677   3.321   5.525  0.6202 -0.6166  0.0581
 2483SOL    HW1 8348   1.585   3.356   5.543  1.2325 -0.3015  3.2726
 2483SOL    HW2 8349   1.670   3.229   5.487 -0.9642  0.2687 -1.9906
 2484SOL     OW 8350   3.644   5.430   6.192  0.2350  0.0151  0.0576
 2484SOL    HW1 8351   3.669   5.516   6.237  1.4096  0.5654 -1.5632
 2484SOL    HW2 8352   3.724   5.370   6.189 -0.2025 -0.5737 -0.0770
 2485SOL     OW 8353   0.812   4.525   0.570 -0.6660  0.1590  0.2397
 2485SOL    HW1 8354   0.733   4.506   0.628  0.3499 -0.8071  1.3643
 2485SOL    HW2 8355   0.885   4.459   0.590 -0.9353 -1.5340 -3.5050
 2486SOL     OW 8356   0.460   5.604   2.352  0.4047 -0.1632 -0.0478
 2486SOL    HW1 8357   0.557   5.583   2.339  0.8643  1.0294  1.1981
 2486SOL    HW2 8358   0.447   5.649   2.440 -0.9329  1.8576 -1.1816
 2487SOL     OW 8359   1.332   0.920   0.324  0.2542 -0.1040 -0.6474
 2487SOL    HW1 8360   1.364   0.844   0.381 -1.0261  0.3258  0.7409
 2487SOL    HW2 8361   1.345   0.898   0.228 -0.0080 -2.0459 -0.2754
 2488SOL     OW 8362   3.370   6.127   0.119  0.6855  0.0843  0.2379
 2488SOL    HW1 8363   3.274   6.133   0.147 -0.4647 -1.3111 -2.9763
 2488SOL    HW2 8364   3.398   6.214   0.079  0.0284 -0.1407 -0.7553
 2489SOL     OW 8365   6.856   5.165   5.794 -0.1583 -0.0374 -0.3220
 2489SOL    HW1 8366   6.871   5.253   5.750  1.0129  0.1558  0.4426
 2489SOL    HW2 8367   6.760   5.157   5.821 -0.2789  0.9926 -0.4235
 2490SOL     OW 8368   5.523   1.805   1.759  0.4272  0.0187  0.3664
 2490SOL    HW1 8369   5.500   1.887   1.811 -0.3565  0.6946 -1.0104
 2490SOL    HW2 8370   5.467   1.800   1.676  1.7734 -0.9145 -0.5365
 2491SOL     OW 8371   6.727   4.297   2.249 -0.0010  0.4757  0.8053
 2491SOL    HW1 8372   6.677   4.369   2.201  0.6650 -0.1123 -0.8475
 2491SOL    HW2 8373   6.812   4.334   2.287  1.2129  0.2770 -1.5408
 2492SOL     OW 8374   6.438   2.685   2.180  0.8197  0.1498 -0.2930
 2492SOL    HW1 8375   6.340   2.699   2.167  0.4485 -0.7211  1.4175
 2492SOL    HW2 8376   6.469   2.609   2.123  0.3573 -0.0484 -0.2787
 2493SOL     OW 8377   5.831   7.022   0.076  0.1686 -0.0959 -0.1404
 2493SOL    HW1 8378   5.777   7.064   0.149 -0.3784 -0.5296 -0.2952
 2493SOL    HW2 8379   5.928   7.032   0.098  0.0115 -0.2244  0.6511
 2494SOL     OW 8380   5.561   6.211   1.586  0.3675  0.4909  0.5189
 2494SOL    HW1 8381   5.584   6.165   1.500  0.6788  1.5889  0.0021
 2494SOL    HW2 8382   5.643   6.223   1.642  0.1317 -0.4158  1.0850
 2495SOL     OW 8383   6.443   1.826   5.455 -0.1900  0.5716  0.4768
 2495SOL    HW1 8384   6.490   1.774   5.384 -0.4860  0.7658  0.1344
 2495SOL    HW2 8385   6.367   1.772   5.492 -1.7088  1.4573 -1.2218
 2496SOL     OW 8386   1.935   5.624   0.512 -0.2720 -0.5041 -0.0112
 2496SOL    HW1 8387   1.999   5.584   0.447 -1.9630 -1.5224 -1.1241
 2496SOL    HW2 8388   1.898   5.552   0.571  1.0949  0.3734  2.0241
 2497SOL     OW 8389   5.970   2.239   5.661 -0.1111 -0.0429  0.2354
 2497SOL    HW1 8390   6.061   2.276   5.679 -0.4641  1.4456 -0.8235
 2497SOL    HW2 8391   5.900   2.306   5.688 -0.8318 -0.5224 -0.3726
 2498SOL     OW 8392   0.972   3.031   5.839  0.0509 -1.2502  0.4564
 2498SOL    HW1 8393   0.914   2.990   5.909 -0.2214 -0.2642  0.8251
 2498SOL    HW2 8394   1.068   3.022   5.866 -0.0871  2.8502  3.2596
 2499SOL     OW 8395   4.926   1.401   6.646 -0.4616 -0.1910  0.6324
 2499SOL    HW1 8396   4.841   1.373   6.602 -0.3921 -1.5728  1.3331
 2499SOL    HW2 8397   4.906   1.436   6.738 -0.3659  0.4352  0.4188
 2500SOL     OW 8398   4.636   0.903   6.337 -0.6789  0.3679 -0.4878
 2500SOL    HW1 8399   4.656   0.998   6.312 -0.5983  0.1221 -1.3952
 2500SOL    HW2 8400   4.563   0.900   6.405  0.2580  1.1449  0.5701
 2501SOL     OW 8401   6.717   6.245   1.426 -0.1952  0.1533  0.1450
 2501SOL    HW1 8402   6.696   6.150   1.402 -0.1663  0.4724 -1.2330
 2501SOL    HW2 8403   6.817   6.257   1.426 -0.1497 -0.0559  1.3854
 2502SOL     OW 8404   1.924   6.891   0.566 -0.1660  0.3507 -0.2494
 2502SOL    HW1 8405   1.929   6.812   0.626  2.7908  1.7134  1.5338
 2502SOL    HW2 8406   1.880   6.865   0.480 -0.4877 -2.8319  0.7456
 2503SOL     OW 8407   0.080   6.148   4.411 -0.0040 -0.5538 -0.3871
 2503SOL    HW1 8408   0.026   6.232   4.420  1.4693  0.5064 -1.0795
 2503SOL    HW2 8409   0.086   6.103   4.500  1.0476  1.2893  0.5397
 2504SOL     OW 8410   2.995   5.527   3.171  0.6816  0.2014  0.1145
 2504SOL    HW1 8411   2.961   5.566   3.085  1.3385  0.1591 -0.1683
 2504SOL    HW2 8412   2.918   5.493   3.224  0.3265 -0.5335 -0.8418
 2505SOL     OW 8413   4.891   3.831   4.767 -0.1350 -0.2632 -0.6423
 2505SOL    HW1 8414   4.899   3.924   4.801  0.0462 -0.4011 -0.2959
 2505SOL    HW2 8415   4.879   3.768   4.845 -0.9322 -0.4556 -0.9103
 2506SOL     OW 8416   2.175   0.241   0.475  0.3923 -0.4966 -0.8599
 2506SOL    HW1 8417   2.123   0.323   0.452  1.7947  1.7534  3.0658
 2506SOL    HW2 8418   2.144   0.206   0.564  4.4984  0.2312  1.0760
 2507SOL     OW 8419   0.179   5.018   0.742 -0.4708  0.3531  0.1274
 2507SOL    HW1 8420   0.163   4.983   0.650 -1.0109 -2.0072  1.0429
 2507SOL    HW2 8421   0.135   4.958   0.809 -0.4073  2.1896  1.9406
 2508SOL     OW 8422   3.033   0.037   2.031  0.1701  0.0860 -0.5421
 2508SOL    HW1 8423   2.956   0.003   2.085 -0.3161  0.1754 -1.1672
 2508SOL    HW2 8424   3.030  -0.003   1.939  0.3256  0.8222 -0.8750
 2509SOL     OW 8425   6.891   6.488   5.020 -0.4713 -0.3295  0.4820
 2509SOL    HW1 8426   6.982   6.467   4.983  0.8370  3.5972  0.9757
 2509SOL    HW2 8427   6.822   6.473   4.949  0.5388 -2.9290 -0.0658
 2510SOL     OW 8428   3.263   5.982   2.965 -0.2153  0.1833 -0.0753
 2510SOL    HW1 8429   3.224   6.026   3.046  0.8016 -0.9701  1.0871
 2510SOL    HW2 8430   3.201   5.911   2.932  0.8574 -1.7913  1.8936
 2511SOL     OW 8431   1.073   5.216   5.212 -0.0683  0.2498  0.5726
 2511SOL    HW1 8432   1.127   5.300   5.219  0.1524  0.2785 -0.9912
 2511SOL    HW2 8433   1.057   5.195   5.115 -1.2031 -0.8281  0.9641
 2512SOL     OW 8434   5.352   4.208   4.349  0.6914  0.0190  0.5770
 2512SOL    HW1 8435   5.316   4.122   4.385 -1.3559  0.9360  0.8820
 2512SOL    HW2 8436   5.292   4.284   4.378  1.3410  1.3096 -1.2614
 2513SOL     OW 8437   0.095   4.655   0.604  0.3551 -0.1563  0.2203
 2513SOL    HW1 8438   0.050   4.688   0.688 -0.1863  0.5379 -0.3229
 2513SOL    HW2 8439   0.114   4.733   0.544 -1.2707 -0.8359 -1.2648
 2514SOL     OW 8440   0.279   2.306   3.718 -0.2266 -0.0911  0.5509
 2514SOL    HW1 8441   0.187   2.276   3.744  0.1733  0.3829  2.7630
 2514SOL    HW2 8442   0.276   2.402   3.691 -0.4606 -0.2368  0.0479
 2515SOL     OW 8443   5.687   3.713   1.153 -0.4862  0.2992  0.0805
 2515SOL    HW1 8444   5.728   3.730   1.063 -1.9576  1.1961 -0.4759
 2515SOL    HW2 8445   5.595   3.675   1.141 -1.0223  1.1747  1.1712
 2516SOL     OW 8446   3.743   5.535   5.926  0.2489  0.5507 -0.0018
 2516SOL    HW1 8447   3.735   5.522   5.827  1.2859 -1.2049  0.1035
 2516SOL    HW2 8448   3.681   5.473   5.974  1.7095 -0.6127  0.4606
 2517SOL     OW 8449   1.214   6.644   0.203 -0.0896 -0.5529  0.2525
 2517SOL    HW1 8450   1.178   6.632   0.295  0.0233 -2.8127  0.0555
 2517SOL    HW2 8451   1.300   6.595   0.193 -0.0954 -0.3551 -1.0507
 2518SOL     OW 8452   3.317   0.898   2.141 -0.0198  0.4993 -0.2328
 2518SOL    HW1 8453   3.378   0.948   2.204 -0.2080 -0.0236  0.3760
 2518SOL    HW2 8454   3.288   0.813   2.184  0.7147 -0.3999 -1.4772
 2519SOL     OW 8455   5.054   4.134   3.210 -0.8186 -0.5162 -0.5555
 2519SOL    HW1 8456   4.975   4.194   3.220  0.6388  1.3829  0.1692
 2519SOL    HW2 8457   5.027   4.051   3.160 -3.4860 -0.4608  0.6161
 2520SOL     OW 8458   4.830   6.878   2.416 -0.0426  0.1311  0.3005
 2520SOL    HW1 8459   4.859   6.906   2.324  2.1229  0.2279  0.9645
 2520SOL    HW2 8460   4.767   6.946   2.453 -0.4051  0.4464 -0.8443
 2521SOL     OW 8461   1.144   3.546   5.809  0.4061  0.1319 -0.1934
 2521SOL    HW1 8462   1.113   3.633   5.847  0.5391  0.4715 -0.8612
 2521SOL    HW2 8463   1.244   3.540   5.815  0.4080  0.0839 -0.2734
 2522SOL     OW 8464   4.571   4.926   6.231  0.2587  0.0177  0.3468
 2522SOL    HW1 8465   4.502   4.986   6.271  0.3344  0.0442  0.4373
 2522SOL    HW2 8466   4.527   4.863   6.166  0.2777  0.5963 -0.2342
 2523SOL     OW 8467   0.538   2.759   5.585 -0.5903  0.0946  0.2404
 2523SOL    HW1 8468   0.565   2.781   5.491 -0.1286 -1.7767 -0.1041
 2523SOL    HW2 8469   0.608   2.702   5.628 -1.1292  0.3353  1.4980
 2524SOL     OW 8470   2.297   0.427   4.844  0.5119 -0.0837  0.4189
 2524SOL    HW1 8471   2.327   0.370   4.768 -0.5492  0.2402 -0.2664
 2524SOL    HW2 8472   2.239   0.374   4.906 -1.9319  0.5756 -1.1306
 2525SOL     OW 8473   2.420   6.877   3.667  0.3838  0.3109  0.4011
 2525SOL    HW1 8474   2.400   6.935   3.588 -1.8427 -0.7441  0.1219
 2525SOL    HW2 8475   2.519   6.868   3.677  0.7644  0.0281 -2.6191
 2526SOL     OW 8476   1.908   3.688   4.824  0.0585 -0.2744  0.0064
 2526SOL    HW1 8477   1.952   3.748   4.891  1.6544 -0.4947 -0.7942
 2526SOL    HW2 8478   1.827   3.734   4.787 -0.3945  0.1646  1.4865
 2527SOL     OW 8479   0.877   0.442   5.614  0.1954 -0.5791  0.4460
 2527SOL    HW1 8480   0.836   0.352   5.632 -0.2853 -0.1346  1.7241
 2527SOL    HW2 8481   0.969   0.430   5.578 -0.0751 -1.5870  0.0569
 2528SOL     OW 8482   5.082   4.768   2.429  0.0944 -0.4503  0.5413
 2528SOL    HW1 8483   5.082   4.861   2.392  2.2602 -0.7482 -0.3184
 2528SOL    HW2 8484   5.104   4.771   2.527  0.4784 -0.0667  0.4474
 2529SOL     OW 8485   2.999   4.913   4.674 -0.3064 -0.2666 -0.1585
 2529SOL    HW1 8486   3.008   4.874   4.766 -0.4259 -0.7719 -0.3629
 2529SOL    HW2 8487   2.914   4.965   4.668 -0.9326 -1.3121 -0.3830
 2530SOL     OW 8488   1.377   0.407   2.894  0.5318  0.0837  0.1795
 2530SOL    HW1 8489   1.409   0.321   2.932  0.9757  1.1919  2.4643
 2530SOL    HW2 8490   1.411   0.417   2.800 -0.0313 -2.4452 -0.3571
 2531SOL     OW 8491   5.190   2.636   5.736 -0.0753 -0.4236  0.2273
 2531SOL    HW1 8492   5.137   2.648   5.652 -0.4807 -0.1724  0.5173
 2531SOL    HW2 8493   5.285   2.618   5.712 -0.2287 -0.5786 -0.2920
 2532SOL     OW 8494   0.842   4.837   6.858  0.4201  0.5500  0.1293
 2532SOL    HW1 8495   0.902   4.777   6.911  0.9982  2.1218  1.3540
 2532SOL    HW2 8496   0.797   4.785   6.786  2.7104 -0.8588 -0.3827
 2533SOL     OW 8497   5.118   0.240   4.832 -0.4312  0.4943 -0.8757
 2533SOL    HW1 8498   5.170   0.180   4.893 -0.7407  1.3748  0.2881
 2533SOL    HW2 8499   5.154   0.334   4.840 -1.9160  1.0395 -0.3617
 2534SOL     OW 8500   6.841   2.333   0.257 -0.5225 -0.1729 -0.0109
 2534SOL    HW1 8501   6.868   2.421   0.218 -0.0591 -0.4118 -0.2457
 2534SOL    HW2 8502   6.888   2.259   0.208 -0.1216 -0.4968  0.8212
 2535SOL     OW 8503   3.181   0.063   7.018  0.1501 -0.3010  0.1371
 2535SOL    HW1 8504   3.233   0.087   7.100 -0.7790  1.0429  0.3564
 2535SOL    HW2 8505   3.242   0.019   6.952  1.3287  0.3122  0.7859
 2536SOL     OW 8506   2.204   1.391   1.731 -0.8854 -0.2009  0.2429
 2536SOL    HW1 8507   2.251   1.459   1.673 -0.1526  0.7453  1.8886
 2536SOL    HW2 8508   2.230   1.299   1.701 -0.6922  0.2503 -1.0539
 2537SOL     OW 8509   3.767   6.159   1.922  0.5209  0.3098 -0.2725
 2537SOL    HW1 8510   3.803   6.160   1.829  1.9446  1.3860  0.2525
 2537SOL    HW2 8511   3.698   6.231   1.932  0.3518  0.1801 -0.4976
 2538SOL     OW 8512   6.443   6.463   4.873  0.3142 -0.3572  0.0621
 2538SOL    HW1 8513   6.392   6.544   4.904  2.1363  1.0602 -0.4662
 2538SOL    HW2 8514   6.420   6.444   4.778  2.5783  1.9275 -1.0636
 2539SOL     OW 8515   6.576   0.083   5.764  0.2649  0.7131  0.6698
 2539SOL    HW1 8516   6.665   0.062   5.723 -0.1225  0.7817 -0.2273
 2539SOL    HW2 8517   6.549   0.009   5.825  1.5100  1.2635  1.9299
 2540SOL     OW 8518   6.160   4.541   3.234  0.3180 -0.1463 -0.1114
 2540SOL    HW1 8519   6.237   4.485   3.206  0.4926  0.2837 -0.4947
 2540SOL    HW2 8520   6.088   4.482   3.272  2.6144 -0.2896  4.7046
 2541SOL     OW 8521   3.525   6.249   0.955  0.4001  0.0231 -0.1144
 2541SOL    HW1 8522   3.499   6.314   1.027 -0.4766 -0.6752  0.2235
 2541SOL    HW2 8523   3.505   6.156   0.987 -2.5293 -0.2141 -2.1996
 2542SOL     OW 8524   3.872   0.546   3.440 -0.0633 -0.3537  0.1132
 2542SOL    HW1 8525   3.870   0.447   3.423 -0.4869  0.0843 -3.0310
 2542SOL    HW2 8526   3.953   0.585   3.397  1.2957  0.4942  3.1837
 2543SOL     OW 8527   3.830   0.413   6.055  0.0714  0.2456 -0.4660
 2543SOL    HW1 8528   3.914   0.438   6.105 -0.4902  0.3432  0.4502
 2543SOL    HW2 8529   3.831   0.456   5.965  0.9312  0.3928 -0.3963
 2544SOL     OW 8530   0.759   3.593   2.371  0.2278 -0.1050  0.1907
 2544SOL    HW1 8531   0.782   3.496   2.372 -0.4784 -0.4363 -3.5886
 2544SOL    HW2 8532   0.843   3.647   2.363  0.4374 -0.6401 -1.4004
 2545SOL     OW 8533   0.578   2.322   1.091 -0.0767 -0.3858  0.3670
 2545SOL    HW1 8534   0.540   2.299   1.181  0.0481  1.5263  0.9611
 2545SOL    HW2 8535   0.613   2.416   1.093  0.4595 -0.5057 -1.5303
 2546SOL     OW 8536   5.642   4.366   4.027  0.6321  0.6267  0.3969
 2546SOL    HW1 8537   5.634   4.292   3.961  1.8267  1.0300 -0.2241
 2546SOL    HW2 8538   5.588   4.444   3.997 -0.7990 -0.0251  1.1563
 2547SOL     OW 8539   6.700   3.375   0.274  0.7382  0.3046 -0.0551
 2547SOL    HW1 8540   6.736   3.285   0.252 -0.7432 -0.5254  0.7708
 2547SOL    HW2 8541   6.732   3.442   0.207  0.7998 -1.0713 -1.4326
 2548SOL     OW 8542   5.426   6.354   6.319  0.3300  0.0263  0.2592
 2548SOL    HW1 8543   5.339   6.398   6.296 -0.4052 -0.6421  1.6184
 2548SOL    HW2 8544   5.491   6.424   6.348 -0.4211  0.3716  1.1809
 2549SOL     OW 8545   3.524   4.942   6.355  0.4883  0.0136 -0.1326
 2549SOL    HW1 8546   3.562   4.893   6.276 -0.4602  0.8946 -1.1703
 2549SOL    HW2 8547   3.524   5.040   6.336 -1.5359  0.1128  0.1484
 2550SOL     OW 8548   4.258   1.466   0.653  0.0025 -0.8533 -0.3477
 2550SOL    HW1 8549   4.246   1.370   0.680 -2.0300 -1.1036 -1.9168
 2550SOL    HW2 8550   4.205   1.485   0.571  2.3654  1.0097 -1.5903
 2551SOL     OW 8551   1.669   4.444   1.064  0.1743 -0.8391  0.2660
 2551SOL    HW1 8552   1.708   4.409   0.979  1.3167 -0.4037  0.6040
 2551SOL    HW2 8553   1.584   4.493   1.043  0.0710 -1.3330 -0.5359
 2552SOL     OW 8554   3.806   5.203   2.136 -0.4516 -0.2491  0.5378
 2552SOL    HW1 8555   3.791   5.255   2.052 -0.3146  0.7404  1.1200
 2552SOL    HW2 8556   3.825   5.107   2.112  1.3653  0.3504 -0.6630
 2553SOL     OW 8557   3.079   1.542   0.765 -0.4078  0.4973 -0.2209
 2553SOL    HW1 8558   2.993   1.592   0.771 -0.9175 -0.3960  0.0510
 2553SOL    HW2 8559   3.134   1.579   0.690  0.2773  3.0273  1.4330
 2554SOL     OW 8560   0.249   4.963   6.671  0.8033  0.0088  0.2791
 2554SOL    HW1 8561   0.249   5.055   6.633 -0.8982 -0.3619 -0.7489
 2554SOL    HW2 8562   0.343   4.929   6.677  1.2739  0.5788 -2.5178
 2555SOL     OW 8563   0.553   6.531   5.371 -0.5601  0.4680  0.0213
 2555SOL    HW1 8564   0.586   6.534   5.465 -0.3619 -0.0741 -0.0292
 2555SOL    HW2 8565   0.589   6.609   5.321 -0.9374  0.9468  0.4775
 2556SOL     OW 8566   5.935   6.903   1.118 -0.8304 -0.2280  0.6319
 2556SOL    HW1 8567   5.889   6.871   1.036  0.7575 -2.4236  0.5145
 2556SOL    HW2 8568   5.927   6.833   1.190 -1.1398  1.1275  1.9702
 2557SOL     OW 8569   1.901   1.416   0.719 -0.0043 -0.4820  0.2383
 2557SOL    HW1 8570   1.964   1.475   0.669 -0.4800  0.7610  1.0538
 2557SOL    HW2 8571   1.950   1.335   0.753  0.8524 -0.1472 -0.1827
 2558SOL     OW 8572   5.153   3.547   1.578 -0.0493  0.4859  0.3576
 2558SOL    HW1 8573   5.098   3.561   1.661  1.8682  0.8168  1.6311
 2558SOL    HW2 8574   5.194   3.456   1.580 -1.3476 -0.1806 -1.1165
 2559SOL     OW 8575   0.424   6.837   3.383 -0.2753  0.4009 -0.5813
 2559SOL    HW1 8576   0.371   6.807   3.462  0.4427  1.8431  0.5085
 2559SOL    HW2 8577   0.422   6.937   3.378  1.6975  0.4751 -0.9078
 2560SOL     OW 8578   3.789   3.639   2.846  0.0614  0.5187  0.2483
 2560SOL    HW1 8579   3.876   3.594   2.866  0.0537  0.3860 -0.0126
 2560SOL    HW2 8580   3.714   3.585   2.885  0.0610  0.3703  0.0417
 2561SOL     OW 8581   2.722   6.941   3.276 -0.1248 -0.4524  0.2103
 2561SOL    HW1 8582   2.711   6.850   3.316  0.8005  0.2141  2.0775
 2561SOL    HW2 8583   2.632   6.977   3.250 -0.8292 -0.7564  2.0913
 2562SOL     OW 8584   3.737   0.109   4.416  0.3110 -0.7530 -0.2394
 2562SOL    HW1 8585   3.799   0.114   4.338  0.5242  2.5222 -0.0108
 2562SOL    HW2 8586   3.785   0.071   4.495  0.5849 -2.5206 -1.1981
 2563SOL     OW 8587   4.660   0.511   6.859  0.2256 -0.5022  0.4550
 2563SOL    HW1 8588   4.625   0.440   6.799 -0.1439  1.1003 -1.3390
 2563SOL    HW2 8589   4.749   0.543   6.826 -0.2437  0.8055  0.3724
 2564SOL     OW 8590   2.912   0.096   6.930  0.1148  0.4091 -0.0387
 2564SOL    HW1 8591   2.869   0.150   7.003 -1.5757 -0.7701 -0.1232
 2564SOL    HW2 8592   3.010   0.091   6.947 -0.4128 -1.5027  3.3357
 2565SOL     OW 8593   5.831   0.287   6.779  0.1606  0.0822  0.0865
 2565SOL    HW1 8594   5.777   0.285   6.864  0.5868 -2.9866  0.3954
 2565SOL    HW2 8595   5.914   0.233   6.792  0.6808  0.3148 -2.0447
 2566SOL     OW 8596   2.971   1.006   0.638 -0.0699  0.5021  0.2121
 2566SOL    HW1 8597   2.983   1.105   0.646  2.6931  0.3689 -1.1005
 2566SOL    HW2 8598   2.886   0.987   0.590  0.3218  2.3660 -1.3685
 2567SOL     OW 8599   1.953   6.417   5.948  0.5889  0.4534 -0.0152
 2567SOL    HW1 8600   2.035   6.461   5.911  0.0278  1.0500 -0.5832
 2567SOL    HW2 8601   1.872   6.452   5.901 -0.0770  0.5834  1.1708
 2568SOL     OW 8602   5.687   6.343   0.707  0.7233 -0.3164  0.0376
 2568SOL    HW1 8603   5.636   6.257   0.700  0.8435 -0.4119  0.3056
 2568SOL    HW2 8604   5.682   6.392   0.621  0.0821 -0.2765  0.0943
 2569SOL     OW 8605   4.689   5.492   4.912  0.2011 -0.1956  0.1783
 2569SOL    HW1 8606   4.670   5.439   4.995 -2.1183  1.5649  0.8864
 2569SOL    HW2 8607   4.783   5.526   4.914 -0.3596  1.5125  3.1794
 2570SOL     OW 8608   6.524   0.622   3.744  0.0957  0.5400  0.2222
 2570SOL    HW1 8609   6.556   0.543   3.796 -2.2638 -0.0782  0.8388
 2570SOL    HW2 8610   6.527   0.600   3.646 -0.7701 -0.4441  0.3975
 2571SOL     OW 8611   3.461   4.114   1.895  0.0564  0.3444  0.3060
 2571SOL    HW1 8612   3.368   4.083   1.876  0.7898 -2.5907  0.9102
 2571SOL    HW2 8613   3.515   4.037   1.931  2.5500  2.0999  0.5951
 2572SOL     OW 8614   4.152   6.203   1.776 -0.3566 -0.2701 -0.0522
 2572SOL    HW1 8615   4.244   6.220   1.813 -1.0103 -1.0873  2.1464
 2572SOL    HW2 8616   4.090   6.179   1.851 -2.4066  0.3009 -1.4630
 2573SOL     OW 8617   6.706   6.011   1.652 -0.4028  0.3236 -0.2008
 2573SOL    HW1 8618   6.801   6.037   1.638  0.4040 -1.2501  1.8897
 2573SOL    HW2 8619   6.665   5.984   1.565  1.0395  1.0059 -1.1239
 2574SOL     OW 8620   1.926   4.527   2.746  0.0210  0.0049 -0.2385
 2574SOL    HW1 8621   2.004   4.560   2.693 -0.0661  0.9706  0.2101
 2574SOL    HW2 8622   1.842   4.536   2.692 -0.2258  1.9895  0.3838
 2575SOL     OW 8623   3.573   3.798   4.192 -0.0154  0.1161  0.5754
 2575SOL    HW1 8624   3.576   3.861   4.270  0.0633  1.1936 -0.2805
 2575SOL    HW2 8625   3.481   3.761   4.182  0.3549 -1.4025  2.2156
 2576SOL     OW 8626   1.717   0.816   3.514  0.0671  0.5096  0.4796
 2576SOL    HW1 8627   1.617   0.816   3.521 -0.0672 -0.4345 -1.0320
 2576SOL    HW2 8628   1.753   0.899   3.557 -1.4761  1.6101 -0.2597
 2577SOL     OW 8629   6.894   4.119   0.300  0.3633  0.0258 -0.4892
 2577SOL    HW1 8630   6.974   4.063   0.321  1.4403  1.3242 -0.9783
 2577SOL    HW2 8631   6.814   4.081   0.347  1.7132  0.0322  2.0077
 2578SOL     OW 8632   4.812   0.399   6.582  0.3797 -0.3019  0.0931
 2578SOL    HW1 8633   4.849   0.416   6.673  0.9384  0.6776 -0.2907
 2578SOL    HW2 8634   4.715   0.424   6.580  0.6423  0.7690  0.1390
 2579SOL     OW 8635   0.229   3.160   5.811 -0.0296 -0.0939  0.2435
 2579SOL    HW1 8636   0.298   3.212   5.862  0.0973 -0.0100 -0.0087
 2579SOL    HW2 8637   0.208   3.075   5.859 -0.1061  0.1093  0.5684
 2580SOL     OW 8638   3.992   2.378   6.482  0.3957  0.5301  0.0658
 2580SOL    HW1 8639   4.010   2.449   6.414 -1.4249  0.8841 -0.1047
 2580SOL    HW2 8640   4.006   2.288   6.442  1.5416  0.7556 -0.0789
 2581SOL     OW 8641   5.583   6.645   4.183  0.0273 -0.1241  0.7793
 2581SOL    HW1 8642   5.506   6.688   4.230 -0.3148  0.4956 -0.3089
 2581SOL    HW2 8643   5.556   6.553   4.152 -1.0309  0.8368 -1.3851
 2582SOL     OW 8644   6.770   4.041   3.470  0.2424  0.0575 -0.2488
 2582SOL    HW1 8645   6.793   4.131   3.432  0.1537 -0.7039 -2.2023
 2582SOL    HW2 8646   6.852   3.986   3.478  0.1583 -0.0267  0.0776
 2583SOL     OW 8647   2.229   5.997   0.550  0.2426  0.3309  0.3913
 2583SOL    HW1 8648   2.309   5.978   0.493 -0.8222  1.3018 -1.5543
 2583SOL    HW2 8649   2.259   6.024   0.641  2.0735 -0.5640  0.1004
 2584SOL     OW 8650   2.690   1.551   5.384  0.5502  0.0590 -0.1406
 2584SOL    HW1 8651   2.775   1.548   5.437  1.2189 -0.7693 -1.2095
 2584SOL    HW2 8652   2.617   1.591   5.439  0.7967 -2.2320  2.0028
 2585SOL     OW 8653   3.005   1.049   4.721  0.2726 -0.5658 -0.5586
 2585SOL    HW1 8654   3.039   1.075   4.631  2.1362  0.8472  0.4562
 2585SOL    HW2 8655   3.021   1.124   4.785  0.2429 -2.0176  1.2376
 2586SOL     OW 8656   2.604   1.416   3.224  0.3349 -0.1138  0.2956
 2586SOL    HW1 8657   2.641   1.507   3.243  0.0030  0.1443 -0.2643
 2586SOL    HW2 8658   2.605   1.400   3.125  2.4806 -1.6149  0.4852
 2587SOL     OW 8659   5.656   3.136   3.874  0.2497 -0.0058  0.5321
 2587SOL    HW1 8660   5.695   3.159   3.785  1.2687 -0.9053  0.7298
 2587SOL    HW2 8661   5.557   3.149   3.871  0.0567 -1.5048 -1.2319
 2588SOL     OW 8662   3.748   0.784   1.889  0.2707  0.6167 -0.5190
 2588SOL    HW1 8663   3.832   0.838   1.887  1.5940 -1.2715  0.2709
 2588SOL    HW2 8664   3.670   0.843   1.909  1.6307  2.1846  0.4083
 2589SOL     OW 8665   3.711   5.950   2.107  0.0832 -0.2114  0.3007
 2589SOL    HW1 8666   3.717   5.981   2.202  1.4548 -2.6130  1.0781
 2589SOL    HW2 8667   3.741   6.024   2.047  2.8897  0.1754  2.0004
 2590SOL     OW 8668   4.151   6.160   3.751  0.6404  0.5133 -0.0477
 2590SOL    HW1 8669   4.120   6.172   3.845 -2.6909 -1.1353 -0.7909
 2590SOL    HW2 8670   4.078   6.187   3.688  1.0289 -2.5637 -2.0348
 2591SOL     OW 8671   4.616   1.801   6.897  0.0047  0.1507 -0.2580
 2591SOL    HW1 8672   4.657   1.785   6.986  1.2781 -2.3105 -1.1714
 2591SOL    HW2 8673   4.541   1.736   6.883 -1.3905  1.7094 -0.3304
 2592SOL     OW 8674   4.188   5.208   1.993  0.3291  0.1580  0.1784
 2592SOL    HW1 8675   4.117   5.278   1.996 -0.6156 -0.5760 -2.3179
 2592SOL    HW2 8676   4.264   5.241   1.936  0.2610 -0.4924 -0.3003
 2593SOL     OW 8677   3.515   5.503   4.066  0.1900  0.5173 -0.4137
 2593SOL    HW1 8678   3.444   5.492   4.137  1.2473  0.8382  0.7285
 2593SOL    HW2 8679   3.543   5.599   4.062 -0.7302  0.7459 -2.1732
 2594SOL     OW 8680   1.386   5.787   0.610 -0.3819  0.6185  0.3331
 2594SOL    HW1 8681   1.359   5.692   0.627 -0.4461 -0.0576 -2.9301
 2594SOL    HW2 8682   1.475   5.789   0.566 -0.8335  1.9723 -0.5868
 2595SOL     OW 8683   6.170   4.219   3.471 -0.2088 -0.8765 -0.1467
 2595SOL    HW1 8684   6.239   4.152   3.445  0.4763 -0.4413  0.5276
 2595SOL    HW2 8685   6.208   4.284   3.537 -1.1258 -0.3591 -0.0985
 2596SOL     OW 8686   3.314   0.538   0.107  0.4166  0.8953 -0.3817
 2596SOL    HW1 8687   3.278   0.456   0.063  1.0906  1.5152 -2.1612
 2596SOL    HW2 8688   3.238   0.591   0.145 -0.1334  0.0538 -0.2788
 2597SOL     OW 8689   3.467   0.616   6.350  0.1498 -0.4096 -0.8119
 2597SOL    HW1 8690   3.522   0.537   6.325 -0.4297 -1.3797  0.8083
 2597SOL    HW2 8691   3.519   0.676   6.410  0.0029 -0.4878 -0.6032
 2598SOL     OW 8692   0.149   0.560   2.441 -0.0939  0.4967 -0.9237
 2598SOL    HW1 8693   0.071   0.498   2.447  0.9291 -0.7369  0.3532
 2598SOL    HW2 8694   0.233   0.508   2.424  0.7169  1.5778 -0.4043
 2599SOL     OW 8695   6.042   4.264   5.696  0.5908  0.1028 -0.3966
 2599SOL    HW1 8696   6.140   4.282   5.706  0.8625 -1.0706 -0.8221
 2599SOL    HW2 8697   6.026   4.165   5.693 -0.5380  0.2881 -1.0247
 2600SOL     OW 8698   5.958   4.375   4.442  0.4124  0.0511  0.1324
 2600SOL    HW1 8699   6.058   4.380   4.442  0.4792 -0.1073  2.7943
 2600SOL    HW2 8700   5.926   4.329   4.525 -1.8271 -2.6751 -2.0205
 2601SOL     OW 8701   4.144   5.526   4.132  0.1695 -0.1254  0.3142
 2601SOL    HW1 8702   4.064   5.509   4.074 -1.0092  3.6788  0.5513
 2601SOL    HW2 8703   4.196   5.604   4.096  0.5660  1.0636  3.1486
 2602SOL     OW 8704   6.445   4.847   1.208  0.3615  0.2205 -0.1104
 2602SOL    HW1 8705   6.397   4.880   1.127 -1.9595 -1.8537  0.2623
 2602SOL    HW2 8706   6.419   4.903   1.287 -0.3535  0.0075 -0.1818
 2603SOL     OW 8707   1.686   2.632   0.730 -0.1136  0.5337 -0.0968
 2603SOL    HW1 8708   1.638   2.562   0.783  0.2781  0.2677 -0.0868
 2603SOL    HW2 8709   1.657   2.722   0.760  0.3303  0.3880  0.7799
 2604SOL     OW 8710   6.620   0.259   0.359 -0.5185 -0.6278 -0.6355
 2604SOL    HW1 8711   6.636   0.355   0.382  1.3068 -0.6425 -1.6207
 2604SOL    HW2 8712   6.588   0.210   0.440 -0.6338  0.6358  0.1027
 2605SOL     OW 8713   6.363   1.462   4.921  0.0698 -0.0066  0.1028
 2605SOL    HW1 8714   6.327   1.405   4.847  0.9730 -0.0828 -0.2879
 2605SOL    HW2 8715   6.435   1.522   4.886  0.6754 -0.2114  0.9634
 2606SOL     OW 8716   6.607   3.887   6.651  0.2854  0.0195 -0.0392
 2606SOL    HW1 8717   6.524   3.916   6.604  1.0115  0.4183 -1.0922
 2606SOL    HW2 8718   6.610   3.787   6.656 -0.2729  0.0059  0.0398
 2607SOL     OW 8719   1.162   0.413   1.373 -0.2362 -0.1040 -0.0372
 2607SOL    HW1 8720   1.122   0.325   1.349 -0.1656  0.0235 -0.6569
 2607SOL    HW2 8721   1.249   0.423   1.324 -0.2712  0.3289 -0.0103
 2608SOL     OW 8722   4.187   6.957   0.474  0.0985  0.5455 -0.1434
 2608SOL    HW1 8723   4.285   6.958   0.490  0.3463 -0.9598 -1.3626
 2608SOL    HW2 8724   4.140   6.922   0.555  0.7652 -0.7767 -0.3079
 2609SOL     OW 8725   0.808   4.523   2.243 -0.4630 -0.2384  0.1193
 2609SOL    HW1 8726   0.818   4.587   2.319 -1.4410 -1.0600  0.9817
 2609SOL    HW2 8727   0.760   4.568   2.168 -0.7650  0.1780  0.5517
 2610SOL     OW 8728   6.877   6.916   4.973 -0.3308  0.6454 -0.8632
 2610SOL    HW1 8729   6.790   6.878   5.004  0.2899  0.1598  0.4051
 2610SOL    HW2 8730   6.917   6.970   5.047  0.7019  0.3731 -1.2039
 2611SOL     OW 8731   3.244   4.414   1.415  0.5173  0.2778 -0.0289
 2611SOL    HW1 8732   3.269   4.318   1.402  1.0858  0.4924 -0.5485
 2611SOL    HW2 8733   3.309   4.457   1.477  1.5738  0.8754 -1.4998
 2612SOL     OW 8734   0.101   0.209   2.522  0.6128 -0.3148 -0.4505
 2612SOL    HW1 8735   0.009   0.216   2.482  1.2840 -0.3074 -2.0645
 2612SOL    HW2 8736   0.121   0.293   2.573 -0.2858 -0.3433 -0.0166
 2613SOL     OW 8737   5.099   2.355   1.470  0.3360  0.0871  0.2168
 2613SOL    HW1 8738   5.144   2.376   1.556  0.7315 -0.1636  0.0703
 2613SOL    HW2 8739   5.003   2.331   1.488  0.6246 -0.7656  0.6755
 2614SOL     OW 8740   6.735   5.834   1.172  0.0851 -0.0471 -0.0283
 2614SOL    HW1 8741   6.810   5.860   1.233 -0.2748  0.5082  0.1766
 2614SOL    HW2 8742   6.705   5.914   1.120  1.3611 -0.7704 -2.0329
 2615SOL     OW 8743   6.923   5.666   2.448  0.0592 -0.0359  0.5691
 2615SOL    HW1 8744   6.982   5.591   2.479 -0.4030 -0.9330 -0.6520
 2615SOL    HW2 8745   6.846   5.675   2.511 -0.6639 -1.5846 -0.0313
 2616SOL     OW 8746   3.780   3.281   1.474 -0.5458 -0.5452  0.6542
 2616SOL    HW1 8747   3.692   3.326   1.458 -0.5449 -1.1725 -1.4320
 2616SOL    HW2 8748   3.772   3.217   1.550 -1.1985  1.1473  2.0803
 2617SOL     OW 8749   4.090   0.396   6.966 -0.4900 -0.5404  0.8996
 2617SOL    HW1 8750   4.040   0.413   7.050 -0.5845  0.4909  0.6464
 2617SOL    HW2 8751   4.027   0.401   6.888 -0.2144 -0.4296  0.6821
 2618SOL     OW 8752   1.415   6.078   0.509 -0.1059 -0.3322  0.0657
 2618SOL    HW1 8753   1.374   5.989   0.530  0.5089 -0.7723 -0.5522
 2618SOL    HW2 8754   1.514   6.071   0.512 -0.0566  0.5848  0.9596
 2619SOL     OW 8755   6.597   0.841   2.729  0.4781 -0.4333  0.0969
 2619SOL    HW1 8756   6.640   0.796   2.807 -0.0105 -0.3396  0.4285
 2619SOL    HW2 8757   6.497   0.835   2.739  0.3774  1.6779  0.7186
 2620SOL     OW 8758   0.635   0.199   4.068 -0.3706  0.4067 -0.2584
 2620SOL    HW1 8759   0.706   0.265   4.042  0.0783  0.5325  1.1995
 2620SOL    HW2 8760   0.670   0.106   4.057 -0.2678  0.4513 -0.3116
 2621SOL     OW 8761   1.795   0.157   2.165  0.3732  0.0162  0.0080
 2621SOL    HW1 8762   1.846   0.196   2.088 -0.8405 -0.0954 -0.8823
 2621SOL    HW2 8763   1.854   0.093   2.214  1.1049 -0.0909 -0.9713
 2622SOL     OW 8764   2.325   2.784   3.227 -0.4824  0.0759 -0.2715
 2622SOL    HW1 8765   2.291   2.845   3.298  0.2285  0.5758 -0.3518
 2622SOL    HW2 8766   2.411   2.743   3.256 -0.0520  0.4846 -0.9357
 2623SOL     OW 8767   2.774   1.977   4.739 -0.2595 -0.3782  0.0791
 2623SOL    HW1 8768   2.756   2.069   4.703  0.9931 -0.1844 -0.1180
 2623SOL    HW2 8769   2.688   1.927   4.748 -0.7747  0.0753 -1.8326
 2624SOL     OW 8770   5.872   0.547   4.294  0.7002  0.2217  0.3187
 2624SOL    HW1 8771   5.802   0.545   4.366  0.1142 -1.4958 -0.2515
 2624SOL    HW2 8772   5.960   0.571   4.334  0.1148  0.7535  1.3446
 2625SOL     OW 8773   0.439   5.806   1.194 -0.5074  0.5637 -0.0620
 2625SOL    HW1 8774   0.450   5.882   1.258  0.1881  0.3103  0.1250
 2625SOL    HW2 8775   0.518   5.803   1.132 -1.2631  0.9365 -1.0868
 2626SOL     OW 8776   3.126   0.305   3.047 -0.5556  0.0930  0.8230
 2626SOL    HW1 8777   3.099   0.298   2.951  1.5655  1.1737  0.0957
 2626SOL    HW2 8778   3.074   0.379   3.090 -0.5377  0.5135  0.1401
 2627SOL     OW 8779   1.156   1.592   3.831  0.0093 -0.4963 -0.4341
 2627SOL    HW1 8780   1.233   1.580   3.893 -0.3876  0.1503  0.2042
 2627SOL    HW2 8781   1.183   1.566   3.738  1.6150  1.5195 -0.6066
 2628SOL     OW 8782   5.665   4.812   6.049 -0.7200  0.1602 -0.2113
 2628SOL    HW1 8783   5.765   4.802   6.043 -0.8337 -1.3405 -0.0647
 2628SOL    HW2 8784   5.643   4.879   6.120  0.1910  1.2122 -0.8950
 2629SOL     OW 8785   1.783   4.668   1.444 -0.4975  0.3115 -0.1529
 2629SOL    HW1 8786   1.738   4.584   1.413 -1.9067  1.4026 -1.2130
 2629SOL    HW2 8787   1.879   4.666   1.417 -0.6752 -0.6763 -0.7530
 2630SOL     OW 8788   4.936   2.409   2.895  0.1252 -0.1851  0.0950
 2630SOL    HW1 8789   5.011   2.386   2.957  1.4097  0.4185 -1.1707
 2630SOL    HW2 8790   4.855   2.435   2.949  1.3421  0.8186  1.5409
 2631SOL     OW 8791   4.522   6.652   3.447 -0.7951  0.2781  0.3124
 2631SOL    HW1 8792   4.601   6.697   3.489 -0.4465 -0.3388  0.3339
 2631SOL    HW2 8793   4.546   6.619   3.356 -0.9536 -0.1136  0.4076
 2632SOL     OW 8794   5.338   2.916   1.761 -0.1743  0.1203 -0.1366
 2632SOL    HW1 8795   5.414   2.863   1.796  0.7903 -0.0204 -2.2797
 2632SOL    HW2 8796   5.327   2.999   1.815  0.1815 -0.8210  1.4282
 2633SOL     OW 8797   6.737   3.092   6.850 -0.0859  0.1712  0.6333
 2633SOL    HW1 8798   6.654   3.104   6.904 -0.6466 -2.6941  0.5713
 2633SOL    HW2 8799   6.716   3.099   6.753 -0.6109 -1.7543  0.5532
 2634SOL     OW 8800   2.165   4.653   1.104  0.1230  0.0397  0.3604
 2634SOL    HW1 8801   2.218   4.721   1.154 -0.0810 -0.1751  0.8774
 2634SOL    HW2 8802   2.067   4.674   1.112  0.1069  0.2245 -0.2794
 2635SOL     OW 8803   5.049   5.110   3.916  0.3304  0.1499 -0.6414
 2635SOL    HW1 8804   5.023   5.029   3.863  0.5516 -0.1189 -0.3474
 2635SOL    HW2 8805   5.148   5.110   3.930  0.3629  0.6195 -0.8757
 2636SOL     OW 8806   0.893   3.184   4.519  0.6816  0.4166  0.1124
 2636SOL    HW1 8807   0.974   3.199   4.576 -0.3673  1.5335  1.3658
 2636SOL    HW2 8808   0.821   3.248   4.545 -0.3636 -0.0354 -1.5012
 2637SOL     OW 8809   4.000   4.209   1.457  0.0090  0.2211 -0.0398
 2637SOL    HW1 8810   3.946   4.280   1.502 -1.2597 -1.2696  0.8868
 2637SOL    HW2 8811   4.001   4.225   1.359 -1.6259  0.6260 -0.0106
 2638SOL     OW 8812   4.941   5.905   1.252  0.1881  0.4570 -0.0965
 2638SOL    HW1 8813   4.898   5.990   1.283 -0.9948 -0.1192 -0.1085
 2638SOL    HW2 8814   4.872   5.832   1.249  1.1157 -0.4226 -0.4032
 2639SOL     OW 8815   6.383   0.108   1.391  0.3925 -0.7270  0.0052
 2639SOL    HW1 8816   6.344   0.048   1.320  0.0678 -0.2606 -0.2176
 2639SOL    HW2 8817   6.315   0.178   1.415  0.1915 -1.3492  1.3441
 2640SOL     OW 8818   0.880   6.271   1.805 -0.2834  0.5584  0.2539
 2640SOL    HW1 8819   0.901   6.294   1.900  0.7993 -1.2798  0.4904
 2640SOL    HW2 8820   0.820   6.191   1.802  0.8025 -0.2480 -0.6144
 2641SOL     OW 8821   5.392   4.934   2.067  0.3011 -1.0315  0.7593
 2641SOL    HW1 8822   5.426   4.903   1.978 -1.3465 -1.5495  0.2710
 2641SOL    HW2 8823   5.303   4.979   2.055 -0.6922 -2.4475  2.2727
 2642SOL     OW 8824   5.876   0.697   4.961 -0.3895  0.5875 -0.9480
 2642SOL    HW1 8825   5.799   0.758   4.981 -1.8368 -0.0354 -3.9358
 2642SOL    HW2 8826   5.857   0.606   4.999 -0.8376  0.6192 -1.0858
 2643SOL     OW 8827   2.312   1.218   2.049  0.2914 -0.5533  0.0420
 2643SOL    HW1 8828   2.311   1.158   1.969  1.7951  2.3992 -2.3660
 2643SOL    HW2 8829   2.231   1.276   2.050  0.2603 -0.5908  0.7322
 2644SOL     OW 8830   4.860   5.768   4.366  0.5166 -0.4695  0.1610
 2644SOL    HW1 8831   4.825   5.720   4.447 -1.6450 -0.4560 -0.6957
 2644SOL    HW2 8832   4.835   5.717   4.284  0.2004  0.9475 -0.6547
 2645SOL     OW 8833   4.749   6.610   0.397  0.2712 -0.0516 -0.1629
 2645SOL    HW1 8834   4.808   6.565   0.465 -0.0051  0.2428  0.2733
 2645SOL    HW2 8835   4.653   6.588   0.416  0.1108  0.9516  0.2238
 2646SOL     OW 8836   6.598   5.062   5.202 -0.3665  0.1985  0.1094
 2646SOL    HW1 8837   6.543   4.989   5.161  0.8531 -1.6144  1.5289
 2646SOL    HW2 8838   6.653   5.106   5.131  0.0831 -1.3963 -0.5859
 2647SOL     OW 8839   4.171   3.769   1.977 -0.2842 -0.5080  0.4158
 2647SOL    HW1 8840   4.202   3.852   1.931 -1.8543 -0.7398 -1.1648
 2647SOL    HW2 8841   4.226   3.691   1.946 -1.1799 -0.6241 -0.9335
 2648SOL     OW 8842   4.797   2.101   2.055 -0.4121  0.0080 -0.0344
 2648SOL    HW1 8843   4.873   2.039   2.035 -0.8258 -0.3313 -0.5662
 2648SOL    HW2 8844   4.714   2.049   2.071 -0.4267  0.3557  1.0792
 2649SOL     OW 8845   2.303   2.829   4.647  0.1120  0.0054 -0.1325
 2649SOL    HW1 8846   2.335   2.838   4.552 -1.4914 -1.1965 -0.8343
 2649SOL    HW2 8847   2.261   2.914   4.676 -2.1923 -0.5094 -1.6655
 2650SOL     OW 8848   0.265   5.751   0.963  0.3615 -0.0999  0.1960
 2650SOL    HW1 8849   0.322   5.776   1.041  1.0462 -1.5521  0.1923
 2650SOL    HW2 8850   0.288   5.658   0.933 -1.3070 -0.3458 -0.4462
 2651SOL     OW 8851   0.640   6.191   3.822 -0.4977  0.1242  0.2130
 2651SOL    HW1 8852   0.655   6.095   3.844  0.1250  0.3749  0.9286
 2651SOL    HW2 8853   0.544   6.215   3.839 -0.4288 -0.1297  1.0026
 2652SOL     OW 8854   2.568   0.459   1.480  0.3577  0.1591  1.1239
 2652SOL    HW1 8855   2.658   0.490   1.447  0.5433  0.7947  2.1739
 2652SOL    HW2 8856   2.502   0.465   1.406  0.9537  0.6915  0.6152
 2653SOL     OW 8857   4.968   1.379   0.690 -0.0650 -0.1212  0.0856
 2653SOL    HW1 8858   4.905   1.302   0.680 -1.7228  1.2112 -0.3439
 2653SOL    HW2 8859   4.946   1.430   0.773  2.2933 -1.1581  1.4427
 2654SOL     OW 8860   0.589   2.745   5.011 -0.1239 -0.1083  0.0517
 2654SOL    HW1 8861   0.613   2.649   5.030  1.1343  0.5486  2.1666
 2654SOL    HW2 8862   0.664   2.789   4.962 -0.2571  0.0448 -0.0150
 2655SOL     OW 8863   5.916   4.059   4.732  0.4764 -0.2583 -0.3188
 2655SOL    HW1 8864   5.940   4.106   4.817  0.0209 -1.7426  0.6769
 2655SOL    HW2 8865   5.985   3.989   4.712 -1.0600 -2.1876  0.7017
 2656SOL     OW 8866   0.932   3.611   3.747 -0.3675  1.0053  0.2204
 2656SOL    HW1 8867   1.027   3.579   3.742 -0.0960  1.7855  0.2706
 2656SOL    HW2 8868   0.892   3.582   3.834 -0.1336  0.7995  0.2621
 2657SOL     OW 8869   4.237   1.862   5.461 -0.1894 -0.5167 -0.2769
 2657SOL    HW1 8870   4.211   1.768   5.436  0.5263 -0.9764  0.6232
 2657SOL    HW2 8871   4.317   1.889   5.409  0.2843 -0.8412  0.2679
 2658SOL     OW 8872   1.336   4.193   5.707 -0.5570 -0.2317 -0.5240
 2658SOL    HW1 8873   1.376   4.196   5.616 -1.6777  1.0584 -1.0115
 2658SOL    HW2 8874   1.337   4.099   5.741  2.5053 -0.3431 -0.6218
 2659SOL     OW 8875   4.778   2.107   5.124 -0.3964  0.0259  0.0365
 2659SOL    HW1 8876   4.704   2.165   5.089 -1.4781 -1.5809 -0.4585
 2659SOL    HW2 8877   4.803   2.040   5.055 -0.7591 -1.5414  1.3553
 2660SOL     OW 8878   0.437   0.686   1.999  0.0171 -0.2186  0.5880
 2660SOL    HW1 8879   0.513   0.628   1.970 -2.3709 -2.2612 -2.2618
 2660SOL    HW2 8880   0.358   0.670   1.939 -2.9892  1.1403  3.7991
 2661SOL     OW 8881   3.420   5.862   2.738 -0.2397 -0.2653  0.6128
 2661SOL    HW1 8882   3.453   5.772   2.767  0.1346  0.0619  1.2390
 2661SOL    HW2 8883   3.386   5.912   2.818 -0.2761  0.2153  0.3008
 2662SOL     OW 8884   4.303   0.960   5.713 -0.4690  0.0588 -0.1003
 2662SOL    HW1 8885   4.311   0.943   5.615 -1.9561 -0.3776 -0.1679
 2662SOL    HW2 8886   4.342   0.883   5.764 -3.7343 -1.9671 -0.4025
 2663SOL     OW 8887   2.143   5.211   2.054 -0.5316  0.2446  0.2765
 2663SOL    HW1 8888   2.133   5.168   2.143  2.8198 -0.2656  0.5381
 2663SOL    HW2 8889   2.125   5.144   1.982  0.2314 -0.3590  0.6383
 2664SOL     OW 8890   5.229   4.913   4.232  0.0377  0.6888  0.0959
 2664SOL    HW1 8891   5.296   4.952   4.169  3.0447 -0.2597  2.4700
 2664SOL    HW2 8892   5.248   4.945   4.325 -1.2160 -1.6629  1.2516
 2665SOL     OW 8893   3.351   6.817   4.506  0.0541  0.3746 -0.2437
 2665SOL    HW1 8894   3.271   6.872   4.533  0.8467  1.7145 -0.5130
 2665SOL    HW2 8895   3.430   6.845   4.561  0.6640  0.0696 -0.9575
 2666SOL     OW 8896   6.145   6.494   2.087 -0.0846 -0.1062 -0.0549
 2666SOL    HW1 8897   6.103   6.584   2.100  0.6437  0.2594 -0.1931
 2666SOL    HW2 8898   6.192   6.467   2.171  0.7652  0.2198 -0.4083
 2667SOL     OW 8899   2.508   5.049   2.716  0.2643  0.0380  0.4153
 2667SOL    HW1 8900   2.589   5.033   2.773  0.9321  2.0931  0.1000
 2667SOL    HW2 8901   2.526   5.016   2.624  0.7946  0.5648  0.3237
 2668SOL     OW 8902   0.070   2.625   5.253 -0.0887 -0.3772 -0.1220
 2668SOL    HW1 8903   0.153   2.679   5.266 -0.7347  0.1021  2.6032
 2668SOL    HW2 8904   0.084   2.533   5.290 -0.0183 -1.1245 -1.9059
 2669SOL     OW 8905   3.568   5.661   5.441 -0.1719  0.0153 -0.4578
 2669SOL    HW1 8906   3.657   5.676   5.484 -0.9254  0.3650  1.0304
 2669SOL    HW2 8907   3.512   5.744   5.449 -0.7470 -0.2943 -1.1197
 2670SOL     OW 8908   2.076   5.316   3.609 -0.4688  0.3447  0.2507
 2670SOL    HW1 8909   2.158   5.262   3.591 -0.6472  0.0144  0.4336
 2670SOL    HW2 8910   2.008   5.299   3.538 -0.4706  0.4411  0.2286
 2671SOL     OW 8911   2.613   4.177   6.675 -0.2951 -0.1561 -0.0767
 2671SOL    HW1 8912   2.659   4.177   6.586  0.0689  0.6216  0.1028
 2671SOL    HW2 8913   2.534   4.117   6.671  1.0119 -1.9313 -0.2335
 2672SOL     OW 8914   1.196   4.263   0.138 -0.4782  0.5597  0.0507
 2672SOL    HW1 8915   1.141   4.180   0.140 -1.3693  1.1407  0.0463
 2672SOL    HW2 8916   1.279   4.247   0.084  0.3318 -0.9061  1.6037
 2673SOL     OW 8917   4.705   2.735   3.293  0.1970  0.0823 -0.0868
 2673SOL    HW1 8918   4.668   2.771   3.207  0.9898  0.1366 -0.4163
 2673SOL    HW2 8919   4.803   2.756   3.298  0.3029 -0.5219  0.5112
 2674SOL     OW 8920   5.224   6.843   5.853  0.0680  0.4798  0.0566
 2674SOL    HW1 8921   5.210   6.808   5.946 -2.5217  2.1053  0.3980
 2674SOL    HW2 8922   5.135   6.864   5.812  1.0971 -0.7088 -3.0714
 2675SOL     OW 8923   6.384   4.717   6.227 -0.5501  0.5621  0.7384
 2675SOL    HW1 8924   6.326   4.798   6.220 -2.8767 -0.9811  1.0226
 2675SOL    HW2 8925   6.358   4.665   6.308  0.9644 -0.4439  0.6112
 2676SOL     OW 8926   5.339   6.158   1.744  0.5538  0.6419  0.0090
 2676SOL    HW1 8927   5.333   6.211   1.829  0.8476 -1.4187  1.3998
 2676SOL    HW2 8928   5.427   6.177   1.699  0.7712  1.1081  0.6138
 2677SOL     OW 8929   2.713   4.127   1.539  0.0331 -0.2076 -0.1351
 2677SOL    HW1 8930   2.809   4.115   1.567 -0.2424 -1.4721  0.3161
 2677SOL    HW2 8931   2.701   4.219   1.501  2.0327 -0.8780 -2.6851
 2678SOL     OW 8932   1.832   5.245   6.890 -0.1930  0.2727  0.0270
 2678SOL    HW1 8933   1.911   5.302   6.912 -0.6456  0.5840  0.9158
 2678SOL    HW2 8934   1.851   5.192   6.808  0.6971  0.8088 -0.1300
 2679SOL     OW 8935   1.417   4.293   1.391 -0.3845 -0.1999 -0.2857
 2679SOL    HW1 8936   1.516   4.280   1.394 -0.4241 -0.6533 -0.7808
 2679SOL    HW2 8937   1.377   4.230   1.325 -1.0502 -0.2860  0.1909
 2680SOL     OW 8938   5.045   2.296   1.195  0.6435  0.4791  0.4290
 2680SOL    HW1 8939   5.072   2.327   1.286 -0.4543 -1.1983  1.3759
 2680SOL    HW2 8940   5.088   2.208   1.175  2.5107  1.7459 -1.5770
 2681SOL     OW 8941   2.153   2.419   1.222 -0.0899 -0.3115 -0.0868
 2681SOL    HW1 8942   2.104   2.403   1.137  0.2584 -2.4510  0.0375
 2681SOL    HW2 8943   2.147   2.515   1.248 -0.8573  0.2176 -2.1000
 2682SOL     OW 8944   1.232   4.344   2.528  0.5172  0.6584  0.0598
 2682SOL    HW1 8945   1.135   4.370   2.521  0.8729  1.5618 -2.9628
 2682SOL    HW2 8946   1.273   4.387   2.608 -1.7954 -0.7330  2.1536
 2683SOL     OW 8947   2.686   0.866   1.828 -0.2128  0.3989  0.2053
 2683SOL    HW1 8948   2.642   0.868   1.918  1.8032  1.2515  1.2281
 2683SOL    HW2 8949   2.785   0.871   1.839  0.1319 -0.2777 -2.0583
 2684SOL     OW 8950   2.770   5.817   4.479  0.2663 -0.4738  0.2948
 2684SOL    HW1 8951   2.800   5.740   4.423  0.7179  1.2178 -1.9339
 2684SOL    HW2 8952   2.737   5.890   4.420 -0.0903  1.0942  2.3262
 2685SOL     OW 8953   5.233   4.714   6.226  0.1557 -0.1205  0.4866
 2685SOL    HW1 8954   5.252   4.796   6.280 -0.6684 -1.2702  2.6374
 2685SOL    HW2 8955   5.318   4.665   6.208  0.6847  1.2363 -0.9814
 2686SOL     OW 8956   0.904   4.439   4.297 -0.1649  0.2047  0.5136
 2686SOL    HW1 8957   0.898   4.538   4.312 -0.4417  0.1350  0.8843
 2686SOL    HW2 8958   0.823   4.408   4.247  0.2224  0.2595 -0.1630
 2687SOL     OW 8959   4.197   4.741   2.593 -0.4372  0.2754 -0.0398
 2687SOL    HW1 8960   4.239   4.688   2.520  0.2424  1.4551 -0.5495
 2687SOL    HW2 8961   4.207   4.839   2.572  0.0557  0.6493  1.7649
 2688SOL     OW 8962   1.540   4.083   6.865 -0.2084 -0.4312 -0.3276
 2688SOL    HW1 8963   1.554   3.996   6.913 -1.0427 -1.6169 -2.1054
 2688SOL    HW2 8964   1.629   4.123   6.843  0.1830 -0.1870  1.5719
 2689SOL     OW 8965   4.543   0.497   4.455  0.7579 -0.3814 -0.0989
 2689SOL    HW1 8966   4.487   0.416   4.474  2.2941 -1.1082  1.5520
 2689SOL    HW2 8967   4.620   0.472   4.397  0.5435  0.1951 -0.6496
 2690SOL     OW 8968   3.041   4.167   1.501 -0.8605  0.6076  0.2890
 2690SOL    HW1 8969   3.121   4.107   1.506 -1.1039  0.1948 -0.6462
 2690SOL    HW2 8970   3.047   4.236   1.574 -0.1047  0.0399  0.7801
 2691SOL     OW 8971   6.882   6.204   6.161  0.4058  0.0247 -0.1961
 2691SOL    HW1 8972   6.802   6.230   6.215  0.5335 -0.2585  0.1350
 2691SOL    HW2 8973   6.882   6.254   6.074  1.0062  1.6711  0.7027
 2692SOL     OW 8974   0.216   1.229   2.826  0.2637 -0.5372  0.3064
 2692SOL    HW1 8975   0.271   1.180   2.758  0.5783 -0.4062  0.4606
 2692SOL    HW2 8976   0.264   1.313   2.852  0.6054 -1.0589  1.4045
 2693SOL     OW 8977   0.155   3.425   1.347  0.2604 -0.2252 -0.1637
 2693SOL    HW1 8978   0.154   3.354   1.277 -0.9548  0.3123 -0.7336
 2693SOL    HW2 8979   0.062   3.440   1.381  0.4307  1.2646 -0.2665
 2694SOL     OW 8980   4.152   1.338   3.088  0.5427  0.7318  0.4528
 2694SOL    HW1 8981   4.139   1.251   3.041  1.5088 -0.2500  1.9230
 2694SOL    HW2 8982   4.250   1.359   3.093  0.2790  3.0554 -1.8248
 2695SOL     OW 8983   3.547   2.003   2.137  0.6375 -0.8339 -0.0787
 2695SOL    HW1 8984   3.612   1.936   2.173  1.0126  0.0908  1.0490
 2695SOL    HW2 8985   3.593   2.063   2.072  0.7211 -0.6577  0.1417
 2696SOL     OW 8986   3.197   3.061   5.627 -0.1510 -0.1362  0.1920
 2696SOL    HW1 8987   3.275   3.080   5.567  0.5643  0.5869  1.3255
 2696SOL    HW2 8988   3.177   2.963   5.627  0.9969 -0.3793  0.1895
 2697SOL     OW 8989   1.670   1.365   5.541 -0.2652 -0.3965 -0.1965
 2697SOL    HW1 8990   1.663   1.367   5.641 -0.7900 -1.4231 -0.2003
 2697SOL    HW2 8991   1.764   1.343   5.515 -0.1356 -0.1670  0.0666
 2698SOL     OW 8992   2.194   2.398   6.117 -0.4017 -0.1700 -0.3002
 2698SOL    HW1 8993   2.244   2.342   6.182 -0.4476  1.0467  0.8350
 2698SOL    HW2 8994   2.256   2.464   6.074 -0.8481  0.8623  0.5786
 2699SOL     OW 8995   2.117   4.766   3.181  0.0312 -0.6503  0.4068
 2699SOL    HW1 8996   2.084   4.716   3.101 -0.7244  1.7500 -0.8644
 2699SOL    HW2 8997   2.076   4.728   3.263 -5.2150  1.3349 -0.9464
 2700SOL     OW 8998   2.462   5.850   3.422  0.4233 -0.1847 -0.0456
 2700SOL    HW1 8999   2.426   5.863   3.515 -0.2137  0.0439 -0.3195
 2700SOL    HW2 9000   2.484   5.940   3.382 -0.1223 -0.2182 -0.4324
 2701SOL     OW 9001   6.736   0.391   4.312  0.0536 -0.5233  0.1233
 2701SOL    HW1 9002   6.785   0.456   4.370 -0.0225  0.6091 -1.0426
 2701SOL    HW2 9003   6.751   0.299   4.346  1.7018 -0.0720  0.7388
 2702SOL     OW 9004   5.370   4.337   2.696 -0.6649  0.2351  0.0254
 2702SOL    HW1 9005   5.353   4.421   2.646  0.9163  0.7793  0.3559
 2702SOL    HW2 9006   5.430   4.277   2.643 -0.6142 -0.0598  0.4084
 2703SOL     OW 9007   3.554   2.091   2.738 -0.2256 -0.3245  0.4114
 2703SOL    HW1 9008   3.560   2.111   2.640  0.5689 -0.5895  0.3915
 2703SOL    HW2 9009   3.474   2.136   2.777  0.2024  0.9268 -0.0848
 2704SOL     OW 9010   1.068   0.942   1.184 -1.1448  0.8691  0.0301
 2704SOL    HW1 9011   1.167   0.951   1.192 -1.1855  1.8417 -0.4063
 2704SOL    HW2 9012   1.030   0.917   1.273 -0.1931 -3.1563 -0.5201
 2705SOL     OW 9013   0.170   1.995   2.647  0.3516  0.0011 -0.3880
 2705SOL    HW1 9014   0.178   1.935   2.567 -0.9398  1.9082 -2.0371
 2705SOL    HW2 9015   0.084   2.047   2.642  0.7336  0.9622  1.7174
 2706SOL     OW 9016   5.069   0.759   2.465 -0.0044  0.0414  0.6677
 2706SOL    HW1 9017   5.062   0.845   2.516  0.4183 -0.1885  1.1179
 2706SOL    HW2 9018   5.151   0.762   2.407 -0.2996  0.1675  0.2551
 2707SOL     OW 9019   3.964   0.870   6.393 -0.7464 -0.6942 -0.0739
 2707SOL    HW1 9020   3.929   0.846   6.483 -0.5581 -0.9766 -0.0725
 2707SOL    HW2 9021   3.971   0.969   6.384 -2.6862 -0.5555 -0.5102
 2708SOL     OW 9022   0.790   3.036   6.956 -0.3557 -0.0800  0.3043
 2708SOL    HW1 9023   0.699   3.067   6.929  0.0651 -1.3877 -3.1860
 2708SOL    HW2 9024   0.784   2.946   6.999 -0.7496  0.1810  0.8041
 2709SOL     OW 9025   3.511   1.488   2.508  0.3258  0.2971 -0.4427
 2709SOL    HW1 9026   3.445   1.563   2.501  1.6036  1.4466 -0.3665
 2709SOL    HW2 9027   3.461   1.403   2.527 -1.1222  1.1537 -0.2087
 2710SOL     OW 9028   6.577   4.113   2.403 -0.2082  0.2678  0.2848
 2710SOL    HW1 9029   6.509   4.083   2.336  1.0057  0.8763 -1.2849
 2710SOL    HW2 9030   6.645   4.171   2.358  0.6558  0.7181  2.0693
 2711SOL     OW 9031   1.316   0.803   1.424  0.0971  0.5882 -0.1873
 2711SOL    HW1 9032   1.315   0.903   1.431 -0.4847  0.5501  0.3047
 2711SOL    HW2 9033   1.401   0.774   1.380  1.3181  1.1618  1.6689
 2712SOL     OW 9034   5.222   5.933   0.552  0.3425  0.0116  0.0870
 2712SOL    HW1 9035   5.257   5.840   0.555 -0.6497 -0.3630  0.3265
 2712SOL    HW2 9036   5.140   5.940   0.609 -0.1515  0.7861 -0.6903
 2713SOL     OW 9037   3.820   1.140   6.744 -0.6621 -0.4009 -0.8302
 2713SOL    HW1 9038   3.823   1.175   6.651 -0.2093 -1.9122 -1.4180
 2713SOL    HW2 9039   3.826   1.216   6.809  0.1711  0.5883 -2.0276
 2714SOL     OW 9040   5.187   6.834   6.825 -0.2541  0.4847  0.0661
 2714SOL    HW1 9041   5.178   6.897   6.902 -1.1713  0.4329  0.0129
 2714SOL    HW2 9042   5.213   6.744   6.858  1.5317  0.9734  0.1047
 2715SOL     OW 9043   4.647   1.391   6.910  0.6649  0.1398  0.2366
 2715SOL    HW1 9044   4.654   1.468   6.973  0.5929  0.7299 -0.4695
 2715SOL    HW2 9045   4.561   1.342   6.927 -0.2501  1.3846 -0.6010
 2716SOL     OW 9046   6.598   6.858   1.671  0.2937  0.4210  0.1703
 2716SOL    HW1 9047   6.569   6.777   1.721 -1.1211  0.2876 -0.7991
 2716SOL    HW2 9048   6.697   6.854   1.657  0.4211 -0.5317  1.1668
 2717SOL     OW 9049   0.519   0.594   3.641 -0.4324  0.3168  0.1183
 2717SOL    HW1 9050   0.577   0.673   3.623 -2.7491  2.0287 -0.1505
 2717SOL    HW2 9051   0.577   0.513   3.655  1.9733  1.8853 -0.2372
 2718SOL     OW 9052   0.488   3.452   3.005  0.0120  0.9432 -0.6379
 2718SOL    HW1 9053   0.511   3.379   2.941 -0.2129  1.6043 -1.4875
 2718SOL    HW2 9054   0.572   3.494   3.039  0.1625 -0.0799  0.3161
 2719SOL     OW 9055   3.606   5.045   3.063  0.2896  0.1150 -0.2615
 2719SOL    HW1 9056   3.525   4.989   3.045  1.4586 -1.5145 -0.7086
 2719SOL    HW2 9057   3.595   5.134   3.019 -1.3229 -0.0046 -0.1582
 2720SOL     OW 9058   0.050   0.252   2.940  0.3702  0.0670 -0.4803
 2720SOL    HW1 9059   0.070   0.291   2.850  2.7042  0.0121 -0.0378
 2720SOL    HW2 9060   0.104   0.169   2.953 -0.8490 -0.6024  0.5264
 2721SOL     OW 9061   5.819   5.503   4.098 -0.4250  0.5014  0.3406
 2721SOL    HW1 9062   5.822   5.437   4.023 -0.4107  0.4054  0.4264
 2721SOL    HW2 9063   5.731   5.496   4.146 -0.2536  0.2515  0.6161
 2722SOL     OW 9064   0.409   0.342   3.287 -0.4563 -0.0612 -0.6535
 2722SOL    HW1 9065   0.351   0.340   3.369  0.9930  0.3190  0.4156
 2722SOL    HW2 9066   0.463   0.426   3.286  2.3759 -1.7517  0.0653
 2723SOL     OW 9067   3.550   2.310   5.869  0.2701  0.5351  0.0296
 2723SOL    HW1 9068   3.610   2.380   5.908  1.4571 -1.3617  1.8034
 2723SOL    HW2 9069   3.552   2.316   5.769  1.1127  2.3538  0.1185
 2724SOL     OW 9070   4.698   5.697   6.248  0.2203 -0.2663 -0.1430
 2724SOL    HW1 9071   4.683   5.632   6.323 -0.4405 -0.2368 -0.2476
 2724SOL    HW2 9072   4.793   5.727   6.250  0.1616 -0.1088  0.8191
 2725SOL     OW 9073   2.261   4.158   1.906  0.5454  0.1791  0.2406
 2725SOL    HW1 9074   2.171   4.200   1.898  0.3484 -0.2575  0.1193
 2725SOL    HW2 9075   2.252   4.068   1.950  0.8326 -0.1573 -0.3661
 2726SOL     OW 9076   4.361   4.571   1.987 -0.2974  0.3364 -0.5097
 2726SOL    HW1 9077   4.458   4.562   2.011 -0.4241 -1.9188 -0.6624
 2726SOL    HW2 9078   4.350   4.559   1.889 -0.8090 -0.1201 -0.3987
 2727SOL     OW 9079   3.531   4.946   4.489  0.0108  0.1550 -0.1840
 2727SOL    HW1 9080   3.524   5.039   4.454 -1.7223  0.0504 -0.2357
 2727SOL    HW2 9081   3.444   4.920   4.532  0.1744 -1.7232 -0.8835
 2728SOL     OW 9082   3.640   6.207   3.271 -0.1466  0.9551  0.0897
 2728SOL    HW1 9083   3.706   6.280   3.289  2.0218 -0.7112 -0.6792
 2728SOL    HW2 9084   3.642   6.183   3.174 -0.4242 -0.4892  0.4188
 2729SOL     OW 9085   5.710   5.984   1.815 -0.1846  0.0835  0.5299
 2729SOL    HW1 9086   5.640   5.951   1.752  0.5150 -1.2432  0.4177
 2729SOL    HW2 9087   5.685   6.076   1.847 -0.5569  0.8050 -1.6586
 2730SOL     OW 9088   0.549   3.404   1.240 -0.4843 -0.5881  0.1741
 2730SOL    HW1 9089   0.540   3.504   1.245  0.1146 -0.2155 -3.5443
 2730SOL    HW2 9090   0.646   3.379   1.249 -0.2403 -0.4885 -1.8199
 2731SOL     OW 9091   0.608   3.688   5.731 -0.5349 -0.2731 -0.6410
 2731SOL    HW1 9092   0.632   3.751   5.657 -1.3838  2.3600  1.1409
 2731SOL    HW2 9093   0.509   3.688   5.743 -0.3438  1.0368  1.7045
 2732SOL     OW 9094   0.419   4.482   4.943  0.3362  0.2608 -0.6614
 2732SOL    HW1 9095   0.466   4.532   4.869  2.3129 -1.0906 -0.4103
 2732SOL    HW2 9096   0.487   4.433   4.997 -1.2211  0.0634  1.2079
 2733SOL     OW 9097   2.438   0.917   6.328  0.6022 -0.0796  0.1121
 2733SOL    HW1 9098   2.458   1.013   6.306  1.0266 -0.2661 -0.3256
 2733SOL    HW2 9099   2.379   0.879   6.257 -3.1768  1.0471  2.3632
 2734SOL     OW 9100   4.550   6.265   3.477  0.6816 -0.3069  0.3223
 2734SOL    HW1 9101   4.579   6.182   3.429 -0.8075 -1.5898  1.5434
 2734SOL    HW2 9102   4.631   6.319   3.501  1.5885 -0.5169 -1.9497
 2735SOL     OW 9103   2.701   5.902   6.721  0.3339 -0.0624 -0.4394
 2735SOL    HW1 9104   2.788   5.947   6.739 -0.3750  1.0979  0.1906
 2735SOL    HW2 9105   2.649   5.893   6.806 -0.2052 -0.6568 -0.8174
 2736SOL     OW 9106   3.649   0.871   5.889  0.0399  0.0280 -0.0409
 2736SOL    HW1 9107   3.715   0.837   5.955 -0.6721 -0.9906  0.1775
 2736SOL    HW2 9108   3.652   0.814   5.806  1.5244  1.7939 -1.2839
 2737SOL     OW 9109   3.320   3.818   3.776 -0.2901 -0.4971  0.2888
 2737SOL    HW1 9110   3.265   3.749   3.823  0.2704 -1.2206 -0.0973
 2737SOL    HW2 9111   3.386   3.858   3.840  0.3803 -1.3830  0.1676
 2738SOL     OW 9112   5.220   4.330   3.608 -0.0945  0.4553  0.0205
 2738SOL    HW1 9113   5.181   4.254   3.556  0.1579  0.7857 -0.6627
 2738SOL    HW2 9114   5.279   4.385   3.549 -0.2345  1.1626  0.5125
 2739SOL     OW 9115   5.011   4.854   6.982 -0.2906  0.3327  0.5053
 2739SOL    HW1 9116   4.927   4.837   7.033 -1.0884  1.1661 -0.4958
 2739SOL    HW2 9117   5.064   4.925   7.027 -0.5800  0.4699  0.6313
 2740SOL     OW 9118   5.583   2.562   4.682 -0.1384  0.4719 -0.5213
 2740SOL    HW1 9119   5.542   2.474   4.707  0.2512  0.5447  0.4054
 2740SOL    HW2 9120   5.598   2.565   4.583  0.3076 -0.7097 -0.5077
 2741SOL     OW 9121   2.250   2.562   6.384 -0.2539 -0.2815 -0.4558
 2741SOL    HW1 9122   2.206   2.607   6.307  0.3695  0.3295 -0.4615
 2741SOL    HW2 9123   2.284   2.472   6.355  0.9372  0.3847 -1.2059
 2742SOL     OW 9124   4.331   5.357   4.263 -0.4903 -0.1463 -0.1566
 2742SOL    HW1 9125   4.271   5.406   4.200  1.7382 -0.1006 -2.4135
 2742SOL    HW2 9126   4.338   5.408   4.349 -1.2449  1.4373 -0.9908
 2743SOL     OW 9127   4.873   2.578   6.396  0.2599 -0.2747 -0.2241
 2743SOL    HW1 9128   4.858   2.568   6.494  1.2922 -0.7853 -0.1037
 2743SOL    HW2 9129   4.899   2.672   6.375 -0.3330 -0.0725 -0.0648
 2744SOL     OW 9130   4.911   1.256   1.865 -0.0642  0.4387 -0.5404
 2744SOL    HW1 9131   4.893   1.351   1.893 -2.9284  0.1779 -1.1935
 2744SOL    HW2 9132   4.943   1.204   1.943  1.7790  1.9448 -0.2115
 2745SOL     OW 9133   2.991   5.746   2.185  0.5320 -0.0092 -0.5395
 2745SOL    HW1 9134   2.936   5.713   2.263  2.0165 -0.7336  0.2347
 2745SOL    HW2 9135   2.942   5.820   2.139 -0.2986  0.5686  1.1995
 2746SOL     OW 9136   6.259   3.233   0.483 -0.3953 -0.6619 -0.1079
 2746SOL    HW1 9137   6.353   3.202   0.477 -0.5144 -1.3130  1.1323
 2746SOL    HW2 9138   6.255   3.320   0.533 -0.3689 -0.1411 -0.9892
 2747SOL     OW 9139   6.055   6.299   2.865  0.4037  0.4561 -0.4482
 2747SOL    HW1 9140   6.020   6.207   2.883 -1.8979  1.3214 -0.1669
 2747SOL    HW2 9141   6.113   6.328   2.941  0.7235 -0.5239 -0.2932
 2748SOL     OW 9142   5.932   6.930   5.858 -0.4394  0.1782 -0.4947
 2748SOL    HW1 9143   5.997   6.940   5.933 -0.7533  1.7235 -0.3929
 2748SOL    HW2 9144   5.946   6.842   5.813  0.8044 -0.0912  0.3722
 2749SOL     OW 9145   5.795   5.765   3.945  0.3354  0.5376  0.6285
 2749SOL    HW1 9146   5.819   5.688   4.005 -0.9592  0.2756  0.8341
 2749SOL    HW2 9147   5.761   5.731   3.858 -2.5601  0.7564  1.5885
 2750SOL     OW 9148   1.565   0.736   6.090  0.0028  0.7015 -0.1873
 2750SOL    HW1 9149   1.653   0.765   6.053 -0.9859  0.9820 -2.4538
 2750SOL    HW2 9150   1.491   0.774   6.035 -1.4982 -1.1109  0.4706
 2751SOL     OW 9151   1.693   0.374   1.803 -0.4263 -0.0485 -0.2519
 2751SOL    HW1 9152   1.756   0.448   1.826 -0.3829 -0.8270  2.3599
 2751SOL    HW2 9153   1.737   0.312   1.738  1.1896 -0.0720  0.8004
 2752SOL     OW 9154   5.978   1.755   5.045  0.0440  0.0462 -0.4711
 2752SOL    HW1 9155   5.943   1.837   5.000 -1.1114 -0.1205  0.0876
 2752SOL    HW2 9156   5.917   1.678   5.027  0.5334 -0.4431 -0.0941
 2753SOL     OW 9157   1.994   5.134   4.238 -0.1014  0.2864  0.1181
 2753SOL    HW1 9158   1.902   5.095   4.244 -0.7501  1.9200  1.5143
 2753SOL    HW2 9159   2.056   5.083   4.297 -0.7190  0.7331  1.1716
 2754SOL     OW 9160   0.236   0.205   1.525  0.0949  0.5493 -0.5525
 2754SOL    HW1 9161   0.254   0.118   1.478  1.6786  1.2698 -1.3576
 2754SOL    HW2 9162   0.227   0.278   1.458 -1.7305  0.9747  0.0905
 2755SOL     OW 9163   4.275   7.016   2.408 -0.4476  0.3127  0.0860
 2755SOL    HW1 9164   4.269   6.923   2.372  0.5481  0.4797 -0.5529
 2755SOL    HW2 9165   4.369   7.034   2.439  0.0509  1.9016 -2.0846
 2756SOL     OW 9166   0.199   1.866   4.967 -0.0049  0.6069  0.1656
 2756SOL    HW1 9167   0.146   1.930   4.911 -1.3694 -0.2705  0.4083
 2756SOL    HW2 9168   0.213   1.782   4.915  0.5572  0.5739  0.3718
 2757SOL     OW 9169   6.496   4.944   4.854  0.0700 -0.3991  0.6089
 2757SOL    HW1 9170   6.442   4.910   4.777  0.2699 -0.7164  0.6124
 2757SOL    HW2 9171   6.434   4.988   4.919 -0.7288 -3.6853  2.2853
 2758SOL     OW 9172   6.294   6.852   1.886 -0.5078  0.0304  0.0191
 2758SOL    HW1 9173   6.347   6.820   1.808  0.4318  1.1903  0.1524
 2758SOL    HW2 9174   6.325   6.805   1.969 -0.8603 -0.5184 -0.1559
 2759SOL     OW 9175   4.072   3.719   4.518 -0.0888 -0.4101  0.1371
 2759SOL    HW1 9176   4.090   3.720   4.420 -2.6064 -2.3274 -0.4620
 2759SOL    HW2 9177   4.084   3.626   4.553 -0.6664 -0.0543  1.3470
 2760SOL     OW 9178   5.115   5.403   2.329  0.0682 -0.0724  0.5792
 2760SOL    HW1 9179   5.084   5.347   2.406  0.0452  0.0920  0.6889
 2760SOL    HW2 9180   5.190   5.356   2.282  0.3595  0.0098  0.9487
 2761SOL     OW 9181   2.054   2.615   2.165  0.0737 -0.4253 -0.3433
 2761SOL    HW1 9182   2.135   2.662   2.131 -0.4840  0.2539 -0.7543
 2761SOL    HW2 9183   1.984   2.613   2.093 -0.7054  0.0361  0.3869
 2762SOL     OW 9184   4.408   0.985   1.943  0.1955 -0.1060 -0.1739
 2762SOL    HW1 9185   4.443   0.914   2.003  0.4405 -0.5498 -0.8330
 2762SOL    HW2 9186   4.326   0.953   1.897  0.3557  0.0016 -0.5412
 2763SOL     OW 9187   3.867   1.453   1.516 -0.1801  0.1441 -0.3745
 2763SOL    HW1 9188   3.952   1.416   1.478  0.4892  1.6154 -0.3469
 2763SOL    HW2 9189   3.803   1.472   1.442  0.6984  1.9429 -0.7245
 2764SOL     OW 9190   6.965   0.890   1.207  0.3714 -0.3043 -0.1064
 2764SOL    HW1 9191   6.985   0.987   1.220  1.5304 -0.8475  3.0141
 2764SOL    HW2 9192   6.866   0.877   1.200  0.2128  1.0841 -0.9605
 2765SOL     OW 9193   6.659   0.806   6.901 -0.1933 -0.2906 -0.8326
 2765SOL    HW1 9194   6.578   0.852   6.864 -0.9626 -2.5340 -2.1051
 2765SOL    HW2 9195   6.717   0.774   6.826  1.0728 -0.1503  0.0496
 2766SOL     OW 9196   6.238   0.317   1.397  0.3440 -0.1422  0.1350
 2766SOL    HW1 9197   6.163   0.344   1.458  0.4269  0.6587 -0.1043
 2766SOL    HW2 9198   6.260   0.393   1.336  0.5265 -0.7907 -0.6349
 2767SOL     OW 9199   5.343   5.975   5.155 -0.1474  0.2556  0.7809
 2767SOL    HW1 9200   5.332   6.003   5.060 -0.5865  0.0401  0.7650
 2767SOL    HW2 9201   5.440   5.958   5.174 -0.0267  0.5729  0.4515
 2768SOL     OW 9202   3.752   1.820   2.239 -0.0273  0.5579 -0.1959
 2768SOL    HW1 9203   3.733   1.722   2.245 -2.7547  1.0138 -0.1753
 2768SOL    HW2 9204   3.787   1.852   2.327 -0.0879 -0.2113  0.1180
 2769SOL     OW 9205   7.000   6.379   6.494 -0.3781  0.8152 -0.1252
 2769SOL    HW1 9206   6.945   6.299   6.518  0.4248  0.3832  0.2973
 2769SOL    HW2 9207   7.030   6.425   6.578  0.5074  0.6308 -0.3336
 2770SOL     OW 9208   2.053   6.489   0.375 -0.0382 -0.4684  0.1229
 2770SOL    HW1 9209   2.089   6.557   0.438  0.1527  0.4299 -0.9233
 2770SOL    HW2 9210   2.106   6.404   0.383 -0.3161 -0.5341  1.4716
 2771SOL     OW 9211   3.253   5.859   3.293 -0.0194 -0.1924 -0.1171
 2771SOL    HW1 9212   3.183   5.913   3.246 -1.5681 -2.1438 -0.2135
 2771SOL    HW2 9213   3.327   5.839   3.229  0.1656  1.0413 -0.3192
 2772SOL     OW 9214   4.921   0.266   2.760 -0.5001 -0.4970  0.1626
 2772SOL    HW1 9215   4.979   0.308   2.830 -0.0796 -1.0907  0.1799
 2772SOL    HW2 9216   4.968   0.186   2.722 -0.1458  0.5400 -1.6923
 2773SOL     OW 9217   2.799   1.166   6.730 -0.1029  0.0133  0.1647
 2773SOL    HW1 9218   2.740   1.104   6.782 -1.1369  0.1495 -0.8105
 2773SOL    HW2 9219   2.852   1.222   6.794 -0.9064 -0.2352  1.0750
 2774SOL     OW 9220   0.357   6.400   2.635 -0.0316  0.3938  0.1095
 2774SOL    HW1 9221   0.327   6.386   2.541 -1.2736  1.1809  0.3565
 2774SOL    HW2 9222   0.372   6.312   2.679  1.0022  0.0273 -0.9433
 2775SOL     OW 9223   5.711   2.157   4.578 -0.2720 -0.1713  0.2213
 2775SOL    HW1 9224   5.690   2.175   4.482 -0.1784  1.2332  0.4426
 2775SOL    HW2 9225   5.708   2.058   4.595  2.0289 -0.6880 -1.7721
 2776SOL     OW 9226   1.023   2.124   4.798  0.4796 -0.3177  0.8495
 2776SOL    HW1 9227   1.102   2.183   4.781  0.5271 -0.8806 -1.1508
 2776SOL    HW2 9228   1.000   2.075   4.714 -1.7500 -0.4724  1.4926
 2777SOL     OW 9229   0.318   2.864   1.750  0.5954 -0.2781 -0.0842
 2777SOL    HW1 9230   0.383   2.937   1.770  1.6975 -0.8139 -1.5211
 2777SOL    HW2 9231   0.362   2.775   1.762  0.3544 -0.6457 -1.6846
 2778SOL     OW 9232   1.313   6.013   4.593 -0.2792  0.4239  0.3689
 2778SOL    HW1 9233   1.391   6.075   4.603 -0.4047  0.9089 -1.3236
 2778SOL    HW2 9234   1.231   6.065   4.568 -0.1234 -0.4490 -2.3402
 2779SOL     OW 9235   5.154   3.275   3.500 -0.2494  0.0490 -0.4054
 2779SOL    HW1 9236   5.234   3.312   3.548 -0.3409 -1.3097  0.8718
 2779SOL    HW2 9237   5.176   3.265   3.403  1.6190 -1.4339  0.1062
 2780SOL     OW 9238   6.403   0.453   4.732  0.3735 -0.1446  0.4780
 2780SOL    HW1 9239   6.493   0.482   4.700  0.9946 -2.2389  0.2032
 2780SOL    HW2 9240   6.410   0.364   4.776 -1.6001 -0.4419  0.2843
 2781SOL     OW 9241   6.348   0.339   0.747  0.0751 -0.6761 -0.0284
 2781SOL    HW1 9242   6.298   0.406   0.801  1.2176  0.1241  0.0600
 2781SOL    HW2 9243   6.346   0.364   0.650  0.6362 -0.4246  0.0234
 2782SOL     OW 9244   6.031   5.741   4.767  0.2016  0.0492  0.1797
 2782SOL    HW1 9245   6.068   5.671   4.706  0.5026  1.3741 -1.1829
 2782SOL    HW2 9246   5.944   5.708   4.805  1.5748 -2.1361  1.6610
 2783SOL     OW 9247   6.735   0.204   1.371  0.5348 -0.0612  0.0408
 2783SOL    HW1 9248   6.762   0.166   1.283  0.3756  0.2366 -0.1373
 2783SOL    HW2 9249   6.657   0.152   1.408  1.8064 -1.4149  0.9192
 2784SOL     OW 9250   1.297   2.017   1.526  0.0092  0.0989 -0.5930
 2784SOL    HW1 9251   1.341   2.015   1.436  1.5442 -1.3008  0.1327
 2784SOL    HW2 9252   1.291   1.925   1.562 -2.4580  0.3913 -0.0652
 2785SOL     OW 9253   4.927   2.328   3.236  0.1752  0.4199  0.0388
 2785SOL    HW1 9254   4.867   2.350   3.314  1.1224  0.5639  0.7499
 2785SOL    HW2 9255   4.977   2.411   3.209  0.5523  0.1483 -0.0958
 2786SOL     OW 9256   6.366   6.255   0.767  0.0182 -0.3710 -0.5322
 2786SOL    HW1 9257   6.440   6.306   0.725  1.1219 -0.2473  1.4555
 2786SOL    HW2 9258   6.325   6.194   0.699  1.9596 -0.4775 -1.6706
 2787SOL     OW 9259   1.703   6.480   0.154 -1.0174 -0.0850 -0.7117
 2787SOL    HW1 9260   1.743   6.410   0.214 -0.3199  0.3309 -0.6829
 2787SOL    HW2 9261   1.625   6.522   0.201 -1.6990 -1.1127 -0.8926
 2788SOL     OW 9262   2.303   5.249   6.973 -0.2100  0.9967 -0.1093
 2788SOL    HW1 9263   2.316   5.149   6.968 -2.2895  0.7321 -1.4334
 2788SOL    HW2 9264   2.357   5.285   7.048  0.0019 -1.2425  0.9153
 2789SOL     OW 9265   2.960   1.652   4.254 -0.2959  0.7436 -0.1752
 2789SOL    HW1 9266   2.864   1.676   4.246 -0.5540  0.2466  1.0909
 2789SOL    HW2 9267   2.969   1.556   4.280  0.5377  0.8083 -0.1748
 2790SOL     OW 9268   0.893   4.241   1.588  0.5785 -0.3576  0.2471
 2790SOL    HW1 9269   0.877   4.331   1.548 -0.4408 -0.5685  0.1752
 2790SOL    HW2 9270   0.945   4.252   1.673 -0.0006  0.3478  0.5224
 2791SOL     OW 9271   0.986   4.924   5.058 -0.2520 -0.4047  0.4577
 2791SOL    HW1 9272   0.946   4.900   5.146  0.6774  3.7981  2.2894
 2791SOL    HW2 9273   1.079   4.888   5.053 -0.3454 -0.7613  1.1657
 2792SOL     OW 9274   1.875   3.516   0.388 -0.5945 -0.2429 -0.2897
 2792SOL    HW1 9275   1.937   3.479   0.457  0.4907 -0.0964 -1.1569
 2792SOL    HW2 9276   1.868   3.615   0.399 -0.1139 -0.1664 -0.6048
 2793SOL     OW 9277   4.079   3.807   4.244 -0.3476 -0.0634  0.0639
 2793SOL    HW1 9278   4.137   3.829   4.165 -1.1514  0.6836 -0.3319
 2793SOL    HW2 9279   4.003   3.871   4.248 -1.1906 -1.0651  0.5344
 2794SOL     OW 9280   1.236   0.604   6.647 -1.1988 -0.0368 -0.1482
 2794SOL    HW1 9281   1.150   0.654   6.662 -0.7347  0.5615  0.5848
 2794SOL    HW2 9282   1.218   0.505   6.649 -1.5424  0.0343  2.2123
 2795SOL     OW 9283   0.807   0.436   6.233  0.1172  0.3625 -0.1547
 2795SOL    HW1 9284   0.715   0.444   6.195  0.2272  3.0232 -0.0393
 2795SOL    HW2 9285   0.844   0.346   6.211 -1.9411 -0.2391 -1.4588
 2796SOL     OW 9286   2.643   0.520   6.112  0.3586  0.2958 -0.1504
 2796SOL    HW1 9287   2.717   0.550   6.051 -1.4219  1.5131 -1.8526
 2796SOL    HW2 9288   2.644   0.576   6.195  1.0781  0.5893 -0.3444
 2797SOL     OW 9289   4.722   3.542   6.535 -0.0720  0.0955 -0.8596
 2797SOL    HW1 9290   4.795   3.610   6.531 -0.5072  0.7121  0.8315
 2797SOL    HW2 9291   4.728   3.482   6.455  1.6281  0.7767 -1.2908
 2798SOL     OW 9292   5.021   2.565   3.122  0.2080  0.1622  0.6697
 2798SOL    HW1 9293   4.966   2.586   3.042  0.6266  0.5691  0.4838
 2798SOL    HW2 9294   5.096   2.504   3.095  1.1321  1.3428  0.4656
 2799SOL     OW 9295   3.447   0.653   3.164  0.1045  0.5441  0.3903
 2799SOL    HW1 9296   3.529   0.658   3.221 -0.1120  2.3250  0.6153
 2799SOL    HW2 9297   3.379   0.596   3.208  1.0435 -0.5985  0.4145
 2800SOL     OW 9298   3.631   1.623   0.750 -0.0256  0.0238  0.5192
 2800SOL    HW1 9299   3.626   1.610   0.849 -3.5854 -0.1296  0.4427
 2800SOL    HW2 9300   3.558   1.684   0.720  1.0318  0.1826 -2.0366
 2801SOL     OW 9301   1.251   5.218   3.061 -0.1765  0.5634  0.0164
 2801SOL    HW1 9302   1.211   5.201   2.971  1.6150 -1.4157 -0.4918
 2801SOL    HW2 9303   1.246   5.134   3.116  1.5526  0.7861  0.5823
 2802SOL     OW 9304   1.072   5.358   4.383 -0.0974  0.9839 -0.0093
 2802SOL    HW1 9305   0.986   5.308   4.386  0.6420 -0.3691 -0.5486
 2802SOL    HW2 9306   1.072   5.421   4.306 -2.0464  3.8221  2.1152
 2803SOL     OW 9307   2.720   2.459   0.577  0.4150 -0.0829  0.4157
 2803SOL    HW1 9308   2.748   2.408   0.496 -0.2460 -0.1357  0.2116
 2803SOL    HW2 9309   2.725   2.557   0.558 -0.4936 -0.1025  0.0387
 2804SOL     OW 9310   6.777   2.309   3.984 -0.1487  0.5113 -0.1842
 2804SOL    HW1 9311   6.766   2.270   4.076  0.9853 -1.7403 -0.9104
 2804SOL    HW2 9312   6.697   2.285   3.929 -0.7816  1.7742  0.1570
 2805SOL     OW 9313   2.783   5.468   5.425 -0.5010 -0.6075 -0.1490
 2805SOL    HW1 9314   2.852   5.471   5.352 -1.3060 -1.1468 -0.9636
 2805SOL    HW2 9315   2.699   5.510   5.392 -0.1543  1.4405  1.3473
 2806SOL     OW 9316   2.111   4.516   4.931 -0.6548 -0.0036  0.1026
 2806SOL    HW1 9317   2.125   4.417   4.931 -0.3738  0.0191 -0.9475
 2806SOL    HW2 9318   2.166   4.557   4.858  0.2087  1.0895  1.3254
 2807SOL     OW 9319   4.227   1.286   4.356  0.4036  0.1608 -0.6262
 2807SOL    HW1 9320   4.314   1.269   4.400  1.7378  1.9642 -2.3506
 2807SOL    HW2 9321   4.203   1.209   4.297  0.7562 -0.4027 -0.0352
 2808SOL     OW 9322   0.123   4.436   0.449 -0.4482 -0.5063 -0.2603
 2808SOL    HW1 9323   0.105   4.514   0.508  1.7214 -0.5187  0.5266
 2808SOL    HW2 9324   0.174   4.465   0.368 -2.1208 -0.7195 -1.4482
 2809SOL     OW 9325   6.498   6.760   0.319  0.3404 -0.3778  0.3436
 2809SOL    HW1 9326   6.581   6.795   0.363  0.2166 -0.1460  0.3967
 2809SOL    HW2 9327   6.463   6.682   0.371 -0.0018  0.1120  0.8734
 2810SOL     OW 9328   2.839   6.167   2.558 -0.3115 -0.3515 -0.2703
 2810SOL    HW1 9329   2.766   6.226   2.594  0.1283 -1.5366  2.8447
 2810SOL    HW2 9330   2.924   6.185   2.608  1.1010 -0.3852 -2.5053
 2811SOL     OW 9331   6.834   6.452   5.613 -0.0024 -0.3927  0.0682
 2811SOL    HW1 9332   6.807   6.442   5.709  0.7785  1.7990  0.5785
 2811SOL    HW2 9333   6.793   6.536   5.576  0.2522 -0.8630 -1.3209
 2812SOL     OW 9334   2.982   6.789   0.009  0.5121 -0.0779 -0.2002
 2812SOL    HW1 9335   2.935   6.810  -0.076 -0.4134  0.2923  0.3917
 2812SOL    HW2 9336   3.075   6.827   0.006  0.2302  0.5903 -0.7478
 2813SOL     OW 9337   4.168   1.353   2.191 -0.3646  0.5460  0.1946
 2813SOL    HW1 9338   4.080   1.396   2.213 -0.5021 -0.4491  1.6887
 2813SOL    HW2 9339   4.156   1.288   2.117 -1.5768 -1.7981  2.3195
 2814SOL     OW 9340   2.068   4.685   5.437 -0.8977  0.7825 -0.0758
 2814SOL    HW1 9341   1.969   4.678   5.444 -0.7320 -2.5077  0.4122
 2814SOL    HW2 9342   2.098   4.652   5.348 -0.2412  2.3492 -0.4615
 2815SOL     OW 9343   6.844   0.204   6.593  0.6672 -1.2730  0.4203
 2815SOL    HW1 9344   6.900   0.283   6.571 -1.6407  0.8897  1.7483
 2815SOL    HW2 9345   6.805   0.166   6.510 -0.3670  0.7812 -0.1035
 2816SOL     OW 9346   6.754   6.687   5.501 -0.7916  0.3015  0.8537
 2816SOL    HW1 9347   6.824   6.709   5.433 -0.3924 -0.9445  0.8337
 2816SOL    HW2 9348   6.666   6.722   5.471 -1.6178 -3.8540 -2.6750
 2817SOL     OW 9349   2.473   6.216   1.652 -0.3577 -0.8925 -0.1298
 2817SOL    HW1 9350   2.569   6.230   1.674 -0.3743 -2.3469  0.9973
 2817SOL    HW2 9351   2.457   6.240   1.556  1.2391 -1.1796 -0.4935
 2818SOL     OW 9352   0.703   6.333   0.590 -0.8201  0.0521  0.1597
 2818SOL    HW1 9353   0.760   6.259   0.554 -1.0998  0.7638 -1.8503
 2818SOL    HW2 9354   0.761   6.405   0.628 -0.4474 -0.0376 -0.2325
 2819SOL     OW 9355   5.126   0.474   5.349  0.5414  0.5594 -0.1902
 2819SOL    HW1 9356   5.122   0.504   5.254  1.3888  0.7359 -0.1773
 2819SOL    HW2 9357   5.105   0.376   5.354 -0.4393  0.7463 -0.4366
 2820SOL     OW 9358   0.985   0.718   0.675 -0.5795 -0.0884  0.0223
 2820SOL    HW1 9359   0.983   0.817   0.658 -0.5854 -0.0296  0.3677
 2820SOL    HW2 9360   0.958   0.700   0.769  0.8426 -0.3120  0.4124
 2821SOL     OW 9361   3.127   1.638   6.906  0.0728 -0.0473 -0.2895
 2821SOL    HW1 9362   3.224   1.658   6.919  0.0648  0.8468 -1.4216
 2821SOL    HW2 9363   3.075   1.666   6.987  0.5932  0.8003 -0.2406
 2822SOL     OW 9364   3.726   4.901   2.172  0.1388 -0.1908 -0.0101
 2822SOL    HW1 9365   3.632   4.925   2.196 -0.1682 -0.8034 -0.5545
 2822SOL    HW2 9366   3.725   4.839   2.093  1.0104 -0.0155 -0.1692
 2823SOL     OW 9367   0.176   4.800   4.022 -0.2147 -0.2832 -0.0897
 2823SOL    HW1 9368   0.232   4.740   3.964  0.5436  1.0140 -0.7241
 2823SOL    HW2 9369   0.080   4.770   4.016 -0.2563  0.0829 -2.4271
 2824SOL     OW 9370   0.705   5.053   3.963 -0.0850  0.0141  0.1190
 2824SOL    HW1 9371   0.733   5.052   3.866  1.2074  0.7789  0.4513
 2824SOL    HW2 9372   0.652   5.135   3.981 -3.0494 -1.6089 -0.5922
 2825SOL     OW 9373   3.963   1.702   3.918 -0.3009 -0.9784  0.2754
 2825SOL    HW1 9374   4.004   1.627   3.866  2.0232 -0.1420  0.7955
 2825SOL    HW2 9375   4.032   1.771   3.938 -1.9943  0.5392  1.2570
 2826SOL     OW 9376   2.843   4.198   5.878 -0.4832 -0.1208 -0.0985
 2826SOL    HW1 9377   2.780   4.232   5.809 -0.3783  0.7584  0.2284
 2826SOL    HW2 9378   2.795   4.188   5.965 -0.1635  0.6277  0.1707
 2827SOL     OW 9379   5.120   2.673   1.565 -0.0202  0.5870 -0.2192
 2827SOL    HW1 9380   5.143   2.755   1.514  3.0648 -0.0150  0.0210
 2827SOL    HW2 9381   5.201   2.615   1.575 -1.8212 -2.0399  0.4961
 2828SOL     OW 9382   2.650   4.340   5.408 -0.0068 -0.3933 -0.0205
 2828SOL    HW1 9383   2.625   4.432   5.379  0.4465 -0.2809 -0.0653
 2828SOL    HW2 9384   2.594   4.273   5.358 -0.5246 -0.1390  0.2089
 2829SOL     OW 9385   2.067   3.785   0.888  0.6200 -0.3000  0.0057
 2829SOL    HW1 9386   2.090   3.860   0.826 -1.2335 -0.9732 -1.6344
 2829SOL    HW2 9387   2.096   3.808   0.981  2.9195  1.0373 -0.9572
 2830SOL     OW 9388   0.932   5.338   3.045  0.0488  0.2826  0.3984
 2830SOL    HW1 9389   0.943   5.244   3.078 -0.7461  0.3440  0.8856
 2830SOL    HW2 9390   0.915   5.337   2.946  1.5209  0.0271  0.1366
 2831SOL     OW 9391   6.053   2.134   0.012  0.3873 -0.2962 -0.2624
 2831SOL    HW1 9392   6.112   2.189   0.072  0.2708  0.5110 -0.8726
 2831SOL    HW2 9393   5.957   2.155   0.031  0.3559  0.1521 -0.9022
 2832SOL     OW 9394   0.977   4.004   2.389 -0.1498 -0.3091 -0.0728
 2832SOL    HW1 9395   1.046   4.009   2.461 -2.3434  0.6656  2.1323
 2832SOL    HW2 9396   1.007   4.057   2.310  1.2430  0.7937  1.1437
 2833SOL     OW 9397   6.200   0.915   2.261 -0.4387 -0.5162 -0.0594
 2833SOL    HW1 9398   6.124   0.975   2.237 -0.0640 -0.0549 -0.1238
 2833SOL    HW2 9399   6.168   0.821   2.270 -0.8145 -0.5122 -1.1896
 2834SOL     OW 9400   1.987   0.226   4.900  0.3682  0.4887 -0.0290
 2834SOL    HW1 9401   2.010   0.186   4.812  2.0140  0.5950  0.3335
 2834SOL    HW2 9402   1.973   0.325   4.890  1.6855  0.6914  0.0070
 2835SOL     OW 9403   6.101   1.823   6.677 -0.3153  0.1814  0.2236
 2835SOL    HW1 9404   6.173   1.814   6.746 -0.2297 -0.2163  0.0897
 2835SOL    HW2 9405   6.124   1.898   6.614  0.1437 -0.1405 -0.0025
 2836SOL     OW 9406   3.224   4.762   1.605 -0.0301  0.1336 -0.8334
 2836SOL    HW1 9407   3.171   4.740   1.686 -1.5585 -0.8133 -2.0325
 2836SOL    HW2 9408   3.185   4.842   1.560  1.8902  1.7947  0.2515
 2837SOL     OW 9409   4.620   5.004   6.723  0.1410  0.0450 -0.1945
 2837SOL    HW1 9410   4.562   5.044   6.794 -0.3212  1.8745 -1.5273
 2837SOL    HW2 9411   4.714   4.999   6.756  0.1143  1.8235  0.2255
 2838SOL     OW 9412   0.411   3.963   6.676 -0.1006  0.7019  0.2965
 2838SOL    HW1 9413   0.327   4.012   6.698  0.1411  1.5763 -0.6776
 2838SOL    HW2 9414   0.403   3.868   6.707 -2.1739  0.2593 -1.3613
 2839SOL     OW 9415   4.465   2.785   0.218  0.0402  0.4174  0.5685
 2839SOL    HW1 9416   4.391   2.782   0.151  0.1424  2.7630  0.2815
 2839SOL    HW2 9417   4.550   2.753   0.175 -0.0506  1.2198 -0.2277
 2840SOL     OW 9418   6.628   6.430   5.264 -0.2800 -0.0919  0.1807
 2840SOL    HW1 9419   6.625   6.525   5.234  1.6938 -0.5031 -1.5369
 2840SOL    HW2 9420   6.571   6.374   5.203 -1.7730 -0.0002  1.4354
 2841SOL     OW 9421   5.641   2.501   4.357  0.2613 -0.0700  0.3485
 2841SOL    HW1 9422   5.733   2.511   4.317 -0.6332  1.0104 -1.5618
 2841SOL    HW2 9423   5.578   2.563   4.311 -1.7942 -1.9578  0.4484
 2842SOL     OW 9424   1.333   6.062   2.450  0.2203 -0.0167 -0.0746
 2842SOL    HW1 9425   1.409   6.077   2.386  1.3747  1.4434  1.5379
 2842SOL    HW2 9426   1.363   6.002   2.524 -0.6333 -0.4957 -0.1057
 2843SOL     OW 9427   1.414   2.280   2.440 -0.0181  0.7354  0.7229
 2843SOL    HW1 9428   1.398   2.182   2.431 -0.8930  0.9136  0.2623
 2843SOL    HW2 9429   1.354   2.330   2.378  1.3708  1.5083 -0.0330
 2844SOL     OW 9430   4.836   5.645   1.526 -0.3695 -0.1933 -0.3189
 2844SOL    HW1 9431   4.832   5.736   1.486 -0.7474  0.8734  1.9997
 2844SOL    HW2 9432   4.917   5.597   1.492  0.3783  1.3699 -0.8246
 2845SOL     OW 9433   2.835   1.245   0.885  0.2723  1.0448 -0.0077
 2845SOL    HW1 9434   2.739   1.223   0.869  0.2450  0.8734  0.3883
 2845SOL    HW2 9435   2.872   1.291   0.804  0.1883  0.0276 -0.6418
 2846SOL     OW 9436   4.847   6.831   6.788  0.0925 -0.4551  0.2050
 2846SOL    HW1 9437   4.795   6.746   6.778 -1.0152  0.2259  0.0671
 2846SOL    HW2 9438   4.831   6.889   6.708  0.0685  0.2963  0.7496
 2847SOL     OW 9439   0.941   6.030   3.449  0.3713  0.0262 -0.2805
 2847SOL    HW1 9440   1.007   6.078   3.391 -1.1039 -0.5039 -2.5292
 2847SOL    HW2 9441   0.919   6.088   3.528  1.5542  1.3398 -0.8601
 2848SOL     OW 9442   6.718   3.903   7.004 -0.5039 -0.4620 -0.4615
 2848SOL    HW1 9443   6.777   3.977   6.973 -0.0181 -0.2008  1.0134
 2848SOL    HW2 9444   6.765   3.816   6.993  0.0667 -0.2844  0.3960
 2849SOL     OW 9445   4.892   0.526   1.223  0.3648  0.2358  0.2543
 2849SOL    HW1 9446   4.965   0.568   1.170  0.8606 -0.0608  0.6902
 2849SOL    HW2 9447   4.870   0.585   1.301  0.1763  0.2945  0.1586
 2850SOL     OW 9448   6.999   1.116   2.936  0.0780 -0.0403  0.6276
 2850SOL    HW1 9449   6.944   1.184   2.983  0.0025  0.0136  0.4621
 2850SOL    HW2 9450   7.083   1.158   2.902 -0.9503  0.4997 -1.3740
 2851SOL     OW 9451   3.164   3.671   2.766  0.8851  0.2389  0.1587
 2851SOL    HW1 9452   3.065   3.681   2.765  0.7981  0.5087  2.8573
 2851SOL    HW2 9453   3.191   3.591   2.713 -0.9238 -0.7257  0.6344
 2852SOL     OW 9454   1.461   2.578   3.253  0.2657 -0.6640 -0.5486
 2852SOL    HW1 9455   1.515   2.597   3.335  2.4209  1.3957 -2.3164
 2852SOL    HW2 9456   1.413   2.660   3.225  1.7428 -0.4661 -2.7899
 2853SOL     OW 9457   5.895   6.545   5.212 -0.0105 -0.0795  0.4651
 2853SOL    HW1 9458   5.956   6.533   5.290 -0.4213 -1.1628  0.6329
 2853SOL    HW2 9459   5.846   6.632   5.221 -0.7303 -0.6012  1.9042
 2854SOL     OW 9460   4.071   0.945   6.658 -0.4762 -0.2039 -0.5350
 2854SOL    HW1 9461   4.133   1.016   6.626 -1.5719  0.8764 -0.3252
 2854SOL    HW2 9462   3.997   0.986   6.712 -1.0619 -1.5118 -0.2876
 2855SOL     OW 9463   2.843   0.459   3.708  0.3295 -0.0727  0.2637
 2855SOL    HW1 9464   2.748   0.481   3.731  0.6622  2.2079 -0.2949
 2855SOL    HW2 9465   2.872   0.379   3.760 -1.4644 -0.0001  1.4810
 2856SOL     OW 9466   1.396   5.208   5.612  0.8489  0.3845 -0.0600
 2856SOL    HW1 9467   1.422   5.114   5.589  2.1559  0.5046  0.8371
 2856SOL    HW2 9468   1.358   5.211   5.704 -1.7640  0.3505 -1.0374
 2857SOL     OW 9469   0.471   4.044   0.347 -0.2705  0.2843  0.2883
 2857SOL    HW1 9470   0.424   4.124   0.311 -0.6732  0.4818  1.2204
 2857SOL    HW2 9471   0.554   4.026   0.293 -0.6942  0.7377 -0.5222
 2858SOL     OW 9472   0.631   5.325   3.464 -0.2673 -0.3704  0.9434
 2858SOL    HW1 9473   0.673   5.414   3.444 -0.2753 -0.2454  1.4624
 2858SOL    HW2 9474   0.571   5.334   3.544 -0.9019 -0.6578  0.5150
 2859SOL     OW 9475   1.419   4.571   1.250  0.2176  0.5587  0.0242
 2859SOL    HW1 9476   1.448   4.490   1.300  1.8928  1.6740  0.9711
 2859SOL    HW2 9477   1.419   4.552   1.152  0.5974 -0.5708  0.2290
 2860SOL     OW 9478   3.226   6.955   2.637 -0.0603 -0.2515 -0.6115
 2860SOL    HW1 9479   3.246   7.010   2.718  0.4273 -1.4784  0.1258
 2860SOL    HW2 9480   3.299   6.967   2.570 -0.1057  0.2230 -0.5794
 2861SOL     OW 9481   6.299   4.897   4.666  0.3635  0.4359 -0.2748
 2861SOL    HW1 9482   6.200   4.884   4.665  0.3153  0.6164  0.9472
 2861SOL    HW2 9483   6.322   4.981   4.618 -0.3757  2.0438  2.0339
 2862SOL     OW 9484   5.161   0.136   1.080  0.0158 -0.3716 -0.1214
 2862SOL    HW1 9485   5.222   0.185   1.142 -0.4616  0.1831 -0.0794
 2862SOL    HW2 9486   5.066   0.154   1.106 -0.1696 -1.0238 -0.3389
 2863SOL     OW 9487   6.724   1.651   0.048  0.3454  1.1203 -0.3116
 2863SOL    HW1 9488   6.697   1.736   0.093  0.5424  0.5141  0.9763
 2863SOL    HW2 9489   6.718   1.663  -0.051 -0.4731  2.3547 -0.1326
 2864SOL     OW 9490   3.704   5.619   0.384 -0.2329 -0.6708 -0.3001
 2864SOL    HW1 9491   3.701   5.669   0.297  0.1516  0.0901  0.1152
 2864SOL    HW2 9492   3.624   5.559   0.390 -1.4140  0.8456 -0.2507
 2865SOL     OW 9493   6.730   4.696   1.175  0.2446 -0.5031  0.0909
 2865SOL    HW1 9494   6.679   4.766   1.225  1.9290  1.2519 -0.5223
 2865SOL    HW2 9495   6.768   4.630   1.240 -0.0136  0.0726  0.8417
 2866SOL     OW 9496   4.896   0.278   0.741  0.1040  0.6132 -0.2250
 2866SOL    HW1 9497   4.886   0.314   0.834 -0.8224 -0.7805  0.2507
 2866SOL    HW2 9498   4.959   0.201   0.742 -0.8146 -0.1645 -0.5138
 2867SOL     OW 9499   0.901   5.701   3.864 -0.3001  0.1163 -0.2611
 2867SOL    HW1 9500   0.982   5.645   3.847 -1.2995 -0.4226 -4.0004
 2867SOL    HW2 9501   0.819   5.651   3.839 -1.3707  2.5295 -1.9822
 2868SOL     OW 9502   6.174   0.384   6.512 -0.0235 -0.1827 -0.1414
 2868SOL    HW1 9503   6.088   0.435   6.509 -0.1632 -0.3421  0.9206
 2868SOL    HW2 9504   6.221   0.402   6.598  1.3312  0.3928 -0.9481
 2869SOL     OW 9505   0.019   6.218   4.790  0.0902  0.3619 -0.7571
 2869SOL    HW1 9506   0.087   6.176   4.729 -0.5595  2.0957 -2.7906
 2869SOL    HW2 9507   0.043   6.314   4.805 -0.9088  0.4968  0.0694
 2870SOL     OW 9508   6.740   1.391   1.281 -0.3112  0.2762  0.4440
 2870SOL    HW1 9509   6.730   1.422   1.376 -0.8030  2.5999 -0.3006
 2870SOL    HW2 9510   6.744   1.470   1.220  1.0415 -1.1331 -1.4166
 2871SOL     OW 9511   4.644   5.999   3.968  0.2214  0.1990 -0.1752
 2871SOL    HW1 9512   4.577   6.024   3.898  0.0965  2.1751  0.5723
 2871SOL    HW2 9513   4.598   5.991   4.057  0.1959 -3.2799 -0.3806
 2872SOL     OW 9514   3.030   1.279   2.496 -0.8834 -0.0301 -0.1781
 2872SOL    HW1 9515   3.028   1.213   2.420 -0.2864  0.8776 -1.0028
 2872SOL    HW2 9516   2.989   1.365   2.466 -1.8925 -0.0885  0.9707
 2873SOL     OW 9517   5.591   1.092   2.301  0.4171 -0.1040  0.0192
 2873SOL    HW1 9518   5.512   1.040   2.270  0.7928  0.3647 -1.8519
 2873SOL    HW2 9519   5.602   1.081   2.400 -0.7952 -1.7618  0.0033
 2874SOL     OW 9520   2.050   6.693   2.349  0.5084  0.4633  0.2907
 2874SOL    HW1 9521   2.040   6.638   2.432  0.8187  1.0683  0.7343
 2874SOL    HW2 9522   1.999   6.650   2.275  0.3408 -0.1585  0.7567
 2875SOL     OW 9523   4.425   2.396   2.901 -0.3106 -0.3966  0.4682
 2875SOL    HW1 9524   4.367   2.320   2.872 -0.0860  0.1053 -1.4206
 2875SOL    HW2 9525   4.512   2.360   2.936 -1.0401 -1.0720  1.6476
 2876SOL     OW 9526   0.621   1.166   6.612 -0.3251  0.9369 -0.4389
 2876SOL    HW1 9527   0.654   1.226   6.539  1.2765  0.9833  0.2893
 2876SOL    HW2 9528   0.660   1.074   6.600 -0.5071  0.7927  0.0409
 2877SOL     OW 9529   6.723   3.097   5.543 -0.0933 -0.0784 -0.5617
 2877SOL    HW1 9530   6.633   3.094   5.584  1.1524 -2.3293  2.3716
 2877SOL    HW2 9531   6.790   3.055   5.605  2.8256  0.5739 -3.0063
 2878SOL     OW 9532   3.410   3.624   4.696 -0.0507  0.0481 -0.0630
 2878SOL    HW1 9533   3.479   3.653   4.629  1.3449 -0.7245  0.9993
 2878SOL    HW2 9534   3.339   3.694   4.702  1.5136  1.7165  0.0200
 2879SOL     OW 9535   0.674   0.487   1.930 -0.1456 -0.4764 -0.0704
 2879SOL    HW1 9536   0.707   0.448   1.844 -1.6465 -2.1132  0.0297
 2879SOL    HW2 9537   0.748   0.536   1.975  0.8343 -0.0800 -2.0016
 2880SOL     OW 9538   1.650   1.987   3.119 -0.2986  0.5034 -0.6100
 2880SOL    HW1 9539   1.641   1.891   3.094  1.4256 -0.5726  2.3406
 2880SOL    HW2 9540   1.747   2.011   3.127 -0.7065  2.1845 -0.3318
 2881SOL     OW 9541   6.912   5.605   0.164 -0.5552  0.0722 -0.1494
 2881SOL    HW1 9542   6.839   5.580   0.228 -0.9880 -1.4485 -1.1907
 2881SOL    HW2 9543   6.903   5.553   0.080  1.7803 -0.2168 -0.3011
 2882SOL     OW 9544   4.907   4.956   0.775 -0.1476 -0.0068 -0.3884
 2882SOL    HW1 9545   4.983   4.915   0.825 -0.6470  1.8064  2.0832
 2882SOL    HW2 9546   4.823   4.905   0.795 -0.4113  0.9209  1.0448
 2883SOL     OW 9547   5.835   6.842   3.496  0.4580 -0.1696 -0.3706
 2883SOL    HW1 9548   5.853   6.743   3.488  1.3778  0.0640 -1.6220
 2883SOL    HW2 9549   5.761   6.858   3.561 -0.1773 -1.7298 -0.6742
 2884SOL     OW 9550   6.730   5.691   4.427 -0.2692  0.5222 -0.1654
 2884SOL    HW1 9551   6.776   5.767   4.380 -3.9294  2.2208 -1.3730
 2884SOL    HW2 9552   6.691   5.629   4.359 -2.2529  0.8297  0.6117
 2885SOL     OW 9553   6.906   4.937   4.106 -0.4070  0.3497  0.2530
 2885SOL    HW1 9554   6.869   4.929   4.199 -0.3755 -0.6112  0.1838
 2885SOL    HW2 9555   6.920   4.846   4.067 -1.2815  0.7498 -1.0475
 2886SOL     OW 9556   3.836   4.932   5.071 -0.1690 -0.1041  0.0701
 2886SOL    HW1 9557   3.915   4.945   5.132  0.7300 -0.4826 -0.9791
 2886SOL    HW2 9558   3.763   4.885   5.121  1.3606 -2.3777  0.3050
 2887SOL     OW 9559   0.297   5.177   5.406 -0.1593  0.3269 -0.3268
 2887SOL    HW1 9560   0.329   5.205   5.497 -1.4104  3.0638 -0.6555
 2887SOL    HW2 9561   0.373   5.177   5.342  0.3335  0.4637  0.2539
 2888SOL     OW 9562   5.046   5.352   6.798  0.2200 -0.3211 -0.0007
 2888SOL    HW1 9563   4.950   5.332   6.781 -0.2772  1.0136  1.0742
 2888SOL    HW2 9564   5.067   5.336   6.895  1.0216 -0.3550 -0.1694
 2889SOL     OW 9565   3.940   4.824   2.648  0.4007 -0.1749 -0.7421
 2889SOL    HW1 9566   4.009   4.769   2.602  2.5202  2.5971 -1.1415
 2889SOL    HW2 9567   3.876   4.861   2.580  1.6806  1.3953 -1.1649
 2890SOL     OW 9568   1.235   2.100   0.695  0.0140 -0.4279  0.1091
 2890SOL    HW1 9569   1.283   2.149   0.622 -0.6403 -1.2029 -0.8594
 2890SOL    HW2 9570   1.215   2.163   0.770  2.9230 -0.1406  0.7729
 2891SOL     OW 9571   1.930   2.019   5.364 -0.2629 -0.1974  0.2103
 2891SOL    HW1 9572   2.006   1.980   5.312  0.2642 -1.2900  1.7482
 2891SOL    HW2 9573   1.863   2.056   5.300  1.1222 -0.0147 -1.2021
 2892SOL     OW 9574   5.568   3.353   2.729  0.2898  0.5851 -0.3411
 2892SOL    HW1 9575   5.604   3.262   2.750 -0.8414  0.3330  0.5896
 2892SOL    HW2 9576   5.512   3.385   2.805 -0.4401  1.4835 -1.2369
 2893SOL     OW 9577   0.652   6.920   4.623 -0.4058  0.3109  0.4923
 2893SOL    HW1 9578   0.704   6.838   4.648  1.5668  1.2444 -0.2572
 2893SOL    HW2 9579   0.637   6.977   4.704 -0.2253  0.0282  0.7232
 2894SOL     OW 9580   0.704   6.898   1.775 -0.3273 -0.5078  0.6507
 2894SOL    HW1 9581   0.710   6.817   1.832  1.7287 -1.1819 -0.4180
 2894SOL    HW2 9582   0.710   6.872   1.679 -2.0693  0.7422  0.1468
 2895SOL     OW 9583   6.986   4.517   6.286 -0.4835 -0.0157  0.0081
 2895SOL    HW1 9584   6.983   4.585   6.213  0.9984 -0.8311 -0.8558
 2895SOL    HW2 9585   7.074   4.523   6.333 -0.3683 -1.2785 -0.0318
 2896SOL     OW 9586   5.183   6.978   0.056  0.4242  0.8994 -0.6067
 2896SOL    HW1 9587   5.123   6.987   0.135  0.8261 -0.4455 -0.1119
 2896SOL    HW2 9588   5.276   7.004   0.082  0.5679  0.4024 -0.6184
 2897SOL     OW 9589   2.248   5.059   5.156 -0.2844 -0.4211  0.1905
 2897SOL    HW1 9590   2.317   5.019   5.216  0.3576  1.3287  0.6868
 2897SOL    HW2 9591   2.285   5.142   5.113 -2.2456  0.9269  0.9420
 2898SOL     OW 9592   5.493   3.242   3.435 -0.0353 -0.1664 -0.5129
 2898SOL    HW1 9593   5.571   3.238   3.371  1.0546 -1.4498  0.8341
 2898SOL    HW2 9594   5.441   3.157   3.429  0.9495 -0.9484  1.3111
 2899SOL     OW 9595   5.349   2.454   1.367 -0.2093  0.4083 -0.1292
 2899SOL    HW1 9596   5.408   2.374   1.379 -1.0673 -0.2855 -0.4097
 2899SOL    HW2 9597   5.271   2.447   1.429  0.7583  2.1069  1.3946
 2900SOL     OW 9598   3.760   2.828   5.562 -0.0298 -0.0310  0.1079
 2900SOL    HW1 9599   3.661   2.824   5.555  0.0182 -1.6245 -0.0890
 2900SOL    HW2 9600   3.799   2.741   5.531  1.4734  0.8632 -0.5971
 2901SOL     OW 9601   6.475   4.402   3.952  0.4610  0.0190 -0.0660
 2901SOL    HW1 9602   6.400   4.339   3.932 -0.8103  1.4997 -0.1466
 2901SOL    HW2 9603   6.514   4.436   3.867 -0.7282  1.4506 -0.0769
 2902SOL     OW 9604   5.653   4.976   4.481 -0.2817  0.0037 -1.0097
 2902SOL    HW1 9605   5.746   5.013   4.474  0.5717 -2.4175 -4.4790
 2902SOL    HW2 9606   5.643   4.929   4.569  2.8446 -2.1782 -1.6690
 2903SOL     OW 9607   6.989   5.065   1.783 -0.4358  0.0275  0.6995
 2903SOL    HW1 9608   7.022   5.010   1.859  1.7498  0.7803  0.3654
 2903SOL    HW2 9609   6.915   5.017   1.736 -1.1966 -0.8594  2.6998
 2904SOL     OW 9610   2.478   5.773   5.685  0.2403  0.3428 -0.1512
 2904SOL    HW1 9611   2.450   5.705   5.752 -1.7827  0.1139 -1.1795
 2904SOL    HW2 9612   2.400   5.830   5.660  1.1274  0.9022 -1.7811
 2905SOL     OW 9613   0.903   2.590   0.150  0.0516  0.1452  0.1695
 2905SOL    HW1 9614   0.842   2.522   0.191 -1.1175  1.0327 -0.0433
 2905SOL    HW2 9615   0.875   2.681   0.177  0.7299  0.6254 -0.6836
 2906SOL     OW 9616   5.065   5.423   5.848 -0.1955  0.1488  0.4633
 2906SOL    HW1 9617   4.978   5.438   5.802 -0.7611 -0.3918  1.3321
 2906SOL    HW2 9618   5.099   5.510   5.885  0.5887  0.7212 -1.4626
 2907SOL     OW 9619   0.347   0.863   5.351 -0.3444 -0.1144  0.3630
 2907SOL    HW1 9620   0.415   0.804   5.393  0.2853 -0.0790 -0.5732
 2907SOL    HW2 9621   0.320   0.825   5.262  2.3739  2.4865 -1.7663
 2908SOL     OW 9622   3.975   5.063   5.460  0.4605  0.0058 -0.6455
 2908SOL    HW1 9623   4.049   5.125   5.487 -1.4948  2.2881 -0.1845
 2908SOL    HW2 9624   3.930   5.028   5.542 -0.3379  0.3705 -0.9275
 2909SOL     OW 9625   3.489   5.121   0.852  0.4804 -0.1750  0.4781
 2909SOL    HW1 9626   3.572   5.079   0.814  0.3875 -0.3743  0.4929
 2909SOL    HW2 9627   3.507   5.151   0.945  0.7145  0.3301  0.2762
 2910SOL     OW 9628   2.502   5.120   4.537 -0.0514 -0.4033  0.4052
 2910SOL    HW1 9629   2.569   5.067   4.589  0.3480  1.8099  2.3463
 2910SOL    HW2 9630   2.524   5.116   4.440 -0.3580 -4.0611  0.3527
 2911SOL     OW 9631   6.767   4.207   3.765 -0.5724  0.0190 -0.4987
 2911SOL    HW1 9632   6.754   4.298   3.802  0.5313 -0.5152  1.3383
 2911SOL    HW2 9633   6.775   4.212   3.665 -2.5660  1.6441 -0.6342
 2912SOL     OW 9634   6.081   2.358   3.090 -0.2448  0.2097  0.6806
 2912SOL    HW1 9635   6.076   2.258   3.090  0.8860  0.1323 -0.4159
 2912SOL    HW2 9636   6.130   2.389   3.171  0.6756 -0.2178  0.2928
 2913SOL     OW 9637   1.355   0.487   5.436 -0.3610  0.8267  0.1124
 2913SOL    HW1 9638   1.355   0.567   5.496 -1.3541  0.4933  0.5850
 2913SOL    HW2 9639   1.442   0.439   5.443 -0.2730  1.0945  0.8948
 2914SOL     OW 9640   5.987   4.776   0.624 -0.0755 -0.1692  0.8487
 2914SOL    HW1 9641   5.994   4.760   0.723  0.0133 -0.5900  0.7747
 2914SOL    HW2 9642   5.937   4.861   0.608  0.3572  0.1727  1.2701
 2915SOL     OW 9643   0.175   0.965   4.705 -0.4186  0.4590  0.1573
 2915SOL    HW1 9644   0.201   0.870   4.687  1.1256  0.8449  0.2580
 2915SOL    HW2 9645   0.132   0.970   4.796 -2.8638 -0.5203 -0.8594
 2916SOL     OW 9646   6.563   5.742   6.076  0.3960 -0.5748 -0.2526
 2916SOL    HW1 9647   6.600   5.805   6.009 -2.0751  0.8515 -0.3858
 2916SOL    HW2 9648   6.619   5.745   6.159  0.7331  1.2903 -0.5108
 2917SOL     OW 9649   1.344   1.858   3.724  0.1992 -0.0359  0.5439
 2917SOL    HW1 9650   1.328   1.826   3.818  0.8259  0.6342  0.8937
 2917SOL    HW2 9651   1.335   1.958   3.722 -0.0288 -0.0699 -0.1622
 2918SOL     OW 9652   5.105   1.646   6.153 -0.5084  0.0638  0.5174
 2918SOL    HW1 9653   5.154   1.646   6.066  0.3186 -2.5964  0.9066
 2918SOL    HW2 9654   5.014   1.607   6.140 -0.8679  0.8360  0.6447
 2919SOL     OW 9655   1.943   5.379   6.138  0.4383 -0.6406  0.5318
 2919SOL    HW1 9656   1.999   5.462   6.148  0.2490 -0.5829  1.1950
 2919SOL    HW2 9657   1.948   5.347   6.044  0.9534 -0.1845  0.3938
 2920SOL     OW 9658   3.653   2.924   0.516  0.1834  0.5184 -0.4339
 2920SOL    HW1 9659   3.601   2.971   0.445 -1.7009  0.5121  0.8822
 2920SOL    HW2 9660   3.675   2.832   0.485 -3.7222 -0.8141  0.1906
 2921SOL     OW 9661   6.799   6.117   4.484  0.7294 -0.0621 -0.3421
 2921SOL    HW1 9662   6.725   6.174   4.520 -1.2177 -2.4366 -0.3246
 2921SOL    HW2 9663   6.856   6.087   4.560  0.9516  0.7414 -0.1828
 2922SOL     OW 9664   3.798   4.662   1.690 -0.3680  0.4734  0.4156
 2922SOL    HW1 9665   3.823   4.758   1.704 -1.6789  0.8242  0.5437
 2922SOL    HW2 9666   3.719   4.640   1.747 -1.0560 -0.2356 -0.7733
 2923SOL     OW 9667   2.059   5.938   2.281  0.1789  0.4103 -0.1223
 2923SOL    HW1 9668   2.128   6.005   2.306  0.9692 -0.5684  0.4231
 2923SOL    HW2 9669   1.970   5.965   2.320  0.9727 -0.0513  2.1826
 2924SOL     OW 9670   5.316   1.719   0.114 -0.1335 -0.2838 -0.2943
 2924SOL    HW1 9671   5.238   1.657   0.109  0.0310 -1.0025  3.2619
 2924SOL    HW2 9672   5.395   1.670   0.151  1.2811  1.0456 -1.4211
 2925SOL     OW 9673   5.128   5.192   4.609 -0.4023 -0.4498 -0.6763
 2925SOL    HW1 9674   5.042   5.200   4.659 -0.1606 -0.6141 -0.2355
 2925SOL    HW2 9675   5.204   5.222   4.666 -0.3395  1.5285 -1.6972
 2926SOL     OW 9676   6.274   0.979   3.399 -0.0248 -0.3064 -0.3042
 2926SOL    HW1 9677   6.319   0.952   3.484  1.3038  1.5644 -0.3623
 2926SOL    HW2 9678   6.341   0.986   3.326 -0.8660 -0.1722 -1.0882
 2927SOL     OW 9679   0.388   2.682   2.986  0.2892  0.9147  0.5157
 2927SOL    HW1 9680   0.372   2.768   3.032 -0.3188 -0.3529  2.8280
 2927SOL    HW2 9681   0.485   2.674   2.962  0.8222  1.2693  2.4247
 2928SOL     OW 9682   5.907   3.977   0.148  0.4896 -0.0114  0.6995
 2928SOL    HW1 9683   5.807   3.979   0.143  0.5321  0.4533 -0.2275
 2928SOL    HW2 9684   5.945   4.016   0.064  1.4469  1.7231  1.8833
 2929SOL     OW 9685   1.997   1.244   2.202  0.0589 -0.3078 -0.0914
 2929SOL    HW1 9686   1.939   1.172   2.164  0.7332 -0.6113 -0.5734
 2929SOL    HW2 9687   2.033   1.215   2.291 -1.2336  0.2554  0.6416
 2930SOL     OW 9688   2.017   3.133   2.361 -0.3725  0.0181 -0.2390
 2930SOL    HW1 9689   1.918   3.126   2.346 -0.7405  0.5027  1.6445
 2930SOL    HW2 9690   2.048   3.225   2.338  0.1482 -0.7738 -3.1012
 2931SOL     OW 9691   4.086   2.884   5.491 -0.0078 -0.2603  0.6989
 2931SOL    HW1 9692   4.068   2.884   5.590 -1.9164 -1.7307  0.4009
 2931SOL    HW2 9693   4.033   2.811   5.448  0.5660  0.5555 -1.4707
 2932SOL     OW 9694   5.989   0.789   5.589  0.1236 -0.3044  0.0627
 2932SOL    HW1 9695   5.973   0.846   5.508 -0.3858 -1.7777 -0.8948
 2932SOL    HW2 9696   5.970   0.843   5.671  1.5789  1.5279 -0.7227
 2933SOL     OW 9697   1.867   1.869   6.876 -0.1836  0.9712 -0.2094
 2933SOL    HW1 9698   1.966   1.862   6.883 -0.3632 -0.9955  1.2022
 2933SOL    HW2 9699   1.826   1.861   6.967 -1.6644  1.5522 -0.7818
 2934SOL     OW 9700   4.653   5.456   2.059 -0.3570 -0.9140 -0.1022
 2934SOL    HW1 9701   4.722   5.411   2.116  0.9938 -0.9611 -1.6707
 2934SOL    HW2 9702   4.579   5.393   2.039 -0.4377 -1.1508  0.9015
 2935SOL     OW 9703   1.356   3.457   6.533  0.2806 -0.1088  0.1634
 2935SOL    HW1 9704   1.345   3.459   6.434  0.8758  2.3642  0.0744
 2935SOL    HW2 9705   1.281   3.508   6.576 -1.8598 -3.8839  1.3194
 2936SOL     OW 9706   6.058   5.301   3.975  0.1634 -0.4017 -0.0917
 2936SOL    HW1 9707   6.021   5.371   4.036 -0.8724  0.0070 -1.1585
 2936SOL    HW2 9708   5.985   5.237   3.950  0.2945  0.0917 -1.8060
 2937SOL     OW 9709   6.310   3.817   3.431  0.5378 -0.1194  1.1043
 2937SOL    HW1 9710   6.397   3.803   3.384 -0.1375  0.1843 -0.2745
 2937SOL    HW2 9711   6.235   3.782   3.375 -0.2963  0.1954  1.9894
 2938SOL     OW 9712   5.331   4.364   1.437 -0.0947 -0.5813  0.6043
 2938SOL    HW1 9713   5.265   4.437   1.423  0.0569 -0.2568  1.4668
 2938SOL    HW2 9714   5.356   4.323   1.350 -0.3841  0.2211  0.1365
 2939SOL     OW 9715   0.868   5.814   1.459  0.0593 -0.2668 -0.1831
 2939SOL    HW1 9716   0.865   5.742   1.391 -1.6702  1.0263 -1.5969
 2939SOL    HW2 9717   0.946   5.874   1.442 -1.3187  1.0553 -2.2163
 2940SOL     OW 9718   6.308   6.833   2.509 -0.3094  0.2494 -0.1154
 2940SOL    HW1 9719   6.401   6.816   2.474 -0.5611 -0.8230 -0.2956
 2940SOL    HW2 9720   6.276   6.753   2.559 -1.0281  0.7332  0.2164
 2941SOL     OW 9721   3.552   5.784   0.968  0.3392 -1.2208  0.4354
 2941SOL    HW1 9722   3.548   5.724   0.889  0.6705  2.5155 -2.7273
 2941SOL    HW2 9723   3.647   5.790   1.001  0.5052 -1.5744  0.0260
 2942SOL     OW 9724   3.030   4.595   6.693  0.4791 -0.3092 -0.2526
 2942SOL    HW1 9725   2.936   4.615   6.664 -0.1159 -1.6303  0.6557
 2942SOL    HW2 9726   3.092   4.663   6.654 -1.0528  1.5825  0.4682
 2943SOL     OW 9727   0.874   5.754   3.568  0.2923 -0.3318 -0.2087
 2943SOL    HW1 9728   0.878   5.848   3.534 -1.4884  0.2903  1.1634
 2943SOL    HW2 9729   0.877   5.755   3.668 -2.0414 -1.5289 -0.0637
 2944SOL     OW 9730   1.549   6.457   4.018  0.0134  0.0730 -0.1964
 2944SOL    HW1 9731   1.639   6.468   4.060  1.0706 -0.2253 -2.2278
 2944SOL    HW2 9732   1.516   6.545   3.985 -0.3802  0.1533  0.3931
 2945SOL     OW 9733   4.829   3.403   0.052  0.0165  0.1641  0.0668
 2945SOL    HW1 9734   4.874   3.353   0.127 -0.2549 -0.5829 -0.2594
 2945SOL    HW2 9735   4.899   3.437  -0.011  0.3616  2.1213  1.4353
 2946SOL     OW 9736   2.908   3.812   5.257 -0.7137 -0.1357 -1.0083
 2946SOL    HW1 9737   2.936   3.880   5.190  1.2213  0.6823  0.5336
 2946SOL    HW2 9738   2.812   3.825   5.281 -0.6274  1.4512 -1.4418
 2947SOL     OW 9739   0.054   4.395   2.239 -0.3159  0.3756  0.1066
 2947SOL    HW1 9740   0.025   4.299   2.241  0.0193  0.2750  0.3383
 2947SOL    HW2 9741   0.006   4.446   2.310 -0.8783  0.4953 -0.3537
 2948SOL     OW 9742   5.266   4.612   0.024  0.4018  0.0752  0.3282
 2948SOL    HW1 9743   5.355   4.596  -0.018  0.3685  2.5313 -0.8559
 2948SOL    HW2 9744   5.195   4.566  -0.029  0.8260 -0.8228  0.5291
 2949SOL     OW 9745   6.907   4.870   0.455 -0.5370  0.0043 -0.2387
 2949SOL    HW1 9746   6.852   4.816   0.391 -1.3744 -0.8894  1.1938
 2949SOL    HW2 9747   6.869   4.862   0.547  3.4484 -2.9422  1.4479
 2950SOL     OW 9748   4.989   5.581   2.138 -0.2303  0.2695  0.1091
 2950SOL    HW1 9749   4.990   5.492   2.183 -2.0783 -0.0572 -0.3822
 2950SOL    HW2 9750   4.980   5.654   2.206  2.1295  0.1867  0.5776
 2951SOL     OW 9751   0.467   1.562   6.907 -0.7063 -0.1075 -0.2163
 2951SOL    HW1 9752   0.430   1.653   6.889  0.3792  0.7184  1.4985
 2951SOL    HW2 9753   0.552   1.551   6.856  0.6039  0.9504  1.6061
 2952SOL     OW 9754   1.264   1.559   2.722  0.0145  0.2387 -0.0501
 2952SOL    HW1 9755   1.323   1.529   2.648 -0.1438 -0.4287  0.0903
 2952SOL    HW2 9756   1.316   1.617   2.785  0.6704 -0.7592  0.3530
 2953SOL     OW 9757   1.851   5.954   1.682  0.7539 -0.0589 -0.4405
 2953SOL    HW1 9758   1.926   5.947   1.748  0.3600 -1.0997 -0.0849
 2953SOL    HW2 9759   1.884   5.995   1.597  1.3434  0.9890  0.2771
 2954SOL     OW 9760   5.778   4.069   5.037  0.1382 -0.5747  0.0303
 2954SOL    HW1 9761   5.724   4.152   5.026 -1.3175 -1.5547 -0.5163
 2954SOL    HW2 9762   5.719   3.995   5.068  0.9061 -1.9701 -1.6550
 2955SOL     OW 9763   1.775   5.422   4.884 -0.2396 -0.1179 -0.0605
 2955SOL    HW1 9764   1.776   5.368   4.968  0.6583 -1.7753 -1.0880
 2955SOL    HW2 9765   1.709   5.384   4.819  1.4848 -0.9841 -1.3847
 2956SOL     OW 9766   5.101   4.354   4.784 -0.2993  0.6982 -0.0154
 2956SOL    HW1 9767   5.105   4.323   4.879 -1.6494 -0.2726 -0.2484
 2956SOL    HW2 9768   5.006   4.355   4.753 -0.0143  2.3246 -0.9479
 2957SOL     OW 9769   0.290   3.635   0.858  0.2112 -0.2014 -0.2573
 2957SOL    HW1 9770   0.295   3.617   0.956  0.4990  0.6958 -0.0993
 2957SOL    HW2 9771   0.289   3.548   0.808  0.2670 -0.6614  0.5263
 2958SOL     OW 9772   1.728   2.947   0.038  0.3271 -0.6555  0.0556
 2958SOL    HW1 9773   1.649   2.899  -0.000  0.6620 -1.2011  0.0321
 2958SOL    HW2 9774   1.806   2.884   0.043  0.7275 -0.1577  0.1862
 2959SOL     OW 9775   1.784   3.252   3.939  0.2856 -0.2532  0.4766
 2959SOL    HW1 9776   1.824   3.344   3.935  2.3851 -1.1038  0.6147
 2959SOL    HW2 9777   1.685   3.260   3.942  0.4030  2.0187  0.7754
 2960SOL     OW 9778   5.982   4.121   6.915 -0.0690  0.6164 -0.8122
 2960SOL    HW1 9779   5.987   4.216   6.945  0.7916  0.7008 -1.1776
 2960SOL    HW2 9780   6.072   4.092   6.883 -0.1277 -0.5675  0.0249
 2961SOL     OW 9781   5.482   1.355   1.287  0.2480  0.3923 -0.4713
 2961SOL    HW1 9782   5.513   1.313   1.372  2.8934 -2.2345 -2.5454
 2961SOL    HW2 9783   5.557   1.410   1.247 -0.9357  1.5835 -1.1457
 2962SOL     OW 9784   5.098   2.365   3.789 -0.2140 -0.1376  0.1186
 2962SOL    HW1 9785   5.086   2.300   3.713 -0.9807 -0.9626  0.9081
 2962SOL    HW2 9786   5.087   2.316   3.876  0.7894  0.7634  0.7712
 2963SOL     OW 9787   1.248   2.941   5.625  0.5286  0.1171 -0.4483
 2963SOL    HW1 9788   1.273   3.038   5.632 -0.7187  0.5823 -1.9923
 2963SOL    HW2 9789   1.245   2.901   5.717  2.3712  1.1743  0.1173
 2964SOL     OW 9790   6.973   0.501   4.919 -0.1514 -0.3296 -0.0463
 2964SOL    HW1 9791   7.043   0.528   4.852 -0.6855  1.0384 -0.0901
 2964SOL    HW2 9792   6.922   0.422   4.884 -1.2735  1.1442 -1.9039
 2965SOL     OW 9793   6.658   1.146   6.794  0.0466  0.4337  0.0180
 2965SOL    HW1 9794   6.709   1.155   6.709  0.6382 -1.5512  0.1084
 2965SOL    HW2 9795   6.716   1.104   6.864 -0.3052  2.3683  1.5456
 2966SOL     OW 9796   3.902   0.141   3.244 -0.3476  0.3339  0.1644
 2966SOL    HW1 9797   3.834   0.209   3.218 -0.8338  0.1373  0.8770
 2966SOL    HW2 9798   3.867   0.049   3.223  0.2381  0.2814 -0.6482
 2967SOL     OW 9799   3.780   0.571   4.354 -0.3694 -0.1134  0.1667
 2967SOL    HW1 9800   3.871   0.613   4.343  0.5933 -1.8380  1.1706
 2967SOL    HW2 9801   3.711   0.643   4.351  0.8456  1.1064 -2.2317
 2968SOL     OW 9802   6.926   3.872   1.612 -0.6848 -0.1779  0.0644
 2968SOL    HW1 9803   6.854   3.803   1.612 -1.3031  0.4355  1.2257
 2968SOL    HW2 9804   6.898   3.949   1.670  0.5262  0.4789 -0.1963
 2969SOL     OW 9805   3.243   6.936   4.986  0.3422 -0.3158 -0.5819
 2969SOL    HW1 9806   3.322   6.984   5.025 -0.1845  0.2619 -0.1919
 2969SOL    HW2 9807   3.160   6.972   5.028 -0.0629 -1.7681 -0.1008
 2970SOL     OW 9808   2.956   1.784   4.838 -0.0687 -0.1695  0.1104
 2970SOL    HW1 9809   2.995   1.706   4.789  0.2105  0.5965 -0.9235
 2970SOL    HW2 9810   2.913   1.846   4.773 -2.4979 -0.6565  1.1426
 2971SOL     OW 9811   3.536   5.190   4.764 -0.2981 -0.2753 -0.1399
 2971SOL    HW1 9812   3.613   5.186   4.827 -0.4676 -1.3301  0.0139
 2971SOL    HW2 9813   3.558   5.254   4.689 -0.3862  1.5601  1.3213
 2972SOL     OW 9814   0.348   0.611   1.664  0.1520  0.1999  0.5387
 2972SOL    HW1 9815   0.439   0.649   1.653  0.0615  0.0590 -0.8346
 2972SOL    HW2 9816   0.354   0.522   1.708  1.0404 -1.3141 -2.3987
 2973SOL     OW 9817   4.837   6.431   3.957 -0.2535  0.0065 -0.0639
 2973SOL    HW1 9818   4.834   6.422   4.057 -0.0632  1.4742  0.1069
 2973SOL    HW2 9819   4.778   6.362   3.915 -1.1044 -0.0131  1.1151
 2974SOL     OW 9820   6.734   5.410   3.214 -0.2983 -0.3434  0.4672
 2974SOL    HW1 9821   6.799   5.440   3.145 -0.2620 -1.6401 -0.0881
 2974SOL    HW2 9822   6.715   5.313   3.202 -0.8149 -0.4429  1.8603
 2975SOL     OW 9823   0.908   3.059   5.327  0.5402  0.4988 -0.1980
 2975SOL    HW1 9824   0.917   2.981   5.390  1.6598 -0.1605 -1.1402
 2975SOL    HW2 9825   0.815   3.095   5.332 -0.1954 -1.2994 -0.1796
 2976SOL     OW 9826   5.443   0.439   3.013  0.0004  0.1372  0.0028
 2976SOL    HW1 9827   5.424   0.499   3.090  0.4408  0.7257 -0.3389
 2976SOL    HW2 9828   5.446   0.344   3.044  3.4415  0.5535  1.3743
 2977SOL     OW 9829   0.869   1.857   2.882 -0.1487 -0.0666 -0.0036
 2977SOL    HW1 9830   0.884   1.874   2.979  0.6807  0.5675 -0.2368
 2977SOL    HW2 9831   0.772   1.839   2.866 -0.0135 -2.1839  1.2327
 2978SOL     OW 9832   1.887   6.489   6.221  0.3613  0.4986  0.1885
 2978SOL    HW1 9833   1.919   6.450   6.135 -0.6517 -0.1036  0.0632
 2978SOL    HW2 9834   1.959   6.479   6.290  0.3438 -1.1829  0.0247
 2979SOL     OW 9835   3.456   0.682   4.865  0.1016 -0.8846 -0.0612
 2979SOL    HW1 9836   3.409   0.759   4.823  0.9474 -1.4820 -2.2681
 2979SOL    HW2 9837   3.492   0.622   4.794  0.5509 -2.6711  1.5794
 2980SOL     OW 9838   3.750   3.962   2.143 -0.1316 -0.4718  0.2120
 2980SOL    HW1 9839   3.762   3.965   2.044  0.5719  0.6039  0.3171
 2980SOL    HW2 9840   3.828   3.916   2.185  0.3210  0.4457  0.3806
 2981SOL     OW 9841   2.687   0.450   2.819 -0.0542 -0.2945  0.3211
 2981SOL    HW1 9842   2.659   0.539   2.856  1.2097 -0.1037  0.8538
 2981SOL    HW2 9843   2.786   0.450   2.804  0.2606 -2.1985  1.9978
 2982SOL     OW 9844   6.370   1.152   1.911 -0.0920 -0.3213 -0.5207
 2982SOL    HW1 9845   6.416   1.066   1.936 -0.7753 -0.8659 -1.0888
 2982SOL    HW2 9846   6.377   1.166   1.812  1.1117  0.9434 -0.2908
 2983SOL     OW 9847   1.548   3.425   3.516 -0.3530 -0.6029  0.2677
 2983SOL    HW1 9848   1.629   3.367   3.522 -1.0363 -1.5155  1.0709
 2983SOL    HW2 9849   1.528   3.465   3.605 -0.3637  0.2231 -0.0956
 2984SOL     OW 9850   6.949   4.371   0.628 -0.1609 -0.3102  0.2693
 2984SOL    HW1 9851   6.863   4.321   0.612 -1.4914  1.1544  2.3293
 2984SOL    HW2 9852   7.011   4.355   0.551 -1.2481 -3.4590 -0.1292
 2985SOL     OW 9853   0.655   2.021   5.341  0.5852  0.9393 -0.4893
 2985SOL    HW1 9854   0.733   2.064   5.296  0.5885  0.3301 -1.0757
 2985SOL    HW2 9855   0.580   2.009   5.275 -0.1202  1.7602  0.1251
 2986SOL     OW 9856   4.005   4.791   2.109  0.3524  0.4476  0.0483
 2986SOL    HW1 9857   3.911   4.805   2.139  0.1752  1.0992 -0.7848
 2986SOL    HW2 9858   4.016   4.698   2.075 -0.5582  0.9687 -1.7974
 2987SOL     OW 9859   2.291   6.696   5.366  0.3832  0.4564  0.4541
 2987SOL    HW1 9860   2.312   6.606   5.329 -0.0959  0.4516  0.1926
 2987SOL    HW2 9861   2.247   6.752   5.297 -1.1381  0.2181  1.1925
 2988SOL     OW 9862   3.015   2.376   5.432  0.0628 -0.0522 -0.1676
 2988SOL    HW1 9863   3.102   2.424   5.440  0.6228 -1.3111  1.8680
 2988SOL    HW2 9864   3.024   2.301   5.367  0.2422  0.3112 -0.5685
 2989SOL     OW 9865   5.592   1.824   6.318  0.1655 -0.1623  0.2640
 2989SOL    HW1 9866   5.525   1.898   6.313 -1.3194 -1.3404  1.6318
 2989SOL    HW2 9867   5.551   1.745   6.364  1.7839 -1.7483 -0.8611
 2990SOL     OW 9868   5.636   2.226   5.428  0.0344  0.1616  0.3052
 2990SOL    HW1 9869   5.537   2.213   5.428 -0.0209  0.5571  0.1730
 2990SOL    HW2 9870   5.680   2.152   5.479 -0.3394  0.0565  0.4761
 2991SOL     OW 9871   5.453   2.201   0.158 -0.7487 -0.0524 -0.1517
 2991SOL    HW1 9872   5.452   2.215   0.257 -0.8159 -0.0166 -0.1581
 2991SOL    HW2 9873   5.389   2.129   0.134 -0.7476 -0.0466 -0.1719
 2992SOL     OW 9874   1.332   2.477   4.408 -0.3016 -0.6036 -0.7305
 2992SOL    HW1 9875   1.300   2.520   4.323 -0.8256 -0.9754 -0.7303
 2992SOL    HW2 9876   1.428   2.498   4.422 -0.7058  1.1801 -0.3653
 2993SOL     OW 9877   3.903   4.199   6.389 -0.1523  0.0664 -0.2406
 2993SOL    HW1 9878   3.999   4.224   6.403  0.1981 -0.0230 -2.1349
 2993SOL    HW2 9879   3.859   4.268   6.332 -0.9855 -0.2996 -0.0445
 2994SOL     OW 9880   3.582   6.364   4.852 -0.1548 -0.3222  0.0029
 2994SOL    HW1 9881   3.636   6.395   4.773 -1.8031  1.0975 -0.6355
 2994SOL    HW2 9882   3.621   6.279   4.888  0.9597 -0.7300 -2.0103
 2995SOL     OW 9883   0.091   1.802   0.444 -0.7363  0.7582  0.8522
 2995SOL    HW1 9884   0.078   1.717   0.496 -0.5121  0.3904  0.3189
 2995SOL    HW2 9885   0.169   1.852   0.481  1.4352 -1.0152 -1.0167
 2996SOL     OW 9886   6.350   0.982   0.252 -0.1877  0.1024 -0.2685
 2996SOL    HW1 9887   6.373   1.056   0.188  0.3461  0.9735  0.8787
 2996SOL    HW2 9888   6.261   0.944   0.228 -0.5878  1.2821 -0.7634
 2997SOL     OW 9889   5.506   5.201   4.067 -0.3918  0.1142 -0.3841
 2997SOL    HW1 9890   5.596   5.239   4.044  0.2604 -0.7450  0.6553
 2997SOL    HW2 9891   5.502   5.182   4.165 -1.4164 -0.6289 -0.5581
 2998SOL     OW 9892   0.472   1.322   1.438 -0.1884  0.3538 -0.4158
 2998SOL    HW1 9893   0.414   1.249   1.401 -1.0545  0.9510 -0.2609
 2998SOL    HW2 9894   0.416   1.402   1.459  0.5890  0.7030  0.3878
 2999SOL     OW 9895   3.350   6.023   6.161 -0.0684  0.2943 -0.4426
 2999SOL    HW1 9896   3.318   5.978   6.077  1.1532  1.1531 -1.4100
 2999SOL    HW2 9897   3.331   6.121   6.155  0.2444  0.3930  0.1808
 3000SOL     OW 9898   0.333   5.939   6.139 -0.2882  0.3838 -0.3438
 3000SOL    HW1 9899   0.363   5.856   6.093 -0.5283  0.1009 -0.0002
 3000SOL    HW2 9900   0.234   5.935   6.154  0.0341 -0.4641  1.9938
 3001SOL     OW 9901   2.849   6.871   6.777 -0.4314  0.0901 -0.3057
 3001SOL    HW1 9902   2.905   6.953   6.787 -1.2735  0.6041  0.2985
 3001SOL    HW2 9903   2.753   6.897   6.774 -0.6864 -0.8522 -0.4679
 3002SOL     OW 9904   1.336   1.033   1.201 -0.1445 -0.0565 -0.3520
 3002SOL    HW1 9905   1.396   1.105   1.236  0.1110  0.3173 -1.5325
 3002SOL    HW2 9906   1.371   1.000   1.113 -1.5579  0.0222 -0.9570
 3003SOL     OW 9907   6.917   6.058   0.872  0.2877 -0.1590 -0.2537
 3003SOL    HW1 9908   6.974   5.983   0.904 -0.5930 -1.1328 -0.8848
 3003SOL    HW2 9909   6.922   6.064   0.772 -0.8453 -0.3979 -0.3451
 3004SOL     OW 9910   2.513   6.992   5.923  0.3567 -0.1869  0.0626
 3004SOL    HW1 9911   2.549   7.046   5.847  1.5851 -0.5289  0.3807
 3004SOL    HW2 9912   2.569   6.911   5.937 -0.6630 -0.8497  0.4748
 3005SOL     OW 9913   3.785   6.829   6.665 -0.2840  0.3550 -0.1865
 3005SOL    HW1 9914   3.688   6.817   6.684 -0.5292  0.5010 -1.2511
 3005SOL    HW2 9915   3.819   6.912   6.709 -0.1346 -0.7498  1.8790
 3006SOL     OW 9916   5.900   1.672   5.333 -0.1894  0.0515  0.4916
 3006SOL    HW1 9917   5.958   1.721   5.398  0.9466 -0.8526  0.2023
 3006SOL    HW2 9918   5.933   1.689   5.240  1.2332 -2.4101  0.4534
 3007SOL     OW 9919   0.709   6.240   6.837 -0.2863 -0.2107  0.0962
 3007SOL    HW1 9920   0.797   6.213   6.876 -0.1894 -0.1287 -0.0616
 3007SOL    HW2 9921   0.711   6.223   6.738 -0.5407 -0.4497  0.1325
 3008SOL     OW 9922   4.360   2.275   6.083  0.6580 -0.1004 -0.5417
 3008SOL    HW1 9923   4.453   2.265   6.048  0.9253  1.3987 -0.3616
 3008SOL    HW2 9924   4.306   2.332   6.020  0.7459  1.4834  0.7480
 3009SOL     OW 9925   5.470   5.243   1.999  0.2430  0.3422 -0.5979
 3009SOL    HW1 9926   5.499   5.338   1.985  1.8531 -0.3591 -2.2307
 3009SOL    HW2 9927   5.545   5.191   2.039 -0.1664 -0.5562 -0.9824
 3010SOL     OW 9928   3.532   3.682   1.517  0.0325 -0.6488 -0.4255
 3010SOL    HW1 9929   3.498   3.594   1.485 -1.0582 -0.4761  0.1797
 3010SOL    HW2 9930   3.454   3.737   1.549  0.9504 -0.4730  1.6416
 3011SOL     OW 9931   5.098   0.212   0.254  0.4112 -0.5529  0.6406
 3011SOL    HW1 9932   5.074   0.277   0.326 -2.3890  0.5311 -1.0714
 3011SOL    HW2 9933   5.038   0.132   0.260 -1.3959  0.5153 -1.5987
 3012SOL     OW 9934   2.865   1.952   4.483  0.9554  0.6914 -0.2804
 3012SOL    HW1 9935   2.834   1.955   4.578 -0.2789  3.3372 -0.6702
 3012SOL    HW2 9936   2.958   1.989   4.478  1.3384 -0.2055 -0.0400
 3013SOL     OW 9937   6.484   5.153   0.219 -0.2783 -0.4090 -0.5324
 3013SOL    HW1 9938   6.461   5.082   0.152  0.2895 -1.9959  0.9005
 3013SOL    HW2 9939   6.459   5.122   0.311  0.8793  0.8564  0.2400
 3014SOL     OW 9940   4.257   6.286   0.721 -0.0961 -0.3404 -0.4133
 3014SOL    HW1 9941   4.242   6.292   0.622 -0.0547 -0.5124 -0.4296
 3014SOL    HW2 9942   4.291   6.195   0.744 -1.0103 -0.6238 -0.1263
 3015SOL     OW 9943   6.988   5.802   4.637  0.0795 -0.5809 -0.1459
 3015SOL    HW1 9944   6.942   5.797   4.548 -1.4355  0.3033  0.5544
 3015SOL    HW2 9945   6.950   5.878   4.690  2.2315  0.0684  0.5714
 3016SOL     OW 9946   4.226   1.921   4.686 -0.6437  0.0277  0.0014
 3016SOL    HW1 9947   4.218   1.892   4.590  0.0690 -1.8906  0.4854
 3016SOL    HW2 9948   4.322   1.923   4.712 -0.8446  0.3708  0.7455
 3017SOL     OW 9949   1.612   5.537   0.116 -0.1560 -0.1813  0.8102
 3017SOL    HW1 9950   1.640   5.630   0.093  0.6481 -0.2867  1.2976
 3017SOL    HW2 9951   1.595   5.485   0.032  1.6245 -0.2400  0.4477
 3018SOL     OW 9952   0.855   1.972   0.155  1.1142  0.4916  0.4114
 3018SOL    HW1 9953   0.839   1.988   0.252  0.1197 -2.4157  0.8199
 3018SOL    HW2 9954   0.773   1.931   0.114  1.9585  0.4909 -1.3619
 3019SOL     OW 9955   6.630   0.785   6.013 -0.1379  0.3424  0.6479
 3019SOL    HW1 9956   6.678   0.868   6.041  0.2397 -0.5639  2.8990
 3019SOL    HW2 9957   6.696   0.713   5.992 -0.4610  0.5715 -1.2875
 3020SOL     OW 9958   5.859   3.673   4.877 -0.5295 -0.1732  0.1415
 3020SOL    HW1 9959   5.854   3.574   4.886 -0.4808 -0.4712 -2.3475
 3020SOL    HW2 9960   5.770   3.708   4.844  0.1771  0.2361 -1.4464
 3021SOL     OW 9961   2.718   4.723   4.085  0.2036 -0.4377  0.4313
 3021SOL    HW1 9962   2.793   4.762   4.139 -0.4389  0.5548  0.6210
 3021SOL    HW2 9963   2.668   4.656   4.141 -0.6162  0.7675  1.1964
 3022SOL     OW 9964   2.972   0.573   0.457 -0.1838  0.3043 -0.7024
 3022SOL    HW1 9965   3.022   0.621   0.385 -2.2909 -0.1920 -2.6122
 3022SOL    HW2 9966   2.890   0.530   0.418  0.2543 -2.7414  1.3815
 3023SOL     OW 9967   0.961   3.779   4.099  0.0134  0.2322  0.4328
 3023SOL    HW1 9968   1.036   3.743   4.153  0.3343 -0.8158 -0.6525
 3023SOL    HW2 9969   0.900   3.704   4.073 -1.0529  0.9711  0.7479
 3024SOL     OW 9970   5.281   0.803   5.119  0.2870  0.2684  0.3889
 3024SOL    HW1 9971   5.343   0.878   5.142 -0.1304  0.4469  0.9217
 3024SOL    HW2 9972   5.236   0.770   5.201 -1.2321  0.9273 -0.1406
 3025SOL     OW 9973   3.124   6.459   6.226  0.2882 -0.2455  0.0580
 3025SOL    HW1 9974   3.027   6.441   6.214 -0.1420  0.7544  1.7130
 3025SOL    HW2 9975   3.144   6.472   6.323  1.9645  0.1460 -0.3029
 3026SOL     OW 9976   1.043   0.241   3.410  0.6218  0.8224  0.2072
 3026SOL    HW1 9977   1.053   0.183   3.491 -0.2647  1.4215  0.7757
 3026SOL    HW2 9978   1.054   0.186   3.327  1.0183  0.0979  0.7345
 3027SOL     OW 9979   5.001   0.563   1.592 -0.1587 -0.7034 -0.1235
 3027SOL    HW1 9980   5.100   0.573   1.600 -0.0826 -1.6162  0.1279
 3027SOL    HW2 9981   4.974   0.472   1.622 -0.9571 -0.8766 -1.3038
 3028SOL     OW 9982   3.828   3.134   3.280 -0.5032 -0.3216 -0.4455
 3028SOL    HW1 9983   3.745   3.160   3.330 -0.4900  0.2382 -0.7150
 3028SOL    HW2 9984   3.837   3.190   3.198  0.6896  0.3618  0.1215
 3029SOL     OW 9985   0.601   3.222   5.237  0.4517  0.2117  0.3516
 3029SOL    HW1 9986   0.602   3.157   5.313 -0.1732  0.3269  0.4659
 3029SOL    HW2 9987   0.514   3.272   5.237 -0.1005 -0.6732 -1.1880
 3030SOL     OW 9988   5.825   4.007   6.561 -0.0212 -0.1427  0.0405
 3030SOL    HW1 9989   5.917   4.019   6.524 -0.2290  1.3441 -0.0542
 3030SOL    HW2 9990   5.757   4.031   6.491 -0.4410  0.5338  0.6499
 3031SOL     OW 9991   6.829   4.843   0.720  0.1897 -0.0653 -0.4039
 3031SOL    HW1 9992   6.801   4.937   0.741  0.1382  0.1998 -1.5991
 3031SOL    HW2 9993   6.785   4.780   0.784 -0.2040  0.6711  0.0699
 3032SOL     OW 9994   5.138   1.375   4.386 -0.1477 -0.2980 -0.6463
 3032SOL    HW1 9995   5.064   1.376   4.318  0.1279 -1.1503 -0.9630
 3032SOL    HW2 9996   5.101   1.405   4.474 -1.0176 -1.2523 -0.6602
 3033SOL     OW 9997   1.434   6.648   6.276  0.6295  0.3916  0.6814
 3033SOL    HW1 9998   1.340   6.619   6.292  0.7531  0.4634  1.5870
 3033SOL    HW2 9999   1.439   6.747   6.269  0.5480  0.3530 -0.0781
 3034SOL     OW10000   4.939   3.477   3.555 -0.5118  0.4913 -0.5936
 3034SOL    HW110001   5.029   3.433   3.554 -0.3464  0.8207 -0.3714
 3034SOL    HW210002   4.918   3.512   3.463 -0.4375  0.3705 -0.6571
 3035SOL     OW10003   6.297   5.205   6.049  0.5080 -0.0951 -0.7713
 3035SOL    HW110004   6.278   5.208   5.951 -0.7683  2.0130 -0.5067
 3035SOL    HW210005   6.355   5.282   6.075  0.7329 -0.5571  0.1840
 3036SOL     OW10006   3.380   1.405   6.581  0.1105  0.3587 -0.3367
 3036SOL    HW110007   3.443   1.357   6.520 -0.7855 -0.7545 -0.4366
 3036SOL    HW210008   3.321   1.465   6.527  2.1341  2.7072 -0.0707
 3037SOL     OW10009   0.476   0.127   0.398  0.1873 -0.7022  0.5603
 3037SOL    HW110010   0.501   0.211   0.351 -0.1060 -0.7693  0.2845
 3037SOL    HW210011   0.547   0.104   0.465 -0.4416  0.5776  1.7105
 3038SOL     OW10012   4.709   4.574   0.934  0.2085  0.2392 -0.7281
 3038SOL    HW110013   4.784   4.546   0.875 -2.1791 -1.5455 -3.1298
 3038SOL    HW210014   4.724   4.537   1.026  2.1012 -0.2985 -1.2030
 3039SOL     OW10015   6.055   3.652   0.950  0.2665 -0.2763 -0.1820
 3039SOL    HW110016   6.095   3.740   0.926  0.1718 -0.3580 -0.6624
 3039SOL    HW210017   6.122   3.579   0.930 -1.5156 -0.9279 -5.5253
 3040SOL     OW10018   2.701   6.352   6.765 -0.9840 -0.3070 -0.2825
 3040SOL    HW110019   2.763   6.291   6.815 -1.2505 -0.6073 -0.3216
 3040SOL    HW210020   2.751   6.434   6.737 -0.8123 -0.1625  0.4254
 3041SOL     OW10021   6.857   0.714   0.698 -0.8270  0.2793  0.1546
 3041SOL    HW110022   6.866   0.627   0.650  2.4651 -0.3240  1.5826
 3041SOL    HW210023   6.940   0.731   0.752 -1.2176  4.4155 -0.2205
 3042SOL     OW10024   0.502   6.602   6.214  0.5651  0.2156  0.1520
 3042SOL    HW110025   0.487   6.673   6.283 -0.3147  2.1989 -1.9625
 3042SOL    HW210026   0.415   6.561   6.189  0.9237 -0.7550  0.4539
 3043SOL     OW10027   1.742   5.074   2.175  0.5651  0.3358  0.1275
 3043SOL    HW110028   1.811   5.001   2.181 -1.1183 -1.3870 -0.6633
 3043SOL    HW210029   1.728   5.098   2.079 -0.8713 -0.3080  0.1524
 3044SOL     OW10030   3.169   4.060   4.924 -0.6128 -0.6447 -0.6334
 3044SOL    HW110031   3.234   3.993   4.959  0.5513  0.7482 -0.0495
 3044SOL    HW210032   3.213   4.117   4.855 -0.8338  1.0444  0.5669
 3045SOL     OW10033   5.814   0.901   2.130  0.0554  0.1099 -0.3115
 3045SOL    HW110034   5.836   0.932   2.038  0.9229 -0.1368 -0.2003
 3045SOL    HW210035   5.864   0.957   2.196  1.0148 -0.9904 -0.0783
 3046SOL     OW10036   5.170   5.609   3.397 -0.2785  0.3607 -0.3368
 3046SOL    HW110037   5.256   5.647   3.430  0.3585 -1.6247  0.4285
 3046SOL    HW210038   5.189   5.532   3.336 -1.4935 -0.4928  0.3190
 3047SOL     OW10039   3.987   6.127   2.804  0.0222 -0.0800 -0.5716
 3047SOL    HW110040   4.011   6.224   2.806  1.7882 -0.4310 -2.1934
 3047SOL    HW210041   3.896   6.116   2.762 -0.4654  0.8821  0.1866
 3048SOL     OW10042   3.790   4.787   1.302  0.1151  0.0103 -0.4237
 3048SOL    HW110043   3.694   4.760   1.290  0.2264 -1.0326  0.8001
 3048SOL    HW210044   3.844   4.707   1.328  1.4032  0.5170 -1.3970
 3049SOL     OW10045   6.338   6.231   6.592 -0.3853 -0.4678  0.3592
 3049SOL    HW110046   6.422   6.286   6.595 -0.8373  0.2956 -0.4171
 3049SOL    HW210047   6.288   6.252   6.508 -1.3954 -0.8399  0.8551
 3050SOL     OW10048   4.393   3.252   0.313 -0.3028 -0.2899 -0.3965
 3050SOL    HW110049   4.423   3.177   0.372 -1.0384 -0.8909 -0.7575
 3050SOL    HW210050   4.380   3.335   0.368 -0.6128 -0.7370  0.2199
 3051SOL     OW10051   2.873   4.491   6.339 -0.2637 -0.0107  0.1280
 3051SOL    HW110052   2.902   4.397   6.357 -0.4065 -0.3508 -1.3083
 3051SOL    HW210053   2.950   4.544   6.305 -0.8410 -0.4689 -2.0607
 3052SOL     OW10054   5.958   1.810   4.391  0.1589 -0.3899  0.1659
 3052SOL    HW110055   5.969   1.712   4.376 -1.7651 -0.4977 -0.8413
 3052SOL    HW210056   5.884   1.845   4.333  0.0031  1.4337  1.3653
 3053SOL     OW10057   0.845   5.542   5.266 -0.2477 -0.4804 -0.6986
 3053SOL    HW110058   0.877   5.477   5.197 -1.1170  0.3857 -1.9856
 3053SOL    HW210059   0.916   5.610   5.284 -0.4424  0.0354 -1.7464
 3054SOL     OW10060   5.762   6.499   4.924 -0.0758 -0.2904 -0.1344
 3054SOL    HW110061   5.805   6.548   5.000  0.9657  0.8476 -1.4107
 3054SOL    HW210062   5.786   6.402   4.928  1.1786  0.0259  0.1591
 3055SOL     OW10063   2.824   5.099   0.320 -0.7434 -0.5301 -0.0602
 3055SOL    HW110064   2.736   5.082   0.277 -0.9050  0.7798 -0.2597
 3055SOL    HW210065   2.865   5.181   0.282  1.1105 -1.7318 -0.8030
 3056SOL     OW10066   4.444   2.798   0.486  0.5124  0.2913  0.3905
 3056SOL    HW110067   4.480   2.715   0.529  0.9965 -0.4411 -1.3422
 3056SOL    HW210068   4.425   2.779   0.390  0.3855  2.1353  0.0303
 3057SOL     OW10069   0.125   2.696   2.928 -0.7890 -0.0624 -0.5210
 3057SOL    HW110070   0.225   2.705   2.933 -0.6696 -1.0146 -1.0389
 3057SOL    HW210071   0.084   2.787   2.926 -0.0052  0.3620  0.9235
 3058SOL     OW10072   6.591   4.131   6.762 -0.6502 -0.1442 -0.4250
 3058SOL    HW110073   6.596   4.050   6.703 -1.5951  0.5129 -1.4429
 3058SOL    HW210074   6.602   4.103   6.857 -1.2827 -1.5069 -0.7271
 3059SOL     OW10075   6.704   1.654   3.539  0.0002  0.3258 -0.4462
 3059SOL    HW110076   6.692   1.555   3.539 -0.2020  0.3281  1.0745
 3059SOL    HW210077   6.799   1.676   3.518  0.4750 -0.2942  0.9251
 3060SOL     OW10078   5.019   2.249   2.444 -0.5463  0.4692  0.3039
 3060SOL    HW110079   5.056   2.182   2.509  0.8958  0.4235 -0.5159
 3060SOL    HW210080   4.985   2.329   2.493 -1.2150 -0.3605  1.2208
 3061SOL     OW10081   6.551   5.771   3.060  0.3957  0.4228  0.4562
 3061SOL    HW110082   6.622   5.719   3.012  0.8438  1.0860  0.3883
 3061SOL    HW210083   6.466   5.719   3.060  0.1760  0.7197 -1.6873
 3062SOL     OW10084   3.117   5.351   5.531 -0.0995 -0.1000  0.1479
 3062SOL    HW110085   3.136   5.384   5.438 -0.1642 -0.6091 -0.0494
 3062SOL    HW210086   3.168   5.267   5.548 -0.0359  0.0253  0.6030
 3063SOL     OW10087   0.240   6.025   1.629  0.4663 -0.4518 -1.5768
 3063SOL    HW110088   0.214   5.954   1.694  1.5280 -0.2321 -0.8714
 3063SOL    HW210089   0.322   6.072   1.663  1.1877 -0.4800 -3.1902
 3064SOL     OW10090   3.446   2.233   6.368 -0.2023 -0.1794 -0.2422
 3064SOL    HW110091   3.370   2.188   6.320  0.8443 -0.2576 -1.9242
 3064SOL    HW210092   3.480   2.174   6.441 -0.4190 -1.0666 -0.8406
 3065SOL     OW10093   4.455   2.215   6.679  0.4427 -0.1213 -0.0009
 3065SOL    HW110094   4.499   2.223   6.589 -1.0574 -0.0225 -0.7586
 3065SOL    HW210095   4.507   2.151   6.736  1.1022 -0.6324 -1.1373
 3066SOL     OW10096   5.161   0.475   0.652  0.2221  0.0547  0.5466
 3066SOL    HW110097   5.147   0.429   0.739  0.2889  0.9452  1.0461
 3066SOL    HW210098   5.257   0.466   0.625  0.7034  1.5214  1.6293
 3067SOL     OW10099   6.826   1.724   4.301 -0.2469  0.0051  0.2214
 3067SOL    HW110100   6.729   1.743   4.314 -0.5838 -2.6052  2.4070
 3067SOL    HW210101   6.866   1.795   4.243 -2.8085  2.7583  1.5458
 3068SOL     OW10102   5.566   0.576   6.673 -1.4066 -0.8341  0.8961
 3068SOL    HW110103   5.543   0.485   6.709 -0.7070 -0.6674  1.8170
 3068SOL    HW210104   5.608   0.630   6.745  0.6155 -0.6808 -0.3234
 3069SOL     OW10105   4.681   4.860   5.708  0.3461  0.0011 -0.4215
 3069SOL    HW110106   4.750   4.932   5.717  0.5301 -0.1178 -0.8917
 3069SOL    HW210107   4.594   4.894   5.743  0.4334  0.4515 -0.6279
 3070SOL     OW10108   2.413   2.440   0.441 -0.3088 -0.2800 -0.1249
 3070SOL    HW110109   2.473   2.365   0.413 -0.7305 -0.3658 -0.8164
 3070SOL    HW210110   2.432   2.463   0.537  0.4496 -0.6631 -0.1684
 3071SOL     OW10111   0.652   4.324   5.051 -0.0690 -0.4327 -0.2973
 3071SOL    HW110112   0.683   4.269   5.128 -0.5224 -1.1763 -0.6325
 3071SOL    HW210113   0.691   4.288   4.966 -1.5066 -1.1816 -0.6904
 3072SOL     OW10114   2.868   5.812   3.896 -0.0703  0.3923  0.1603
 3072SOL    HW110115   2.821   5.888   3.852 -0.7617  0.1897  0.5205
 3072SOL    HW210116   2.812   5.778   3.972 -0.3268 -1.1829 -0.6713
 3073SOL     OW10117   0.663   6.222   4.235  0.1384 -0.9369  0.3713
 3073SOL    HW110118   0.703   6.215   4.327 -2.4625 -0.0169  1.6787
 3073SOL    HW210119   0.565   6.205   4.240 -0.1764 -0.2998 -2.1786
 3074SOL     OW10120   1.976   4.496   2.043  0.1522  0.0222 -0.3214
 3074SOL    HW110121   2.044   4.423   2.043  0.5860  0.2967  2.4385
 3074SOL    HW210122   2.015   4.579   2.004  1.4395  0.1528  1.1506
 3075SOL     OW10123   4.283   5.082   0.887 -0.4546 -0.1364  0.0431
 3075SOL    HW110124   4.350   5.154   0.873  0.0178 -0.0507  2.2655
 3075SOL    HW210125   4.218   5.110   0.958 -0.1458 -1.9181  1.1144
 3076SOL     OW10126   0.576   1.335   5.984 -0.0160 -0.4846  0.3188
 3076SOL    HW110127   0.502   1.373   6.040 -0.1836  1.7855 -1.2790
 3076SOL    HW210128   0.659   1.388   5.999  0.2025 -0.4979 -0.7744
 3077SOL     OW10129   6.645   1.717   3.036 -0.4886 -0.1819 -0.5637
 3077SOL    HW110130   6.724   1.778   3.042  0.4005 -1.1661 -1.5294
 3077SOL    HW210131   6.631   1.671   3.124 -0.3769  0.4655 -0.2062
 3078SOL     OW10132   6.245   4.628   1.618 -0.6505 -0.9358 -0.0431
 3078SOL    HW110133   6.293   4.632   1.530 -0.8916 -1.2773 -0.1944
 3078SOL    HW210134   6.262   4.712   1.669  0.1674 -1.0815 -0.0616
 3079SOL     OW10135   0.038   2.992   3.457  0.0592 -0.2068 -0.8847
 3079SOL    HW110136   0.113   2.971   3.520  0.3732 -0.8858 -1.4709
 3079SOL    HW210137  -0.032   3.046   3.505 -0.1297 -1.4548  0.3174
 3080SOL     OW10138   2.795   4.921   1.063 -0.3386  0.5379 -0.4244
 3080SOL    HW110139   2.867   4.864   1.102  0.3966  0.4177 -1.9154
 3080SOL    HW210140   2.714   4.918   1.123  0.6063  0.0740  0.8699
 3081SOL     OW10141   3.531   3.281   5.005 -0.6276  0.5455  0.7246
 3081SOL    HW110142   3.493   3.356   4.951 -0.0938 -0.5675 -1.3173
 3081SOL    HW210143   3.630   3.288   5.007 -0.6379  0.5001  1.4661
 3082SOL     OW10144   6.028   3.985   5.674 -0.1780 -0.1027 -0.2448
 3082SOL    HW110145   6.046   3.956   5.768 -0.1960 -3.0101 -1.0450
 3082SOL    HW210146   6.106   3.960   5.616 -0.4454  1.0427 -1.1415
 3083SOL     OW10147   4.815   4.020   3.424  0.3135 -0.2545 -0.4221
 3083SOL    HW110148   4.837   4.011   3.522  1.3633 -0.0559 -0.6241
 3083SOL    HW210149   4.790   3.930   3.388 -1.2665 -0.1276  0.2823
 3084SOL     OW10150   0.851   4.833   4.067 -0.8150 -0.8183 -0.4640
 3084SOL    HW110151   0.836   4.853   4.164 -0.8550  0.6970 -0.7574
 3084SOL    HW210152   0.798   4.897   4.012  1.0114 -0.1346 -1.5005
 3085SOL     OW10153   0.067   4.505   5.970 -0.2859  0.5459  0.0130
 3085SOL    HW110154   0.147   4.562   5.953 -0.3087  0.4949 -0.2709
 3085SOL    HW210155   0.087   4.411   5.944  0.5757 -0.1089  2.6818
 3086SOL     OW10156   6.836   4.899   5.647  0.0459 -0.1599  0.3203
 3086SOL    HW110157   6.824   4.996   5.626  2.7883 -0.2859 -2.4185
 3086SOL    HW210158   6.766   4.871   5.713 -2.5876  2.9837 -0.8498
 3087SOL     OW10159   3.024   6.965   1.339 -0.3740 -0.0197 -1.3111
 3087SOL    HW110160   3.048   6.948   1.244 -1.3641 -0.2861 -1.5273
 3087SOL    HW210161   2.932   7.006   1.344 -1.0176 -1.4805 -0.4098
 3088SOL     OW10162   2.486   1.632   5.538 -0.0607 -0.3341 -0.4351
 3088SOL    HW110163   2.499   1.711   5.598 -1.2170 -0.3656 -0.1064
 3088SOL    HW210164   2.497   1.548   5.592 -1.7210 -0.3618 -0.0726
 3089SOL     OW10165   2.610   5.324   0.993  0.0754  0.6060  0.1375
 3089SOL    HW110166   2.706   5.340   1.016  0.9900 -2.7363 -0.8658
 3089SOL    HW210167   2.563   5.286   1.073  0.0292  0.6437  0.1281
 3090SOL     OW10168   6.604   0.821   1.382  0.3278  0.3585 -0.2743
 3090SOL    HW110169   6.669   0.746   1.397 -3.3729 -2.8608  1.8880
 3090SOL    HW210170   6.633   0.901   1.433  2.4149 -0.9776  0.7941
 3091SOL     OW10171   2.872   1.875   6.322  0.1171  0.3583  0.3240
 3091SOL    HW110172   2.799   1.807   6.324  0.8726 -0.4681  0.5111
 3091SOL    HW210173   2.833   1.966   6.333 -0.8706 -0.0745  0.5103
 3092SOL     OW10174   5.206   1.966   3.984  0.2277  0.1348  0.4175
 3092SOL    HW110175   5.273   1.956   4.058  1.1049  1.3301 -0.1766
 3092SOL    HW210176   5.138   2.034   4.009 -0.5753 -0.8057  0.8629
 3093SOL     OW10177   5.894   5.632   6.943 -0.0463  0.2967  0.2296
 3093SOL    HW110178   5.868   5.712   6.997  0.4116  1.2054 -0.8317
 3093SOL    HW210179   5.828   5.559   6.956 -0.0771  0.5786  1.8003
 3094SOL     OW10180   1.342   6.601   6.947  0.8290  0.0013  0.2557
 3094SOL    HW110181   1.346   6.697   6.918 -0.1875  0.4604  1.5790
 3094SOL    HW210182   1.248   6.569   6.945  1.0472 -0.6908  0.7055
 3095SOL     OW10183   2.405   4.472   5.849  0.2472  0.8086 -0.1411
 3095SOL    HW110184   2.371   4.378   5.852 -1.3399  1.3662  0.8232
 3095SOL    HW210185   2.349   4.525   5.786  1.6949  0.9436 -1.3784
 3096SOL     OW10186   1.243   3.129   2.967  0.7880 -0.7064 -0.6779
 3096SOL    HW110187   1.216   3.202   2.904  0.9865 -1.1558 -1.2934
 3096SOL    HW210188   1.316   3.074   2.925 -0.0007 -1.8307 -0.6285
 3097SOL     OW10189   4.640   0.569   6.483  0.2089 -0.2903 -0.3703
 3097SOL    HW110190   4.675   0.659   6.508 -1.4804  0.0929  0.8068
 3097SOL    HW210191   4.716   0.508   6.462  1.6981  0.1442  3.1514
 3098SOL     OW10192   3.111   4.906   3.563  0.3017 -0.0176 -0.2046
 3098SOL    HW110193   3.125   4.892   3.661 -0.2933  2.1338  0.2264
 3098SOL    HW210194   3.026   4.861   3.535 -0.4317  0.7998  0.6540
 3099SOL     OW10195   2.426   1.803   4.342 -0.0712 -0.2543 -0.2473
 3099SOL    HW110196   2.523   1.784   4.355  0.2367  0.3578 -1.4948
 3099SOL    HW210197   2.404   1.892   4.381 -0.4201 -0.9333  1.1488
 3100SOL     OW10198   5.268   3.972   3.010 -0.1841 -0.1893  0.7442
 3100SOL    HW110199   5.271   4.070   3.031 -2.4649 -0.4400  2.8015
 3100SOL    HW210200   5.237   3.959   2.916  3.7527  0.9871 -0.9208
 3101SOL     OW10201   3.638   0.894   3.522  0.2269  0.0854  0.0313
 3101SOL    HW110202   3.691   0.817   3.558  1.1676  0.1045 -1.2282
 3101SOL    HW210203   3.678   0.924   3.435  0.5729  2.6875  0.9855
 3102SOL     OW10204   5.585   2.852   1.937 -0.3910 -0.6480  0.1076
 3102SOL    HW110205   5.639   2.913   1.996 -1.8738 -0.2805  1.1198
 3102SOL    HW210206   5.629   2.847   1.847  0.4164  0.9818  0.3676
 3103SOL     OW10207   6.708   1.261   2.250 -0.5903 -0.0049 -0.1650
 3103SOL    HW110208   6.785   1.217   2.297 -1.6294 -0.5373  1.1317
 3103SOL    HW210209   6.627   1.256   2.309 -1.4350  1.1936 -1.1862
 3104SOL     OW10210   5.860   1.802   6.826  0.5826  0.1284  0.0460
 3104SOL    HW110211   5.930   1.800   6.755  2.9494 -0.0097  2.2550
 3104SOL    HW210212   5.851   1.712   6.867 -1.9090 -0.2008 -0.9990
 3105SOL     OW10213   5.399   4.625   1.904 -0.0163 -0.0590 -0.1369
 3105SOL    HW110214   5.342   4.615   1.823 -2.0378 -0.5816  1.2659
 3105SOL    HW210215   5.462   4.547   1.911  1.4847  0.8963 -2.0917
 3106SOL     OW10216   4.043   2.086   3.740  0.1655  0.4550  0.6193
 3106SOL    HW110217   4.099   2.168   3.733 -0.3353  0.6867 -1.4388
 3106SOL    HW210218   3.947   2.109   3.724  0.1635 -0.6360 -1.2677
 3107SOL     OW10219   4.465   2.220   3.447  0.1815 -0.3382 -0.0813
 3107SOL    HW110220   4.523   2.142   3.473 -1.4482 -1.0826  1.5625
 3107SOL    HW210221   4.406   2.194   3.371 -0.2990 -0.7181  0.4085
 3108SOL     OW10222   1.807   4.785   3.624 -0.0700 -0.4005 -0.2641
 3108SOL    HW110223   1.729   4.786   3.562 -0.3388  1.0030  0.0537
 3108SOL    HW210224   1.878   4.846   3.588 -0.4833  0.9359  1.0913
 3109SOL     OW10225   0.666   6.481   2.804 -0.4718 -0.0222 -0.2086
 3109SOL    HW110226   0.697   6.441   2.890 -1.3958  1.1403  0.7033
 3109SOL    HW210227   0.662   6.581   2.812 -0.3995  0.1324 -1.6698
 3110SOL     OW10228   1.132   4.486   3.952 -0.3409  0.4935 -0.0562
 3110SOL    HW110229   1.124   4.389   3.973 -1.4160  0.3592 -1.0004
 3110SOL    HW210230   1.071   4.539   4.012 -0.1871  0.5299  0.0686
 3111SOL     OW10231   1.957   2.266   2.547 -0.2711  0.5811 -0.0684
 3111SOL    HW110232   1.946   2.365   2.556 -0.2188  0.7135 -1.2806
 3111SOL    HW210233   1.878   2.228   2.500 -0.5189 -0.0390  0.8196
 3112SOL     OW10234   5.735   6.553   0.538  0.2322 -0.1126  0.1224
 3112SOL    HW110235   5.673   6.576   0.464 -1.2888  0.9731  1.6664
 3112SOL    HW210236   5.816   6.612   0.533  0.0699  0.0569 -0.5851
 3113SOL     OW10237   0.374   6.415   4.134 -0.2566 -0.3226  0.1020
 3113SOL    HW110238   0.289   6.456   4.102  0.3630 -0.1316 -1.3999
 3113SOL    HW210239   0.355   6.326   4.175 -1.2709  0.1255  0.6241
 3114SOL     OW10240   5.226   4.980   0.092  0.8584  0.1930  0.0341
 3114SOL    HW110241   5.277   4.927   0.025  0.2574  0.0956 -0.3553
 3114SOL    HW210242   5.226   4.932   0.180  1.3536  0.1498  0.0118
 3115SOL     OW10243   5.080   5.898   5.676  0.0962 -0.1497  0.0440
 3115SOL    HW110244   5.000   5.875   5.620  0.8082 -0.0260 -1.0663
 3115SOL    HW210245   5.155   5.926   5.616  0.0689  2.6837  1.1785
 3116SOL     OW10246   3.180   2.438   6.826  0.1086  0.3386  0.4111
 3116SOL    HW110247   3.241   2.517   6.815  1.3600 -0.7470 -0.8495
 3116SOL    HW210248   3.207   2.385   6.906  0.5467  0.1025  0.1095
 3117SOL     OW10249   4.585   1.352   1.656 -0.3322 -0.3304 -0.1957
 3117SOL    HW110250   4.554   1.257   1.666  0.9065 -0.7443 -0.0939
 3117SOL    HW210251   4.531   1.411   1.714  0.0555 -1.2463  1.1508
 3118SOL     OW10252   1.393   1.388   4.642 -0.2510  0.0877  0.1997
 3118SOL    HW110253   1.318   1.429   4.591 -0.4809 -1.1559 -0.5111
 3118SOL    HW210254   1.480   1.415   4.601 -0.3621  0.5550  0.2742
 3119SOL     OW10255   4.219   6.667   3.710  0.7524 -0.5495  0.1208
 3119SOL    HW110256   4.153   6.642   3.639 -0.4299 -1.8215  1.5896
 3119SOL    HW210257   4.203   6.611   3.792  3.7971 -1.0321  0.5065
 3120SOL     OW10258   3.472   4.968   4.159 -0.0445  0.4000  0.1140
 3120SOL    HW110259   3.537   5.040   4.186  0.7471 -0.3313  0.1964
 3120SOL    HW210260   3.478   4.954   4.060  1.3171 -0.9635  0.3545
 3121SOL     OW10261   3.935   6.373   1.996 -0.3390 -0.0664  0.1994
 3121SOL    HW110262   3.968   6.382   2.090 -0.5206  0.9741  0.1840
 3121SOL    HW210263   3.886   6.287   1.985 -1.0984  0.2024  1.3141
 3122SOL     OW10264   4.659   2.558   0.119 -0.2792 -0.5038  0.1112
 3122SOL    HW110265   4.734   2.541   0.055 -0.1930 -0.7359  0.2717
 3122SOL    HW210266   4.573   2.529   0.076 -0.3204  0.0472 -0.1908
 3123SOL     OW10267   2.510   1.201   2.868 -0.0235  0.1904  0.7844
 3123SOL    HW110268   2.595   1.224   2.821 -1.3237  0.0638 -1.8116
 3123SOL    HW210269   2.435   1.254   2.829 -1.7434 -2.3343  0.3795
 3124SOL     OW10270   4.870   5.777   5.553 -0.0335 -0.2353  0.4672
 3124SOL    HW110271   4.928   5.696   5.557  2.2587  1.2708 -0.5277
 3124SOL    HW210272   4.805   5.766   5.477  0.1285 -1.1885  0.4450
 3125SOL     OW10273   3.150   0.267   5.074 -0.1857  0.0933 -0.1656
 3125SOL    HW110274   3.138   0.293   5.170  0.8622 -2.2937  0.6869
 3125SOL    HW210275   3.105   0.180   5.057  0.6147 -0.0841 -1.5416
 3126SOL     OW10276   5.406   4.074   5.006 -0.7852  0.1213 -0.2807
 3126SOL    HW110277   5.475   4.041   4.942  0.6944  0.6414  0.9856
 3126SOL    HW210278   5.357   3.996   5.046 -0.6514 -0.2769 -0.8884
 3127SOL     OW10279   6.738   4.511   5.432  0.3379  0.5433  0.0267
 3127SOL    HW110280   6.788   4.545   5.511 -2.0219 -0.9444  2.3183
 3127SOL    HW210281   6.716   4.587   5.371 -1.2283  2.5788  2.8619
 3128SOL     OW10282   4.694   1.693   1.057 -0.0246  0.0015 -0.4985
 3128SOL    HW110283   4.764   1.644   1.006  1.4075 -1.5211  2.6839
 3128SOL    HW210284   4.608   1.643   1.053  0.5992 -1.1509  0.1487
 3129SOL     OW10285   3.207   3.673   0.621 -0.0450 -0.2040  0.0917
 3129SOL    HW110286   3.135   3.605   0.633  2.4417 -2.7668  1.5149
 3129SOL    HW210287   3.255   3.656   0.535 -1.8222  2.3565 -1.5609
 3130SOL     OW10288   0.488   0.724   2.761 -0.0109 -0.1076 -0.0313
 3130SOL    HW110289   0.510   0.774   2.845 -0.8723  1.4473 -0.6820
 3130SOL    HW210290   0.571   0.683   2.724  0.8154  1.1387  0.3683
 3131SOL     OW10291   0.374   0.431   5.615  0.1567 -0.0608 -0.1547
 3131SOL    HW110292   0.418   0.424   5.526  0.0616 -0.7940 -0.1513
 3131SOL    HW210293   0.443   0.450   5.685  0.3331 -0.2029 -0.2888
 3132SOL     OW10294   5.023   3.069   5.249 -0.1293 -0.0532 -0.1658
 3132SOL    HW110295   4.960   3.140   5.216  0.5247  0.4851 -0.2857
 3132SOL    HW210296   5.063   3.098   5.336  0.6910  0.0675 -0.5698
 3133SOL     OW10297   6.616   6.723   3.839  0.1337 -0.1472 -0.5550
 3133SOL    HW110298   6.580   6.802   3.789 -0.8417  0.3318  0.8655
 3133SOL    HW210299   6.613   6.643   3.779 -2.3275  0.0998 -0.8617
 3134SOL     OW10300   3.436   5.268   3.656  0.6868  0.0173 -0.8731
 3134SOL    HW110301   3.368   5.341   3.651  0.1938 -0.1887  1.6544
 3134SOL    HW210302   3.390   5.179   3.647 -0.0431 -0.3002  3.6820
 3135SOL     OW10303   4.121   1.198   5.522  0.6733 -0.2355 -0.1358
 3135SOL    HW110304   4.145   1.285   5.565  0.6566  0.8895 -2.2559
 3135SOL    HW210305   4.035   1.165   5.559  1.0520  0.2577  1.2292
 3136SOL     OW10306   6.927   5.754   1.518  0.3495  0.4838  0.3821
 3136SOL    HW110307   7.021   5.743   1.550  0.6789 -1.8078 -1.1582
 3136SOL    HW210308   6.864   5.718   1.587  0.9530 -2.6622 -0.5490
 3137SOL     OW10309   5.644   3.941   1.366 -0.3614  0.3852  0.0165
 3137SOL    HW110310   5.691   3.894   1.292 -2.3186  0.0520 -1.0923
 3137SOL    HW210311   5.545   3.925   1.358 -0.7822  1.8569  1.6361
 3138SOL     OW10312   0.446   6.189   4.920 -0.4907 -0.3992  0.5564
 3138SOL    HW110313   0.442   6.107   4.862  1.3388 -1.3003  1.6206
 3138SOL    HW210314   0.454   6.161   5.016 -1.9170  1.0653  1.1558
 3139SOL     OW10315   1.216   4.648   0.689  0.5911  0.4885  0.1605
 3139SOL    HW110316   1.285   4.707   0.646 -0.3146  1.9941  0.6750
 3139SOL    HW210317   1.166   4.701   0.758 -0.6060 -0.7645  0.2905
 3140SOL     OW10318   4.130   3.466   5.802  0.6932 -0.1109 -0.1004
 3140SOL    HW110319   4.071   3.488   5.880  2.7738 -1.4758  2.0056
 3140SOL    HW210320   4.102   3.379   5.761 -0.0191  0.2990 -0.5068
 3141SOL     OW10321   4.650   5.097   1.928 -0.0904 -0.2250 -0.2664
 3141SOL    HW110322   4.663   5.110   1.830  0.2744  1.1317 -0.0655
 3141SOL    HW210323   4.594   5.016   1.945  0.9418 -1.2548 -1.5340
 3142SOL     OW10324   5.253   2.134   2.883  0.3562 -0.0496  0.3900
 3142SOL    HW110325   5.178   2.095   2.830  1.1914 -0.7304 -0.3357
 3142SOL    HW210326   5.297   2.062   2.936  0.1696  0.4433  1.2240
 3143SOL     OW10327   5.613   0.901   1.104 -0.0988  0.2409  0.0795
 3143SOL    HW110328   5.670   0.983   1.099  0.6100 -0.2786 -0.6346
 3143SOL    HW210329   5.547   0.902   1.029  0.8533 -0.5091 -0.7990
 3144SOL     OW10330   2.633   4.280   0.143 -0.2033 -0.2112 -0.4801
 3144SOL    HW110331   2.622   4.263   0.241  0.9922 -1.7372 -0.5773
 3144SOL    HW210332   2.679   4.367   0.130  2.1776 -1.2253  0.4817
 3145SOL     OW10333   0.043   0.827   5.073  0.0097 -0.2815  0.2646
 3145SOL    HW110334  -0.005   0.796   5.155  1.4739 -2.2909  0.4474
 3145SOL    HW210335   0.082   0.748   5.026  0.8328  1.0131 -1.3263
 3146SOL     OW10336   6.206   0.661   4.801 -0.2571  0.2488  0.1366
 3146SOL    HW110337   6.232   0.751   4.836 -0.5424  0.7499 -0.8933
 3146SOL    HW210338   6.287   0.614   4.766 -0.3741  0.9013 -1.0581
 3147SOL     OW10339   4.545   5.910   1.152 -0.2754  0.5831 -0.0712
 3147SOL    HW110340   4.516   5.957   1.235  0.1720  0.2641  0.2724
 3147SOL    HW210341   4.466   5.869   1.107 -0.2928 -0.9292  1.2523
 3148SOL     OW10342   5.834   4.542   2.155  0.3067 -0.4444 -0.2620
 3148SOL    HW110343   5.808   4.587   2.240  0.7530 -1.3697  0.3832
 3148SOL    HW210344   5.925   4.574   2.127  0.4282 -0.6067 -0.0512
 3149SOL     OW10345   3.583   4.790   6.756 -0.1186  0.4599  0.1671
 3149SOL    HW110346   3.623   4.794   6.848 -0.1699 -2.3178  0.4144
 3149SOL    HW210347   3.484   4.796   6.762 -0.1940 -0.6869  0.4653
 3150SOL     OW10348   0.484   0.193   5.874 -0.0700 -0.2882  0.0569
 3150SOL    HW110349   0.540   0.122   5.915 -1.6023 -1.3642  0.3693
 3150SOL    HW210350   0.440   0.158   5.792 -0.0416  0.6387 -0.3673
 3151SOL     OW10351   1.789   0.885   6.989 -0.4897  0.3352 -0.2550
 3151SOL    HW110352   1.698   0.906   7.025 -0.0355  1.6827  0.1703
 3151SOL    HW210353   1.806   0.940   6.907 -0.0471  0.0951 -0.3275
 3152SOL     OW10354   3.377   1.546   3.282  0.0969 -0.2876 -0.2861
 3152SOL    HW110355   3.411   1.465   3.331  1.2404  0.5549  0.3729
 3152SOL    HW210356   3.436   1.624   3.303 -0.2199  0.4288 -1.9400
 3153SOL     OW10357   6.677   5.167   3.133  0.2237 -0.3055 -0.0830
 3153SOL    HW110358   6.644   5.097   3.197  0.3860 -0.3863 -0.0848
 3153SOL    HW210359   6.604   5.191   3.069 -1.3079  2.6762  2.5426
 3154SOL     OW10360   4.845   2.202   6.908 -0.0361 -0.0147  0.2012
 3154SOL    HW110361   4.866   2.279   6.849 -1.6937 -0.0026 -0.4238
 3154SOL    HW210362   4.795   2.132   6.856 -0.8432 -0.3526  1.3697
 3155SOL     OW10363   6.119   6.706   0.025 -0.2725 -0.1441 -0.3134
 3155SOL    HW110364   6.060   6.633   0.058 -2.1488  2.1899  1.8147
 3155SOL    HW210365   6.121   6.705  -0.075 -1.9073 -1.8062 -0.3675
 3156SOL     OW10366   2.107   4.706   1.930  0.5817  0.3667  0.0210
 3156SOL    HW110367   2.178   4.747   1.989 -0.5206  2.3362  0.0602
 3156SOL    HW210368   2.151   4.656   1.856  2.0675  2.0912 -0.3428
 3157SOL     OW10369   0.904   1.841   1.460 -0.5429  0.6616  0.4502
 3157SOL    HW110370   0.852   1.800   1.385 -2.1521  2.5686  0.4312
 3157SOL    HW210371   0.954   1.770   1.509 -0.4570 -0.7918 -1.6383
 3158SOL     OW10372   1.634   0.226   6.880  0.4473 -0.2747 -0.2377
 3158SOL    HW110373   1.688   0.147   6.910 -0.0411 -0.0818  1.2468
 3158SOL    HW210374   1.660   0.251   6.787  1.7705 -1.1744 -0.1369
 3159SOL     OW10375   5.259   5.474   5.648 -0.2613  0.3797 -0.8006
 3159SOL    HW110376   5.353   5.475   5.683  0.6399 -3.0648 -2.7095
 3159SOL    HW210377   5.197   5.445   5.720  0.6924 -0.7922 -0.4165
 3160SOL     OW10378   0.131   0.053   4.518  0.8196  0.1615 -0.2490
 3160SOL    HW110379   0.111   0.045   4.616 -0.2926 -3.1492 -0.5931
 3160SOL    HW210380   0.047   0.034   4.466  0.7932  4.0758 -1.9949
 3161SOL     OW10381   1.403   3.772   1.310  0.8866 -0.3375 -0.1016
 3161SOL    HW110382   1.497   3.763   1.343  0.5747 -1.1926  0.5926
 3161SOL    HW210383   1.355   3.843   1.363  1.1172  0.0601 -0.4201
 3162SOL     OW10384   0.951   0.176   0.312  0.0942  0.1366 -0.2525
 3162SOL    HW110385   1.038   0.202   0.355 -0.0232  0.1588 -0.0234
 3162SOL    HW210386   0.877   0.231   0.352 -0.0559 -0.0423 -0.2857
 3163SOL     OW10387   5.121   4.815   0.859  0.2453  0.0165 -0.0122
 3163SOL    HW110388   5.102   4.804   0.957  0.5055  2.2088  0.3169
 3163SOL    HW210389   5.216   4.789   0.841 -0.6547 -3.5568 -0.3308
 3164SOL     OW10390   1.867   6.679   1.693 -0.0337  0.4569 -0.1596
 3164SOL    HW110391   1.848   6.604   1.630 -0.7911  1.0110 -0.6169
 3164SOL    HW210392   1.963   6.705   1.687 -0.0349  0.3033 -0.8736
 3165SOL     OW10393   0.681   3.286   0.088  0.1926  0.0405  0.0996
 3165SOL    HW110394   0.666   3.384   0.079 -0.6664 -0.0896  0.0255
 3165SOL    HW210395   0.641   3.238   0.010 -0.8892 -0.4974  0.9510
 3166SOL     OW10396   4.347   2.656   5.299 -0.1661 -0.1513  0.0472
 3166SOL    HW110397   4.362   2.695   5.390 -0.3165 -2.0768  0.9393
 3166SOL    HW210398   4.250   2.637   5.287 -0.0645 -0.4632 -0.2799
 3167SOL     OW10399   2.398   3.056   5.970 -0.0488 -0.2290 -0.6076
 3167SOL    HW110400   2.490   3.022   5.990  0.2647  1.4235  1.1463
 3167SOL    HW210401   2.330   3.000   6.017  0.3834  0.7638  1.3271
 3168SOL     OW10402   0.011   2.170   0.570 -0.1214  0.4351  0.1840
 3168SOL    HW110403  -0.017   2.108   0.497  1.8055  1.0810 -1.1902
 3168SOL    HW210404  -0.028   2.261   0.554 -1.5544  0.0536  1.2681
 3169SOL     OW10405   1.694   2.238   2.460 -0.1261  0.4398 -0.2444
 3169SOL    HW110406   1.600   2.260   2.435 -0.7490  0.2380  1.7475
 3169SOL    HW210407   1.717   2.146   2.429 -0.6825  0.3723 -0.4571
 3170SOL     OW10408   2.587   4.543   3.343  0.3059 -0.2725 -0.1968
 3170SOL    HW110409   2.500   4.591   3.330 -0.2667 -1.2531 -0.0329
 3170SOL    HW210410   2.629   4.526   3.253  0.3303  0.1770 -0.2761
 3171SOL     OW10411   3.835   1.738   4.748 -0.3833  0.1545  0.4733
 3171SOL    HW110412   3.874   1.692   4.668  2.7381  0.2196  1.8197
 3171SOL    HW210413   3.798   1.827   4.721  1.4198  0.5762 -0.8069
 3172SOL     OW10414   0.651   3.910   2.189  0.4635 -0.0251  0.4356
 3172SOL    HW110415   0.670   3.925   2.286 -0.9643  0.6985  0.6276
 3172SOL    HW210416   0.601   3.988   2.152  1.1650 -0.2078 -0.9484
 3173SOL     OW10417   4.117   3.611   1.513  0.3099  0.2589  0.2060
 3173SOL    HW110418   4.202   3.613   1.459  0.6191  1.0245  0.6926
 3173SOL    HW210419   4.071   3.524   1.501  1.7913 -0.6518  0.8845
 3174SOL     OW10420   1.702   2.715   6.576  0.3163  0.2319  0.5172
 3174SOL    HW110421   1.629   2.775   6.542  0.5738  0.1566 -0.1858
 3174SOL    HW210422   1.777   2.771   6.611 -0.5128  0.3283  2.2907
 3175SOL     OW10423   5.086   5.863   5.148  0.2967  0.4679 -0.3745
 3175SOL    HW110424   5.016   5.934   5.143  0.0831  0.2816 -0.0404
 3175SOL    HW210425   5.174   5.902   5.121  0.2570  0.9698  0.1990
 3176SOL     OW10426   6.721   5.632   2.642 -0.0230  0.3531 -0.3756
 3176SOL    HW110427   6.650   5.579   2.596  0.4407 -0.4675 -0.1611
 3176SOL    HW210428   6.680   5.682   2.718 -0.0129 -2.0152  1.3037
 3177SOL     OW10429   4.589   2.643   3.534 -0.1752  0.1959  0.2328
 3177SOL    HW110430   4.636   2.679   3.615  1.8453  0.3182 -0.9415
 3177SOL    HW210431   4.624   2.687   3.452 -2.6620  0.5627 -0.7399
 3178SOL     OW10432   0.896   0.998   0.642 -0.9650  0.0739  0.5574
 3178SOL    HW110433   0.915   0.987   0.545  0.2510 -0.7231  0.8615
 3178SOL    HW210434   0.876   1.094   0.662 -1.4289  0.2048 -0.5056
 3179SOL     OW10435   6.983   5.463   2.627 -0.0559 -0.2518  0.4123
 3179SOL    HW110436   7.036   5.407   2.691 -0.3686 -1.3708 -0.2642
 3179SOL    HW210437   6.886   5.457   2.650 -0.2916 -1.5144 -0.7239
 3180SOL     OW10438   0.051   7.009   5.946 -0.2886  0.2157  0.5672
 3180SOL    HW110439   0.114   6.933   5.965 -1.4700 -0.3438  2.6643
 3180SOL    HW210440   0.074   7.051   5.858  2.7308 -0.1850  1.0587
 3181SOL     OW10441   0.552   0.729   5.572  0.1185  0.4609  0.1129
 3181SOL    HW110442   0.554   0.712   5.671  1.2074  2.2346  0.4311
 3181SOL    HW210443   0.645   0.736   5.537 -0.2360 -0.9057 -1.2234
 3182SOL     OW10444   1.087   0.429   1.639  0.3592  0.1698  0.3075
 3182SOL    HW110445   1.145   0.482   1.702 -0.2810  0.9028  0.2948
 3182SOL    HW210446   1.130   0.428   1.549  1.3823 -1.0516  0.7747
 3183SOL     OW10447   4.505   5.220   0.865 -0.0730 -0.1888  0.0965
 3183SOL    HW110448   4.572   5.231   0.791  1.1464 -1.0154  1.0453
 3183SOL    HW210449   4.474   5.310   0.896  0.3010  0.1902 -0.5928
 3184SOL     OW10450   5.014   0.193   5.871  0.6048  0.1637  0.5795
 3184SOL    HW110451   4.937   0.135   5.845  0.3174  1.1609 -0.9276
 3184SOL    HW210452   4.993   0.240   5.957 -0.8190  1.0071 -0.1978
 3185SOL     OW10453   0.970   6.979   6.563  0.3849  0.1123  0.7204
 3185SOL    HW110454   0.993   6.883   6.580  1.0320  0.1532  0.0883
 3185SOL    HW210455   0.936   6.989   6.469 -1.2440  0.2347  1.2816
 3186SOL     OW10456   1.094   1.826   5.341 -0.0176  0.3243  0.6269
 3186SOL    HW110457   1.124   1.898   5.279  0.0266  1.0070  1.4212
 3186SOL    HW210458   1.169   1.762   5.357  0.1294  0.4343  0.3869
 3187SOL     OW10459   5.379   1.212   3.762  0.3166 -0.2715 -0.1906
 3187SOL    HW110460   5.369   1.250   3.670  0.4580 -0.0296 -0.1082
 3187SOL    HW210461   5.477   1.203   3.784  0.2914 -0.9392 -0.3109
 3188SOL     OW10462   0.787   0.358   1.686 -0.2629 -0.4202  0.1650
 3188SOL    HW110463   0.884   0.382   1.681 -0.4217  0.5592  1.3446
 3188SOL    HW210464   0.778   0.263   1.716  0.3325 -0.0400  1.6322
 3189SOL     OW10465   4.182   2.123   6.579 -0.2664 -0.0490 -0.5388
 3189SOL    HW110466   4.161   2.109   6.482 -0.9907 -0.5274 -0.3245
 3189SOL    HW210467   4.280   2.143   6.589 -0.1269 -0.2694 -1.3394
 3190SOL     OW10468   6.678   5.566   4.198  0.3742 -0.2598 -0.0027
 3190SOL    HW110469   6.662   5.471   4.171  2.6858 -0.3293 -1.4727
 3190SOL    HW210470   6.615   5.626   4.149 -0.2864 -0.9368 -0.0019
 3191SOL     OW10471   3.706   3.539   6.608 -0.1324 -0.4884 -0.0674
 3191SOL    HW110472   3.794   3.528   6.655 -0.4129  0.5360  0.7199
 3191SOL    HW210473   3.698   3.631   6.571 -1.1536 -0.3427  0.4705
 3192SOL     OW10474   4.931   1.844   4.262  0.3327 -0.4811  0.4562
 3192SOL    HW110475   4.900   1.887   4.177 -1.6734  0.6186  1.6725
 3192SOL    HW210476   4.868   1.866   4.336  1.8366 -1.6862  2.1997
 3193SOL     OW10477   2.862   3.491   6.493 -0.4135 -0.0968 -0.2526
 3193SOL    HW110478   2.841   3.588   6.486  0.8104  0.1317 -0.9047
 3193SOL    HW210479   2.946   3.479   6.545  1.4386 -0.5378 -3.1411
 3194SOL     OW10480   3.765   0.214   3.505 -0.4073  1.4075 -0.3350
 3194SOL    HW110481   3.738   0.118   3.496 -1.2918  1.7877 -2.3269
 3194SOL    HW210482   3.864   0.222   3.492  0.0187  0.5797  1.9156
 3195SOL     OW10483   3.191   1.242   2.112  0.3939  0.1255  0.2422
 3195SOL    HW110484   3.229   1.203   2.028 -0.2532 -0.7141  0.3277
 3195SOL    HW210485   3.207   1.341   2.113  2.0797 -0.1160  0.0341
 3196SOL     OW10486   0.342   3.262   3.180 -0.6426  0.4835  0.7764
 3196SOL    HW110487   0.366   3.188   3.118 -0.7940 -0.1872  1.4970
 3196SOL    HW210488   0.416   3.329   3.183  0.4395 -0.7101  1.7109
 3197SOL     OW10489   3.176   0.134   6.554 -0.5087  0.2097  0.3626
 3197SOL    HW110490   3.237   0.099   6.625  0.0057 -0.4133 -0.3786
 3197SOL    HW210491   3.224   0.201   6.499 -0.9666  0.8292  0.7049
 3198SOL     OW10492   5.900   5.288   2.755  0.3867  0.5276  0.5849
 3198SOL    HW110493   5.863   5.341   2.832 -0.9425  0.3122  0.1202
 3198SOL    HW210494   5.928   5.198   2.787  1.7266  1.1309  1.1873
 3199SOL     OW10495   4.645   2.338   4.377  0.0989 -0.1408  0.4448
 3199SOL    HW110496   4.705   2.299   4.447 -0.2050  0.0705  0.8298
 3199SOL    HW210497   4.580   2.401   4.420 -0.0375  0.0585 -0.0403
 3200SOL     OW10498   6.015   2.879   5.938 -0.2766  0.1210 -0.5891
 3200SOL    HW110499   6.095   2.823   5.959 -0.1955  0.3127 -0.3852
 3200SOL    HW210500   6.044   2.967   5.902 -0.3416  0.7777  0.8865
 3201SOL     OW10501   1.074   3.697   3.365  0.1444  0.0407 -0.2900
 3201SOL    HW110502   1.159   3.722   3.412  0.2500  0.0460 -0.4797
 3201SOL    HW210503   1.076   3.734   3.272  0.1381 -0.3620 -0.4519
 3202SOL     OW10504   2.994   1.277   6.917 -0.1934  0.0946 -0.0234
 3202SOL    HW110505   2.923   1.280   6.987 -1.7387 -1.4335 -1.4231
 3202SOL    HW210506   3.071   1.222   6.949 -1.6107 -2.0146 -0.0995
 3203SOL     OW10507   3.807   5.792   1.045  1.1514 -1.1728 -0.0158
 3203SOL    HW110508   3.838   5.745   1.128  1.2340 -0.9875  0.0600
 3203SOL    HW210509   3.834   5.888   1.050  0.2897 -0.9273  0.2002
 3204SOL     OW10510   0.755   6.461   2.536 -0.4422 -0.2081  0.0538
 3204SOL    HW110511   0.778   6.554   2.508  1.2713 -1.1779 -2.0196
 3204SOL    HW210512   0.719   6.463   2.629  0.4461  2.4022  0.4331
 3205SOL     OW10513   6.159   3.064   0.659  0.3674 -0.3379 -0.8388
 3205SOL    HW110514   6.061   3.081   0.652  0.2328 -0.6736  0.0964
 3205SOL    HW210515   6.207   3.120   0.593 -0.5223 -0.8500 -1.9568
 3206SOL     OW10516   3.567   3.695   6.911 -0.2794 -0.2822  0.1639
 3206SOL    HW110517   3.602   3.770   6.853 -1.1585 -0.2552 -0.3552
 3206SOL    HW210518   3.478   3.721   6.948 -0.6036 -1.0742 -0.0373
 3207SOL     OW10519   1.675   6.295   2.793 -0.5162 -0.8353 -0.0366
 3207SOL    HW110520   1.584   6.256   2.782 -0.5278 -0.6375 -0.6941
 3207SOL    HW210521   1.670   6.395   2.787 -0.3676 -0.7714  0.7720
 3208SOL     OW10522   0.797   4.566   6.064 -0.1898  0.2383  0.3225
 3208SOL    HW110523   0.746   4.617   5.994  1.6218 -0.3233 -1.4868
 3208SOL    HW210524   0.873   4.622   6.097  0.0235 -0.1825  0.5492
 3209SOL     OW10525   3.419   0.259   3.016 -0.3828  0.4428 -0.1815
 3209SOL    HW110526   3.489   0.295   3.078 -1.2464  1.6859  0.1142
 3209SOL    HW210527   3.341   0.225   3.068  0.2003 -1.4764 -0.4864
 3210SOL     OW10528   2.848   4.400   0.443  1.1846 -0.4122  0.0768
 3210SOL    HW110529   2.942   4.408   0.474  0.8711  1.5794  0.6559
 3210SOL    HW210530   2.836   4.449   0.357  0.3408  0.8751  0.8830
 3211SOL     OW10531   2.107   6.703   5.554  0.6694  0.1803 -0.3378
 3211SOL    HW110532   2.188   6.701   5.496  1.0214  0.2107  0.1396
 3211SOL    HW210533   2.041   6.636   5.522  1.1573 -0.3007 -0.3563
 3212SOL     OW10534   6.823   0.462   3.466 -1.3487  0.4458 -0.3917
 3212SOL    HW110535   6.766   0.386   3.500  0.2452 -0.8383 -0.4718
 3212SOL    HW210536   6.862   0.437   3.378  1.9590 -0.1375  1.1202
 3213SOL     OW10537   6.914   1.559   5.629 -0.6028  0.3553  0.5787
 3213SOL    HW110538   6.897   1.564   5.530  0.4652  0.8641  0.4063
 3213SOL    HW210539   6.935   1.650   5.663 -1.4696  0.2628  1.3845
 3214SOL     OW10540   2.969   6.696   3.152 -0.0971 -0.4324 -0.2251
 3214SOL    HW110541   2.991   6.689   3.055  0.9590  0.2226 -0.0527
 3214SOL    HW210542   2.958   6.793   3.177  0.1895 -0.5590  0.4227
 3215SOL     OW10543   3.354   2.993   1.944 -0.4581 -0.1369 -0.8406
 3215SOL    HW110544   3.355   2.895   1.925 -1.8031 -0.1765 -0.8556
 3215SOL    HW210545   3.283   3.037   1.887  1.1610  1.1147 -1.9924
 3216SOL     OW10546   0.358   4.605   2.399  0.2547  0.7180 -0.2545
 3216SOL    HW110547   0.287   4.597   2.469  1.4679 -3.3065  0.7455
 3216SOL    HW210548   0.430   4.666   2.432 -0.8002  1.6366  0.4389
 3217SOL     OW10549   1.247   0.619   4.802  0.0045  0.1144 -0.5004
 3217SOL    HW110550   1.171   0.653   4.858 -1.7776 -2.2243 -1.3266
 3217SOL    HW210551   1.328   0.607   4.859 -1.1813 -0.3782  1.1424
 3218SOL     OW10552   6.965   2.149   2.616 -0.2258  0.7517  0.3952
 3218SOL    HW110553   6.877   2.123   2.577 -1.0550  1.2157  1.8853
 3218SOL    HW210554   6.952   2.222   2.683  1.4011  1.3744  0.0839
 3219SOL     OW10555   3.893   1.997   6.102  0.2994 -0.0261 -0.0189
 3219SOL    HW110556   3.801   2.017   6.136  0.6680  0.2901  0.8249
 3219SOL    HW210557   3.889   1.983   6.003 -0.8264 -1.0771  0.1362
 3220SOL     OW10558   0.803   5.241   4.379 -0.2725  0.0729 -0.7101
 3220SOL    HW110559   0.784   5.147   4.407  0.3841  0.1756  0.1396
 3220SOL    HW210560   0.804   5.300   4.460  0.6201  0.5819 -1.0732
 3221SOL     OW10561   4.149   1.597   1.939  0.6279 -0.2617 -0.3653
 3221SOL    HW110562   4.064   1.609   1.887  0.3606 -0.4643  0.0181
 3221SOL    HW210563   4.174   1.500   1.941 -0.4704 -0.5639  1.5644
 3222SOL     OW10564   4.368   2.368   3.204  0.0119 -0.5288 -0.6133
 3222SOL    HW110565   4.340   2.373   3.108  0.0207  1.6695 -0.5448
 3222SOL    HW210566   4.316   2.434   3.258  0.3531 -1.3882  0.8248
 3223SOL     OW10567   2.203   6.000   3.009 -0.3507  0.2012  0.2814
 3223SOL    HW110568   2.285   5.980   2.955 -0.3031  1.3401 -0.0954
 3223SOL    HW210569   2.159   5.914   3.036  0.4372 -0.4087 -0.3245
 3224SOL     OW10570   4.661   0.773   1.720  0.3374  0.2225 -0.6161
 3224SOL    HW110571   4.580   0.752   1.775  0.5923 -0.7940 -0.5970
 3224SOL    HW210572   4.634   0.823   1.638 -0.0873  1.4570  0.2443
 3225SOL     OW10573   3.690   1.959   4.706  0.0015 -0.3084  1.2640
 3225SOL    HW110574   3.735   2.016   4.637 -0.9764 -0.1202  0.7677
 3225SOL    HW210575   3.600   1.997   4.727 -0.5518 -1.5129  1.1406
 3226SOL     OW10576   4.810   0.878   5.775  0.5769 -0.3379  0.5198
 3226SOL    HW110577   4.813   0.919   5.866 -0.9855 -0.7918  0.8059
 3226SOL    HW210578   4.743   0.926   5.718 -0.5510 -1.8213  0.5447
 3227SOL     OW10579   5.865   5.137   4.464  0.0170 -0.0949  0.3174
 3227SOL    HW110580   5.873   5.189   4.549  0.7721  1.1591 -0.4854
 3227SOL    HW210581   5.956   5.106   4.436 -0.3036 -1.0102  0.2626
 3228SOL     OW10582   1.611   5.188   0.975  0.5238  0.0766 -0.1882
 3228SOL    HW110583   1.613   5.287   0.984 -3.9355  0.4096 -0.7649
 3228SOL    HW210584   1.558   5.163   0.894 -2.2598 -2.6680  2.2199
 3229SOL     OW10585   6.953   2.015   0.375  0.5054  0.5118 -0.3860
 3229SOL    HW110586   7.023   1.946   0.393  0.2050  0.0983 -0.7636
 3229SOL    HW210587   6.962   2.047   0.280  1.1934  1.6368  0.0440
 3230SOL     OW10588   4.905   0.870   6.986 -0.3746 -0.4781  0.2197
 3230SOL    HW110589   4.885   0.962   7.020  0.1263 -0.3542  0.1847
 3230SOL    HW210590   4.977   0.829   7.042 -0.5672 -0.8363  0.2089
 3231SOL     OW10591   4.561   0.480   2.091 -0.3876  0.4523  0.3484
 3231SOL    HW110592   4.509   0.471   2.006  0.4883 -1.2931 -0.0529
 3231SOL    HW210593   4.503   0.521   2.161 -1.4022  1.1134 -0.8311
 3232SOL     OW10594   2.439   5.143   1.550 -0.2555 -0.2587 -0.4558
 3232SOL    HW110595   2.458   5.233   1.511 -1.3255  0.1029 -0.1828
 3232SOL    HW210596   2.525   5.093   1.563  0.2277  0.0824 -2.1167
 3233SOL     OW10597   6.972   6.633   6.181  0.2105 -0.4494 -0.2550
 3233SOL    HW110598   6.936   6.700   6.245 -0.2287 -1.4969  0.6299
 3233SOL    HW210599   7.049   6.585   6.223 -2.3106 -3.6987  1.0512
 3234SOL     OW10600   2.755   3.228   0.562 -0.1312  0.5914 -0.4788
 3234SOL    HW110601   2.818   3.285   0.509  1.7318 -1.4839 -0.6289
 3234SOL    HW210602   2.705   3.168   0.501 -1.2279  1.2196 -0.2195
 3235SOL     OW10603   0.434   3.131   3.726 -0.1466  0.1625  0.1793
 3235SOL    HW110604   0.380   3.212   3.746 -2.8506 -1.6588  0.8262
 3235SOL    HW210605   0.474   3.096   3.811  2.3534  1.5876 -0.3156
 3236SOL     OW10606   6.868   5.593   2.181  0.4150  0.2557 -0.3634
 3236SOL    HW110607   6.919   5.508   2.187 -1.9737 -1.1964  1.6934
 3236SOL    HW210608   6.869   5.638   2.270 -1.1241  0.6012 -0.4912
 3237SOL     OW10609   0.332   2.788   4.684  0.6442 -0.2189  0.1590
 3237SOL    HW110610   0.274   2.828   4.613  2.1819  1.0794 -0.4306
 3237SOL    HW210611   0.306   2.825   4.773  0.7722  0.6415 -0.1477
 3238SOL     OW10612   0.755   6.170   0.953  0.5973 -0.3430  0.2925
 3238SOL    HW110613   0.820   6.227   0.904  0.1495  0.1454  0.2484
 3238SOL    HW210614   0.796   6.137   1.039  1.7572 -2.0724 -0.8648
 3239SOL     OW10615   0.061   1.219   5.225  0.3398  0.0907 -0.3454
 3239SOL    HW110616   0.096   1.309   5.198 -0.3565  0.9033  1.3039
 3239SOL    HW210617  -0.022   1.199   5.174  0.2749  0.5673 -0.4328
 3240SOL     OW10618   1.489   3.027   1.784  0.0472  1.0750  0.2620
 3240SOL    HW110619   1.487   2.944   1.840  0.8452  1.8695  1.5315
 3240SOL    HW210620   1.410   3.084   1.807  0.5421  1.5470  0.8628
 3241SOL     OW10621   0.195   3.565   4.477 -0.1162 -0.2346  0.8057
 3241SOL    HW110622   0.235   3.503   4.544 -0.1150 -0.2495  0.7914
 3241SOL    HW210623   0.143   3.512   4.409  3.0079 -0.6418 -1.4629
 3242SOL     OW10624   1.949   4.364   2.474 -0.1220  0.8211  0.1156
 3242SOL    HW110625   1.981   4.374   2.568  0.9650  0.9924 -0.2466
 3242SOL    HW210626   2.000   4.428   2.415  1.4698 -1.4191 -1.0642
 3243SOL     OW10627   6.607   6.950   4.616 -0.6682  0.4438 -0.2656
 3243SOL    HW110628   6.571   6.992   4.699 -0.9574 -0.0885 -0.1218
 3243SOL    HW210629   6.687   6.894   4.638 -0.7333  0.3180 -0.3461
 3244SOL     OW10630   5.641   0.293   6.268 -0.1612 -0.5742  0.0735
 3244SOL    HW110631   5.575   0.367   6.287  1.0692  0.7196 -0.4694
 3244SOL    HW210632   5.654   0.238   6.350 -2.1804 -1.1016  0.0892
 3245SOL     OW10633   2.313   5.734   4.416  0.1008 -0.1097  0.7488
 3245SOL    HW110634   2.329   5.832   4.405 -2.0431 -0.0092 -2.4421
 3245SOL    HW210635   2.394   5.692   4.457  2.2368  2.5471 -0.4576
 3246SOL     OW10636   0.276   6.500   1.542  0.2374  0.5729  0.2153
 3246SOL    HW110637   0.237   6.474   1.454  1.9216 -1.9609  0.1179
 3246SOL    HW210638   0.228   6.453   1.616  0.9296  0.0783  0.3614
 3247SOL     OW10639   1.498   3.156   4.703 -0.1893 -0.2848  0.2995
 3247SOL    HW110640   1.441   3.080   4.670 -1.0452 -1.0326  3.2577
 3247SOL    HW210641   1.587   3.120   4.732  0.3938  0.2966 -0.7068
 3248SOL     OW10642   6.036   2.694   4.386 -0.1787  0.2413 -0.4344
 3248SOL    HW110643   6.051   2.681   4.288  0.3097 -1.2652 -0.1876
 3248SOL    HW210644   5.943   2.729   4.402 -0.3788  0.1674 -1.3998
 3249SOL     OW10645   3.885   3.934   3.610  0.0466 -1.1338  0.1486
 3249SOL    HW110646   3.830   3.860   3.650  0.2914 -0.8980  0.9452
 3249SOL    HW210647   3.974   3.899   3.582  1.4265 -0.6119  3.4047
 3250SOL     OW10648   4.504   4.955   3.476  0.5551  0.0065  0.4298
 3250SOL    HW110649   4.413   4.983   3.446  0.9245  0.9230  0.1563
 3250SOL    HW210650   4.516   4.979   3.572  0.5979  0.1075  0.3992
 3251SOL     OW10651   3.824   1.759   3.488 -0.2569  0.0686 -0.0164
 3251SOL    HW110652   3.870   1.672   3.501  0.4000  0.1281 -1.7645
 3251SOL    HW210653   3.729   1.743   3.459  0.4564 -0.1481 -2.4498
 3252SOL     OW10654   2.873   0.925   1.272  0.1448 -0.2573 -0.3148
 3252SOL    HW110655   2.867   0.845   1.213 -0.5978 -0.8995  0.6058
 3252SOL    HW210656   2.783   0.967   1.280 -0.1817 -1.2173  1.7368
 3253SOL     OW10657   6.765   4.623   1.629  0.4128  0.4411 -0.3719
 3253SOL    HW110658   6.811   4.549   1.679  0.5889  1.3068  0.7873
 3253SOL    HW210659   6.716   4.584   1.551  0.0061 -0.9776  0.5437
 3254SOL     OW10660   0.644   6.867   6.569 -0.5420  0.1587 -0.0830
 3254SOL    HW110661   0.699   6.950   6.580 -1.1832  0.5486  0.2357
 3254SOL    HW210662   0.675   6.797   6.633 -1.7068  1.0720  1.5491
 3255SOL     OW10663   4.174   5.887   2.868  0.1423 -0.3274 -0.7581
 3255SOL    HW110664   4.152   5.976   2.827  0.1064  0.3964  0.7712
 3255SOL    HW210665   4.090   5.842   2.897  0.2820 -0.0324  0.1203
 3256SOL     OW10666   4.919   3.505   3.268 -0.5744 -0.0723  0.0485
 3256SOL    HW110667   4.861   3.447   3.210  0.2764 -0.4059 -0.4879
 3256SOL    HW210668   5.010   3.512   3.227 -0.2503  0.4907  0.8508
 3257SOL     OW10669   2.717   6.116   4.013  0.0551 -0.0857  0.8508
 3257SOL    HW110670   2.724   6.104   3.914 -0.5201 -0.6495  0.8742
 3257SOL    HW210671   2.807   6.101   4.055 -0.2292 -2.7658  0.6959
 3258SOL     OW10672   5.429   4.677   5.448  1.0403 -0.1129  0.0735
 3258SOL    HW110673   5.371   4.681   5.368 -1.0339 -1.3144  1.4195
 3258SOL    HW210674   5.421   4.762   5.501  0.4391 -0.2874  0.2719
 3259SOL     OW10675   6.251   6.748   3.028 -0.1655  0.2659  0.7724
 3259SOL    HW110676   6.350   6.741   3.017 -0.4416 -2.4621 -0.5911
 3259SOL    HW210677   6.208   6.766   2.939 -0.9782  0.1364  1.1269
 3260SOL     OW10678   1.890   5.271   3.397  0.1080  0.3692 -0.0592
 3260SOL    HW110679   1.820   5.261   3.468 -1.5506  1.3775 -1.4912
 3260SOL    HW210680   1.860   5.226   3.313  0.7581  1.5953 -0.9823
 3261SOL     OW10681   5.322   2.746   4.458 -0.2861 -0.1096  0.1974
 3261SOL    HW110682   5.237   2.793   4.481 -0.1194  0.3909 -0.1747
 3261SOL    HW210683   5.341   2.757   4.360  0.6558  0.5652  0.4327
 3262SOL     OW10684   3.166   1.524   2.734  0.8555 -0.8118 -0.3735
 3262SOL    HW110685   3.240   1.566   2.681  1.3075 -3.6758 -2.1925
 3262SOL    HW210686   3.091   1.499   2.673 -1.8764  2.1396  1.4383
 3263SOL     OW10687   5.822   5.899   1.434  0.0414 -0.4045  0.0597
 3263SOL    HW110688   5.806   5.814   1.383 -0.2149 -0.6266  0.5059
 3263SOL    HW210689   5.738   5.954   1.433  0.1030 -0.3102  0.0615
 3264SOL     OW10690   2.640   4.185   6.073  0.5133 -0.1199  0.1091
 3264SOL    HW110691   2.632   4.279   6.107 -0.2187  0.2648 -1.0749
 3264SOL    HW210692   2.587   4.124   6.132  1.3133  0.1436  1.1154
 3265SOL     OW10693   0.162   6.894   6.700 -0.5687 -0.0346 -0.2572
 3265SOL    HW110694   0.154   6.843   6.614  1.0178 -2.7179  1.0812
 3265SOL    HW210695   0.257   6.921   6.714 -0.9655  1.1498  0.2724
 3266SOL     OW10696   1.968   3.796   5.552 -0.0288  0.0633 -0.0625
 3266SOL    HW110697   1.930   3.887   5.570 -0.3194  0.0519 -0.6050
 3266SOL    HW210698   1.902   3.727   5.581  1.1005 -0.0587  2.5386
 3267SOL     OW10699   1.874   5.625   6.425 -0.1783 -0.3126 -0.0905
 3267SOL    HW110700   1.853   5.716   6.460 -1.2382  0.0245 -1.5288
 3267SOL    HW210701   1.964   5.626   6.382  0.0035 -0.0709  0.2852
 3268SOL     OW10702   4.973   3.262   3.975  0.0087 -0.2405  0.1641
 3268SOL    HW110703   4.988   3.164   3.990 -1.0581 -0.6174 -1.0021
 3268SOL    HW210704   4.919   3.275   3.891  0.1459  1.3530  0.2874
 3269SOL     OW10705   0.629   4.098   5.937  0.3181  0.7221 -0.1373
 3269SOL    HW110706   0.689   4.070   5.862 -0.7770 -3.9915  0.4086
 3269SOL    HW210707   0.544   4.136   5.900  1.0689  1.4684 -1.1238
 3270SOL     OW10708   0.198   2.795   0.052  0.7009 -0.1505 -0.0147
 3270SOL    HW110709   0.121   2.837   0.003  2.5534  1.1242 -2.0035
 3270SOL    HW210710   0.183   2.696   0.058 -2.0928  0.2761  1.6582
 3271SOL     OW10711   5.546   4.424   3.079 -0.1301 -0.5264 -0.4026
 3271SOL    HW110712   5.612   4.439   3.153  0.2296  0.6463 -0.9438
 3271SOL    HW210713   5.588   4.365   3.010  0.9843  1.4427 -1.4917
 3272SOL     OW10714   5.167   6.004   0.294  0.3321 -0.1588  0.3430
 3272SOL    HW110715   5.251   6.019   0.243  0.2984 -3.3548 -0.9309
 3272SOL    HW210716   5.189   5.984   0.390  1.0023 -0.3937  0.1465
 3273SOL     OW10717   4.210   3.419   0.607  0.4070  0.3941 -0.7759
 3273SOL    HW110718   4.274   3.450   0.537  1.6382  1.0374  0.5579
 3273SOL    HW210719   4.259   3.359   0.671 -0.9292 -0.9779 -1.0016
 3274SOL     OW10720   6.019   6.739   1.570 -0.2172 -0.4582 -0.0728
 3274SOL    HW110721   6.108   6.783   1.569 -1.4692  2.2887 -0.8642
 3274SOL    HW210722   6.003   6.695   1.481 -0.1456  0.1119 -0.3678
 3275SOL     OW10723   5.969   1.958   0.342  0.6745  0.1442  0.2450
 3275SOL    HW110724   6.055   1.957   0.393  0.5367 -1.1808  0.5023
 3275SOL    HW210725   5.970   1.884   0.274  1.2218  2.3895 -2.3668
 3276SOL     OW10726   5.537   0.272   0.967 -0.3334 -0.0344  0.3208
 3276SOL    HW110727   5.609   0.259   1.035  0.6110  0.0144 -0.6513
 3276SOL    HW210728   5.575   0.316   0.885 -1.6710  0.9048  0.1664
 3277SOL     OW10729   4.090   1.298   1.867 -0.6801  0.2598  0.0372
 3277SOL    HW110730   4.148   1.294   1.786 -2.0202  0.2669 -0.9677
 3277SOL    HW210731   4.019   1.367   1.854  0.5437  2.0546  2.2704
 3278SOL     OW10732   4.826   2.393   4.783  0.3716  0.2429 -1.3187
 3278SOL    HW110733   4.821   2.349   4.694 -1.5087  1.7120 -1.9904
 3278SOL    HW210734   4.886   2.473   4.777 -2.6416  2.5961 -2.3935
 3279SOL     OW10735   4.326   6.491   2.350  0.0619  0.2830  0.5526
 3279SOL    HW110736   4.331   6.457   2.257  1.7459  0.1952  0.6469
 3279SOL    HW210737   4.321   6.414   2.414 -2.3868  0.3488  0.5229
 3280SOL     OW10738   0.420   2.621   3.980 -0.3528  0.3551  0.2677
 3280SOL    HW110739   0.409   2.655   3.887  0.8427  0.9212  0.3187
 3280SOL    HW210740   0.335   2.632   4.030 -1.1898 -0.4980 -0.9267
 3281SOL     OW10741   4.833   1.687   3.149 -0.5736  0.4107  0.5022
 3281SOL    HW110742   4.903   1.618   3.134  0.6890  1.8820 -0.6626
 3281SOL    HW210743   4.843   1.726   3.241 -0.3508  0.1220  0.6031
 3282SOL     OW10744   0.289   3.896   4.691  0.6412 -0.0740 -0.4847
 3282SOL    HW110745   0.237   3.888   4.777 -1.9077  0.4675 -1.8816
 3282SOL    HW210746   0.351   3.818   4.683  0.9230 -0.1651  1.8001
 3283SOL     OW10747   3.211   0.325   7.005 -0.3214 -0.5887  0.0730
 3283SOL    HW110748   3.202   0.348   6.908  0.6557 -1.3399 -0.2213
 3283SOL    HW210749   3.182   0.230   7.020  0.3509 -0.7582  0.3483
 3284SOL     OW10750   1.985   2.543   6.504  0.2744  0.3275 -0.1146
 3284SOL    HW110751   1.910   2.608   6.512 -2.7416 -2.4071 -2.9218
 3284SOL    HW210752   2.065   2.589   6.466 -1.3427  2.6352 -0.9745
 3285SOL     OW10753   3.564   1.739   4.251 -0.3676  0.0577 -0.1315
 3285SOL    HW110754   3.487   1.707   4.198 -1.0341  1.1063  0.1591
 3285SOL    HW210755   3.649   1.720   4.202 -0.7027 -2.0128 -0.0017
 3286SOL     OW10756   0.774   5.121   3.678  0.5217 -0.3735 -0.6049
 3286SOL    HW110757   0.861   5.168   3.696  1.2150 -1.4547 -0.9927
 3286SOL    HW210758   0.736   5.153   3.591  0.1948  0.5723 -0.1216
 3287SOL     OW10759   2.385   2.311   2.378  0.2384 -0.0751 -0.3049
 3287SOL    HW110760   2.433   2.395   2.350  1.0871 -0.7497 -0.9285
 3287SOL    HW210761   2.380   2.307   2.477  2.4755 -0.4994 -0.1683
 3288SOL     OW10762   3.256   5.025   1.828  0.0490  0.1478 -0.3103
 3288SOL    HW110763   3.255   5.027   1.728  1.7832 -3.8875 -0.5961
 3288SOL    HW210764   3.166   4.995   1.861 -0.3375  0.8829 -0.6668
 3289SOL     OW10765   6.271   1.026   5.403  0.2060 -0.3065 -0.4056
 3289SOL    HW110766   6.287   0.944   5.456 -0.8961  0.8188  1.7960
 3289SOL    HW210767   6.352   1.046   5.347  0.2191 -3.2142 -1.5665
 3290SOL     OW10768   1.023   3.369   6.042 -0.2737 -0.1119 -0.4374
 3290SOL    HW110769   1.038   3.421   5.958 -1.7376  2.1561  0.5967
 3290SOL    HW210770   0.927   3.342   6.047 -0.0965 -0.6181  0.3116
 3291SOL     OW10771   4.016   6.003   5.922 -0.3596 -0.2708 -0.2556
 3291SOL    HW110772   4.011   5.928   5.988 -0.6287 -1.4516 -1.5587
 3291SOL    HW210773   3.948   5.989   5.850  0.5717  0.4445 -1.3119
 3292SOL     OW10774   6.581   2.854   0.691  0.3191 -0.3962 -0.3409
 3292SOL    HW110775   6.633   2.930   0.730 -0.0700 -1.0758  1.5756
 3292SOL    HW210776   6.623   2.767   0.719  1.4430 -0.9922 -3.4000
 3293SOL     OW10777   2.022   5.316   1.172  0.3492 -0.3247 -0.5815
 3293SOL    HW110778   2.023   5.260   1.090  0.9208 -0.0709 -0.7498
 3293SOL    HW210779   1.999   5.259   1.251  1.0991 -0.8263 -0.7253
 3294SOL     OW10780   5.627   2.589   6.631 -0.4208 -0.9186  0.5611
 3294SOL    HW110781   5.637   2.535   6.715 -1.9774 -1.2638  0.5436
 3294SOL    HW210782   5.571   2.669   6.649  0.5031 -0.1625  0.1845
 3295SOL     OW10783   0.412   3.111   4.228 -0.3834 -0.6044 -0.1619
 3295SOL    HW110784   0.476   3.126   4.303 -1.5006 -0.2061  0.7452
 3295SOL    HW210785   0.366   3.023   4.240 -2.0319  0.3357  0.7773
 3296SOL     OW10786   2.340   6.867   0.692 -0.1463 -0.2589  0.2561
 3296SOL    HW110787   2.413   6.919   0.649  0.1757 -0.6728  0.2986
 3296SOL    HW210788   2.364   6.846   0.787 -0.3162 -0.3965  0.2708
 3297SOL     OW10789   3.728   1.278   6.128 -0.1491 -0.0092 -0.1968
 3297SOL    HW110790   3.801   1.258   6.194 -0.1798  1.9968  0.5019
 3297SOL    HW210791   3.709   1.196   6.074  0.9526 -1.2592  1.2265
 3298SOL     OW10792   3.600   3.466   6.203  0.1356 -0.1707  0.4666
 3298SOL    HW110793   3.595   3.407   6.122  0.5677  0.2097  0.1578
 3298SOL    HW210794   3.559   3.419   6.281 -0.2929 -0.5398  0.0263
 3299SOL     OW10795   3.075   5.231   4.342 -0.0445  0.4667  0.7555
 3299SOL    HW110796   3.107   5.208   4.250 -0.2222  0.6904  0.6370
 3299SOL    HW210797   3.151   5.220   4.407 -0.0256 -0.0799  0.6472
 3300SOL     OW10798   2.650   0.904   2.997  0.0500 -0.4423 -0.1151
 3300SOL    HW110799   2.576   0.971   2.992  0.6531  0.2498  0.0814
 3300SOL    HW210800   2.710   0.915   2.918  0.0157 -0.9206 -0.2108
 3301SOL     OW10801   6.518   0.514   2.527  0.4247  0.1009 -0.1574
 3301SOL    HW110802   6.606   0.504   2.574  0.4061 -0.5518 -0.2458
 3301SOL    HW210803   6.458   0.438   2.552  0.0780  0.2507 -0.5169
 3302SOL     OW10804   1.265   5.082   6.101 -0.0243  0.4905  0.4519
 3302SOL    HW110805   1.166   5.070   6.095  0.0491 -0.7994  1.3876
 3302SOL    HW210806   1.285   5.161   6.159 -0.5165 -0.6443  2.2403
 3303SOL     OW10807   4.145   4.775   7.007  0.5759  0.1452  0.3263
 3303SOL    HW110808   4.064   4.740   7.054  0.4451  0.6424  0.4789
 3303SOL    HW210809   4.196   4.835   7.069  1.1276 -0.2616  0.2713
 3304SOL     OW10810   1.642   4.067   0.486 -0.9084 -0.2936 -0.1675
 3304SOL    HW110811   1.718   4.105   0.433  0.5268  0.9369  2.5393
 3304SOL    HW210812   1.679   4.010   0.559 -2.4826  1.0442  1.7801
 3305SOL     OW10813   4.435   1.784   5.941 -0.1114  0.5718  0.0926
 3305SOL    HW110814   4.335   1.793   5.947 -0.2157  0.1120 -0.8029
 3305SOL    HW210815   4.474   1.868   5.904 -0.1959  0.6494  0.1793
 3306SOL     OW10816   1.962   6.614   6.569  0.0112  0.7886 -1.2658
 3306SOL    HW110817   2.033   6.627   6.499 -0.5080 -0.3040 -2.0267
 3306SOL    HW210818   1.889   6.680   6.555 -0.7675 -0.3190 -2.6715
 3307SOL     OW10819   6.923   0.572   5.771 -0.3541 -0.1215 -0.0750
 3307SOL    HW110820   6.898   0.512   5.694 -1.3637 -0.2657  0.3469
 3307SOL    HW210821   6.860   0.650   5.773  0.9824  1.0222 -0.6570
 3308SOL     OW10822   5.219   1.086   2.413 -0.3640 -0.0038  0.7589
 3308SOL    HW110823   5.274   1.038   2.345 -0.8416 -1.1658  1.1789
 3308SOL    HW210824   5.215   1.183   2.389  1.1454 -0.0368  0.2605
 3309SOL     OW10825   4.530   2.578   4.775 -0.1547 -0.0311 -0.2794
 3309SOL    HW110826   4.598   2.633   4.725  0.7255 -0.4819  0.3895
 3309SOL    HW210827   4.548   2.586   4.873 -1.3583  0.1924 -0.0676
 3310SOL     OW10828   5.336   4.729   2.248  0.6009 -0.1740 -0.1981
 3310SOL    HW110829   5.259   4.774   2.294  2.6870  1.7817  1.6419
 3310SOL    HW210830   5.364   4.784   2.169 -0.1324 -1.1497 -1.1730
 3311SOL     OW10831   6.984   3.524   6.117  0.5766  0.3973 -0.0792
 3311SOL    HW110832   7.044   3.601   6.139  1.9366  0.0611 -2.3425
 3311SOL    HW210833   7.017   3.442   6.164 -0.0864  0.8775  1.2699
 3312SOL     OW10834   3.950   3.532   6.669  0.3086  0.2194 -0.6962
 3312SOL    HW110835   4.009   3.596   6.718  0.6564 -0.0165 -0.7966
 3312SOL    HW210836   3.954   3.442   6.714 -0.4193  0.3489 -0.3711
 3313SOL     OW10837   1.702   5.906   6.247 -0.4792  0.4383 -0.1040
 3313SOL    HW110838   1.706   5.900   6.147  0.8536 -0.7146 -0.0061
 3313SOL    HW210839   1.743   5.992   6.277 -0.0369  0.3758 -0.5123
 3314SOL     OW10840   5.368   6.382   1.494  0.9055  0.0154 -0.3108
 3314SOL    HW110841   5.456   6.344   1.522  0.4544 -0.4431  0.5268
 3314SOL    HW210842   5.324   6.320   1.429  0.5807 -0.4563  0.3506
 3315SOL     OW10843   6.621   6.370   3.346  0.8737 -0.8461  0.2706
 3315SOL    HW110844   6.693   6.338   3.285  1.1429 -0.5875  0.4509
 3315SOL    HW210845   6.645   6.460   3.382 -0.4916  0.2036 -1.3036
 3316SOL     OW10846   3.491   1.939   1.269 -0.2546  0.3402  0.0846
 3316SOL    HW110847   3.432   1.983   1.336 -1.2557 -0.5106 -0.2153
 3316SOL    HW210848   3.443   1.862   1.227  0.4280  0.7145 -1.4555
 3317SOL     OW10849   5.048   2.770   2.399 -0.0045  0.5194 -0.0088
 3317SOL    HW110850   4.986   2.846   2.419 -1.0271 -0.3966  0.3758
 3317SOL    HW210851   5.010   2.685   2.436  0.2331 -0.4991 -1.9659
 3318SOL     OW10852   5.902   1.769   0.119  0.2091 -0.3870  0.0944
 3318SOL    HW110853   5.840   1.803   0.048  1.0079 -0.2197 -0.5363
 3318SOL    HW210854   5.853   1.704   0.177 -0.7427  0.2326  0.0196
 3319SOL     OW10855   0.262   1.434   4.210  0.0420  0.3546  0.0505
 3319SOL    HW110856   0.362   1.428   4.206  0.1187 -0.0729  1.6737
 3319SOL    HW210857   0.223   1.342   4.217 -0.3142  0.5824  1.4071
 3320SOL     OW10858   5.800   1.667   3.556  0.1933  0.0675  0.6515
 3320SOL    HW110859   5.770   1.624   3.641  0.9934  0.7888  1.3219
 3320SOL    HW210860   5.870   1.610   3.513 -0.3321 -0.3806  0.3891
 3321SOL     OW10861   3.404   3.698   0.409  0.0092 -0.4572  0.4264
 3321SOL    HW110862   3.356   3.782   0.383 -0.1052 -0.1342  1.6524
 3321SOL    HW210863   3.441   3.655   0.326 -0.7276  0.2982 -0.3236
 3322SOL     OW10864   5.376   3.715   1.713 -0.1961 -0.1738 -0.2920
 3322SOL    HW110865   5.300   3.655   1.687 -0.6909 -0.5757  1.8225
 3322SOL    HW210866   5.463   3.667   1.700 -0.3153  0.0643 -2.1536
 3323SOL     OW10867   0.271   0.465   1.021 -0.1185  0.2770 -0.6976
 3323SOL    HW110868   0.249   0.450   1.117  1.4361  0.9512 -0.2020
 3323SOL    HW210869   0.239   0.387   0.967  0.1522 -0.7407  0.5537
 3324SOL     OW10870   6.171   5.190   0.229 -0.2441 -0.3637  0.5646
 3324SOL    HW110871   6.245   5.243   0.188 -1.4107  1.1533  0.3139
 3324SOL    HW210872   6.129   5.132   0.159 -0.4224  0.1216  0.2584
 3325SOL     OW10873   0.380   4.711   5.952 -0.3381  0.9134  0.0364
 3325SOL    HW110874   0.414   4.721   6.045 -0.4941 -0.1141  0.2154
 3325SOL    HW210875   0.450   4.665   5.896 -0.7304  0.3836 -0.0286
 3326SOL     OW10876   2.339   1.069   2.278 -0.1901 -0.3414  0.9021
 3326SOL    HW110877   2.355   1.130   2.356  0.5946 -0.9509  1.2310
 3326SOL    HW210878   2.338   1.122   2.194  1.0688  0.0700  1.1225
 3327SOL     OW10879   0.254   5.461   0.223  0.0534  0.0940 -0.3585
 3327SOL    HW110880   0.340   5.457   0.172  1.0430  0.9535  1.1826
 3327SOL    HW210881   0.273   5.469   0.321 -1.7947 -1.2170  0.1646
 3328SOL     OW10882   4.203   3.077   6.236  0.3908  0.4163 -0.2267
 3328SOL    HW110883   4.180   3.171   6.260 -0.4633  0.2761 -0.4446
 3328SOL    HW210884   4.301   3.063   6.244  0.6400  1.5790 -1.0993
 3329SOL     OW10885   5.832   4.036   0.476 -0.7101 -0.1223 -0.4417
 3329SOL    HW110886   5.913   3.983   0.502 -0.7557 -0.7402 -1.5251
 3329SOL    HW210887   5.795   4.001   0.390 -1.4829  0.8698 -0.5277
 3330SOL     OW10888   6.782   4.306   3.331 -0.2564  0.2915 -0.0430
 3330SOL    HW110889   6.749   4.375   3.396  0.9097  1.2579 -0.4497
 3330SOL    HW210890   6.851   4.347   3.271 -0.6354 -0.8417 -1.2846
 3331SOL     OW10891   1.227   2.695   1.563  0.2047  0.1754 -0.2286
 3331SOL    HW110892   1.311   2.642   1.574  0.9469  1.3910  0.1242
 3331SOL    HW210893   1.241   2.767   1.496 -0.8210 -0.0986 -0.7614
 3332SOL     OW10894   6.977   4.384   0.892 -0.1971  0.4313  0.0909
 3332SOL    HW110895   7.050   4.325   0.926 -0.5504 -0.3345 -0.4550
 3332SOL    HW210896   6.976   4.382   0.792 -1.4894 -0.2289  0.1009
 3333SOL     OW10897   2.398   4.600   6.671  1.0161 -0.4767  0.4410
 3333SOL    HW110898   2.393   4.548   6.585  1.7687 -1.2987  0.8682
 3333SOL    HW210899   2.324   4.571   6.732 -1.7248  2.5793 -1.1682
 3334SOL     OW10900   1.271   3.024   0.891 -0.4304  0.2201 -0.1492
 3334SOL    HW110901   1.232   3.052   0.979 -0.9817  0.6864 -0.5328
 3334SOL    HW210902   1.343   3.088   0.865  1.1758 -1.0673  0.9235
 3335SOL     OW10903   3.872   4.233   5.202 -0.5391  0.5729 -0.4832
 3335SOL    HW110904   3.915   4.167   5.140 -1.2573 -0.0139 -0.3658
 3335SOL    HW210905   3.943   4.291   5.242  0.1186 -0.1788 -0.5150
 3336SOL     OW10906   4.470   3.610   5.644 -0.5373 -0.0500  0.0129
 3336SOL    HW110907   4.450   3.535   5.708  1.1496 -0.1498  0.4762
 3336SOL    HW210908   4.564   3.641   5.658 -0.4272  0.5503 -1.8239
 3337SOL     OW10909   2.251   2.991   0.729 -0.3689 -0.8793  0.0394
 3337SOL    HW110910   2.198   3.011   0.811 -0.6085 -0.0933 -0.2974
 3337SOL    HW210911   2.227   2.900   0.695 -1.8948 -0.3422 -0.3968
 3338SOL     OW10912   5.754   5.693   0.873 -0.1958  0.0716  0.4363
 3338SOL    HW110913   5.752   5.597   0.846 -1.8555  0.1461  0.2061
 3338SOL    HW210914   5.748   5.700   0.973  0.2250 -0.0712  0.4707
 3339SOL     OW10915   1.758   4.934   5.578 -0.1385  0.0932  0.3326
 3339SOL    HW110916   1.726   5.024   5.605  0.2894  0.6184 -0.8409
 3339SOL    HW210917   1.841   4.911   5.629  0.2284  0.7331  0.0291
 3340SOL     OW10918   3.806   6.864   1.163 -0.3852  0.0090  0.3146
 3340SOL    HW110919   3.785   6.802   1.239 -0.6327 -2.2185 -1.4501
 3340SOL    HW210920   3.900   6.848   1.133  0.1872  1.8786  0.9833
 3341SOL     OW10921   5.797   2.270   6.111  0.7588 -0.1304  0.1924
 3341SOL    HW110922   5.770   2.352   6.160 -1.8155 -0.5780 -0.3204
 3341SOL    HW210923   5.798   2.192   6.174  1.6910  0.0164  0.3690
 3342SOL     OW10924   2.148   0.625   4.663 -0.2223 -0.2891 -0.4952
 3342SOL    HW110925   2.226   0.569   4.694  1.0271 -0.5868 -3.8032
 3342SOL    HW210926   2.164   0.720   4.688  0.8247 -0.4682 -0.4046
 3343SOL     OW10927   0.519   0.405   0.310  0.6925  0.7782  0.1539
 3343SOL    HW110928   0.611   0.424   0.345  0.6039 -1.1229  1.5965
 3343SOL    HW210929   0.464   0.488   0.315  1.1153  1.0098  3.3379
 3344SOL     OW10930   1.017   0.942   0.399 -0.3274  0.3640  0.4611
 3344SOL    HW110931   1.019   0.990   0.311 -1.8750  1.6257  1.0708
 3344SOL    HW210932   1.110   0.914   0.423  0.6289  2.8396 -0.0568
 3345SOL     OW10933   2.417   2.943   1.158  0.4633  0.3799 -0.1791
 3345SOL    HW110934   2.462   2.990   1.234 -0.6059  1.2488 -0.0527
 3345SOL    HW210935   2.475   2.869   1.125  0.3478 -1.0216  2.4763
 3346SOL     OW10936   3.281   5.500   4.532 -0.6416  0.1653 -0.3593
 3346SOL    HW110937   3.217   5.494   4.608  0.3184 -1.0823  0.3697
 3346SOL    HW210938   3.351   5.568   4.552 -0.2876 -0.2912 -0.0550
 3347SOL     OW10939   6.179   4.133   4.569  0.2894 -0.5632  0.1147
 3347SOL    HW110940   6.188   4.131   4.668  1.0554 -2.3831  0.0610
 3347SOL    HW210941   6.263   4.096   4.528 -0.4030 -0.7465 -1.1737
 3348SOL     OW10942   3.063   3.081   3.766 -0.2069  0.2823 -0.1971
 3348SOL    HW110943   3.135   3.025   3.726  2.3387  2.8548  0.3998
 3348SOL    HW210944   3.013   3.128   3.693  0.2050  0.1486 -0.5691
 3349SOL     OW10945   3.653   1.482   0.501  0.1742  0.1498 -0.1980
 3349SOL    HW110946   3.602   1.397   0.515  3.5776 -2.3292 -1.3595
 3349SOL    HW210947   3.656   1.534   0.586  0.3474 -2.3652  1.4373
 3350SOL     OW10948   3.233   3.454   2.603  0.0024  0.3348  0.4407
 3350SOL    HW110949   3.152   3.407   2.568 -1.2516  2.1932  0.7215
 3350SOL    HW210950   3.278   3.504   2.529  0.3199  0.1052  0.4777
 3351SOL     OW10951   5.336   3.100   1.956 -0.1264 -0.1941  0.4562
 3351SOL    HW110952   5.271   3.086   2.030 -1.3287  1.5947 -0.1957
 3351SOL    HW210953   5.412   3.157   1.988 -0.6740  0.6248  0.3190
 3352SOL     OW10954   6.867   2.116   6.163  0.3449 -0.1165  0.7801
 3352SOL    HW110955   6.929   2.078   6.095 -0.4073  0.2142 -0.1038
 3352SOL    HW210956   6.914   2.189   6.214  0.6907  0.1115  0.1419
 3353SOL     OW10957   0.386   0.027   6.693  0.2416 -0.2009 -0.3234
 3353SOL    HW110958   0.345   0.098   6.636  2.6273  0.7454 -0.9848
 3353SOL    HW210959   0.453  -0.025   6.639 -0.3504 -1.9640  0.5696
 3354SOL     OW10960   1.208   0.851   3.176 -0.4776 -0.4531  0.0241
 3354SOL    HW110961   1.219   0.752   3.163 -1.0530 -0.5076 -0.0572
 3354SOL    HW210962   1.225   0.898   3.089  2.0592 -0.2722  0.5440
 3355SOL     OW10963   4.225   1.472   1.315 -0.3846  0.0994 -0.0244
 3355SOL    HW110964   4.216   1.525   1.230  1.0368 -1.3354 -1.1244
 3355SOL    HW210965   4.154   1.402   1.317 -0.0004 -0.3038 -0.3734
 3356SOL     OW10966   1.717   1.581   6.714 -0.5081  0.1343  0.0047
 3356SOL    HW110967   1.692   1.555   6.621  0.2656  0.4880 -0.3028
 3356SOL    HW210968   1.679   1.672   6.734 -1.5354 -0.3597  0.4002
 3357SOL     OW10969   1.761   0.140   2.824 -0.2954 -0.5828  0.1169
 3357SOL    HW110970   1.747   0.091   2.909 -1.5891 -0.9964 -0.3255
 3357SOL    HW210971   1.746   0.238   2.839  0.4461 -0.5258  0.5656
 3358SOL     OW10972   0.636   2.461   3.452 -0.0934 -0.1271 -0.0721
 3358SOL    HW110973   0.565   2.396   3.482  0.0616 -0.7686 -1.0475
 3358SOL    HW210974   0.684   2.423   3.373 -0.8514  1.7270 -1.4903
 3359SOL     OW10975   3.563   1.665   3.576 -0.5128  0.0383 -0.2996
 3359SOL    HW110976   3.503   1.605   3.629 -0.6153 -1.7373 -2.2959
 3359SOL    HW210977   3.517   1.692   3.491  0.0175  2.0121 -0.0106
 3360SOL     OW10978   2.437   0.566   6.534 -0.3591  0.1653  0.2626
 3360SOL    HW110979   2.446   0.467   6.538  0.9759  0.2924  1.4440
 3360SOL    HW210980   2.505   0.604   6.471  0.7492  0.4515  1.5697
 3361SOL     OW10981   2.220   1.664   1.167  0.1878 -0.1469  0.3044
 3361SOL    HW110982   2.189   1.612   1.087  1.4902 -0.8581  0.2298
 3361SOL    HW210983   2.296   1.724   1.139 -0.2029  0.5615  0.7473
 3362SOL     OW10984   3.261   1.387   5.720 -0.2712  0.2314 -0.5835
 3362SOL    HW110985   3.307   1.472   5.745  0.0863  0.6074 -2.3563
 3362SOL    HW210986   3.169   1.387   5.759  0.6428  0.1655  1.7058
 3363SOL     OW10987   6.567   0.586   6.736 -0.2254  0.0952 -0.3700
 3363SOL    HW110988   6.663   0.612   6.729  0.2816 -1.2219  1.0542
 3363SOL    HW210989   6.555   0.494   6.701 -0.9043  0.1178 -0.2098
 3364SOL     OW10990   0.639   3.838   4.872 -0.3500 -0.6563 -0.0839
 3364SOL    HW110991   0.552   3.810   4.913 -0.0669 -0.8102  0.4203
 3364SOL    HW210992   0.704   3.762   4.876 -0.3557 -0.7153 -0.9440
 3365SOL     OW10993   0.810   2.465   5.338 -0.2707  0.4149  0.5044
 3365SOL    HW110994   0.909   2.460   5.322 -0.4972  0.3693 -1.0378
 3365SOL    HW210995   0.762   2.465   5.250 -1.6593  0.2445  1.2352
 3366SOL     OW10996   4.579   1.764   0.276 -0.1985  0.2035  0.0380
 3366SOL    HW110997   4.656   1.813   0.235  0.9512 -0.9745  0.7109
 3366SOL    HW210998   4.557   1.805   0.365 -0.6222  0.8030 -0.3436
 3367SOL     OW10999   3.250   6.225   1.594  0.1769 -0.3177  0.2058
 3367SOL    HW111000   3.244   6.308   1.650 -0.6488  1.6990 -2.6011
 3367SOL    HW211001   3.333   6.175   1.617  1.6050  2.2115  0.9231
 3368SOL     OW11002   0.478   0.642   4.215  0.0968  0.2543  0.1869
 3368SOL    HW111003   0.453   0.638   4.118 -0.6452  1.2188  0.3221
 3368SOL    HW211004   0.401   0.678   4.268  0.6136  0.0591  1.0918
 3369SOL     OW11005   3.462   5.466   5.988  0.1600  0.4456  0.2990
 3369SOL    HW111006   3.486   5.549   5.939  0.9044  0.0197 -0.0773
 3369SOL    HW211007   3.510   5.464   6.076 -0.0544  0.5310  0.4190
 3370SOL     OW11008   5.092   1.357   0.448 -0.0102  0.1215  0.0939
 3370SOL    HW111009   5.026   1.397   0.384  0.4808  1.7999  0.5979
 3370SOL    HW211010   5.069   1.384   0.541  2.9663  3.2842  0.0878
 3371SOL     OW11011   5.966   4.907   1.592  0.0488  0.0107  0.0670
 3371SOL    HW111012   5.895   4.978   1.592 -1.3072 -1.2657  1.4247
 3371SOL    HW211013   6.035   4.929   1.523 -0.8173  2.1318 -0.2080
 3372SOL     OW11014   0.390   5.119   3.749  0.1798 -0.1067  0.0625
 3372SOL    HW111015   0.436   5.032   3.728 -1.3998 -0.5505 -1.8755
 3372SOL    HW211016   0.308   5.100   3.805 -0.4518  0.0438 -0.7953
 3373SOL     OW11017   2.303   2.035   5.972 -0.0734 -0.1936  0.0273
 3373SOL    HW111018   2.245   2.002   6.046  0.4281  1.7797  1.3783
 3373SOL    HW211019   2.307   1.967   5.899 -2.4671 -1.1952  0.7628
 3374SOL     OW11020   3.813   3.737   5.314 -0.3241 -0.6122  0.0224
 3374SOL    HW111021   3.734   3.760   5.372 -0.7461 -0.4002 -0.6198
 3374SOL    HW211022   3.809   3.791   5.230 -0.2922 -1.6535 -0.6711
 3375SOL     OW11023   3.714   5.496   5.671  0.3562  0.1203  0.2562
 3375SOL    HW111024   3.755   5.580   5.633 -0.6708  1.2394  1.5221
 3375SOL    HW211025   3.759   5.417   5.631  1.5475  1.2657 -0.7968
 3376SOL     OW11026   3.510   2.542   0.488 -0.3552  0.1043 -0.0826
 3376SOL    HW111027   3.514   2.453   0.531 -0.1682  0.5040  0.7470
 3376SOL    HW211028   3.596   2.591   0.503  0.6611 -0.6231 -2.8925
 3377SOL     OW11029   2.456   3.584   6.357  0.0918  0.0354 -0.7869
 3377SOL    HW111030   2.428   3.491   6.378  0.4868  0.2659  0.8552
 3377SOL    HW211031   2.403   3.617   6.278 -1.8318 -0.7130  0.1261
 3378SOL     OW11032   4.227   2.191   1.321 -0.3737 -0.2330 -0.0887
 3378SOL    HW111033   4.278   2.118   1.367 -0.6467 -0.4369 -0.1100
 3378SOL    HW211034   4.276   2.278   1.334  0.6183 -0.6087 -1.1276
 3379SOL     OW11035   7.015   5.204   4.080 -0.4557  0.1759 -0.3449
 3379SOL    HW111036   7.066   5.219   4.165 -0.8691  1.6658 -0.3284
 3379SOL    HW211037   6.988   5.108   4.074  0.6144 -0.2058  0.6150
 3380SOL     OW11038   6.988   4.772   2.384 -0.2562 -0.0096  0.2534
 3380SOL    HW111039   7.041   4.856   2.368  0.2698 -0.3672  0.0764
 3380SOL    HW211040   7.039   4.712   2.445 -1.2645  0.3912  1.5273
 3381SOL     OW11041   4.078   1.468   6.428  0.6645 -0.3998  0.0937
 3381SOL    HW111042   3.990   1.451   6.384  0.3241  2.0566 -0.3449
 3381SOL    HW211043   4.151   1.427   6.374 -0.2307 -4.4957  1.6474
 3382SOL     OW11044   6.860   4.378   0.178  0.2482 -0.6141  0.2028
 3382SOL    HW111045   6.787   4.371   0.110  0.2515 -1.0281  0.2389
 3382SOL    HW211046   6.870   4.290   0.226  0.3000 -0.3523  0.6801
 3383SOL     OW11047   0.869   3.018   3.431  0.8714  0.5075 -0.4778
 3383SOL    HW111048   0.774   3.046   3.443  0.9428  1.5926 -2.1445
 3383SOL    HW211049   0.916   3.083   3.372  2.5931 -0.1725  0.0631
 3384SOL     OW11050   4.063   3.573   2.921 -0.2559  0.0244  0.0102
 3384SOL    HW111051   4.080   3.578   2.823  0.1522  1.0826  0.1185
 3384SOL    HW211052   4.115   3.644   2.967  0.7638 -1.3960  1.1678
 3385SOL     OW11053   6.572   5.305   4.098  0.3171 -0.0588 -0.2518
 3385SOL    HW111054   6.590   5.210   4.073 -1.3080  0.2619 -3.2017
 3385SOL    HW211055   6.475   5.325   4.085  0.2004  1.5402  2.3149
 3386SOL     OW11056   5.230   3.774   2.462 -0.1907  0.5335 -0.0793
 3386SOL    HW111057   5.188   3.862   2.483 -0.8522  0.1711  0.1233
 3386SOL    HW211058   5.159   3.706   2.446  0.2725 -0.5278  2.0280
 3387SOL     OW11059   5.395   3.145   3.744  0.4583 -0.2555  0.3589
 3387SOL    HW111060   5.329   3.087   3.697  0.0361  0.5616 -0.0761
 3387SOL    HW211061   5.354   3.180   3.828  0.3075  0.2903  0.0646
 3388SOL     OW11062   5.345   6.600   6.904  0.6680  0.2237 -0.6754
 3388SOL    HW111063   5.421   6.653   6.867  0.8741 -1.1709 -2.3790
 3388SOL    HW211064   5.360   6.583   7.001  0.9679  2.5595 -0.2585
 3389SOL     OW11065   1.648   3.261   6.847  0.0850 -0.1856 -0.5251
 3389SOL    HW111066   1.727   3.207   6.876  0.3026  0.4994  0.2255
 3389SOL    HW211067   1.564   3.209   6.863  0.4134 -1.4265 -2.5029
 3390SOL     OW11068   4.646   2.138   5.434  0.1459  0.0074  0.4883
 3390SOL    HW111069   4.725   2.157   5.492  0.4675  0.1571  0.0023
 3390SOL    HW211070   4.619   2.042   5.444  1.0222 -0.3093 -0.1148
 3391SOL     OW11071   2.153   1.337   5.268  0.0560  0.0364 -0.0818
 3391SOL    HW111072   2.116   1.353   5.177  0.2456 -0.9390 -0.3426
 3391SOL    HW211073   2.212   1.256   5.266  0.2181  0.1225  0.8621
 3392SOL     OW11074   6.947   6.027   3.876 -0.6750  0.1865  0.4783
 3392SOL    HW111075   6.857   6.011   3.838 -0.0991 -0.1729 -0.7752
 3392SOL    HW211076   6.982   5.942   3.916 -0.3275 -0.0297 -0.2767
 3393SOL     OW11077   5.715   2.545   6.206 -0.1417 -0.1096  0.2967
 3393SOL    HW111078   5.618   2.534   6.182 -0.3983  0.1493  1.1762
 3393SOL    HW211079   5.768   2.565   6.123 -0.9788  0.6189 -0.0845
 3394SOL     OW11080   3.952   1.087   1.968  0.2359  0.0540  0.0965
 3394SOL    HW111081   4.026   1.146   1.936  0.4495 -0.6257 -0.7090
 3394SOL    HW211082   3.987   1.027   2.040  0.2764  0.2348  0.2281
 3395SOL     OW11083   1.732   2.876   5.467  0.1891 -0.2841  0.1052
 3395SOL    HW111084   1.792   2.827   5.531  0.7871  1.4083  0.8917
 3395SOL    HW211085   1.770   2.967   5.449 -2.0313  0.7693  0.4637
 3396SOL     OW11086   4.998   4.890   3.757 -0.2782  0.5817 -0.1903
 3396SOL    HW111087   4.913   4.893   3.703  0.7263 -1.7248 -2.0580
 3396SOL    HW211088   4.984   4.834   3.838 -1.4323  3.0531  1.4742
 3397SOL     OW11089   3.789   6.082   0.559  0.2977 -0.3988 -0.1298
 3397SOL    HW111090   3.852   6.052   0.630  1.0370 -2.2973 -1.5058
 3397SOL    HW211091   3.715   6.015   0.550 -0.7708  0.7273  0.0270
 3398SOL     OW11092   1.347   3.333   4.127 -0.1600  0.1027 -0.8127
 3398SOL    HW111093   1.287   3.371   4.057 -1.8449 -2.4397 -0.8992
 3398SOL    HW211094   1.319   3.239   4.147  1.3216  0.1661  2.0777
 3399SOL     OW11095   4.499   5.316   4.705 -0.2608  0.4507  0.7938
 3399SOL    HW111096   4.544   5.241   4.656 -0.0559  1.4650 -0.6510
 3399SOL    HW211097   4.551   5.338   4.788 -1.3531 -2.2031  2.2977
 3400SOL     OW11098   4.440   0.920   0.635 -0.6847  0.1996  0.2676
 3400SOL    HW111099   4.490   0.834   0.644 -2.3339 -0.8334 -0.0640
 3400SOL    HW211100   4.452   0.957   0.543  1.1427  1.0834  0.8184
 3401SOL     OW11101   6.445   5.874   6.808 -0.1648  0.1444  0.4638
 3401SOL    HW111102   6.398   5.842   6.890  1.4253  1.8373  2.1440
 3401SOL    HW211103   6.504   5.800   6.773 -1.8155 -1.0188  0.0235
 3402SOL     OW11104   4.574   3.227   0.646 -0.6280  0.0612  0.0606
 3402SOL    HW111105   4.492   3.252   0.698 -0.8834 -0.9190  0.1479
 3402SOL    HW211106   4.548   3.172   0.567 -0.0517 -0.3336  0.1381
 3403SOL     OW11107   5.509   1.832   5.463  0.3838  0.7456 -0.0622
 3403SOL    HW111108   5.487   1.735   5.459  0.6249  0.6150  1.3317
 3403SOL    HW211109   5.598   1.848   5.422  0.3205  0.3822 -0.3395
 3404SOL     OW11110   5.592   5.690   2.877  0.2367 -0.4444 -0.0771
 3404SOL    HW111111   5.615   5.699   2.780  0.5247  1.1863  0.1117
 3404SOL    HW211112   5.620   5.600   2.910  1.3367 -0.5398 -1.2005
 3405SOL     OW11113   4.516   3.762   0.434  0.3293 -0.0086  0.0324
 3405SOL    HW111114   4.596   3.743   0.376  0.4057 -1.1980  0.4975
 3405SOL    HW211115   4.548   3.796   0.522  0.2869  0.3400 -0.0885
 3406SOL     OW11116   0.380   2.510   5.561  0.8870  0.0728 -0.1693
 3406SOL    HW111117   0.424   2.590   5.521  1.1955  0.9314  1.7723
 3406SOL    HW211118   0.450   2.451   5.603  0.4490  0.1468  0.6988
 3407SOL     OW11119   1.318   0.160   2.236  0.1169  0.5286 -0.0429
 3407SOL    HW111120   1.272   0.165   2.148  1.6320  3.2559 -0.7960
 3407SOL    HW211121   1.399   0.101   2.228 -0.4265 -0.2338 -0.0826
 3408SOL     OW11122   5.764   4.106   2.272 -0.0525  0.5717 -0.2854
 3408SOL    HW111123   5.836   4.157   2.224  0.2405  1.1918  0.7911
 3408SOL    HW211124   5.733   4.158   2.351  0.1599 -0.8578  0.7755
 3409SOL     OW11125   2.817   0.857   0.458 -0.2002  0.3484  0.2799
 3409SOL    HW111126   2.875   0.776   0.444 -2.1096 -1.3523  1.6330
 3409SOL    HW211127   2.797   0.899   0.370 -0.1999 -1.4340 -0.6184
 3410SOL     OW11128   0.851   1.399   5.633  0.4332  0.2597  0.1435
 3410SOL    HW111129   0.882   1.350   5.551 -1.8343  0.7696 -1.1155
 3410SOL    HW211130   0.799   1.337   5.691 -2.8903  1.0809 -1.7060
 3411SOL     OW11131   3.400   0.250   2.548  0.0011  0.1020  0.3876
 3411SOL    HW111132   3.308   0.286   2.564  0.1607  0.7146 -0.0233
 3411SOL    HW211133   3.400   0.152   2.564 -1.2846 -0.3201 -1.7780
 3412SOL     OW11134   3.372   4.721   7.002 -0.3709  0.6585  0.2829
 3412SOL    HW111135   3.319   4.780   7.063 -3.0183  0.1116 -1.3703
 3412SOL    HW211136   3.347   4.739   6.907  0.8441 -1.1801 -0.4371
 3413SOL     OW11137   4.912   2.111   2.849  0.6660  0.0580  0.1239
 3413SOL    HW111138   4.981   2.161   2.797  0.0886 -0.0621 -0.7691
 3413SOL    HW211139   4.829   2.166   2.858  0.6836 -0.0038  0.7502
 3414SOL     OW11140   2.830   6.786   5.100  0.2020 -0.1784 -0.3919
 3414SOL    HW111141   2.740   6.746   5.084  0.6327 -0.4302 -2.4094
 3414SOL    HW211142   2.898   6.713   5.111  0.8202 -0.1327 -3.1021
 3415SOL     OW11143   0.919   0.674   6.621  0.1057  0.6173 -0.1589
 3415SOL    HW111144   0.854   0.749   6.611 -1.4154 -0.5704  0.3795
 3415SOL    HW211145   0.951   0.670   6.716  2.5983  2.4163 -0.8150
 3416SOL     OW11146   0.476   3.713   3.655 -0.2428 -0.1672  0.2384
 3416SOL    HW111147   0.494   3.745   3.748 -1.2801 -1.2396  0.8381
 3416SOL    HW211148   0.562   3.706   3.605  0.1306  2.6504  0.3292
 3417SOL     OW11149   4.284   0.849   0.963  0.3611 -0.1442 -0.2104
 3417SOL    HW111150   4.273   0.925   1.027  2.7397  0.0696  0.0374
 3417SOL    HW211151   4.381   0.835   0.945 -0.1540 -1.5182 -2.2243
 3418SOL     OW11152   1.295   1.914   5.976  0.7873 -0.1894 -0.0909
 3418SOL    HW111153   1.340   2.000   6.000  0.3880  0.1215 -0.4295
 3418SOL    HW211154   1.209   1.906   6.028 -1.8377  2.0938 -3.6273
 3419SOL     OW11155   4.994   3.482   4.384 -0.4907 -0.3377  0.4642
 3419SOL    HW111156   4.927   3.555   4.390  0.1802  0.5083 -1.5002
 3419SOL    HW211157   5.058   3.488   4.461 -0.2964  1.3308  0.1994
 3420SOL     OW11158   3.673   0.986   5.283  0.0015 -0.2580  0.9398
 3420SOL    HW111159   3.757   1.029   5.249 -1.1884 -0.0910 -2.1041
 3420SOL    HW211160   3.620   1.053   5.334  0.7568  0.2286  1.1110
 3421SOL     OW11161   2.021   0.760   3.814  0.0493  0.2912 -0.1273
 3421SOL    HW111162   1.931   0.719   3.826 -0.4314  0.6413 -2.1250
 3421SOL    HW211163   2.016   0.830   3.743  1.2124  2.6732  2.0011
 3422SOL     OW11164   4.838   1.974   2.365 -0.0528  0.5279 -0.3449
 3422SOL    HW111165   4.883   1.892   2.331 -1.4261 -0.8649  0.9653
 3422SOL    HW211166   4.906   2.042   2.389  1.3187 -1.0930  0.6335
 3423SOL     OW11167   2.271   0.764   1.181  0.5420  0.0606  0.0365
 3423SOL    HW111168   2.289   0.750   1.279  1.1896  1.7565  0.1846
 3423SOL    HW211169   2.356   0.753   1.130  0.4313  0.3446 -0.2040
 3424SOL     OW11170   4.449   2.524   1.169  0.4280  0.3124  0.6125
 3424SOL    HW111171   4.544   2.501   1.190  0.5752  1.2365  1.0163
 3424SOL    HW211172   4.438   2.533   1.070  0.9401  0.8974  0.5983
 3425SOL     OW11173   4.727   3.971   1.053 -0.5219 -0.1466  0.4555
 3425SOL    HW111174   4.667   4.004   1.126 -0.3893 -1.0951  1.0078
 3425SOL    HW211175   4.722   4.034   0.975 -0.5225  0.9887  1.3403
 3426SOL     OW11176   3.447   3.356   1.774 -0.2121  0.4194  0.2374
 3426SOL    HW111177   3.387   3.430   1.805 -0.9858 -0.2702  0.4244
 3426SOL    HW211178   3.522   3.345   1.839  1.1511  2.4609 -0.9212
 3427SOL     OW11179   6.826   3.042   1.157  0.7386 -0.4142  0.1270
 3427SOL    HW111180   6.906   2.997   1.197  1.3931  0.3489 -0.2964
 3427SOL    HW211181   6.846   3.138   1.142 -0.9736  0.3017  1.9434
 3428SOL     OW11182   5.135   6.842   2.830 -0.0562 -0.4027 -0.0143
 3428SOL    HW111183   5.051   6.801   2.794  0.6531 -3.2444  1.2357
 3428SOL    HW211184   5.194   6.870   2.755 -1.9201  1.3176 -0.9115
 3429SOL     OW11185   0.275   3.312   0.016 -0.5017 -0.9985 -0.0833
 3429SOL    HW111186   0.317   3.242   0.075 -1.0147 -1.3436 -0.1283
 3429SOL    HW211187   0.176   3.310   0.027 -0.5644 -0.7285 -0.5948
 3430SOL     OW11188   0.058   5.210   0.180 -0.1633 -0.5046 -0.2494
 3430SOL    HW111189   0.092   5.304   0.190 -0.9617 -0.0844 -1.2833
 3430SOL    HW211190  -0.001   5.188   0.258  0.1545 -0.2052  0.0813
 3431SOL     OW11191   0.592   6.485   6.906 -0.4623  0.5922 -0.2640
 3431SOL    HW111192   0.560   6.466   6.999 -1.6470  1.3544 -0.4865
 3431SOL    HW211193   0.648   6.409   6.873  0.3669  0.5236  1.2396
 3432SOL     OW11194   3.744   2.276   6.975  0.0966  0.3199 -0.1583
 3432SOL    HW111195   3.795   2.356   6.946 -0.1989  0.1075 -1.3745
 3432SOL    HW211196   3.653   2.278   6.933 -0.6899  0.3967  1.4814
 3433SOL     OW11197   1.620   1.254   1.912 -0.4242 -0.6325 -0.3898
 3433SOL    HW111198   1.521   1.268   1.914 -0.4610 -0.8214 -0.8564
 3433SOL    HW211199   1.649   1.237   1.818  0.3069  1.3291 -0.5769
 3434SOL     OW11200   5.138   6.504   3.174 -0.2732 -0.3629  0.9441
 3434SOL    HW111201   5.109   6.577   3.112  1.2710 -0.9478 -0.5383
 3434SOL    HW211202   5.193   6.437   3.123  0.5783 -1.1648  2.8339
 3435SOL     OW11203   6.331   1.634   5.875 -0.2349  0.7139  0.1935
 3435SOL    HW111204   6.312   1.557   5.936  1.9726 -0.9086 -1.0274
 3435SOL    HW211205   6.287   1.619   5.787 -0.2198  1.1052  0.1162
 3436SOL     OW11206   4.853   5.913   1.561 -0.9299 -0.1403  0.5159
 3436SOL    HW111207   4.900   5.999   1.539 -1.4990 -0.2363 -1.1910
 3436SOL    HW211208   4.765   5.934   1.605 -0.0651  0.0715  2.2138
 3437SOL     OW11209   3.359   6.266   5.853  0.2861  0.0215 -0.0936
 3437SOL    HW111210   3.351   6.357   5.812  0.7142  0.1229  0.0439
 3437SOL    HW211211   3.335   6.270   5.950  1.5032  0.2425  0.2161
 3438SOL     OW11212   3.347   5.615   6.374 -0.6779 -0.3297  0.5965
 3438SOL    HW111213   3.272   5.607   6.439 -0.3708 -0.8923  0.8907
 3438SOL    HW211214   3.310   5.618   6.281 -1.0488 -1.1765  0.7010
 3439SOL     OW11215   1.528   1.527   5.350 -0.1281  0.3708  0.0517
 3439SOL    HW111216   1.506   1.467   5.273  0.1866  0.2615  0.0441
 3439SOL    HW211217   1.548   1.472   5.431  0.0431  0.4680  0.0766
 3440SOL     OW11218   3.404   2.862   1.230 -0.0254  0.0548 -0.5237
 3440SOL    HW111219   3.403   2.787   1.297 -1.2850  1.3304  0.9486
 3440SOL    HW211220   3.388   2.824   1.139  1.6736 -1.7193 -0.1538
 3441SOL     OW11221   4.841   0.478   4.682 -0.2547 -0.7408 -0.4300
 3441SOL    HW111222   4.901   0.542   4.730  0.0104 -0.3208 -1.2977
 3441SOL    HW211223   4.851   0.387   4.722 -0.7749 -0.2297  0.9476
 3442SOL     OW11224   6.279   6.516   4.153 -0.1369  0.5213  0.5502
 3442SOL    HW111225   6.229   6.429   4.150 -0.1651  0.5674 -1.5246
 3442SOL    HW211226   6.218   6.588   4.187 -0.3141 -0.1317  1.6485
 3443SOL     OW11227   5.102   5.548   4.575 -0.1703  0.5071 -0.4184
 3443SOL    HW111228   5.160   5.627   4.555 -0.7649  1.4273  1.2978
 3443SOL    HW211229   5.153   5.482   4.631 -0.6006  1.1095  0.7133
 3444SOL     OW11230   3.446   6.528   6.355 -0.4123 -0.5445 -0.4420
 3444SOL    HW111231   3.412   6.522   6.261  0.7054 -0.3969 -0.8690
 3444SOL    HW211232   3.523   6.591   6.359 -2.4492  2.0541  1.1989
 3445SOL     OW11233   0.418   6.397   4.439  0.0826  0.1691  0.0194
 3445SOL    HW111234   0.496   6.429   4.386  1.4470 -0.0574  1.7862
 3445SOL    HW211235   0.338   6.454   4.419  0.9200  0.9722 -1.1726
 3446SOL     OW11236   2.471   5.320   0.532 -0.1831  0.2997 -0.3688
 3446SOL    HW111237   2.559   5.353   0.497  0.8314 -1.2095  0.6383
 3446SOL    HW211238   2.487   5.258   0.609 -2.0604 -1.0624 -0.9975
 3447SOL     OW11239   6.152   3.924   4.973  0.0819  0.4930 -0.0275
 3447SOL    HW111240   6.092   3.871   5.033 -0.1493  0.2469 -0.4740
 3447SOL    HW211241   6.218   3.863   4.930  0.2689  0.6750 -0.0001
 3448SOL     OW11242   4.795   2.598   6.895  0.6747  0.4015  0.1751
 3448SOL    HW111243   4.741   2.663   6.841 -1.0495 -0.2202  1.0507
 3448SOL    HW211244   4.870   2.562   6.840 -0.0166  1.0251 -1.2267
 3449SOL     OW11245   0.350   5.038   3.410  0.4337  0.2918 -0.0068
 3449SOL    HW111246   0.346   5.130   3.450 -0.6799 -0.3029  1.3503
 3449SOL    HW211247   0.304   5.037   3.322 -0.3167  0.8700  0.3641
 3450SOL     OW11248   1.347   2.298   0.516 -0.2116  0.5830 -0.1501
 3450SOL    HW111249   1.443   2.294   0.545 -0.1859  1.8302 -0.0010
 3450SOL    HW211250   1.325   2.391   0.487 -1.0434  0.0351 -1.3823
 3451SOL     OW11251   0.003   5.050   3.654  0.1618 -0.3032 -0.6838
 3451SOL    HW111252   0.057   5.062   3.737  0.9700 -3.3014 -0.6458
 3451SOL    HW211253  -0.012   5.138   3.611  3.2785  0.9159  0.4394
 3452SOL     OW11254   6.435   3.539   5.931 -0.6263 -0.2959  0.1345
 3452SOL    HW111255   6.369   3.593   5.984  0.4219 -0.6325  1.8786
 3452SOL    HW211256   6.525   3.546   5.974  0.4440 -0.1200 -1.9896
 3453SOL     OW11257   5.287   0.112   4.981  0.3832 -0.1749  0.8615
 3453SOL    HW111258   5.350   0.167   5.035  0.5771  0.6259 -0.1445
 3453SOL    HW211259   5.306   0.015   4.996  1.4419  0.0527  1.0533
 3454SOL     OW11260   0.664   3.318   6.574  0.1565 -0.1407 -0.0532
 3454SOL    HW111261   0.582   3.314   6.630  0.0685 -0.9771 -0.2303
 3454SOL    HW211262   0.695   3.413   6.567 -1.6061  0.4012 -1.1571
 3455SOL     OW11263   0.636   3.490   2.077  0.4964 -0.0712  0.0627
 3455SOL    HW111264   0.683   3.541   2.149  0.8246 -0.4480  0.1192
 3455SOL    HW211265   0.537   3.498   2.089  0.3951 -3.1851  2.8773
 3456SOL     OW11266   0.482   0.189   6.986  0.2837 -0.2294  0.3115
 3456SOL    HW111267   0.466   0.224   6.894  0.6062  0.1020  0.3792
 3456SOL    HW211268   0.394   0.182   7.034  0.2104  0.5037  0.2989
 3457SOL     OW11269   0.691   0.366   3.653 -0.0893 -0.0558  0.2595
 3457SOL    HW111270   0.726   0.367   3.559 -0.0977 -2.2976  0.1813
 3457SOL    HW211271   0.767   0.380   3.717  0.0473  0.6433 -0.0481
 3458SOL     OW11272   4.344   3.877   1.232 -0.0151 -0.2726  0.6910
 3458SOL    HW111273   4.276   3.927   1.285 -0.1748 -1.0502  1.2374
 3458SOL    HW211274   4.334   3.779   1.249  1.1852 -0.4070  0.7215
 3459SOL     OW11275   6.144   6.309   4.529 -0.2007 -0.1112 -0.0568
 3459SOL    HW111276   6.100   6.238   4.584 -0.2931 -0.9424 -1.1519
 3459SOL    HW211277   6.075   6.359   4.477  0.0407 -0.9987 -1.2943
 3460SOL     OW11278   5.836   2.645   6.453 -0.1599  0.3228  0.2754
 3460SOL    HW111279   5.753   2.629   6.506 -0.0929  0.4566  0.4214
 3460SOL    HW211280   5.827   2.602   6.363  0.2294 -1.0065  0.8411
 3461SOL     OW11281   2.542   6.754   1.871 -0.2742  0.5032 -0.1809
 3461SOL    HW111282   2.621   6.809   1.842  1.0589 -0.0386  2.1768
 3461SOL    HW211283   2.538   6.671   1.815 -1.2253  2.0150 -2.5379
 3462SOL     OW11284   5.616   3.186   4.816 -0.1290 -0.2845 -0.1792
 3462SOL    HW111285   5.655   3.197   4.724 -1.2896 -1.2251 -0.8050
 3462SOL    HW211286   5.517   3.191   4.811 -0.3442 -2.5386  0.6732
 3463SOL     OW11287   0.815   0.676   0.414  0.5991  0.1970  0.2234
 3463SOL    HW111288   0.834   0.665   0.511 -1.6840  0.9268  0.8223
 3463SOL    HW211289   0.887   0.730   0.371  1.2210  0.5694  1.6883
 3464SOL     OW11290   4.785   1.143   0.754 -1.1863 -0.3162 -0.0953
 3464SOL    HW111291   4.795   1.054   0.710  0.7624  0.4052 -1.2660
 3464SOL    HW211292   4.717   1.198   0.705 -0.0933 -0.0546 -1.3929
 3465SOL     OW11293   1.384   3.454   2.908  0.2746 -1.0701 -0.0843
 3465SOL    HW111294   1.402   3.552   2.895  0.8248 -1.2626 -0.8697
 3465SOL    HW211295   1.364   3.436   3.005  0.1214 -0.1807  0.0592
 3466SOL     OW11296   6.039   4.170   3.835 -0.5449  0.0168 -0.3034
 3466SOL    HW111297   6.029   4.221   3.920 -0.3415 -0.4158 -0.0179
 3466SOL    HW211298   5.971   4.096   3.832 -0.8610  0.3188 -0.7294
 3467SOL     OW11299   1.322   3.172   0.419  0.6752  0.0308  0.4944
 3467SOL    HW111300   1.271   3.206   0.498 -0.7652 -2.6402  0.8573
 3467SOL    HW211301   1.259   3.161   0.342  1.2944 -0.6841  0.0726
 3468SOL     OW11302   4.644   1.972   0.915  0.7892 -0.1144  0.6443
 3468SOL    HW111303   4.675   1.950   0.823 -2.7970 -0.0173 -0.7590
 3468SOL    HW211304   4.625   1.888   0.965  0.9948 -0.1705  0.6286
 3469SOL     OW11305   4.854   4.152   0.006  0.2089 -0.3862  0.4143
 3469SOL    HW111306   4.815   4.243   0.016 -0.7350 -0.5311 -1.5121
 3469SOL    HW211307   4.784   4.083   0.029  0.4158 -0.6300  0.3239
 3470SOL     OW11308   1.584   2.357   6.146  0.5142 -0.4049  0.3453
 3470SOL    HW111309   1.639   2.310   6.077  2.6913  1.5632  0.6037
 3470SOL    HW211310   1.529   2.428   6.102  0.1030 -0.7187  0.3584
 3471SOL     OW11311   4.828   2.824   5.278  0.0576 -0.0248  0.2712
 3471SOL    HW111312   4.876   2.905   5.245  1.4835 -1.1156 -0.4535
 3471SOL    HW211313   4.872   2.792   5.363 -0.9593  0.3579  0.9613
 3472SOL     OW11314   4.673   2.793   3.020  0.0821  0.6628 -0.0406
 3472SOL    HW111315   4.760   2.802   2.972 -0.1449  0.0963 -0.5715
 3472SOL    HW211316   4.610   2.739   2.964 -0.9217  1.8337 -0.0636
 3473SOL     OW11317   0.308   4.548   0.765  0.2727  0.3869 -0.2238
 3473SOL    HW111318   0.344   4.456   0.748  1.5280  1.0114 -1.1481
 3473SOL    HW211319   0.234   4.567   0.701 -0.9747 -0.4644  0.8976
 3474SOL     OW11320   4.895   5.269   4.733  0.9124  0.0602  0.1546
 3474SOL    HW111321   4.920   5.365   4.720  2.1833  0.0056  1.8941
 3474SOL    HW211322   4.796   5.260   4.740  0.7325  1.1213 -0.7350
 3475SOL     OW11323   0.225   3.179   2.215  0.2305 -0.1138 -0.6125
 3475SOL    HW111324   0.163   3.184   2.137  0.6973  0.9458 -0.9283
 3475SOL    HW211325   0.181   3.220   2.295  0.3259  0.2030 -0.7181
 3476SOL     OW11326   2.390   2.629   2.511 -0.0909 -0.4818  0.3958
 3476SOL    HW111327   2.344   2.716   2.491 -0.5609 -0.7340  0.3692
 3476SOL    HW211328   2.422   2.629   2.606 -1.1247 -0.7273  0.7640
 3477SOL     OW11329   0.577   4.622   3.416  0.0720 -0.0885  0.2580
 3477SOL    HW111330   0.578   4.618   3.316 -2.2691 -3.7219  0.1766
 3477SOL    HW211331   0.579   4.717   3.446 -2.3941  1.3274 -3.4086
 3478SOL     OW11332   3.018   1.765   6.071 -0.1481 -0.0386 -0.1697
 3478SOL    HW111333   2.942   1.714   6.112 -0.8779  1.1701  0.0414
 3478SOL    HW211334   3.035   1.848   6.126  0.4293  0.3866 -0.9800
 3479SOL     OW11335   5.875   4.571   4.244  0.0025  0.2941  0.3214
 3479SOL    HW111336   5.907   4.505   4.312 -0.4443 -0.4887 -0.2150
 3479SOL    HW211337   5.783   4.603   4.270 -1.0931 -1.5925 -0.9481
 3480SOL     OW11338   6.024   2.540   0.775  0.0530  0.4925 -0.3156
 3480SOL    HW111339   6.095   2.501   0.833 -0.3169  0.8318  0.3838
 3480SOL    HW211340   6.044   2.637   0.759 -0.9802  0.9606  1.0739
 3481SOL     OW11341   3.919   0.887   4.580  0.3918  0.1381 -0.3513
 3481SOL    HW111342   3.856   0.821   4.622  1.9729 -0.1590  1.7272
 3481SOL    HW211343   3.870   0.941   4.512 -1.4845 -1.6992 -0.5583
 3482SOL     OW11344   5.642   3.894   0.321 -0.5347 -0.6835 -0.0976
 3482SOL    HW111345   5.590   3.959   0.265  1.0824  1.3608  0.6507
 3482SOL    HW211346   5.612   3.899   0.416 -0.6782 -1.3884 -0.0939
 3483SOL     OW11347   5.939   0.237   4.360 -0.4488 -0.4075 -0.0451
 3483SOL    HW111348   6.012   0.209   4.423 -0.2836 -2.2044 -0.9592
 3483SOL    HW211349   5.953   0.331   4.331  1.2588 -0.5819  0.1353
 3484SOL     OW11350   6.409   2.715   3.611 -0.2751 -0.1569  0.5606
 3484SOL    HW111351   6.498   2.673   3.629 -0.6515 -1.1814  0.1325
 3484SOL    HW211352   6.337   2.661   3.656 -0.8076 -0.2416 -0.3674
 3485SOL     OW11353   0.031   4.553   6.987 -0.0737  0.3331 -0.4771
 3485SOL    HW111354  -0.059   4.590   6.962  0.1125  0.8461 -0.3945
 3485SOL    HW211355   0.099   4.581   6.918  0.8611  3.4578  1.4872
 3486SOL     OW11356   6.693   5.068   6.144  0.1589  0.3420 -0.7316
 3486SOL    HW111357   6.778   5.093   6.191 -0.2335  0.4003 -0.0517
 3486SOL    HW211358   6.648   4.993   6.193 -0.7138  1.0102 -0.4863
 3487SOL     OW11359   4.378   2.422   6.411  0.0971 -0.4067  0.2265
 3487SOL    HW111360   4.332   2.442   6.497  0.1307 -1.0728  0.4062
 3487SOL    HW211361   4.329   2.349   6.363  0.3346 -0.3493 -0.1088
 3488SOL     OW11362   5.487   4.767   6.467 -0.4089  0.6512 -0.4413
 3488SOL    HW111363   5.450   4.813   6.548 -0.8917 -1.0920  0.3721
 3488SOL    HW211364   5.435   4.794   6.386 -1.6915  0.3579  0.2667
 3489SOL     OW11365   5.121   6.774   3.087 -0.5701  0.0259  0.2997
 3489SOL    HW111366   5.121   6.804   2.992  0.8201  0.3580  0.3848
 3489SOL    HW211367   5.037   6.805   3.132 -1.2230 -0.0987 -0.7922
 3490SOL     OW11368   5.949   4.704   1.273 -0.3172 -0.2654  0.1331
 3490SOL    HW111369   6.012   4.650   1.217  0.5289  0.5987  0.2094
 3490SOL    HW211370   5.890   4.643   1.326  0.2986 -1.0990 -0.1214
 3491SOL     OW11371   5.141   5.198   5.401  0.1507 -0.1911 -0.5518
 3491SOL    HW111372   5.068   5.144   5.360 -1.0131  0.6688  0.3047
 3491SOL    HW211373   5.131   5.197   5.500 -2.1213  4.2764 -0.4641
 3492SOL     OW11374   4.794   4.666   2.287 -0.2253  0.5402 -0.1265
 3492SOL    HW111375   4.846   4.600   2.342 -2.3063  1.1683  2.8297
 3492SOL    HW211376   4.840   4.755   2.290 -1.2325  1.0668  2.3767
 3493SOL     OW11377   6.291   3.604   5.447 -0.1169 -0.2319 -0.5887
 3493SOL    HW111378   6.290   3.505   5.434 -0.4870 -0.0952 -1.7104
 3493SOL    HW211379   6.258   3.626   5.539 -0.4364 -1.1236 -0.4789
 3494SOL     OW11380   4.036   6.921   1.694 -0.0804 -0.3778  0.2706
 3494SOL    HW111381   4.135   6.921   1.680 -0.2449 -0.3412 -0.9868
 3494SOL    HW211382   3.990   6.907   1.607 -1.1826 -0.9176  0.9177
 3495SOL     OW11383   0.355   2.841   4.276 -0.3809  0.3544 -0.4604
 3495SOL    HW111384   0.381   2.745   4.287  3.6075  1.4282  0.9797
 3495SOL    HW211385   0.297   2.869   4.353 -0.4231 -0.5482 -0.1537
 3496SOL     OW11386   4.971   5.330   2.573 -0.6433  0.1402  0.0736
 3496SOL    HW111387   5.014   5.400   2.631  1.3085 -1.6244  0.8929
 3496SOL    HW211388   4.988   5.240   2.612  0.0514 -1.0901 -2.8199
 3497SOL     OW11389   5.111   0.088   0.736 -0.5011 -0.3044  0.5677
 3497SOL    HW111390   5.151   0.021   0.798  1.3820 -2.8931 -3.0194
 3497SOL    HW211391   5.182   0.153   0.707 -1.1401  0.3859  0.5134
 3498SOL     OW11392   1.526   0.753   0.500  0.1887 -0.9921  0.0973
 3498SOL    HW111393   1.580   0.815   0.557 -1.3990 -0.0517  0.6240
 3498SOL    HW211394   1.522   0.663   0.544  0.7353 -0.8678  0.4069
 3499SOL     OW11395   3.835   6.892   3.186 -0.3230 -0.2583  0.2664
 3499SOL    HW111396   3.796   6.838   3.261  0.2070  0.1901  0.8765
 3499SOL    HW211397   3.809   6.851   3.099 -1.7928 -0.2371  0.6519
 3500SOL     OW11398   2.196   0.836   2.221  0.7584 -0.4584  0.5178
 3500SOL    HW111399   2.261   0.912   2.213  1.0587 -0.7232  0.4319
 3500SOL    HW211400   2.246   0.752   2.241  0.4016 -0.5838  0.8964
 3501SOL     OW11401   6.879   0.089   4.343 -0.0447  0.2882  0.1305
 3501SOL    HW111402   6.781   0.107   4.350  0.1404  1.0452  1.0087
 3501SOL    HW211403   6.900   0.053   4.252 -1.5503 -2.7405  0.8720
 3502SOL     OW11404   5.124   4.079   3.493 -0.1601  0.1005 -0.0088
 3502SOL    HW111405   5.125   4.000   3.554 -1.3211 -0.6163 -0.8650
 3502SOL    HW211406   5.037   4.081   3.443  0.5113  0.9910 -1.1997
 3503SOL     OW11407   3.034   5.850   5.779 -0.0298 -0.2448 -0.1382
 3503SOL    HW111408   2.959   5.784   5.780  0.0639 -0.3505  0.7652
 3503SOL    HW211409   3.059   5.871   5.684 -0.6927 -0.7771 -0.4399
 3504SOL     OW11410   1.781   6.692   6.826  0.1208  0.0737  0.1123
 3504SOL    HW111411   1.872   6.732   6.811  0.1346  0.1977  0.5091
 3504SOL    HW211412   1.713   6.747   6.778  0.5180 -1.6322 -2.6617
 3505SOL     OW11413   6.588   3.409   4.457 -0.1224 -0.2169 -0.2693
 3505SOL    HW111414   6.541   3.322   4.474  1.3446 -0.7977  1.0444
 3505SOL    HW211415   6.550   3.480   4.518 -1.0537 -0.0020 -1.0711
 3506SOL     OW11416   4.253   0.590   2.755 -0.4767 -0.0129  0.3632
 3506SOL    HW111417   4.219   0.502   2.721 -0.4761  0.4033 -0.7392
 3506SOL    HW211418   4.253   0.657   2.681 -0.2362  0.8562  1.1296
 3507SOL     OW11419   3.317   3.304   0.687 -0.0568  0.4202  0.0389
 3507SOL    HW111420   3.399   3.274   0.736 -0.4407  0.4394  0.6990
 3507SOL    HW211421   3.328   3.285   0.590 -0.2156 -1.7528  0.3991
 3508SOL     OW11422   4.494   1.024   0.396 -0.0729  0.1939  0.9169
 3508SOL    HW111423   4.419   1.083   0.363  0.4634  0.2196 -0.3269
 3508SOL    HW211424   4.526   0.967   0.321  1.9618  1.0501  1.0745
 3509SOL     OW11425   4.116   6.457   1.319 -0.3615 -0.1793  0.2542
 3509SOL    HW111426   4.139   6.364   1.289 -0.1378 -0.2555  0.6436
 3509SOL    HW211427   4.054   6.452   1.397 -0.1099 -0.0110  0.4676
 3510SOL     OW11428   2.338   0.737   1.747 -0.3725 -0.0091 -0.0731
 3510SOL    HW111429   2.352   0.832   1.773 -1.5257  0.3304 -0.6360
 3510SOL    HW211430   2.314   0.683   1.827  1.8905 -0.1909  0.5471
 3511SOL     OW11431   2.370   5.214   3.085  0.1171  0.2377  0.5935
 3511SOL    HW111432   2.282   5.260   3.096 -0.3204  0.5004 -2.7694
 3511SOL    HW211433   2.362   5.118   3.111 -0.7517  0.5636  1.6040
 3512SOL     OW11434   6.597   3.620   6.772 -0.0870 -0.5154 -0.1006
 3512SOL    HW111435   6.627   3.536   6.728 -0.0458 -1.0687  0.9416
 3512SOL    HW211436   6.566   3.600   6.865  2.0909  0.8894  1.0407
 3513SOL     OW11437   5.918   1.447   0.100 -0.5444  0.1952  0.3256
 3513SOL    HW111438   6.017   1.442   0.084 -0.4569 -1.3864  1.1486
 3513SOL    HW211439   5.899   1.423   0.195 -1.8901 -1.7807 -0.3931
 3514SOL     OW11440   3.262   2.160   2.839  0.6685 -0.5875 -0.0543
 3514SOL    HW111441   3.170   2.141   2.806  1.3811 -3.6182 -0.5998
 3514SOL    HW211442   3.265   2.151   2.938 -0.1585  2.5441  0.3815
 3515SOL     OW11443   0.305   4.669   3.666 -0.2308 -0.3259  0.0781
 3515SOL    HW111444   0.289   4.572   3.646  0.7532 -0.4947  0.0500
 3515SOL    HW211445   0.276   4.724   3.588  1.6105 -0.8169 -1.0125
 3516SOL     OW11446   4.983   6.993   0.251 -0.1974 -0.4494  0.1167
 3516SOL    HW111447   4.932   6.922   0.203  1.0948 -0.5840 -1.1222
 3516SOL    HW211448   4.966   6.987   0.349 -1.9048 -0.9870 -0.1833
 3517SOL     OW11449   4.894   2.773   3.726  0.5841 -0.2824  0.0941
 3517SOL    HW111450   4.867   2.853   3.672 -0.6662  1.3858  2.9350
 3517SOL    HW211451   4.825   2.756   3.796  1.4052 -3.2233  0.3449
 3518SOL     OW11452   6.773   0.154   5.108 -1.0146  0.0382 -0.0080
 3518SOL    HW111453   6.873   0.159   5.099 -0.9267  1.0286  1.2618
 3518SOL    HW211454   6.737   0.088   5.041  0.2558  1.2194 -1.9699
 3519SOL     OW11455   2.605   1.890   1.105 -0.2590 -1.0363  0.0068
 3519SOL    HW111456   2.652   1.973   1.135 -1.3137 -0.0784 -0.8985
 3519SOL    HW211457   2.667   1.835   1.049 -0.0888  0.0277 -0.8706
 3520SOL     OW11458   2.174   6.509   4.248  0.3516  0.1826 -0.0535
 3520SOL    HW111459   2.190   6.475   4.341 -1.6946  0.2992  0.3892
 3520SOL    HW211460   2.135   6.436   4.192  0.8014  0.3505 -0.5971
 3521SOL     OW11461   2.361   1.498   5.813  0.0056  0.0286 -0.1119
 3521SOL    HW111462   2.363   1.484   5.912  1.3052 -0.2213 -0.1530
 3521SOL    HW211463   2.435   1.446   5.771 -1.7740 -1.5519 -1.4499
 3522SOL     OW11464   0.154   5.897   6.695 -0.8511  0.1485 -0.0897
 3522SOL    HW111465   0.149   5.997   6.693  0.0225  0.2232  0.7524
 3522SOL    HW211466   0.185   5.867   6.785  1.2462 -0.7557 -1.0296
 3523SOL     OW11467   3.901   6.434   5.499 -0.1521 -0.0207 -0.3511
 3523SOL    HW111468   3.923   6.445   5.596 -1.2801 -0.6025 -0.0097
 3523SOL    HW211469   3.976   6.470   5.443  0.6370  0.0629  0.7338
 3524SOL     OW11470   3.406   2.036   3.479  0.5581  0.0385  0.0735
 3524SOL    HW111471   3.443   2.053   3.570  1.7043 -0.8955 -0.2068
 3524SOL    HW211472   3.309   2.012   3.487  1.1609 -2.3271  1.3070
 3525SOL     OW11473   0.838   2.836   3.668 -0.0327 -0.3977 -0.4419
 3525SOL    HW111474   0.874   2.913   3.615 -0.8202 -0.1006 -0.5672
 3525SOL    HW211475   0.833   2.755   3.610 -0.9457 -0.0584 -0.8676
 3526SOL     OW11476   6.685   1.321   1.015 -0.8331 -0.0362 -0.2384
 3526SOL    HW111477   6.750   1.248   0.993 -1.8638 -0.4538 -2.1508
 3526SOL    HW211478   6.611   1.284   1.071  0.3165  0.3427  1.5794
 3527SOL     OW11479   6.468   2.883   0.442 -0.1446  0.0672 -0.3612
 3527SOL    HW111480   6.489   2.864   0.538 -1.3538  0.5731  0.0231
 3527SOL    HW211481   6.470   2.798   0.391  0.9319 -0.1518  0.0161
 3528SOL     OW11482   2.511   6.698   4.300  0.3030  0.1473 -0.2419
 3528SOL    HW111483   2.572   6.651   4.236  0.5946  1.1293 -0.6965
 3528SOL    HW211484   2.424   6.719   4.256 -0.2494 -0.9284  0.2985
 3529SOL     OW11485   5.004   3.589   0.296  0.5964 -0.4250 -0.0304
 3529SOL    HW111486   5.077   3.566   0.233  0.7934  1.7051 -0.6545
 3529SOL    HW211487   5.042   3.628   0.380  0.2291 -0.4015  0.1304
 3530SOL     OW11488   6.577   1.436   6.816 -0.0415  0.2162 -0.5152
 3530SOL    HW111489   6.637   1.516   6.806  1.9326 -0.5736  3.2243
 3530SOL    HW211490   6.632   1.354   6.828 -1.9540 -1.0754 -0.1062
 3531SOL     OW11491   5.031   3.497   6.914  0.0833  0.2394 -0.4679
 3531SOL    HW111492   5.113   3.499   6.972  0.3041 -0.7165 -0.7263
 3531SOL    HW211493   5.056   3.469   6.821 -0.3720  1.0710 -0.8459
 3532SOL     OW11494   3.612   0.448   1.315 -0.5576 -1.0811 -0.4014
 3532SOL    HW111495   3.696   0.496   1.337 -1.8867  0.7502  1.0001
 3532SOL    HW211496   3.602   0.440   1.216  0.3132  0.4731 -0.6398
 3533SOL     OW11497   1.933   2.128   2.117  0.3304 -0.7620  0.9222
 3533SOL    HW111498   2.017   2.157   2.163 -0.2067 -0.9509  2.0680
 3533SOL    HW211499   1.949   2.122   2.019  1.6098 -0.6513  1.1059
 3534SOL     OW11500   0.154   1.700   0.188  0.2046 -0.0875  0.4028
 3534SOL    HW111501   0.153   1.748   0.275  1.3992 -0.8537  0.8545
 3534SOL    HW211502   0.243   1.657   0.174 -0.6789 -1.8238 -0.1710
 3535SOL     OW11503   5.378   2.049   4.626  0.3627  0.5089 -0.4573
 3535SOL    HW111504   5.433   2.043   4.543  0.4605 -2.1255 -0.2739
 3535SOL    HW211505   5.379   1.961   4.674 -4.1926  0.1299 -0.5734
 3536SOL     OW11506   3.517   0.483   1.555 -0.2521 -0.1706  0.5647
 3536SOL    HW111507   3.543   0.577   1.577  0.3859 -0.4974  1.2562
 3536SOL    HW211508   3.544   0.461   1.462 -0.0570  0.2106  0.5313
 3537SOL     OW11509   1.527   6.703   3.885  0.3223  0.0642  0.4790
 3537SOL    HW111510   1.618   6.690   3.845  0.4857 -1.5121  1.2946
 3537SOL    HW211511   1.460   6.715   3.812  1.0372  0.2304 -0.1603
 3538SOL     OW11512   4.193   4.755   1.339 -0.3591  0.3205  0.3547
 3538SOL    HW111513   4.170   4.791   1.248 -1.8038  2.5122  1.4700
 3538SOL    HW211514   4.245   4.671   1.330 -0.5173  0.4299 -2.4903
 3539SOL     OW11515   3.851   3.304   6.342 -0.4606  0.0927  0.1499
 3539SOL    HW111516   3.911   3.334   6.416 -0.9112 -0.1692  0.6291
 3539SOL    HW211517   3.756   3.325   6.365 -0.5429  0.7429 -0.7180
 3540SOL     OW11518   1.654   1.049   2.965  0.5709 -0.7448 -0.3272
 3540SOL    HW111519   1.628   0.997   2.883  1.2485  0.0422 -1.0570
 3540SOL    HW211520   1.574   1.099   2.998  0.3915 -0.7392 -0.7569
 3541SOL     OW11521   4.050   3.510   4.143 -0.2994 -0.0867  0.7889
 3541SOL    HW111522   4.138   3.539   4.180  0.5450 -0.6290 -0.7449
 3541SOL    HW211523   4.013   3.581   4.084 -1.5927  0.7233  2.4631
 3542SOL     OW11524   1.196   6.913   2.038  0.0385  0.0954  0.6757
 3542SOL    HW111525   1.193   6.904   2.138 -0.2325  2.0504  0.8728
 3542SOL    HW211526   1.212   7.008   2.013 -1.5968 -0.0545 -1.1735
 3543SOL     OW11527   0.253   3.708   5.329  0.2282  0.3367  0.3656
 3543SOL    HW111528   0.191   3.714   5.408  1.3957 -1.8570  1.5445
 3543SOL    HW211529   0.205   3.664   5.253  0.6259 -2.6294  1.7168
 3544SOL     OW11530   4.654   6.761   4.752 -0.3057  0.3204  0.2056
 3544SOL    HW111531   4.640   6.826   4.677  3.7315  0.7316 -0.4095
 3544SOL    HW211532   4.680   6.811   4.835  0.4559 -0.3509  0.3867
 3545SOL     OW11533   3.287   5.768   0.614  0.1012 -0.0301  0.4629
 3545SOL    HW111534   3.253   5.792   0.705 -2.2235  1.9582 -0.8092
 3545SOL    HW211535   3.263   5.840   0.549  1.8247 -1.2934 -1.7471
 3546SOL     OW11536   0.897   4.108   1.342 -0.2947 -0.1970 -0.2182
 3546SOL    HW111537   0.889   4.134   1.438  1.1657  1.6237 -0.5369
 3546SOL    HW211538   0.915   4.189   1.286  2.1063 -1.5767 -1.6264
 3547SOL     OW11539   4.273   4.721   4.804 -0.1603  0.1592  1.2591
 3547SOL    HW111540   4.213   4.792   4.841  1.2882  1.2611  1.6031
 3547SOL    HW211541   4.306   4.664   4.879  1.0298  1.0224  1.4328
 3548SOL     OW11542   5.603   2.888   5.614 -0.0275  0.6711  0.2225
 3548SOL    HW111543   5.665   2.928   5.546  0.8868  0.8956  1.1482
 3548SOL    HW211544   5.512   2.877   5.575  0.7364 -0.2417 -1.3764
 3549SOL     OW11545   5.038   3.565   2.384  0.6633  0.4242 -0.2859
 3549SOL    HW111546   5.010   3.524   2.471  0.2003  0.2705 -0.5058
 3549SOL    HW211547   5.074   3.493   2.324  1.3498  0.5899 -0.0787
 3550SOL     OW11548   4.195   2.136   5.279  0.2088 -0.0013 -0.1739
 3550SOL    HW111549   4.194   2.107   5.184 -0.0773 -1.9945  0.3828
 3550SOL    HW211550   4.174   2.058   5.338 -0.3185  1.3300  1.4954
 3551SOL     OW11551   1.966   0.392   2.513  0.2450 -0.4490 -0.6189
 3551SOL    HW111552   2.031   0.393   2.589 -1.5981 -1.3416  1.0398
 3551SOL    HW211553   1.975   0.306   2.463  0.4585 -0.4879 -0.5150
 3552SOL     OW11554   5.576   4.684   3.366 -0.1001 -0.0752  0.4034
 3552SOL    HW111555   5.665   4.640   3.356 -0.4429 -0.6288 -0.3069
 3552SOL    HW211556   5.546   4.719   3.277 -1.0825 -0.8628  0.4187
 3553SOL     OW11557   4.989   3.050   3.273  0.8383 -0.1993  0.4599
 3553SOL    HW111558   4.980   2.951   3.256 -1.4832 -0.2953  1.8989
 3553SOL    HW211559   5.009   3.065   3.369 -0.5060  0.7746  0.6033
 3554SOL     OW11560   3.395   4.913   5.256 -0.8849  0.7360  0.0690
 3554SOL    HW111561   3.335   4.845   5.297 -2.1368  1.2140 -0.8952
 3554SOL    HW211562   3.350   5.003   5.259 -2.2376  0.4539 -4.4048
 3555SOL     OW11563   2.115   1.476   3.732  0.0342 -0.5226  0.1302
 3555SOL    HW111564   2.059   1.393   3.726  1.9689 -1.8761  0.0667
 3555SOL    HW211565   2.087   1.539   3.660 -1.2230 -1.2671 -0.0730
 3556SOL     OW11566   4.040   1.606   5.895 -0.5393 -0.3070 -0.7337
 3556SOL    HW111567   4.112   1.538   5.885  0.1118  0.1951  0.3894
 3556SOL    HW211568   3.968   1.589   5.827  0.1101 -1.4631 -1.1523
 3557SOL     OW11569   0.601   1.382   2.166 -0.0592  0.7054 -0.7754
 3557SOL    HW111570   0.521   1.341   2.209 -0.2831 -1.3155 -2.9308
 3557SOL    HW211571   0.684   1.338   2.201  0.1833  2.5953  1.2373
 3558SOL     OW11572   6.618   5.633   6.840 -0.0650 -0.2640 -0.4321
 3558SOL    HW111573   6.630   5.560   6.773  1.3937  0.2832 -0.8016
 3558SOL    HW211574   6.546   5.607   6.905 -0.5302 -1.4094 -1.3679
 3559SOL     OW11575   0.913   0.764   5.820 -0.5450 -0.2237 -0.6260
 3559SOL    HW111576   0.849   0.733   5.890 -2.5287  1.4569 -1.5969
 3559SOL    HW211577   0.886   0.727   5.731  0.3407 -0.1373 -0.9430
 3560SOL     OW11578   6.322   5.516   0.218 -0.5718 -0.4397  0.1840
 3560SOL    HW111579   6.331   5.463   0.302 -1.9477 -1.0443 -0.0327
 3560SOL    HW211580   6.225   5.524   0.194 -0.2159  0.0735 -1.1251
 3561SOL     OW11581   5.656   4.838   4.080  0.0206 -0.6590  0.1472
 3561SOL    HW111582   5.717   4.770   4.041 -0.3211 -0.6382 -0.4446
 3561SOL    HW211583   5.641   4.819   4.177 -0.0042 -1.3723  0.0074
 3562SOL     OW11584   5.201   2.110   1.788  0.5587 -0.2244  0.0987
 3562SOL    HW111585   5.141   2.099   1.708  0.3770 -0.7135  0.3031
 3562SOL    HW211586   5.212   2.208   1.807 -0.1607 -0.1246  0.0439
 3563SOL     OW11587   3.837   6.216   1.369  0.0791 -0.5758  0.1278
 3563SOL    HW111588   3.884   6.128   1.367  1.3711  0.0879 -0.4297
 3563SOL    HW211589   3.820   6.246   1.275  0.5439  0.2196  0.2920
 3564SOL     OW11590   0.535   4.485   1.315 -0.1460 -0.0296  0.5274
 3564SOL    HW111591   0.435   4.478   1.313 -0.2094  0.8131 -0.8377
 3564SOL    HW211592   0.569   4.498   1.222  0.9927  2.5732  1.2099
 3565SOL     OW11593   0.669   0.026   4.877  0.1620  0.0948  0.2913
 3565SOL    HW111594   0.613   0.106   4.898 -1.1862 -0.1819 -1.8591
 3565SOL    HW211595   0.765   0.053   4.873 -0.3137  1.8094 -1.0403
 3566SOL     OW11596   1.769   6.339   5.653 -0.2249  0.2374 -0.5748
 3566SOL    HW111597   1.776   6.258   5.712  3.5936  0.1240 -0.9064
 3566SOL    HW211598   1.774   6.421   5.710 -1.1774  0.2176 -0.4498
 3567SOL     OW11599   6.269   3.402   2.672  0.0145 -0.0947  0.3755
 3567SOL    HW111600   6.305   3.488   2.709 -0.6272 -0.1434  1.1270
 3567SOL    HW211601   6.280   3.330   2.740 -0.8132 -0.2749  0.3215
 3568SOL     OW11602   4.921   4.960   5.081  0.0812  0.7292  0.2351
 3568SOL    HW111603   4.972   5.018   5.017  0.2166 -0.0573 -0.3870
 3568SOL    HW211604   4.983   4.896   5.126 -0.0991  0.9110  0.7521
 3569SOL     OW11605   3.288   2.999   3.556  0.6244  0.3288  0.4910
 3569SOL    HW111606   3.353   2.941   3.604 -0.9303 -1.5276  0.4867
 3569SOL    HW211607   3.275   2.964   3.463 -0.6726  0.3859  0.6299
 3570SOL     OW11608   1.298   3.980   0.211  0.5182  0.0879  0.0606
 3570SOL    HW111609   1.329   3.918   0.140 -1.4081 -1.9844  0.8945
 3570SOL    HW211610   1.200   3.996   0.201  0.4063  0.5691  1.6265
 3571SOL     OW11611   1.999   0.153   3.368 -0.1423 -0.3566  0.2691
 3571SOL    HW111612   2.081   0.199   3.402 -0.0376  0.2328 -0.7424
 3571SOL    HW211613   1.979   0.185   3.275 -0.9295 -1.2532  0.1145
 3572SOL     OW11614   5.911   5.436   3.188  0.0391 -0.3431  0.3601
 3572SOL    HW111615   5.942   5.425   3.282  0.1605  0.3264  0.4042
 3572SOL    HW211616   5.989   5.433   3.126  0.1307  0.6647  0.4127
 3573SOL     OW11617   0.400   5.073   4.778 -0.1084 -0.3447 -0.0070
 3573SOL    HW111618   0.434   5.125   4.700 -0.0377 -0.1063  0.1809
 3573SOL    HW211619   0.306   5.099   4.797 -0.9410 -2.1096 -1.4857
 3574SOL     OW11620   2.833   1.269   5.657  0.6574 -0.2245 -0.0629
 3574SOL    HW111621   2.811   1.269   5.559 -0.2780 -0.6109  0.1333
 3574SOL    HW211622   2.844   1.174   5.688  2.6508 -0.0672 -0.1354
 3575SOL     OW11623   4.507   6.262   6.188 -0.2290  0.2156 -0.5031
 3575SOL    HW111624   4.603   6.238   6.202  0.1939 -0.0270 -3.2625
 3575SOL    HW211625   4.462   6.188   6.138 -1.6639  0.6922  0.0441
 3576SOL     OW11626   0.401   3.436   4.890  0.2201 -0.0161  0.1356
 3576SOL    HW111627   0.420   3.532   4.910 -2.4416  0.4525  0.7869
 3576SOL    HW211628   0.484   3.382   4.906  2.1361  2.2557 -1.3638
 3577SOL     OW11629   2.127   3.818   3.739  0.6734 -0.0608  0.4098
 3577SOL    HW111630   2.147   3.879   3.662  0.9622 -1.2226 -0.4801
 3577SOL    HW211631   2.159   3.726   3.716 -0.5008 -0.7295  1.3629
 3578SOL     OW11632   5.461   1.645   6.455 -0.4625 -0.6832 -0.2316
 3578SOL    HW111633   5.482   1.584   6.532 -0.8038  2.3099  2.4224
 3578SOL    HW211634   5.382   1.701   6.477 -0.3293  0.5855 -2.6537
 3579SOL     OW11635   1.614   3.253   1.970 -0.0357  0.2581 -0.1469
 3579SOL    HW111636   1.563   3.317   1.912  1.1511  1.3947  0.0158
 3579SOL    HW211637   1.614   3.163   1.927 -0.3200  0.7556 -1.2411
 3580SOL     OW11638   0.518   5.420   0.744 -0.2603 -0.2250  0.4068
 3580SOL    HW111639   0.531   5.323   0.723  0.0782  0.2119 -1.6526
 3580SOL    HW211640   0.440   5.431   0.806 -1.6275 -1.6921 -0.9590
 3581SOL     OW11641   2.869   1.174   2.128 -0.5847 -0.5976 -0.5781
 3581SOL    HW111642   2.932   1.168   2.051 -1.3479 -1.6627 -1.1658
 3581SOL    HW211643   2.915   1.144   2.212 -0.7059 -3.0476 -1.2894
 3582SOL     OW11644   5.448   6.691   5.898  0.4865  1.0079  0.1385
 3582SOL    HW111645   5.538   6.733   5.883  0.9559  0.4731  1.3076
 3582SOL    HW211646   5.380   6.739   5.842  1.4670  1.4808 -0.7143
 3583SOL     OW11647   4.790   6.147   2.259  0.6963 -0.6409  0.8039
 3583SOL    HW111648   4.786   6.047   2.256 -1.4031 -0.6563  2.0705
 3583SOL    HW211649   4.886   6.177   2.255  1.3767 -2.6946  0.6907
 3584SOL     OW11650   5.668   5.350   6.109  0.4761  0.1493 -0.1586
 3584SOL    HW111651   5.747   5.294   6.084  1.8989  1.1676  1.8093
 3584SOL    HW211652   5.640   5.329   6.202 -1.7697 -0.3142 -0.8659
 3585SOL     OW11653   4.974   0.737   2.966 -0.1899 -0.0227  0.9860
 3585SOL    HW111654   4.931   0.685   2.892  0.0032 -0.3861  1.1276
 3585SOL    HW211655   5.043   0.799   2.927  0.1329 -0.4403  0.8848
 3586SOL     OW11656   6.433   3.180   4.599 -0.0942 -0.3660  0.0004
 3586SOL    HW111657   6.433   3.242   4.678 -0.8562  0.8777 -0.9420
 3586SOL    HW211658   6.347   3.128   4.597  0.9977 -2.3725  1.4271
 3587SOL     OW11659   3.952   6.951   4.947  0.0706  1.0882  0.3446
 3587SOL    HW111660   3.972   6.862   4.988  1.3068  1.6322  0.9684
 3587SOL    HW211661   3.858   6.976   4.969 -0.9695 -0.8831 -1.4375
 3588SOL     OW11662   5.112   3.074   4.560 -0.4842  0.3525 -0.7826
 3588SOL    HW111663   5.193   3.130   4.544 -0.1652  0.4598  1.0423
 3588SOL    HW211664   5.038   3.131   4.595 -0.2144 -0.2917  0.9299
 3589SOL     OW11665   2.766   2.957   5.652 -0.1880  0.6263 -0.3001
 3589SOL    HW111666   2.709   2.998   5.581  1.1950  0.8467 -1.3187
 3589SOL    HW211667   2.861   2.987   5.640  0.0976  0.6534  1.6302
 3590SOL     OW11668   5.687   4.500   0.101 -0.5123  0.3390  1.0147
 3590SOL    HW111669   5.643   4.441   0.169  2.0042  0.9910  3.3448
 3590SOL    HW211670   5.703   4.591   0.141  0.1432  1.0721 -0.8189
 3591SOL     OW11671   5.409   1.537   0.778  0.2968  0.2461 -0.4037
 3591SOL    HW111672   5.358   1.461   0.819  1.5367  0.0304  0.8034
 3591SOL    HW211673   5.348   1.614   0.764 -0.6420 -0.4388 -0.1945
 3592SOL     OW11674   1.805   0.348   3.857 -0.8874  0.6383 -0.0851
 3592SOL    HW111675   1.815   0.304   3.768 -2.1404  1.3502 -0.6101
 3592SOL    HW211676   1.871   0.424   3.864 -0.0992 -0.0400  0.0183
 3593SOL     OW11677   3.596   3.978   4.393  0.5132  0.0870  0.0753
 3593SOL    HW111678   3.542   4.039   4.450  0.7910 -1.1380  1.7426
 3593SOL    HW211679   3.680   3.952   4.442 -0.4920 -3.1283  0.3829
 3594SOL     OW11680   5.347   3.321   4.520  0.0769  0.2689  0.5855
 3594SOL    HW111681   5.404   3.357   4.446 -0.3290 -0.1833  0.0386
 3594SOL    HW211682   5.294   3.394   4.562  0.1112  0.4855  0.2476
 3595SOL     OW11683   3.573   0.174   4.833 -0.2799 -0.1467 -0.0523
 3595SOL    HW111684   3.574   0.167   4.933 -0.2417 -0.1689 -0.0543
 3595SOL    HW211685   3.628   0.252   4.804  0.1306 -0.4453 -0.0810
 3596SOL     OW11686   1.079   2.448   0.623  0.0464  0.5512 -0.0975
 3596SOL    HW111687   1.124   2.362   0.602  1.2550  1.5969 -2.0988
 3596SOL    HW211688   1.140   2.524   0.601 -0.2014  1.9914  3.3781
 3597SOL     OW11689   3.445   3.733   6.274  0.0356  0.2735 -0.7986
 3597SOL    HW111690   3.347   3.750   6.283  0.0063 -0.3790  0.3606
 3597SOL    HW211691   3.461   3.647   6.226  0.0434  0.4730 -1.1530
 3598SOL     OW11692   5.714   4.625   4.683 -0.4724 -0.0141 -0.0099
 3598SOL    HW111693   5.763   4.712   4.685 -0.0344 -0.1638  3.9713
 3598SOL    HW211694   5.778   4.550   4.668 -0.5214  0.1909 -1.2901
 3599SOL     OW11695   2.888   1.771   5.272  0.7346  0.0635 -0.2681
 3599SOL    HW111696   2.873   1.720   5.188 -0.9136 -0.9118  0.5540
 3599SOL    HW211697   2.919   1.864   5.251 -0.6235  0.1695 -1.9909
 3600SOL     OW11698   0.600   4.574   1.715 -0.0083 -0.1085  0.4983
 3600SOL    HW111699   0.612   4.665   1.674  1.0120 -1.2790 -2.0101
 3600SOL    HW211700   0.509   4.568   1.755 -0.8218  1.4423 -0.9671
 3601SOL     OW11701   4.543   6.496   0.520  0.1429  0.2358 -0.4164
 3601SOL    HW111702   4.478   6.551   0.571  0.1892 -0.5393  0.5109
 3601SOL    HW211703   4.604   6.448   0.584  2.6117  2.0521 -1.2460
 3602SOL     OW11704   6.530   5.269   1.889  0.0138  0.9126 -0.1378
 3602SOL    HW111705   6.495   5.238   1.977  0.7032  0.0553 -0.1494
 3602SOL    HW211706   6.474   5.230   1.816  1.2185 -0.8485 -0.1751
 3603SOL     OW11707   1.020   5.832   6.149 -0.5178 -0.3350  0.2513
 3603SOL    HW111708   0.988   5.741   6.176  1.9291 -0.1982  4.4455
 3603SOL    HW211709   1.110   5.825   6.107  0.4211  0.1371  2.0809
 3604SOL     OW11710   7.013   0.611   3.206  0.1255  0.1532 -0.2736
 3604SOL    HW111711   7.082   0.541   3.190  0.6694  0.5774  0.1368
 3604SOL    HW211712   7.048   0.700   3.176 -0.2059  0.3871  0.0110
 3605SOL     OW11713   0.068   6.658   3.846 -0.4553 -0.8966 -0.1209
 3605SOL    HW111714   0.085   6.625   3.753 -1.1583  0.0448 -0.6022
 3605SOL    HW211715  -0.018   6.709   3.848  0.4098  0.6337  0.6250
 3606SOL     OW11716   3.465   6.170   1.316  0.0549 -0.0215  0.0747
 3606SOL    HW111717   3.466   6.234   1.239 -0.5475 -0.7004 -0.5185
 3606SOL    HW211718   3.446   6.078   1.282  2.7264 -0.8898  0.6420
 3607SOL     OW11719   5.257   0.564   4.582  0.0945  0.2200  0.0731
 3607SOL    HW111720   5.259   0.664   4.577  0.5341  0.1568 -1.8890
 3607SOL    HW211721   5.184   0.529   4.523  1.8206 -0.6887 -1.6215
 3608SOL     OW11722   4.611   2.696   6.712  0.1025 -0.3124  0.4006
 3608SOL    HW111723   4.568   2.749   6.639  0.2670 -1.0110 -0.2208
 3608SOL    HW211724   4.556   2.615   6.733 -1.7047  1.5099  3.3845
 3609SOL     OW11725   2.392   6.113   4.719  0.7539 -0.2645  0.0637
 3609SOL    HW111726   2.471   6.173   4.730  1.0031 -0.2496 -1.5553
 3609SOL    HW211727   2.310   6.168   4.705  0.5963 -0.2897  0.8609
 3610SOL     OW11728   1.427   1.513   0.331  0.0584 -0.5053 -0.1727
 3610SOL    HW111729   1.477   1.599   0.345 -1.2484  0.7387 -2.5900
 3610SOL    HW211730   1.366   1.497   0.409  0.3717  0.6984  0.3444
 3611SOL     OW11731   6.810   3.105   2.228 -0.2629 -1.0608 -0.3497
 3611SOL    HW111732   6.749   3.028   2.212  0.4412 -1.3589 -1.7940
 3611SOL    HW211733   6.761   3.191   2.212 -1.3550 -1.0927  2.3007
 3612SOL     OW11734   4.238   1.303   1.642  0.0994  1.1781 -0.4929
 3612SOL    HW111735   4.304   1.228   1.650  1.1958  2.0576 -0.9943
 3612SOL    HW211736   4.287   1.390   1.641 -1.1638  1.9232  0.2295
 3613SOL     OW11737   3.544   1.036   3.725  0.2195 -0.4795  0.0433
 3613SOL    HW111738   3.576   0.981   3.647 -0.0755 -1.9491  0.9197
 3613SOL    HW211739   3.614   1.103   3.749  1.6506 -2.0248  0.3836
 3614SOL     OW11740   3.144   5.076   1.272  0.3681  0.7762 -0.2087
 3614SOL    HW111741   3.199   5.159   1.276 -0.1584  1.2529 -1.8693
 3614SOL    HW211742   3.063   5.093   1.216  1.2614 -1.3973 -2.3075
 3615SOL     OW11743   6.481   2.231   5.105 -0.1010  0.3707 -0.3579
 3615SOL    HW111744   6.423   2.173   5.048  0.7541  0.1637 -1.0335
 3615SOL    HW211745   6.458   2.327   5.088  0.4996  0.3353 -1.4619
 3616SOL     OW11746   1.129   1.863   0.675  0.2432 -0.1149 -0.2588
 3616SOL    HW111747   1.184   1.945   0.693 -0.6409  0.6257 -0.8462
 3616SOL    HW211748   1.136   1.839   0.578  0.2229 -0.5317 -0.1580
 3617SOL     OW11749   5.172   4.192   6.347  0.5140  0.3055 -0.4724
 3617SOL    HW111750   5.095   4.131   6.328 -0.4325  1.2258  0.2758
 3617SOL    HW211751   5.137   4.281   6.378  1.8816  0.7605 -0.1766
 3618SOL     OW11752   0.482   5.347   3.018 -0.8777  0.1995 -0.3484
 3618SOL    HW111753   0.456   5.443   3.026  0.5357  0.7691 -2.1184
 3618SOL    HW211754   0.543   5.335   2.941 -1.9928 -2.3458 -0.9445
 3619SOL     OW11755   0.128   2.360   2.506  0.4539 -0.0144 -0.3586
 3619SOL    HW111756   0.080   2.280   2.541  1.6212 -0.1581  1.0383
 3619SOL    HW211757   0.166   2.412   2.583  0.8872  1.1288 -1.3076
 3620SOL     OW11758   5.390   0.364   6.709  0.1332 -0.1978 -0.2488
 3620SOL    HW111759   5.403   0.286   6.769  1.3130  0.0946 -0.1050
 3620SOL    HW211760   5.411   0.338   6.615  0.0738 -0.1679 -0.2708
 3621SOL     OW11761   3.025   3.989   2.529  0.1506  0.5969 -0.2141
 3621SOL    HW111762   3.021   3.918   2.600  2.6946  1.7232  1.1689
 3621SOL    HW211763   3.112   4.037   2.534 -0.6398  2.4643 -2.4829
 3622SOL     OW11764   1.764   6.095   6.477  0.1835  0.0423  0.6466
 3622SOL    HW111765   1.666   6.116   6.477 -0.5323 -2.8907  0.0166
 3622SOL    HW211766   1.815   6.177   6.503 -2.3071  2.0479 -0.3302
 3623SOL     OW11767   2.456   5.370   4.302 -0.6726  0.0517 -0.3323
 3623SOL    HW111768   2.541   5.325   4.276 -1.0792 -0.8270 -0.1692
 3623SOL    HW211769   2.469   5.414   4.391 -0.2282  0.4022 -0.5621
 3624SOL     OW11770   3.907   6.543   1.174 -0.7085 -0.6219 -0.2721
 3624SOL    HW111771   3.854   6.541   1.259 -0.8456 -0.4106 -0.3517
 3624SOL    HW211772   4.004   6.540   1.195 -0.7480 -0.7691 -0.1146
 3625SOL     OW11773   6.055   1.574   3.078 -0.5677  0.4460  0.6710
 3625SOL    HW111774   6.120   1.608   3.146 -2.3193 -0.2369  2.7981
 3625SOL    HW211775   5.993   1.508   3.121 -1.8881  0.1277 -1.5700
 3626SOL     OW11776   5.838   3.865   6.882 -0.1240  0.0519  0.0981
 3626SOL    HW111777   5.867   3.961   6.884 -0.4604  0.2511 -2.2301
 3626SOL    HW211778   5.818   3.838   6.788 -1.3303 -1.9363  0.8677
 3627SOL     OW11779   2.054   0.567   1.452 -0.4632 -0.3601 -0.1035
 3627SOL    HW111780   2.018   0.604   1.538 -0.1635 -2.3523  0.9414
 3627SOL    HW211781   1.987   0.580   1.379 -1.3160  0.1224  0.7444
 3628SOL     OW11782   6.175   0.592   0.108  0.3200 -0.0709  0.1450
 3628SOL    HW111783   6.232   0.620   0.186  0.3672 -0.1352  0.1337
 3628SOL    HW211784   6.173   0.666   0.041  1.5691 -0.6015 -0.5156
 3629SOL     OW11785   2.044   5.257   4.885  0.0834  0.3653 -0.3922
 3629SOL    HW111786   2.055   5.311   4.802  1.0256 -0.1132 -0.5845
 3629SOL    HW211787   1.996   5.172   4.864  3.5302 -1.5515 -1.2614
 3630SOL     OW11788   0.571   0.871   3.040  0.9030  0.3249 -0.1392
 3630SOL    HW111789   0.552   0.854   3.136  0.8363 -4.4083 -0.7762
 3630SOL    HW211790   0.667   0.850   3.020  0.8809  1.1122 -1.1507
 3631SOL     OW11791   1.578   5.475   1.860  0.2347 -0.4013 -0.2305
 3631SOL    HW111792   1.671   5.509   1.871 -0.1386  0.6794 -0.2713
 3631SOL    HW211793   1.543   5.446   1.949  0.4996 -0.5204 -0.1636
 3632SOL     OW11794   5.427   3.500   1.932  0.4515  0.3800 -0.0632
 3632SOL    HW111795   5.482   3.577   1.962 -0.7543  1.3729 -0.3154
 3632SOL    HW211796   5.475   3.414   1.951  0.5807  1.0270  2.9282
 3633SOL     OW11797   4.882   3.540   5.339  0.2267  0.0487 -0.0608
 3633SOL    HW111798   4.936   3.605   5.392  0.6179 -0.1861 -0.1729
 3633SOL    HW211799   4.830   3.589   5.269 -0.8665  0.4571  0.9912
 3634SOL     OW11800   3.650   6.604   0.435 -0.1435  0.1504  0.2965
 3634SOL    HW111801   3.743   6.635   0.416  0.4952 -1.1899  1.0791
 3634SOL    HW211802   3.634   6.604   0.534 -1.3420  1.3197  0.1273
 3635SOL     OW11803   2.401   0.364   2.119 -0.0705 -0.4329 -1.0119
 3635SOL    HW111804   2.459   0.305   2.175  0.0855 -0.1948 -0.9220
 3635SOL    HW211805   2.439   0.370   2.027  0.4134  0.2528 -0.7705
 3636SOL     OW11806   6.272   0.988   3.991 -0.6724 -0.2224 -0.4461
 3636SOL    HW111807   6.179   1.001   4.023 -1.2454 -0.4740 -1.9437
 3636SOL    HW211808   6.289   1.045   3.911  0.2383 -0.6931 -0.6062
 3637SOL     OW11809   5.972   1.085   1.288  0.1958 -0.0361  0.2618
 3637SOL    HW111810   5.993   1.151   1.360 -0.4047 -1.2927  1.6382
 3637SOL    HW211811   5.956   0.995   1.329 -1.2301 -0.5661 -1.3388
 3638SOL     OW11812   6.607   3.818   3.381 -0.1155  0.1258  0.9067
 3638SOL    HW111813   6.670   3.744   3.357 -0.9191  0.0506 -1.2567
 3638SOL    HW211814   6.656   3.905   3.381 -0.2147  0.3235 -2.6131
 3639SOL     OW11815   3.236   3.409   3.363 -0.2030  0.1157 -0.0409
 3639SOL    HW111816   3.162   3.356   3.322  0.5231 -0.5597 -0.5213
 3639SOL    HW211817   3.289   3.350   3.425  1.6233 -0.2624 -1.8319
 3640SOL     OW11818   2.819   0.853   3.478 -0.3045  0.7872  0.3110
 3640SOL    HW111819   2.837   0.775   3.538  2.9576 -0.2458 -1.7785
 3640SOL    HW211820   2.851   0.937   3.523 -0.4230  0.4269  1.0895
 3641SOL     OW11821   1.402   2.722   2.943 -0.0981  0.0279  0.3209
 3641SOL    HW111822   1.361   2.746   3.030  1.1656  0.3498  0.8506
 3641SOL    HW211823   1.371   2.631   2.915 -2.7929  1.0694 -0.3585
 3642SOL     OW11824   3.984   3.974   6.932  0.0742  0.4241  0.8365
 3642SOL    HW111825   3.937   4.058   6.906 -0.7278 -0.3492 -0.2931
 3642SOL    HW211826   3.943   3.938   7.016 -1.1448 -0.0590  0.0538
 3643SOL     OW11827   3.906   3.241   6.775  0.1862 -0.0880  0.3529
 3643SOL    HW111828   3.994   3.288   6.767  0.4483 -0.7207 -0.7793
 3643SOL    HW211829   3.921   3.144   6.793 -0.0759 -0.9113 -3.1270
 3644SOL     OW11830   3.027   1.668   1.350 -0.4312 -0.6207  0.2750
 3644SOL    HW111831   2.979   1.751   1.380  0.9420  0.3191 -0.0005
 3644SOL    HW211832   3.091   1.640   1.422  1.1882  0.2816 -0.7447
 3645SOL     OW11833   1.228   5.301   3.498  1.0336  0.2970  0.2380
 3645SOL    HW111834   1.181   5.272   3.415 -1.2125 -0.3980  1.6646
 3645SOL    HW211835   1.166   5.357   3.554  2.2754  0.2588  1.7312
 3646SOL     OW11836   4.278   4.748   5.496  0.2523 -0.2021 -0.0748
 3646SOL    HW111837   4.191   4.703   5.475  0.6791 -0.8062 -0.5809
 3646SOL    HW211838   4.352   4.698   5.452  1.2179 -1.5431  2.8279
 3647SOL     OW11839   2.571   1.259   0.772  0.1731  0.0081 -0.4655
 3647SOL    HW111840   2.505   1.315   0.822 -0.0107 -0.5478 -0.0719
 3647SOL    HW211841   2.524   1.207   0.701  0.3381  0.3172 -0.8055
 3648SOL     OW11842   0.494   4.851   3.719 -0.1321  0.8204 -0.0741
 3648SOL    HW111843   0.419   4.794   3.684 -0.9156  2.2740 -0.8694
 3648SOL    HW211844   0.509   4.831   3.816 -1.0150 -0.0540 -0.0986
 3649SOL     OW11845   4.771   2.978   0.673 -0.1273  0.2464 -0.1559
 3649SOL    HW111846   4.833   2.980   0.752  1.2874 -1.2497 -1.1665
 3649SOL    HW211847   4.756   3.071   0.640  2.0513  0.6089 -0.2169
 3650SOL     OW11848   5.160   5.471   1.767 -0.2272 -0.3699 -0.1607
 3650SOL    HW111849   5.197   5.513   1.849 -0.8233  1.8142 -0.9452
 3650SOL    HW211850   5.231   5.468   1.696 -0.5188  0.4933 -0.5012
 3651SOL     OW11851   3.143   0.557   6.579  0.1197 -0.1154  0.2260
 3651SOL    HW111852   3.156   0.647   6.538  1.4464 -0.6004 -0.5051
 3651SOL    HW211853   3.111   0.493   6.509  1.7801 -0.8034  0.0481
 3652SOL     OW11854   6.572   1.942   2.303  0.8249 -0.4383  0.0385
 3652SOL    HW111855   6.519   1.977   2.380 -0.4895 -0.0512 -0.9937
 3652SOL    HW211856   6.624   1.862   2.332  2.1099  0.9652  1.8656
 3653SOL     OW11857   3.502   1.328   0.975  0.4357  0.4301  0.3770
 3653SOL    HW111858   3.468   1.249   1.025  0.5435 -1.4754 -2.3484
 3653SOL    HW211859   3.426   1.392   0.959  0.0988  0.3658  1.6147
 3654SOL     OW11860   5.534   4.635   0.527 -0.3473 -0.2276  0.4057
 3654SOL    HW111861   5.437   4.612   0.520 -0.1051 -0.9171 -1.0150
 3654SOL    HW211862   5.588   4.551   0.530  0.2465  0.1557  0.7572
 3655SOL     OW11863   3.685   5.740   4.326 -0.2330  0.1369 -0.2131
 3655SOL    HW111864   3.644   5.650   4.337 -0.0231 -0.1087 -1.2849
 3655SOL    HW211865   3.619   5.811   4.350 -0.2028 -0.2952  1.2286
 3656SOL     OW11866   6.545   1.431   6.267  0.0085 -0.5160 -0.0477
 3656SOL    HW111867   6.575   1.435   6.172 -0.0142  0.1328 -0.0322
 3656SOL    HW211868   6.623   1.448   6.327 -0.3697  1.3006 -0.0099
 3657SOL     OW11869   0.031   3.560   6.979  0.1365 -0.0130 -0.4523
 3657SOL    HW111870   0.058   3.538   7.073 -1.8889 -1.6143 -0.1461
 3657SOL    HW211871  -0.043   3.498   6.951  1.8969 -0.8289 -3.7912
 3658SOL     OW11872   1.634   4.296   4.889 -0.1958 -0.2409  0.2424
 3658SOL    HW111873   1.573   4.357   4.840 -0.5403 -0.2427  0.6614
 3658SOL    HW211874   1.699   4.350   4.943 -0.5030 -0.2376  0.6160
 3659SOL     OW11875   7.022   3.166   2.041 -0.0441 -0.2109 -0.3612
 3659SOL    HW111876   6.962   3.110   2.098  0.1208 -0.3962 -0.3689
 3659SOL    HW211877   6.967   3.227   1.984 -0.2978 -1.4985 -1.5409
 3660SOL     OW11878   5.033   5.734   3.588 -0.0909 -0.3769 -0.7506
 3660SOL    HW111879   5.076   5.683   3.513 -1.1115 -0.7758 -1.0782
 3660SOL    HW211880   5.021   5.830   3.561  1.2835 -0.0761 -0.3596
 3661SOL     OW11881   1.237   1.354   5.153  0.1289 -0.3054 -0.1890
 3661SOL    HW111882   1.200   1.420   5.218  0.7037  0.1231 -0.2853
 3661SOL    HW211883   1.337   1.354   5.159  0.1426 -1.0716 -0.2873
 3662SOL     OW11884   2.393   2.594   6.096  0.4562 -0.6765  0.1995
 3662SOL    HW111885   2.415   2.678   6.047  0.0429 -0.2766  0.6812
 3662SOL    HW211886   2.474   2.559   6.142  0.9643 -1.3280 -1.1624
 3663SOL     OW11887   2.945   1.625   5.501 -0.5811  0.0921  0.1139
 3663SOL    HW111888   2.916   1.680   5.422 -1.8707 -1.0907 -0.2851
 3663SOL    HW211889   3.014   1.674   5.553  0.5629  0.7671 -1.9505
 3664SOL     OW11890   3.055   2.113   0.449  0.3914  0.3352  0.7862
 3664SOL    HW111891   3.062   2.175   0.371  1.7277 -0.6041  0.1205
 3664SOL    HW211892   2.992   2.039   0.427  1.9425 -0.7950 -0.0718
 3665SOL     OW11893   6.362   7.002   5.141 -0.0096 -0.0928  0.3231
 3665SOL    HW111894   6.381   7.097   5.166 -0.7095  0.6697 -1.7787
 3665SOL    HW211895   6.268   6.995   5.108  0.2204 -1.3866 -0.1155
 3666SOL     OW11896   0.989   4.113   3.694 -0.4495 -0.1575  0.4266
 3666SOL    HW111897   1.065   4.065   3.651 -1.3409 -0.3332 -1.0090
 3666SOL    HW211898   0.922   4.046   3.728 -0.5126  0.0231  0.6658
 3667SOL     OW11899   1.465   0.125   1.630  0.1509  0.0071 -0.4113
 3667SOL    HW111900   1.444   0.218   1.660  1.1247  0.2148 -0.3301
 3667SOL    HW211901   1.546   0.092   1.678  0.3449 -0.5499 -1.0959
 3668SOL     OW11902   4.191   0.670   6.049  0.4920  0.3556  0.4465
 3668SOL    HW111903   4.133   0.609   6.102 -0.1490  1.4295  1.0051
 3668SOL    HW211904   4.140   0.704   5.969  1.3610 -1.0441 -0.7623
 3669SOL     OW11905   6.460   5.848   0.394 -0.0597  0.3620  0.1782
 3669SOL    HW111906   6.486   5.783   0.322 -0.7386  1.0567 -0.7070
 3669SOL    HW211907   6.361   5.860   0.393 -0.1036  0.1999  1.3984
 3670SOL     OW11908   4.000   6.418   2.835 -0.1950 -0.5799 -0.3352
 3670SOL    HW111909   4.053   6.501   2.818  0.0040 -0.5778  0.2720
 3670SOL    HW211910   3.979   6.411   2.933 -2.3556  0.0506 -0.7163
 3671SOL     OW11911   1.848   1.386   4.154 -0.4803  0.0077  0.0214
 3671SOL    HW111912   1.818   1.301   4.197 -1.9563  0.1050 -0.7364
 3671SOL    HW211913   1.948   1.389   4.151 -0.3917 -2.2762 -1.0163
 3672SOL     OW11914   4.377   6.313   3.689 -0.6644 -0.1999  0.1698
 3672SOL    HW111915   4.310   6.241   3.708 -0.5680 -0.2027  0.4941
 3672SOL    HW211916   4.419   6.296   3.599 -1.5847  0.1762 -0.3371
 3673SOL     OW11917   4.004   2.989   1.450  0.7064  0.0494  0.2462
 3673SOL    HW111918   4.020   2.908   1.393 -1.2555 -0.6783  0.6627
 3673SOL    HW211919   4.002   3.070   1.392 -0.0882 -0.5458 -0.5858
 3674SOL     OW11920   0.773   6.783   2.027 -0.2023  0.2439 -0.0963
 3674SOL    HW111921   0.739   6.718   2.095  1.5876  0.4004  1.0309
 3674SOL    HW211922   0.783   6.873   2.070 -0.5933  0.7566 -1.0476
 3675SOL     OW11923   5.723   1.444   6.093 -0.2445 -0.0355 -0.0723
 3675SOL    HW111924   5.777   1.381   6.038  0.1266 -1.0707  1.4420
 3675SOL    HW211925   5.703   1.526   6.038 -0.4550 -1.2711 -1.9588
 3676SOL     OW11926   2.476   5.932   6.218 -0.0887 -0.0822  0.3357
 3676SOL    HW111927   2.546   5.980   6.166  0.0796 -0.9314 -0.2444
 3676SOL    HW211928   2.461   5.978   6.306 -0.0531  1.1111 -0.2648
 3677SOL     OW11929   6.986   0.573   4.159  0.0389 -0.3997  0.0855
 3677SOL    HW111930   6.976   0.591   4.062  2.4820 -2.6746 -0.7166
 3677SOL    HW211931   6.907   0.523   4.193 -0.1484 -0.9557 -1.1334
 3678SOL     OW11932   3.750   6.070   2.660 -0.3761  0.0906 -0.2579
 3678SOL    HW111933   3.731   6.163   2.628 -0.3541  0.1664 -0.0485
 3678SOL    HW211934   3.676   6.009   2.632 -0.8547  0.3548  0.4326
 3679SOL     OW11935   2.640   2.063   0.522 -0.2935  0.3266 -0.5020
 3679SOL    HW111936   2.578   1.994   0.560 -0.3301  0.5849 -0.0899
 3679SOL    HW211937   2.678   2.118   0.596  1.6599 -0.8412 -0.5457
 3680SOL     OW11938   4.291   1.617   3.215 -1.2122 -0.0755  0.0748
 3680SOL    HW111939   4.383   1.637   3.182 -0.9123 -0.1249  0.8676
 3680SOL    HW211940   4.242   1.702   3.232 -1.4145 -0.0492 -0.6083
 3681SOL     OW11941   0.398   6.676   2.695  0.0030 -0.1740  0.2802
 3681SOL    HW111942   0.371   6.580   2.684  2.7672 -1.3610  2.5238
 3681SOL    HW211943   0.374   6.707   2.787 -0.2752  1.0934 -0.2012
 3682SOL     OW11944   5.191   2.890   4.100 -0.8195 -0.3453 -0.7328
 3682SOL    HW111945   5.118   2.931   4.046 -1.2972 -1.0155 -0.6021
 3682SOL    HW211946   5.153   2.839   4.177 -0.1053  2.9723  2.0766
 3683SOL     OW11947   6.361   0.842   0.792  0.2439 -0.0208 -0.3982
 3683SOL    HW111948   6.337   0.928   0.747  0.2148 -0.5432 -1.3989
 3683SOL    HW211949   6.441   0.802   0.748 -0.4888 -1.1275 -0.7834
 3684SOL     OW11950   3.718   4.933   6.576  0.3393  0.1537  0.1243
 3684SOL    HW111951   3.658   4.888   6.642 -0.5105  1.1435  0.0670
 3684SOL    HW211952   3.679   4.924   6.484  1.4066 -1.0361 -0.2352
 3685SOL     OW11953   1.512   5.806   4.060  0.0605 -0.2226 -0.0092
 3685SOL    HW111954   1.597   5.816   4.008 -0.5767  0.2729 -0.9851
 3685SOL    HW211955   1.438   5.853   4.012 -1.1681 -2.1421 -0.1135
 3686SOL     OW11956   1.604   6.897   6.749  0.0010 -0.0560  0.1009
 3686SOL    HW111957   1.677   6.951   6.790  1.7890 -0.7208 -2.0290
 3686SOL    HW211958   1.516   6.941   6.768  1.0841  1.8619  1.0570
 3687SOL     OW11959   1.315   4.747   2.778  0.0708  0.2836 -0.6302
 3687SOL    HW111960   1.330   4.710   2.686 -2.1845  1.8635 -1.7324
 3687SOL    HW211961   1.357   4.838   2.784  2.4282 -0.8021  0.8472
 3688SOL     OW11962   1.339   2.226   3.100 -0.4690 -0.7802 -0.0992
 3688SOL    HW111963   1.324   2.147   3.040  0.0445 -2.3476  1.7183
 3688SOL    HW211964   1.438   2.242   3.108 -0.5903  0.5848 -1.0663
 3689SOL     OW11965   3.214   4.120   5.390  0.1457  0.2759 -0.5911
 3689SOL    HW111966   3.287   4.059   5.420 -0.0791 -0.2303 -1.0500
 3689SOL    HW211967   3.196   4.105   5.293  0.2090  1.2089 -0.7619
 3690SOL     OW11968   1.049   5.904   1.779 -0.1941  0.7333 -0.1745
 3690SOL    HW111969   1.042   5.990   1.830  0.2838  0.6627  0.0162
 3690SOL    HW211970   0.983   5.838   1.816  0.5907  0.4669  0.7951
 3691SOL     OW11971   3.459   2.135   1.493 -0.6090 -0.7396 -0.0707
 3691SOL    HW111972   3.423   2.224   1.519 -1.8331 -1.3140  0.2474
 3691SOL    HW211973   3.538   2.113   1.551  0.6362  0.7422 -1.1101
 3692SOL     OW11974   1.085   1.659   6.567  0.1190 -0.1232 -0.1654
 3692SOL    HW111975   1.169   1.607   6.579 -0.5602 -1.3830 -0.7414
 3692SOL    HW211976   1.008   1.608   6.606 -0.8692 -0.5009 -2.4661
 3693SOL     OW11977   0.093   0.872   1.798 -0.1338 -0.3078 -0.2263
 3693SOL    HW111978   0.072   0.779   1.767 -2.0716  0.0784 -0.1883
 3693SOL    HW211979   0.123   0.927   1.720  1.6102 -1.0658 -0.1540
 3694SOL     OW11980   5.936   5.764   6.704  0.8867 -0.4862 -0.3470
 3694SOL    HW111981   5.912   5.851   6.748  0.2169 -1.1357  0.6239
 3694SOL    HW211982   5.942   5.693   6.774  1.9068 -1.1324 -1.0706
 3695SOL     OW11983   4.805   2.967   5.794  0.1188 -0.1378 -0.4711
 3695SOL    HW111984   4.802   3.066   5.804  0.9515  0.2441 -3.1172
 3695SOL    HW211985   4.713   2.932   5.775 -0.3167 -0.0357  1.3017
 3696SOL     OW11986   4.634   0.911   4.531  0.4106  0.0402  0.3311
 3696SOL    HW111987   4.710   0.957   4.575  1.5306 -1.0870 -0.3335
 3696SOL    HW211988   4.656   0.813   4.522 -1.4064 -0.4355  0.7289
 3697SOL     OW11989   0.858   0.092   1.853  0.0637 -0.4604  0.4830
 3697SOL    HW111990   0.941   0.091   1.796 -0.7384  0.3529 -0.7452
 3697SOL    HW211991   0.805   0.009   1.837 -1.0297  0.5403 -1.3339
 3698SOL     OW11992   1.908   0.582   2.887  0.0697  0.3599 -0.3660
 3698SOL    HW111993   1.896   0.584   2.788  0.1260 -1.8973 -0.4524
 3698SOL    HW211994   1.827   0.622   2.931 -1.7050 -2.0478 -1.2585
 3699SOL     OW11995   2.624   1.022   1.300  0.2250  0.2458 -0.2250
 3699SOL    HW111996   2.616   1.102   1.360  0.4791  0.5458 -0.5785
 3699SOL    HW211997   2.573   0.945   1.339  0.7787  0.2872  0.6162
 3700SOL     OW11998   1.082   6.323   6.593  0.1411  0.0630 -0.0957
 3700SOL    HW111999   1.097   6.289   6.687  0.8117  1.8065  0.4659
 3700SOL    HW212000   1.130   6.263   6.529  2.1965  0.4910  0.9451
 3701SOL     OW12001   5.549   1.706   2.527  0.7477 -0.6972  0.2795
 3701SOL    HW112002   5.621   1.688   2.594  0.3638 -2.4270  0.2687
 3701SOL    HW212003   5.460   1.699   2.571  0.5250 -0.2998 -0.0913
 3702SOL     OW12004   0.306   5.025   4.129  0.2582 -0.1271  0.2251
 3702SOL    HW112005   0.390   5.060   4.087 -0.7378  1.3314 -0.6604
 3702SOL    HW212006   0.307   4.925   4.126  2.2314 -0.1630  0.8311
 3703SOL     OW12007   1.470   2.350   2.095 -0.0700 -0.3581  0.6602
 3703SOL    HW112008   1.402   2.284   2.126  1.4229 -1.9762  0.6376
 3703SOL    HW212009   1.562   2.318   2.120  0.7579  1.3665  0.0081
 3704SOL     OW12010   6.971   5.021   1.369  0.4982 -0.5717 -0.4082
 3704SOL    HW112011   6.871   5.013   1.361  0.2134  0.2542  1.6418
 3704SOL    HW212012   7.010   4.931   1.387  0.1251 -0.8965 -1.1899
 3705SOL     OW12013   0.908   4.041   4.035 -0.3765  0.5375 -0.3383
 3705SOL    HW112014   0.921   3.942   4.044 -2.6365  0.0836 -1.2629
 3705SOL    HW212015   0.810   4.061   4.033  0.0350  2.7440 -0.7852
 3706SOL     OW12016   0.274   0.032   3.914 -0.1476 -0.8072 -0.2128
 3706SOL    HW112017   0.335  -0.040   3.947 -0.1066  0.2032  2.1055
 3706SOL    HW212018   0.324   0.093   3.853  0.1071 -2.0867 -1.3221
 3707SOL     OW12019   0.076   4.840   5.594 -0.8285  0.5617 -0.0505
 3707SOL    HW112020   0.080   4.742   5.577 -2.6427  0.1778  1.3913
 3707SOL    HW212021  -0.019   4.868   5.605 -0.3941  2.6165 -1.0009
 3708SOL     OW12022   6.711   5.537   0.333 -0.0421  0.1142  0.5105
 3708SOL    HW112023   6.693   5.442   0.358 -3.6917  0.4950 -0.0963
 3708SOL    HW212024   6.710   5.594   0.415 -1.8786  0.0693  0.5627
 3709SOL     OW12025   0.885   2.968   2.668  0.4490 -0.5192  1.0638
 3709SOL    HW112026   0.960   2.921   2.623  1.4921  1.1425  0.9830
 3709SOL    HW212027   0.819   3.000   2.600  1.3911  0.9053  0.7805
 3710SOL     OW12028   0.743   2.014   4.116  0.3283  0.4538 -0.3390
 3710SOL    HW112029   0.659   2.059   4.087 -0.9879 -2.5736 -1.6532
 3710SOL    HW212030   0.722   1.924   4.155  2.8517  0.3952  1.1868
 3711SOL     OW12031   1.118   4.261   6.306  0.3872 -0.2651  0.2785
 3711SOL    HW112032   1.121   4.271   6.207  0.3916  0.3142  0.3351
 3711SOL    HW212033   1.023   4.251   6.336  0.2787  0.8226  0.3313
 3712SOL     OW12034   2.215   6.085   3.526  0.2574 -0.6905  0.1275
 3712SOL    HW112035   2.123   6.115   3.552  1.4322  0.4771  3.4852
 3712SOL    HW212036   2.254   6.151   3.461 -0.8394 -0.5925 -0.4560
 3713SOL     OW12037   5.813   2.076   0.151 -0.2859  0.0167  0.3184
 3713SOL    HW112038   5.752   2.007   0.112  0.7501 -0.1697 -1.0327
 3713SOL    HW212039   5.863   2.037   0.228 -1.2649 -0.0689  0.9302
 3714SOL     OW12040   1.081   6.579   6.897  0.2138  0.1049 -0.0808
 3714SOL    HW112041   1.000   6.628   6.929  0.1980 -0.3461  0.5909
 3714SOL    HW212042   1.063   6.480   6.899 -0.0882  0.0799 -2.3158
 3715SOL     OW12043   3.398   3.844   0.721 -0.1930  0.3174 -0.2056
 3715SOL    HW112044   3.320   3.789   0.688 -1.8567  1.2170  1.9745
 3715SOL    HW212045   3.471   3.783   0.753 -0.6653 -0.5774 -0.7908
 3716SOL     OW12046   3.315   5.214   6.476 -0.6645  0.3015 -0.1116
 3716SOL    HW112047   3.364   5.156   6.541 -1.4582  1.4273  1.5514
 3716SOL    HW212048   3.363   5.213   6.388  2.1941  1.0449  1.3159
 3717SOL     OW12049   5.895   6.735   0.835  0.5134  0.4881 -0.3287
 3717SOL    HW112050   5.888   6.770   0.741 -1.1204  0.2708 -0.3255
 3717SOL    HW212051   5.885   6.636   0.835 -1.5594  0.6359  0.1910
 3718SOL     OW12052   4.196   4.443   0.540 -0.1640  0.7397  0.1870
 3718SOL    HW112053   4.252   4.525   0.526  0.0297  0.2556 -2.4352
 3718SOL    HW212054   4.213   4.378   0.466 -2.5835 -0.3794  0.5119
 3719SOL     OW12055   2.858   5.401   1.026 -0.0124 -0.3802 -0.2407
 3719SOL    HW112056   2.881   5.458   1.104 -1.4409  0.2330 -0.2417
 3719SOL    HW212057   2.882   5.448   0.941  3.2524 -1.7831 -0.2357
 3720SOL     OW12058   0.955   2.086   1.989 -0.3535  0.2668 -0.4447
 3720SOL    HW112059   0.862   2.121   1.979 -0.2623  0.9237  0.8058
 3720SOL    HW212060   0.974   2.069   2.086  1.0611  0.7878 -0.6012
 3721SOL     OW12061   0.524   1.270   6.294  0.2168 -0.5977  0.2155
 3721SOL    HW112062   0.469   1.194   6.328 -0.8882 -1.0284 -2.3102
 3721SOL    HW212063   0.465   1.337   6.249  1.4046  0.7304  0.5708
 3722SOL     OW12064   5.622   0.422   0.748  0.1640  0.4875 -0.2359
 3722SOL    HW112065   5.682   0.500   0.734  1.4392 -0.7602 -2.3273
 3722SOL    HW212066   5.651   0.347   0.688 -3.0265 -0.4538 -0.7738
 3723SOL     OW12067   5.280   3.594   5.266 -0.3452 -0.6981 -0.1061
 3723SOL    HW112068   5.376   3.603   5.292 -0.7478 -1.5032  1.9006
 3723SOL    HW212069   5.272   3.533   5.187  0.7353 -1.4536  0.3327
 3724SOL     OW12070   5.836   4.930   3.417 -0.2188  0.0053  0.3441
 3724SOL    HW112071   5.739   4.910   3.411 -0.0640 -0.9217  0.7595
 3724SOL    HW212072   5.887   4.867   3.359  0.2381 -0.4257  1.1967
 3725SOL     OW12073   5.590   5.507   1.966  0.2190 -0.1661  0.1635
 3725SOL    HW112074   5.537   5.567   2.027 -0.6343 -2.3056  1.6322
 3725SOL    HW212075   5.629   5.562   1.892  0.2580  2.3559  1.9082
 3726SOL     OW12076   4.834   2.246   3.583 -0.5024 -0.1500 -0.2821
 3726SOL    HW112077   4.785   2.314   3.528 -0.7473  0.7286  0.9700
 3726SOL    HW212078   4.799   2.248   3.677  0.2085 -1.3010  0.0271
 3727SOL     OW12079   5.380   1.950   3.061  0.5836  0.8619 -0.4818
 3727SOL    HW112080   5.409   1.915   3.150 -1.1562  1.3857  0.3192
 3727SOL    HW212081   5.338   1.876   3.008 -0.8296  1.1275  0.2265
 3728SOL     OW12082   1.143   4.739   0.378  0.3184 -0.0680 -0.0267
 3728SOL    HW112083   1.133   4.640   0.369  0.0157  0.0660 -1.5537
 3728SOL    HW212084   1.109   4.769   0.467  1.6992 -1.4831  1.0359
 3729SOL     OW12085   0.681   0.416   0.027 -0.1372 -0.4560 -0.0780
 3729SOL    HW112086   0.592   0.373   0.040  0.4917 -2.2560 -1.3519
 3729SOL    HW212087   0.673   0.492  -0.037 -0.9696  0.2788  0.8658
 3730SOL     OW12088   5.824   4.598   5.420 -0.2291  0.3869 -0.2352
 3730SOL    HW112089   5.794   4.673   5.360  0.9075  2.7459  1.9414
 3730SOL    HW212090   5.876   4.532   5.366 -1.8318  0.7486 -2.3821
 3731SOL     OW12091   6.356   0.387   3.486  0.6038 -0.4229 -0.3594
 3731SOL    HW112092   6.322   0.479   3.466 -0.0812 -0.4403  0.6540
 3731SOL    HW212093   6.302   0.320   3.436  2.4197 -0.2313 -2.7962
 3732SOL     OW12094   3.871   2.664   6.681  0.2372  0.2621  0.1354
 3732SOL    HW112095   3.951   2.693   6.628 -0.5737  1.3826 -0.5246
 3732SOL    HW212096   3.896   2.586   6.739  1.5581  0.0083 -0.7252
 3733SOL     OW12097   2.043   2.574   3.507 -0.0847  1.0078 -0.2234
 3733SOL    HW112098   2.074   2.492   3.458  1.5651 -0.3352  2.7714
 3733SOL    HW212099   2.090   2.654   3.471  1.4820  0.0041 -0.5120
 3734SOL     OW12100   4.195   1.564   2.894  0.3422  0.0055 -0.0635
 3734SOL    HW112101   4.289   1.593   2.873  0.5974  0.1314  1.1731
 3734SOL    HW212102   4.188   1.545   2.992 -0.3164 -2.2600 -0.4978
 3735SOL     OW12103   3.440   1.886   1.760 -0.0258  0.3608  0.2074
 3735SOL    HW112104   3.437   1.884   1.660  0.4298  0.3327  0.1905
 3735SOL    HW212105   3.384   1.812   1.796 -1.3327  1.2250  0.0081
 3736SOL     OW12106   1.403   0.061   0.184  0.0344  0.3277 -0.0825
 3736SOL    HW112107   1.345  -0.014   0.151 -1.5896  1.2045  0.6721
 3736SOL    HW212108   1.414   0.129   0.112  0.2517  0.0974 -0.2697
 3737SOL     OW12109   4.864   1.962   5.316  0.0961  0.0761 -0.2808
 3737SOL    HW112110   4.822   2.029   5.255 -0.2830  1.3607  1.3188
 3737SOL    HW212111   4.833   1.870   5.291 -1.5062  0.7402 -0.8817
 3738SOL     OW12112   2.055   0.036   1.667  0.6767 -0.1969 -0.2297
 3738SOL    HW112113   2.147   0.067   1.690  0.2301  2.1015 -1.2127
 3738SOL    HW212114   1.992   0.114   1.671 -0.6760 -1.0992 -2.3961
 3739SOL     OW12115   4.394   6.091   6.733 -0.6544  0.1470  0.1108
 3739SOL    HW112116   4.335   6.169   6.753  0.0046  0.5661  0.4268
 3739SOL    HW212117   4.485   6.123   6.708 -0.0744 -0.5446  1.2493
 3740SOL     OW12118   6.370   0.719   6.427 -0.5372  0.1924 -0.0333
 3740SOL    HW112119   6.301   0.788   6.407 -2.1320 -1.0895  0.8898
 3740SOL    HW212120   6.363   0.690   6.522 -0.7063 -2.0894 -0.6799
 3741SOL     OW12121   4.142   3.351   0.206  0.2069  0.1475  0.2626
 3741SOL    HW112122   4.092   3.265   0.195 -1.5159  1.1051  0.3302
 3741SOL    HW212123   4.239   3.331   0.220  0.1046 -1.7148 -1.2519
 3742SOL     OW12124   3.438   5.426   6.862 -0.1060  0.2776  0.1607
 3742SOL    HW112125   3.467   5.433   6.766  0.2769  0.4137  0.2837
 3742SOL    HW212126   3.355   5.480   6.875  1.5730  2.9512  0.5880
 3743SOL     OW12127   1.807   3.897   0.699  0.3637 -0.2435 -0.8015
 3743SOL    HW112128   1.833   3.941   0.785 -1.6170 -0.3526 -0.0961
 3743SOL    HW212129   1.877   3.830   0.674 -0.2506 -2.1984  2.1969
 3744SOL     OW12130   1.110   6.261   3.386 -0.5932  0.2657 -0.1194
 3744SOL    HW112131   1.166   6.291   3.308  0.7208  0.4984  0.8787
 3744SOL    HW212132   1.049   6.335   3.414 -2.7498 -0.5510 -2.3039
 3745SOL     OW12133   4.555   0.427   2.558  0.2506 -0.4254 -0.1308
 3745SOL    HW112134   4.465   0.415   2.515  0.5987 -1.5695 -0.5563
 3745SOL    HW212135   4.544   0.425   2.657  0.1097 -3.5079 -0.1216
 3746SOL     OW12136   6.559   1.165   4.047  0.7508 -0.1406 -0.0449
 3746SOL    HW112137   6.648   1.123   4.068 -0.0508 -0.4901  3.2699
 3746SOL    HW212138   6.501   1.097   4.003  1.4904 -0.5209 -0.4619
 3747SOL     OW12139   0.337   3.466   6.058 -0.0526 -0.0682  0.6874
 3747SOL    HW112140   0.275   3.543   6.039  0.7623  0.8434  1.5946
 3747SOL    HW212141   0.286   3.391   6.098 -0.6652  0.4539  0.9019
 3748SOL     OW12142   4.153   0.105   3.942 -0.0289 -0.2287 -0.7508
 3748SOL    HW112143   4.176   0.014   3.976 -2.1318 -0.4371  0.2672
 3748SOL    HW212144   4.204   0.174   3.995  1.1262 -0.7576 -1.1389
 3749SOL     OW12145   5.489   5.931   0.869 -0.2446 -0.4112 -0.4194
 3749SOL    HW112146   5.415   5.911   0.933  0.3480 -0.1832  0.3496
 3749SOL    HW212147   5.548   6.001   0.908 -0.1231  0.0439 -1.4144
 3750SOL     OW12148   6.373   3.874   2.132  0.3411 -0.3414  0.5246
 3750SOL    HW112149   6.317   3.940   2.182  0.5531 -0.0144  0.3316
 3750SOL    HW212150   6.339   3.865   2.039  2.0826  1.7378 -0.3922
 3751SOL     OW12151   2.135   6.431   1.631  0.1622  0.2020 -0.0249
 3751SOL    HW112152   2.150   6.374   1.712  0.4791 -0.3563 -0.4701
 3751SOL    HW212153   2.209   6.498   1.623 -0.1096  0.5516  0.3955
 3752SOL     OW12154   0.924   6.256   5.731  0.5054  0.0994 -0.4181
 3752SOL    HW112155   0.963   6.313   5.803  0.7740  0.1840 -0.6256
 3752SOL    HW212156   0.825   6.268   5.728  0.6227  1.0827 -0.9012
 3753SOL     OW12157   6.721   2.599   6.170 -0.4884 -0.2270 -0.4563
 3753SOL    HW112158   6.693   2.570   6.261  1.1333  0.2386  0.2262
 3753SOL    HW212159   6.774   2.526   6.127  0.1604  0.1769 -0.3542
 3754SOL     OW12160   0.037   6.476   6.748 -0.6576 -0.1725 -0.1036
 3754SOL    HW112161   0.121   6.525   6.772 -0.7010  0.0873 -0.4615
 3754SOL    HW212162  -0.041   6.523   6.789 -0.6519 -0.2433 -0.0127
 3755SOL     OW12163   4.545   2.534   3.821 -0.5177 -1.1565  0.1008
 3755SOL    HW112164   4.464   2.544   3.762  0.0311 -1.4641 -0.7225
 3755SOL    HW212165   4.590   2.447   3.801  1.7057  0.2922 -1.6212
 3756SOL     OW12166   4.597   0.047   1.271 -1.1259  0.2701 -0.8171
 3756SOL    HW112167   4.604   0.141   1.238 -0.8651  1.2442  1.7889
 3756SOL    HW212168   4.504   0.029   1.302 -0.7866  0.2163  0.1877
 3757SOL     OW12169   3.037   2.805   5.613 -0.6758 -1.0772 -0.4236
 3757SOL    HW112170   3.006   2.761   5.529 -0.1761  0.3006 -1.3637
 3757SOL    HW212171   3.114   2.754   5.651  0.5064 -0.5541 -2.0072
 3758SOL     OW12172   0.421   2.531   1.351 -0.2102 -0.1874  0.0363
 3758SOL    HW112173   0.449   2.441   1.316  0.2863 -0.2195  0.4986
 3758SOL    HW212174   0.501   2.591   1.354 -0.5302  0.2544 -0.2115
 3759SOL     OW12175   6.561   4.122   0.053  0.1032  0.0264 -0.0591
 3759SOL    HW112176   6.464   4.103   0.071  0.0355 -1.1285 -1.4622
 3759SOL    HW212177   6.613   4.036   0.058  0.6951  0.2905 -1.4478
 3760SOL     OW12178   1.769   1.325   4.915 -0.3925 -0.4987 -0.4265
 3760SOL    HW112179   1.739   1.279   4.831  2.5010  1.6550 -2.8918
 3760SOL    HW212180   1.795   1.419   4.893  0.5462  0.1467  2.9539
 3761SOL     OW12181   5.914   1.575   5.827  0.4170  0.3920  0.2299
 3761SOL    HW112182   5.898   1.662   5.780  2.2124  0.6126 -0.0613
 3761SOL    HW212183   5.950   1.593   5.918 -0.1319 -0.0619  0.5452
 3762SOL     OW12184   6.710   4.988   2.019  0.4371  0.3300  0.6217
 3762SOL    HW112185   6.794   4.948   1.985  1.0730  0.8556  1.5247
 3762SOL    HW212186   6.724   5.020   2.113 -1.5699 -2.1712  1.9057
 3763SOL     OW12187   1.218   0.933   3.765  0.3805  0.1859 -0.5523
 3763SOL    HW112188   1.207   1.016   3.711  0.9450  1.5888  1.4104
 3763SOL    HW212189   1.166   0.941   3.850  0.4999 -1.4546 -0.2851
 3764SOL     OW12190   2.057   6.663   4.046 -0.0314  0.2830 -0.3835
 3764SOL    HW112191   2.088   6.595   4.112 -2.4485  0.4706  1.0461
 3764SOL    HW212192   2.032   6.618   3.960  0.1065 -0.3832 -0.0790
 3765SOL     OW12193   6.475   1.972   3.602  0.2699 -0.5608  0.3143
 3765SOL    HW112194   6.547   1.928   3.656 -0.0169 -0.0289  1.1412
 3765SOL    HW212195   6.516   2.039   3.541  0.5076 -0.4514  0.5900
 3766SOL     OW12196   0.963   1.006   4.826  0.0628  0.2129 -0.3772
 3766SOL    HW112197   0.919   0.931   4.875 -0.5391  0.4757 -0.4977
 3766SOL    HW212198   0.951   1.091   4.879 -1.1109  0.6110 -1.2326
 3767SOL     OW12199   6.191   3.539   1.314  0.1817  0.3847  0.5058
 3767SOL    HW112200   6.235   3.487   1.387 -1.0247 -1.7425 -0.1946
 3767SOL    HW212201   6.261   3.587   1.261  1.5168 -1.3260  0.6095
 3768SOL     OW12202   5.655   6.881   0.372  0.3618 -0.0040  0.4746
 3768SOL    HW112203   5.557   6.868   0.385  0.5791 -0.5746  1.8014
 3768SOL    HW212204   5.673   6.970   0.332 -0.6842  0.1816  0.4006
 3769SOL     OW12205   3.446   6.741   4.052  0.4009  0.1220 -0.1805
 3769SOL    HW112206   3.357   6.706   4.024  0.8067 -0.7844 -0.3691
 3769SOL    HW212207   3.435   6.808   4.125 -0.5635  1.2703 -1.3253
 3770SOL     OW12208   0.853   2.774   6.942 -0.7098 -0.1919  0.2992
 3770SOL    HW112209   0.870   2.679   6.968  0.2942  0.2937  1.5173
 3770SOL    HW212210   0.928   2.807   6.885 -0.0171  0.4440  1.5312
 3771SOL     OW12211   4.049   1.333   4.888 -0.3204  0.0080 -0.3928
 3771SOL    HW112212   4.119   1.403   4.888 -0.7148  0.4960 -3.0858
 3771SOL    HW212213   3.965   1.369   4.848 -0.8388 -1.7115 -0.9537
 3772SOL     OW12214   3.777   1.295   2.013 -0.5628  0.2624  0.2919
 3772SOL    HW112215   3.752   1.360   1.940  0.1856  0.6159  0.3413
 3772SOL    HW212216   3.842   1.228   1.977  0.8761  1.2431  0.9467
 3773SOL     OW12217   6.542   1.122   1.123 -0.5449  0.8803 -0.1190
 3773SOL    HW112218   6.572   1.026   1.120 -2.4735  0.2373 -1.5417
 3773SOL    HW212219   6.503   1.142   1.213 -1.2403 -0.0850 -0.1823
 3774SOL     OW12220   2.335   6.556   0.835  0.0622  0.1692  0.3242
 3774SOL    HW112221   2.296   6.516   0.917 -1.0301  0.3124 -0.1171
 3774SOL    HW212222   2.355   6.652   0.850  0.6088  0.0110  0.6625
 3775SOL     OW12223   4.600   2.662   4.372 -0.4167 -0.5516 -0.1118
 3775SOL    HW112224   4.627   2.708   4.457 -1.8440  1.2971 -0.5908
 3775SOL    HW212225   4.516   2.610   4.389 -1.1718  0.4968 -0.5574
 3776SOL     OW12226   2.851   1.660   0.845  0.5212 -0.1642  0.2615
 3776SOL    HW112227   2.790   1.623   0.775  0.1329  2.5286 -0.9645
 3776SOL    HW212228   2.812   1.642   0.935 -0.2949 -1.4815 -0.3183
 3777SOL     OW12229   0.658   5.866   3.346 -0.2146 -0.2235  0.7528
 3777SOL    HW112230   0.754   5.879   3.321 -0.3838  0.7633  0.5668
 3777SOL    HW212231   0.646   5.776   3.388  0.4011 -1.3003 -1.2090
 3778SOL     OW12232   2.590   6.617   0.459  0.7330  0.5248  0.4016
 3778SOL    HW112233   2.683   6.584   0.439  1.0900  2.0789 -0.7386
 3778SOL    HW212234   2.557   6.574   0.543  1.3818 -2.1728 -0.5930
 3779SOL     OW12235   0.950   5.673   0.389 -0.6001  0.0153 -0.1318
 3779SOL    HW112236   0.933   5.717   0.477 -0.5777  0.3054 -0.2715
 3779SOL    HW212237   0.909   5.582   0.388  1.0647 -0.8054  0.9162
 3780SOL     OW12238   2.601   1.680   3.698 -0.0244  0.1313 -0.2595
 3780SOL    HW112239   2.668   1.611   3.671  1.7249  0.9262  1.7182
 3780SOL    HW212240   2.547   1.647   3.775 -1.1053 -0.0329 -1.0622
 3781SOL     OW12241   4.765   5.507   5.370  0.2869 -0.1423  0.1142
 3781SOL    HW112242   4.819   5.443   5.316  1.2886  1.2801 -0.6260
 3781SOL    HW212243   4.776   5.600   5.334 -0.4063  0.6019  1.6971
 3782SOL     OW12244   2.261   1.490   2.531  0.2153 -0.1950  0.3417
 3782SOL    HW112245   2.253   1.446   2.621  0.5185 -1.9203 -0.4261
 3782SOL    HW212246   2.353   1.477   2.496  0.0922  0.4397 -0.2337
 3783SOL     OW12247   6.403   4.024   4.477 -0.3226  0.1039 -0.1061
 3783SOL    HW112248   6.416   3.924   4.472  0.6587  0.0348  2.2558
 3783SOL    HW212249   6.492   4.068   4.487 -0.8044  1.1614 -0.4000
 3784SOL     OW12250   4.165   2.308   3.392  0.3116 -0.4138  0.1346
 3784SOL    HW112251   4.069   2.283   3.391 -0.1396  1.0797  1.5654
 3784SOL    HW212252   4.191   2.338   3.484  2.0267 -0.3560 -0.3305
 3785SOL     OW12253   0.095   6.848   1.231  0.3378  0.4527  0.3888
 3785SOL    HW112254   0.096   6.821   1.135  0.3611 -0.6133  0.6720
 3785SOL    HW212255   0.142   6.936   1.242 -0.8507  1.2671 -0.7480
 3786SOL     OW12256   1.754   6.530   1.320 -0.9823  0.0619  0.0040
 3786SOL    HW112257   1.768   6.629   1.314 -1.6169  0.0956 -1.3047
 3786SOL    HW212258   1.770   6.499   1.414  0.3239  1.2204  0.1940
 3787SOL     OW12259   4.700   1.642   4.003  0.2619 -0.4830  0.2734
 3787SOL    HW112260   4.651   1.634   3.917  0.4051 -0.3360  0.1775
 3787SOL    HW212261   4.667   1.573   4.067  1.0886 -1.4925 -0.3474
 3788SOL     OW12262   5.820   4.281   3.620  0.0727 -0.0119  0.2294
 3788SOL    HW112263   5.911   4.251   3.648  0.7976  0.3800 -1.5683
 3788SOL    HW212264   5.797   4.366   3.668  1.0264  0.3449  0.0772
 3789SOL     OW12265   2.908   0.726   1.076 -0.3580  0.2329 -0.1839
 3789SOL    HW112266   3.004   0.696   1.080  0.1158  1.8081  1.0939
 3789SOL    HW212267   2.882   0.740   0.981  1.1480  1.1765 -0.4861
 3790SOL     OW12268   1.192   2.387   2.275 -0.1299  0.0259 -0.5812
 3790SOL    HW112269   1.173   2.346   2.186 -0.6630 -0.0352 -0.4440
 3790SOL    HW212270   1.106   2.399   2.325  0.3151 -1.5893  0.6529
 3791SOL     OW12271   4.784   0.093   3.062  0.9311  0.1295 -0.3513
 3791SOL    HW112272   4.733   0.137   2.988  1.8861 -1.0762 -1.7834
 3791SOL    HW212273   4.798  -0.003   3.040  0.7421 -0.4024  1.6995
 3792SOL     OW12274   1.674   5.284   0.261  0.3872  0.9249 -0.5265
 3792SOL    HW112275   1.768   5.263   0.238 -0.0862 -0.6689 -1.0763
 3792SOL    HW212276   1.649   5.372   0.222  1.4422  1.0677 -0.9051
 3793SOL     OW12277   6.153   6.367   3.372  0.1155  0.6546  0.0074
 3793SOL    HW112278   6.098   6.443   3.337 -0.9170  0.1391  0.4749
 3793SOL    HW212279   6.241   6.364   3.324 -0.6646  0.8909 -1.4817
 3794SOL     OW12280   3.810   5.777   4.059  0.7078  0.6285  0.0320
 3794SOL    HW112281   3.761   5.772   4.146  0.9746 -1.3567  0.1164
 3794SOL    HW212282   3.827   5.872   4.035 -1.1557  1.2839  1.1389
 3795SOL     OW12283   6.431   5.778   5.357  0.7539 -0.1004  0.7289
 3795SOL    HW112284   6.359   5.787   5.426  0.6641  1.5684  0.4703
 3795SOL    HW212285   6.503   5.717   5.391  0.8327  0.8707  2.4109
 3796SOL     OW12286   2.308   1.124   1.624 -0.7894 -0.2460 -0.3256
 3796SOL    HW112287   2.253   1.065   1.566 -0.4954 -0.0361 -0.8224
 3796SOL    HW212288   2.403   1.092   1.623 -0.7849 -0.2495  0.0506
 3797SOL     OW12289   6.828   7.009   1.192 -0.3576  0.3814 -0.3931
 3797SOL    HW112290   6.912   6.974   1.233 -0.0503  0.1006 -1.2365
 3797SOL    HW212291   6.791   6.940   1.129 -1.1062  0.5858 -0.1846
 3798SOL     OW12292   1.719   5.814   0.872 -0.0851  0.1837 -0.1641
 3798SOL    HW112293   1.758   5.868   0.796 -0.2194  2.6349  1.3847
 3798SOL    HW212294   1.632   5.854   0.900 -0.2414 -0.9260  1.0201
 3799SOL     OW12295   0.562   0.354   6.127  0.2614  0.0344 -0.0608
 3799SOL    HW112296   0.476   0.397   6.100  0.1729  0.6944  1.2085
 3799SOL    HW212297   0.567   0.263   6.085 -0.2263  0.6581 -1.5760
 3800SOL     OW12298   6.462   2.134   5.622 -0.1447  0.6265  0.1425
 3800SOL    HW112299   6.367   2.164   5.629 -0.4764 -0.5571  1.0319
 3800SOL    HW212300   6.466   2.045   5.577  0.6873  1.2536 -1.0856
 3801SOL     OW12301   1.791   1.112   5.372 -0.4870  0.0682  0.0502
 3801SOL    HW112302   1.860   1.184   5.381  0.6649 -0.8337 -1.0789
 3801SOL    HW212303   1.704   1.152   5.344  0.3319  0.9694 -1.3416
 3802SOL     OW12304   1.935   2.690   4.106 -0.0172  0.0311 -0.2518
 3802SOL    HW112305   1.969   2.766   4.160 -1.0176 -0.6980  1.5136
 3802SOL    HW212306   2.003   2.617   4.104 -0.3067 -0.3016  0.8736
 3803SOL     OW12307   3.818   0.921   2.649  0.0083  0.1911 -0.5062
 3803SOL    HW112308   3.754   0.983   2.604  0.1789 -0.4368 -1.6849
 3803SOL    HW212309   3.799   0.917   2.747 -1.3692  0.4606 -0.7483
 3804SOL     OW12310   5.837   5.122   4.757 -0.1327 -0.1472  0.3361
 3804SOL    HW112311   5.865   5.143   4.850  0.1607  0.1248  0.1860
 3804SOL    HW212312   5.738   5.133   4.748 -0.4493 -1.9715  1.1045
 3805SOL     OW12313   1.458   2.582   1.623 -0.0412 -0.0485  0.4438
 3805SOL    HW112314   1.525   2.556   1.693  0.1946 -0.1867  0.1736
 3805SOL    HW212315   1.460   2.514   1.549  0.5426  0.7015 -0.2488
 3806SOL     OW12316   4.650   0.157   0.875 -0.0362 -0.1957 -0.4245
 3806SOL    HW112317   4.744   0.163   0.842  0.1016 -0.1934 -0.0361
 3806SOL    HW212318   4.587   0.175   0.799  0.2330 -1.8860 -1.0941
 3807SOL     OW12319   2.978   0.013   2.610 -0.9735  0.0922  0.4731
 3807SOL    HW112320   2.924  -0.044   2.672 -1.1566  0.7635  0.9407
 3807SOL    HW212321   3.073  -0.019   2.609 -1.0587 -0.1767  0.7807
 3808SOL     OW12322   3.591   6.604   0.711  0.2379  0.0562  0.1052
 3808SOL    HW112323   3.637   6.655   0.784  1.0143  0.9260 -0.9681
 3808SOL    HW212324   3.648   6.527   0.683  0.9567  0.9951 -1.0616
 3809SOL     OW12325   3.810   6.935   0.533  0.1596 -0.3146 -0.3544
 3809SOL    HW112326   3.843   6.854   0.484  1.8614  0.4195 -0.5065
 3809SOL    HW212327   3.833   6.927   0.630 -0.6275 -0.4871 -0.1826
 3810SOL     OW12328   0.934   3.439   0.031  0.6339  0.5225  0.3589
 3810SOL    HW112329   0.862   3.409   0.093 -2.1489  1.3013 -2.2521
 3810SOL    HW212330   0.981   3.360  -0.008  0.6779 -0.0247  1.4947
 3811SOL     OW12331   0.664   2.227   5.770  0.2497  0.3660 -0.5525
 3811SOL    HW112332   0.589   2.292   5.761  0.0045  0.0007 -1.1960
 3811SOL    HW212333   0.717   2.249   5.851 -1.3289 -0.1673  0.6789
 3812SOL     OW12334   4.783   6.644   6.260  0.5827 -0.4262  0.3696
 3812SOL    HW112335   4.820   6.730   6.293 -1.2771  0.6539 -0.1699
 3812SOL    HW212336   4.815   6.627   6.167  1.3273 -0.5696  0.6486
 3813SOL     OW12337   4.646   5.495   2.650 -0.2331 -0.1455  0.2861
 3813SOL    HW112338   4.658   5.395   2.649  1.7946  0.0160  1.9109
 3813SOL    HW212339   4.621   5.524   2.743  1.5698  1.0573  0.4377
 3814SOL     OW12340   3.285   0.489   0.663 -0.3393  0.0118 -0.3818
 3814SOL    HW112341   3.310   0.554   0.591 -2.6978  0.5717 -0.7766
 3814SOL    HW212342   3.285   0.396   0.625  0.3461  0.0747 -0.5517
 3815SOL     OW12343   6.747   0.297   1.692  0.2988 -0.3724 -0.3424
 3815SOL    HW112344   6.748   0.286   1.593 -0.5249  3.1790 -0.8794
 3815SOL    HW212345   6.652   0.303   1.724  0.5755 -0.4148  0.5096
 3816SOL     OW12346   0.411   5.224   1.462  0.5766  0.0394  0.0752
 3816SOL    HW112347   0.501   5.239   1.422  0.0181  0.4570 -1.0534
 3816SOL    HW212348   0.351   5.300   1.438 -0.8560 -1.5037 -1.4344
 3817SOL     OW12349   5.285   1.079   5.516 -0.4360  0.4652  0.1033
 3817SOL    HW112350   5.244   1.084   5.425 -1.0572 -0.9232  0.2883
 3817SOL    HW212351   5.239   1.144   5.577 -1.6587 -0.3223  0.0399
 3818SOL     OW12352   4.673   1.209   2.557  0.0384 -0.2904  0.8377
 3818SOL    HW112353   4.731   1.214   2.475 -0.5928 -0.6107  0.3637
 3818SOL    HW212354   4.614   1.289   2.561  0.8539  0.2829  1.5870
 3819SOL     OW12355   5.193   3.860   1.058 -0.0391 -0.0863 -0.0948
 3819SOL    HW112356   5.200   3.951   1.018 -2.5626 -0.4024 -1.4654
 3819SOL    HW212357   5.105   3.851   1.105 -0.1740 -2.0610 -0.6373
 3820SOL     OW12358   3.517   5.614   2.859 -0.1714 -0.8504  0.8062
 3820SOL    HW112359   3.544   5.556   2.782 -0.5315  2.0162 -1.6632
 3820SOL    HW212360   3.444   5.569   2.911 -2.7610 -1.3795 -2.9119
 3821SOL     OW12361   6.334   4.013   2.928 -0.3089  0.0023 -0.1802
 3821SOL    HW112362   6.330   3.971   2.837  1.0589 -2.2278  0.7288
 3821SOL    HW212363   6.423   4.057   2.940  0.5798 -2.0175  0.9887
 3822SOL     OW12364   1.580   4.693   1.975 -0.5636  0.1515 -0.6203
 3822SOL    HW112365   1.658   4.752   1.954 -0.0565 -0.4740 -0.5272
 3822SOL    HW212366   1.609   4.598   1.971 -1.6620 -0.1466 -1.9624
 3823SOL     OW12367   2.117   5.603   6.205  0.3232  0.2521 -0.0166
 3823SOL    HW112368   2.140   5.700   6.201 -0.2660  0.4942  1.5777
 3823SOL    HW212369   2.191   5.549   6.164  1.0894  1.3164 -0.0670
 3824SOL     OW12370   1.110   2.700   6.714  0.7239 -0.5173  0.1263
 3824SOL    HW112371   1.110   2.716   6.813  1.4534 -2.6642  0.5086
 3824SOL    HW212372   1.022   2.730   6.677  0.9915  1.7729  1.1182
 3825SOL     OW12373   1.324   0.182   6.901 -0.4171  0.1492  0.4168
 3825SOL    HW112374   1.308   0.086   6.876  0.7092 -0.4039  1.6757
 3825SOL    HW212375   1.423   0.200   6.900 -0.6451  1.4635 -0.3494
 3826SOL     OW12376   0.427   3.009   2.135  0.2949 -0.1924 -0.2690
 3826SOL    HW112377   0.351   3.073   2.137 -0.7189 -1.3780  0.5769
 3826SOL    HW212378   0.397   2.922   2.096  1.4987 -0.3724 -0.8681
 3827SOL     OW12379   3.619   1.057   1.904 -0.3781 -0.1600 -0.1314
 3827SOL    HW112380   3.679   1.118   1.955  0.2233  2.0451 -3.1985
 3827SOL    HW212381   3.632   1.071   1.806 -4.3628 -1.1517 -0.9921
 3828SOL     OW12382   2.396   1.560   1.645  0.7658  0.2043  0.3254
 3828SOL    HW112383   2.418   1.655   1.668 -0.0190  0.2390  0.9714
 3828SOL    HW212384   2.393   1.549   1.546 -0.2951  1.1425  0.2338
 3829SOL     OW12385   0.496   6.801   3.766 -0.4407  0.5143 -0.3130
 3829SOL    HW112386   0.460   6.777   3.856 -1.4854 -1.3296 -1.1706
 3829SOL    HW212387   0.588   6.838   3.775 -1.2307  2.1952  1.6563
 3830SOL     OW12388   1.027   1.303   0.049 -0.2908  0.5672 -0.0720
 3830SOL    HW112389   0.969   1.231   0.085 -0.7424  0.5025 -0.9044
 3830SOL    HW212390   1.123   1.273   0.050 -0.5746 -0.4988 -1.4104
 3831SOL     OW12391   6.244   2.436   1.997 -0.0760 -0.5449  0.5623
 3831SOL    HW112392   6.236   2.509   1.930 -1.3220 -0.4130  0.8364
 3831SOL    HW212393   6.159   2.428   2.049  0.3274 -1.6516  1.0953
 3832SOL     OW12394   6.383   6.354   3.229  0.1700 -0.3906 -0.2322
 3832SOL    HW112395   6.364   6.256   3.219  0.1094 -0.3422 -0.5974
 3832SOL    HW212396   6.477   6.366   3.261  0.0256 -0.5831  0.2684
 3833SOL     OW12397   2.199   0.199   1.053  0.1875  0.0234  0.4044
 3833SOL    HW112398   2.192   0.229   1.148  0.6136 -0.9729  0.7674
 3833SOL    HW212399   2.131   0.128   1.036 -0.9406  1.2749 -0.4942
 3834SOL     OW12400   2.324   2.930   0.225  0.0152  0.2809  0.2366
 3834SOL    HW112401   2.333   2.849   0.282  0.1560 -0.9035 -1.3722
 3834SOL    HW212402   2.228   2.944   0.202  0.1861 -0.7579 -1.2417
 3835SOL     OW12403   3.883   5.673   2.534  0.6751  0.1644 -0.1245
 3835SOL    HW112404   3.969   5.722   2.521 -0.1570  1.4855 -0.8069
 3835SOL    HW212405   3.850   5.688   2.627  0.9096  0.0716 -0.0239
 3836SOL     OW12406   2.586   1.302   6.927 -0.4230 -0.7107  0.3281
 3836SOL    HW112407   2.595   1.211   6.966  0.5552 -0.7130  0.1347
 3836SOL    HW212408   2.569   1.295   6.829  2.2670 -0.7294 -0.2188
 3837SOL     OW12409   3.276   2.271   6.625  0.3384  0.1345  0.2761
 3837SOL    HW112410   3.333   2.333   6.571  0.4318  0.1254  0.3643
 3837SOL    HW212411   3.227   2.323   6.695 -1.8654  0.5880 -1.5001
 3838SOL     OW12412   6.868   3.335   5.503  0.1843  0.0354  0.5777
 3838SOL    HW112413   6.822   3.252   5.535  0.3671  0.4843  2.0825
 3838SOL    HW212414   6.945   3.355   5.562  1.8416 -0.2074 -1.3890
 3839SOL     OW12415   6.373   4.580   1.110 -0.1821 -0.2714 -0.8857
 3839SOL    HW112416   6.442   4.513   1.139  2.7770  1.1918 -3.8348
 3839SOL    HW212417   6.403   4.672   1.136 -2.0055  0.2925 -0.6447
 3840SOL     OW12418   3.549   1.002   3.013  0.1939 -0.2876  0.5808
 3840SOL    HW112419   3.457   1.027   3.043  0.3769  0.4775  0.5211
 3840SOL    HW212420   3.594   1.082   2.973  1.1493 -0.4721  1.2551
 3841SOL     OW12421   3.392   1.747   2.195 -0.0821 -0.5931 -0.0914
 3841SOL    HW112422   3.391   1.839   2.156 -0.0526 -1.4211 -2.1233
 3841SOL    HW212423   3.448   1.747   2.278  0.3624  1.0831 -0.3546
 3842SOL     OW12424   1.490   3.831   5.973 -0.0613  0.1319 -0.6067
 3842SOL    HW112425   1.559   3.765   5.944  1.9018  1.2542  1.2162
 3842SOL    HW212426   1.534   3.918   5.995 -2.3646  1.6346 -1.4348
 3843SOL     OW12427   0.256   4.187   1.198  0.3283 -0.2066  0.4299
 3843SOL    HW112428   0.339   4.137   1.177  0.2677  0.5248 -1.7905
 3843SOL    HW212429   0.279   4.280   1.227  0.3066 -0.0521 -0.0377
 3844SOL     OW12430   2.458   4.583   6.378 -0.4886 -0.1727 -0.3496
 3844SOL    HW112431   2.525   4.658   6.380  0.6288 -1.1516  0.1856
 3844SOL    HW212432   2.412   4.582   6.290  0.5169  0.2680 -0.8963
 3845SOL     OW12433   3.961   2.985   6.877 -0.2577 -0.1981  0.1365
 3845SOL    HW112434   3.917   2.896   6.892  1.8985 -1.0315  2.1538
 3845SOL    HW212435   4.046   2.972   6.826  0.4470  0.5588  1.0747
 3846SOL     OW12436   1.545   3.626   5.009 -0.2549 -0.1264 -0.8846
 3846SOL    HW112437   1.553   3.682   4.926 -2.1690  0.3872 -0.7823
 3846SOL    HW212438   1.477   3.554   4.994  0.8616 -1.3063 -0.4081
 3847SOL     OW12439   7.009   2.549   1.008 -0.1391  0.0591  0.1231
 3847SOL    HW112440   7.090   2.547   1.066 -1.1413  0.7335  1.6196
 3847SOL    HW212441   7.013   2.473   0.942  2.5855  1.1678 -1.1665
 3848SOL     OW12442   1.622   5.524   2.649  0.2698 -0.3201  0.3140
 3848SOL    HW112443   1.713   5.513   2.611 -0.1878 -2.0477 -0.4208
 3848SOL    HW212444   1.597   5.440   2.698 -0.9480  0.0795  0.4074
 3849SOL     OW12445   4.287   6.645   4.068  0.2496  0.0654  0.0267
 3849SOL    HW112446   4.290   6.736   4.026  0.3419  0.6787  1.3045
 3849SOL    HW212447   4.193   6.621   4.091  0.3208  0.2653  0.5510
 3850SOL     OW12448   1.261   3.322   0.660  0.5298 -0.1055 -0.9506
 3850SOL    HW112449   1.164   3.332   0.636  0.4889  1.7564 -0.2321
 3850SOL    HW212450   1.269   3.312   0.759  1.0664 -0.5515 -1.0366
 3851SOL     OW12451   2.371   2.768   0.438 -0.7212  0.3702  0.4673
 3851SOL    HW112452   2.407   2.686   0.393 -1.0532 -0.5962  1.8888
 3851SOL    HW212453   2.446   2.830   0.461 -0.4721  0.5018 -0.6597
 3852SOL     OW12454   3.306   0.389   5.625  0.0043 -0.7894 -0.6346
 3852SOL    HW112455   3.254   0.312   5.591  0.3307 -0.4822 -1.8655
 3852SOL    HW212456   3.402   0.380   5.598  0.8634 -1.8176  2.3623
 3853SOL     OW12457   0.105   5.014   2.250  0.8796  0.1439 -0.0323
 3853SOL    HW112458   0.066   5.098   2.289  0.2563  0.0516 -0.4508
 3853SOL    HW212459   0.204   5.013   2.266  1.1307  1.6616 -1.2824
 3854SOL     OW12460   0.702   1.650   3.590  0.2241 -0.2295  0.0273
 3854SOL    HW112461   0.777   1.678   3.650  1.5086  0.5960 -1.8694
 3854SOL    HW212462   0.619   1.638   3.645  1.6822 -1.1230  2.1795
 3855SOL     OW12463   6.430   2.121   6.439  0.0412 -0.4984  0.1008
 3855SOL    HW112464   6.340   2.093   6.472  0.1670 -2.2869 -0.9297
 3855SOL    HW212465   6.437   2.100   6.341  1.3398  0.2419  0.0208
 3856SOL     OW12466   0.959   6.108   6.807 -0.6277  0.2352 -0.1940
 3856SOL    HW112467   0.890   6.091   6.738 -0.8686  0.4044  0.0057
 3856SOL    HW212468   1.009   6.023   6.825 -0.1307  0.3384 -1.0369
 3857SOL     OW12469   5.652   0.805   6.097  0.2951 -0.1052  0.9080
 3857SOL    HW112470   5.615   0.845   6.013 -2.8970 -3.0813  0.6853
 3857SOL    HW212471   5.651   0.874   6.169 -1.2905  1.2891 -0.3497
 3858SOL     OW12472   3.623   5.297   6.468 -0.2513 -0.4794  0.4076
 3858SOL    HW112473   3.572   5.374   6.506  1.4287 -0.4261  2.7931
 3858SOL    HW212474   3.642   5.313   6.372  0.8606  2.6111  1.0347
 3859SOL     OW12475   6.518   1.629   2.519 -0.2916 -0.2148  0.4151
 3859SOL    HW112476   6.446   1.579   2.569 -0.3021  0.1443  0.7665
 3859SOL    HW212477   6.607   1.590   2.543 -0.4648 -2.2067 -1.7744
 3860SOL     OW12478   1.298   5.681   4.197  0.0851  0.2060  0.8461
 3860SOL    HW112479   1.320   5.614   4.268  0.7765 -2.2259 -1.4944
 3860SOL    HW212480   1.381   5.707   4.149 -0.7078 -0.6367 -1.0712
 3861SOL     OW12481   2.930   4.063   0.749 -0.1932  0.0997  0.1377
 3861SOL    HW112482   3.007   4.099   0.802 -0.1545  1.2906 -0.6858
 3861SOL    HW212483   2.858   4.132   0.743 -0.7684 -0.5187 -0.2069
 3862SOL     OW12484   1.867   4.441   6.482  0.5921 -0.1937 -0.0053
 3862SOL    HW112485   1.800   4.410   6.550 -0.6825 -1.3494 -1.6844
 3862SOL    HW212486   1.899   4.532   6.505 -1.1966  0.1871  1.1458
 3863SOL     OW12487   2.481   4.327   1.817 -0.1792 -0.3036 -0.1748
 3863SOL    HW112488   2.464   4.341   1.719  1.8578 -0.6580 -0.6246
 3863SOL    HW212489   2.417   4.259   1.852 -0.4945 -0.6927 -1.4337
 3864SOL     OW12490   0.078   3.196   0.775  0.2219 -0.2473 -0.3881
 3864SOL    HW112491   0.098   3.228   0.867  0.6113  0.5144 -0.7264
 3864SOL    HW212492   0.094   3.097   0.770 -0.0418 -0.3365  0.4159
 3865SOL     OW12493   5.019   1.910   3.009  0.2658 -0.3022 -0.0503
 3865SOL    HW112494   4.969   1.899   3.095 -0.3616 -1.0917 -0.4960
 3865SOL    HW212495   4.972   1.978   2.952 -0.5697 -1.3332 -0.6340
 3866SOL     OW12496   5.228   6.158   5.622  0.0314  0.1008  0.4110
 3866SOL    HW112497   5.283   6.228   5.576 -0.8566  0.5478  0.0155
 3866SOL    HW212498   5.245   6.162   5.720  0.7945  0.1557  0.2846
 3867SOL     OW12499   2.814   5.513   4.230  0.3159 -0.2682  0.7012
 3867SOL    HW112500   2.886   5.549   4.291 -1.8389  1.4213  2.4020
 3867SOL    HW212501   2.758   5.589   4.197  0.9772 -1.2174 -2.9935
 3868SOL     OW12502   4.529   0.663   1.142  0.1110  0.0062  0.5234
 3868SOL    HW112503   4.542   0.710   1.054  0.1680  0.6337  0.8633
 3868SOL    HW212504   4.450   0.603   1.136  0.4839 -0.4303 -0.1551
 3869SOL     OW12505   0.932   1.274   3.662 -0.1188  0.1081 -0.5341
 3869SOL    HW112506   0.901   1.309   3.751  0.4038 -1.0783  0.1378
 3869SOL    HW212507   0.947   1.351   3.600 -0.3501  0.9778  0.4438
 3870SOL     OW12508   3.556   3.207   0.781 -0.6999  0.1443 -0.5590
 3870SOL    HW112509   3.602   3.267   0.715 -0.6708  1.0619  0.2694
 3870SOL    HW212510   3.584   3.112   0.765 -2.8317 -0.0956 -3.6574
 3871SOL     OW12511   2.336   1.805   4.705  0.2548 -0.3151  0.0486
 3871SOL    HW112512   2.327   1.862   4.623 -1.8108 -1.6962 -0.7672
 3871SOL    HW212513   2.351   1.865   4.785  0.5557  1.1765 -1.0767
 3872SOL     OW12514   4.700   3.752   6.847  0.1197 -0.2927 -0.4496
 3872SOL    HW112515   4.670   3.777   6.755  0.7051  1.2548 -0.2549
 3872SOL    HW212516   4.800   3.752   6.850  0.1221  1.7087  0.6642
 3873SOL     OW12517   6.329   6.056   1.683  0.2426  0.0165  0.1698
 3873SOL    HW112518   6.238   6.057   1.724 -0.1060  1.2424 -0.6028
 3873SOL    HW212519   6.386   5.990   1.732 -1.1373 -1.0044  0.4656
 3874SOL     OW12520   4.082   6.999   5.611  0.0178 -0.0620 -0.6564
 3874SOL    HW112521   4.171   7.045   5.616  0.5826 -1.0121 -1.5847
 3874SOL    HW212522   4.089   6.907   5.649 -1.1707  0.6385  1.4294
 3875SOL     OW12523   1.480   4.769   0.812 -0.4364  0.2304  0.3880
 3875SOL    HW112524   1.578   4.779   0.825 -0.0943 -2.2307  0.2970
 3875SOL    HW212525   1.451   4.820   0.731  0.9228  0.3689 -0.0364
 3876SOL     OW12526   4.635   5.012   4.095 -0.0970 -0.0060  0.0406
 3876SOL    HW112527   4.622   5.063   4.180 -0.6774 -0.8037  0.4439
 3876SOL    HW212528   4.719   5.042   4.051  1.0850 -0.7051  1.7179
 3877SOL     OW12529   5.656   2.376   2.805  0.0199 -0.0768 -0.6391
 3877SOL    HW112530   5.693   2.365   2.897  1.0110  2.5939 -0.6423
 3877SOL    HW212531   5.622   2.287   2.772  1.1591 -1.4378  1.6059
 3878SOL     OW12532   5.464   4.613   6.108  0.2047  0.4515  0.3751
 3878SOL    HW112533   5.541   4.550   6.123  0.7073  1.0060  0.1328
 3878SOL    HW212534   5.488   4.680   6.038 -1.3169 -0.7598 -1.4237
 3879SOL     OW12535   4.154   5.924   0.643 -0.0149  0.0141  0.3174
 3879SOL    HW112536   4.230   5.988   0.630 -0.8369  1.0597  0.4557
 3879SOL    HW212537   4.144   5.867   0.561  0.5216  0.2975  0.0491
 3880SOL     OW12538   4.180   1.349   5.287 -0.1280  0.3334  0.7052
 3880SOL    HW112539   4.157   1.296   5.368 -1.2338 -1.3550 -0.6429
 3880SOL    HW212540   4.097   1.387   5.248  0.3081  0.5819  0.0073
 3881SOL     OW12541   1.790   6.831   6.541 -0.3089  0.0419 -0.1809
 3881SOL    HW112542   1.806   6.861   6.447  2.4423  2.4363  0.9291
 3881SOL    HW212543   1.714   6.883   6.580 -0.5305  0.0658 -0.6391
 3882SOL     OW12544   5.530   5.826   1.266  0.4675  0.5881 -0.4644
 3882SOL    HW112545   5.449   5.800   1.213 -1.2233  1.9689  1.3031
 3882SOL    HW212546   5.570   5.745   1.307 -0.1283 -0.0962 -1.1935
 3883SOL     OW12547   2.715   2.253   0.747 -0.7734  0.0058  0.4906
 3883SOL    HW112548   2.786   2.243   0.816 -0.6153 -1.8178  0.1049
 3883SOL    HW212549   2.727   2.340   0.699  3.1550 -1.4784 -1.6589
 3884SOL     OW12550   4.904   6.382   4.219 -0.2351 -0.8766 -0.1046
 3884SOL    HW112551   4.877   6.396   4.314  0.1251  0.7107 -0.2035
 3884SOL    HW212552   4.981   6.443   4.197 -0.3297 -1.1931 -1.4150
 3885SOL     OW12553   0.099   6.315   5.181  0.8875 -0.0034  0.5875
 3885SOL    HW112554   0.191   6.353   5.178  0.5222  0.8739  0.3275
 3885SOL    HW212555   0.040   6.373   5.237  0.6652 -0.9771  1.4108
 3886SOL     OW12556   0.911   5.807   2.508  0.0553  0.1795  0.2396
 3886SOL    HW112557   0.959   5.833   2.592  0.7578 -1.4859  0.3992
 3886SOL    HW212558   0.974   5.812   2.431 -0.2509  0.5087  0.0077
 3887SOL     OW12559   2.118   1.901   6.111 -0.4048  0.0948  0.1089
 3887SOL    HW112560   2.039   1.841   6.124  0.2083 -0.8723 -0.4309
 3887SOL    HW212561   2.176   1.897   6.192  0.3002 -1.1089 -0.4214
 3888SOL     OW12562   4.574   1.259   3.272  0.1376  0.9675  0.0345
 3888SOL    HW112563   4.556   1.312   3.355  0.1157  0.5104  0.3269
 3888SOL    HW212564   4.587   1.163   3.296 -2.4383  0.3412 -0.7498
 3889SOL     OW12565   0.639   5.909   5.564 -0.2656 -0.2569  0.0758
 3889SOL    HW112566   0.572   5.856   5.616  0.2617 -1.1664 -0.1679
 3889SOL    HW212567   0.684   5.975   5.625  1.5507 -2.4356  1.2070
 3890SOL     OW12568   5.467   2.295   4.081 -0.4706  0.6164 -0.0311
 3890SOL    HW112569   5.402   2.367   4.104 -0.2317  1.0922 -0.8059
 3890SOL    HW212570   5.438   2.248   3.998 -1.0585 -0.7482  0.9102
 3891SOL     OW12571   2.101   3.095   6.460  0.5075  0.1029  0.3266
 3891SOL    HW112572   2.047   3.012   6.476 -0.3242  0.5088 -0.2865
 3891SOL    HW212573   2.194   3.070   6.433 -0.1060 -0.6719 -1.1858
 3892SOL     OW12574   6.344   4.647   5.785 -0.2369 -0.8851 -0.2967
 3892SOL    HW112575   6.301   4.735   5.766 -0.5639 -0.8792  0.4446
 3892SOL    HW212576   6.382   4.647   5.877  0.7821 -1.1240 -0.7015
 3893SOL     OW12577   1.411   5.460   3.682 -0.6444  0.0829 -0.1385
 3893SOL    HW112578   1.346   5.426   3.750  0.0052 -1.3192 -0.1884
 3893SOL    HW212579   1.412   5.400   3.603  0.5184  0.2185 -0.2544
 3894SOL     OW12580   5.424   5.150   5.009 -0.1995  0.8930  0.5853
 3894SOL    HW112581   5.349   5.203   4.968  0.1055  1.3157  0.5689
 3894SOL    HW212582   5.392   5.110   5.095 -0.0481  2.2179  1.2883
 3895SOL     OW12583   2.359   1.894   5.431  0.3658 -0.5386 -0.1254
 3895SOL    HW112584   2.433   1.862   5.490  0.9178 -0.8218 -0.9634
 3895SOL    HW212585   2.330   1.820   5.370 -0.6883 -0.4685  0.2534
 3896SOL     OW12586   4.915   4.213   1.252 -0.4243  0.2799 -0.5636
 3896SOL    HW112587   4.956   4.227   1.342 -0.8450  1.0461 -0.4823
 3896SOL    HW212588   4.878   4.120   1.246  0.8956 -0.2772 -0.4814
 3897SOL     OW12589   1.671   1.893   1.795  0.2482 -0.3278 -0.0948
 3897SOL    HW112590   1.646   1.909   1.699  1.8216 -0.3877 -0.5473
 3897SOL    HW212591   1.611   1.946   1.854 -0.3893  0.1576 -1.1466
 3898SOL     OW12592   4.554   4.088   1.247 -0.8131 -0.5381 -0.1984
 3898SOL    HW112593   4.462   4.103   1.210 -1.5224 -0.7487  1.3790
 3898SOL    HW212594   4.551   4.013   1.313  0.2420  0.2318  0.7594
 3899SOL     OW12595   5.470   5.715   6.270  0.1744 -0.4347  0.1960
 3899SOL    HW112596   5.535   5.716   6.193  0.4189 -1.5595  0.3762
 3899SOL    HW212597   5.488   5.794   6.328 -0.3136  0.6973 -1.1334
 3900SOL     OW12598   0.560   2.462   2.717  0.0145 -0.0311 -0.0857
 3900SOL    HW112599   0.513   2.435   2.802  0.3288 -0.8589 -0.1727
 3900SOL    HW212600   0.494   2.462   2.642 -0.3603  1.1020  0.2159
 3901SOL     OW12601   3.968   0.828   5.033  0.3706  0.4071  0.1964
 3901SOL    HW112602   4.007   0.876   4.955  2.3838  1.9403  2.0071
 3901SOL    HW212603   3.886   0.778   5.004  0.9538  0.9872 -2.8068
 3902SOL     OW12604   1.202   5.653   3.853  0.1927  0.2651 -0.3077
 3902SOL    HW112605   1.254   5.733   3.883  0.6788 -0.0368 -0.3367
 3902SOL    HW212606   1.237   5.571   3.898  1.1540 -0.2462 -1.8939
 3903SOL     OW12607   3.017   2.563   0.196  0.0381 -0.7757 -0.0238
 3903SOL    HW112608   2.930   2.600   0.165  1.3484  1.0583 -1.7875
 3903SOL    HW212609   3.089   2.632   0.186  1.5951 -1.9293  2.1633
 3904SOL     OW12610   2.937   4.831   1.277 -0.0895  0.2710 -0.4777
 3904SOL    HW112611   2.892   4.758   1.329  0.0868  1.4898  1.5053
 3904SOL    HW212612   3.036   4.816   1.279 -0.0275  0.7271  0.2376
 3905SOL     OW12613   3.512   6.370   6.120 -0.5004 -0.0671  0.2222
 3905SOL    HW112614   3.587   6.434   6.137  0.9949 -1.4886 -0.7562
 3905SOL    HW212615   3.534   6.281   6.158 -0.0932 -1.4410 -2.8917
 3906SOL     OW12616   6.846   5.695   3.543 -0.2141  0.1979 -0.2735
 3906SOL    HW112617   6.931   5.645   3.559  0.7169  1.5707 -0.7592
 3906SOL    HW212618   6.769   5.639   3.572  0.8434 -1.0901  0.1619
 3907SOL     OW12619   3.003   0.138   0.685 -0.1718  0.3562  0.6703
 3907SOL    HW112620   3.041   0.173   0.599  0.8003 -1.0386  0.5102
 3907SOL    HW212621   2.992   0.039   0.680 -0.7232  0.3303  1.9245
 3908SOL     OW12622   1.173   1.506   4.506  0.0605 -0.2746  1.2300
 3908SOL    HW112623   1.080   1.469   4.513  0.2147 -1.1728 -0.7831
 3908SOL    HW212624   1.170   1.592   4.454  0.5713 -1.4781 -0.8750
 3909SOL     OW12625   1.363   2.589   2.409  0.1059  0.2529 -0.0444
 3909SOL    HW112626   1.313   2.603   2.495 -1.1303  0.5245 -0.7680
 3909SOL    HW212627   1.337   2.501   2.370  2.0063 -0.6883  0.6905
 3910SOL     OW12628   1.853   1.799   6.158  0.5672 -0.1164 -0.1721
 3910SOL    HW112629   1.789   1.796   6.081  1.1070 -0.7683 -0.6000
 3910SOL    HW212630   1.854   1.891   6.197  0.1469  0.1652 -0.8200
 3911SOL     OW12631   0.188   6.924   1.934 -0.2338 -0.1612 -0.1866
 3911SOL    HW112632   0.138   6.933   1.848 -2.1144  0.4711  0.9247
 3911SOL    HW212633   0.286   6.935   1.916 -0.7476  3.3752 -1.8231
 3912SOL     OW12634   5.162   3.194   5.875  1.0231 -0.4819 -0.4158
 3912SOL    HW112635   5.063   3.191   5.867  0.6838 -0.5960  2.7742
 3912SOL    HW212636   5.200   3.244   5.797 -1.7405  1.8958 -0.4143
 3913SOL     OW12637   2.767   1.758   0.065 -0.2586 -0.0456  0.1564
 3913SOL    HW112638   2.710   1.675   0.071  1.2191 -1.0183  1.9177
 3913SOL    HW212639   2.845   1.749   0.128  0.5989  2.2037 -0.4993
 3914SOL     OW12640   0.668   2.575   6.062  0.2260 -0.3198 -0.5283
 3914SOL    HW112641   0.696   2.481   6.078  0.6993 -0.0393  0.3539
 3914SOL    HW212642   0.592   2.598   6.123 -1.2907 -0.7501 -2.1711
 3915SOL     OW12643   6.487   0.446   4.249 -0.3351 -0.1837  0.2733
 3915SOL    HW112644   6.506   0.542   4.228 -0.5414 -0.2412 -0.2021
 3915SOL    HW212645   6.572   0.400   4.273  0.2365 -0.5140 -2.1383
 3916SOL     OW12646   6.391   4.524   3.452  0.6846 -0.0685 -0.3491
 3916SOL    HW112647   6.348   4.495   3.537  1.0184 -0.7818 -0.4114
 3916SOL    HW212648   6.363   4.617   3.430  1.2464  0.4314  0.9642
 3917SOL     OW12649   3.144   6.276   1.328 -0.2955  0.0536 -0.0445
 3917SOL    HW112650   3.101   6.197   1.283  0.7960  0.2156 -1.4315
 3917SOL    HW212651   3.192   6.245   1.410 -2.0963 -0.2893  0.9592
 3918SOL     OW12652   4.216   5.738   6.269  0.0729 -0.4926  0.0609
 3918SOL    HW112653   4.196   5.818   6.212  2.1471  0.3066  0.3496
 3918SOL    HW212654   4.164   5.744   6.354 -0.2782  0.2406 -0.1981
 3919SOL     OW12655   5.705   4.283   2.898  0.2627  0.0501  0.0094
 3919SOL    HW112656   5.666   4.191   2.889  1.0561 -0.4083  0.9800
 3919SOL    HW212657   5.763   4.302   2.819  1.1051 -0.8194  0.3914
 3920SOL     OW12658   3.801   0.338   4.779  0.2153  0.0338 -0.5741
 3920SOL    HW112659   3.815   0.354   4.876  0.1398  1.0228 -0.7151
 3920SOL    HW212660   3.855   0.404   4.726 -0.7277  0.3404 -1.1785
 3921SOL     OW12661   0.811   4.578   5.586 -0.3385  0.5614 -0.8006
 3921SOL    HW112662   0.796   4.631   5.503 -1.5169  1.8083  0.1581
 3921SOL    HW212663   0.871   4.630   5.648 -2.5584  1.4705  0.7069
 3922SOL     OW12664   4.611   1.412   4.171  0.5631  0.5690  0.4828
 3922SOL    HW112665   4.586   1.387   4.265  0.2119  0.0628  0.2556
 3922SOL    HW212666   4.671   1.343   4.132 -1.3325 -0.5729 -0.5451
 3923SOL     OW12667   5.908   2.342   2.640  0.4508  0.3627  0.1451
 3923SOL    HW112668   5.862   2.305   2.559  0.0215  0.2580  0.4329
 3923SOL    HW212669   5.840   2.366   2.709  0.7372  1.4396  0.0744
 3924SOL     OW12670   6.706   4.376   4.102  0.0886  0.1845 -0.2370
 3924SOL    HW112671   6.741   4.470   4.101 -1.5291  0.8342  0.6190
 3924SOL    HW212672   6.624   4.370   4.045  1.1504 -1.1675 -1.7241
 3925SOL     OW12673   2.935   5.417   2.674  0.2205  0.0116 -0.0123
 3925SOL    HW112674   2.844   5.457   2.665 -1.1434 -2.1972  2.5357
 3925SOL    HW212675   2.945   5.340   2.611  0.5240  0.4833 -0.5585
 3926SOL     OW12676   2.275   6.355   4.464  0.3621 -0.4662 -0.4258
 3926SOL    HW112677   2.286   6.430   4.529 -0.3643  2.4836 -3.4144
 3926SOL    HW212678   2.364   6.334   4.423  0.8354 -2.3820  1.4383
 3927SOL     OW12679   0.586   5.636   0.442  0.0240  0.5689 -0.3177
 3927SOL    HW112680   0.589   5.651   0.343 -0.9197 -0.3061 -0.4997
 3927SOL    HW212681   0.655   5.567   0.467 -0.7607 -0.3439 -0.6090
 3928SOL     OW12682   4.348   5.178   0.211  0.0222  0.2414 -0.2525
 3928SOL    HW112683   4.388   5.184   0.303  0.2742 -1.0026 -0.2595
 3928SOL    HW212684   4.332   5.270   0.175  0.8880  0.7460  0.6186
 3929SOL     OW12685   2.815   6.941   4.642  0.3586  0.1207 -0.1152
 3929SOL    HW112686   2.886   6.984   4.697 -0.2345  0.3320  0.5066
 3929SOL    HW212687   2.761   6.879   4.700 -0.6143  0.7540 -0.3213
 3930SOL     OW12688   7.021   3.767   5.460 -0.6215  0.0823 -0.1139
 3930SOL    HW112689   6.995   3.833   5.530 -1.6271 -0.1080 -0.2936
 3930SOL    HW212690   6.947   3.758   5.393 -0.6467 -1.4711  0.0867
 3931SOL     OW12691   0.784   1.160   6.173 -0.0562 -0.0603  0.1018
 3931SOL    HW112692   0.853   1.169   6.101 -0.5383 -1.0011 -0.4854
 3931SOL    HW212693   0.708   1.222   6.154 -0.6471 -1.0288 -0.7510
 3932SOL     OW12694   2.075   3.394   2.247 -0.0880 -0.1488  0.1426
 3932SOL    HW112695   2.051   3.491   2.241 -2.0691 -0.6962 -2.1479
 3932SOL    HW212696   2.146   3.373   2.180  0.5284 -0.2482  0.8182
 3933SOL     OW12697   0.037   0.594   1.196  0.2214  0.5939  0.2527
 3933SOL    HW112698  -0.023   0.525   1.236  0.3679 -0.3907 -1.1236
 3933SOL    HW212699   0.000   0.685   1.214 -1.3960  0.0393 -0.0723
 3934SOL     OW12700   0.833   6.486   1.110  0.3753  0.6661  0.4529
 3934SOL    HW112701   0.820   6.465   1.013 -1.1985 -0.6906  0.9036
 3934SOL    HW212702   0.928   6.512   1.126  1.0562 -0.5862 -1.2115
 3935SOL     OW12703   6.856   2.026   4.545  0.2180 -0.2510 -0.2231
 3935SOL    HW112704   6.807   1.968   4.610 -0.8908  0.2565 -0.5846
 3935SOL    HW212705   6.951   1.994   4.536  0.3859 -0.3654  1.5845
 3936SOL     OW12706   2.112   3.024   2.587  0.2560 -0.2301  0.2659
 3936SOL    HW112707   2.073   3.071   2.508  0.1467 -2.7882 -1.3405
 3936SOL    HW212708   2.043   2.963   2.627  0.9497 -0.5646  0.9880
 3937SOL     OW12709   2.175   5.976   6.609  0.0808  0.0727  0.5554
 3937SOL    HW112710   2.217   5.909   6.669  0.2250  0.5233  0.9614
 3937SOL    HW212711   2.191   6.068   6.645  2.0046  0.5268 -1.2436
 3938SOL     OW12712   1.180   4.296   6.031  0.4117  0.9328  0.4327
 3938SOL    HW112713   1.131   4.363   5.976  1.0697  0.3485 -0.9026
 3938SOL    HW212714   1.271   4.280   5.993 -0.2292 -1.7534 -0.2107
 3939SOL     OW12715   0.974   6.435   2.786  0.5575  0.1855  0.1192
 3939SOL    HW112716   1.047   6.468   2.725  0.5394 -0.0326 -0.0221
 3939SOL    HW212717   0.892   6.491   2.773  0.5248  0.0839 -0.1232
 3940SOL     OW12718   2.620   6.405   1.078  0.4057  0.3439  0.7555
 3940SOL    HW112719   2.689   6.452   1.024  0.2899  0.0033  0.3098
 3940SOL    HW212720   2.646   6.406   1.175  1.0426  0.1900  0.5843
 3941SOL     OW12721   2.946   4.876   2.441 -0.2836 -0.2064  0.4371
 3941SOL    HW112722   2.876   4.852   2.374 -0.4865  0.7131  0.2953
 3941SOL    HW212723   2.914   4.852   2.533  0.8455 -3.3916  0.0913
 3942SOL     OW12724   0.726   0.977   1.041  0.1172  0.7122  0.0715
 3942SOL    HW112725   0.720   0.955   1.138 -0.4052 -0.3617 -0.1806
 3942SOL    HW212726   0.678   0.907   0.988  1.4400  0.5916 -1.0455
 3943SOL     OW12727   0.075   3.661   0.517 -0.2170 -0.1490 -0.5006
 3943SOL    HW112728   0.038   3.720   0.589  0.9787 -0.2461  0.2258
 3943SOL    HW212729   0.170   3.688   0.498  0.1518 -1.4601 -0.5817
 3944SOL     OW12730   5.355   2.366   7.006  0.0892  0.1626 -0.2918
 3944SOL    HW112731   5.398   2.315   7.080 -2.0456  1.4946  2.0435
 3944SOL    HW212732   5.307   2.303   6.945  0.0026 -0.8359  0.7859
 3945SOL     OW12733   0.781   6.723   4.746 -0.1952 -0.3990 -0.3145
 3945SOL    HW112734   0.861   6.708   4.803 -0.8028 -0.7878  0.4643
 3945SOL    HW212735   0.724   6.641   4.746 -2.0028  0.7593  1.4776
 3946SOL     OW12736   3.895   1.418   2.228  0.0685 -0.1401  0.0377
 3946SOL    HW112737   3.867   1.366   2.147  0.5284  1.0911 -0.9496
 3946SOL    HW212738   3.819   1.474   2.259  0.2359  0.2698 -0.2745
 3947SOL     OW12739   5.320   0.658   2.322 -0.2608  0.6136  0.6408
 3947SOL    HW112740   5.350   0.611   2.239  0.9736  3.0176 -0.3983
 3947SOL    HW212741   5.356   0.610   2.402 -0.9692 -1.4202 -0.2075
 3948SOL     OW12742   0.383   0.963   2.669  0.2554 -0.1921  0.4117
 3948SOL    HW112743   0.333   0.953   2.584  1.9744 -0.8469 -0.5738
 3948SOL    HW212744   0.422   0.875   2.695  0.3876  0.1649  1.4758
 3949SOL     OW12745   6.479   6.159   3.460 -0.2879  0.2498  0.2472
 3949SOL    HW112746   6.544   6.235   3.458  0.4295 -0.3804 -0.6708
 3949SOL    HW212747   6.474   6.116   3.370 -2.3197  0.5590  0.1617
 3950SOL     OW12748   1.094   3.116   3.289  0.2398  0.5167 -0.4933
 3950SOL    HW112749   1.179   3.165   3.310  1.2033 -0.6597 -1.5264
 3950SOL    HW212750   1.089   3.032   3.344 -0.9213  1.2057  0.5237
 3951SOL     OW12751   6.257   5.238   2.773 -1.0490  0.7269 -0.3957
 3951SOL    HW112752   6.207   5.292   2.705 -1.8555  0.9844  0.3674
 3951SOL    HW212753   6.197   5.220   2.851 -0.3393 -0.0838 -0.0206
 3952SOL     OW12754   1.344   3.843   6.227  0.5499  0.4190  0.8086
 3952SOL    HW112755   1.247   3.867   6.230  0.6665  0.9873  0.3890
 3952SOL    HW212756   1.374   3.836   6.132  1.0208  0.7200  0.9258
 3953SOL     OW12757   2.892   3.504   4.531  0.3389  0.2267  0.0349
 3953SOL    HW112758   2.829   3.508   4.453 -0.1130  0.0066  0.3871
 3953SOL    HW212759   2.930   3.412   4.538  2.1558  0.8081 -1.3047
 3954SOL     OW12760   1.545   6.581   5.212 -0.3360  0.1579  0.6902
 3954SOL    HW112761   1.475   6.574   5.283  0.3663 -0.7477  1.3097
 3954SOL    HW212762   1.628   6.621   5.251  0.4139 -1.3144  0.6699
 3955SOL     OW12763   5.566   4.052   2.906  0.0319 -0.2545  0.0395
 3955SOL    HW112764   5.561   3.984   2.833  0.0434 -1.2254  0.9132
 3955SOL    HW212765   5.578   4.005   2.994 -0.0085  0.8837  0.6689
 3956SOL     OW12766   6.782   3.050   3.448  0.0395 -0.0990  1.0817
 3956SOL    HW112767   6.714   3.081   3.381 -0.0909 -2.1481  0.1984
 3956SOL    HW212768   6.852   2.995   3.402  0.6035 -0.5732  2.4524
 3957SOL     OW12769   0.745   4.084   1.804  0.0311  0.4126  0.5100
 3957SOL    HW112770   0.817   4.079   1.873  0.6611  2.3573  0.0515
 3957SOL    HW212771   0.781   4.124   1.720 -1.5133  1.2121  0.1806
 3958SOL     OW12772   3.997   4.479   0.372 -0.2102 -0.1836  0.2982
 3958SOL    HW112773   3.932   4.403   0.372 -2.9133  1.9002  2.8892
 3958SOL    HW212774   4.054   4.474   0.454  1.5956 -0.8371 -0.9254
 3959SOL     OW12775   0.388   4.599   0.380 -0.1208 -0.3128  0.1930
 3959SOL    HW112776   0.406   4.500   0.378  1.3927 -0.0545 -0.6118
 3959SOL    HW212777   0.474   4.648   0.396 -0.4075  0.9329 -1.6967
 3960SOL     OW12778   6.639   4.976   3.784 -0.8666  0.5279 -0.4145
 3960SOL    HW112779   6.555   4.964   3.731 -1.7217 -2.6844  1.4107
 3960SOL    HW212780   6.718   4.955   3.726 -1.5399  0.2508 -1.2520
 3961SOL     OW12781   0.693   1.806   2.505  0.5531 -0.1486  0.0365
 3961SOL    HW112782   0.624   1.872   2.476 -1.6502 -0.8615  3.1581
 3961SOL    HW212783   0.783   1.851   2.508 -0.2101  1.5967 -1.4484
 3962SOL     OW12784   0.392   0.666   6.834 -0.2449  0.2717  0.3548
 3962SOL    HW112785   0.322   0.637   6.899 -1.6733  0.3221 -1.1010
 3962SOL    HW212786   0.409   0.592   6.768 -0.7585  1.1683 -0.7964
 3963SOL     OW12787   4.496   2.664   5.571  0.1198 -0.1274  0.1479
 3963SOL    HW112788   4.578   2.606   5.583  0.9573  1.4561  2.9078
 3963SOL    HW212789   4.419   2.622   5.619 -0.1600 -0.5625 -0.6639
 3964SOL     OW12790   4.940   4.941   6.000 -0.0168 -0.0829  0.4553
 3964SOL    HW112791   5.001   4.905   5.929  1.6280  0.9393  1.2954
 3964SOL    HW212792   4.942   5.041   5.999 -2.5125  0.0227 -0.1466
 3965SOL     OW12793   1.993   4.307   1.311  0.2653  0.0400 -0.1536
 3965SOL    HW112794   1.904   4.353   1.303 -0.7274 -1.4388  1.6391
 3965SOL    HW212795   1.989   4.219   1.264  0.6452 -0.2003  0.2577
 3966SOL     OW12796   0.615   3.956   3.274 -0.3715  0.8309 -0.3615
 3966SOL    HW112797   0.696   3.907   3.305 -0.9940 -0.2073 -0.3018
 3966SOL    HW212798   0.636   4.053   3.262  0.8184  0.6049 -0.1831
 3967SOL     OW12799   2.360   6.552   0.046 -0.3260 -0.2255  0.8512
 3967SOL    HW112800   2.444   6.498   0.051  0.6500  0.8658 -1.9174
 3967SOL    HW212801   2.361   6.621   0.119  1.6387  0.2838  0.4255
 3968SOL     OW12802   3.083   3.915   6.017 -0.0088 -0.2385 -0.2037
 3968SOL    HW112803   3.127   3.844   6.071 -0.1365 -0.3430 -0.2351
 3968SOL    HW212804   3.036   3.874   5.939 -1.7763 -0.3589  0.8673
 3969SOL     OW12805   5.866   6.478   0.123  0.3285  0.2196 -0.2027
 3969SOL    HW112806   5.816   6.563   0.109 -0.6442 -0.4227 -0.6797
 3969SOL    HW212807   5.917   6.483   0.209 -1.2980  0.5315  0.7731
 3970SOL     OW12808   6.006   5.051   3.194 -0.1671 -0.9766  0.0512
 3970SOL    HW112809   5.985   5.031   3.290  0.8881  0.5418  0.6415
 3970SOL    HW212810   6.043   4.969   3.150 -1.6076 -1.9783  0.6389
 3971SOL     OW12811   1.506   6.227   3.578  0.1874 -0.4759 -0.2102
 3971SOL    HW112812   1.440   6.187   3.515  0.0582 -0.0016 -0.3865
 3971SOL    HW212813   1.552   6.155   3.630  1.4471 -0.9853 -1.9539
 3972SOL     OW12814   6.023   1.810   5.540 -0.3234 -0.3044  0.2670
 3972SOL    HW112815   6.036   1.882   5.473  1.7092 -0.0535  0.8654
 3972SOL    HW212816   5.951   1.836   5.605  0.2870  1.1137  0.3884
 3973SOL     OW12817   4.115   2.527   1.085  0.1962 -0.2592  0.2243
 3973SOL    HW112818   4.042   2.526   1.016  1.4205  1.4890 -1.2019
 3973SOL    HW212819   4.180   2.453   1.066 -0.1755 -0.6151  0.3302
 3974SOL     OW12820   5.692   7.019   5.561 -0.2684  0.3094 -0.3301
 3974SOL    HW112821   5.745   6.944   5.522  0.2401  0.2124  0.5286
 3974SOL    HW212822   5.644   7.068   5.488  0.1682 -0.2503 -0.9977
 3975SOL     OW12823   5.660   1.662   4.528  0.2265 -0.3110  0.2497
 3975SOL    HW112824   5.589   1.690   4.465 -1.0599 -0.8875  1.3921
 3975SOL    HW212825   5.710   1.742   4.560  0.8999 -0.0116 -1.4408
 3976SOL     OW12826   0.352   1.563   5.009 -0.3682 -0.2256  0.2185
 3976SOL    HW112827   0.295   1.558   4.927 -0.0696 -1.2817  0.0665
 3976SOL    HW212828   0.436   1.613   4.987 -0.1306 -0.8074 -0.2251
 3977SOL     OW12829   1.985   5.014   5.174  0.1154  0.1027  0.2896
 3977SOL    HW112830   1.963   4.929   5.126  0.7618  0.0308  0.1019
 3977SOL    HW212831   2.082   5.036   5.159  0.2847  0.1648  1.4325
 3978SOL     OW12832   4.438   4.519   0.225  0.0829  0.1169 -0.4091
 3978SOL    HW112833   4.382   4.448   0.270  1.2136 -0.3604  0.2953
 3978SOL    HW212834   4.405   4.609   0.252 -1.0712 -0.1310 -0.9267
 3979SOL     OW12835   0.462   0.079   3.289 -0.4410 -0.1261 -0.0935
 3979SOL    HW112836   0.450   0.178   3.290  0.5409  0.0043 -0.1260
 3979SOL    HW212837   0.560   0.057   3.279 -0.6481 -1.0937 -0.1182
 3980SOL     OW12838   5.574   3.857   3.129 -0.6583  0.0399  0.0682
 3980SOL    HW112839   5.486   3.864   3.175 -0.6552  1.8682 -0.1594
 3980SOL    HW212840   5.592   3.761   3.106 -1.9920 -0.5158  1.2375
 3981SOL     OW12841   6.635   1.779   5.649 -0.4572 -0.2504  0.6079
 3981SOL    HW112842   6.731   1.794   5.627 -0.4590  1.2959  1.4833
 3981SOL    HW212843   6.577   1.821   5.579 -0.5427 -2.1669 -0.5326
 3982SOL     OW12844   0.981   4.352   2.136  0.6483 -0.4452  0.6732
 3982SOL    HW112845   0.966   4.255   2.155 -1.3445 -0.2818  0.1351
 3982SOL    HW212846   0.903   4.405   2.170  0.3492  0.6343 -1.5049
 3983SOL     OW12847   1.799   1.560   4.430  0.1828 -0.4259 -0.5013
 3983SOL    HW112848   1.812   1.512   4.343 -0.9249 -0.8621 -0.4430
 3983SOL    HW212849   1.888   1.576   4.473  0.6088 -2.0130 -0.7408
 3984SOL     OW12850   0.437   1.291   0.859 -0.0980  0.3231 -0.0652
 3984SOL    HW112851   0.369   1.363   0.875 -0.5815 -0.0012 -0.6311
 3984SOL    HW212852   0.526   1.332   0.843 -0.1082  0.7487  0.9178
 3985SOL     OW12853   0.830   1.658   0.679  0.2140  0.1058  0.4288
 3985SOL    HW112854   0.910   1.671   0.738  0.4372 -0.7309  0.3206
 3985SOL    HW212855   0.857   1.669   0.583 -0.1515  1.4751  0.4682
 3986SOL     OW12856   2.675   6.680   3.293 -0.4052 -0.5063 -0.1291
 3986SOL    HW112857   2.770   6.650   3.283 -1.0558 -2.9160  0.1984
 3986SOL    HW212858   2.633   6.632   3.370 -2.2860 -0.6403 -1.1803
 3987SOL     OW12859   1.707   5.032   4.258 -0.1917  0.0945  0.3671
 3987SOL    HW112860   1.650   5.045   4.176  1.6673  0.4800 -0.9454
 3987SOL    HW212861   1.657   4.977   4.325 -1.5222 -0.8777 -1.3186
 3988SOL     OW12862   6.188   5.507   3.835  0.1089  0.4284  0.6639
 3988SOL    HW112863   6.155   5.413   3.841 -1.3205  0.7883 -0.7315
 3988SOL    HW212864   6.194   5.546   3.927 -1.0215 -0.4688  1.1576
 3989SOL     OW12865   4.285   0.991   5.436 -0.0646 -0.9296 -0.5707
 3989SOL    HW112866   4.225   0.988   5.357 -1.8638 -0.6375  0.7293
 3989SOL    HW212867   4.253   1.062   5.499  1.2816 -1.2005  0.4603
 3990SOL     OW12868   6.381   0.084   3.143  0.2546  0.3244  0.0372
 3990SOL    HW112869   6.447   0.032   3.196  0.1603  1.1089  0.9523
 3990SOL    HW212870   6.409   0.086   3.047 -0.3470 -2.3542 -0.2644
 3991SOL     OW12871   0.956   2.074   4.512 -0.2548  0.0929  0.6681
 3991SOL    HW112872   0.880   2.137   4.527  0.3580  0.9982  0.1299
 3991SOL    HW212873   1.031   2.123   4.468 -0.2157 -1.3152 -0.9386
 3992SOL     OW12874   6.271   3.725   4.803  0.0702 -0.3923 -0.5060
 3992SOL    HW112875   6.259   3.626   4.813  2.1667 -0.5182  2.1837
 3992SOL    HW212876   6.315   3.745   4.716  1.2098 -2.0599 -0.3623
 3993SOL     OW12877   1.440   1.181   4.845  0.0567  0.8678 -0.2081
 3993SOL    HW112878   1.353   1.135   4.866  0.5805 -0.0805 -0.0515
 3993SOL    HW212879   1.422   1.262   4.790 -0.7960 -0.4363 -1.9635
 3994SOL     OW12880   2.384   6.816   0.960 -0.3707 -0.2158 -0.1331
 3994SOL    HW112881   2.435   6.901   0.975  0.9879 -1.3572  2.2308
 3994SOL    HW212882   2.301   6.816   1.015 -1.3481  0.2847 -1.5378
 3995SOL     OW12883   2.592   5.228   1.898  0.6709  0.1197 -0.4824
 3995SOL    HW112884   2.672   5.234   1.839  1.1749 -0.1897  0.1577
 3995SOL    HW212885   2.524   5.296   1.870  1.1105  0.3083 -1.0995
 3996SOL     OW12886   0.542   6.589   5.660 -0.7856  0.4781 -0.2219
 3996SOL    HW112887   0.487   6.655   5.712 -0.2382  0.6547  0.1321
 3996SOL    HW212888   0.628   6.572   5.707 -0.6593 -0.0262 -0.6283
 3997SOL     OW12889   5.114   3.738   6.402  0.4130  0.2304 -0.1663
 3997SOL    HW112890   5.124   3.702   6.309  2.2061 -0.3427  0.2028
 3997SOL    HW212891   5.204   3.751   6.442 -0.2981 -1.9357  2.4069
 3998SOL     OW12892   4.149   0.704   3.555  0.3212  0.5544  0.1195
 3998SOL    HW112893   4.178   0.620   3.601  0.9679  0.7322  0.0407
 3998SOL    HW212894   4.164   0.695   3.457 -3.4579 -0.8557 -0.4948
 3999SOL     OW12895   4.605   4.579   2.111  0.0528  0.6630  0.3505
 3999SOL    HW112896   4.671   4.606   2.181  0.5838  0.2186  0.0396
 3999SOL    HW212897   4.651   4.520   2.044 -0.9609 -0.7215  0.8290
 4000SOL     OW12898   4.120   5.708   3.612  0.1665 -0.0413 -0.0352
 4000SOL    HW112899   4.029   5.709   3.570  0.1712  0.6533 -0.0298
 4000SOL    HW212900   4.178   5.642   3.564 -0.6101 -1.1755  0.5420
 4001SOL     OW12901   2.011   5.031   6.075  0.3010 -0.5235 -0.2645
 4001SOL    HW112902   1.983   5.099   6.008  0.8437 -0.8729 -0.8521
 4001SOL    HW212903   2.041   4.947   6.028  0.0105 -1.0299  0.4310
 4002SOL     OW12904   3.864   4.053   4.236 -0.0852 -0.5640  0.2384
 4002SOL    HW112905   3.764   4.060   4.243  0.0506  0.3144  1.7589
 4002SOL    HW212906   3.892   4.070   4.142 -1.3885 -1.2336 -0.3041
 4003SOL     OW12907   3.329   1.848   6.385 -0.4840 -0.5402 -0.1522
 4003SOL    HW112908   3.300   1.908   6.310 -0.0502 -0.7715 -0.5082
 4003SOL    HW212909   3.400   1.786   6.353  2.3227  1.6662  1.2949
 4004SOL     OW12910   2.384   4.238   5.324 -1.3594  0.3151  0.0303
 4004SOL    HW112911   2.381   4.206   5.419  1.7956  1.9436  0.8077
 4004SOL    HW212912   2.407   4.161   5.265  0.1733 -0.1166  1.0983
 4005SOL     OW12913   5.775   2.580   2.604  0.0040  0.4810  0.8193
 4005SOL    HW112914   5.708   2.532   2.661  1.2491 -1.6153  0.6138
 4005SOL    HW212915   5.763   2.554   2.508 -0.2059  1.7414  0.4795
 4006SOL     OW12916   6.524   4.964   2.788 -0.4121  0.2582 -0.0262
 4006SOL    HW112917   6.619   4.938   2.804 -1.0221 -1.2486  1.4371
 4006SOL    HW212918   6.497   4.936   2.695  0.2317 -0.4061 -0.0181
 4007SOL     OW12919   6.324   3.574   2.220 -0.2457  0.0279  0.1361
 4007SOL    HW112920   6.257   3.642   2.190 -0.7871 -0.8855 -0.7869
 4007SOL    HW212921   6.280   3.510   2.283 -0.9340 -1.8687 -2.1041
 4008SOL     OW12922   5.230   6.195   2.450  0.1363  0.1775  0.3832
 4008SOL    HW112923   5.262   6.224   2.540 -0.5242 -1.5987  1.2457
 4008SOL    HW212924   5.304   6.206   2.383  1.1619  0.0485  1.4615
 4009SOL     OW12925   4.006   2.390   1.439 -0.3445  0.2455  0.7896
 4009SOL    HW112926   4.071   2.345   1.500 -1.6564 -0.0702  2.0135
 4009SOL    HW212927   3.922   2.335   1.433 -1.0893  1.3814  0.4772
 4010SOL     OW12928   2.929   5.724   6.949  0.1028 -0.3716 -0.0886
 4010SOL    HW112929   2.958   5.631   6.927 -0.6724 -0.7868  0.5767
 4010SOL    HW212930   2.936   5.782   6.868 -1.3892 -1.5140 -1.0837
 4011SOL     OW12931   6.380   5.046   6.715  0.4316 -0.4951 -0.1033
 4011SOL    HW112932   6.374   5.108   6.637  0.0248 -0.8458 -0.3570
 4011SOL    HW212933   6.320   4.967   6.699 -2.0348  0.8280  1.8324
 4012SOL     OW12934   0.554   5.480   1.482  0.0232  0.0593  0.2519
 4012SOL    HW112935   0.475   5.506   1.426 -0.4491 -0.7592  0.5206
 4012SOL    HW212936   0.619   5.430   1.425  0.2551  0.5411  0.0839
 4013SOL     OW12937   1.634   3.589   6.949  0.2779  0.3863  0.1792
 4013SOL    HW112938   1.726   3.622   6.927  0.0174  0.6914 -0.4895
 4013SOL    HW212939   1.608   3.516   6.885 -0.7172  1.6893 -0.9873
 4014SOL     OW12940   4.340   6.341   3.326  0.1177  0.2942 -0.2503
 4014SOL    HW112941   4.319   6.439   3.327  0.5081  0.3806  0.6820
 4014SOL    HW212942   4.421   6.323   3.382  0.2066 -0.5298 -0.6255
 4015SOL     OW12943   3.860   6.344   6.349 -0.0844 -0.3032  0.0583
 4015SOL    HW112944   3.870   6.276   6.275  1.6909 -0.0118  0.0072
 4015SOL    HW212945   3.799   6.307   6.419  0.6918 -1.8955 -0.0570
 4016SOL     OW12946   3.990   5.485   3.341 -0.2532  0.3543 -0.0070
 4016SOL    HW112947   4.069   5.446   3.387 -0.4637 -0.2784 -0.1703
 4016SOL    HW212948   3.929   5.526   3.408 -0.0019  0.4532  0.1613
 4017SOL     OW12949   6.965   5.311   0.641  0.2949 -0.3435  0.8889
 4017SOL    HW112950   6.997   5.361   0.561  1.5478 -1.6322  0.5411
 4017SOL    HW212951   6.913   5.372   0.701 -0.4183  0.7110 -0.7491
 4018SOL     OW12952   5.056   5.536   1.381 -0.1818  0.5743  0.1682
 4018SOL    HW112953   5.117   5.612   1.404 -1.1157  1.1913  0.6905
 4018SOL    HW212954   5.110   5.455   1.361  0.8498  1.4069 -0.5696
 4019SOL     OW12955   0.832   0.506   4.025 -0.0031  0.0477 -0.8407
 4019SOL    HW112956   0.825   0.601   4.056  0.5338 -0.4045  0.7236
 4019SOL    HW212957   0.878   0.505   3.935 -1.8679  1.3884 -1.8841
 4020SOL     OW12958   6.158   2.896   0.436  0.0262  0.0491 -0.0587
 4020SOL    HW112959   6.189   2.959   0.507  0.3874  1.9760 -1.8417
 4020SOL    HW212960   6.230   2.887   0.367 -0.9243 -0.5443 -0.9891
 4021SOL     OW12961   4.200   4.443   6.704  0.1817 -0.5267  0.2292
 4021SOL    HW112962   4.230   4.395   6.787  2.7402 -0.0618 -0.3420
 4021SOL    HW212963   4.182   4.377   6.631  0.8431 -0.7826  0.2923
 4022SOL     OW12964   4.028   0.746   1.030  0.1550  0.4120 -0.4940
 4022SOL    HW112965   4.123   0.777   1.024  0.2127  0.2222 -0.5521
 4022SOL    HW212966   4.025   0.646   1.033  0.1882  0.3793  2.7803
 4023SOL     OW12967   1.773   1.176   4.292  0.1546  0.4492  0.2172
 4023SOL    HW112968   1.728   1.237   4.358 -0.1874 -1.0759  1.4500
 4023SOL    HW212969   1.713   1.100   4.270  1.2033 -0.3504  0.0227
 4024SOL     OW12970   1.905   6.040   6.982  0.4655  0.1842 -0.2134
 4024SOL    HW112971   1.887   6.100   6.904 -0.9610  0.3921  0.2348
 4024SOL    HW212972   1.891   6.090   7.067  2.2965  0.0415  0.2136
 4025SOL     OW12973   0.857   6.002   5.747 -0.4153  0.0239  0.0701
 4025SOL    HW112974   0.951   5.983   5.773  0.3503  1.6095 -1.3810
 4025SOL    HW212975   0.844   6.101   5.737 -1.3286 -0.2928 -2.7885
 4026SOL     OW12976   0.607   5.844   4.562 -0.2735  0.4976  0.2017
 4026SOL    HW112977   0.681   5.906   4.538  0.6415 -0.6890 -0.1729
 4026SOL    HW212978   0.644   5.753   4.579 -1.5419  0.0992  0.9952
 4027SOL     OW12979   3.101   4.616   6.248 -0.8286  0.2926  0.0983
 4027SOL    HW112980   3.160   4.551   6.201  0.0828  0.4233  1.0103
 4027SOL    HW212981   3.132   4.710   6.229 -0.7639  0.3647  0.5368
 4028SOL     OW12982   5.500   1.294   5.571  0.2593  0.2648 -0.7718
 4028SOL    HW112983   5.418   1.240   5.592 -0.7386  1.4518 -1.4526
 4028SOL    HW212984   5.542   1.325   5.656  0.1823 -0.6068 -0.4062
 4029SOL     OW12985   0.668   6.440   0.213  0.0187 -0.5844 -0.3100
 4029SOL    HW112986   0.736   6.472   0.147  0.2617  1.2623  0.7786
 4029SOL    HW212987   0.641   6.346   0.190  1.7332 -0.7850 -1.6984
 4030SOL     OW12988   0.826   1.282   2.320 -0.2275 -0.1752  0.4411
 4030SOL    HW112989   0.855   1.374   2.346 -1.2471  0.5719 -0.9175
 4030SOL    HW212990   0.905   1.221   2.321  0.6868  0.9610  0.3208
 4031SOL     OW12991   5.398   5.027   1.147 -0.1835 -0.0851 -0.5024
 4031SOL    HW112992   5.318   4.992   1.195 -0.0409 -0.1352 -0.2987
 4031SOL    HW212993   5.459   5.072   1.212  0.2878 -0.6598 -0.5442
 4032SOL     OW12994   5.821   2.519   3.160  0.1511 -0.1474 -0.3003
 4032SOL    HW112995   5.864   2.467   3.086 -1.6290 -1.3386 -0.5428
 4032SOL    HW212996   5.764   2.458   3.215 -0.5868  1.2205  0.4996
 4033SOL     OW12997   0.599   4.196   3.475  0.2940 -0.3095 -0.3297
 4033SOL    HW112998   0.598   4.223   3.571  0.4397 -0.8919 -0.1582
 4033SOL    HW212999   0.515   4.147   3.454  1.3703 -2.5014  0.2031
 4034SOL     OW13000   3.295   1.265   2.558 -0.3417  0.0273 -0.0309
 4034SOL    HW113001   3.311   1.244   2.655  0.1981 -1.1751 -0.3650
 4034SOL    HW213002   3.199   1.290   2.546  0.0379  2.2675  1.1377
 4035SOL     OW13003   4.026   6.155   2.228 -0.2913  0.0893  0.4186
 4035SOL    HW113004   4.059   6.247   2.246 -0.0293 -0.0701  0.7605
 4035SOL    HW213005   4.000   6.111   2.315 -0.2047 -0.2362  0.2825
 4036SOL     OW13006   4.818   5.889   3.376 -0.7762  0.2627  0.3001
 4036SOL    HW113007   4.886   5.942   3.426 -0.6833 -0.0556  0.5156
 4036SOL    HW213008   4.838   5.792   3.386 -0.3663  0.1998 -0.8837
 4037SOL     OW13009   1.968   0.974   5.549  0.3702  0.2079 -0.0533
 4037SOL    HW113010   1.894   1.028   5.509 -0.2813 -0.8903 -0.3616
 4037SOL    HW213011   2.034   1.035   5.593 -1.1101  1.1657  0.9199
 4038SOL     OW13012   5.606   4.313   6.325  0.1823 -0.2294 -0.4047
 4038SOL    HW113013   5.545   4.376   6.374 -1.5364 -0.3380 -2.2600
 4038SOL    HW213014   5.645   4.359   6.245 -0.6729 -1.3044 -1.4802
 4039SOL     OW13015   6.919   2.909   2.426 -0.5911  0.5145  0.6659
 4039SOL    HW113016   6.863   2.959   2.359  0.3220 -1.5575 -1.8038
 4039SOL    HW213017   6.866   2.832   2.463 -0.5229  0.6574  1.0706
 4040SOL     OW13018   3.275   6.133   4.187 -0.1075 -0.4826 -0.7118
 4040SOL    HW113019   3.253   6.086   4.272 -0.1889  0.4010 -0.2384
 4040SOL    HW213020   3.219   6.215   4.178 -0.2043 -0.6392 -1.6922
 4041SOL     OW13021   1.410   5.738   2.031  0.3760 -0.4764  0.1958
 4041SOL    HW113022   1.496   5.761   1.985 -0.3501  0.2580 -0.8415
 4041SOL    HW213023   1.368   5.821   2.068 -0.4948 -0.6417 -0.3981
 4042SOL     OW13024   1.417   1.521   2.360  0.8313  0.5236  0.2409
 4042SOL    HW113025   1.451   1.458   2.290  0.4335  1.0399 -0.4420
 4042SOL    HW213026   1.461   1.502   2.447 -0.8004 -2.1292  0.6053
 4043SOL     OW13027   3.137   3.702   4.688  0.5170  0.3358  0.1788
 4043SOL    HW113028   3.155   3.657   4.601  0.3870 -1.4704  1.0356
 4043SOL    HW213029   3.038   3.712   4.701  0.4941 -0.2194  0.4870
 4044SOL     OW13030   4.758   4.083   3.900 -0.2613 -0.4757  0.6424
 4044SOL    HW113031   4.783   4.176   3.926 -0.2545  0.0062 -0.9808
 4044SOL    HW213032   4.745   4.028   3.982 -0.7472  1.0734  1.6539
 4045SOL     OW13033   5.130   0.788   4.101 -0.2043  0.6422  0.0782
 4045SOL    HW113034   5.215   0.813   4.054 -0.1652 -0.0463 -0.2275
 4045SOL    HW213035   5.134   0.693   4.129 -0.1544  1.0845  1.6831
 4046SOL     OW13036   4.341   0.639   6.456 -0.0647 -0.2549 -0.0286
 4046SOL    HW113037   4.347   0.736   6.433  1.0333 -0.0248  1.1062
 4046SOL    HW213038   4.430   0.596   6.440 -0.0934 -0.7104  0.9745
 4047SOL     OW13039   1.761   1.865   1.269  0.4135 -0.2201 -0.1189
 4047SOL    HW113040   1.785   1.768   1.267 -0.4191 -0.4284 -0.0666
 4047SOL    HW213041   1.843   1.920   1.250  1.0823 -0.8935  0.7660
 4048SOL     OW13042   6.038   2.013   5.364 -0.6676  0.3187  0.3218
 4048SOL    HW113043   6.030   2.111   5.380 -2.7504  0.4271 -1.0830
 4048SOL    HW213044   6.127   1.993   5.322 -0.0978  1.5409  0.9139
 4049SOL     OW13045   3.129   2.517   1.424  0.1493  0.1931 -0.1435
 4049SOL    HW113046   3.109   2.423   1.452 -1.7270  0.0901 -1.5981
 4049SOL    HW213047   3.116   2.578   1.502  1.0033 -0.6943  0.7186
 4050SOL     OW13048   0.261   4.926   1.837 -0.5724 -0.2040  0.2384
 4050SOL    HW113049   0.216   4.899   1.752  1.5535  0.1810 -1.0854
 4050SOL    HW213050   0.356   4.951   1.818 -0.1789  0.4089  2.6670
 4051SOL     OW13051   5.247   3.300   3.921 -0.0097  0.3453  0.2018
 4051SOL    HW113052   5.260   3.359   3.841 -1.3608  3.0039  1.7826
 4051SOL    HW213053   5.150   3.287   3.938  0.2623 -0.9925  0.8901
 4052SOL     OW13054   3.264   6.779   6.364 -0.3627 -0.0909  0.1425
 4052SOL    HW113055   3.286   6.683   6.380 -0.4113 -0.1201  0.0319
 4052SOL    HW213056   3.341   6.823   6.318 -1.7527 -0.9870 -3.3287
 4053SOL     OW13057   1.284   6.471   3.327  0.6237  0.3651 -0.1416
 4053SOL    HW113058   1.250   6.532   3.256  1.1981  1.9328  0.8892
 4053SOL    HW213059   1.266   6.511   3.417  3.2654  0.2697  0.5075
 4054SOL     OW13060   4.285   4.764   2.173  0.3684 -0.0405  0.3511
 4054SOL    HW113061   4.189   4.778   2.149 -0.1438  0.1204  2.2986
 4054SOL    HW213062   4.324   4.694   2.113 -0.5366  0.8673 -1.3807
 4055SOL     OW13063   5.400   4.504   6.412 -0.6305 -0.2478 -0.6054
 4055SOL    HW113064   5.434   4.596   6.433 -1.2123 -0.0077 -0.7004
 4055SOL    HW213065   5.309   4.492   6.450 -0.3487 -0.9795 -0.1405
 4056SOL     OW13066   4.994   4.774   1.119 -0.7782 -0.5189 -0.4917
 4056SOL    HW113067   5.064   4.823   1.170  0.0181 -1.6534 -0.4597
 4056SOL    HW213068   4.906   4.783   1.165 -0.2792 -0.6603  0.5149
 4057SOL     OW13069   0.686   5.207   5.755  0.1754 -0.4290 -0.3222
 4057SOL    HW113070   0.694   5.300   5.792  0.9049 -0.6496  0.0972
 4057SOL    HW213071   0.727   5.142   5.819 -1.2564 -1.1750 -0.1173
 4058SOL     OW13072   3.272   2.058   3.815 -0.0284  0.7897  0.0264
 4058SOL    HW113073   3.189   2.014   3.781  1.8472 -1.4493 -1.9987
 4058SOL    HW213074   3.287   2.030   3.910 -0.1364 -1.1788 -0.4767
 4059SOL     OW13075   3.976   1.004   2.396  0.5057  0.3150 -0.0484
 4059SOL    HW113076   3.920   0.959   2.466 -2.9236 -0.9971 -3.2873
 4059SOL    HW213077   3.961   1.103   2.401 -2.0875  0.0386 -0.5740
 4060SOL     OW13078   6.654   6.460   1.663  0.5037 -0.5857 -0.0878
 4060SOL    HW113079   6.717   6.385   1.643  1.9614  0.0239  1.9589
 4060SOL    HW213080   6.571   6.423   1.705  1.5865 -1.0486  1.7432
 4061SOL     OW13081   6.687   3.996   0.401 -0.7224 -0.2209 -0.4925
 4061SOL    HW113082   6.705   3.898   0.397 -0.5115 -0.1591 -1.2486
 4061SOL    HW213083   6.589   4.013   0.389 -1.3151 -0.5121  2.8528
 4062SOL     OW13084   2.776   4.775   0.584  0.0935  0.0422 -0.4410
 4062SOL    HW113085   2.873   4.753   0.581  0.3239 -0.1333  3.5352
 4062SOL    HW213086   2.758   4.839   0.658 -3.0357 -1.2995  0.1405
 4063SOL     OW13087   4.002   1.454   0.161  0.3256 -0.1366 -0.0257
 4063SOL    HW113088   3.905   1.448   0.183  0.5662 -1.1409  0.8409
 4063SOL    HW213089   4.041   1.362   0.157  0.8750  0.1301 -2.1641
 4064SOL     OW13090   3.061   0.804   4.476  0.1540  0.4627  0.8101
 4064SOL    HW113091   3.064   0.789   4.575  1.6156  0.0361  0.7274
 4064SOL    HW213092   3.057   0.903   4.457 -1.5149  0.5202  1.2772
 4065SOL     OW13093   1.407   1.392   0.754  0.3616 -0.3258  0.2618
 4065SOL    HW113094   1.337   1.324   0.772  0.2163 -0.5200 -0.9559
 4065SOL    HW213095   1.372   1.483   0.775  0.2236 -0.5409  0.9688
 4066SOL     OW13096   1.446   3.365   4.899  0.4628 -0.2642 -1.1254
 4066SOL    HW113097   1.490   3.301   4.836 -1.7134 -2.1330 -0.8938
 4066SOL    HW213098   1.473   3.344   4.992 -1.3123 -1.9171 -0.9084
 4067SOL     OW13099   4.752   3.905   1.804 -0.4126  0.2194  0.1857
 4067SOL    HW113100   4.771   3.971   1.731 -1.3662  2.2038  1.6561
 4067SOL    HW213101   4.653   3.899   1.817 -0.2623 -0.3942  1.0723
 4068SOL     OW13102   2.087   3.373   4.645 -0.5190 -0.0743 -0.6993
 4068SOL    HW113103   2.106   3.287   4.597 -0.1134 -0.4901  0.1782
 4068SOL    HW213104   2.103   3.450   4.583  0.2913 -0.5858 -1.1430
 4069SOL     OW13105   3.054   0.040   6.134 -0.1299 -0.0478 -0.6357
 4069SOL    HW113106   3.081   0.107   6.204 -0.2929  0.2130 -0.8195
 4069SOL    HW213107   2.962   0.007   6.154 -0.3680  0.3848 -0.9866
 4070SOL     OW13108   1.497   4.141   5.483  0.4486 -0.5951 -0.8976
 4070SOL    HW113109   1.550   4.113   5.563 -0.3223  2.6117  0.9090
 4070SOL    HW213110   1.558   4.152   5.404  1.9761 -0.0174  0.3123
 4071SOL     OW13111   3.232   6.550   4.052  0.1196  0.8500  0.6796
 4071SOL    HW113112   3.219   6.537   4.150 -1.4315 -0.1705  0.3618
 4071SOL    HW213113   3.195   6.472   4.002  1.5779  0.9906 -0.7009
 4072SOL     OW13114   2.439   5.699   4.185  0.0906  0.1200  0.2519
 4072SOL    HW113115   2.387   5.713   4.269  2.3912 -0.1059  1.8241
 4072SOL    HW213116   2.438   5.602   4.161  0.1448  0.0427  0.5522
 4073SOL     OW13117   6.039   3.198   5.326  0.2354  0.1196  0.5325
 4073SOL    HW113118   6.073   3.284   5.362 -0.6571  0.6048  0.2506
 4073SOL    HW213119   5.942   3.207   5.303  0.0863 -1.0043  0.6407
 4074SOL     OW13120   1.501   0.389   0.336  0.2356 -0.2093 -0.4209
 4074SOL    HW113121   1.561   0.379   0.416 -0.5342 -2.4685 -0.0506
 4074SOL    HW213122   1.411   0.351   0.358 -0.9227  1.7568 -1.4594
 4075SOL     OW13123   5.843   0.467   5.943  0.2879  0.0490  0.5556
 4075SOL    HW113124   5.792   0.389   5.980  0.1581 -0.6482 -1.0081
 4075SOL    HW213125   5.835   0.467   5.844  1.5256  1.2171  0.4372
 4076SOL     OW13126   2.339   5.502   3.366 -0.2430  0.1803  0.0737
 4076SOL    HW113127   2.330   5.565   3.443  0.1480 -0.7170  0.8762
 4076SOL    HW213128   2.436   5.484   3.350 -0.3089  0.5908 -0.8320
 4077SOL     OW13129   2.883   6.478   2.491 -0.8278  0.3248 -0.2465
 4077SOL    HW113130   2.951   6.406   2.477 -1.4396 -0.3583  0.2058
 4077SOL    HW213131   2.792   6.442   2.473 -0.9867  1.6871 -2.5776
 4078SOL     OW13132   4.740   4.148   2.399 -0.0044 -0.1848 -0.8220
 4078SOL    HW113133   4.652   4.196   2.392  0.2047  0.5942  1.1252
 4078SOL    HW213134   4.784   4.173   2.486  0.2066 -3.7924  0.2528
 4079SOL     OW13135   6.907   3.994   3.844  0.1204  0.2790  0.5538
 4079SOL    HW113136   6.986   4.050   3.821  0.1104  0.8491  1.8264
 4079SOL    HW213137   6.823   4.046   3.829  0.0344  0.0535  0.2422
 4080SOL     OW13138   6.321   2.391   5.309  0.4880 -0.3133  0.8369
 4080SOL    HW113139   6.253   2.319   5.292  1.0172 -0.7600  0.5787
 4080SOL    HW213140   6.323   2.455   5.233  0.0154 -0.0255  1.0667
 4081SOL     OW13141   5.333   4.537   3.434 -0.0711  0.0359  0.0116
 4081SOL    HW113142   5.389   4.619   3.420  0.7094 -0.2279  1.3616
 4081SOL    HW213143   5.335   4.480   3.353 -0.7286  1.3914 -1.0083
 4082SOL     OW13144   0.698   4.484   1.103 -0.1933  0.2827 -0.1208
 4082SOL    HW113145   0.652   4.416   1.046  1.4677 -0.2314 -0.9032
 4082SOL    HW213146   0.780   4.444   1.143  1.9063  2.2896 -2.1213
 4083SOL     OW13147   5.824   3.410   6.821 -0.5328 -0.0328 -0.4389
 4083SOL    HW113148   5.847   3.314   6.832  2.1694  0.3676 -1.6690
 4083SOL    HW213149   5.796   3.427   6.726  0.7458  0.6320 -0.7269
 4084SOL     OW13150   3.738   0.432   4.119  0.4139 -0.0564 -0.1147
 4084SOL    HW113151   3.755   0.481   4.033  0.3101 -1.4962 -0.9906
 4084SOL    HW213152   3.760   0.491   4.196 -0.2683  1.5623 -1.1130
 4085SOL     OW13153   3.827   4.493   0.613 -0.5212 -0.4516 -0.1123
 4085SOL    HW113154   3.906   4.441   0.648  0.9698  2.3589  1.0906
 4085SOL    HW213155   3.744   4.463   0.659  0.3169 -1.5531  0.7329
 4086SOL     OW13156   0.088   1.631   4.115 -0.0791 -0.3890  0.1690
 4086SOL    HW113157   0.088   1.625   4.015  2.9164  1.6202 -0.0880
 4086SOL    HW213158   0.131   1.549   4.153  2.1606  0.4135 -0.4956
 4087SOL     OW13159   2.712   0.969   0.950  0.1140  0.0967  0.4948
 4087SOL    HW113160   2.775   1.029   0.999 -1.2622  0.4230  1.9318
 4087SOL    HW213161   2.764   0.903   0.895  1.6751  0.6095  1.3105
 4088SOL     OW13162   6.816   2.983   5.082  0.1116 -0.3330  0.0311
 4088SOL    HW113163   6.761   3.018   5.006 -0.5544 -2.0531 -0.3419
 4088SOL    HW213164   6.818   2.883   5.077  0.8276 -0.4317  1.7701
 4089SOL     OW13165   1.320   4.294   4.379  0.5178  0.1183  0.6455
 4089SOL    HW113166   1.234   4.263   4.339 -0.2055  0.2551  2.0352
 4089SOL    HW213167   1.394   4.285   4.312 -0.2856 -1.4412 -0.0656
 4090SOL     OW13168   3.035   6.448   5.755  0.1645  0.0878 -0.0257
 4090SOL    HW113169   3.127   6.475   5.728  0.0250  0.5925 -0.0146
 4090SOL    HW213170   3.011   6.361   5.711 -0.6715  1.6352 -2.8906
 4091SOL     OW13171   4.674   6.671   1.425  0.2431  0.0793  0.7470
 4091SOL    HW113172   4.731   6.589   1.412 -0.3220 -0.4146  1.3629
 4091SOL    HW213173   4.643   6.703   1.335  1.0132  0.0179  0.4469
 4092SOL     OW13174   1.455   0.318   2.401 -0.3263 -0.1432  0.0652
 4092SOL    HW113175   1.380   0.280   2.347  0.7026 -0.9848 -0.8376
 4092SOL    HW213176   1.529   0.251   2.406  0.4446  0.7324  0.7804
 4093SOL     OW13177   5.185   0.389   2.442  0.5666  0.1672 -0.4840
 4093SOL    HW113178   5.119   0.317   2.465  0.2095  0.9914  1.2153
 4093SOL    HW213179   5.191   0.398   2.342 -2.0973  0.2160 -0.7164
 4094SOL     OW13180   3.691   1.765   6.038  0.2309  0.0495  0.4341
 4094SOL    HW113181   3.636   1.841   6.005  0.0394 -0.3110 -0.0751
 4094SOL    HW213182   3.654   1.679   6.004  0.0695 -0.3266  1.5248
 4095SOL     OW13183   1.775   4.417   0.072  0.2436  0.6216  0.0971
 4095SOL    HW113184   1.826   4.443  -0.010  1.6090 -0.0559  0.7135
 4095SOL    HW213185   1.790   4.484   0.144  1.7697 -0.4955  0.8713
 4096SOL     OW13186   4.219   4.562   0.808 -0.3851  0.1355  0.4400
 4096SOL    HW113187   4.129   4.605   0.821 -0.0433  0.9762  0.1175
 4096SOL    HW213188   4.216   4.502   0.728  0.0812  2.3877 -1.3626
 4097SOL     OW13189   3.333   3.353   4.706 -0.1280  0.2413 -0.2284
 4097SOL    HW113190   3.356   3.450   4.696  0.3117  0.2124  0.4357
 4097SOL    HW213191   3.413   3.297   4.683 -0.1120  0.0701  0.2359
 4098SOL     OW13192   1.786   3.384   2.863 -0.7883  0.2273  0.2727
 4098SOL    HW113193   1.852   3.362   2.791  0.4777 -0.7962  1.6742
 4098SOL    HW213194   1.694   3.357   2.834 -0.1613 -1.0971 -0.5901
 4099SOL     OW13195   3.014   0.189   4.458 -0.4744  0.0906  0.0789
 4099SOL    HW113196   3.085   0.250   4.424 -0.4536  0.6737  1.1213
 4099SOL    HW213197   2.941   0.182   4.391  0.6522 -0.7066 -1.1172
 4100SOL     OW13198   3.773   6.367   2.702 -0.0805  0.3608  0.1709
 4100SOL    HW113199   3.856   6.377   2.756 -0.4522  0.0763  0.8047
 4100SOL    HW213200   3.791   6.393   2.607  0.1655  2.4430  0.7594
 4101SOL     OW13201   4.401   1.287   6.953 -0.2351  0.8115 -0.0715
 4101SOL    HW113202   4.420   1.189   6.946 -0.8913  0.8200 -2.7019
 4101SOL    HW213203   4.307   1.306   6.926 -0.5546  2.0700  1.7146
 4102SOL     OW13204   5.203   0.553   0.288 -0.8725  0.1986  0.3888
 4102SOL    HW113205   5.140   0.511   0.353 -0.9046  0.8942  0.8207
 4102SOL    HW213206   5.235   0.484   0.223 -1.3594 -0.3598  0.7323
 4103SOL     OW13207   0.848   1.247   0.664  0.0234 -0.0676  0.3098
 4103SOL    HW113208   0.842   1.233   0.763 -0.4690 -1.7717  0.0660
 4103SOL    HW213209   0.776   1.310   0.635 -0.8259 -0.7925  0.8264
 4104SOL     OW13210   0.424   3.835   0.694 -0.3470  0.2117 -0.0531
 4104SOL    HW113211   0.387   3.763   0.753 -1.2879  0.4696 -0.3184
 4104SOL    HW213212   0.397   3.818   0.600 -0.9216  1.1230 -0.0652
 4105SOL     OW13213   6.870   4.454   2.413  0.4611 -0.1016  0.2057
 4105SOL    HW113214   6.846   4.429   2.507 -0.6177 -1.3992 -0.3873
 4105SOL    HW213215   6.826   4.541   2.391 -0.6071 -0.5755  0.3973
 4106SOL     OW13216   0.688   4.518   3.651 -0.0671  0.2939 -0.1597
 4106SOL    HW113217   0.658   4.565   3.735 -0.3345  2.2601 -1.2932
 4106SOL    HW213218   0.657   4.570   3.572  1.0517 -0.9877 -1.4778
 4107SOL     OW13219   0.529   0.382   0.935 -0.3771  0.3465  0.2790
 4107SOL    HW113220   0.543   0.296   0.984 -0.8079  1.6614  2.8929
 4107SOL    HW213221   0.443   0.424   0.965  0.8687  2.7312  0.8066
 4108SOL     OW13222   0.329   4.090   4.202 -0.2603 -0.1564  0.0096
 4108SOL    HW113223   0.389   4.142   4.263  0.3784 -0.1728 -0.5886
 4108SOL    HW213224   0.263   4.152   4.159  1.6875  0.5645 -2.1404
 4109SOL     OW13225   1.590   4.811   3.478 -0.6309  0.3284  0.2772
 4109SOL    HW113226   1.500   4.809   3.521 -2.0401 -1.2997 -2.4529
 4109SOL    HW213227   1.584   4.861   3.391  1.3365  0.9300  0.4350
 4110SOL     OW13228   2.618   3.660   5.951 -0.2180  0.5288 -0.2683
 4110SOL    HW113229   2.541   3.601   5.924 -0.4567  0.2205  1.0086
 4110SOL    HW213230   2.586   3.754   5.963 -0.6078  0.2490  1.0694
 4111SOL     OW13231   3.876   4.201   5.877 -0.0505  0.1646  0.2461
 4111SOL    HW113232   3.904   4.126   5.936 -2.3883  0.1679  1.4782
 4111SOL    HW213233   3.946   4.273   5.879  0.4246 -0.3039  2.1724
 4112SOL     OW13234   4.916   6.941   6.162  0.6324 -0.5578 -0.4084
 4112SOL    HW113235   4.905   6.929   6.260 -2.4958  0.3663 -0.5232
 4112SOL    HW213236   4.901   7.037   6.138 -1.9528 -1.2467 -2.0171
 4113SOL     OW13237   2.203   5.205   4.006  0.0994  0.4506 -0.1360
 4113SOL    HW113238   2.170   5.118   3.970  0.1480  0.8027 -1.0664
 4113SOL    HW213239   2.242   5.191   4.097 -1.8134 -0.1187  0.6338
 4114SOL     OW13240   3.911   5.511   4.004 -0.5052 -0.0908  0.6474
 4114SOL    HW113241   3.917   5.487   3.907 -1.1990 -0.7124  0.7536
 4114SOL    HW213242   3.884   5.606   4.013 -0.1314  0.0596  0.2299
 4115SOL     OW13243   5.396   4.898   4.690 -0.1388  0.3533  0.1256
 4115SOL    HW113244   5.380   4.805   4.656 -1.6748  0.7684 -0.3920
 4115SOL    HW213245   5.320   4.925   4.749 -0.4910  1.7872 -0.9128
 4116SOL     OW13246   0.415   1.582   0.338  0.2490 -0.0802 -0.3390
 4116SOL    HW113247   0.496   1.582   0.279  0.9977 -2.1011  0.6104
 4116SOL    HW213248   0.349   1.516   0.303  0.1852 -0.4109  0.3905
 4117SOL     OW13249   1.673   5.824   1.977 -0.5097  0.1641  0.2340
 4117SOL    HW113250   1.718   5.838   1.888 -1.6348  0.7685 -0.2571
 4117SOL    HW213251   1.695   5.900   2.038  0.4537 -0.3671  0.5731
 4118SOL     OW13252   1.007   1.179   5.998  0.5070 -0.1978  0.0250
 4118SOL    HW113253   1.038   1.219   6.084  1.3180 -0.2183 -0.2498
 4118SOL    HW213254   1.020   1.245   5.924 -0.8706  0.0946  0.0203
 4119SOL     OW13255   6.792   0.953   3.408 -0.3623  0.2328 -0.1083
 4119SOL    HW113256   6.713   0.915   3.361 -1.4413  0.8658  1.1250
 4119SOL    HW213257   6.863   0.882   3.417 -1.4072 -0.8147  0.1278
 4120SOL     OW13258   5.627   0.213   0.558  0.0675 -0.0201 -0.0948
 4120SOL    HW113259   5.714   0.164   0.552  0.3023  0.2223  1.1638
 4120SOL    HW213260   5.599   0.241   0.466  1.8867  0.8895 -0.4251
 4121SOL     OW13261   5.173   1.113   4.844 -0.3672  0.3151 -0.0124
 4121SOL    HW113262   5.132   1.175   4.910 -0.8145  0.2573 -0.2357
 4121SOL    HW213263   5.174   1.155   4.754  0.1759  0.3647  0.0115
 4122SOL     OW13264   2.765   6.911   2.032  0.1508 -0.0169 -0.8484
 4122SOL    HW113265   2.782   6.890   1.936 -0.7277 -2.1316 -0.5980
 4122SOL    HW213266   2.806   6.841   2.090 -1.0023  0.1323  0.2017
 4123SOL     OW13267   3.635   4.252   5.359 -0.1639  0.3191  0.4310
 4123SOL    HW113268   3.710   4.240   5.294 -0.5402 -0.8797  0.1874
 4123SOL    HW213269   3.633   4.347   5.391  1.2083  0.4563  0.1614
 4124SOL     OW13270   4.226   6.310   2.523 -0.2026 -0.5565  0.2736
 4124SOL    HW113271   4.252   6.352   2.609  1.1836  0.4455 -0.6000
 4124SOL    HW213272   4.139   6.261   2.535 -0.7752  0.7563  1.8587
 4125SOL     OW13273   4.057   1.142   0.381 -0.3206 -0.3278  0.2870
 4125SOL    HW113274   4.109   1.077   0.436 -1.4008 -1.4378  0.0423
 4125SOL    HW213275   3.964   1.149   0.417 -0.1707  1.2637  0.4307
 4126SOL     OW13276   0.893   4.093   4.566 -1.0910 -0.4789  0.7392
 4126SOL    HW113277   0.901   4.031   4.488  1.2546  1.5923 -0.8023
 4126SOL    HW213278   0.915   4.044   4.650 -2.2230 -2.4038 -0.0148
 4127SOL     OW13279   5.743   3.667   3.806  0.3107 -0.2906 -0.5233
 4127SOL    HW113280   5.672   3.603   3.835  0.1773  0.0859 -0.0111
 4127SOL    HW213281   5.822   3.616   3.773 -0.0740 -0.7148 -0.7981
 4128SOL     OW13282   5.935   2.273   1.789  0.3709 -0.1535 -0.6851
 4128SOL    HW113283   5.953   2.176   1.807 -1.0084 -0.4179 -0.6118
 4128SOL    HW213284   5.941   2.324   1.875  0.7260 -0.2329 -0.6603
 4129SOL     OW13285   0.123   3.336   0.523 -0.3114 -0.1490  0.0032
 4129SOL    HW113286   0.126   3.305   0.618  1.3858 -0.3962 -0.0940
 4129SOL    HW213287   0.136   3.435   0.520  2.7595 -0.4715 -0.0616
 4130SOL     OW13288   5.863   4.393   2.658  0.1061  0.2144 -0.2210
 4130SOL    HW113289   5.921   4.359   2.732  1.9304  1.1467 -1.1526
 4130SOL    HW213290   5.915   4.395   2.573 -1.7531 -0.2302 -1.4367
 4131SOL     OW13291   0.591   4.632   4.773  0.1920  0.0366  1.2284
 4131SOL    HW113292   0.672   4.675   4.813  1.7897  0.1850 -1.8931
 4131SOL    HW213293   0.616   4.543   4.735 -0.4210  1.0232 -1.7959
 4132SOL     OW13294   5.541   0.725   3.515 -0.2427  0.8049  0.4603
 4132SOL    HW113295   5.495   0.662   3.453  1.1006  0.9243 -0.7183
 4132SOL    HW213296   5.519   0.819   3.489  0.1937  0.8529  0.2559
 4133SOL     OW13297   2.188   2.363   6.971  0.9987 -0.1566  0.2747
 4133SOL    HW113298   2.241   2.292   6.926  1.1877 -1.1769  2.0200
 4133SOL    HW213299   2.091   2.341   6.967  0.9794 -0.0128 -0.0303
 4134SOL     OW13300   1.637   1.153   0.033  0.8677 -0.4921  0.5381
 4134SOL    HW113301   1.596   1.211  -0.037  0.8310 -1.5382 -0.3261
 4134SOL    HW213302   1.719   1.196   0.069 -0.4092  1.1939  1.6102
 4135SOL     OW13303   0.459   0.945   6.370  0.1840  0.2003 -0.9780
 4135SOL    HW113304   0.447   0.849   6.392 -0.8148  0.4771 -0.2134
 4135SOL    HW213305   0.556   0.964   6.352  0.5193 -0.7643 -0.2529
 4136SOL     OW13306   1.611   2.238   3.400  0.5410 -0.2791 -0.0281
 4136SOL    HW113307   1.607   2.245   3.300  2.9446 -1.8888 -0.3416
 4136SOL    HW213308   1.519   2.231   3.437 -0.4750  1.7098 -1.9779
 4137SOL     OW13309   3.512   2.873   4.111  0.8488 -0.1254  0.1735
 4137SOL    HW113310   3.500   2.778   4.083 -1.3726  0.1196  0.1515
 4137SOL    HW213311   3.496   2.881   4.210  1.1211  0.2166  0.1926
 4138SOL     OW13312   5.333   5.557   2.406  0.0038  0.1617 -0.6369
 4138SOL    HW113313   5.360   5.513   2.491 -1.2114  2.1304  0.8610
 4138SOL    HW213314   5.242   5.525   2.379  0.5112 -0.6908 -1.4234
 4139SOL     OW13315   3.366   1.755   0.855 -0.2329  0.4807  0.0055
 4139SOL    HW113316   3.278   1.714   0.831 -0.1337 -0.4624  1.1576
 4139SOL    HW213317   3.360   1.854   0.849 -0.4255  0.3677 -3.0744
 4140SOL     OW13318   3.536   2.043   3.754  0.4348 -0.4807  0.5528
 4140SOL    HW113319   3.441   2.051   3.785 -0.3453 -0.8882 -1.5646
 4140SOL    HW213320   3.570   1.951   3.777 -0.6170 -1.2930 -0.9684
 4141SOL     OW13321   6.315   4.434   0.782  0.5298  0.4554  0.0565
 4141SOL    HW113322   6.249   4.386   0.840  2.4747 -2.6498 -0.0746
 4141SOL    HW213323   6.402   4.441   0.829  1.0014  1.6312 -0.9455
 4142SOL     OW13324   6.404   2.193   1.565  0.2101 -0.2817 -0.3157
 4142SOL    HW113325   6.375   2.244   1.485 -0.7868  0.5087  0.5177
 4142SOL    HW213326   6.349   2.220   1.644  1.6278 -0.5151  0.8030
 4143SOL     OW13327   1.098   1.737   1.222  0.1172 -0.2414 -0.5287
 4143SOL    HW113328   1.013   1.693   1.193 -0.4610 -0.3192  1.1751
 4143SOL    HW213329   1.092   1.835   1.205 -2.4772  0.6656  3.9566
 4144SOL     OW13330   3.365   5.907   1.289  0.2847  0.0406 -0.8567
 4144SOL    HW113331   3.437   5.840   1.305 -0.3259 -0.2334  0.8995
 4144SOL    HW213332   3.293   5.897   1.358  0.1050  2.3945 -0.6197
 4145SOL     OW13333   6.334   0.497   1.741 -0.2470 -0.3949  0.1964
 4145SOL    HW113334   6.320   0.541   1.829 -0.2124 -0.1811  0.0970
 4145SOL    HW213335   6.389   0.414   1.753 -1.2569 -1.0299  0.5369
 4146SOL     OW13336   5.116   4.437   6.501 -0.1936  0.3716  0.4378
 4146SOL    HW113337   5.044   4.487   6.451 -0.6993 -0.4627  0.3102
 4146SOL    HW213338   5.113   4.462   6.597  1.0023  2.2540  0.0389
 4147SOL     OW13339   2.886   0.666   6.012 -0.3327 -0.1172  0.3146
 4147SOL    HW113340   2.947   0.644   6.088  1.5549 -0.3382 -1.1927
 4147SOL    HW213341   2.937   0.661   5.926 -2.1414  1.1298 -0.8963
 4148SOL     OW13342   1.531   6.835   2.970 -0.4141 -0.2797 -0.0698
 4148SOL    HW113343   1.531   6.869   2.876  0.7551 -1.8654 -0.6777
 4148SOL    HW213344   1.572   6.903   3.031 -1.2311  0.7786 -0.6602
 4149SOL     OW13345   3.749   4.907   2.450  0.2741  0.1801  0.0920
 4149SOL    HW113346   3.805   4.990   2.458 -0.5871  0.8700 -0.8351
 4149SOL    HW213347   3.711   4.901   2.358 -1.6494  0.0310  0.8574
 4150SOL     OW13348   3.033   0.598   5.657 -0.3669 -0.0915 -0.4708
 4150SOL    HW113349   3.105   0.623   5.591 -0.3034  0.0208 -0.3583
 4150SOL    HW213350   3.036   0.499   5.672 -0.9290 -0.2428 -1.2810
 4151SOL     OW13351   1.563   7.000   0.380 -0.1498  0.2122 -0.1578
 4151SOL    HW113352   1.494   7.016   0.310  1.6695 -0.7817 -2.3156
 4151SOL    HW213353   1.650   6.976   0.336  1.1376 -0.2920  2.4641
 4152SOL     OW13354   3.206   4.060   1.800  0.0481  0.2168 -0.1290
 4152SOL    HW113355   3.173   4.153   1.783  2.0169  1.4066  2.0831
 4152SOL    HW213356   3.143   4.013   1.862 -0.8555  0.0934 -1.1076
 4153SOL     OW13357   6.864   5.345   6.368  0.2423  0.1897 -0.0201
 4153SOL    HW113358   6.941   5.393   6.326  1.4220  1.1105  2.9762
 4153SOL    HW213359   6.785   5.406   6.371  0.6321  0.6669  0.5299
 4154SOL     OW13360   4.471   1.986   3.058  0.1015 -0.1390  0.0638
 4154SOL    HW113361   4.529   1.922   3.007  1.8981  0.0032  1.8084
 4154SOL    HW213362   4.523   2.068   3.079 -0.8198  0.1017  1.4969
 4155SOL     OW13363   1.763   3.205   0.879  0.1710 -0.6787 -1.0708
 4155SOL    HW113364   1.820   3.176   0.802  2.0318  0.0156 -0.0201
 4155SOL    HW213365   1.773   3.138   0.953 -1.1535 -1.0410 -1.2029
 4156SOL     OW13366   4.762   1.303   4.864 -0.1403 -0.5766 -0.2197
 4156SOL    HW113367   4.662   1.300   4.867 -0.1093 -2.8389  0.1891
 4156SOL    HW213368   4.798   1.210   4.853  1.9816 -0.2385  2.6962
 4157SOL     OW13369   3.353   2.071   4.752  0.2695 -0.8155  0.0380
 4157SOL    HW113370   3.303   2.067   4.839  0.2889 -1.8881  0.0152
 4157SOL    HW213371   3.317   2.002   4.690  1.5485 -1.3897 -0.1013
 4158SOL     OW13372   2.051   5.395   3.887 -0.3263 -0.4892 -0.6963
 4158SOL    HW113373   2.054   5.358   3.794  1.9213  0.2624 -0.9761
 4158SOL    HW213374   2.115   5.344   3.944  0.0078  0.5392 -0.1448
 4159SOL     OW13375   0.103   5.949   6.438 -0.0367  0.0011 -0.3153
 4159SOL    HW113376   0.201   5.942   6.423 -0.3406 -1.0347 -2.0314
 4159SOL    HW213377   0.079   5.902   6.523  0.8844 -0.1527 -0.1320
 4160SOL     OW13378   5.888   1.419   2.358 -0.3055  0.3775  0.5047
 4160SOL    HW113379   5.902   1.505   2.407 -0.0317  0.1226  0.8768
 4160SOL    HW213380   5.916   1.430   2.263 -0.8019  0.8634  0.4076
 4161SOL     OW13381   3.986   2.172   1.183 -0.3031  0.6375  0.2213
 4161SOL    HW113382   4.010   2.135   1.093 -1.0258  1.1175 -0.1798
 4161SOL    HW213383   4.069   2.189   1.235  0.1102  0.0384 -0.2242
 4162SOL     OW13384   0.763   1.303   6.416  0.0343  0.0463  0.7308
 4162SOL    HW113385   0.686   1.364   6.400  0.5316  0.8007  1.1102
 4162SOL    HW213386   0.795   1.264   6.330 -0.4310  0.1464  0.5137
 4163SOL     OW13387   0.672   3.329   3.807  0.4872  0.7099  0.0149
 4163SOL    HW113388   0.760   3.282   3.799  0.4315  0.1847  2.0467
 4163SOL    HW213389   0.620   3.291   3.883 -1.2735  1.4166 -0.7730
 4164SOL     OW13390   3.318   5.379   5.220 -0.2175 -0.2549  0.6676
 4164SOL    HW113391   3.320   5.344   5.126 -0.0831 -1.2456  1.0204
 4164SOL    HW213392   3.301   5.477   5.219  0.3912 -0.1484 -0.4168
 4165SOL     OW13393   1.433   0.557   1.502 -0.0374  0.8585 -0.0141
 4165SOL    HW113394   1.418   0.513   1.590  0.3080  1.0774  0.1566
 4165SOL    HW213395   1.351   0.606   1.474 -0.3355  0.3166 -0.0824
 4166SOL     OW13396   6.298   0.102   1.927  1.2356  0.1640  0.6871
 4166SOL    HW113397   6.289   0.004   1.912 -0.6735 -0.1780  3.3870
 4166SOL    HW213398   6.289   0.122   2.025  0.9250  3.0890  0.1596
 4167SOL     OW13399   1.329   1.966   6.909  0.5708  0.5698  0.3718
 4167SOL    HW113400   1.267   1.951   6.831  0.8077 -0.0250  0.2950
 4167SOL    HW213401   1.360   2.061   6.908  0.2781  0.6670 -0.0463
 4168SOL     OW13402   1.704   4.442   1.319  0.3952  0.1930 -0.0992
 4168SOL    HW113403   1.687   4.455   1.221 -0.1446  2.2889  0.2278
 4168SOL    HW213404   1.712   4.344   1.338 -1.7313 -0.4182 -1.8816
 4169SOL     OW13405   6.451   3.344   1.041 -0.3773 -0.3896 -0.3915
 4169SOL    HW113406   6.372   3.332   0.981 -0.8082  0.1561  0.0547
 4169SOL    HW213407   6.434   3.297   1.128 -0.6171  0.5117  0.0581
 4170SOL     OW13408   3.925   6.233   4.471 -0.0363  0.4657  0.1820
 4170SOL    HW113409   3.851   6.195   4.414  1.2985 -0.8122 -0.7859
 4170SOL    HW213410   4.001   6.260   4.412  0.5338  1.1636  1.2173
 4171SOL     OW13411   6.748   1.158   0.435  0.2130  0.3301 -0.2752
 4171SOL    HW113412   6.740   1.059   0.446  2.4881  0.0815 -0.2637
 4171SOL    HW213413   6.795   1.196   0.515 -0.2118  1.3491 -0.5006
 4172SOL     OW13414   3.229   0.757   1.372 -0.0961 -0.0207 -0.3226
 4172SOL    HW113415   3.223   0.667   1.416  0.1436 -0.0820 -0.4137
 4172SOL    HW213416   3.179   0.824   1.427 -3.2382 -0.8367 -1.9493
 4173SOL     OW13417   3.322   3.348   4.110  0.7359 -0.2885  0.4633
 4173SOL    HW113418   3.408   3.336   4.061  1.0874 -1.4930  1.3426
 4173SOL    HW213419   3.246   3.347   4.044  1.3158 -0.0506 -0.2287
 4174SOL     OW13420   3.189   6.632   3.326  0.2429  0.7272  0.6974
 4174SOL    HW113421   3.270   6.575   3.315  1.4963  2.6319 -0.8263
 4174SOL    HW213422   3.124   6.612   3.253 -0.8867 -1.0543  2.1278
 4175SOL     OW13423   2.644   0.820   2.569  0.6102 -0.3097  0.2985
 4175SOL    HW113424   2.597   0.734   2.587 -1.1626  0.6193  0.3857
 4175SOL    HW213425   2.599   0.868   2.493  1.0810  0.8511  0.7250
 4176SOL     OW13426   3.536   5.948   4.434 -0.7067  0.6511  0.0005
 4176SOL    HW113427   3.446   5.988   4.416  0.2976  3.2762  0.2963
 4176SOL    HW213428   3.578   5.995   4.512  1.3477  0.2529 -0.8017
 4177SOL     OW13429   0.721   0.830   2.445  0.0582 -0.2758 -0.6788
 4177SOL    HW113430   0.653   0.802   2.377 -1.5563 -0.0382  0.7855
 4177SOL    HW213431   0.773   0.749   2.475  0.0482 -0.5544 -1.3755
 4178SOL     OW13432   2.963   3.363   5.326  0.6409 -0.3323 -0.3814
 4178SOL    HW113433   2.979   3.327   5.234  0.9168 -3.1603  0.6846
 4178SOL    HW213434   2.864   3.368   5.343  0.5890  0.2118 -0.8145
 4179SOL     OW13435   1.002   0.580   6.382 -0.5421  0.1043  0.6397
 4179SOL    HW113436   0.966   0.622   6.465 -0.5753  0.2434  0.5562
 4179SOL    HW213437   0.937   0.514   6.346 -0.7738  0.4509  0.4158
 4180SOL     OW13438   4.916   4.290   1.880 -0.2576 -0.4710  0.2210
 4180SOL    HW113439   4.935   4.221   1.811 -0.4651 -1.7193  1.3765
 4180SOL    HW213440   4.907   4.247   1.970  0.2857  1.1339  1.0992
 4181SOL     OW13441   5.872   0.776   0.298 -0.2352 -0.0388  0.4735
 4181SOL    HW113442   5.779   0.809   0.280 -0.5422 -1.2970 -0.4523
 4181SOL    HW213443   5.873   0.676   0.288  0.9864 -0.1585  1.5623
 4182SOL     OW13444   6.940   1.610   2.174  0.2316  0.7013  0.4778
 4182SOL    HW113445   7.032   1.572   2.180 -0.6369 -1.7673 -0.4490
 4182SOL    HW213446   6.931   1.664   2.091  0.4538 -0.3888 -0.2845
 4183SOL     OW13447   0.630   0.167   6.625 -0.2987 -0.6376  1.2349
 4183SOL    HW113448   0.536   0.201   6.632  0.8639  2.5041  4.5091
 4183SOL    HW213449   0.675   0.209   6.547 -1.6147 -2.5458 -0.6639
 4184SOL     OW13450   5.942   2.916   0.813  0.1176 -0.1614  0.5914
 4184SOL    HW113451   6.033   2.958   0.822  0.8737 -1.3732 -1.0102
 4184SOL    HW213452   5.928   2.850   0.887  1.6300 -1.8571 -0.5769
 4185SOL     OW13453   5.779   1.842   4.182  0.1994 -0.1983 -0.2521
 4185SOL    HW113454   5.732   1.800   4.104 -2.3584 -0.3177  1.2446
 4185SOL    HW213455   5.793   1.940   4.163  0.4614 -0.4061 -1.2136
 4186SOL     OW13456   4.682   3.135   0.937 -0.4685  0.1133 -0.1503
 4186SOL    HW113457   4.655   3.095   0.850 -2.5250  0.8454  0.0846
 4186SOL    HW213458   4.607   3.126   1.003  0.4376  0.9666  1.0577
 4187SOL     OW13459   4.575   4.201   6.410  0.0839  0.2160 -0.3543
 4187SOL    HW113460   4.493   4.146   6.400  0.5578 -0.6319  0.3435
 4187SOL    HW213461   4.550   4.298   6.416 -0.7477  0.1179 -1.6943
 4188SOL     OW13462   5.515   0.338   3.793  0.0469  0.0346 -0.4301
 4188SOL    HW113463   5.576   0.395   3.847 -0.8976  0.2977  0.4013
 4188SOL    HW213464   5.521   0.364   3.696 -1.1571  2.3509  0.0465
 4189SOL     OW13465   2.803   2.320   2.735 -0.4218  0.5662 -0.7101
 4189SOL    HW113466   2.734   2.386   2.763 -1.2071 -0.5715  0.1534
 4189SOL    HW213467   2.822   2.330   2.638  1.2131  3.5790 -0.1967
 4190SOL     OW13468   2.812   5.787   1.595  0.4420  0.0421  0.2352
 4190SOL    HW113469   2.769   5.876   1.580 -0.0465 -0.3853 -1.0076
 4190SOL    HW213470   2.748   5.728   1.644  0.3487  0.0279  0.0971
 4191SOL     OW13471   6.725   4.561   3.489 -0.4445  0.3957  0.0758
 4191SOL    HW113472   6.696   4.607   3.404  0.1159  0.4020 -0.1171
 4191SOL    HW213473   6.821   4.581   3.506 -0.9781  1.9066  1.6862
 4192SOL     OW13474   6.805   5.617   5.336 -0.1315  0.1101 -0.3071
 4192SOL    HW113475   6.713   5.579   5.334  0.0981 -0.6118  1.4884
 4192SOL    HW213476   6.805   5.707   5.292 -1.5396 -0.1642 -0.9152
 4193SOL     OW13477   4.048   6.379   0.882 -0.2966  0.3909  0.3819
 4193SOL    HW113478   3.984   6.303   0.877 -0.0165  0.0028  2.0086
 4193SOL    HW213479   4.125   6.362   0.820 -0.0453 -0.8600  1.0038
 4194SOL     OW13480   4.869   0.326   1.911 -0.0249 -0.5059 -0.1332
 4194SOL    HW113481   4.920   0.314   1.826 -1.5216 -0.7103 -1.0507
 4194SOL    HW213482   4.771   0.321   1.891 -0.4029 -1.9092  1.8029
 4195SOL     OW13483   6.056   0.061   3.528 -0.0200  0.3926 -0.3809
 4195SOL    HW113484   5.992   0.138   3.519 -2.0662 -1.1520  0.1457
 4195SOL    HW213485   6.007  -0.025   3.511  2.1450 -0.8351 -0.7526
 4196SOL     OW13486   5.416   2.680   3.417  0.0895  0.1890  0.0927
 4196SOL    HW113487   5.513   2.665   3.431 -0.0066 -0.7057 -0.1573
 4196SOL    HW213488   5.364   2.602   3.452 -0.6238  1.0967  1.1600
 4197SOL     OW13489   5.313   4.679   4.944  0.8342 -0.4349  0.3155
 4197SOL    HW113490   5.354   4.647   4.858 -1.2167 -1.2266 -0.4376
 4197SOL    HW213491   5.260   4.762   4.927 -0.1136 -0.9508  0.6380
 4198SOL     OW13492   5.104   3.491   6.646 -0.5497 -0.2234 -0.5275
 4198SOL    HW113493   5.053   3.557   6.592 -1.5915  0.1746  0.8813
 4198SOL    HW213494   5.179   3.538   6.693 -1.7180  0.1652  1.0378
 4199SOL     OW13495   2.704   3.260   6.593  0.2157  0.4955 -0.2537
 4199SOL    HW113496   2.738   3.352   6.573  1.7203 -0.0447 -0.3089
 4199SOL    HW213497   2.646   3.229   6.518  1.8439  0.3945 -1.5235
 4200SOL     OW13498   3.020   1.604   4.649 -0.0977  0.1234 -0.3933
 4200SOL    HW113499   3.047   1.644   4.562  0.6631  1.0209  0.2381
 4200SOL    HW213500   3.005   1.505   4.638  2.3698 -0.2238 -1.0281
 4201SOL     OW13501   1.747   6.556   5.852 -0.1569  0.2426 -0.2743
 4201SOL    HW113502   1.770   6.653   5.858 -2.1024  0.8623 -1.6708
 4201SOL    HW213503   1.649   6.544   5.871  0.1747 -1.5303  0.4580
 4202SOL     OW13504   4.930   3.493   4.132 -0.5798  0.4524  0.5656
 4202SOL    HW113505   4.955   3.418   4.070 -0.2875  0.7862  0.2701
 4202SOL    HW213506   4.945   3.465   4.226 -0.1714  0.2455  0.4413
 4203SOL     OW13507   3.134   6.087   3.909 -0.2509 -0.4726 -0.8916
 4203SOL    HW113508   3.071   6.011   3.895 -0.8676 -0.4474  1.4651
 4203SOL    HW213509   3.176   6.081   3.999 -0.4980  2.1002 -0.5195
 4204SOL     OW13510   0.673   3.868   5.510 -0.1388  0.1706  0.0409
 4204SOL    HW113511   0.632   3.943   5.458 -1.6734  0.0239  0.9942
 4204SOL    HW213512   0.672   3.785   5.454 -2.5076 -0.1839  0.4785
 4205SOL     OW13513   2.478   5.703   2.778 -0.6301 -0.0035  0.5087
 4205SOL    HW113514   2.384   5.726   2.753 -0.9740 -0.5462  1.2675
 4205SOL    HW213515   2.482   5.609   2.813 -0.0600  0.4455  1.7311
 4206SOL     OW13516   3.660   5.184   3.303  0.1501 -0.2815 -0.0507
 4206SOL    HW113517   3.581   5.190   3.363  0.7148 -0.7983  0.7730
 4206SOL    HW213518   3.634   5.139   3.217 -0.7288  0.7102 -0.3239
 4207SOL     OW13519   2.639   0.140   0.287 -0.4838  0.1630 -0.2217
 4207SOL    HW113520   2.696   0.058   0.284 -0.5060  0.1536 -0.4178
 4207SOL    HW213521   2.551   0.119   0.330  0.1792  0.4960  1.3666
 4208SOL     OW13522   2.476   0.579   2.581  0.4245 -0.3648  0.5003
 4208SOL    HW113523   2.482   0.482   2.558  0.4321 -0.2644  0.0717
 4208SOL    HW213524   2.425   0.590   2.666 -1.3636 -0.6223 -0.4903
 4209SOL     OW13525   1.966   0.561   5.961 -0.2607 -0.6188  0.2533
 4209SOL    HW113526   1.939   0.480   5.909 -0.7357 -0.3907  0.1377
 4209SOL    HW213527   1.995   0.534   6.053  4.7841 -1.5952 -1.3038
 4210SOL     OW13528   3.032   2.912   1.550  0.7054 -0.8845 -0.3212
 4210SOL    HW113529   3.004   2.827   1.595 -0.2661 -0.8676 -0.8611
 4210SOL    HW213530   3.125   2.902   1.515  0.6213 -1.7122 -0.3363
 4211SOL     OW13531   5.751   3.232   5.298  0.3478  0.0285 -0.3596
 4211SOL    HW113532   5.735   3.288   5.380  1.1457 -2.7877  1.8898
 4211SOL    HW213533   5.736   3.287   5.216  0.0383  3.1637  1.6521
 4212SOL     OW13534   5.268   5.950   3.067  0.1328 -0.6865  0.2303
 4212SOL    HW113535   5.336   5.968   3.137 -0.2571 -1.7069  0.8934
 4212SOL    HW213536   5.247   6.035   3.018 -0.8846  0.4783  2.5144
 4213SOL     OW13537   1.865   0.575   1.263  0.0243 -0.1310  0.4050
 4213SOL    HW113538   1.781   0.521   1.268 -0.6004  0.7828  0.0255
 4213SOL    HW213539   1.917   0.549   1.181  0.8395 -1.6802  1.3490
 4214SOL     OW13540   3.265   5.011   2.295  0.6128  0.5108 -0.1108
 4214SOL    HW113541   3.214   5.092   2.323  1.0665  0.9781 -0.6006
 4214SOL    HW213542   3.351   5.039   2.253  0.5433 -0.2006 -0.7581
 4215SOL     OW13543   1.564   5.458   5.982  0.3155  0.0944 -0.0224
 4215SOL    HW113544   1.572   5.359   5.983  0.4849  0.0947 -0.8451
 4215SOL    HW213545   1.600   5.496   6.068  0.5023 -0.5322  0.1775
 4216SOL     OW13546   1.533   3.431   4.298  0.0253  0.0315 -0.1636
 4216SOL    HW113547   1.618   3.461   4.256 -0.8485  2.5072 -0.3269
 4216SOL    HW213548   1.477   3.383   4.230  0.1942  0.7246 -0.8052
 4217SOL     OW13549   5.346   6.377   2.967 -0.4964 -0.0306 -0.1040
 4217SOL    HW113550   5.411   6.421   3.028 -0.7060  0.2288 -0.0638
 4217SOL    HW213551   5.394   6.314   2.906 -0.5130 -2.0011  1.7918
 4218SOL     OW13552   3.166   6.306   3.007 -0.1786 -0.1219  0.3787
 4218SOL    HW113553   3.148   6.395   2.965 -1.6832  0.4079  2.0253
 4218SOL    HW213554   3.257   6.274   2.980 -0.1716  1.2398 -1.3548
 4219SOL     OW13555   3.402   6.338   2.296 -0.2375  0.3360  0.1518
 4219SOL    HW113556   3.373   6.247   2.265 -1.2801  0.7340 -0.1010
 4219SOL    HW213557   3.499   6.350   2.278  0.1484 -1.1130  1.1326
 4220SOL     OW13558   6.378   6.492   3.564  0.0736  0.1924  0.5136
 4220SOL    HW113559   6.464   6.517   3.609  0.8943 -1.3207 -0.1521
 4220SOL    HW213560   6.384   6.398   3.531 -1.0832  0.7366 -1.3626
 4221SOL     OW13561   5.468   0.277   5.173  0.4617  0.0629  0.4770
 4221SOL    HW113562   5.489   0.369   5.140 -2.6597  1.0172  0.7950
 4221SOL    HW213563   5.411   0.283   5.254  0.2116 -2.1751  0.5343
 4222SOL     OW13564   1.336   3.995   1.696  0.1011  0.2627 -0.1633
 4222SOL    HW113565   1.297   3.951   1.614 -0.8949 -0.1128  0.4946
 4222SOL    HW213566   1.311   4.092   1.697  1.3011  0.5986 -1.0098
 4223SOL     OW13567   3.996   3.249   4.131  0.7231  0.4172 -0.1423
 4223SOL    HW113568   4.027   3.343   4.144  1.4822  0.1453  0.0681
 4223SOL    HW213569   3.999   3.226   4.034  0.2986  0.6877 -0.2209
 4224SOL     OW13570   2.855   2.509   5.613 -0.1756  0.2774 -0.3883
 4224SOL    HW113571   2.794   2.449   5.665  1.5559  0.0811  1.5404
 4224SOL    HW213572   2.890   2.459   5.534  0.5119 -1.0039  0.6766
 4225SOL     OW13573   3.497   5.119   5.505  0.0790 -0.2515 -0.2752
 4225SOL    HW113574   3.407   5.115   5.462 -0.0063  0.0168 -0.1257
 4225SOL    HW213575   3.490   5.170   5.591  0.1752 -1.0731  0.2323
 4226SOL     OW13576   3.073   6.970   1.776 -0.3455 -0.2933 -0.1780
 4226SOL    HW113577   3.159   6.923   1.797 -0.8343 -0.5777  1.3768
 4226SOL    HW213578   3.092   7.061   1.740  0.6044 -0.5910 -0.4590
 4227SOL     OW13579   5.818   3.588   0.017 -0.1450  0.0866  0.0124
 4227SOL    HW113580   5.801   3.677  -0.026  3.3158  0.7269 -0.2532
 4227SOL    HW213581   5.805   3.515  -0.051  1.6144  0.8083 -1.1751
 4228SOL     OW13582   5.430   4.306   2.401 -0.9932  0.2352 -0.7791
 4228SOL    HW113583   5.509   4.250   2.426 -0.7821  0.9543  0.2613
 4228SOL    HW213584   5.371   4.255   2.338  0.1715 -0.3997 -1.3943
 4229SOL     OW13585   3.056   5.894   4.552 -0.0862  0.0921 -0.0382
 4229SOL    HW113586   2.957   5.897   4.565 -0.3044  1.1600 -1.6924
 4229SOL    HW213587   3.101   5.908   4.640 -1.4080  0.5804  0.5959
 4230SOL     OW13588   1.316   1.933   4.855  0.0777  0.6648 -0.0112
 4230SOL    HW113589   1.327   1.884   4.941  0.9871  1.2012  0.1819
 4230SOL    HW213590   1.255   1.881   4.795  4.3255 -3.0768 -1.5901
 4231SOL     OW13591   5.436   5.860   4.784  0.4098  0.2984 -0.1950
 4231SOL    HW113592   5.386   5.942   4.813  1.3892  0.4915  1.0207
 4231SOL    HW213593   5.530   5.885   4.760  0.8280 -0.5276  0.5465
 4232SOL     OW13594   2.249   4.110   1.630  0.2463  0.3985  0.1666
 4232SOL    HW113595   2.343   4.083   1.612  0.7170  1.3598  1.0640
 4232SOL    HW213596   2.236   4.120   1.729 -0.9524 -0.2594  0.0893
 4233SOL     OW13597   4.418   6.008   0.467  0.1240 -0.1669  0.0111
 4233SOL    HW113598   4.456   5.977   0.554 -1.1893 -1.1763  0.2462
 4233SOL    HW213599   4.449   5.946   0.394 -0.9856 -0.9659  0.1968
 4234SOL     OW13600   3.955   4.020   6.066  0.4029 -0.2020 -0.0776
 4234SOL    HW113601   4.051   4.043   6.050  0.2929  1.0313  0.9511
 4234SOL    HW213602   3.949   3.941   6.128  0.7437 -0.5511 -0.4837
 4235SOL     OW13603   0.125   3.724   4.890 -0.2529  0.2380  0.1968
 4235SOL    HW113604   0.072   3.717   4.974 -0.0364  0.0747  0.3205
 4235SOL    HW213605   0.107   3.644   4.832 -0.3065  0.2889  0.1430
 4236SOL     OW13606   0.403   2.523   2.236  0.3252  0.2201 -0.2261
 4236SOL    HW113607   0.357   2.511   2.324  1.1534  1.9142  0.4752
 4236SOL    HW213608   0.444   2.436   2.208 -0.5301 -0.5070  0.7077
 4237SOL     OW13609   4.654   4.302   6.148  0.2105 -0.0441  0.0305
 4237SOL    HW113610   4.671   4.289   6.246 -2.6584  2.4025  1.0022
 4237SOL    HW213611   4.690   4.223   6.098  1.6660 -1.4632  3.0294
 4238SOL     OW13612   0.373   3.384   3.820 -0.7736 -0.1911 -0.2994
 4238SOL    HW113613   0.329   3.473   3.804 -0.9543  0.3763  2.7218
 4238SOL    HW213614   0.471   3.392   3.803 -0.5207  1.1266  1.3934
 4239SOL     OW13615   5.669   3.238   4.564 -0.0800  0.4434  0.2789
 4239SOL    HW113616   5.663   3.333   4.533 -1.7864  0.4669  0.6302
 4239SOL    HW213617   5.640   3.177   4.491 -1.1346  0.3268  0.7826
 4240SOL     OW13618   2.615   4.304   5.679  0.2976 -0.9515  0.1164
 4240SOL    HW113619   2.613   4.328   5.581 -2.0522  1.4191  0.6315
 4240SOL    HW213620   2.548   4.360   5.728  0.3860 -3.0899  2.9050
 4241SOL     OW13621   2.047   1.203   0.816 -0.0477  0.0278  0.0123
 4241SOL    HW113622   2.037   1.179   0.912 -1.9738  0.7674  0.0452
 4241SOL    HW213623   2.133   1.166   0.781 -0.3022 -2.1238  1.4427
 4242SOL     OW13624   3.467   6.674   1.029  0.8393  0.0206  0.2342
 4242SOL    HW113625   3.384   6.644   0.982  1.6933 -0.8956 -0.7378
 4242SOL    HW213626   3.502   6.757   0.985  1.2136 -0.3983 -0.2628
 4243SOL     OW13627   2.398   2.724   3.563 -0.3311  0.3654  0.8386
 4243SOL    HW113628   2.449   2.704   3.646  0.4629 -3.2502 -0.3814
 4243SOL    HW213629   2.440   2.679   3.485 -2.4744  1.5475 -1.1456
 4244SOL     OW13630   0.675   0.644   1.175  0.1355  0.1573  0.2212
 4244SOL    HW113631   0.762   0.599   1.193 -0.2245 -0.2427  0.9969
 4244SOL    HW213632   0.638   0.683   1.260 -0.6566 -0.0716 -0.0044
 4245SOL     OW13633   5.733   0.224   1.146 -0.1666 -0.2329 -0.1970
 4245SOL    HW113634   5.723   0.159   1.222 -0.2002  0.8382  0.7467
 4245SOL    HW213635   5.821   0.271   1.154 -0.8491  1.0311  0.1254
 4246SOL     OW13636   4.323   1.564   1.541  0.1437  0.2556  0.5072
 4246SOL    HW113637   4.261   1.639   1.560 -1.9767 -1.3269  0.2643
 4246SOL    HW213638   4.297   1.520   1.454  0.7500 -1.2762  1.0547
 4247SOL     OW13639   1.897   5.309   5.138  0.0537  0.4505  0.7434
 4247SOL    HW113640   1.977   5.355   5.100  0.3681 -1.4097 -1.0316
 4247SOL    HW213641   1.903   5.211   5.119 -2.7461  0.2819  0.3842
 4248SOL     OW13642   3.088   4.699   1.838  0.5206 -0.1837 -0.3634
 4248SOL    HW113643   3.004   4.645   1.842  0.9423 -0.8031  0.6188
 4248SOL    HW213644   3.112   4.731   1.930  2.1254 -1.2508 -0.3725
 4249SOL     OW13645   6.262   1.774   4.955 -0.8723 -0.2971  0.6382
 4249SOL    HW113646   6.289   1.714   4.880  0.5609  0.6069  0.3963
 4249SOL    HW213647   6.170   1.749   4.987 -2.1557  0.2139 -2.3546
 4250SOL     OW13648   0.408   4.978   4.417 -0.0998 -0.1382  0.2899
 4250SOL    HW113649   0.327   4.923   4.438  0.7611 -1.5236  0.1681
 4250SOL    HW213650   0.390   5.035   4.338 -0.8153 -0.7711 -0.0179
 4251SOL     OW13651   5.362   6.922   0.419  0.0092 -0.1092  0.8328
 4251SOL    HW113652   5.296   6.895   0.488 -0.6702 -0.7313 -0.0507
 4251SOL    HW213653   5.377   7.021   0.424 -0.5393 -0.0546  1.4183
 4252SOL     OW13654   6.139   6.535   0.585  0.0241  0.3115 -0.0809
 4252SOL    HW113655   6.105   6.488   0.667  1.5173 -0.5020  0.1111
 4252SOL    HW213656   6.158   6.630   0.606  2.9444 -0.4777  1.3509
 4253SOL     OW13657   3.661   6.631   2.736  0.0756  0.7746 -0.1492
 4253SOL    HW113658   3.580   6.592   2.691 -0.9065  1.6139  0.8381
 4253SOL    HW213659   3.715   6.682   2.669 -0.4290  0.5422 -0.7421
 4254SOL     OW13660   0.780   1.300   3.298  0.0536  0.1381  0.2754
 4254SOL    HW113661   0.833   1.299   3.213  0.4883  0.4608  0.5357
 4254SOL    HW213662   0.823   1.363   3.362 -0.9420  0.7840  0.3111
 4255SOL     OW13663   1.437   3.741   3.749  0.6752 -0.3769 -0.0814
 4255SOL    HW113664   1.434   3.690   3.835  0.5683  0.8869  0.6910
 4255SOL    HW213665   1.482   3.829   3.764 -0.2962  0.3195 -1.0792
 4256SOL     OW13666   5.962   5.322   0.656 -0.6797 -0.1127  0.3445
 4256SOL    HW113667   5.886   5.373   0.616 -2.6924 -3.1006  0.0595
 4256SOL    HW213668   6.006   5.267   0.584  0.5362  0.1431  0.8772
 4257SOL     OW13669   5.623   1.468   2.339 -0.3532 -0.1191  0.1814
 4257SOL    HW113670   5.719   1.457   2.367 -0.0810  0.6078 -0.4297
 4257SOL    HW213671   5.620   1.509   2.248 -1.2406 -1.2034 -0.2931
 4258SOL     OW13672   2.327   5.109   1.129 -0.1658 -0.1016 -0.5253
 4258SOL    HW113673   2.423   5.128   1.151 -0.7720  1.1979  1.2497
 4258SOL    HW213674   2.305   5.149   1.040  0.8802 -0.2592 -0.8705
 4259SOL     OW13675   2.076   1.676   0.463  0.6600 -0.6524 -0.6391
 4259SOL    HW113676   2.039   1.758   0.419  0.5867 -0.9624 -1.1638
 4259SOL    HW213677   2.052   1.596   0.408  1.3449 -0.9521 -0.5072
 4260SOL     OW13678   0.165   1.465   5.172  0.3262 -0.6086 -0.3546
 4260SOL    HW113679   0.101   1.511   5.110  1.0942  1.7729  0.5364
 4260SOL    HW213680   0.258   1.497   5.154  0.5564  0.2477  2.0828
 4261SOL     OW13681   3.399   6.970   3.054 -0.4565 -0.1775 -0.3257
 4261SOL    HW113682   3.446   7.034   3.116  0.0694  0.2889 -1.1759
 4261SOL    HW213683   3.363   6.893   3.106 -0.4116  0.4207  0.6160
 4262SOL     OW13684   2.201   3.302   5.050 -0.3090 -0.1280 -0.2145
 4262SOL    HW113685   2.231   3.207   5.041 -0.7545 -0.2391 -0.5675
 4262SOL    HW213686   2.195   3.344   4.960  0.5557  0.4583 -0.0219
 4263SOL     OW13687   4.923   0.772   1.736  0.0868  0.3864  0.2143
 4263SOL    HW113688   4.947   0.684   1.694 -0.0226  0.5207 -0.1299
 4263SOL    HW213689   4.824   0.781   1.740  0.0418 -0.4252  2.1738
 4264SOL     OW13690   3.620   2.746   6.705  1.1213 -0.2865 -0.1265
 4264SOL    HW113691   3.719   2.737   6.715  1.1956  0.6205  0.1267
 4264SOL    HW213692   3.600   2.821   6.641  0.5997 -0.1470  0.1928
 4265SOL     OW13693   3.499   4.146   6.485 -1.2717 -0.2553  0.1956
 4265SOL    HW113694   3.595   4.120   6.477 -0.9256  1.3136 -1.5862
 4265SOL    HW213695   3.474   4.152   6.582  0.9064  0.8745  0.7596
 4266SOL     OW13696   1.553   3.318   2.738 -0.2682  0.4577 -0.4002
 4266SOL    HW113697   1.563   3.219   2.743  2.2178  0.5711 -1.5155
 4266SOL    HW213698   1.491   3.349   2.810 -1.5083 -1.9162 -0.3481
 4267SOL     OW13699   1.579   1.741   3.030 -0.3214 -0.0263 -1.0365
 4267SOL    HW113700   1.488   1.747   2.990 -0.0958 -0.8155 -1.6913
 4267SOL    HW213701   1.593   1.649   3.068 -0.1055  0.3520 -0.1686
 4268SOL     OW13702   0.575   4.279   3.739  0.1760  0.1496 -0.5722
 4268SOL    HW113703   0.475   4.287   3.733  0.0951  0.6194  1.0291
 4268SOL    HW213704   0.617   4.363   3.703  0.0420 -0.3571 -1.9615
 4269SOL     OW13705   2.617   1.476   5.148  0.4513 -0.5330 -0.3090
 4269SOL    HW113706   2.698   1.504   5.096  0.9457  0.7786  1.1055
 4269SOL    HW213707   2.634   1.486   5.246 -1.0908 -1.2107  0.0713
 4270SOL     OW13708   4.671   5.372   0.669 -0.0045  0.4261 -0.2208
 4270SOL    HW113709   4.746   5.410   0.724 -0.5961  1.8322 -0.3422
 4270SOL    HW213710   4.693   5.379   0.572 -0.2850  0.8306 -0.2567
 4271SOL     OW13711   0.140   6.154   5.455  0.3276 -0.3796 -0.0953
 4271SOL    HW113712   0.212   6.086   5.464  0.2098 -0.7796 -1.8117
 4271SOL    HW213713   0.145   6.197   5.365  0.0111  1.4621  0.7165
 4272SOL     OW13714   0.531   3.002   6.008 -0.0172  0.0859  0.0913
 4272SOL    HW113715   0.512   3.011   6.106 -1.9340  0.4944 -0.2984
 4272SOL    HW213716   0.447   2.979   5.959  0.7411  0.7173 -1.5757
 4273SOL     OW13717   3.114   5.773   2.886 -0.9114  0.1102 -0.0738
 4273SOL    HW113718   3.032   5.731   2.926 -0.6239 -0.3248  0.0600
 4273SOL    HW213719   3.148   5.714   2.812 -0.5124  0.1137  0.1079
 4274SOL     OW13720   4.198   2.014   3.461 -0.1137  0.0141  0.0516
 4274SOL    HW113721   4.204   2.112   3.479 -2.0444  0.2019 -0.0657
 4274SOL    HW213722   4.118   1.995   3.404  1.3122 -1.4497 -1.5729
 4275SOL     OW13723   3.339   1.900   4.294  0.1753  1.2637  0.2720
 4275SOL    HW113724   3.352   1.961   4.372 -0.9621  2.7669 -0.6569
 4275SOL    HW213725   3.423   1.849   4.277  0.0933 -0.0504  3.2093
 4276SOL     OW13726   3.583   2.101   2.472 -0.5727  0.3190  0.5940
 4276SOL    HW113727   3.551   2.146   2.389 -0.1432  0.1084  0.3106
 4276SOL    HW213728   3.681   2.082   2.465 -0.6085 -0.0430  0.9878
 4277SOL     OW13729   5.358   5.464   4.372  0.3735 -0.8407  0.4814
 4277SOL    HW113730   5.346   5.389   4.437  0.2842 -0.8961  0.4025
 4277SOL    HW213731   5.328   5.550   4.413 -1.8661 -1.2035 -0.2485
 4278SOL     OW13732   6.885   6.602   0.894 -0.0799 -0.2945 -0.1528
 4278SOL    HW113733   6.915   6.520   0.845 -0.5117 -2.1032  2.3860
 4278SOL    HW213734   6.965   6.645   0.937 -0.1430 -0.8345  0.5244
 4279SOL     OW13735   1.354   4.772   3.600 -0.2353 -0.0577  0.3397
 4279SOL    HW113736   1.371   4.728   3.688 -0.7679  1.0487  1.0124
 4279SOL    HW213737   1.256   4.790   3.590  0.0964  2.4354  0.8355
 4280SOL     OW13738   1.243   0.918   6.010  0.0866  0.3539  0.2160
 4280SOL    HW113739   1.201   0.848   6.067 -2.5501 -0.7066 -2.6948
 4280SOL    HW213740   1.172   0.983   5.981  1.6589  1.8610 -0.4043
 4281SOL     OW13741   0.582   0.088   1.005  0.5704 -0.3367 -0.1693
 4281SOL    HW113742   0.512   0.066   1.073  1.0282  1.5610  0.9812
 4281SOL    HW213743   0.640   0.008   0.989 -0.1738 -1.1062  0.9231
 4282SOL     OW13744   4.542   4.764   3.764 -0.5804  0.2625 -0.2173
 4282SOL    HW113745   4.479   4.741   3.839 -0.0926  1.1745  0.4780
 4282SOL    HW213746   4.511   4.718   3.680 -1.9817  0.4150  0.1871
 4283SOL     OW13747   2.228   1.054   5.282 -0.3364  0.6677  0.7057
 4283SOL    HW113748   2.282   0.993   5.225 -0.2634  1.3401  0.0446
 4283SOL    HW213749   2.273   1.066   5.370 -0.4092 -0.3137  0.8915
 4284SOL     OW13750   4.653   5.299   6.214  0.0500 -0.6332  0.1221
 4284SOL    HW113751   4.569   5.246   6.202  0.4630 -1.0726 -0.9383
 4284SOL    HW213752   4.649   5.381   6.156  1.5508 -2.1462 -2.2900
 4285SOL     OW13753   3.952   0.879   0.217 -0.0036 -0.2355  0.4202
 4285SOL    HW113754   4.006   0.929   0.285 -1.9234  1.1398  1.0041
 4285SOL    HW213755   4.011   0.814   0.170  1.6802 -0.3119  2.4820
 4286SOL     OW13756   5.862   5.694   5.464 -0.8146  0.3772 -0.5004
 4286SOL    HW113757   5.809   5.626   5.515 -1.1692  0.9886 -0.0459
 4286SOL    HW213758   5.894   5.653   5.378 -1.3656 -0.2375 -0.4252
 4287SOL     OW13759   4.697   6.424   1.296  0.1271  0.1794 -0.2890
 4287SOL    HW113760   4.646   6.463   1.220 -0.5591  1.4088  0.7675
 4287SOL    HW213761   4.635   6.407   1.372  1.2564  1.8342  1.0835
 4288SOL     OW13762   6.719   6.315   2.923 -0.3778  1.4662  0.1478
 4288SOL    HW113763   6.631   6.274   2.946  1.3155 -2.1099  1.1465
 4288SOL    HW213764   6.748   6.283   2.833 -0.0581  2.5349 -0.1380
 4289SOL     OW13765   6.831   4.780   6.554  0.0125  0.6621  0.0437
 4289SOL    HW113766   6.921   4.743   6.575 -0.1571  0.5874  0.6585
 4289SOL    HW213767   6.840   4.864   6.501  0.4098 -0.8110 -2.3875
 4290SOL     OW13768   0.609   0.512   3.303  0.1909 -0.4194  0.0659
 4290SOL    HW113769   0.625   0.611   3.308 -0.3574 -0.2054 -1.7641
 4290SOL    HW213770   0.690   0.464   3.336  1.6820  0.6610 -1.7718
 4291SOL     OW13771   5.295   3.914   5.385  0.0514  0.4423  0.5987
 4291SOL    HW113772   5.217   3.973   5.406 -1.2381 -0.0802 -2.2301
 4291SOL    HW213773   5.379   3.967   5.390 -1.0050  2.4922 -1.4108
 4292SOL     OW13774   6.095   5.184   1.304 -0.0244 -0.0367  0.0109
 4292SOL    HW113775   6.110   5.090   1.333  3.0914  0.6384  0.8794
 4292SOL    HW213776   6.032   5.229   1.367  0.7137 -0.7429  1.2843
 4293SOL     OW13777   3.240   2.008   6.638 -0.5004 -0.2837 -0.3049
 4293SOL    HW113778   3.264   2.104   6.625 -1.7222  0.1286  0.3720
 4293SOL    HW213779   3.306   1.951   6.590  0.5942  0.8673 -0.2073
 4294SOL     OW13780   2.584   2.254   0.319 -0.7820  0.2210  0.4329
 4294SOL    HW113781   2.540   2.202   0.245  1.0635  0.4535 -0.9101
 4294SOL    HW213782   2.584   2.200   0.403 -0.6932 -1.1211 -0.4073
 4295SOL     OW13783   4.668   0.204   3.446  0.3361  0.0908  0.4637
 4295SOL    HW113784   4.617   0.250   3.518  1.7394  2.4703  0.0456
 4295SOL    HW213785   4.605   0.166   3.379 -0.9885 -1.8284  2.6585
 4296SOL     OW13786   0.178   0.291   0.824 -0.8680 -0.1314  0.4382
 4296SOL    HW113787   0.251   0.241   0.777 -1.4081 -0.5664  0.0476
 4296SOL    HW213788   0.101   0.304   0.762 -1.5698 -0.6653  1.1760
 4297SOL     OW13789   5.315   5.934   5.976 -0.0518 -0.0012 -0.3328
 4297SOL    HW113790   5.300   6.031   5.959 -0.3577  0.3004  1.4314
 4297SOL    HW213791   5.293   5.913   6.071 -2.4231 -2.3019 -1.2848
 4298SOL     OW13792   1.416   0.383   1.726  0.1049  0.2961  0.0488
 4298SOL    HW113793   1.510   0.396   1.758  0.7685 -1.4359 -1.0187
 4298SOL    HW213794   1.353   0.431   1.786  1.7749  3.0814 -0.2554
 4299SOL     OW13795   6.356   3.359   1.502 -0.1022  0.2480  0.1201
 4299SOL    HW113796   6.453   3.356   1.477  0.3504  0.5935  1.7060
 4299SOL    HW213797   6.347   3.396   1.594 -1.6695 -0.6843  0.3785
 4300SOL     OW13798   5.264   6.744   2.591 -0.3040 -0.3453 -0.2595
 4300SOL    HW113799   5.253   6.660   2.644 -2.2445 -0.1440 -0.2460
 4300SOL    HW213800   5.207   6.738   2.508  1.0483  0.1872 -1.2569
 4301SOL     OW13801   1.535   5.456   4.127  0.3434  0.7530  0.5631
 4301SOL    HW113802   1.569   5.529   4.067  0.6868 -1.0423 -1.5750
 4301SOL    HW213803   1.581   5.461   4.215  2.3679  1.5202 -0.4648
 4302SOL     OW13804   2.716   5.906   5.701  0.2749 -0.5585  0.8512
 4302SOL    HW113805   2.770   5.873   5.623  0.5972  1.4707  0.1678
 4302SOL    HW213806   2.621   5.876   5.691 -0.1837  1.3724 -1.4806
 4303SOL     OW13807   4.489   5.008   3.770 -0.0716  0.3319  0.1656
 4303SOL    HW113808   4.521   4.914   3.778 -0.4068  0.1395 -0.6930
 4303SOL    HW213809   4.409   5.021   3.828  0.5241  0.3482  1.0006
 4304SOL     OW13810   2.568   3.534   1.151  0.3185 -0.2316 -0.0466
 4304SOL    HW113811   2.517   3.602   1.204  1.5042  0.7853 -0.1716
 4304SOL    HW213812   2.638   3.492   1.209  0.7289 -0.0906 -0.4364
 4305SOL     OW13813   0.595   6.780   0.249  0.3613  0.2385 -0.0253
 4305SOL    HW113814   0.542   6.861   0.223 -0.7263 -0.2634  0.5518
 4305SOL    HW213815   0.648   6.749   0.171  0.0931  0.9748 -0.5182
 4306SOL     OW13816   0.996   4.032   5.477 -0.0418  0.1969  0.0234
 4306SOL    HW113817   1.004   4.115   5.421 -0.2061  1.8386  2.2911
 4306SOL    HW213818   0.922   4.044   5.543  0.4947 -1.4405  0.9682
 4307SOL     OW13819   6.461   2.441   4.056  0.4341 -0.1242 -0.3559
 4307SOL    HW113820   6.533   2.489   4.006  1.0471 -0.8178 -0.1668
 4307SOL    HW213821   6.391   2.409   3.992 -0.0712  1.1478 -0.4626
 4308SOL     OW13822   4.296   5.229   6.892  0.1233 -0.5679  0.1803
 4308SOL    HW113823   4.351   5.289   6.834  1.1897 -1.7451 -0.0762
 4308SOL    HW213824   4.204   5.222   6.856  0.1899  0.3560 -0.1824
 4309SOL     OW13825   2.042   1.493   0.278  0.5463 -0.2371 -0.2087
 4309SOL    HW113826   1.973   1.490   0.207  0.2033 -0.5332  0.1354
 4309SOL    HW213827   2.093   1.407   0.280  0.4458 -0.2924  0.0102
 4310SOL     OW13828   5.565   1.219   5.915  0.0872  0.5596 -0.2942
 4310SOL    HW113829   5.539   1.125   5.893  0.6333  0.5041 -0.7042
 4310SOL    HW213830   5.656   1.220   5.957 -0.3775  0.7992  0.7620
 4311SOL     OW13831   3.083   4.844   0.545 -0.0331 -0.1757  0.0970
 4311SOL    HW113832   3.054   4.939   0.540 -0.2550 -0.2710 -0.4241
 4311SOL    HW213833   3.161   4.837   0.608  0.1181  0.3799 -0.0180
 4312SOL     OW13834   0.613   3.277   2.849  0.4377 -0.2162  0.2282
 4312SOL    HW113835   0.602   3.270   2.750  0.6899  0.6437  0.1328
 4312SOL    HW213836   0.646   3.190   2.886  1.3408 -0.2168 -0.5720
 4313SOL     OW13837   1.495   2.842   6.935  0.0464  0.0018 -0.1180
 4313SOL    HW113838   1.509   2.921   6.876  1.2328 -0.2318 -0.1706
 4313SOL    HW213839   1.467   2.763   6.881  0.5246 -0.0506 -0.2897
 4314SOL     OW13840   1.969   0.790   4.122 -0.5569  0.1597  0.4133
 4314SOL    HW113841   2.041   0.794   4.052  0.5556 -0.7052  1.4468
 4314SOL    HW213842   1.994   0.849   4.199 -0.5091 -0.7727  1.1397
 4315SOL     OW13843   3.831   2.187   5.628  0.4266 -0.4923  0.0949
 4315SOL    HW113844   3.838   2.161   5.531  2.5433  1.5094 -0.3928
 4315SOL    HW213845   3.735   2.204   5.651 -0.0008  0.4528 -2.1120
 4316SOL     OW13846   4.911   4.022   0.681 -0.0609 -0.1958  1.0428
 4316SOL    HW113847   4.866   4.056   0.764 -0.1519  0.3651  0.7682
 4316SOL    HW213848   4.859   3.945   0.645 -1.0083  0.6513  0.5451
 4317SOL     OW13849   6.249   6.253   1.228 -0.1517  0.1302 -0.1291
 4317SOL    HW113850   6.184   6.309   1.176 -0.1949  0.0492 -0.1634
 4317SOL    HW213851   6.340   6.264   1.189  0.2704  1.9334  1.2597
 4318SOL     OW13852   1.092   4.699   3.774 -0.6997  0.9734  0.6495
 4318SOL    HW113853   1.122   4.790   3.801 -0.5742  0.8582  0.9093
 4318SOL    HW213854   1.128   4.632   3.840 -1.9496  0.8790  1.2534
 4319SOL     OW13855   1.975   3.557   1.066  0.0068  0.0013  0.6669
 4319SOL    HW113856   1.957   3.517   1.156  2.9707  0.6281  1.6382
 4319SOL    HW213857   2.024   3.643   1.077 -0.4354  0.6080 -1.5689
 4320SOL     OW13858   4.870   2.712   2.640 -0.1395  0.2600  0.4629
 4320SOL    HW113859   4.783   2.698   2.687 -0.3887  2.2701  0.6742
 4320SOL    HW213860   4.856   2.768   2.559  1.0966  1.5614  1.1148
 4321SOL     OW13861   5.146   6.263   4.470  0.3740 -0.6011 -0.1580
 4321SOL    HW113862   5.060   6.216   4.451  0.1946 -0.7540  0.9650
 4321SOL    HW213863   5.126   6.354   4.506  0.7068 -0.1909 -0.9787
 4322SOL     OW13864   1.588   2.362   3.147  0.0457  0.1926  0.4910
 4322SOL    HW113865   1.539   2.442   3.181 -0.9342 -0.6569  1.1647
 4322SOL    HW213866   1.629   2.382   3.058 -1.3510  1.0231  0.0016
 4323SOL     OW13867   5.388   2.913   1.138 -0.0188  0.0129  0.2232
 4323SOL    HW113868   5.396   2.995   1.081  1.3816 -0.2274  0.0478
 4323SOL    HW213869   5.477   2.892   1.178 -0.9288  0.0978  2.4107
 4324SOL     OW13870   6.153   5.501   0.573 -0.8249  0.7531 -0.0970
 4324SOL    HW113871   6.090   5.435   0.614 -0.2109  0.0945 -0.1837
 4324SOL    HW213872   6.212   5.454   0.507  0.8615  1.0045  1.1612
 4325SOL     OW13873   0.857   5.525   6.917  0.6126 -0.0964 -0.1346
 4325SOL    HW113874   0.834   5.622   6.919 -1.0423 -0.3525 -2.8503
 4325SOL    HW213875   0.867   5.491   7.011 -1.9960  1.9640  1.0012
 4326SOL     OW13876   0.481   1.933   0.844  0.4559  1.0286 -0.3267
 4326SOL    HW113877   0.494   2.032   0.854 -1.0010  1.3264 -1.1533
 4326SOL    HW213878   0.545   1.898   0.776  0.6039  1.5110 -0.4400
 4327SOL     OW13879   2.502   6.944   4.899  0.0991  0.3719  0.3607
 4327SOL    HW113880   2.543   6.868   4.849 -1.6539 -1.5727  1.6845
 4327SOL    HW213881   2.568   6.978   4.966  0.1371 -1.8067  1.5487
 4328SOL     OW13882   6.479   6.762   2.098 -0.1497  0.3827  0.4697
 4328SOL    HW113883   6.527   6.850   2.099  0.7485 -0.0898  0.0587
 4328SOL    HW213884   6.508   6.707   2.176 -0.9102  0.5449  0.8777
 4329SOL     OW13885   6.364   4.755   3.090 -0.1886  0.4196  0.2119
 4329SOL    HW113886   6.396   4.747   2.996 -0.4114  2.0582 -0.0298
 4329SOL    HW213887   6.266   4.732   3.093  0.0824 -0.8333  0.2905
 4330SOL     OW13888   1.972   0.315   5.840 -0.6924  0.3042 -0.0336
 4330SOL    HW113889   1.961   0.347   5.746 -0.3104 -0.3559 -0.3063
 4330SOL    HW213890   2.064   0.278   5.852 -1.2788 -1.1834  0.1147
 4331SOL     OW13891   0.892   2.242   2.434  0.3705  0.0073 -0.1194
 4331SOL    HW113892   0.848   2.221   2.521  2.5986 -1.0040  0.8420
 4331SOL    HW213893   0.937   2.331   2.440  1.3249 -0.4806  0.1144
 4332SOL     OW13894   0.639   5.934   0.803  0.5763 -0.1564 -0.3972
 4332SOL    HW113895   0.581   5.925   0.722  0.0587 -0.1038 -0.0383
 4332SOL    HW213896   0.649   6.031   0.825 -1.9525 -0.2185  1.4660
 4333SOL     OW13897   2.947   3.365   6.902  0.2673 -0.4676  0.2626
 4333SOL    HW113898   2.919   3.291   6.842 -1.9160  0.0999  0.4965
 4333SOL    HW213899   2.937   3.336   6.998 -0.1912 -0.0293  0.3515
 4334SOL     OW13900   5.703   1.401   2.870  0.1210  0.1795  0.2693
 4334SOL    HW113901   5.765   1.356   2.807 -0.3661 -0.9032  0.5444
 4334SOL    HW213902   5.733   1.385   2.964  2.0104  3.4305  0.3898
 4335SOL     OW13903   2.563   0.797   1.414  0.3146  0.1205  0.4114
 4335SOL    HW113904   2.639   0.733   1.423  0.4300 -0.1611 -1.9211
 4335SOL    HW213905   2.478   0.752   1.439  0.6555 -0.2510  0.9093
 4336SOL     OW13906   1.092   5.508   4.102 -0.2232 -0.0513 -0.0010
 4336SOL    HW113907   1.090   5.461   4.014  1.4237 -0.7978  0.3146
 4336SOL    HW213908   1.155   5.586   4.097 -0.3562  0.0852  0.4240
 4337SOL     OW13909   0.277   3.279   4.060  0.4453 -0.5291 -0.0142
 4337SOL    HW113910   0.306   3.330   3.978 -0.0283 -0.1593  0.0438
 4337SOL    HW213911   0.357   3.233   4.100  0.9031  0.2271 -0.0318
 4338SOL     OW13912   3.056   3.177   4.037 -0.3702  0.0545 -0.3901
 4338SOL    HW113913   3.116   3.104   4.069  2.3758  1.9370 -0.8935
 4338SOL    HW213914   3.031   3.160   3.941 -1.8837 -1.4287  0.2116
 4339SOL     OW13915   3.352   2.973   4.688  0.1925  0.1541 -0.0957
 4339SOL    HW113916   3.276   3.029   4.722 -0.0667  0.3963 -1.0500
 4339SOL    HW213917   3.366   2.895   4.749  1.2751  1.8128  1.9042
 4340SOL     OW13918   6.941   4.045   5.592  0.8793 -0.0885  0.0391
 4340SOL    HW113919   6.980   4.048   5.684  2.1836 -0.6911 -0.4608
 4340SOL    HW213920   6.844   4.065   5.596  0.7241 -0.9885  1.6500
 4341SOL     OW13921   4.400   6.619   1.592  0.1057  0.3738 -0.2202
 4341SOL    HW113922   4.426   6.597   1.686  1.3722  0.0137 -0.6316
 4341SOL    HW213923   4.448   6.557   1.529 -2.4337 -0.9207 -1.0242
 4342SOL     OW13924   4.882   4.060   2.920 -0.0099 -0.6011 -0.2503
 4342SOL    HW113925   4.843   3.991   2.981 -0.4159 -0.7930 -0.7255
 4342SOL    HW213926   4.829   4.144   2.927  0.3363 -0.4106  0.1424
 4343SOL     OW13927   6.014   7.000   4.287  0.0387 -0.2148  0.7435
 4343SOL    HW113928   5.933   6.960   4.330 -1.5249  1.6396 -0.2967
 4343SOL    HW213929   6.017   7.098   4.308 -0.5959  0.7177 -2.9313
 4344SOL     OW13930   2.076   3.703   2.972  0.0541 -0.1663  0.4115
 4344SOL    HW113931   2.121   3.706   2.882  3.1416 -0.4283  1.8043
 4344SOL    HW213932   2.099   3.617   3.018 -1.2790  0.0546  1.5459
 4345SOL     OW13933   2.540   2.719   1.064 -0.1425  0.9637 -0.3288
 4345SOL    HW113934   2.592   2.702   0.980  1.8105 -0.0776  1.0211
 4345SOL    HW213935   2.458   2.662   1.065  1.2893 -1.1742 -0.2814
 4346SOL     OW13936   2.765   2.940   0.812 -0.3200  0.3327  0.1838
 4346SOL    HW113937   2.799   2.970   0.723 -0.4663 -1.3187 -0.4562
 4346SOL    HW213938   2.836   2.953   0.881  0.0864  0.8460 -0.3148
 4347SOL     OW13939   4.902   5.285   0.138  0.1729 -0.2099  0.8339
 4347SOL    HW113940   4.941   5.198   0.167 -0.7873 -0.6930  0.7276
 4347SOL    HW213941   4.975   5.346   0.107  0.8768 -0.8907  1.1218
 4348SOL     OW13942   5.280   4.890   5.987  0.5009 -0.2901  0.5689
 4348SOL    HW113943   5.304   4.983   6.014  0.2360 -0.5049  1.5811
 4348SOL    HW213944   5.270   4.833   6.069 -0.6498 -0.8841  0.0399
 4349SOL     OW13945   0.797   3.529   4.008  0.4589 -0.4761  0.1802
 4349SOL    HW113946   0.785   3.566   4.100 -0.1495  0.8120 -0.4015
 4349SOL    HW213947   0.814   3.430   4.014  2.9477 -0.0084  1.7927
 4350SOL     OW13948   5.391   1.580   4.003 -0.0235 -0.3430  0.2555
 4350SOL    HW113949   5.346   1.568   4.092 -0.8124 -0.7205 -0.1891
 4350SOL    HW213950   5.458   1.507   3.990  0.0988 -0.2846  0.5445
 4351SOL     OW13951   2.266   6.791   1.925 -0.1499 -0.0365 -0.5955
 4351SOL    HW113952   2.361   6.760   1.911 -1.1017 -2.4643 -2.3998
 4351SOL    HW213953   2.263   6.891   1.921  2.6062  0.3054  1.8423
 4352SOL     OW13954   4.431   5.452   0.985  0.4930 -0.3399  0.2502
 4352SOL    HW113955   4.360   5.482   1.049 -0.1156 -0.1979 -0.4673
 4352SOL    HW213956   4.436   5.517   0.909  1.3504 -0.3921  0.2522
 4353SOL     OW13957   2.388   5.303   0.221  0.1014  0.6182 -0.2742
 4353SOL    HW113958   2.314   5.277   0.284 -0.2524 -0.3287 -1.0582
 4353SOL    HW213959   2.455   5.229   0.217  0.4506  0.9478 -0.5279
 4354SOL     OW13960   2.232   5.249   1.674  0.1596 -0.3921 -0.1744
 4354SOL    HW113961   2.192   5.175   1.727 -0.9189 -1.1858 -2.0247
 4354SOL    HW213962   2.314   5.217   1.627  0.8703  0.1874  0.6393
 4355SOL     OW13963   3.134   5.058   4.103 -0.0379  0.4376  0.2986
 4355SOL    HW113964   3.165   5.004   4.181  1.7120 -0.1835 -0.7858
 4355SOL    HW213965   3.053   5.015   4.062 -0.5846  0.4271  1.3539
 4356SOL     OW13966   6.520   1.604   5.244 -0.2268 -0.4461  0.0051
 4356SOL    HW113967   6.427   1.574   5.269 -0.9969  1.0521 -0.9510
 4356SOL    HW213968   6.566   1.531   5.194 -0.7883 -1.2953  0.6948
 4357SOL     OW13969   3.645   5.534   1.539  0.0864  0.4922  0.4535
 4357SOL    HW113970   3.741   5.512   1.519  1.0070  1.4703  3.2623
 4357SOL    HW213971   3.601   5.454   1.580 -0.4211 -0.0407 -1.0749
 4358SOL     OW13972   3.782   1.221   6.444 -0.3359  0.0402 -0.0686
 4358SOL    HW113973   3.799   1.317   6.422 -1.0536  0.3952  0.8569
 4358SOL    HW213974   3.686   1.209   6.468 -0.5745 -1.1840 -1.4929
 4359SOL     OW13975   2.177   4.462   2.338  0.3660  0.2494 -0.4346
 4359SOL    HW113976   2.184   4.443   2.240 -0.5871  1.4063 -0.7581
 4359SOL    HW213977   2.267   4.453   2.380  0.8132 -0.1503 -1.4449
 4360SOL     OW13978   2.698   5.756   4.150 -0.4957 -0.1239  0.4234
 4360SOL    HW113979   2.599   5.742   4.151 -0.6962  0.7751 -1.6107
 4360SOL    HW213980   2.717   5.853   4.167 -0.0179 -0.1529  0.0560
 4361SOL     OW13981   2.099   0.350   1.273 -0.0474 -0.3944 -0.0357
 4361SOL    HW113982   2.050   0.269   1.304 -2.0772  0.6487 -0.3934
 4361SOL    HW213983   2.105   0.416   1.348 -0.7558  0.1882 -0.4840
 4362SOL     OW13984   0.212   5.387   1.178  0.5834 -0.0365 -0.2369
 4362SOL    HW113985   0.127   5.417   1.135  1.1703  0.6161 -0.9925
 4362SOL    HW213986   0.209   5.289   1.195 -0.5551  0.0835  0.3083
 4363SOL     OW13987   4.154   0.539   3.008 -0.8108 -0.5134  0.2958
 4363SOL    HW113988   4.165   0.577   2.916 -1.1751  0.6766  0.7259
 4363SOL    HW213989   4.244   0.529   3.051 -0.7437  0.6456  0.4620
 4364SOL     OW13990   4.024   3.827   2.762  0.3962 -0.1099 -0.2581
 4364SOL    HW113991   4.072   3.883   2.695  2.6318  0.5343  1.7637
 4364SOL    HW213992   4.027   3.731   2.734  1.0610  0.1730 -1.1935
 4365SOL     OW13993   3.723   2.072   1.303 -0.3666  0.3244 -0.1753
 4365SOL    HW113994   3.639   2.020   1.286 -1.0955  0.7520  1.8697
 4365SOL    HW213995   3.778   2.075   1.219 -1.5915 -1.3834 -1.0936
 4366SOL     OW13996   5.495   4.084   5.485 -0.0285 -0.6991 -0.0669
 4366SOL    HW113997   5.480   4.176   5.522 -0.2114 -1.1808  1.0969
 4366SOL    HW213998   5.592   4.073   5.461  0.6072 -1.0820  2.3897
 4367SOL     OW13999   0.139   2.638   6.737 -0.2494 -0.3523 -0.1395
 4367SOL    HW114000   0.071   2.578   6.781 -1.1308  0.4128 -0.4324
 4367SOL    HW214001   0.218   2.583   6.710 -1.1605 -1.4571 -0.6691
 4368SOL     OW14002   0.113   6.044   5.030  0.0997 -0.1480  0.2733
 4368SOL    HW114003   0.117   6.134   5.075 -0.1382 -0.6310  1.3023
 4368SOL    HW214004   0.047   6.047   4.955 -0.8992  0.2063  1.1357
 4369SOL     OW14005   6.116   3.806   3.649 -0.0743  0.3013  0.3560
 4369SOL    HW114006   6.192   3.825   3.587 -1.0201  0.2448 -0.8744
 4369SOL    HW214007   6.151   3.773   3.736  1.2682 -0.4999 -0.4565
 4370SOL     OW14008   5.145   4.774   2.710  0.4991  0.1114 -0.3100
 4370SOL    HW114009   5.177   4.699   2.768 -0.1505 -1.4026 -1.8627
 4370SOL    HW214010   5.046   4.780   2.716  0.3445 -0.5777 -1.8353
 4371SOL     OW14011   4.128   1.789   3.643  0.4597 -0.0249  0.2709
 4371SOL    HW114012   4.144   1.846   3.562  0.2870  0.3865  0.5180
 4371SOL    HW214013   4.043   1.819   3.687 -0.1175 -1.0699 -0.0944
 4372SOL     OW14014   2.544   5.355   6.020  0.5822 -0.7402 -0.4533
 4372SOL    HW114015   2.503   5.298   5.948  0.7771 -1.8033  0.2549
 4372SOL    HW214016   2.588   5.434   5.978 -1.2368 -0.1319 -1.3316
 4373SOL     OW14017   4.815   1.597   0.574 -0.1947  0.0639 -0.3277
 4373SOL    HW114018   4.732   1.568   0.528  1.6058  1.0888 -4.7217
 4373SOL    HW214019   4.872   1.517   0.593 -0.2204 -0.2929 -1.6560
 4374SOL     OW14020   2.037   1.030   2.366 -0.3009 -0.0740  0.1352
 4374SOL    HW114021   2.092   0.966   2.313 -1.3449 -0.5578 -0.3907
 4374SOL    HW214022   2.079   1.044   2.456 -0.2447 -1.7976  0.4116
 4375SOL     OW14023   5.698   0.992   6.296  0.4347  0.0652 -0.0110
 4375SOL    HW114024   5.651   1.080   6.300  1.7457  0.7563  1.0099
 4375SOL    HW214025   5.726   0.965   6.389  0.9479 -0.9327 -0.4380
 4376SOL     OW14026   1.893   3.790   1.694  0.4727  0.3523  0.1660
 4376SOL    HW114027   1.979   3.742   1.683  0.2215  0.2377 -1.4846
 4376SOL    HW214028   1.818   3.732   1.662 -0.1554  0.7011  0.9663
 4377SOL     OW14029   5.633   5.821   6.788  0.1674  0.2693  0.0853
 4377SOL    HW114030   5.667   5.914   6.791 -0.6721  0.5763  0.5565
 4377SOL    HW214031   5.644   5.778   6.878  3.8387 -1.3596 -0.9465
 4378SOL     OW14032   1.595   4.767   1.250 -0.2239 -0.5562  0.4071
 4378SOL    HW114033   1.508   4.721   1.268 -0.3467 -0.5920 -0.2538
 4378SOL    HW214034   1.670   4.713   1.290 -0.3269 -1.5778 -0.7226
 4379SOL     OW14035   5.705   4.722   0.320  0.4435  0.0311 -0.0564
 4379SOL    HW114036   5.764   4.646   0.347 -0.4439 -0.9357 -0.7306
 4379SOL    HW214037   5.620   4.718   0.374  0.0347  0.0247 -0.6913
 4380SOL     OW14038   1.586   0.174   4.074 -0.0236  0.1303 -0.3023
 4380SOL    HW114039   1.572   0.076   4.059 -0.0313  0.1716 -0.5737
 4380SOL    HW214040   1.684   0.193   4.084  0.0735  0.2353 -1.3138
 4381SOL     OW14041   2.786   4.929   4.432  0.2842  0.0947  0.3635
 4381SOL    HW114042   2.808   5.016   4.477 -0.4565  1.2680 -1.4189
 4381SOL    HW214043   2.864   4.900   4.377  1.0711 -1.1745  2.0621
 4382SOL     OW14044   5.281   3.280   5.646  0.4162 -0.0540 -0.0061
 4382SOL    HW114045   5.338   3.206   5.609  0.1270 -0.5942  0.6063
 4382SOL    HW214046   5.326   3.368   5.629  0.3101 -0.2703 -1.6040
 4383SOL     OW14047   5.714   5.297   0.966 -0.2354 -0.2933 -0.6976
 4383SOL    HW114048   5.665   5.234   0.905  1.6981 -1.0123 -1.5760
 4383SOL    HW214049   5.759   5.245   1.038 -1.6375  0.4703  0.8058
 4384SOL     OW14050   3.385   1.023   0.759 -0.1376  0.3522  0.1064
 4384SOL    HW114051   3.349   0.990   0.672 -0.2028 -0.1693  0.3289
 4384SOL    HW214052   3.321   1.090   0.798 -0.2909  0.3088 -0.0660
 4385SOL     OW14053   5.663   3.432   5.082 -0.2233 -0.0477 -0.3065
 4385SOL    HW114054   5.753   3.409   5.045  0.5805  0.4491  1.2126
 4385SOL    HW214055   5.603   3.463   5.008  1.1765  0.5707 -1.2273
 4386SOL     OW14056   2.572   6.670   1.507  0.1418 -0.8049 -0.2919
 4386SOL    HW114057   2.584   6.765   1.479  0.1169  0.1918  2.7710
 4386SOL    HW214058   2.474   6.651   1.518  0.1552 -1.1588 -0.7570
 4387SOL     OW14059   6.799   1.958   6.968  0.4069 -0.1225 -0.2020
 4387SOL    HW114060   6.809   2.022   6.892  1.0302  0.5750  0.4546
 4387SOL    HW214061   6.880   1.900   6.974 -0.3766 -1.3640 -1.1203
 4388SOL     OW14062   3.356   6.436   5.001 -0.3086  0.0749  0.2902
 4388SOL    HW114063   3.438   6.394   4.962  0.1629  0.5482  0.7548
 4388SOL    HW214064   3.301   6.475   4.928  2.0419  3.6351  0.1912
 4389SOL     OW14065   1.878   3.420   1.579 -0.3154 -0.3440  0.2714
 4389SOL    HW114066   1.939   3.442   1.656  0.3377 -0.8424 -0.0953
 4389SOL    HW214067   1.861   3.322   1.577 -0.3140 -0.3368 -0.2336
 4390SOL     OW14068   5.352   3.393   1.698  0.0805  0.1598 -0.6535
 4390SOL    HW114069   5.410   3.311   1.702 -1.4799 -0.9284  1.4346
 4390SOL    HW214070   5.358   3.443   1.784 -1.6014  0.3490 -0.6129
 4391SOL     OW14071   1.448   5.863   0.879 -1.4827 -0.2765  0.5483
 4391SOL    HW114072   1.448   5.831   0.784  1.4860  0.4318  0.1944
 4391SOL    HW214073   1.378   5.814   0.931 -2.7027 -1.1961 -1.8148
 4392SOL     OW14074   6.337   4.623   5.081  0.0519 -0.0066 -0.4169
 4392SOL    HW114075   6.333   4.609   4.982 -0.3318  0.4635 -0.4679
 4392SOL    HW214076   6.431   4.645   5.107  0.2688 -0.6815 -0.5991
 4393SOL     OW14077   5.443   0.214   1.579  0.3258  0.1483  0.1983
 4393SOL    HW114078   5.451   0.121   1.544 -0.2028 -0.0335  0.5505
 4393SOL    HW214079   5.518   0.231   1.644  1.6339  0.6741 -1.3856
 4394SOL     OW14080   3.058   0.859   2.739 -0.9337  0.3486 -0.0290
 4394SOL    HW114081   3.143   0.911   2.743  0.2685 -1.5623  0.9306
 4394SOL    HW214082   2.983   0.915   2.774 -0.1710  2.1917 -1.2329
 4395SOL     OW14083   4.211   3.234   1.902  0.5401 -0.3007 -0.0898
 4395SOL    HW114084   4.217   3.162   1.971  0.8901 -0.1739  0.0146
 4395SOL    HW214085   4.281   3.219   1.832  0.1810 -0.4333 -0.4196
 4396SOL     OW14086   0.711   2.586   1.163 -0.4757 -0.3095 -0.1317
 4396SOL    HW114087   0.751   2.616   1.249 -2.8730 -1.4821  1.4977
 4396SOL    HW214088   0.635   2.646   1.138  1.0353  0.8669 -2.2655
 4397SOL     OW14089   3.730   4.003   6.366  0.5074  0.5956  0.6074
 4397SOL    HW114090   3.709   3.986   6.270 -1.1072  0.8737  0.8815
 4397SOL    HW214091   3.796   4.077   6.374  2.0776 -0.6333 -0.3309
 4398SOL     OW14092   1.393   5.132   2.500 -0.3242  0.0565 -0.5273
 4398SOL    HW114093   1.470   5.077   2.468  0.0120  0.0013  0.3495
 4398SOL    HW214094   1.320   5.131   2.431 -0.2112 -1.2528 -0.6519
 4399SOL     OW14095   3.330   0.817   1.861  0.0833  0.1041 -0.1195
 4399SOL    HW114096   3.336   0.846   1.956  1.0881  0.1745 -0.1990
 4399SOL    HW214097   3.296   0.893   1.805 -0.5487  0.0493  0.1772
 4400SOL     OW14098   3.445   5.268   4.281 -0.0706  0.2343 -0.0068
 4400SOL    HW114099   3.387   5.234   4.354  0.3697 -1.8960 -0.5914
 4400SOL    HW214100   3.538   5.232   4.292  0.2801  0.7738 -1.0026
 4401SOL     OW14101   4.390   0.410   3.387 -0.2650  0.2807  0.0713
 4401SOL    HW114102   4.370   0.418   3.484 -1.1120 -1.9265  0.1507
 4401SOL    HW214103   4.407   0.314   3.365  1.3036  0.9066 -1.7240
 4402SOL     OW14104   0.899   5.321   6.754  0.3802 -0.4712  0.5705
 4402SOL    HW114105   0.891   5.414   6.792 -2.0062 -0.9808  1.4972
 4402SOL    HW214106   0.893   5.254   6.828  1.4966 -1.4055 -0.1548
 4403SOL     OW14107   5.707   1.283   3.724 -0.2131  0.0512  0.3134
 4403SOL    HW114108   5.715   1.223   3.644  0.3642 -0.8478  1.0277
 4403SOL    HW214109   5.766   1.363   3.712 -0.0824 -0.1080 -0.1248
 4404SOL     OW14110   1.755   3.126   2.307 -0.6697 -0.1436  0.3067
 4404SOL    HW114111   1.684   3.151   2.241 -1.1409 -3.1484 -0.4943
 4404SOL    HW214112   1.738   3.172   2.394 -2.3863  0.8050 -0.4804
 4405SOL     OW14113   3.293   2.540   6.094 -0.4544 -0.4217 -0.3576
 4405SOL    HW114114   3.243   2.564   6.178  1.5476 -0.0278  0.7881
 4405SOL    HW214115   3.383   2.583   6.095 -0.1569 -0.8666 -2.4837
 4406SOL     OW14116   6.165   3.484   4.714  0.1127 -0.1610  0.2191
 4406SOL    HW114117   6.175   3.517   4.620 -0.3045 -0.9274 -0.1015
 4406SOL    HW214118   6.249   3.439   4.743 -0.3599 -1.5424 -0.4503
 4407SOL     OW14119   0.737   1.623   6.416  0.0096  0.1753  0.0118
 4407SOL    HW114120   0.803   1.568   6.364  1.2265  1.0173  0.5962
 4407SOL    HW214121   0.786   1.672   6.489 -1.5920 -0.6989  1.7439
 4408SOL     OW14122   4.173   5.975   1.144  0.4615  0.5111  0.1595
 4408SOL    HW114123   4.190   5.921   1.226  1.9349  0.0859 -0.4013
 4408SOL    HW214124   4.228   5.941   1.068 -0.0034  1.6142 -0.7175
 4409SOL     OW14125   2.974   6.417   3.197  0.0841  0.1155 -0.0918
 4409SOL    HW114126   3.024   6.358   3.134 -1.0477  0.0007 -0.9203
 4409SOL    HW214127   2.971   6.511   3.161 -1.2975 -0.1272 -0.6810
 4410SOL     OW14128   1.833   5.640   2.875 -0.1466 -0.0545 -0.2916
 4410SOL    HW114129   1.900   5.584   2.826  0.1230  2.3324 -2.8931
 4410SOL    HW214130   1.744   5.595   2.874 -0.2166  0.0012 -3.3615
 4411SOL     OW14131   3.194   3.570   1.323  0.3161 -0.4312 -0.6149
 4411SOL    HW114132   3.267   3.508   1.352  0.1545 -0.9185 -1.2253
 4411SOL    HW214133   3.106   3.533   1.353  0.3532  0.4636  0.6498
 4412SOL     OW14134   2.771   6.874   5.944 -0.8712  0.2611 -0.7444
 4412SOL    HW114135   2.775   6.919   6.034 -1.1336 -1.0500 -0.0521
 4412SOL    HW214136   2.851   6.900   5.891  0.6011 -0.8713  0.8152
 4413SOL     OW14137   3.877   6.396   3.557 -0.0116  0.5669  0.4236
 4413SOL    HW114138   3.910   6.489   3.573 -1.1417  0.8231  1.3923
 4413SOL    HW214139   3.954   6.337   3.534  0.8102  1.6016  0.4302
 4414SOL     OW14140   5.607   4.913   0.593 -0.1684 -0.6852 -0.6079
 4414SOL    HW114141   5.537   4.976   0.557  0.2153 -0.9625 -1.8822
 4414SOL    HW214142   5.597   4.824   0.549  0.2210 -1.0885  0.1125
 4415SOL     OW14143   5.154   5.983   2.782  0.3128  0.1970 -0.0845
 4415SOL    HW114144   5.109   6.068   2.810 -0.0300 -0.7040  2.3456
 4415SOL    HW214145   5.085   5.910   2.775  1.0090 -0.5969  1.0578
 4416SOL     OW14146   2.224   3.136   4.472 -0.2954 -0.4762  0.0297
 4416SOL    HW114147   2.179   3.109   4.558 -0.8266 -1.9256 -0.6825
 4416SOL    HW214148   2.300   3.074   4.454 -1.0760 -1.0946 -1.2571
 4417SOL     OW14149   5.389   0.825   1.975  0.0937  0.2710  0.4745
 4417SOL    HW114150   5.293   0.824   1.949  0.2939  0.0939 -0.2874
 4417SOL    HW214151   5.445   0.853   1.896  0.9304 -2.6357 -0.1079
 4418SOL     OW14152   2.793   0.440   1.185 -0.2525 -0.4649 -0.2861
 4418SOL    HW114153   2.887   0.444   1.152 -0.3524 -1.1092 -0.6666
 4418SOL    HW214154   2.730   0.452   1.108 -0.4841  0.2288  0.0051
 4419SOL     OW14155   6.088   6.056   6.090 -0.2263 -0.4621 -0.1856
 4419SOL    HW114156   6.093   6.106   6.004 -1.8527 -0.3185 -0.2320
 4419SOL    HW214157   6.152   5.980   6.088 -0.6496 -0.8165 -1.7699
 4420SOL     OW14158   4.607   1.140   6.127 -0.3581 -0.2256 -0.5958
 4420SOL    HW114159   4.674   1.087   6.076 -0.2812 -0.2308 -0.4895
 4420SOL    HW214160   4.650   1.224   6.160 -0.4890 -0.0783 -0.7965
 4421SOL     OW14161   2.178   0.099   4.703  0.3480 -0.1189  0.1102
 4421SOL    HW114162   2.219   0.010   4.719 -1.0640 -0.8794 -0.3491
 4421SOL    HW214163   2.203   0.132   4.611 -0.0499 -0.5750 -0.1653
 4422SOL     OW14164   2.344   3.257   5.345  0.3401 -0.0610 -0.1816
 4422SOL    HW114165   2.376   3.173   5.303 -0.9978 -0.5398 -0.3043
 4422SOL    HW214166   2.246   3.268   5.326  0.4356  1.3864  0.0512
 4423SOL     OW14167   2.185   2.334   6.631  0.0350 -0.2566 -0.5555
 4423SOL    HW114168   2.100   2.293   6.660 -0.2552 -0.7094 -1.9464
 4423SOL    HW214169   2.168   2.428   6.599  0.5017  0.5899  1.4994
 4424SOL     OW14170   1.804   5.632   2.135  0.3987  0.4149 -0.0761
 4424SOL    HW114171   1.777   5.680   2.052  1.0082  0.4969 -0.2365
 4424SOL    HW214172   1.790   5.534   2.124 -0.4134  0.5115  0.0791
 4425SOL     OW14173   5.671   4.421   1.953 -0.2480 -0.2387  0.0322
 4425SOL    HW114174   5.619   4.339   1.978  0.5355 -0.8861 -0.4095
 4425SOL    HW214175   5.734   4.444   2.027  0.8814 -1.1742 -0.5968
 4426SOL     OW14176   2.096   5.518   5.046  0.3418  0.2255 -0.0287
 4426SOL    HW114177   2.172   5.578   5.023  0.3665  0.1540 -0.1343
 4426SOL    HW214178   2.051   5.487   4.962  0.5747 -0.2171  0.0050
 4427SOL     OW14179   0.931   4.336   3.566  0.7633 -0.2938  0.5675
 4427SOL    HW114180   0.931   4.256   3.627  0.2301  0.0922  1.0884
 4427SOL    HW214181   0.852   4.394   3.588  0.2344 -0.4264 -0.8594
 4428SOL     OW14182   3.398   1.323   3.087  0.5130  0.3763  0.1844
 4428SOL    HW114183   3.381   1.262   3.164 -1.1026  2.3244  1.4558
 4428SOL    HW214184   3.405   1.417   3.119  2.4695  0.9898 -1.7730
 4429SOL     OW14185   3.022   5.653   1.515 -0.0717  0.3598 -0.3237
 4429SOL    HW114186   2.938   5.696   1.548 -1.0328 -1.6602  0.0473
 4429SOL    HW214187   3.045   5.576   1.575  0.9861 -0.2738 -1.5053
 4430SOL     OW14188   2.266   0.218   2.744  0.0818  0.1131  0.0903
 4430SOL    HW114189   2.218   0.305   2.760  0.2472  0.0555  0.9368
 4430SOL    HW214190   2.357   0.237   2.708 -0.9587  0.2057 -2.8338
 4431SOL     OW14191   0.127   1.602   1.919  0.2356 -0.1102 -0.5217
 4431SOL    HW114192   0.094   1.569   2.008  0.0488  2.2908  0.3720
 4431SOL    HW214193   0.169   1.526   1.869 -0.2694 -1.6823  1.3057
 4432SOL     OW14194   3.595   4.865   5.498  0.2351  0.3351  0.1090
 4432SOL    HW114195   3.605   4.841   5.401  1.4719 -0.9798  0.5195
 4432SOL    HW214196   3.566   4.960   5.506 -0.3207  0.3428 -1.5517
 4433SOL     OW14197   5.689   5.365   3.685 -0.3439 -0.1384  0.4167
 4433SOL    HW114198   5.591   5.346   3.695 -0.6832  1.4869  0.5176
 4433SOL    HW214199   5.732   5.293   3.631 -1.7884 -0.4029 -0.4295
 4434SOL     OW14200   4.494   0.721   5.555 -0.2081  0.2220 -0.1021
 4434SOL    HW114201   4.394   0.717   5.548 -0.1553 -2.0621 -0.3386
 4434SOL    HW214202   4.533   0.736   5.464 -0.3218  2.5278  0.1754
 4435SOL     OW14203   1.730   2.946   1.058  0.3779 -0.0144  0.0384
 4435SOL    HW114204   1.633   2.928   1.072  0.0215  1.3855 -0.4573
 4435SOL    HW214205   1.783   2.864   1.080 -0.7829 -0.3680  1.6512
 4436SOL     OW14206   6.613   6.558   0.860  0.1324  0.2952  0.3118
 4436SOL    HW114207   6.702   6.570   0.903 -0.8633 -0.0894  2.6659
 4436SOL    HW214208   6.618   6.485   0.791  1.9618  1.4202 -0.8143
 4437SOL     OW14209   2.091   6.392   0.744  0.2306 -0.3592 -0.0015
 4437SOL    HW114210   2.099   6.302   0.788 -1.4251 -0.2090  0.6882
 4437SOL    HW214211   2.180   6.421   0.711  1.5846 -0.5894  3.1136
 4438SOL     OW14212   2.484   3.893   5.932 -0.8173  0.2119 -0.1395
 4438SOL    HW114213   2.494   3.940   6.020  0.2836  1.9136 -1.1059
 4438SOL    HW214214   2.418   3.942   5.876  0.1126  0.4635 -1.0529
 4439SOL     OW14215   6.807   6.004   2.482 -0.0644  0.4091  0.1487
 4439SOL    HW114216   6.848   5.943   2.550 -0.1143  0.9664  0.6799
 4439SOL    HW214217   6.757   5.949   2.415  1.7117 -0.2889 -0.6446
 4440SOL     OW14218   5.012   2.615   6.670  0.2006 -0.0264  0.4339
 4440SOL    HW114219   5.110   2.597   6.669  0.0436 -1.1229  1.8213
 4440SOL    HW214220   4.993   2.701   6.623  1.8060  0.1521  0.0679
 4441SOL     OW14221   5.729   1.075   4.765 -0.2756  0.0212 -0.4324
 4441SOL    HW114222   5.768   1.053   4.676  1.0524 -0.1572  0.1635
 4441SOL    HW214223   5.641   1.029   4.776 -1.2384  1.3356 -2.2587
 4442SOL     OW14224   0.666   6.712   3.109  0.2712  0.4451  0.4818
 4442SOL    HW114225   0.632   6.727   3.202  1.9863  2.9224  0.7982
 4442SOL    HW214226   0.603   6.754   3.044 -0.9782 -1.3660  0.4211
 4443SOL     OW14227   2.481   1.135   1.070 -0.8872 -0.7589  0.8682
 4443SOL    HW114228   2.546   1.092   1.132  0.3709  1.9253  1.5677
 4443SOL    HW214229   2.530   1.180   0.995 -2.0102  0.2678  0.7133
 4444SOL     OW14230   3.865   1.475   1.795 -0.2708  0.3353  0.1697
 4444SOL    HW114231   3.852   1.571   1.822  2.7462  0.6916  0.6961
 4444SOL    HW214232   3.869   1.469   1.695  0.1565  0.8879  0.1470
 4445SOL     OW14233   2.732   2.031   5.927  0.1217 -0.1004 -0.1736
 4445SOL    HW114234   2.741   2.027   5.828 -1.2150  1.5835 -0.4118
 4445SOL    HW214235   2.788   2.106   5.963 -0.1694 -0.0707  0.2296
 4446SOL     OW14236   6.221   0.152   4.039 -0.2867  0.0473 -0.1726
 4446SOL    HW114237   6.188   0.232   4.089  0.0921  0.2181 -0.1949
 4446SOL    HW214238   6.191   0.158   3.943 -1.2247 -0.4030  0.0774
 4447SOL     OW14239   6.730   5.216   4.636  0.0765 -0.3819  0.3352
 4447SOL    HW114240   6.804   5.241   4.698 -0.6288  0.0654  1.0183
 4447SOL    HW214241   6.683   5.298   4.604 -0.8344 -0.6917  0.8106
 4448SOL     OW14242   2.287   3.185   6.772  0.1303  0.2595  0.4888
 4448SOL    HW114243   2.225   3.162   6.846 -0.5132  0.3533 -0.0127
 4448SOL    HW214244   2.318   3.102   6.726 -0.8770  0.2784 -0.2595
 4449SOL     OW14245   6.674   1.840   3.739 -0.3066 -0.4549  0.1987
 4449SOL    HW114246   6.748   1.821   3.803  1.3336  1.4289 -1.0236
 4449SOL    HW214247   6.671   1.769   3.669 -0.9147 -1.5347  1.2882
 4450SOL     OW14248   3.830   2.927   4.188  0.0227  0.6036  0.1077
 4450SOL    HW114249   3.756   2.963   4.131  0.1747  0.9700  0.1399
 4450SOL    HW214250   3.883   3.003   4.226 -0.1340  0.3611  0.8140
 4451SOL     OW14251   1.563   5.153   0.478 -0.4713  0.2536  0.4393
 4451SOL    HW114252   1.612   5.193   0.401  1.3062 -0.9631  0.8714
 4451SOL    HW214253   1.514   5.224   0.528 -2.1241  1.0051 -2.0846
 4452SOL     OW14254   2.062   0.774   6.437  0.2458  0.1932 -0.2419
 4452SOL    HW114255   2.071   0.869   6.467 -0.0873 -0.1421  0.9667
 4452SOL    HW214256   2.094   0.713   6.509 -1.2156 -0.6512 -0.2721
 4453SOL     OW14257   4.422   1.623   6.935  0.0582 -0.1912 -0.1968
 4453SOL    HW114258   4.453   1.647   7.027 -1.0081  0.9077 -0.0916
 4453SOL    HW214259   4.326   1.594   6.938  0.0605 -0.3056 -0.9406
 4454SOL     OW14260   5.080   3.896   2.810 -0.0541 -0.0062 -0.4806
 4454SOL    HW114261   5.049   3.801   2.796 -0.5159 -0.1754  1.4592
 4454SOL    HW214262   5.017   3.942   2.872  1.4192  0.8809  0.4036
 4455SOL     OW14263   5.833   3.951   3.766 -0.3151 -0.0876  0.3345
 4455SOL    HW114264   5.866   3.943   3.672  0.9922  0.6875  0.7074
 4455SOL    HW214265   5.803   3.861   3.798 -0.2758 -0.4595 -0.6288
 4456SOL     OW14266   6.525   6.285   2.497  0.2795 -0.2279  0.1428
 4456SOL    HW114267   6.580   6.224   2.552  3.2722  1.4350 -0.7772
 4456SOL    HW214268   6.553   6.380   2.514  0.0992  0.4658 -2.8734
 4457SOL     OW14269   5.528   1.686   5.832 -0.1360  0.1414  0.1459
 4457SOL    HW114270   5.459   1.754   5.807 -0.0158 -0.1840 -1.1694
 4457SOL    HW214271   5.483   1.604   5.866 -0.5208 -0.6001 -2.0122
 4458SOL     OW14272   4.472   1.771   0.552 -0.4447 -0.3310  0.1725
 4458SOL    HW114273   4.471   1.724   0.640 -2.9390  0.9659  0.9321
 4458SOL    HW214274   4.451   1.868   0.566 -0.5511 -0.0330 -1.8161
 4459SOL     OW14275   0.356   4.577   1.037  0.1881 -0.2027 -0.0713
 4459SOL    HW114276   0.365   4.672   1.067 -3.7126 -0.0182  1.1056
 4459SOL    HW214277   0.360   4.574   0.937 -0.6588  1.4203 -0.1941
 4460SOL     OW14278   0.762   5.945   6.131  0.1396 -0.1881 -0.3825
 4460SOL    HW114279   0.705   5.936   6.049  1.9049 -0.2387 -1.6600
 4460SOL    HW214280   0.854   5.913   6.111  0.2200 -1.8185  2.1476
 4461SOL     OW14281   1.697   0.722   2.374  0.2725  0.1832 -0.5010
 4461SOL    HW114282   1.754   0.683   2.446  0.2286 -0.7641 -0.9734
 4461SOL    HW214283   1.705   0.822   2.376  0.4359  0.1604  0.6718
 4462SOL     OW14284   0.173   3.981   3.024 -0.1721  0.2443  0.1575
 4462SOL    HW114285   0.168   4.065   3.079 -0.4552 -0.8689  1.9120
 4462SOL    HW214286   0.083   3.964   2.984 -0.1790  0.6514 -0.0109
 4463SOL     OW14287   5.699   3.765   6.229 -0.2945  0.2925  0.4623
 4463SOL    HW114288   5.710   3.859   6.260 -2.9254  0.6048  0.7410
 4463SOL    HW214289   5.609   3.755   6.186  0.2484 -1.9251 -0.3082
 4464SOL     OW14290   6.954   2.720   1.559  0.2910  0.4261  0.0165
 4464SOL    HW114291   6.857   2.699   1.550  0.2112  0.1211  1.4351
 4464SOL    HW214292   7.002   2.641   1.598  1.0554  0.7132 -0.3124
 4465SOL     OW14293   6.878   2.915   0.841 -0.0134  0.4644 -0.0881
 4465SOL    HW114294   6.847   2.916   0.936  1.3460  1.2799  0.3626
 4465SOL    HW214295   6.977   2.912   0.838  0.2134  4.1896 -1.3898
 4466SOL     OW14296   0.342   3.850   4.048  0.3128  0.3542  0.4510
 4466SOL    HW114297   0.368   3.787   4.122  0.8713  0.2485  0.1627
 4466SOL    HW214298   0.353   3.944   4.079  3.1112  0.3624 -0.3439
 4467SOL     OW14299   1.496   6.999   4.576  0.0305 -0.7370  0.1649
 4467SOL    HW114300   1.399   7.015   4.558 -0.0154 -1.0456  0.1279
 4467SOL    HW214301   1.551   7.064   4.524 -0.0858 -1.8682 -1.4479
 4468SOL     OW14302   1.577   1.362   6.884 -0.0255  0.0826 -0.3835
 4468SOL    HW114303   1.507   1.406   6.941  1.1190 -1.0521  2.0599
 4468SOL    HW214304   1.627   1.432   6.832 -2.1253  1.0119 -1.2399
 4469SOL     OW14305   4.963   4.638   0.256 -0.2912 -0.3560 -0.3858
 4469SOL    HW114306   5.019   4.719   0.269 -1.8827  1.1775 -2.4956
 4469SOL    HW214307   5.013   4.571   0.202 -0.8150  1.5522 -3.4594
 4470SOL     OW14308   4.265   5.639   2.615 -0.2243  0.1125  0.3900
 4470SOL    HW114309   4.339   5.692   2.573 -0.3349  0.8961  1.1660
 4470SOL    HW214310   4.304   5.559   2.662  0.1154  0.4154  0.6306
 4471SOL     OW14311   6.603   1.803   1.054 -0.2814  0.2924  0.2104
 4471SOL    HW114312   6.588   1.706   1.035  0.4854 -0.1814  1.8188
 4471SOL    HW214313   6.691   1.814   1.100  0.2191  1.9232 -1.0649
 4472SOL     OW14314   2.437   3.854   0.772 -0.6577  0.5099 -0.2007
 4472SOL    HW114315   2.478   3.767   0.801 -0.7245  1.0417  1.5898
 4472SOL    HW214316   2.371   3.884   0.840 -0.2112  2.2710 -0.4890
 4473SOL     OW14317   4.621   6.684   1.156  0.0052 -0.5736  0.1820
 4473SOL    HW114318   4.687   6.724   1.092 -0.4414 -0.5019 -0.2399
 4473SOL    HW214319   4.528   6.701   1.123 -0.2021 -2.1489 -0.1291
 4474SOL     OW14320   6.320   1.792   3.793  0.2770  0.1569 -0.1105
 4474SOL    HW114321   6.395   1.845   3.753  0.7989 -0.4400  0.0640
 4474SOL    HW214322   6.356   1.732   3.864 -0.3847 -0.0692  0.0426
 4475SOL     OW14323   2.422   3.181   0.241 -0.3813  0.4483 -0.3827
 4475SOL    HW114324   2.346   3.239   0.270  0.7710  0.9450  1.9393
 4475SOL    HW214325   2.390   3.087   0.229 -1.2012  0.4157  1.6660
 4476SOL     OW14326   3.237   5.537   3.277  0.4133 -0.2535  0.1546
 4476SOL    HW114327   3.246   5.633   3.250  0.7789 -0.3759 -0.1625
 4476SOL    HW214328   3.147   5.503   3.250  0.4441 -0.1208 -0.1137
 4477SOL     OW14329   0.650   0.879   1.391  0.3813  0.2657 -0.0093
 4477SOL    HW114330   0.567   0.880   1.335 -0.1740 -1.1705  0.7473
 4477SOL    HW214331   0.672   0.973   1.418 -1.8739  0.5865  1.0181
 4478SOL     OW14332   1.660   4.464   6.672 -0.1046 -0.0255  0.0241
 4478SOL    HW114333   1.717   4.490   6.750 -0.0098 -0.3808  0.0750
 4478SOL    HW214334   1.650   4.364   6.670 -0.6912  0.0301 -0.0076
 4479SOL     OW14335   0.467   5.140   0.612 -0.0109  0.2390  0.1415
 4479SOL    HW114336   0.409   5.188   0.545  0.0402  1.0776  0.6831
 4479SOL    HW214337   0.410   5.104   0.685  0.0113 -0.0891  0.0002
 4480SOL     OW14338   6.352   4.563   4.812 -0.3776 -0.9589 -0.2856
 4480SOL    HW114339   6.437   4.562   4.760  0.3413  1.0043  0.7451
 4480SOL    HW214340   6.274   4.566   4.749  0.2656 -2.7901 -1.2389
 4481SOL     OW14341   3.122   0.642   3.597 -1.1373 -0.6059  0.3850
 4481SOL    HW114342   3.080   0.578   3.532 -1.3859 -0.6651  0.6015
 4481SOL    HW214343   3.197   0.597   3.645 -0.6992 -0.4423 -0.1402
 4482SOL     OW14344   4.849   4.283   3.684  0.4263  0.1733  0.1598
 4482SOL    HW114345   4.909   4.203   3.689 -0.1835 -0.2685  0.6905
 4482SOL    HW214346   4.754   4.253   3.692  0.1844  0.9528  0.2881
 4483SOL     OW14347   6.830   3.468   2.205 -0.3064 -0.4090  0.2364
 4483SOL    HW114348   6.747   3.525   2.203  1.3829  2.1969 -0.7355
 4483SOL    HW214349   6.825   3.400   2.132 -1.2544  0.2354 -0.3342
 4484SOL     OW14350   3.209   5.122   5.639  0.8063 -0.6028  0.1165
 4484SOL    HW114351   3.222   5.148   5.735  0.1236  1.2356 -0.2658
 4484SOL    HW214352   3.197   5.022   5.634  0.0806 -0.6639  2.0293
 4485SOL     OW14353   4.032   0.157   6.240  0.5100  0.6007  0.2468
 4485SOL    HW114354   4.029   0.061   6.268 -0.1193  0.2057 -1.0716
 4485SOL    HW214355   4.103   0.169   6.171 -0.9748  0.5153 -1.3912
 4486SOL     OW14356   6.371   3.366   3.583 -0.5494  0.4169  0.1610
 4486SOL    HW114357   6.462   3.360   3.543  0.2972  0.5064  1.9527
 4486SOL    HW214358   6.319   3.283   3.560  0.4431 -0.2294  0.1675
 4487SOL     OW14359   3.384   2.993   6.120  0.2877  0.2857 -0.1740
 4487SOL    HW114360   3.399   3.035   6.210  0.6991 -1.2866  0.5233
 4487SOL    HW214361   3.466   2.943   6.093 -1.0084 -2.2375  0.2499
 4488SOL     OW14362   0.452   3.424   5.806 -0.0690 -0.3917 -0.8399
 4488SOL    HW114363   0.552   3.422   5.804 -0.0212  0.1136  0.4199
 4488SOL    HW214364   0.420   3.423   5.901 -1.1880  1.9507 -1.1173
 4489SOL     OW14365   6.527   3.818   3.075 -0.0735 -0.8885 -0.1102
 4489SOL    HW114366   6.568   3.892   3.020 -0.3079  0.0997  1.0226
 4489SOL    HW214367   6.432   3.840   3.095  0.0310 -1.2043  0.7538
 4490SOL     OW14368   6.954   0.847   3.962 -0.7448 -0.2528 -1.0052
 4490SOL    HW114369   6.994   0.858   4.053 -0.8882  0.5992 -1.0426
 4490SOL    HW214370   6.871   0.791   3.969 -0.0931 -1.2322 -0.7956
 4491SOL     OW14371   2.710   4.821   1.915 -0.1590 -0.0062 -0.3608
 4491SOL    HW114372   2.703   4.798   1.817  3.4899 -0.2755 -0.6867
 4491SOL    HW214373   2.730   4.738   1.967 -1.7067  0.2032  0.6610
 4492SOL     OW14374   0.684   2.168   6.867 -0.3568  0.0610  0.3821
 4492SOL    HW114375   0.744   2.221   6.926 -0.2034 -0.1457  0.4143
 4492SOL    HW214376   0.659   2.082   6.912  0.4419 -0.4827 -0.1831
 4493SOL     OW14377   5.775   4.652   3.683  0.5203 -0.0741 -0.0342
 4493SOL    HW114378   5.676   4.643   3.684  0.2302  2.2987 -0.3060
 4493SOL    HW214379   5.807   4.682   3.773  0.7873  0.6350 -0.3531
 4494SOL     OW14380   5.944   2.243   0.934  0.1399 -0.8263 -0.0808
 4494SOL    HW114381   5.877   2.314   0.912  1.4461  0.0574 -1.4451
 4494SOL    HW214382   6.036   2.282   0.929  0.9283 -2.7088 -1.2653
 4495SOL     OW14383   0.891   6.608   1.575  0.6806  0.4671 -1.0516
 4495SOL    HW114384   0.924   6.592   1.668  0.4575 -0.3574 -1.1114
 4495SOL    HW214385   0.793   6.590   1.570  0.8124 -0.1349 -1.5991
 4496SOL     OW14386   0.067   4.201   4.397  0.6109 -0.3624  0.3957
 4496SOL    HW114387   0.037   4.242   4.311  0.0276  0.0646  0.7893
 4496SOL    HW214388   0.106   4.111   4.379  1.5931  0.2092 -0.4485
 4497SOL     OW14389   5.552   5.422   5.686 -0.2435 -0.3515  0.1918
 4497SOL    HW114390   5.560   5.382   5.595  0.2943  0.1082  0.0346
 4497SOL    HW214391   5.575   5.354   5.755  0.2160 -0.4497 -0.0542
 4498SOL     OW14392   0.969   5.554   6.065 -0.4069 -0.6085  0.0224
 4498SOL    HW114393   0.959   5.588   5.971  1.7153 -0.7819 -0.3244
 4498SOL    HW214394   0.879   5.535   6.104 -1.3184 -1.3047 -2.2582
 4499SOL     OW14395   5.788   4.474   1.426  0.6945  0.0700  0.3718
 4499SOL    HW114396   5.717   4.406   1.413  1.1882 -0.4543  0.3887
 4499SOL    HW214397   5.870   4.447   1.375  0.6942  0.9574 -0.1222
 4500SOL     OW14398   3.468   3.865   2.079 -0.0676 -0.4212  0.5092
 4500SOL    HW114399   3.406   3.941   2.096 -0.5649 -0.8413  0.6254
 4500SOL    HW214400   3.562   3.895   2.091 -0.1619  0.5834 -1.0177
 4501SOL     OW14401   0.982   5.134   6.373  0.4837 -0.2996  0.0238
 4501SOL    HW114402   1.020   5.053   6.419  1.1136 -0.1107 -0.1583
 4501SOL    HW214403   0.888   5.148   6.405  0.1874 -1.3920 -0.3070
 4502SOL     OW14404   5.495   2.828   6.645  0.6339 -0.2959 -0.6975
 4502SOL    HW114405   5.446   2.915   6.644 -0.4275 -0.8766 -2.0613
 4502SOL    HW214406   5.535   2.811   6.555  2.0335 -0.5837 -0.0447
 4503SOL     OW14407   0.581   4.653   3.150 -0.1374  0.6147 -0.1349
 4503SOL    HW114408   0.635   4.607   3.080  0.5308 -0.1330  0.8383
 4503SOL    HW214409   0.587   4.752   3.137  1.0313  0.5298 -0.3740
 4504SOL     OW14410   6.248   2.302   5.583 -0.0249 -0.6126  0.3514
 4504SOL    HW114411   6.268   2.381   5.641  0.6208 -0.8478  0.4537
 4504SOL    HW214412   6.245   2.330   5.487 -2.1996  0.0036  0.5418
 4505SOL     OW14413   2.792   5.425   0.502 -0.6421 -0.1080 -0.3546
 4505SOL    HW114414   2.813   5.401   0.407 -3.3961 -0.8834 -0.8496
 4505SOL    HW214415   2.867   5.393   0.561  2.4491  2.7091 -2.3719
 4506SOL     OW14416   3.719   5.907   5.319  0.0297 -0.5492 -0.5096
 4506SOL    HW114417   3.663   5.990   5.324  0.6858 -0.0762 -0.8879
 4506SOL    HW214418   3.708   5.865   5.229  0.3228 -0.4229 -0.6051
 4507SOL     OW14419   6.208   5.996   2.091  0.3619  0.4142 -0.1286
 4507SOL    HW114420   6.282   5.929   2.080  0.9841  0.9047  0.8486
 4507SOL    HW214421   6.191   6.041   2.004  1.2059  0.2682 -0.3846
 4508SOL     OW14422   0.469   3.138   0.202  0.1875  0.0205  0.4334
 4508SOL    HW114423   0.476   3.039   0.187  1.0028  0.4073 -2.4068
 4508SOL    HW214424   0.542   3.184   0.152 -0.3891  2.1168  1.4141
 4509SOL     OW14425   6.891   3.984   4.524  0.6154 -0.4189  0.5318
 4509SOL    HW114426   6.968   4.045   4.546  0.7765 -0.8448  1.1977
 4509SOL    HW214427   6.913   3.930   4.443 -0.4485  2.0067 -1.5309
 4510SOL     OW14428   2.427   0.139   0.429  0.2452  0.3999  0.0491
 4510SOL    HW114429   2.470   0.087   0.503  1.0466  0.7765 -0.1335
 4510SOL    HW214430   2.333   0.161   0.453  0.6995  1.1080  1.2677
 4511SOL     OW14431   1.181   3.576   0.449  0.1757 -0.2330  0.2164
 4511SOL    HW114432   1.266   3.527   0.473  0.6443  0.8559  0.8293
 4511SOL    HW214433   1.186   3.605   0.353  0.7993  0.3980  0.4273
 4512SOL     OW14434   0.614   5.208   0.967  0.0997 -0.0833  0.0469
 4512SOL    HW114435   0.581   5.114   0.959  1.8685 -0.7021 -0.3696
 4512SOL    HW214436   0.580   5.247   1.052 -0.3966 -1.2100  0.3953
 4513SOL     OW14437   5.339   0.564   4.083 -0.5027  0.3935  0.0167
 4513SOL    HW114438   5.277   0.491   4.054 -2.9344  0.7033  3.7446
 4513SOL    HW214439   5.428   0.525   4.105 -0.3886 -0.6571 -2.0254
 4514SOL     OW14440   1.661   6.052   5.049  0.4407  0.1508  0.3474
 4514SOL    HW114441   1.596   5.999   4.995  1.0322  0.5871 -0.8347
 4514SOL    HW214442   1.713   5.991   5.108 -0.1625 -0.3517  0.3685
 4515SOL     OW14443   0.653   5.243   0.228 -0.0774 -0.6771  0.0392
 4515SOL    HW114444   0.589   5.167   0.237 -1.2234  0.4251  1.7078
 4515SOL    HW214445   0.605   5.324   0.195  1.0991 -0.5960 -1.5850
 4516SOL     OW14446   0.439   6.913   3.065  0.2263 -0.0920  0.0631
 4516SOL    HW114447   0.415   6.958   3.151 -0.0528 -2.2703  1.2044
 4516SOL    HW214448   0.370   6.935   2.995 -0.0547  0.9502  0.6408
 4517SOL     OW14449   2.050   7.011   6.980 -0.3319  0.0039 -0.4198
 4517SOL    HW114450   2.079   6.940   7.044  0.3712  0.8742  0.2507
 4517SOL    HW214451   2.043   6.972   6.888  2.9528 -0.3233 -0.6506
 4518SOL     OW14452   2.000   6.869   3.733  0.0034 -0.0375  0.2681
 4518SOL    HW114453   1.967   6.939   3.795 -2.1679 -1.0317  0.3363
 4518SOL    HW214454   1.990   6.900   3.638  1.4679  0.7063  0.3331
 4519SOL     OW14455   5.569   1.374   3.959  0.5844  0.0458  0.5413
 4519SOL    HW114456   5.638   1.403   4.025 -0.3406 -2.7798  2.9453
 4519SOL    HW214457   5.614   1.326   3.883  1.4534  0.6575  0.6564
 4520SOL     OW14458   6.612   4.608   2.911  1.2620  0.0782 -0.0215
 4520SOL    HW114459   6.557   4.549   2.851 -0.3586  1.3734  0.1261
 4520SOL    HW214460   6.593   4.585   3.006 -0.0410  1.3403  0.0600
 4521SOL     OW14461   6.730   1.480   0.633  0.6633  0.1879  0.8539
 4521SOL    HW114462   6.690   1.428   0.557  1.7624 -0.9093  1.0008
 4521SOL    HW214463   6.657   1.523   0.686 -0.1770  0.0948 -0.2061
 4522SOL     OW14464   6.514   6.803   2.977 -0.0425 -0.2368  0.1906
 4522SOL    HW114465   6.595   6.758   2.939  0.5171  0.8815  0.0168
 4522SOL    HW214466   6.535   6.839   3.068 -0.9604 -1.6716  1.0057
 4523SOL     OW14467   3.071   3.249   6.275  0.3347  0.4529 -0.6632
 4523SOL    HW114468   3.094   3.157   6.245  1.3745  0.1815  0.8622
 4523SOL    HW214469   2.975   3.252   6.302  0.1563 -0.0342 -1.2147
 4524SOL     OW14470   5.937   2.606   5.360 -0.0939  0.1350 -0.1371
 4524SOL    HW114471   5.960   2.578   5.453  0.7859  1.2481  0.0156
 4524SOL    HW214472   5.843   2.580   5.339  0.0415 -1.0797  0.6750
 4525SOL     OW14473   6.420   2.309   3.608  0.4656 -0.1535 -0.4360
 4525SOL    HW114474   6.355   2.321   3.533  0.4466  0.7111 -0.2851
 4525SOL    HW214475   6.376   2.260   3.683  0.7317 -1.8208 -1.3059
 4526SOL     OW14476   1.823   0.185   1.088 -0.6402  0.3503 -0.4625
 4526SOL    HW114477   1.811   0.268   1.033 -1.5490 -0.1347 -1.0351
 4526SOL    HW214478   1.735   0.139   1.098 -0.3652  0.0748  0.8722
 4527SOL     OW14479   4.137   0.184   1.767 -0.1064  0.5395 -0.1426
 4527SOL    HW114480   4.088   0.107   1.726  1.2265  0.5499 -1.8869
 4527SOL    HW214481   4.074   0.238   1.823 -2.0397  0.4899 -2.1501
 4528SOL     OW14482   4.796   6.644   5.223 -0.0095  0.1524 -0.0957
 4528SOL    HW114483   4.874   6.623   5.164 -0.1371 -3.7275  0.8207
 4528SOL    HW214484   4.829   6.689   5.306  1.2334 -0.7602 -0.0507
 4529SOL     OW14485   1.818   6.001   3.348  0.0222 -0.4517  0.7778
 4529SOL    HW114486   1.901   6.016   3.295 -0.9934 -0.3473 -0.8319
 4529SOL    HW214487   1.749   5.955   3.291 -1.5888  0.8888  1.5570
 4530SOL     OW14488   4.782   2.686   4.168 -0.3812 -1.2781  0.8040
 4530SOL    HW114489   4.871   2.727   4.186 -1.8656  2.0445  1.2200
 4530SOL    HW214490   4.732   2.675   4.255 -1.4188 -0.4473  0.3291
 4531SOL     OW14491   6.072   4.961   3.644  0.0170  0.5614  0.4213
 4531SOL    HW114492   6.082   5.060   3.652 -1.0732  0.6547  0.9206
 4531SOL    HW214493   5.998   4.941   3.579  0.8090  0.0479 -0.3369
 4532SOL     OW14494   6.851   1.561   2.640  0.4617 -0.0140 -0.1946
 4532SOL    HW114495   6.856   1.481   2.580  0.5821 -0.2778  0.1634
 4532SOL    HW214496   6.844   1.644   2.585 -0.0214 -0.2945 -0.5675
 4533SOL     OW14497   2.423   5.580   0.253 -0.2583 -0.5109  0.1263
 4533SOL    HW114498   2.406   5.484   0.230  0.7244 -0.2338 -1.9532
 4533SOL    HW214499   2.510   5.588   0.301  0.4281 -0.5192 -1.0892
 4534SOL     OW14500   5.904   4.930   0.312  0.8430 -0.1778  0.0595
 4534SOL    HW114501   5.882   5.028   0.315  0.3806 -0.2721 -0.1291
 4534SOL    HW214502   5.821   4.877   0.330  0.9776 -0.5438 -0.3893
 4535SOL     OW14503   4.627   6.230   1.724 -0.4682  0.0190  0.4067
 4535SOL    HW114504   4.712   6.283   1.728  0.1147 -0.8472 -0.1077
 4535SOL    HW214505   4.649   6.133   1.714 -1.5228 -0.2629  0.6732
 4536SOL     OW14506   0.701   1.114   3.704 -0.6453  0.2333 -0.0977
 4536SOL    HW114507   0.780   1.175   3.699 -0.5472  0.0547 -1.0757
 4536SOL    HW214508   0.698   1.057   3.621 -0.9244 -0.8570  0.6352
 4537SOL     OW14509   5.077   1.546   5.142  0.0655  0.2469 -0.3379
 4537SOL    HW114510   5.153   1.483   5.157 -0.4197  0.0630  1.7039
 4537SOL    HW214511   5.108   1.640   5.155 -0.1894  0.1254  1.4013
 4538SOL     OW14512   2.807   0.950   0.206 -0.7566  0.0716  0.2101
 4538SOL    HW114513   2.842   1.038   0.237  0.8891 -0.7077  0.7095
 4538SOL    HW214514   2.851   0.926   0.119 -0.4925 -0.6587  0.5408
 4539SOL     OW14515   1.353   6.080   1.033  1.0718  0.2005 -0.0496
 4539SOL    HW114516   1.445   6.102   1.067  1.0197 -0.5845  0.6219
 4539SOL    HW214517   1.360   6.015   0.958  0.9729 -3.6452  2.9551
 4540SOL     OW14518   3.244   3.734   2.174 -0.0975 -0.2651  0.1475
 4540SOL    HW114519   3.154   3.774   2.196  0.8913  1.1289  1.9394
 4540SOL    HW214520   3.308   3.807   2.151  0.8915 -1.1366  0.0504
 4541SOL     OW14521   4.767   0.990   1.960 -0.4479  0.3638  0.0842
 4541SOL    HW114522   4.861   0.962   1.978 -0.1257  2.0476  1.2251
 4541SOL    HW214523   4.764   1.043   1.875 -0.0849  1.5246  0.7718
 4542SOL     OW14524   4.799   5.132   5.756  0.0269 -0.1112 -0.2612
 4542SOL    HW114525   4.794   5.134   5.856  1.3125 -0.1065 -0.1894
 4542SOL    HW214526   4.756   5.215   5.720  0.6190  0.4686  0.3385
 4543SOL     OW14527   4.504   1.878   2.625  0.0208  0.1507 -0.0787
 4543SOL    HW114528   4.551   1.953   2.580  1.8805 -0.1339  1.3020
 4543SOL    HW214529   4.413   1.908   2.654  0.5719  1.7186  0.0768
 4544SOL     OW14530   6.797   4.896   1.641 -0.6249 -0.3777 -0.3604
 4544SOL    HW114531   6.775   4.799   1.635  1.2055 -0.7610 -1.8076
 4544SOL    HW214532   6.716   4.951   1.620 -1.2153 -1.6204 -1.4303
 4545SOL     OW14533   5.689   4.577   0.906  0.1859  0.1708 -0.2195
 4545SOL    HW114534   5.760   4.563   0.836 -0.5017 -0.1571 -0.8686
 4545SOL    HW214535   5.690   4.673   0.935  2.0583 -0.1823  1.0900
 4546SOL     OW14536   6.705   6.120   6.763 -0.1685  0.1859 -0.4897
 4546SOL    HW114537   6.629   6.065   6.798 -0.2578  0.3277 -0.4613
 4546SOL    HW214538   6.779   6.121   6.831  0.2096 -0.6539 -0.8672
 4547SOL     OW14539   4.799   0.793   1.151 -0.3292  0.2272 -0.3871
 4547SOL    HW114540   4.717   0.739   1.169 -1.7956  1.8684 -1.8093
 4547SOL    HW214541   4.839   0.765   1.064  1.2363 -1.2272  0.7507
 4548SOL     OW14542   2.533   2.438   2.816  0.3798 -0.1734 -0.6887
 4548SOL    HW114543   2.496   2.378   2.746 -1.0986  1.2631 -1.2009
 4548SOL    HW214544   2.501   2.532   2.801  0.7302  0.3457  1.3949
 4549SOL     OW14545   5.351   1.245   1.838  0.3575  0.2311  0.6527
 4549SOL    HW114546   5.306   1.270   1.924 -1.7149  1.8879 -0.8241
 4549SOL    HW214547   5.283   1.213   1.772  1.5572  1.0762 -1.0888
 4550SOL     OW14548   1.707   5.557   5.751 -0.5363  0.2488 -0.0754
 4550SOL    HW114549   1.689   5.533   5.847  0.5900  1.3462  0.4414
 4550SOL    HW214550   1.753   5.646   5.747 -1.1462  0.5296 -1.6869
 4551SOL     OW14551   6.381   3.684   1.119 -0.4563 -0.4578 -0.3689
 4551SOL    HW114552   6.420   3.592   1.116  2.1563  0.5387 -0.2040
 4551SOL    HW214553   6.367   3.717   1.025 -0.8715 -0.8059 -0.4328
 4552SOL     OW14554   6.323   4.172   3.882 -0.4931 -0.1991 -1.0566
 4552SOL    HW114555   6.392   4.114   3.839 -0.5671 -1.4988  0.5085
 4552SOL    HW214556   6.232   4.135   3.864 -0.6866  0.5708 -1.7149
 4553SOL     OW14557   5.974   3.664   5.927  0.0388 -0.3266  0.0463
 4553SOL    HW114558   5.890   3.617   5.955  0.4853 -0.3122  1.5099
 4553SOL    HW214559   6.040   3.662   6.002  1.5476 -0.7460 -1.2309
 4554SOL     OW14560   0.820   3.860   3.455 -0.5867  0.0450 -0.2359
 4554SOL    HW114561   0.903   3.813   3.424 -1.0376 -0.4519 -0.7083
 4554SOL    HW214562   0.838   3.905   3.543 -0.0110 -0.6248  0.0004
 4555SOL     OW14563   4.050   2.989   5.729 -0.5790 -0.3352 -0.3087
 4555SOL    HW114564   4.136   2.990   5.781  0.1025 -0.4265 -1.4023
 4555SOL    HW214565   4.022   3.083   5.710 -0.5035 -0.3129 -0.3109
 4556SOL     OW14566   2.570   0.757   3.634 -0.0284 -0.1287 -0.2367
 4556SOL    HW114567   2.653   0.786   3.587 -0.7217  0.0980 -1.3602
 4556SOL    HW214568   2.531   0.834   3.684  0.3416 -0.1937  0.1576
 4557SOL     OW14569   6.656   1.216   4.361  0.2880  0.3402  0.8253
 4557SOL    HW114570   6.696   1.249   4.446  2.3883  1.5099 -0.5443
 4557SOL    HW214571   6.672   1.282   4.287 -2.2477 -0.2091 -0.3552
 4558SOL     OW14572   1.247   2.694   1.185  0.6053 -0.2292  0.2177
 4558SOL    HW114573   1.271   2.700   1.089  0.9679 -0.0706  0.3181
 4558SOL    HW214574   1.302   2.758   1.238  0.0751  0.0231  0.4713
 4559SOL     OW14575   2.970   0.589   0.008 -0.0796 -0.1992 -0.2563
 4559SOL    HW114576   2.873   0.586   0.031 -0.4528 -0.2428 -1.7303
 4559SOL    HW214577   2.981   0.614  -0.089  1.3749 -0.1935 -0.1156
 4560SOL     OW14578   4.700   2.385   5.058 -0.1179 -0.1821  0.1437
 4560SOL    HW114579   4.753   2.353   4.979  1.5279  0.9127  0.7553
 4560SOL    HW214580   4.626   2.445   5.026 -0.3433 -0.8548 -0.6435
 4561SOL     OW14581   3.285   0.894   4.803 -0.0023 -0.3197 -0.7109
 4561SOL    HW114582   3.206   0.837   4.782  1.0471 -1.9529 -0.3786
 4561SOL    HW214583   3.318   0.938   4.719 -1.0559  0.1480 -0.8983
 4562SOL     OW14584   2.392   4.564   0.050 -0.3323 -0.0108 -0.3765
 4562SOL    HW114585   2.370   4.469   0.031 -0.9156  0.1188 -0.3596
 4562SOL    HW214586   2.323   4.624   0.009  0.2996  0.4305 -0.8095
 4563SOL     OW14587   5.772   0.656   0.755  0.0928 -0.4317 -0.7173
 4563SOL    HW114588   5.852   0.653   0.695 -0.0528  0.3949 -0.9501
 4563SOL    HW214589   5.746   0.751   0.773  0.7027 -0.6003  1.4011
 4564SOL     OW14590   6.338   0.321   2.623  0.5118 -0.3623 -0.3491
 4564SOL    HW114591   6.404   0.251   2.597  0.1729 -0.7382 -0.2128
 4564SOL    HW214592   6.253   0.277   2.654  0.4593  0.1002  0.1781
 4565SOL     OW14593   4.516   6.576   4.205  0.0963  0.3562 -0.1725
 4565SOL    HW114594   4.427   6.600   4.166  0.2502  0.1023 -0.7022
 4565SOL    HW214595   4.584   6.572   4.131  0.3267 -0.4619  0.0689
 4566SOL     OW14596   0.956   1.152   1.727  0.0486  0.0210  0.0894
 4566SOL    HW114597   0.890   1.081   1.752  1.5945 -1.6551 -0.3867
 4566SOL    HW214598   0.960   1.159   1.627  0.6996 -0.0230  0.1112
 4567SOL     OW14599   5.708   3.630   0.280  0.0910 -0.5434  0.8524
 4567SOL    HW114600   5.663   3.718   0.294 -0.3281 -0.9462  2.2188
 4567SOL    HW214601   5.713   3.610   0.182 -1.7539  0.0203  0.5985
 4568SOL     OW14602   4.956   3.418   2.617  0.0952 -0.0188  0.2416
 4568SOL    HW114603   5.025   3.356   2.579  1.6172  0.7457  1.6732
 4568SOL    HW214604   4.886   3.364   2.664 -0.3134 -0.7985 -1.1874
 4569SOL     OW14605   1.974   1.875   2.436 -0.0693  0.3360  0.1476
 4569SOL    HW114606   2.017   1.951   2.486 -1.2148 -0.0589  1.8365
 4569SOL    HW214607   1.987   1.790   2.488  1.2918 -0.6967 -1.7667
 4570SOL     OW14608   3.036   6.193   4.892 -0.7813 -0.1085 -0.4278
 4570SOL    HW114609   3.061   6.102   4.859 -1.6339 -0.4446 -0.1841
 4570SOL    HW214610   3.056   6.260   4.821 -1.2935 -0.6467 -1.1085
 4571SOL     OW14611   4.049   3.755   3.470 -0.9640 -0.0783  0.8590
 4571SOL    HW114612   4.030   3.673   3.417  0.9471 -0.4267  0.6427
 4571SOL    HW214613   4.073   3.830   3.408  0.7186 -0.3330  1.1500
 4572SOL     OW14614   2.907   4.923   3.963  0.3331  0.4180 -0.2872
 4572SOL    HW114615   2.839   4.977   4.013  0.3857 -2.0697  2.8345
 4572SOL    HW214616   2.861   4.873   3.890 -0.5710  1.1752 -0.2584
 4573SOL     OW14617   6.784   6.681   1.260 -0.3525  0.1279 -0.0549
 4573SOL    HW114618   6.745   6.731   1.183 -0.7616 -0.9636 -0.5744
 4573SOL    HW214619   6.714   6.622   1.301 -0.9694  2.6488  2.9201
 4574SOL     OW14620   0.715   6.341   2.167 -0.2025 -0.3302 -0.0328
 4574SOL    HW114621   0.635   6.363   2.110  0.2872 -0.6717 -0.8751
 4574SOL    HW214622   0.691   6.269   2.232 -0.6986 -0.1360  0.0001
 4575SOL     OW14623   6.236   0.057   2.447  0.3183  0.7665  0.1598
 4575SOL    HW114624   6.196   0.110   2.523 -0.7074 -0.5188  0.5433
 4575SOL    HW214625   6.246  -0.038   2.474 -1.2096  0.0024 -1.7005
 4576SOL     OW14626   2.987   4.602   5.685  0.6064  0.3938  0.1435
 4576SOL    HW114627   2.998   4.531   5.615  0.7307 -0.3813  0.9317
 4576SOL    HW214628   2.900   4.588   5.733  0.6720  0.7297  0.3611
 4577SOL     OW14629   2.067   6.309   2.160  0.3158  0.4216 -0.1454
 4577SOL    HW114630   2.139   6.279   2.223 -0.3311 -0.1008  0.3559
 4577SOL    HW214631   1.979   6.269   2.187 -0.2906  1.5393 -0.3695
 4578SOL     OW14632   7.001   5.881   1.284 -0.2045  0.3720  0.4598
 4578SOL    HW114633   7.040   5.960   1.331  1.2360 -0.5214  0.8398
 4578SOL    HW214634   6.989   5.806   1.350 -0.3645 -0.1249 -0.1249
 4579SOL     OW14635   4.899   1.738   3.410 -0.1733 -0.0847  0.2259
 4579SOL    HW114636   4.919   1.683   3.491  2.0129  1.3898  0.7809
 4579SOL    HW214637   4.845   1.818   3.437  0.0742  0.1141  0.1363
 4580SOL     OW14638   0.889   3.794   0.960 -0.2146 -0.6762 -0.3677
 4580SOL    HW114639   0.907   3.698   0.940 -0.0031 -0.5765 -0.6672
 4580SOL    HW214640   0.950   3.826   1.032 -0.2415 -0.7491 -0.3128
 4581SOL     OW14641   2.043   5.370   4.370 -0.3443  0.4945 -0.2622
 4581SOL    HW114642   1.968   5.403   4.427 -0.0764  0.1586  0.2981
 4581SOL    HW214643   2.008   5.302   4.305 -0.2224 -1.1211  1.2978
 4582SOL     OW14644   5.010   6.926   2.156  0.2068  0.2714 -0.5869
 4582SOL    HW114645   5.032   7.018   2.125 -1.2442  0.6209 -0.6160
 4582SOL    HW214646   4.937   6.888   2.099  0.4294 -0.6955 -0.2487
 4583SOL     OW14647   4.537   5.604   5.491  0.3303  0.3863  0.6225
 4583SOL    HW114648   4.610   5.561   5.437 -0.2198 -0.6935  0.7273
 4583SOL    HW214649   4.483   5.664   5.431  0.6180  0.3304  0.2987
 4584SOL     OW14650   1.948   5.228   5.885  0.0061  0.1635  0.4873
 4584SOL    HW114651   2.036   5.276   5.882  0.0993 -0.0194  0.1060
 4584SOL    HW214652   1.894   5.255   5.805  0.5269 -1.2239 -0.3723
 4585SOL     OW14653   2.699   0.085   2.566  0.2221  0.0110  0.2927
 4585SOL    HW114654   2.788   0.063   2.606  0.9017  1.0227 -0.6095
 4585SOL    HW214655   2.695   0.052   2.472 -0.8927 -1.2355  0.7370
 4586SOL     OW14656   2.541   0.294   2.657 -0.2032 -0.4863 -0.5134
 4586SOL    HW114657   2.603   0.353   2.708  1.5667 -0.5752 -2.4222
 4586SOL    HW214658   2.594   0.225   2.607 -1.7836 -0.3314 -2.5443
 4587SOL     OW14659   4.017   4.049   1.699 -0.0823  0.2020 -0.0676
 4587SOL    HW114660   3.997   3.953   1.679  1.2437 -0.2367  0.5784
 4587SOL    HW214661   3.992   4.105   1.621 -1.2676 -0.6139 -0.2977
 4588SOL     OW14662   3.469   3.534   4.942  0.0104  0.6066 -0.2893
 4588SOL    HW114663   3.400   3.579   4.998 -0.8003 -0.4120 -0.4376
 4588SOL    HW214664   3.463   3.567   4.848 -0.6951  0.0768 -0.4363
 4589SOL     OW14665   2.028   1.454   3.291 -0.3217  0.0061  0.5207
 4589SOL    HW114666   2.099   1.387   3.313  0.4592  1.0539  1.3063
 4589SOL    HW214667   2.071   1.541   3.264 -1.2560  1.1705  2.5585
 4590SOL     OW14668   4.625   6.548   3.206  0.3249 -0.1021 -0.8784
 4590SOL    HW114669   4.712   6.513   3.241  0.4220 -1.7556 -2.5874
 4590SOL    HW214670   4.601   6.498   3.123 -2.4861  0.0031 -0.2196
 4591SOL     OW14671   6.007   4.127   6.346  0.4658  0.0434 -0.0381
 4591SOL    HW114672   5.912   4.099   6.336  0.6881 -1.1581  0.9184
 4591SOL    HW214673   6.011   4.218   6.386 -0.3066 -0.3777  1.0624
 4592SOL     OW14674   5.096   0.734   0.098 -0.1565 -0.9549  0.2576
 4592SOL    HW114675   5.108   0.695   0.190  0.3773 -0.7065  0.3013
 4592SOL    HW214676   5.158   0.688   0.034 -1.3259 -1.9151 -0.2349
 4593SOL     OW14677   3.873   0.036   6.810 -0.2623 -0.5741 -0.1101
 4593SOL    HW114678   3.971   0.058   6.810 -0.4986  0.5487 -1.3710
 4593SOL    HW214679   3.844   0.016   6.904  0.4756  2.3413  0.8320
 4594SOL     OW14680   4.486   2.377   2.560 -0.2049 -0.0726  0.2868
 4594SOL    HW114681   4.520   2.293   2.519  0.3758 -0.2106  1.0258
 4594SOL    HW214682   4.392   2.362   2.592 -1.0287  0.3181 -1.7752
 4595SOL     OW14683   3.132   2.994   4.436  0.6596  0.5730 -0.2709
 4595SOL    HW114684   3.190   3.026   4.361  1.2692  0.2571  0.0603
 4595SOL    HW214685   3.187   2.941   4.500  0.1670  0.9501  0.4741
 4596SOL     OW14686   4.304   0.801   2.548 -0.7810 -0.2397  0.0448
 4596SOL    HW114687   4.384   0.854   2.520  0.3287 -1.3585  0.9890
 4596SOL    HW214688   4.239   0.861   2.595 -0.9005  0.8468 -1.4416
 4597SOL     OW14689   6.404   2.380   6.231  0.8520 -0.3077 -0.2783
 4597SOL    HW114690   6.320   2.376   6.285  0.6551  3.0545 -0.1218
 4597SOL    HW214691   6.402   2.309   6.161 -2.5336  0.1633 -0.8342
 4598SOL     OW14692   2.208   2.952   6.158  0.4690 -0.2580 -0.2084
 4598SOL    HW114693   2.257   2.976   6.242 -0.2801  0.5535  0.0011
 4598SOL    HW214694   2.146   2.875   6.176  1.2481 -0.9382 -0.3464
 4599SOL     OW14695   2.703   4.565   1.161 -0.1921  0.3778  0.1538
 4599SOL    HW114696   2.698   4.486   1.101  2.3276  0.3366 -0.1188
 4599SOL    HW214697   2.763   4.634   1.121  2.0586  0.1140  2.7412
 4600SOL     OW14698   0.703   4.051   0.207 -0.1093 -0.1185 -0.0224
 4600SOL    HW114699   0.735   4.145   0.220 -0.3315 -0.0087 -0.2748
 4600SOL    HW214700   0.758   3.989   0.264 -2.2185  0.5352  3.0187
 4601SOL     OW14701   1.319   5.421   1.143 -0.1140 -0.2329  0.6293
 4601SOL    HW114702   1.317   5.467   1.232 -1.2135  1.2803 -0.1333
 4601SOL    HW214703   1.235   5.368   1.130 -0.9012  1.1673 -0.2766
 4602SOL     OW14704   6.631   0.616   6.413  0.1504 -0.2190  0.1093
 4602SOL    HW114705   6.557   0.682   6.416  0.7061  0.3998  0.5814
 4602SOL    HW214706   6.613   0.542   6.478  1.5187  1.6736  2.8303
 4603SOL     OW14707   2.807   2.203   1.412  0.2665  0.0117 -0.0278
 4603SOL    HW114708   2.740   2.206   1.486  0.3224 -0.6571  0.0619
 4603SOL    HW214709   2.883   2.265   1.433  0.4128 -0.3687  0.6112
 4604SOL     OW14710   2.779   0.128   1.246 -0.4618 -0.7623  0.0490
 4604SOL    HW114711   2.772   0.226   1.229  0.2079 -0.4347  1.4798
 4604SOL    HW214712   2.780   0.079   1.159  1.5603  0.6723 -0.8250
 4605SOL     OW14713   4.252   0.166   5.701  0.1044 -0.4814  0.3953
 4605SOL    HW114714   4.201   0.225   5.764 -0.7013 -2.2255  1.4448
 4605SOL    HW214715   4.317   0.222   5.649 -0.5787  1.3071  1.3640
 4606SOL     OW14716   5.567   6.290   5.395  0.4816  0.5419  0.0086
 4606SOL    HW114717   5.479   6.325   5.362 -0.6947 -0.6287  1.7888
 4606SOL    HW214718   5.552   6.223   5.467  2.8425 -0.0942 -0.0087
 4607SOL     OW14719   1.817   4.575   0.276  0.1155  0.0736 -0.5943
 4607SOL    HW114720   1.881   4.544   0.345 -0.2144  1.2944  0.2999
 4607SOL    HW214721   1.735   4.611   0.320 -1.0790 -1.1970 -1.7036
 4608SOL     OW14722   3.561   5.237   5.774 -0.1427  0.0003  0.0778
 4608SOL    HW114723   3.486   5.304   5.769  0.2450  0.3177 -2.1296
 4608SOL    HW214724   3.532   5.160   5.830 -2.3186 -0.1001 -1.0855
 4609SOL     OW14725   4.057   0.724   0.573  0.1582  0.7988 -0.1086
 4609SOL    HW114726   4.074   0.629   0.598  0.0062  1.4779  3.0523
 4609SOL    HW214727   3.959   0.743   0.579  0.3612  1.5745  1.3395
 4610SOL     OW14728   0.483   4.054   1.179  0.3965  0.5506 -0.1658
 4610SOL    HW114729   0.545   4.009   1.243 -0.2334  1.6002  1.2362
 4610SOL    HW214730   0.536   4.114   1.119  0.9352 -0.0365 -0.2973
 4611SOL     OW14731   1.737   4.086   3.548 -0.4496 -0.0950  0.2970
 4611SOL    HW114732   1.761   4.041   3.462 -1.6015 -2.1220  0.9702
 4611SOL    HW214733   1.813   4.144   3.577  0.2949 -0.0261 -1.6407
 4612SOL     OW14734   2.379   0.163   0.844  0.1288  0.0956 -0.2232
 4612SOL    HW114735   2.305   0.205   0.896 -0.8209 -0.7400 -0.8885
 4612SOL    HW214736   2.343   0.094   0.782  1.4307 -0.1234 -0.7830
 4613SOL     OW14737   2.097   5.100   0.658 -0.0390  0.9882 -0.0934
 4613SOL    HW114738   2.059   5.045   0.584  1.0879  1.9537 -1.4468
 4613SOL    HW214739   2.032   5.104   0.733 -0.6270 -1.1919 -0.4199
 4614SOL     OW14740   1.611   5.020   1.489 -0.3878  0.2049 -0.0456
 4614SOL    HW114741   1.637   4.996   1.395  0.2940  1.8161 -0.3049
 4614SOL    HW214742   1.647   4.951   1.552  1.0986  0.2796 -0.7718
 4615SOL     OW14743   6.103   3.431   6.565 -0.1779 -1.2378  0.6022
 4615SOL    HW114744   6.062   3.344   6.539  2.5054 -1.9281 -1.8139
 4615SOL    HW214745   6.194   3.438   6.524 -0.5607  3.0261  0.0690
 4616SOL     OW14746   2.589   6.688   5.300  0.6026 -0.2004  0.1095
 4616SOL    HW114747   2.599   6.654   5.206 -0.9329  0.3408 -0.2823
 4616SOL    HW214748   2.545   6.618   5.356  1.2686 -0.4187  0.3656
 4617SOL     OW14749   6.474   5.711   2.781 -0.6306  0.2818  0.1120
 4617SOL    HW114750   6.413   5.662   2.717  3.0122 -1.3269 -2.4810
 4617SOL    HW214751   6.484   5.657   2.864  3.0201 -3.7654 -2.5361
 4618SOL     OW14752   3.198   4.346   0.090  0.1591  0.2858 -0.1116
 4618SOL    HW114753   3.251   4.404   0.151 -0.1467  0.8474 -0.3671
 4618SOL    HW214754   3.186   4.393   0.002  2.7885 -1.5609 -1.5729
 4619SOL     OW14755   2.480   1.180   2.479  0.4661 -0.3856 -0.0028
 4619SOL    HW114756   2.549   1.252   2.477 -0.1938  0.2835  0.6348
 4619SOL    HW214757   2.502   1.114   2.551 -0.0113  0.3043  0.7932
 4620SOL     OW14758   2.702   5.571   1.735  0.2398  0.7176  0.4568
 4620SOL    HW114759   2.727   5.596   1.829 -1.0175 -1.5149  1.4912
 4620SOL    HW214760   2.772   5.508   1.699  0.1782  0.7276  0.3230
 4621SOL     OW14761   1.008   0.583   6.899  0.0040  0.2065 -0.6523
 4621SOL    HW114762   0.973   0.494   6.928 -1.5233  0.1916 -2.3672
 4621SOL    HW214763   1.107   0.586   6.912 -0.0804 -1.2663  0.5907
 4622SOL     OW14764   2.908   3.642   0.005 -0.3055 -0.0338  0.2899
 4622SOL    HW114765   2.910   3.558  -0.048 -1.7278 -1.6184  2.5630
 4622SOL    HW214766   2.984   3.643   0.070 -0.9206 -0.1545  1.0373
 4623SOL     OW14767   1.898   2.699   5.585  0.5468 -0.1064  0.2856
 4623SOL    HW114768   1.976   2.757   5.564  0.8790 -0.2154  1.1824
 4623SOL    HW214769   1.922   2.636   5.658 -0.1704 -0.6091  0.0981
 4624SOL     OW14770   1.834   0.816   6.041  0.4381 -0.1137 -0.0477
 4624SOL    HW114771   1.815   0.868   5.958 -2.3436 -1.1731 -0.1873
 4624SOL    HW214772   1.897   0.742   6.021 -1.5755 -1.4842 -1.7679
 4625SOL     OW14773   2.167   4.805   6.024  0.2321 -0.2466 -0.5863
 4625SOL    HW114774   2.237   4.850   5.969 -0.8921 -0.9178 -2.6653
 4625SOL    HW214775   2.142   4.718   5.982 -0.6081 -0.8529  1.0780
 4626SOL     OW14776   0.011   5.238   2.367  0.3689 -0.1841  0.0169
 4626SOL    HW114777   0.062   5.308   2.415  0.0952 -0.0016  0.0455
 4626SOL    HW214778  -0.087   5.249   2.385  0.3197 -0.5455 -0.0117
 4627SOL     OW14779   1.473   0.555   4.978 -0.1224  0.7778 -0.1582
 4627SOL    HW114780   1.547   0.489   4.993 -1.1238 -1.4111 -3.5830
 4627SOL    HW214781   1.396   0.532   5.037 -0.1402 -0.6665 -0.6966
 4628SOL     OW14782   0.195   1.728   2.501 -0.4992 -0.2497 -0.6174
 4628SOL    HW114783   0.095   1.721   2.508 -0.4568 -0.4524 -0.2041
 4628SOL    HW214784   0.237   1.650   2.547 -0.1303  0.3477  0.0737
 4629SOL     OW14785   4.427   6.014   3.765 -0.5778 -0.0596  0.4333
 4629SOL    HW114786   4.334   6.024   3.801 -1.4222 -0.6941 -1.4212
 4629SOL    HW214787   4.423   6.008   3.665  1.5115  0.2933  0.2901
 4630SOL     OW14788   2.218   5.718   2.690 -0.2813 -0.0181  0.1223
 4630SOL    HW114789   2.134   5.756   2.650 -0.0660 -0.4951 -0.8050
 4630SOL    HW214790   2.217   5.618   2.681  0.9489  0.0539 -1.0397
 4631SOL     OW14791   2.469   1.874   1.500 -0.2893  0.0944  0.1431
 4631SOL    HW114792   2.450   1.965   1.463 -0.3922  0.6534  1.5062
 4631SOL    HW214793   2.556   1.876   1.549  0.9832 -1.2085 -1.9090
 4632SOL     OW14794   5.886   6.445   4.075 -0.7366 -0.0318 -0.0289
 4632SOL    HW114795   5.850   6.444   3.982 -1.9428  1.7574  0.3586
 4632SOL    HW214796   5.853   6.527   4.123  1.6175  0.2626  1.2894
 4633SOL     OW14797   4.515   3.694   6.651  0.0776  0.2423  0.0836
 4633SOL    HW114798   4.467   3.642   6.721 -1.1736  0.3650 -0.6552
 4633SOL    HW214799   4.598   3.644   6.623  0.7972  0.3648  1.8613
 4634SOL     OW14800   2.415   2.227   6.911 -0.7653 -1.0883  0.1093
 4634SOL    HW114801   2.505   2.230   6.867  0.1346  1.4550  1.9187
 4634SOL    HW214802   2.421   2.179   6.998 -0.5089  1.1908  1.4105
 4635SOL     OW14803   5.322   4.858   0.510  0.1044  0.3381 -0.2802
 4635SOL    HW114804   5.288   4.951   0.494 -2.3028 -0.6752 -1.5147
 4635SOL    HW214805   5.288   4.797   0.439  0.7609 -1.7051  1.0670
 4636SOL     OW14806   1.298   6.906   6.820 -0.6174  0.2807 -0.0501
 4636SOL    HW114807   1.255   6.888   6.909 -0.5548 -2.0590 -0.4468
 4636SOL    HW214808   1.252   6.853   6.749  0.8643  0.2470 -1.0267
 4637SOL     OW14809   1.875   0.940   6.697  0.5986 -0.1624  0.4374
 4637SOL    HW114810   1.846   0.847   6.674 -1.6546  0.5315  0.2149
 4637SOL    HW214811   1.796   1.001   6.692  1.4257  1.2968  3.2439
 4638SOL     OW14812   4.836   4.316   4.766 -0.1483 -0.0946 -0.5193
 4638SOL    HW114813   4.837   4.302   4.865  0.4892  2.0683 -0.1776
 4638SOL    HW214814   4.754   4.273   4.728 -0.2676 -1.1976  0.8819
 4639SOL     OW14815   1.622   1.527   6.463  0.1162  0.8729  0.0443
 4639SOL    HW114816   1.529   1.512   6.496  0.1735 -0.7044 -0.4243
 4639SOL    HW214817   1.625   1.513   6.364  1.2842 -1.6855  0.3510
 4640SOL     OW14818   2.813   5.182   5.397 -0.3526 -0.4461  0.5534
 4640SOL    HW114819   2.882   5.214   5.331 -0.5401 -0.4494  0.3520
 4640SOL    HW214820   2.751   5.258   5.419 -0.1651 -0.3912  0.8843
 4641SOL     OW14821   1.078   4.771   5.319 -0.7913  0.7170  0.5992
 4641SOL    HW114822   1.028   4.834   5.378  0.1120  1.6833  0.3411
 4641SOL    HW214823   1.146   4.721   5.373 -2.0325 -0.6629  0.9689
 4642SOL     OW14824   6.935   5.196   5.072  0.5462 -0.2133 -0.4853
 4642SOL    HW114825   6.888   5.128   5.016  0.7777 -0.8611  0.0971
 4642SOL    HW214826   6.868   5.251   5.121  0.3036  0.8832 -1.9700
 4643SOL     OW14827   4.347   4.451   1.698  0.1471  0.1741 -0.1902
 4643SOL    HW114828   4.391   4.387   1.760 -0.9185  0.5238  0.9661
 4643SOL    HW214829   4.337   4.408   1.608 -1.5705 -1.7752  0.8339
 4644SOL     OW14830   2.960   4.859   4.940  0.3061 -0.0084 -0.4778
 4644SOL    HW114831   3.014   4.925   4.992  0.7323 -0.6021 -0.1606
 4644SOL    HW214832   2.937   4.781   4.998 -1.7481  0.6757 -0.2972
 4645SOL     OW14833   2.336   4.867   4.013 -0.4300 -0.1890  0.1192
 4645SOL    HW114834   2.406   4.855   3.943  0.5753 -0.4658  1.1503
 4645SOL    HW214835   2.357   4.947   4.069 -1.3533  0.1718 -0.0276
 4646SOL     OW14836   3.222   1.538   0.275 -0.5328 -0.4547 -0.6210
 4646SOL    HW114837   3.204   1.445   0.241 -0.5864 -0.5158 -0.4261
 4646SOL    HW214838   3.309   1.571   0.238 -0.2976 -0.7538 -0.3406
 4647SOL     OW14839   5.819   0.186   3.979 -0.0022  0.6205  0.7981
 4647SOL    HW114840   5.845   0.148   3.890 -1.5002 -1.4894  1.1942
 4647SOL    HW214841   5.734   0.144   4.009  0.4738  1.2996  3.2658
 4648SOL     OW14842   0.755   6.440   4.991  0.2885 -0.4261  0.3908
 4648SOL    HW114843   0.698   6.408   5.067  1.2630 -2.4393  0.3538
 4648SOL    HW214844   0.702   6.441   4.907 -0.0705 -0.8959  0.6088
 4649SOL     OW14845   6.607   3.976   5.381  0.0699 -0.0275 -0.2844
 4649SOL    HW114846   6.581   3.993   5.286 -0.5775 -1.5678 -0.4102
 4649SOL    HW214847   6.659   4.054   5.416  1.1086  0.1814 -2.1790
 4650SOL     OW14848   1.457   6.520   2.005 -0.1624 -0.4257 -0.1848
 4650SOL    HW114849   1.400   6.483   2.078 -1.0060  1.8646  0.4080
 4650SOL    HW214850   1.551   6.530   2.038 -0.2746 -0.5573  0.1802
 4651SOL     OW14851   6.158   1.628   0.959  0.4090  1.0481 -0.6156
 4651SOL    HW114852   6.215   1.562   1.008 -0.4010  1.7990  1.4837
 4651SOL    HW214853   6.127   1.589   0.873  0.8972 -0.8679  0.0331
 4652SOL     OW14854   1.043   5.508   0.812  0.5991  0.3694  0.2828
 4652SOL    HW114855   1.055   5.453   0.895 -0.5512 -0.0835  0.1710
 4652SOL    HW214856   0.948   5.504   0.783  1.1427 -0.1647 -1.5453
 4653SOL     OW14857   2.186   5.101   0.184 -0.1823  0.1091  0.1183
 4653SOL    HW114858   2.236   5.017   0.206  1.7263  0.9045 -0.9180
 4653SOL    HW214859   2.231   5.148   0.109 -1.8372  1.5418 -0.0514
 4654SOL     OW14860   2.272   1.640   6.293  0.8718  0.6702  0.1884
 4654SOL    HW114861   2.266   1.609   6.198  0.3027  0.8764  0.1518
 4654SOL    HW214862   2.243   1.736   6.299  2.6792  1.2524  0.2895
 4655SOL     OW14863   0.556   4.921   5.449 -0.2719  0.2097  0.0035
 4655SOL    HW114864   0.479   4.915   5.511 -1.0665 -1.3302 -1.0464
 4655SOL    HW214865   0.527   4.960   5.362 -0.1279 -1.2194 -0.7204
 4656SOL     OW14866   2.568   0.081   1.933  0.0629 -0.2288  0.1601
 4656SOL    HW114867   2.622   0.028   1.998 -0.3776 -1.0186 -0.1105
 4656SOL    HW214868   2.610   0.171   1.920  0.2915 -0.1584  1.3400
 4657SOL     OW14869   5.278   0.479   6.135  0.1828  0.1975  0.2878
 4657SOL    HW114870   5.370   0.509   6.158 -0.0314 -0.4017  2.1297
 4657SOL    HW214871   5.243   0.532   6.058  1.0477  2.3421  1.2959
 4658SOL     OW14872   5.912   1.293   3.367 -0.5825  0.5950  0.2585
 4658SOL    HW114873   5.846   1.258   3.433  0.3510  0.0570  0.9168
 4658SOL    HW214874   5.978   1.222   3.344  0.2349  1.3550  0.2033
 4659SOL     OW14875   2.508   2.616   3.825 -0.5008  1.1401  0.1909
 4659SOL    HW114876   2.584   2.643   3.884  1.6950  1.3261 -2.5130
 4659SOL    HW214877   2.479   2.522   3.847 -0.1530  1.4093  1.8733
 4660SOL     OW14878   6.673   0.977   5.321  0.6417  0.0682  0.8827
 4660SOL    HW114879   6.618   0.910   5.370 -0.2244  1.8245  2.4122
 4660SOL    HW214880   6.727   1.031   5.386  1.9840  0.2986 -0.3661
 4661SOL     OW14881   3.566   3.003   3.879  0.0822  0.2837  0.1770
 4661SOL    HW114882   3.533   2.949   3.957 -1.7263  1.1190  0.0545
 4661SOL    HW214883   3.530   3.096   3.886 -0.5656  0.2499 -1.8968
 4662SOL     OW14884   0.350   0.730   6.116 -0.3134  0.4293 -0.5088
 4662SOL    HW114885   0.354   0.674   6.034 -0.5333  0.7862 -0.7654
 4662SOL    HW214886   0.403   0.813   6.102 -1.3775  1.0835 -0.7530
 4663SOL     OW14887   6.589   0.232   2.959  0.0850  0.2756  0.6169
 4663SOL    HW114888   6.672   0.195   3.001  0.4860  0.8258  0.3248
 4663SOL    HW214889   6.564   0.175   2.880 -0.9125 -1.0117  1.8019
 4664SOL     OW14890   4.156   3.341   6.756 -0.2516  0.0187 -0.0562
 4664SOL    HW114891   4.216   3.405   6.804 -0.4578 -0.1740  0.4595
 4664SOL    HW214892   4.210   3.278   6.701 -0.0726  1.2663 -1.3826
 4665SOL     OW14893   5.788   2.048   6.272 -0.0418  0.1625  0.3487
 4665SOL    HW114894   5.714   2.008   6.326 -1.2904  1.3706 -0.4349
 4665SOL    HW214895   5.821   1.980   6.206 -2.1221  0.3601 -0.9608
 4666SOL     OW14896   3.322   6.582   6.090  0.1067  0.6881 -0.3825
 4666SOL    HW114897   3.379   6.507   6.054  0.7602  0.2147  1.5418
 4666SOL    HW214898   3.242   6.544   6.135  1.5004  0.8981  2.5183
 4667SOL     OW14899   0.724   5.539   2.277  0.4263 -0.1639  0.0474
 4667SOL    HW114900   0.786   5.598   2.226 -0.3061 -0.0465 -0.7289
 4667SOL    HW214901   0.750   5.538   2.373 -0.2381  2.3465  0.3050
 4668SOL     OW14902   5.985   6.848   4.967  0.0994  0.4716  0.3278
 4668SOL    HW114903   6.069   6.828   5.017 -1.1392  0.6215  2.6005
 4668SOL    HW214904   5.938   6.925   5.010 -0.1865  1.8349 -2.2039
 4669SOL     OW14905   1.888   1.185   3.013 -0.0498  0.4583  0.1956
 4669SOL    HW114906   1.842   1.271   2.991 -0.8387  0.1677  0.6930
 4669SOL    HW214907   1.820   1.115   3.035  0.6339  0.2094  1.6543
 4670SOL     OW14908   3.633   2.054   4.316  0.0653 -0.6115 -0.9248
 4670SOL    HW114909   3.555   2.096   4.362  0.9121 -0.8147  0.7546
 4670SOL    HW214910   3.604   2.020   4.226 -2.2078 -2.2400  0.3285
 4671SOL     OW14911   5.679   3.111   2.427  0.0008 -0.1247  0.1309
 4671SOL    HW114912   5.734   3.087   2.508  3.6589  1.6655 -1.5604
 4671SOL    HW214913   5.678   3.211   2.417 -1.6499 -0.2479 -1.2490
 4672SOL     OW14914   2.662   2.429   5.061 -0.0431  0.4862  0.1930
 4672SOL    HW114915   2.586   2.384   5.107  1.0474 -0.1906  1.3974
 4672SOL    HW214916   2.711   2.487   5.127  1.2443 -0.1022 -0.2115
 4673SOL     OW14917   3.687   6.512   2.212 -0.4634 -0.3592  1.2329
 4673SOL    HW114918   3.755   6.528   2.140 -1.2501  0.8341  0.7274
 4673SOL    HW214919   3.671   6.597   2.262 -2.4724 -0.2611  0.5226
 4674SOL     OW14920   5.645   5.549   5.053  0.1796  0.7760  0.7546
 4674SOL    HW114921   5.648   5.450   5.043 -0.8195  0.4863  2.8252
 4674SOL    HW214922   5.615   5.572   5.145  1.8674  3.0317  0.8163
 4675SOL     OW14923   0.889   4.360   4.564 -0.3936  0.0933  0.3807
 4675SOL    HW114924   0.877   4.398   4.472 -1.2885 -0.0438  0.4274
 4675SOL    HW214925   0.879   4.260   4.560 -0.5869  0.1012  0.6438
 4676SOL     OW14926   0.603   3.769   3.901 -0.1089 -0.3345  0.5687
 4676SOL    HW114927   0.663   3.710   3.955 -0.2950  0.6132  1.8308
 4676SOL    HW214928   0.515   3.778   3.947 -0.9192 -0.9538 -0.8043
 4677SOL     OW14929   1.183   2.768   0.301 -0.2530 -0.5367  0.4257
 4677SOL    HW114930   1.184   2.722   0.213 -0.2490  0.2089  0.0290
 4677SOL    HW214931   1.277   2.788   0.330 -0.2975  0.3199  0.0049
 4678SOL     OW14932   0.862   1.770   2.120 -0.1288 -0.4241  0.1889
 4678SOL    HW114933   0.771   1.731   2.131 -1.0640  1.5652 -0.1117
 4678SOL    HW214934   0.899   1.746   2.030 -0.8104 -0.3830 -0.1064
 4679SOL     OW14935   5.007   1.560   1.489 -0.0615 -0.1285 -0.3344
 4679SOL    HW114936   5.097   1.591   1.519 -0.0960 -0.1603 -0.1992
 4679SOL    HW214937   4.970   1.495   1.555 -0.9494  1.2058  0.5227
 4680SOL     OW14938   4.026   6.695   6.655 -0.1367  0.0439  0.2080
 4680SOL    HW114939   4.094   6.760   6.622  0.4590 -0.7617 -0.1890
 4680SOL    HW214940   3.934   6.735   6.647  0.2589  1.0504  0.5408
 4681SOL     OW14941   5.568   5.377   2.317 -0.4011 -0.0225  0.2702
 4681SOL    HW114942   5.624   5.373   2.234 -2.4804 -1.2687 -1.1986
 4681SOL    HW214943   5.618   5.336   2.393  1.0734 -0.0769 -0.6826
 4682SOL     OW14944   2.757   3.644   0.431  0.0543  0.0382  0.2234
 4682SOL    HW114945   2.727   3.633   0.337  1.3827 -1.9582 -0.0278
 4682SOL    HW214946   2.693   3.702   0.480 -0.6167  1.1901 -1.9097
 4683SOL     OW14947   6.777   3.620   3.344 -0.4312 -0.3915 -0.9587
 4683SOL    HW114948   6.872   3.615   3.314 -0.2363  1.9914 -0.9364
 4683SOL    HW214949   6.768   3.577   3.434  0.8512  0.2380 -0.5059
 4684SOL     OW14950   4.383   0.470   6.041 -0.4201  0.3683  0.0009
 4684SOL    HW114951   4.357   0.410   5.966 -1.5328 -1.2419  1.5953
 4684SOL    HW214952   4.316   0.544   6.048 -0.5136  0.3230 -0.3689
 4685SOL     OW14953   3.292   3.784   4.231 -0.2435  0.1587 -0.2517
 4685SOL    HW114954   3.287   3.873   4.276  0.7063  0.0936  0.0230
 4685SOL    HW214955   3.290   3.711   4.300 -0.2186  0.0046 -0.4106
 4686SOL     OW14956   1.893   1.215   5.972  0.1262  0.3590 -0.1805
 4686SOL    HW114957   1.932   1.296   6.014  1.5314  0.0072 -0.7450
 4686SOL    HW214958   1.959   1.175   5.908 -1.1260 -0.3433 -1.0906
 4687SOL     OW14959   2.295   0.052   1.964  0.0235 -0.0618 -0.0077
 4687SOL    HW114960   2.388   0.053   1.929 -0.0742 -0.0123 -0.2632
 4687SOL    HW214961   2.240   0.120   1.916 -0.0351  0.2162  0.4429
 4688SOL     OW14962   4.298   1.715   3.840  0.6515 -0.5741  0.2990
 4688SOL    HW114963   4.300   1.622   3.878  1.3253 -0.9288 -0.5817
 4688SOL    HW214964   4.240   1.716   3.758 -1.5708  0.3892  1.7866
 4689SOL     OW14965   0.214   6.521   0.622  0.2410 -0.2833 -0.3995
 4689SOL    HW114966   0.272   6.469   0.559  1.4091 -0.0397  0.4367
 4689SOL    HW214967   0.240   6.617   0.620  0.2592 -0.2632  0.3996
 4690SOL     OW14968   2.805   1.614   0.480  0.1205  0.3690  0.1479
 4690SOL    HW114969   2.858   1.698   0.493  2.4921 -1.2669  1.9545
 4690SOL    HW214970   2.753   1.594   0.564  1.4096 -1.0901  0.6461
 4691SOL     OW14971   6.317   2.829   4.226  0.1430 -0.2216  0.2470
 4691SOL    HW114972   6.271   2.791   4.146 -0.0306  0.0661  0.2053
 4691SOL    HW214973   6.416   2.829   4.212  0.1424 -0.6167  0.2336
 4692SOL     OW14974   0.233   2.495   2.732 -0.7196  0.0148 -0.1320
 4692SOL    HW114975   0.154   2.521   2.787  0.8732  2.1991  1.2424
 4692SOL    HW214976   0.268   2.575   2.682  2.2521 -0.1422  1.4690
 4693SOL     OW14977   6.427   1.611   3.932  0.0866  0.0067  0.0081
 4693SOL    HW114978   6.429   1.523   3.886 -1.0638  0.0125 -0.0787
 4693SOL    HW214979   6.390   1.600   4.024 -0.2324  0.4318 -0.0683
 4694SOL     OW14980   0.304   6.731   6.005 -0.4213  0.7614 -0.2234
 4694SOL    HW114981   0.275   6.640   6.031  1.6096  0.1627  0.1730
 4694SOL    HW214982   0.371   6.725   5.931 -0.9370  1.9947 -0.8166
 4695SOL     OW14983   0.730   4.824   1.885  0.0837  0.1972 -0.0912
 4695SOL    HW114984   0.814   4.876   1.897  1.9396 -2.7202  0.5172
 4695SOL    HW214985   0.702   4.827   1.789  2.3391 -0.7585 -0.8450
 4696SOL     OW14986   2.338   5.813   6.748  0.5582  0.2446  0.0531
 4696SOL    HW114987   2.401   5.844   6.819 -0.7423  0.2293  1.2902
 4696SOL    HW214988   2.327   5.714   6.754 -0.6255  0.3917  0.8226
 4697SOL     OW14989   3.839   5.731   1.320 -0.3600  0.5123  0.4910
 4697SOL    HW114990   3.879   5.800   1.381 -0.5465  0.1211  1.0606
 4697SOL    HW214991   3.877   5.641   1.343 -1.1106  0.2294  0.6293
 4698SOL     OW14992   6.499   0.773   4.437  0.9728  0.2304 -0.2557
 4698SOL    HW114993   6.456   0.835   4.503 -0.6830  1.0047 -1.9803
 4698SOL    HW214994   6.555   0.826   4.373 -0.5644  0.0460 -1.8280
 4699SOL     OW14995   2.033   2.236   4.738 -0.3319  0.0559 -0.8629
 4699SOL    HW114996   2.035   2.210   4.641  0.4804  3.0478 -1.7772
 4699SOL    HW214997   2.063   2.331   4.747 -1.6247  0.2906  2.2225
 4700SOL     OW14998   6.866   2.319   4.770  0.0279 -0.0365 -0.3581
 4700SOL    HW114999   6.962   2.307   4.796 -0.3292  1.3185  1.9162
 4700SOL    HW215000   6.852   2.413   4.738 -0.5936 -0.0908 -0.2602
 4701SOL     OW15001   4.656   2.092   2.527 -0.0212  0.0303 -0.1152
 4701SOL    HW115002   4.711   2.037   2.465  1.8834  1.1598  0.4810
 4701SOL    HW215003   4.714   2.123   2.603 -1.1150  2.4370 -0.1866
 4702SOL     OW15004   4.940   4.638   1.604  0.1553 -0.3288 -0.2624
 4702SOL    HW115005   4.899   4.730   1.602 -0.1253 -0.4499 -2.5403
 4702SOL    HW215006   4.871   4.570   1.580  0.3208 -1.2207  1.5630
 4703SOL     OW15007   0.847   5.538   2.509 -0.1188  0.1636 -0.3633
 4703SOL    HW115008   0.854   5.638   2.516 -0.9490  0.2799 -1.0343
 4703SOL    HW215009   0.939   5.499   2.503  0.4905  0.5397  3.6568
 4704SOL     OW15010   1.527   6.045   3.192 -0.1695 -0.8890 -0.3676
 4704SOL    HW115011   1.468   6.086   3.123  0.0602  0.0728 -0.0113
 4704SOL    HW215012   1.513   6.091   3.280 -0.3320 -1.9761  0.2046
 4705SOL     OW15013   3.353   2.294   0.014 -0.2667 -0.0299  0.3634
 4705SOL    HW115014   3.259   2.300   0.047  0.2042  0.4866  1.6948
 4705SOL    HW215015   3.415   2.322   0.087  0.8060  2.5851 -1.4060
 4706SOL     OW15016   4.386   2.006   0.609  0.4317 -0.0735  0.1682
 4706SOL    HW115017   4.371   2.085   0.551  1.8265 -0.0513 -0.2121
 4706SOL    HW215018   4.318   2.004   0.682  0.8577  1.9491  0.6861
 4707SOL     OW15019   1.052   6.292   0.159  0.1748 -0.0194 -0.4553
 4707SOL    HW115020   1.148   6.300   0.188  0.4279  0.2945 -1.3716
 4707SOL    HW215021   1.047   6.295   0.060 -0.9363  1.7236 -0.3816
 4708SOL     OW15022   2.646   3.016   5.374 -0.0558 -0.4870  0.4249
 4708SOL    HW115023   2.623   2.920   5.388 -1.0220 -0.7379 -2.3040
 4708SOL    HW215024   2.600   3.050   5.292  3.0112  1.2934 -0.7437
 4709SOL     OW15025   6.968   4.641   5.133 -0.5962 -0.6788 -0.4642
 4709SOL    HW115026   6.901   4.715   5.136  1.5374  1.3442 -0.1134
 4709SOL    HW215027   6.958   4.584   5.214 -2.0220 -0.5776 -0.5470
 4710SOL     OW15028   0.938   4.783   5.742 -0.0560  1.0164  0.7690
 4710SOL    HW115029   0.850   4.827   5.728  0.2954  1.2816 -0.8323
 4710SOL    HW215030   0.991   4.836   5.809 -0.7819  1.3210  1.1153
 4711SOL     OW15031   4.812   3.065   4.927 -0.4068  0.5348  0.0792
 4711SOL    HW115032   4.911   3.070   4.945 -0.4637 -0.1976  0.6304
 4711SOL    HW215033   4.763   3.121   4.993 -0.2690  2.3203 -1.2641
 4712SOL     OW15034   4.992   4.167   6.792  0.0324 -0.0955  0.2126
 4712SOL    HW115035   5.092   4.173   6.793 -0.0245  1.4996  0.5862
 4712SOL    HW215036   4.958   4.164   6.886 -0.2226 -3.2110  0.1078
 4713SOL     OW15037   6.454   3.569   0.032 -0.2420  0.0206 -0.3097
 4713SOL    HW115038   6.399   3.577   0.115  0.2050 -0.5834  0.0482
 4713SOL    HW215039   6.417   3.496  -0.026  0.4492 -0.7035  0.1475
 4714SOL     OW15040   6.571   2.269   5.835  0.4400 -0.1770  0.6916
 4714SOL    HW115041   6.589   2.333   5.759 -1.6477  1.9258  1.8087
 4714SOL    HW215042   6.538   2.182   5.798 -0.1314  0.6539 -0.8523
 4715SOL     OW15043   5.627   0.724   2.051 -0.1402  0.5075 -0.1169
 4715SOL    HW115044   5.683   0.779   2.114 -0.3281 -0.4270  0.8940
 4715SOL    HW215045   5.533   0.761   2.049 -0.0521  0.7338 -0.1014
 4716SOL     OW15046   3.985   6.177   5.521 -0.5296  0.0159 -0.0222
 4716SOL    HW115047   4.070   6.149   5.476 -1.9052 -1.6792 -1.7220
 4716SOL    HW215048   3.955   6.264   5.483 -0.4492 -0.2343 -0.6670
 4717SOL     OW15049   0.438   5.002   0.316 -0.0337 -0.5983 -0.5742
 4717SOL    HW115050   0.400   5.070   0.379  2.1033  1.1626 -1.0727
 4717SOL    HW215051   0.378   4.992   0.237 -0.2349  0.9821 -0.6523
 4718SOL     OW15052   5.130   4.553   2.154  0.1115 -0.5667 -0.8212
 4718SOL    HW115053   5.113   4.648   2.126  0.1338 -0.2635  0.1413
 4718SOL    HW215054   5.209   4.551   2.215  0.4626 -1.2917 -1.2862
 4719SOL     OW15055   4.369   5.553   3.534  0.2390  0.3401 -0.0355
 4719SOL    HW115056   4.409   5.643   3.518 -1.4079  1.3077  1.0344
 4719SOL    HW215057   4.411   5.512   3.615  1.3094 -0.0898 -0.7812
 4720SOL     OW15058   2.494   1.121   5.765 -0.0853  0.4354 -0.7344
 4720SOL    HW115059   2.590   1.146   5.779 -0.3658  0.9535  0.4040
 4720SOL    HW215060   2.480   1.096   5.669  0.7564  2.2383 -1.3748
 4721SOL     OW15061   0.647   3.862   2.826  0.3366  0.0473  0.0924
 4721SOL    HW115062   0.715   3.898   2.762  2.6873 -0.7202  1.9864
 4721SOL    HW215063   0.597   3.788   2.783 -0.3462  1.5328 -1.8315
 4722SOL     OW15064   1.014   6.133   5.486 -0.3854  0.1763  0.5366
 4722SOL    HW115065   0.964   6.174   5.562 -2.9370  2.8825 -2.3427
 4722SOL    HW215066   0.952   6.118   5.409  2.4828 -0.2689 -1.8586
 4723SOL     OW15067   3.320   3.390   6.598  0.4228 -0.1525 -0.3609
 4723SOL    HW115068   3.283   3.298   6.605  1.1598 -0.3120  2.0425
 4723SOL    HW215069   3.408   3.395   6.645 -0.1589  2.0494  0.6332
 4724SOL     OW15070   1.137   0.760   4.579  0.7880 -0.1560 -1.1815
 4724SOL    HW115071   1.188   0.703   4.644  2.7616  0.9936 -1.6406
 4724SOL    HW215072   1.039   0.744   4.591  1.1791 -1.7097  0.4473
 4725SOL     OW15073   0.087   6.815   0.959 -0.1008 -0.1193  0.1469
 4725SOL    HW115074   0.015   6.854   0.902 -1.7732 -1.2849  1.3884
 4725SOL    HW215075   0.175   6.825   0.913 -1.3234 -0.7306 -2.4938
 4726SOL     OW15076   2.435   1.922   4.955 -0.4281  0.1611  0.3184
 4726SOL    HW115077   2.367   1.983   4.996 -2.9011 -2.6961  0.8394
 4726SOL    HW215078   2.488   1.878   5.027 -0.5770 -0.3395  0.1258
 4727SOL     OW15079   6.988   6.301   1.402  0.1206 -0.1660 -0.6606
 4727SOL    HW115080   6.975   6.375   1.468  0.3555 -1.0255  0.3695
 4727SOL    HW215081   7.010   6.340   1.312 -2.3570  1.1045 -0.8004
 4728SOL     OW15082   3.353   0.935   4.494 -0.0596 -0.4160 -0.3778
 4728SOL    HW115083   3.391   0.847   4.465  1.3289  0.2818 -0.7729
 4728SOL    HW215084   3.412   1.009   4.461 -2.2047  0.7955 -1.7026
 4729SOL     OW15085   0.128   0.439   1.879  0.5491  0.2066  0.8817
 4729SOL    HW115086   0.224   0.414   1.863  0.1972  0.2032 -1.7403
 4729SOL    HW215087   0.087   0.469   1.793 -2.7454 -3.0117  1.0593
 4730SOL     OW15088   2.473   2.386   4.114  0.5046  0.2353  0.6009
 4730SOL    HW115089   2.443   2.370   4.021  0.9113  1.0185  0.3245
 4730SOL    HW215090   2.531   2.311   4.145  0.3285 -0.0464  0.2411
 4731SOL     OW15091   4.857   1.744   1.655  0.2127  0.5658  0.3047
 4731SOL    HW115092   4.898   1.667   1.607  2.2328  0.7471  1.6227
 4731SOL    HW215093   4.757   1.740   1.646  0.3962 -0.9185 -1.5070
 4732SOL     OW15094   1.897   3.802   3.185  0.9357  0.4627 -0.4277
 4732SOL    HW115095   1.976   3.777   3.241  1.0271 -0.3459 -0.9089
 4732SOL    HW215096   1.849   3.720   3.156  0.2738  0.9243 -0.6588
 4733SOL     OW15097   1.688   4.345   3.752  0.0234  0.1636  0.5964
 4733SOL    HW115098   1.684   4.395   3.665 -1.3597  1.7280  1.4837
 4733SOL    HW215099   1.595   4.333   3.787  0.4740 -1.5332  1.2952
 4734SOL     OW15100   4.972   5.676   0.724  0.0658 -0.0577  0.5981
 4734SOL    HW115101   4.900   5.671   0.656  0.7213  3.3484 -0.5671
 4734SOL    HW215102   4.948   5.620   0.803 -2.3657 -1.3799 -0.9571
 4735SOL     OW15103   0.690   1.219   5.760 -0.0804 -0.1174  0.4425
 4735SOL    HW115104   0.612   1.244   5.816  0.6029  0.3621  1.2053
 4735SOL    HW215105   0.742   1.146   5.807  0.7130  0.5611  0.6397
 4736SOL     OW15106   4.876   6.662   3.782 -0.4007 -0.2274 -0.3798
 4736SOL    HW115107   4.960   6.677   3.833  0.0204 -0.2203 -1.0606
 4736SOL    HW215108   4.827   6.583   3.820  0.9289 -1.5111 -1.2312
 4737SOL     OW15109   1.973   3.952   6.869 -0.2054 -0.0940 -0.5188
 4737SOL    HW115110   1.932   4.026   6.923  0.6125  0.8029 -1.0826
 4737SOL    HW215111   1.922   3.868   6.883 -0.9598  0.4969  0.4105
 4738SOL     OW15112   0.455   1.619   3.719  0.2193 -0.2799  0.6080
 4738SOL    HW115113   0.460   1.541   3.781  0.7194 -0.7310  0.0088
 4738SOL    HW215114   0.418   1.698   3.768  0.4127 -0.6850  1.4217
 4739SOL     OW15115   5.392   5.287   1.547 -0.0523  0.6886  0.0979
 4739SOL    HW115116   5.426   5.375   1.580  1.2244  0.7407 -1.2176
 4739SOL    HW215117   5.383   5.224   1.624 -0.5014  1.8082  0.9917
 4740SOL     OW15118   2.468   6.257   0.551  0.1991 -0.4025 -0.8481
 4740SOL    HW115119   2.435   6.185   0.613 -0.7662 -0.9985 -2.0129
 4740SOL    HW215120   2.515   6.327   0.604  1.4730 -2.0476  0.2923
 4741SOL     OW15121   6.252   4.192   2.640  0.2817 -0.2314  0.2833
 4741SOL    HW115122   6.206   4.221   2.723 -1.0537 -0.4672 -0.3467
 4741SOL    HW215123   6.273   4.094   2.645  0.3729 -0.2037  0.4258
 4742SOL     OW15124   1.889   6.867   4.097 -0.8845 -0.1929 -0.0044
 4742SOL    HW115125   1.954   6.794   4.073 -0.9272  0.0553 -0.8831
 4742SOL    HW215126   1.868   6.861   4.195  1.3308  0.4134  0.5688
 4743SOL     OW15127   2.059   4.294   0.553  0.1483 -0.4136  0.6075
 4743SOL    HW115128   2.085   4.203   0.587  1.3169 -0.0548  0.7273
 4743SOL    HW215129   1.979   4.285   0.494  0.2048 -1.5172  0.6673
 4744SOL     OW15130   3.708   1.581   0.061 -0.1674 -0.6510 -0.0422
 4744SOL    HW115131   3.706   1.487   0.094  1.1175 -0.8704 -0.5058
 4744SOL    HW215132   3.731   1.581  -0.037 -0.3316  0.1300 -0.0843
 4745SOL     OW15133   4.760   0.154   4.500 -0.4404 -0.6421 -0.6932
 4745SOL    HW115134   4.777   0.177   4.596  0.6935  0.0107 -1.0259
 4745SOL    HW215135   4.846   0.123   4.458 -0.6012  0.3778 -1.8343
 4746SOL     OW15136   5.534   0.392   0.332  0.3538  0.0947 -0.6324
 4746SOL    HW115137   5.615   0.451   0.329 -0.2119  0.8482 -1.3991
 4746SOL    HW215138   5.457   0.443   0.370  0.3293 -0.7456  0.4769
 4747SOL     OW15139   2.026   1.953   1.144  0.4082 -0.1191  0.2558
 4747SOL    HW115140   2.097   2.011   1.106  0.6240  0.0337  0.8813
 4747SOL    HW215141   2.062   1.905   1.224  0.7419 -2.3040 -1.1005
 4748SOL     OW15142   2.362   6.941   6.145 -0.2707  0.3857  0.2054
 4748SOL    HW115143   2.427   6.971   6.075 -0.2617 -1.3568 -0.5735
 4748SOL    HW215144   2.336   7.019   6.202  0.2906  1.6895 -1.2632
 4749SOL     OW15145   4.127   0.716   6.766 -0.1414  0.4392  0.3188
 4749SOL    HW115146   4.114   0.802   6.716 -0.2675  0.6378  0.6963
 4749SOL    HW215147   4.218   0.679   6.744 -0.0247  0.7473  0.2793
 4750SOL     OW15148   2.154   1.096   4.860  0.1093  0.0571  0.6681
 4750SOL    HW115149   2.139   1.194   4.851 -1.3480 -0.2185 -0.2514
 4750SOL    HW215150   2.244   1.079   4.901 -0.1493  1.7715  2.0117
 4751SOL     OW15151   0.568   4.302   5.349 -0.1430 -0.1902 -0.1027
 4751SOL    HW115152   0.655   4.261   5.321 -0.1313  0.5379 -1.1922
 4751SOL    HW215153   0.586   4.388   5.397 -0.2261 -0.7286  0.9297
 4752SOL     OW15154   3.930   5.979   0.100  0.2996 -0.2614  0.0997
 4752SOL    HW115155   3.882   6.018   0.179  1.4799  0.1053  0.6685
 4752SOL    HW215156   3.865   5.931   0.041 -0.9068  1.0645  0.3093
 4753SOL     OW15157   4.987   0.956   6.718 -0.0012  0.9637  0.0517
 4753SOL    HW115158   4.959   0.915   6.805 -1.1018  1.1613 -0.1828
 4753SOL    HW215159   5.075   1.002   6.729  1.5176 -1.7758  0.2236
 4754SOL     OW15160   1.328   2.180   6.220  0.3946  0.1633  0.1759
 4754SOL    HW115161   1.349   2.123   6.300  1.7540  2.0150  1.2253
 4754SOL    HW215162   1.413   2.215   6.181 -0.3237  0.2599 -1.3816
 4755SOL     OW15163   3.571   0.209   4.065 -0.1967  0.5538  0.9773
 4755SOL    HW115164   3.622   0.295   4.079 -1.2756  1.3700  0.0852
 4755SOL    HW215165   3.538   0.175   4.153 -1.8311  2.4059  1.1593
 4756SOL     OW15166   5.038   3.446   0.853 -0.7327 -0.8991 -0.7391
 4756SOL    HW115167   4.961   3.494   0.896 -0.3209  0.2921 -1.2708
 4756SOL    HW215168   5.028   3.348   0.867 -1.9209 -0.7131 -0.1037
 4757SOL     OW15169   2.485   4.606   1.332  0.3624 -0.2557  0.3036
 4757SOL    HW115170   2.400   4.565   1.298 -0.0281  0.9480 -0.2322
 4757SOL    HW215171   2.555   4.603   1.260  0.4642 -0.3575  0.4066
 4758SOL     OW15172   5.505   2.592   0.040  0.3912 -0.0077  0.7596
 4758SOL    HW115173   5.444   2.531  -0.010  0.5181 -1.0259  1.8027
 4758SOL    HW215174   5.594   2.549   0.052  1.2204  1.2925 -0.3705
 4759SOL     OW15175   6.308   3.803   0.872  0.1248  0.2798 -0.5235
 4759SOL    HW115176   6.216   3.829   0.842 -0.1190  2.0863  1.5379
 4759SOL    HW215177   6.376   3.847   0.813 -0.2898 -0.7382 -1.8047
 4760SOL     OW15178   0.977   2.432   0.882  0.2526  0.4182  0.4677
 4760SOL    HW115179   1.021   2.444   0.793  0.0874 -0.0948  0.3148
 4760SOL    HW215180   0.883   2.399   0.868  0.7482 -1.2557  0.8695
 4761SOL     OW15181   2.314   5.467   6.737  0.3420 -0.7187 -0.4736
 4761SOL    HW115182   2.340   5.396   6.803 -0.1546 -1.6750 -1.2775
 4761SOL    HW215183   2.215   5.475   6.735  0.4286  1.4647  1.0849
 4762SOL     OW15184   3.695   0.662   3.253  0.2665  1.0272  0.2019
 4762SOL    HW115185   3.762   0.626   3.318  0.2769  1.2155  0.2982
 4762SOL    HW215186   3.709   0.620   3.164 -1.0788 -0.8012  0.8010
 4763SOL     OW15187   4.554   5.752   4.912 -0.0340  0.1785  0.5495
 4763SOL    HW115188   4.630   5.690   4.892 -0.1911 -0.0222  0.5748
 4763SOL    HW215189   4.479   5.701   4.955 -0.5760  0.1707 -0.3709
 4764SOL     OW15190   4.023   3.178   3.870 -0.2083  0.1056 -0.0543
 4764SOL    HW115191   4.028   3.191   3.771  0.0010 -0.7545 -0.1648
 4764SOL    HW215192   3.974   3.093   3.890  0.5119 -0.1771  0.5496
 4765SOL     OW15193   0.540   6.315   1.388 -0.2495  0.4681  0.1583
 4765SOL    HW115194   0.563   6.275   1.299 -0.9610 -3.1070  1.4181
 4765SOL    HW215195   0.441   6.326   1.394 -0.2257  0.4346  0.6204
 4766SOL     OW15196   2.276   1.927   3.146  0.9203  0.0248 -0.3713
 4766SOL    HW115197   2.293   1.829   3.135  1.1382  0.0984 -0.6918
 4766SOL    HW215198   2.253   1.946   3.242 -2.8047 -0.8927 -0.9528
 4767SOL     OW15199   4.600   6.572   6.474  0.5785 -0.1896 -0.0022
 4767SOL    HW115200   4.514   6.595   6.430 -0.2127  0.1746  1.6450
 4767SOL    HW215201   4.670   6.556   6.405 -0.4926  0.7139 -1.3452
 4768SOL     OW15202   3.154   6.508   3.627  0.3489 -0.9258  0.2445
 4768SOL    HW115203   3.240   6.542   3.589 -0.8741  2.0739 -0.1378
 4768SOL    HW215204   3.125   6.427   3.577  1.8214 -0.6594 -1.1319
 4769SOL     OW15205   4.597   0.914   3.319  0.3999  0.1819 -0.3305
 4769SOL    HW115206   4.507   0.871   3.315 -0.8893  2.8006 -1.6146
 4769SOL    HW215207   4.650   0.888   3.238 -0.8464  1.8569 -1.7529
 4770SOL     OW15208   3.828   1.139   3.998  0.1583  0.3274  0.1434
 4770SOL    HW115209   3.870   1.194   4.070 -0.5148 -0.2264  0.9789
 4770SOL    HW215210   3.758   1.079   4.038  0.9997 -1.2902 -0.6976
 4771SOL     OW15211   3.864   4.086   0.604 -0.0091 -0.0484  0.5699
 4771SOL    HW115212   3.901   3.994   0.598 -1.8960 -0.8894  1.2708
 4771SOL    HW215213   3.792   4.089   0.673 -1.7983  1.3110 -1.2463
 4772SOL     OW15214   3.737   1.381   0.251  0.1071  0.0190  1.0639
 4772SOL    HW115215   3.735   1.418   0.343 -1.0302 -1.1292  1.5175
 4772SOL    HW215216   3.711   1.285   0.252 -0.6884  0.1771 -0.5399
 4773SOL     OW15217   0.511   4.874   2.901  0.3980 -0.0923 -0.4448
 4773SOL    HW115218   0.505   4.774   2.899 -2.3687  0.0012 -1.6892
 4773SOL    HW215219   0.511   4.905   2.996  0.7052 -1.2362 -0.0447
 4774SOL     OW15220   2.222   2.600   0.162  0.0686 -0.6837  0.0153
 4774SOL    HW115221   2.203   2.513   0.116  0.6266 -0.5661 -0.4468
 4774SOL    HW215222   2.321   2.617   0.162 -0.0856  0.2511 -0.4430
 4775SOL     OW15223   2.193   4.088   2.793 -0.5471 -0.0047  0.1296
 4775SOL    HW115224   2.270   4.118   2.736 -0.5168  0.8751  0.6209
 4775SOL    HW215225   2.130   4.164   2.806 -0.3031 -0.0471  1.6823
 4776SOL     OW15226   3.866   5.906   1.756  0.6476 -0.2956  0.5752
 4776SOL    HW115227   3.811   5.920   1.838  2.2951  1.2361  1.4828
 4776SOL    HW215228   3.878   5.993   1.708  0.7397 -0.9425 -0.6226
 4777SOL     OW15229   1.175   4.455   6.898 -0.1218 -0.1592  0.1671
 4777SOL    HW115230   1.218   4.502   6.821  1.6231 -2.6923 -0.5518
 4777SOL    HW215231   1.242   4.398   6.944 -1.3981  0.4167  2.9545
 4778SOL     OW15232   6.408   5.109   4.517  0.2311  0.1880 -0.1933
 4778SOL    HW115233   6.424   5.087   4.420  0.1078  1.7452 -0.5979
 4778SOL    HW215234   6.450   5.197   4.538 -0.2030  0.1112  1.0372
 4779SOL     OW15235   6.499   0.647   3.146  0.2676  0.2248 -0.0961
 4779SOL    HW115236   6.402   0.664   3.130  0.4144  0.0269 -1.2819
 4779SOL    HW215237   6.511   0.555   3.182 -0.0196  0.4289  0.5331
 4780SOL     OW15238   0.090   6.805   5.547 -0.4895  0.0064  0.1636
 4780SOL    HW115239   0.080   6.711   5.516  0.4106  0.0164 -0.1954
 4780SOL    HW215240   0.076   6.810   5.646 -2.5055 -0.1704 -0.0876
 4781SOL     OW15241   1.703   5.298   2.889  0.1235 -0.3497 -0.0540
 4781SOL    HW115242   1.738   5.263   2.802  0.4437  0.3388 -0.2086
 4781SOL    HW215243   1.777   5.343   2.938 -0.2613  0.0274  0.1821
 4782SOL     OW15244   1.402   6.350   6.116  0.1543 -0.1495 -0.7182
 4782SOL    HW115245   1.415   6.272   6.177 -1.0333  0.2692  0.1183
 4782SOL    HW215246   1.442   6.431   6.157  0.5964 -0.1424 -1.1641
 4783SOL     OW15247   5.327   3.962   1.664  0.0378  0.0340 -0.0907
 4783SOL    HW115248   5.338   3.871   1.703 -0.3873  0.0585  0.0858
 4783SOL    HW215249   5.326   3.955   1.564  2.4286  0.1074 -0.1870
 4784SOL     OW15250   5.393   3.027   4.225  0.1056 -0.1928  0.6141
 4784SOL    HW115251   5.310   2.985   4.188 -0.0631  0.6691 -0.0095
 4784SOL    HW215252   5.474   2.987   4.180 -0.0033 -0.4808  0.6708
 4785SOL     OW15253   3.604   5.177   0.207  0.0323  0.3958  0.1757
 4785SOL    HW115254   3.623   5.080   0.190  1.2729  0.7525 -0.6106
 4785SOL    HW215255   3.605   5.193   0.306  1.0507 -0.1807  0.2751
 4786SOL     OW15256   2.323   4.864   1.246  0.7413  0.0085 -0.5919
 4786SOL    HW115257   2.322   4.946   1.189 -2.2299 -0.1992 -0.9971
 4786SOL    HW215258   2.284   4.885   1.336  0.5409 -0.8051 -0.4805
 4787SOL     OW15259   3.313   5.796   3.556 -0.6810  0.1128  0.3541
 4787SOL    HW115260   3.228   5.797   3.609 -0.4330 -0.6459  0.7960
 4787SOL    HW215261   3.298   5.838   3.467 -1.4631  0.1756  0.5072
 4788SOL     OW15262   1.243   0.481   6.325 -0.1320  0.5007  0.3652
 4788SOL    HW115263   1.259   0.391   6.365 -0.6508  0.5847  0.7758
 4788SOL    HW215264   1.160   0.521   6.364 -0.5703  0.6558 -0.6995
 4789SOL     OW15265   4.736   5.452   1.693  0.3913 -0.1470  0.4592
 4789SOL    HW115266   4.778   5.521   1.635  1.1013  0.1572  1.3113
 4789SOL    HW215267   4.664   5.494   1.749 -1.4219 -0.7408 -1.2878
 4790SOL     OW15268   1.305   0.028   5.909  0.2690 -0.1056  0.1566
 4790SOL    HW115269   1.322   0.123   5.936  1.1617 -0.7252  1.9446
 4790SOL    HW215270   1.384  -0.028   5.935 -0.6313 -1.4897 -0.0098
 4791SOL     OW15271   6.512   2.202   4.408 -0.2746  0.6132 -0.2529
 4791SOL    HW115272   6.482   2.293   4.378  1.0152  0.4318 -2.3310
 4791SOL    HW215273   6.466   2.132   4.354  0.2040  0.1217 -0.0328
 4792SOL     OW15274   4.020   3.471   2.268 -0.0687  0.1596  0.1015
 4792SOL    HW115275   3.930   3.513   2.254  0.2026  0.7117 -0.0468
 4792SOL    HW215276   4.062   3.510   2.350  0.2740  0.3384 -0.1548
 4793SOL     OW15277   1.283   0.564   6.999  0.5391  0.2145 -0.7290
 4793SOL    HW115278   1.367   0.511   6.995  0.8105  0.5576  0.1378
 4793SOL    HW215279   1.302   0.653   7.040 -0.1623  0.4777 -0.9573
 4794SOL     OW15280   5.534   1.023   2.915  0.2352  0.3475  0.4999
 4794SOL    HW115281   5.453   1.018   2.973  0.7046  1.5434  1.3144
 4794SOL    HW215282   5.518   1.089   2.841  0.3566  0.3605  0.4848
 4795SOL     OW15283   6.558   2.010   3.942  1.0703  0.7600 -0.0232
 4795SOL    HW115284   6.532   2.100   3.908  3.7667  1.3045 -0.8447
 4795SOL    HW215285   6.593   1.954   3.867 -1.2947 -1.3659  0.2975
 4796SOL     OW15286   5.240   4.687   1.551 -0.4925  0.0425 -0.2156
 4796SOL    HW115287   5.252   4.589   1.568  1.3666  0.4327  1.1212
 4796SOL    HW215288   5.154   4.718   1.591 -0.8585 -0.9602 -0.2144
 4797SOL     OW15289   1.222   3.992   3.565  0.0883 -0.1745 -0.4583
 4797SOL    HW115290   1.228   3.893   3.558 -0.0745 -0.3165  1.0404
 4797SOL    HW215291   1.311   4.033   3.543 -0.2754 -0.5098 -2.7262
 4798SOL     OW15292   0.594   6.161   0.202 -0.0486 -0.2353 -0.0964
 4798SOL    HW115293   0.545   6.136   0.119  0.5234 -0.5499 -0.3419
 4798SOL    HW215294   0.531   6.157   0.280  0.0589 -2.7016 -0.0616
 4799SOL     OW15295   4.907   1.292   5.379 -0.5781  0.0386 -0.3619
 4799SOL    HW115296   4.905   1.220   5.308 -1.6800  1.6031 -2.0015
 4799SOL    HW215297   4.814   1.307   5.413 -0.2175  0.1164  0.6147
 4800SOL     OW15298   0.723   4.228   3.223 -0.4650 -0.6462 -0.0502
 4800SOL    HW115299   0.655   4.215   3.151 -0.7227 -1.6405  0.3486
 4800SOL    HW215300   0.677   4.252   3.309 -0.0837  1.8411 -0.4554
 4801SOL     OW15301   6.710   2.195   1.205 -0.5196  0.1082 -0.3057
 4801SOL    HW115302   6.769   2.181   1.284  1.4961 -1.0233 -1.9105
 4801SOL    HW215303   6.628   2.138   1.214 -0.9785  1.0165  1.5474
 4802SOL     OW15304   3.341   1.211   3.339  0.1802  0.6949 -0.1715
 4802SOL    HW115305   3.352   1.208   3.438 -0.0099  1.2944 -0.1271
 4802SOL    HW215306   3.276   1.140   3.311  0.4307  0.3545  0.0989
 4803SOL     OW15307   1.963   5.590   1.143 -0.0675 -0.1723 -0.3068
 4803SOL    HW115308   1.983   5.495   1.167 -0.0887  0.2530  1.5753
 4803SOL    HW215309   1.875   5.595   1.095  0.1655 -1.1307 -0.8598
 4804SOL     OW15310   4.067   3.716   6.839  0.6709  0.6128 -0.8314
 4804SOL    HW115311   4.110   3.696   6.927 -0.5594 -1.3449 -0.6124
 4804SOL    HW215312   4.011   3.798   6.847 -2.0595 -1.2552  1.2687
 4805SOL     OW15313   1.976   6.581   2.126 -0.0401 -0.0176  0.0125
 4805SOL    HW115314   2.000   6.484   2.130  2.2939  0.4876  0.0813
 4805SOL    HW215315   1.944   6.604   2.034 -0.4703 -0.8126 -0.0423
 4806SOL     OW15316   6.142   3.478   3.273 -0.2626  0.0547 -0.4711
 4806SOL    HW115317   6.116   3.573   3.289  1.1424  0.5595 -1.0810
 4806SOL    HW215318   6.234   3.474   3.235 -1.5037 -1.3609 -3.6594
 4807SOL     OW15319   0.517   1.326   1.848  0.4681  0.6912  1.0508
 4807SOL    HW115320   0.598   1.267   1.853  1.1951  1.4106 -1.2206
 4807SOL    HW215321   0.546   1.421   1.837 -0.6097  0.7772 -1.7230
 4808SOL     OW15322   6.401   6.524   0.424 -0.2401 -0.4848 -0.1282
 4808SOL    HW115323   6.369   6.500   0.332  0.3653 -2.7329  0.1760
 4808SOL    HW215324   6.328   6.505   0.490 -0.3126  0.1259 -0.0289
 4809SOL     OW15325   4.566   4.226   0.689 -0.0187 -0.1018  0.0860
 4809SOL    HW115326   4.506   4.166   0.637  1.0353 -0.5146 -0.6897
 4809SOL    HW215327   4.545   4.322   0.667  2.1984 -0.2273 -3.3766
 4810SOL     OW15328   2.876   6.609   6.142 -0.1390 -0.4988  0.0766
 4810SOL    HW115329   2.940   6.679   6.111 -1.4018  0.4256 -0.5256
 4810SOL    HW215330   2.894   6.524   6.094  0.2342 -0.0679 -0.5568
 4811SOL     OW15331   5.161   3.887   4.691  0.5342  0.4629  0.0905
 4811SOL    HW115332   5.241   3.844   4.732  0.9297  0.3769 -0.7564
 4811SOL    HW215333   5.078   3.843   4.726  0.9160 -0.5542 -0.2653
 4812SOL     OW15334   6.454   5.528   2.972  0.2235  0.1627  0.4420
 4812SOL    HW115335   6.371   5.520   3.026 -1.3695  1.0665 -1.7352
 4812SOL    HW215336   6.497   5.438   2.962 -0.2287 -0.2433  1.9198
 4813SOL     OW15337   6.526   4.835   2.547  0.5985 -0.0039 -0.1672
 4813SOL    HW115338   6.506   4.771   2.474 -0.6142  0.2920 -0.1142
 4813SOL    HW215339   6.625   4.845   2.557  0.7755 -0.3478 -1.4854
 4814SOL     OW15340   1.922   2.577   1.634  0.2277  0.2243  0.3254
 4814SOL    HW115341   1.999   2.528   1.676  2.4384  0.7874 -2.7363
 4814SOL    HW215342   1.881   2.638   1.702  2.2931 -0.2948  2.1619
 4815SOL     OW15343   5.062   0.988   2.644  0.2719  0.6064  0.5671
 4815SOL    HW115344   5.096   1.055   2.579  2.0016  0.5685  1.3902
 4815SOL    HW215345   4.981   1.025   2.691 -1.7575  0.1831 -2.3195
 4816SOL     OW15346   6.381   2.673   5.478  0.8390 -0.2412  0.0854
 4816SOL    HW115347   6.410   2.598   5.419 -0.0842 -0.2916 -0.3187
 4816SOL    HW215348   6.299   2.716   5.439  0.4653 -0.0070  1.1107
 4817SOL     OW15349   4.572   3.886   1.459 -0.2774 -0.2800  0.4554
 4817SOL    HW115350   4.501   3.833   1.413 -0.2212  0.4837 -0.5364
 4817SOL    HW215351   4.569   3.867   1.558 -0.9257 -1.3230  0.2484
 4818SOL     OW15352   0.448   0.258   4.658 -0.3245  0.4799 -0.2225
 4818SOL    HW115353   0.431   0.205   4.574 -0.8573 -1.0883  0.8218
 4818SOL    HW215354   0.368   0.252   4.718  0.4274  0.7338  0.8336
 4819SOL     OW15355   6.546   3.128   0.507 -0.2274  0.5373  0.2195
 4819SOL    HW115356   6.522   3.036   0.478 -0.9170  0.6453  0.4344
 4819SOL    HW215357   6.613   3.123   0.582  1.5308  0.2599 -1.2878
 4820SOL     OW15358   6.236   2.962   1.809  0.3306  0.2491 -0.2426
 4820SOL    HW115359   6.142   2.989   1.830  0.5027  0.2633  0.5473
 4820SOL    HW215360   6.299   3.011   1.869  0.7896 -0.2846 -0.2767
 4821SOL     OW15361   5.839   5.792   2.962  0.3186  0.1662 -0.2256
 4821SOL    HW115362   5.765   5.839   2.914  0.0364  0.5618  0.5854
 4821SOL    HW215363   5.920   5.851   2.963 -0.0045  0.6135  0.7033
 4822SOL     OW15364   2.780   5.748   2.440 -0.4201  0.3137  0.5301
 4822SOL    HW115365   2.724   5.796   2.373  0.3487 -1.3232 -1.3919
 4822SOL    HW215366   2.741   5.658   2.457  2.4616 -1.6875 -2.3660
 4823SOL     OW15367   1.388   0.711   5.868  0.1630  0.1471 -0.0174
 4823SOL    HW115368   1.399   0.717   5.769  2.9615  2.0523  0.3040
 4823SOL    HW215369   1.338   0.791   5.901  3.1535  1.9662  0.4412
 4824SOL     OW15370   5.535   3.265   6.856 -0.3923 -0.4345 -0.1218
 4824SOL    HW115371   5.594   3.327   6.908 -3.5320  2.5568  0.3067
 4824SOL    HW215372   5.554   3.274   6.758  0.5437 -0.3434  0.0639
 4825SOL     OW15373   6.836   6.029   4.752 -0.0391 -0.3770 -0.3697
 4825SOL    HW115374   6.750   6.043   4.801 -0.4361 -0.7221 -0.9500
 4825SOL    HW215375   6.892   6.111   4.760  0.2127 -0.6621  1.2260
 4826SOL     OW15376   5.178   5.304   1.351  0.6868  0.2720  0.0154
 4826SOL    HW115377   5.162   5.207   1.334  1.1063  0.2317 -0.1668
 4826SOL    HW215378   5.242   5.313   1.428 -0.2930  0.4294  0.8314
 4827SOL     OW15379   5.129   0.839   1.914 -0.7311 -0.0802 -0.3400
 4827SOL    HW115380   5.058   0.804   1.853 -0.9880  0.8926 -0.6187
 4827SOL    HW215381   5.086   0.896   1.984 -0.1835  0.8830 -0.7818
 4828SOL     OW15382   5.380   0.365   6.442  0.0274  0.3020 -0.0850
 4828SOL    HW115383   5.360   0.323   6.353 -0.5866 -1.1721  0.7104
 4828SOL    HW215384   5.360   0.463   6.438  1.3308  0.5546 -1.9585
 4829SOL     OW15385   5.228   5.941   4.520 -0.3804 -0.4203 -0.1609
 4829SOL    HW115386   5.133   5.953   4.492  0.0329  1.6146 -0.8785
 4829SOL    HW215387   5.262   6.027   4.560  2.1115  0.0943 -3.0412
 4830SOL     OW15388   0.880   0.212   4.660  0.6713 -0.1518 -0.2462
 4830SOL    HW115389   0.940   0.286   4.690  1.0011  0.1653 -1.5816
 4830SOL    HW215390   0.810   0.250   4.599  0.5542 -0.8637 -0.5603
 4831SOL     OW15391   2.103   3.780   0.512 -0.1710  0.3402  0.0536
 4831SOL    HW115392   2.143   3.698   0.471 -0.5053 -0.5792  1.4793
 4831SOL    HW215393   2.164   3.815   0.582  0.1755  1.6018 -0.8567
 4832SOL     OW15394   3.750   4.055   2.641 -0.3272  0.3014  0.1652
 4832SOL    HW115395   3.746   3.955   2.634 -3.4621  0.1237  2.2446
 4832SOL    HW215396   3.729   4.096   2.553  2.1899 -0.7489 -1.0337
 4833SOL     OW15397   4.354   0.821   4.962  0.1551 -0.0175  0.4076
 4833SOL    HW115398   4.407   0.773   5.032 -0.5835 -0.5418  0.6162
 4833SOL    HW215399   4.356   0.919   4.981  3.9231  0.4692 -1.5032
 4834SOL     OW15400   6.114   3.820   1.720  0.3664  0.1213  0.4359
 4834SOL    HW115401   6.062   3.827   1.806 -0.1400  0.2682  0.1242
 4834SOL    HW215402   6.062   3.863   1.646  0.4976 -0.5768 -0.0791
 4835SOL     OW15403   1.416   4.291   6.334  0.4113  0.3715  0.0102
 4835SOL    HW115404   1.390   4.383   6.303 -0.4943  0.1761  0.1593
 4835SOL    HW215405   1.337   4.230   6.326  1.2144 -0.5924 -0.8029
 4836SOL     OW15406   4.692   0.655   5.727 -0.1876  0.4632 -0.5371
 4836SOL    HW115407   4.611   0.688   5.678 -0.5057 -0.3049 -0.5397
 4836SOL    HW215408   4.747   0.734   5.756  0.0676  0.9341 -2.2135
 4837SOL     OW15409   0.811   2.194   2.708 -0.3902 -0.1146 -0.3382
 4837SOL    HW115410   0.894   2.203   2.764 -0.6151  0.6144 -0.1099
 4837SOL    HW215411   0.733   2.175   2.768 -0.3929 -0.7834 -0.5520
 4838SOL     OW15412   1.671   4.506   5.527  0.1077  0.4118  0.1551
 4838SOL    HW115413   1.655   4.543   5.619 -1.5481 -0.2705  0.1726
 4838SOL    HW215414   1.752   4.446   5.530  0.2738  0.6574  1.0847
 4839SOL     OW15415   2.386   2.675   2.780  0.6149  0.2798 -0.0538
 4839SOL    HW115416   2.291   2.648   2.769  0.5445  0.4529  0.1254
 4839SOL    HW215417   2.391   2.764   2.826  0.8064  1.3670 -2.0528
 4840SOL     OW15418   5.735   3.227   3.607  0.5517 -0.2704  0.3360
 4840SOL    HW115419   5.807   3.279   3.560  0.5991  0.2449  0.9641
 4840SOL    HW215420   5.655   3.221   3.548 -0.1879  2.2211  0.9293
 4841SOL     OW15421   0.838   5.794   1.916  0.4574 -0.1607  0.4988
 4841SOL    HW115422   0.849   5.876   1.971  1.6414  0.1844 -0.2063
 4841SOL    HW215423   0.742   5.769   1.910 -0.2064  2.4429 -1.0855
 4842SOL     OW15424   2.886   4.804   3.259 -0.0509 -0.3030 -0.5344
 4842SOL    HW115425   2.861   4.752   3.340  0.4611 -0.6122 -0.5693
 4842SOL    HW215426   2.966   4.861   3.279  0.7985 -1.2345 -1.1205
 4843SOL     OW15427   5.711   3.408   0.431  0.0635  0.0911  0.1576
 4843SOL    HW115428   5.688   3.363   0.345  0.6995 -1.1165  0.5989
 4843SOL    HW215429   5.716   3.507   0.417 -1.5192  0.0730 -0.7984
 4844SOL     OW15430   2.598   4.600   5.997  0.0877  0.5500  0.2886
 4844SOL    HW115431   2.530   4.538   5.957  0.2158 -0.3145  1.3688
 4844SOL    HW215432   2.619   4.571   6.090  1.5560  1.1060  0.1586
 4845SOL     OW15433   6.358   5.092   5.060 -0.1020 -0.2667 -0.0712
 4845SOL    HW115434   6.302   5.020   5.101  0.6479 -1.0434 -0.3710
 4845SOL    HW215435   6.312   5.180   5.070 -0.7818 -0.7055  0.7933
 4846SOL     OW15436   5.487   4.420   5.337 -0.7485  0.1439 -0.0887
 4846SOL    HW115437   5.580   4.398   5.307 -0.6921 -0.8070  0.7370
 4846SOL    HW215438   5.485   4.511   5.376 -0.1135  0.0789  0.1051
 4847SOL     OW15439   0.877   0.191   5.394 -0.1084 -0.1269 -0.0728
 4847SOL    HW115440   0.955   0.248   5.420 -0.9195  1.2592 -0.6046
 4847SOL    HW215441   0.850   0.211   5.300 -1.0414 -0.6818  0.0606
 4848SOL     OW15442   4.194   0.992   3.919  0.6048 -0.2882  1.0241
 4848SOL    HW115443   4.232   0.992   3.826 -0.9290  0.9202  0.3558
 4848SOL    HW215444   4.101   0.957   3.917  1.0460 -1.6431  2.3715
 4849SOL     OW15445   0.028   5.657   6.674 -0.0679  0.3593 -0.2223
 4849SOL    HW115446  -0.029   5.646   6.756 -0.2136  1.8656 -0.0860
 4849SOL    HW215447   0.064   5.751   6.671  0.2710  0.2081 -1.6743
 4850SOL     OW15448   4.626   1.084   1.054  0.0397  0.2322  0.2437
 4850SOL    HW115449   4.683   1.166   1.051  0.0469  0.2059 -0.6391
 4850SOL    HW215450   4.599   1.066   1.148  0.3468  1.0339  0.4961
 4851SOL     OW15451   4.330   2.742   6.968  0.1160  0.6274 -0.5052
 4851SOL    HW115452   4.248   2.696   7.001  1.7793  0.3014  3.8655
 4851SOL    HW215453   4.375   2.686   6.898 -1.2855 -1.1125 -0.0797
 4852SOL     OW15454   4.541   2.881   5.741 -0.0066  0.6546  0.5691
 4852SOL    HW115455   4.453   2.922   5.767 -1.0529 -0.8652 -0.4213
 4852SOL    HW215456   4.525   2.807   5.676  2.0430  0.4147  0.2857
 4853SOL     OW15457   3.379   0.087   2.239 -0.2919 -0.0191  0.4160
 4853SOL    HW115458   3.307   0.149   2.209  0.6862  1.6669  1.4005
 4853SOL    HW215459   3.456   0.091   2.175 -0.9081 -1.6198 -0.4906
 4854SOL     OW15460   4.523   5.772   3.522 -0.5229 -0.4962  0.5569
 4854SOL    HW115461   4.622   5.786   3.519 -0.3367 -1.1173  2.2879
 4854SOL    HW215462   4.476   5.860   3.529 -0.1420 -0.1692 -0.8368
 4855SOL     OW15463   4.849   4.239   5.024  0.7138  0.4698  0.1990
 4855SOL    HW115464   4.782   4.270   5.090 -1.6687  0.5168 -2.0998
 4855SOL    HW215465   4.854   4.139   5.025 -0.4829  0.3843 -0.5610
 4856SOL     OW15466   1.461   1.921   3.308  0.0462 -0.0875  0.3255
 4856SOL    HW115467   1.380   1.979   3.306  0.6073  0.7271 -1.6955
 4856SOL    HW215468   1.499   1.913   3.216 -0.4998 -4.4694  0.2400
 4857SOL     OW15469   2.550   0.981   5.164 -0.2849  0.4217  0.4059
 4857SOL    HW115470   2.471   0.920   5.152  0.2123 -0.0397 -0.7443
 4857SOL    HW215471   2.624   0.951   5.104 -0.5007  2.9729 -1.2846
 4858SOL     OW15472   1.268   5.569   5.739  0.1312  0.2838  0.0946
 4858SOL    HW115473   1.286   5.521   5.824 -0.3468 -0.1925 -0.0678
 4858SOL    HW215474   1.212   5.512   5.679 -1.0000  1.2966  0.1591
 4859SOL     OW15475   6.415   5.436   4.312 -0.6976 -0.2541 -0.0048
 4859SOL    HW115476   6.462   5.438   4.400 -0.3703  0.6109 -0.1935
 4859SOL    HW215477   6.474   5.395   4.242 -1.0124 -1.0769  0.2000
 4860SOL     OW15478   4.663   4.326   1.152 -0.0829  0.1889 -0.2216
 4860SOL    HW115479   4.625   4.242   1.192 -0.0858  0.2774 -0.0412
 4860SOL    HW215480   4.762   4.316   1.141 -0.1476 -0.0322 -0.6694
 4861SOL     OW15481   6.538   5.764   4.068  0.1522 -0.5679 -0.3047
 4861SOL    HW115482   6.615   5.822   4.094 -1.2247  1.1178  0.1030
 4861SOL    HW215483   6.508   5.788   3.976 -1.0107  0.0223  0.2187
 4862SOL     OW15484   2.363   5.368   2.102 -0.0018  0.5989 -0.2735
 4862SOL    HW115485   2.391   5.375   2.007  1.9832 -0.7205  0.1500
 4862SOL    HW215486   2.283   5.309   2.110  0.1508  0.2745 -1.0654
 4863SOL     OW15487   5.973   1.555   2.106 -0.5106 -0.1385  1.1704
 4863SOL    HW115488   5.890   1.602   2.075 -0.2893  0.6312  1.7083
 4863SOL    HW215489   6.039   1.622   2.138 -0.7845 -0.8771  3.4355
 4864SOL     OW15490   0.809   3.336   1.320 -0.0346 -0.1823  0.3962
 4864SOL    HW115491   0.801   3.282   1.404 -0.7027 -2.3672 -0.9833
 4864SOL    HW215492   0.876   3.293   1.259  0.1863  1.1622 -0.3476
 4865SOL     OW15493   3.062   1.351   3.476  0.4186  0.4636  0.5854
 4865SOL    HW115494   3.126   1.413   3.432 -0.7591  0.5289 -1.1371
 4865SOL    HW215495   3.052   1.268   3.420 -2.0623  1.0817 -0.0164
 4866SOL     OW15496   6.833   4.393   2.662 -0.2850  0.6539 -0.2148
 4866SOL    HW115497   6.740   4.366   2.686 -0.4875  0.6851 -0.9284
 4866SOL    HW215498   6.899   4.329   2.701 -0.6555  0.1921 -0.3416
 4867SOL     OW15499   5.615   1.039   0.516 -0.4156 -0.2498  0.0317
 4867SOL    HW115500   5.636   0.982   0.437 -1.3849  0.9678 -1.1538
 4867SOL    HW215501   5.517   1.061   0.517 -0.0450  1.5622  0.2908
 4868SOL     OW15502   2.488   5.645   4.614 -0.1144 -0.0158 -0.2787
 4868SOL    HW115503   2.587   5.638   4.630 -0.3292 -1.6899  0.5671
 4868SOL    HW215504   2.451   5.553   4.599 -1.8374  0.3702  1.3019
 4869SOL     OW15505   3.228   2.291   0.844 -0.2191 -0.1535 -0.1037
 4869SOL    HW115506   3.154   2.280   0.911  0.6178 -1.2862  0.6663
 4869SOL    HW215507   3.315   2.304   0.892  0.2448  0.1222 -0.9957
 4870SOL     OW15508   0.434   1.841   2.113  0.3886  0.2918 -0.2762
 4870SOL    HW115509   0.374   1.884   2.180  0.6903  2.1016 -1.0907
 4870SOL    HW215510   0.493   1.774   2.158 -3.2199 -2.8433  0.3529
 4871SOL     OW15511   0.700   2.616   4.426  0.3078 -0.9734  0.2275
 4871SOL    HW115512   0.650   2.629   4.512  1.0297 -2.7990  0.9710
 4871SOL    HW215513   0.697   2.701   4.373 -1.6023 -0.3312  1.2722
 4872SOL     OW15514   2.848   2.243   2.450  0.1511  0.0412 -0.4667
 4872SOL    HW115515   2.810   2.240   2.358 -0.6133  1.2766 -0.2098
 4872SOL    HW215516   2.945   2.220   2.446 -0.2128 -1.4874 -1.3516
 4873SOL     OW15517   2.111   4.726   6.296 -0.1367 -0.5668 -0.1137
 4873SOL    HW115518   2.110   4.808   6.239 -1.0446 -0.8164 -0.4742
 4873SOL    HW215519   2.147   4.649   6.243  0.9040 -0.3685  0.2866
 4874SOL     OW15520   0.190   1.230   5.633 -0.0846  0.5929 -0.1786
 4874SOL    HW115521   0.166   1.152   5.575 -0.2282  0.3238  0.2363
 4874SOL    HW215522   0.287   1.224   5.658 -0.5354 -0.5343  1.4473
 4875SOL     OW15523   6.900   3.832   6.289 -0.6534  0.2811  0.2821
 4875SOL    HW115524   6.898   3.928   6.260 -0.9288  0.3504  0.5303
 4875SOL    HW215525   6.984   3.789   6.255 -0.0998  0.8408  0.9087
 4876SOL     OW15526   6.542   1.814   5.902  0.1353 -0.2162  0.0244
 4876SOL    HW115527   6.604   1.817   5.823 -0.5162  1.4919 -0.4724
 4876SOL    HW215528   6.458   1.767   5.876 -0.7021  1.6276 -0.8545
 4877SOL     OW15529   4.106   2.173   4.116 -0.3155  0.2053 -0.5382
 4877SOL    HW115530   4.114   2.090   4.062  0.0055  0.0837 -0.3102
 4877SOL    HW215531   4.194   2.221   4.117 -0.0656 -0.2540  0.5987
 4878SOL     OW15532   2.642   2.213   1.644 -0.3472  0.4498  0.6512
 4878SOL    HW115533   2.668   2.185   1.737 -0.6305 -2.3413 -0.0244
 4878SOL    HW215534   2.553   2.260   1.647  0.5487  2.1924  1.9540
 4879SOL     OW15535   3.319   0.036   0.435 -0.0081 -0.5593  0.1031
 4879SOL    HW115536   3.398   0.007   0.382 -1.4163 -0.2582 -2.3233
 4879SOL    HW215537   3.274  -0.044   0.475  0.7790 -0.8454  0.4293
 4880SOL     OW15538   0.348   3.939   5.694 -0.1677 -0.7189  1.2331
 4880SOL    HW115539   0.395   3.952   5.606  0.5637 -0.2279  1.6846
 4880SOL    HW215540   0.274   4.005   5.702 -0.5982 -1.1367  0.7477
 4881SOL     OW15541   3.473   4.896   0.201 -0.0075  0.2449  0.9665
 4881SOL    HW115542   3.388   4.948   0.198  0.2870  0.9447  3.1663
 4881SOL    HW215543   3.495   4.872   0.296  1.7901 -0.6868  0.3701
 4882SOL     OW15544   4.235   5.816   1.357  0.1496 -0.5502  0.2299
 4882SOL    HW115545   4.270   5.725   1.333 -1.5352 -1.2119  0.1193
 4882SOL    HW215546   4.286   5.852   1.435  2.0690 -0.7585 -0.8729
 4883SOL     OW15547   6.123   6.967   0.112  0.1195 -0.1639 -0.6274
 4883SOL    HW115548   6.111   6.869   0.099 -0.0841 -0.5497  1.9112
 4883SOL    HW215549   6.212   6.984   0.154 -0.5217  0.5421  0.4954
 4884SOL     OW15550   4.506   0.072   2.588 -0.0820 -0.2888 -0.1954
 4884SOL    HW115551   4.544   0.088   2.679  0.4300  1.2820 -0.6523
 4884SOL    HW215552   4.571   0.104   2.518 -0.9436 -0.4120 -1.0782
 4885SOL     OW15553   6.825   0.207   1.985  0.7437  0.1500 -0.6221
 4885SOL    HW115554   6.824   0.283   1.920  0.9193  0.9585  0.2943
 4885SOL    HW215555   6.919   0.193   2.017  0.4176  0.9064  0.7432
 4886SOL     OW15556   6.150   5.584   4.094 -0.1066 -0.3022 -0.0467
 4886SOL    HW115557   6.128   5.526   4.172 -0.2037 -1.4731 -0.9234
 4886SOL    HW215558   6.205   5.662   4.125 -0.6657 -0.4072  1.2740
 4887SOL     OW15559   6.123   1.264   6.344  0.3622 -0.9668 -0.2720
 4887SOL    HW115560   6.101   1.355   6.308  1.3896 -0.6646 -0.1655
 4887SOL    HW215561   6.057   1.198   6.308 -1.1698 -0.0009  0.6449
 4888SOL     OW15562   5.342   5.640   1.172  0.1329 -0.0405 -0.4662
 4888SOL    HW115563   5.289   5.602   1.248 -1.6596 -0.6344 -1.9352
 4888SOL    HW215564   5.389   5.567   1.124 -0.0185  0.1088 -0.8491
 4889SOL     OW15565   0.317   2.090   6.485  0.0726 -0.1225  0.1869
 4889SOL    HW115566   0.221   2.112   6.501 -0.1281 -1.5464  1.1592
 4889SOL    HW215567   0.367   2.092   6.572  0.6690 -0.5187 -0.1356
 4890SOL     OW15568   5.648   6.429   3.022 -0.1579  0.1753  0.2895
 4890SOL    HW115569   5.595   6.448   3.104  0.7575  2.2928  0.4328
 4890SOL    HW215570   5.690   6.513   2.988 -0.1580 -0.7100 -2.1180
 4891SOL     OW15571   0.656   3.959   1.354 -0.6230  0.2387  0.6678
 4891SOL    HW115572   0.659   3.900   1.435  0.7310  0.7449  1.0205
 4891SOL    HW215573   0.744   4.006   1.345 -1.5157  1.8672  0.1526
 4892SOL     OW15574   1.295   6.323   1.345 -0.3703  0.5761 -0.1338
 4892SOL    HW115575   1.337   6.242   1.385  0.5659  1.1929  0.1603
 4892SOL    HW215576   1.221   6.355   1.405 -0.8013 -0.0894 -0.2912
 4893SOL     OW15577   5.718   3.444   6.576  0.4771 -0.1489  0.0697
 4893SOL    HW115578   5.736   3.360   6.524  0.6769 -0.0900  0.0400
 4893SOL    HW215579   5.631   3.483   6.547 -0.9937 -1.7911  2.0068
 4894SOL     OW15580   5.891   0.283   3.412 -0.1763  0.1526  0.2428
 4894SOL    HW115581   5.810   0.335   3.439 -0.7794  0.1313 -1.4131
 4894SOL    HW215582   5.869   0.226   3.333  1.5382  0.3919 -0.4501
 4895SOL     OW15583   5.950   3.283   0.520 -0.2898 -0.0693 -0.1513
 4895SOL    HW115584   5.864   3.315   0.479  0.1337 -0.7679 -1.6462
 4895SOL    HW215585   5.939   3.277   0.619 -1.5854  0.9885 -0.2003
 4896SOL     OW15586   3.511   1.150   5.423  0.3881 -0.2005  0.6765
 4896SOL    HW115587   3.475   1.114   5.510  3.2047  0.2802  2.1567
 4896SOL    HW215588   3.493   1.248   5.418  0.5260 -0.1626  0.8949
 4897SOL     OW15589   2.143   6.938   6.414  0.6093  0.1903  0.9329
 4897SOL    HW115590   2.157   6.992   6.497 -3.1433 -2.4534  3.6164
 4897SOL    HW215591   2.083   6.988   6.351  4.6645  2.8694 -1.2376
 4898SOL     OW15592   5.559   5.151   4.748  0.6897 -0.0145 -0.1154
 4898SOL    HW115593   5.502   5.087   4.695  3.1842 -2.0601 -0.4852
 4898SOL    HW215594   5.536   5.143   4.845  0.6737 -1.2093 -0.1985
 4899SOL     OW15595   0.638   3.160   3.528  0.1155 -0.0893 -0.6882
 4899SOL    HW115596   0.570   3.117   3.588 -1.2679  0.3780 -1.8671
 4899SOL    HW215597   0.690   3.227   3.580 -0.9221  0.1673  0.0618
 4900SOL     OW15598   0.590   0.449   5.825  0.0997  0.3120 -0.3126
 4900SOL    HW115599   0.677   0.455   5.872 -0.6106  1.0781  0.9556
 4900SOL    HW215600   0.555   0.356   5.830  1.6928 -0.5044 -2.5041
 4901SOL     OW15601   2.243   0.347   2.362  0.1026 -0.0170  0.1693
 4901SOL    HW115602   2.299   0.323   2.283 -0.2256 -0.0717 -0.0498
 4901SOL    HW215603   2.203   0.264   2.401  2.3478 -0.3502  2.0153
 4902SOL     OW15604   4.515   5.545   0.452  0.1667 -0.1306  0.2900
 4902SOL    HW115605   4.522   5.580   0.359 -1.7861  0.7683  0.4192
 4902SOL    HW215606   4.506   5.445   0.449 -0.7569 -0.0457 -0.5805
 4903SOL     OW15607   6.330   4.203   5.414  0.4655 -0.2136 -0.2940
 4903SOL    HW115608   6.328   4.108   5.383 -0.8014 -0.6181  0.9202
 4903SOL    HW215609   6.256   4.254   5.370  0.7073  0.0330 -0.4158
 4904SOL     OW15610   2.895   1.148   4.252  0.1417 -0.3593 -0.0248
 4904SOL    HW115611   2.945   1.155   4.166  1.0227 -2.2969  0.2855
 4904SOL    HW215612   2.797   1.152   4.233  0.2970 -1.3143 -1.2121
 4905SOL     OW15613   6.241   5.437   2.121 -0.0222  0.5173 -0.2497
 4905SOL    HW115614   6.157   5.483   2.148  0.3329  1.7374 -1.1413
 4905SOL    HW215615   6.270   5.470   2.031  0.8666 -0.6331 -0.4133
 4906SOL     OW15616   5.330   1.055   3.101 -0.2626 -0.6619  0.2773
 4906SOL    HW115617   5.262   0.997   3.146 -0.5172  0.8342  1.9638
 4906SOL    HW215618   5.315   1.150   3.129  0.6319  0.1168 -1.7663
 4907SOL     OW15619   2.774   2.698   0.257 -0.0033  0.3858 -0.5431
 4907SOL    HW115620   2.755   2.703   0.355  1.3587  1.6083 -0.3120
 4907SOL    HW215621   2.741   2.781   0.212 -0.2433  0.0203 -1.0433
 4908SOL     OW15622   5.336   4.965   6.287 -0.3048 -0.1781  0.6577
 4908SOL    HW115623   5.283   5.043   6.254 -0.6177 -1.6418 -2.7911
 4908SOL    HW215624   5.431   4.975   6.255 -0.2383 -0.9698  0.6078
 4909SOL     OW15625   5.445   0.394   5.433 -0.0939 -0.2710 -0.1600
 4909SOL    HW115626   5.518   0.412   5.499 -0.6390 -0.9988  0.6603
 4909SOL    HW215627   5.406   0.481   5.403  0.7863  0.1044 -0.2499
 4910SOL     OW15628   5.451   6.493   3.195  0.4852 -0.0554  0.4993
 4910SOL    HW115629   5.484   6.570   3.249  0.9198 -1.8779  2.9708
 4910SOL    HW215630   5.356   6.474   3.218  0.4682 -0.4362  0.1257
 4911SOL     OW15631   6.639   2.321   1.578 -0.4930  0.2112 -0.0795
 4911SOL    HW115632   6.550   2.278   1.591 -0.9509  1.2850  0.4359
 4911SOL    HW215633   6.693   2.267   1.513 -0.1275 -2.4107  2.2275
 4912SOL     OW15634   2.274   4.414   1.279  0.3030 -0.3300 -0.3420
 4912SOL    HW115635   2.194   4.371   1.321 -0.8471  0.4669 -1.5944
 4912SOL    HW215636   2.243   4.475   1.205  1.8981  1.9078  0.7271
 4913SOL     OW15637   3.687   3.742   3.694  0.3722 -0.2813 -0.2809
 4913SOL    HW115638   3.652   3.719   3.785  0.5713  0.7509  0.0692
 4913SOL    HW215639   3.630   3.813   3.653  0.5111 -0.4664 -0.7978
 4914SOL     OW15640   2.684   2.133   1.179 -0.3390 -0.0594 -0.3710
 4914SOL    HW115641   2.742   2.163   1.254 -1.0431 -0.1485  0.2187
 4914SOL    HW215642   2.636   2.212   1.140  0.0384 -0.0103 -0.7505
 4915SOL     OW15643   5.313   6.573   4.321  0.4891  0.1748  0.1182
 4915SOL    HW115644   5.327   6.654   4.378  1.2010 -0.5640  1.0475
 4915SOL    HW215645   5.385   6.506   4.341 -2.4115 -2.5209  2.6652
 4916SOL     OW15646   1.226   3.114   1.856  0.0744 -0.8230 -0.3044
 4916SOL    HW115647   1.139   3.072   1.831 -1.0434  0.6315  1.0175
 4916SOL    HW215648   1.223   3.212   1.836  1.5603 -0.8005 -0.5670
 4917SOL     OW15649   1.363   3.856   0.452  0.0387 -0.2439  0.3482
 4917SOL    HW115650   1.289   3.822   0.511 -0.8222  2.2048  0.7838
 4917SOL    HW215651   1.323   3.902   0.373  1.0923  0.9048  0.4583
 4918SOL     OW15652   3.615   6.355   4.520  0.6843 -0.2344 -0.7034
 4918SOL    HW115653   3.624   6.365   4.421  1.8339  0.3138 -0.5621
 4918SOL    HW215654   3.588   6.442   4.560  1.0475 -0.2325 -0.4544
 4919SOL     OW15655   2.905   5.174   1.133 -0.4003 -0.2686 -0.2988
 4919SOL    HW115656   2.876   5.258   1.088 -1.1802 -0.3270  0.0621
 4919SOL    HW215657   2.849   5.098   1.099 -0.9123 -0.3368  0.6397
 4920SOL     OW15658   4.264   3.616   0.070 -0.1718  0.4050  0.2586
 4920SOL    HW115659   4.195   3.554   0.108  0.6741 -0.7920 -0.0953
 4920SOL    HW215660   4.263   3.703   0.120 -0.3150 -0.4610  1.8037
 4921SOL     OW15661   5.103   4.329   2.495 -0.3684 -0.0698  0.0299
 4921SOL    HW115662   5.195   4.352   2.526  0.0792  1.3993 -2.2067
 4921SOL    HW215663   5.044   4.409   2.501 -1.4000 -0.8725  0.9850
 4922SOL     OW15664   1.426   4.404   4.737  0.4717 -0.1576  0.1008
 4922SOL    HW115665   1.411   4.461   4.656  1.5454 -0.1450 -0.0993
 4922SOL    HW215666   1.369   4.322   4.731  0.6223 -0.2108 -0.7198
 4923SOL     OW15667   3.396   0.944   6.336 -0.0246  0.8118  0.2016
 4923SOL    HW115668   3.343   0.955   6.252  1.2871 -0.8667 -0.9135
 4923SOL    HW215669   3.494   0.942   6.313  0.2966 -1.6482  1.4784
 4924SOL     OW15670   0.329   2.903   3.281 -0.3711  0.3485 -0.1652
 4924SOL    HW115671   0.354   2.951   3.197  0.2732  0.1661 -0.0800
 4924SOL    HW215672   0.376   2.944   3.359 -1.7347  1.1630  0.2686
 4925SOL     OW15673   4.089   5.931   4.984  0.1766 -0.4275  0.9647
 4925SOL    HW115674   4.178   5.942   4.940  0.8102 -0.4926  2.1813
 4925SOL    HW215675   4.101   5.893   5.076 -1.0216  0.5772  1.5778
 4926SOL     OW15676   2.637   4.433   6.215 -0.4118  0.1159 -0.2217
 4926SOL    HW115677   2.733   4.447   6.241  0.3675 -2.2071 -1.5331
 4926SOL    HW215678   2.582   4.422   6.297  0.4042  1.5743  0.5631
 4927SOL     OW15679   3.246   3.456   3.084  0.4560 -0.6729 -0.3189
 4927SOL    HW115680   3.254   3.453   3.184 -2.1066 -0.3454 -0.0513
 4927SOL    HW215681   3.291   3.538   3.049 -0.6349  0.4571  0.8464
 4928SOL     OW15682   0.363   2.402   6.490  0.4992  0.1125  0.5245
 4928SOL    HW115683   0.299   2.331   6.459 -1.1637  1.5334  0.4929
 4928SOL    HW215684   0.444   2.360   6.530  0.6918 -1.7977 -1.6703
 4929SOL     OW15685   2.090   2.018   4.885 -0.4217 -0.5046 -0.0256
 4929SOL    HW115686   2.073   2.084   4.812 -0.8645  0.1636  0.6719
 4929SOL    HW215687   2.057   1.928   4.856  0.9863 -0.6358 -1.3302
 4930SOL     OW15688   6.730   4.348   1.016 -0.2028 -0.4633 -0.4158
 4930SOL    HW115689   6.663   4.395   0.958 -1.0471  2.0865  2.3534
 4930SOL    HW215690   6.822   4.365   0.980 -0.7429  0.2658 -1.5129
 4931SOL     OW15691   4.005   6.655   6.917 -0.5886 -0.8103 -0.0915
 4931SOL    HW115692   4.022   6.651   6.818 -1.0629  1.7021 -0.3573
 4931SOL    HW215693   3.992   6.751   6.944 -1.8100 -1.5462  2.1900
 4932SOL     OW15694   2.435   1.046   0.415  0.0168  0.5354 -0.0543
 4932SOL    HW115695   2.347   1.045   0.462  0.5404  0.4581  0.9488
 4932SOL    HW215696   2.476   1.137   0.423  0.2223  0.4528 -0.1619
 4933SOL     OW15697   4.631   6.282   3.841 -0.0428  0.0490 -0.0682
 4933SOL    HW115698   4.575   6.354   3.799  1.2898  0.9988 -0.3000
 4933SOL    HW215699   4.697   6.248   3.774  0.2958 -0.3669  0.4679
 4934SOL     OW15700   3.297   0.479   4.619  0.2168 -0.4398 -0.3139
 4934SOL    HW115701   3.248   0.429   4.547  0.5332 -0.1088 -0.7691
 4934SOL    HW215702   3.261   0.453   4.708  0.2611 -1.3534 -0.5487
 4935SOL     OW15703   0.316   3.237   1.737 -0.8610 -0.2369 -0.1821
 4935SOL    HW115704   0.384   3.172   1.770  0.0434 -0.0928 -1.6244
 4935SOL    HW215705   0.342   3.267   1.645 -2.3813  0.5660 -0.3793
 4936SOL     OW15706   5.624   2.638   1.433 -0.4051  0.3277 -0.1748
 4936SOL    HW115707   5.713   2.595   1.422 -0.5442 -0.4705  1.5163
 4936SOL    HW215708   5.553   2.568   1.442 -0.8793  0.8956  0.7649
 4937SOL     OW15709   1.671   4.139   6.361  0.3622 -0.2229 -0.4504
 4937SOL    HW115710   1.648   4.042   6.366  0.4456 -0.2587 -0.7462
 4937SOL    HW215711   1.589   4.192   6.342  0.1789 -0.1590  0.4812
 4938SOL     OW15712   3.632   3.004   0.163  0.0032 -0.3807  0.1023
 4938SOL    HW115713   3.685   3.077   0.119  0.6333  0.4710  2.1796
 4938SOL    HW215714   3.558   2.975   0.102  0.8408  0.7173 -1.5032
 4939SOL     OW15715   0.437   2.277   1.309  0.3780  0.3250  0.4282
 4939SOL    HW115716   0.372   2.225   1.253  0.6221  2.7633 -2.3887
 4939SOL    HW215717   0.456   2.227   1.393 -1.6262 -2.6221 -0.6956
 4940SOL     OW15718   1.925   1.445   6.160 -0.0540 -0.3143  0.3890
 4940SOL    HW115719   1.853   1.514   6.147 -0.5825 -0.9521 -0.1806
 4940SOL    HW215720   1.945   1.436   6.258  0.2901  0.8994  0.4451
 4941SOL     OW15721   4.406   1.184   5.829 -0.6472  0.4837  0.3160
 4941SOL    HW115722   4.378   1.097   5.789  0.4065  0.4479 -0.4020
 4941SOL    HW215723   4.441   1.169   5.922 -2.7046  0.5038  1.1404
 4942SOL     OW15724   2.828   6.641   2.131  0.0818 -0.1632  0.1884
 4942SOL    HW115725   2.745   6.588   2.115  1.7196 -2.8238  0.0057
 4942SOL    HW215726   2.818   6.692   2.217 -1.3193 -1.3231  0.7578
 4943SOL     OW15727   4.526   1.382   0.926  0.0040  0.5010 -0.1061
 4943SOL    HW115728   4.592   1.360   0.998  1.7235  0.5105 -1.6038
 4943SOL    HW215729   4.487   1.297   0.890 -0.0902  0.4426  0.1283
 4944SOL     OW15730   4.307   6.011   5.568 -0.7355 -0.2235  0.2149
 4944SOL    HW115731   4.265   6.070   5.637 -1.2520  1.3753 -1.3809
 4944SOL    HW215732   4.272   5.918   5.578 -1.4015  0.1555  1.5901
 4945SOL     OW15733   3.769   0.781   1.023 -0.3348 -0.8707 -0.3281
 4945SOL    HW115734   3.869   0.776   1.035 -0.0614  0.2259 -1.8290
 4945SOL    HW215735   3.732   0.854   1.080 -0.4067 -1.7743  0.8080
 4946SOL     OW15736   1.350   6.722   1.361  0.1549 -0.1792 -0.0221
 4946SOL    HW115737   1.318   6.810   1.395 -2.0100 -0.6910 -0.5563
 4946SOL    HW215738   1.372   6.730   1.263  0.6558 -0.0685  0.0990
 4947SOL     OW15739   1.705   0.417   0.519 -0.3157  0.1033  0.1617
 4947SOL    HW115740   1.762   0.484   0.567  1.0714 -0.8762 -0.0444
 4947SOL    HW215741   1.763   0.344   0.484 -1.7190 -0.8954 -0.1566
 4948SOL     OW15742   0.553   3.743   2.528  0.2081  0.0822 -0.0069
 4948SOL    HW115743   0.600   3.831   2.517 -0.1756  0.1337 -1.3786
 4948SOL    HW215744   0.606   3.671   2.484 -0.1779 -0.1384 -0.1108
 4949SOL     OW15745   6.759   4.556   0.611 -0.0606 -0.0811  0.1519
 4949SOL    HW115746   6.784   4.648   0.640  0.1922 -0.1129  0.0370
 4949SOL    HW215747   6.835   4.494   0.626  0.5416  0.1474 -1.7115
 4950SOL     OW15748   5.549   3.069   6.283 -0.6404 -0.6063 -0.0021
 4950SOL    HW115749   5.534   2.978   6.322  0.1188 -0.5490  0.4394
 4950SOL    HW215750   5.543   3.063   6.183  1.5625 -1.6083 -0.1370
 4951SOL     OW15751   4.632   5.734   5.739 -0.0988 -0.6137 -0.2087
 4951SOL    HW115752   4.652   5.830   5.718  0.0567 -0.7902 -0.8823
 4951SOL    HW215753   4.589   5.691   5.660 -1.3308 -0.7728  0.5313
 4952SOL     OW15754   6.269   0.202   6.110  0.5217 -0.1268 -0.0058
 4952SOL    HW115755   6.265   0.257   6.193  0.3078  1.1753 -0.8494
 4952SOL    HW215756   6.215   0.246   6.038  1.8994 -0.4190 -1.2820
 4953SOL     OW15757   1.573   1.817   6.834  0.4253  0.4332  0.1966
 4953SOL    HW115758   1.664   1.834   6.874 -0.3305  0.1508  2.1525
 4953SOL    HW215759   1.506   1.877   6.878 -0.5548 -0.2994 -0.2732
 4954SOL     OW15760   3.162   3.711   6.214  0.3289  0.3739  0.2490
 4954SOL    HW115761   3.090   3.765   6.257  1.8334  2.1228  0.6932
 4954SOL    HW215762   3.129   3.618   6.198 -1.3738  0.5679  2.2124
 4955SOL     OW15763   3.846   5.170   6.138  0.4262  0.1017 -0.0293
 4955SOL    HW115764   3.945   5.184   6.136  0.5395 -0.5086  0.7753
 4955SOL    HW215765   3.825   5.087   6.189 -0.4464 -0.4083 -1.1585
 4956SOL     OW15766   2.287   4.883   4.817  0.0564  0.0859  0.7412
 4956SOL    HW115767   2.202   4.877   4.870  0.8875  0.8844  2.2428
 4956SOL    HW215768   2.282   4.962   4.756 -1.8355 -2.1350 -2.2222
 4957SOL     OW15769   5.976   6.374   6.505 -0.3281 -0.4800  0.5229
 4957SOL    HW115770   5.919   6.296   6.477  0.1966 -0.2384 -1.3755
 4957SOL    HW215771   5.964   6.390   6.602 -1.1194 -2.3833  0.7947
 4958SOL     OW15772   2.059   5.759   0.756  0.0271 -0.0164  0.1307
 4958SOL    HW115773   2.030   5.850   0.727  2.1987 -0.4604 -4.3258
 4958SOL    HW215774   1.981   5.697   0.755 -0.8716  1.0868 -0.2558
 4959SOL     OW15775   2.985   5.927   2.517  0.1912  0.2169  0.1394
 4959SOL    HW115776   2.930   6.007   2.540  1.0600  1.3701 -1.5888
 4959SOL    HW215777   2.924   5.851   2.494 -0.6514  0.5346  1.2204
 4960SOL     OW15778   5.883   4.839   4.692 -0.5571  0.5719 -0.4924
 4960SOL    HW115779   5.948   4.808   4.761  1.0329  0.7744 -1.8216
 4960SOL    HW215780   5.848   4.929   4.717  0.4752  0.9166 -0.2217
 4961SOL     OW15781   3.860   2.979   3.907  0.4756  0.4302 -0.3385
 4961SOL    HW115782   3.907   2.926   3.978  0.1417  0.1902 -0.2943
 4961SOL    HW215783   3.762   2.962   3.912  0.3222  1.3296 -0.0961
 4962SOL     OW15784   2.224   0.735   0.671 -0.1084 -0.2390  0.2366
 4962SOL    HW115785   2.205   0.742   0.769  0.9650 -0.5260  0.4841
 4962SOL    HW215786   2.264   0.646   0.651 -0.4775 -0.2468 -0.5002
 4963SOL     OW15787   1.499   3.208   0.237  0.2941 -0.0573  0.0094
 4963SOL    HW115788   1.436   3.198   0.314  1.5628 -0.7359  1.0114
 4963SOL    HW215789   1.478   3.138   0.168 -0.7851  0.4869 -0.2321
 4964SOL     OW15790   0.919   6.834   1.416  0.3860  0.4526 -0.2274
 4964SOL    HW115791   0.904   6.806   1.321 -1.1968  1.2277 -0.2423
 4964SOL    HW215792   0.906   6.756   1.476  1.3008 -0.0225 -0.6187
 4965SOL     OW15793   4.670   6.624   2.698 -0.5076  0.3617  0.5801
 4965SOL    HW115794   4.590   6.647   2.643 -0.3309 -3.1339 -1.4539
 4965SOL    HW215795   4.642   6.591   2.788 -1.3994 -0.9022 -0.1447
 4966SOL     OW15796   4.475   6.999   0.532 -0.4196  0.2730 -0.0061
 4966SOL    HW115797   4.474   7.095   0.559  0.1921  1.3698 -3.4061
 4966SOL    HW215798   4.570   6.968   0.524 -0.5327  0.2742 -1.5778
 4967SOL     OW15799   4.687   5.141   2.351 -0.2924  0.2527 -0.0990
 4967SOL    HW115800   4.689   5.051   2.396 -0.8770  0.9351  1.3810
 4967SOL    HW215801   4.600   5.187   2.373  0.7082  1.8824  0.6464
 4968SOL     OW15802   6.496   3.645   3.627  0.6187 -0.6522  0.4364
 4968SOL    HW115803   6.536   3.712   3.565 -2.1998  2.7393  1.9370
 4968SOL    HW215804   6.453   3.572   3.574  0.6558  0.6434 -1.4741
 4969SOL     OW15805   2.214   0.016   2.227  0.1199 -0.2418  0.1687
 4969SOL    HW115806   2.218  -0.084   2.236  0.5797 -0.3085 -0.6305
 4969SOL    HW215807   2.269   0.044   2.148 -1.2406  0.5124 -0.5507
 4970SOL     OW15808   3.792   0.088   6.023 -0.9530 -0.6269 -0.5694
 4970SOL    HW115809   3.866   0.123   6.082  0.0615 -2.2757 -0.8053
 4970SOL    HW215810   3.704   0.106   6.067 -0.4896  1.6345 -0.4076
 4971SOL     OW15811   1.336   0.892   1.764  0.8413 -0.0097 -0.0303
 4971SOL    HW115812   1.321   0.990   1.763  1.4914  0.1191 -2.1052
 4971SOL    HW215813   1.434   0.872   1.763  0.7178 -0.6485 -0.7851
 4972SOL     OW15814   6.183   2.037   0.465 -0.1983 -0.5567 -0.1192
 4972SOL    HW115815   6.233   2.084   0.393  1.8448 -1.2819  0.7629
 4972SOL    HW215816   6.145   2.105   0.529 -0.7317  0.0102 -1.0089
 4973SOL     OW15817   4.886   2.623   1.417 -0.2306  0.2258 -0.2258
 4973SOL    HW115818   4.919   2.633   1.323  0.7099  2.2460  0.2694
 4973SOL    HW215819   4.963   2.631   1.480 -0.9303 -0.5767  0.7593
 4974SOL     OW15820   2.681   0.585   5.053 -0.5616  0.1983  0.5241
 4974SOL    HW115821   2.620   0.525   5.105 -0.5105 -1.0527 -0.8295
 4974SOL    HW215822   2.737   0.531   4.991  0.6285  1.5146  0.4144
 4975SOL     OW15823   6.612   3.370   1.403 -0.9393 -0.1367  0.1624
 4975SOL    HW115824   6.597   3.469   1.407  0.4943  0.2043  5.2238
 4975SOL    HW215825   6.710   3.351   1.410 -1.3169 -1.6240  4.3212
 4976SOL     OW15826   3.049   0.421   3.445 -0.8396 -0.6250 -0.4276
 4976SOL    HW115827   3.076   0.354   3.514 -0.7193  0.9647  1.1602
 4976SOL    HW215828   2.951   0.411   3.426 -0.9369 -0.8993  0.2008
 4977SOL     OW15829   0.397   3.741   4.972  0.4805 -0.0622  0.1975
 4977SOL    HW115830   0.404   3.775   5.066 -0.9219  2.3117 -0.4803
 4977SOL    HW215831   0.300   3.738   4.946  0.9337  1.9190 -2.0033
 4978SOL     OW15832   1.589   4.975   2.380  0.5999  0.3351 -0.1780
 4978SOL    HW115833   1.638   5.015   2.303  1.4306  1.2421  0.7963
 4978SOL    HW215834   1.616   4.879   2.391 -2.4508 -1.1269 -3.4166
 4979SOL     OW15835   2.712   0.564   0.017  0.3048 -0.1696  0.5469
 4979SOL    HW115836   2.679   0.613  -0.064 -1.5002 -0.6311  0.9713
 4979SOL    HW215837   2.669   0.474   0.022  1.4755 -0.7124  1.2762
 4980SOL     OW15838   4.882   3.867   3.134  0.6505 -0.7722  0.2367
 4980SOL    HW115839   4.864   3.830   3.226  2.2249 -2.1294  0.0495
 4980SOL    HW215840   4.935   3.801   3.082 -1.7840 -0.8602 -2.3615
 4981SOL     OW15841   4.782   0.380   2.451  0.0519  0.1096  0.3403
 4981SOL    HW115842   4.797   0.422   2.362 -1.3633  1.3434  0.6512
 4981SOL    HW215843   4.693   0.407   2.487  0.6070 -0.3152  2.1646
 4982SOL     OW15844   3.094   1.844   5.618 -0.1973 -0.2083 -0.1562
 4982SOL    HW115845   3.105   1.898   5.535 -0.7984  0.3992  0.1464
 4982SOL    HW215846   3.166   1.867   5.683  0.1928 -0.5831 -0.4528
 4983SOL     OW15847   6.060   5.726   2.495 -0.7562  0.2240 -0.0322
 4983SOL    HW115848   6.154   5.692   2.495 -0.4829  0.9623 -0.2219
 4983SOL    HW215849   6.048   5.791   2.420 -1.6379 -0.4486 -0.4930
 4984SOL     OW15850   5.815   2.987   5.410 -0.5492  0.1625  0.2062
 4984SOL    HW115851   5.798   3.075   5.365  2.0239  0.7067  0.1546
 4984SOL    HW215852   5.853   2.922   5.345 -0.2125 -0.2241  0.7769
 4985SOL     OW15853   5.902   0.189   2.065 -0.4686  0.0529  0.0404
 4985SOL    HW115854   5.958   0.193   1.982  0.0877 -2.5925  0.2191
 4985SOL    HW215855   5.857   0.277   2.078 -0.0625  0.7629 -2.6970
 4986SOL     OW15856   1.168   5.835   0.400  0.1446  0.4225 -0.0354
 4986SOL    HW115857   1.107   5.761   0.373  0.1018  0.2585  0.5081
 4986SOL    HW215858   1.233   5.801   0.468  0.1079  0.8925  0.2334
 4987SOL     OW15859   2.933   5.206   2.449 -0.2129  0.4071  0.1874
 4987SOL    HW115860   2.948   5.111   2.421  2.5337  0.9897 -0.5232
 4987SOL    HW215861   2.863   5.247   2.390 -0.0032 -0.5907 -0.7964
 4988SOL     OW15862   0.442   5.636   3.076 -0.0469  0.3428 -0.2349
 4988SOL    HW115863   0.387   5.667   3.154 -0.3405 -0.6274 -0.0481
 4988SOL    HW215864   0.433   5.702   3.002 -0.8931  0.5688  0.0499
 4989SOL     OW15865   6.952   0.804   5.326 -0.0311 -0.4764 -0.1981
 4989SOL    HW115866   6.869   0.749   5.321  0.3546 -0.9661 -2.0296
 4989SOL    HW215867   6.931   0.892   5.368 -1.1405 -1.1409  0.7020
 4990SOL     OW15868   2.085   2.180   5.557  0.0209 -0.0375  0.3332
 4990SOL    HW115869   2.158   2.246   5.538  2.7504 -2.4038  1.8427
 4990SOL    HW215870   2.046   2.148   5.471 -0.3056  2.3017 -0.4691
 4991SOL     OW15871   1.511   4.799   4.678 -0.5533 -0.1345  0.1170
 4991SOL    HW115872   1.488   4.893   4.703 -1.7442 -0.5068  0.4751
 4991SOL    HW215873   1.484   4.737   4.752 -0.6070 -0.8564 -0.4938
 4992SOL     OW15874   3.526   1.409   6.284  0.2962 -0.2622 -0.3244
 4992SOL    HW115875   3.431   1.392   6.258  0.7827 -2.6341 -0.7951
 4992SOL    HW215876   3.586   1.346   6.235  1.8920 -0.3979  1.6485
 4993SOL     OW15877   2.811   5.141   4.625 -0.5507  0.7699  0.3488
 4993SOL    HW115878   2.830   5.205   4.551 -0.9157  0.3392 -0.1166
 4993SOL    HW215879   2.727   5.169   4.672 -2.2280 -0.8253 -1.5281
 4994SOL     OW15880   3.043   4.198   0.319  0.1553 -0.3392 -0.4538
 4994SOL    HW115881   2.954   4.216   0.361  0.3151 -1.5428  0.4654
 4994SOL    HW215882   3.116   4.227   0.381  0.5212  3.1965 -2.2887
 4995SOL     OW15883   1.090   1.925   6.482 -0.0994 -0.2227  0.4518
 4995SOL    HW115884   1.078   1.855   6.552  0.5795  1.1419  1.9969
 4995SOL    HW215885   1.175   1.975   6.499 -0.4349  0.8123 -0.7538
 4996SOL     OW15886   6.160   1.981   6.448 -0.8843  0.0205 -0.0716
 4996SOL    HW115887   6.180   1.927   6.366 -0.0199  0.6721 -0.3007
 4996SOL    HW215888   6.075   2.031   6.435 -1.0936 -0.3873 -0.3059
 4997SOL     OW15889   2.909   2.491   0.808 -0.2109  0.5484  0.2707
 4997SOL    HW115890   2.955   2.539   0.882 -0.3490  0.4505  0.4218
 4997SOL    HW215891   2.976   2.463   0.740 -0.2169  1.5294 -0.1448
 4998SOL     OW15892   1.897   4.857   2.615 -0.1144  0.0268  0.5639
 4998SOL    HW115893   1.953   4.775   2.605 -2.4325 -1.4506 -1.8033
 4998SOL    HW215894   1.938   4.932   2.565  0.3643 -0.6622 -0.0985
 4999SOL     OW15895   5.950   3.859   1.952  0.1383  0.4411  0.3796
 4999SOL    HW115896   5.854   3.867   1.927  0.0594  1.1302  0.8863
 4999SOL    HW215897   5.980   3.943   1.997  0.8916  0.1074  0.5142
 5000SOL     OW15898   2.942   5.638   1.902 -0.3778 -0.1317  0.9652
 5000SOL    HW115899   2.901   5.586   1.977  0.5216 -0.3268  1.3309
 5000SOL    HW215900   2.925   5.736   1.917 -0.8733 -0.2230  1.0100
 5001SOL     OW15901   1.427   0.386   1.094 -0.1000 -0.1611 -0.3800
 5001SOL    HW115902   1.432   0.298   1.048  1.6695 -0.8773  1.0732
 5001SOL    HW215903   1.392   0.455   1.030  0.6333 -1.4288 -2.2481
 5002SOL     OW15904   1.310   5.932   3.976 -0.0464  0.7823 -0.3403
 5002SOL    HW115905   1.219   5.913   4.012  0.1713 -1.2834 -0.7946
 5002SOL    HW215906   1.334   6.028   3.995 -2.8360  1.7877 -1.3902
 5003SOL     OW15907   4.141   1.233   6.869 -0.4933  0.1081 -0.1081
 5003SOL    HW115908   4.047   1.267   6.865 -0.6693 -0.3645  0.0080
 5003SOL    HW215909   4.149   1.165   6.942  0.0997  0.6473  0.3428
 5004SOL     OW15910   4.497   6.376   0.283 -0.5857  0.3232  0.2784
 5004SOL    HW115911   4.581   6.325   0.264 -0.3816  0.4784  0.7454
 5004SOL    HW215912   4.507   6.426   0.370 -0.1366  2.4801 -0.9321
 5005SOL     OW15913   4.873   2.210   1.815  0.1543 -0.3834 -0.0335
 5005SOL    HW115914   4.839   2.177   1.903  0.5952 -1.2534 -0.1665
 5005SOL    HW215915   4.839   2.150   1.742 -1.1102  0.9649 -0.6033
 5006SOL     OW15916   3.779   1.217   3.085 -0.0043  0.1880 -0.1842
 5006SOL    HW115917   3.792   1.303   3.037 -1.0829  2.2660  2.9578
 5006SOL    HW215918   3.709   1.227   3.156  0.0347 -3.2110  0.5382
 5007SOL     OW15919   0.819   6.468   4.484  0.0845  0.1382 -0.4140
 5007SOL    HW115920   0.793   6.372   4.485 -0.8977  0.2810  3.2481
 5007SOL    HW215921   0.912   6.478   4.450  0.5012 -2.2241 -0.0948
 5008SOL     OW15922   3.497   0.973   5.077  0.1142  0.3077  0.2385
 5008SOL    HW115923   3.440   1.055   5.075  0.3750  0.4752 -0.8959
 5008SOL    HW215924   3.565   0.981   5.149  0.0260  1.0105  0.2513
 5009SOL     OW15925   0.603   2.085   0.305 -0.3922 -0.8592  0.4549
 5009SOL    HW115926   0.621   2.017   0.234  0.8841 -0.1470  0.0619
 5009SOL    HW215927   0.637   2.175   0.275 -2.4837  0.0941  0.7347
 5010SOL     OW15928   4.444   4.937   1.385 -0.1628  0.2061  0.0650
 5010SOL    HW115929   4.477   4.932   1.291 -0.8223 -0.7175 -0.1271
 5010SOL    HW215930   4.356   4.890   1.392 -0.4616  0.8772  0.9967
 5011SOL     OW15931   1.690   1.368   5.870 -0.4650  0.3445 -0.1439
 5011SOL    HW115932   1.714   1.465   5.874 -1.8801  0.7212 -0.1168
 5011SOL    HW215933   1.761   1.314   5.915  1.5314  1.1038 -2.1973
 5012SOL     OW15934   6.962   2.834   5.512  0.6027 -0.4596  0.0219
 5012SOL    HW115935   6.999   2.919   5.475  0.7647  0.2604  1.7267
 5012SOL    HW215936   6.863   2.841   5.520  0.5061 -0.8434 -0.8242
 5013SOL     OW15937   0.114   4.812   6.462  0.3702  0.1797 -0.4674
 5013SOL    HW115938   0.102   4.717   6.489 -1.5231  0.1918 -1.0754
 5013SOL    HW215939   0.159   4.863   6.535 -0.3682 -0.7720  0.6790
 5014SOL     OW15940   5.267   3.317   1.345  0.4218 -0.6264 -0.8116
 5014SOL    HW115941   5.332   3.392   1.352  0.4024 -0.6408 -0.4596
 5014SOL    HW215942   5.252   3.295   1.248  1.1297 -0.7891 -0.8947
 5015SOL     OW15943   6.077   3.486   5.154 -0.0857 -0.9296  0.2067
 5015SOL    HW115944   6.154   3.442   5.107  0.9810 -1.5148  2.3811
 5015SOL    HW215945   6.044   3.563   5.099  0.0906 -2.4636 -2.1702
 5016SOL     OW15946   1.767   1.769   6.431 -0.5176 -0.6033  0.4115
 5016SOL    HW115947   1.834   1.761   6.357 -0.1371 -1.4368  0.8329
 5016SOL    HW215948   1.702   1.694   6.425 -1.2364  0.0225  0.1998
 5017SOL     OW15949   1.704   3.573   2.154 -0.6024 -0.0111 -0.2951
 5017SOL    HW115950   1.768   3.505   2.119 -1.7735 -1.2725 -0.0787
 5017SOL    HW215951   1.656   3.616   2.077  0.2243  0.6650 -0.4382
 5018SOL     OW15952   6.316   0.526   1.226 -0.9464 -0.1546 -0.3884
 5018SOL    HW115953   6.242   0.593   1.228  1.1397  2.3467  0.1039
 5018SOL    HW215954   6.362   0.530   1.137  0.0698  0.1611  0.1269
 5019SOL     OW15955   2.169   2.907   2.290 -0.3014 -0.1982 -0.1883
 5019SOL    HW115956   2.132   2.997   2.314 -0.4295  0.0418 -1.2525
 5019SOL    HW215957   2.142   2.840   2.360 -0.6123  0.4889  0.3596
 5020SOL     OW15958   3.310   1.671   2.551 -0.7462 -0.0999  0.0373
 5020SOL    HW115959   3.230   1.728   2.567 -1.3145 -0.8031 -0.2527
 5020SOL    HW215960   3.389   1.730   2.532 -1.1487  0.6009  0.4855
 5021SOL     OW15961   3.462   0.099   1.961 -0.0037  0.5123  0.1562
 5021SOL    HW115962   3.427   0.102   1.867  1.3539  0.5131 -0.3733
 5021SOL    HW215963   3.507   0.186   1.982  2.0609 -0.4153 -0.1753
 5022SOL     OW15964   6.927   3.339   1.159 -0.4574  0.0644 -0.2814
 5022SOL    HW115965   6.905   3.336   1.257 -0.6099 -2.5655 -0.3243
 5022SOL    HW215966   6.906   3.429   1.123 -1.6147  0.7059  1.8371
 5023SOL     OW15967   0.857   1.374   3.900 -0.1820 -0.0919 -0.3001
 5023SOL    HW115968   0.911   1.453   3.928  0.7979 -1.0958  0.7386
 5023SOL    HW215969   0.771   1.373   3.950  1.3650 -1.6256  2.5719
 5024SOL     OW15970   4.317   4.509   1.331 -0.0175 -0.4932  0.3417
 5024SOL    HW115971   4.287   4.496   1.237  0.5968 -2.3696  0.3589
 5024SOL    HW215972   4.326   4.420   1.376  0.4374  0.3190  1.9474
 5025SOL     OW15973   3.406   1.205   2.312  0.0439  0.6083 -0.0609
 5025SOL    HW115974   3.345   1.217   2.390 -1.0170 -3.8198  0.0404
 5025SOL    HW215975   3.365   1.244   2.230 -1.3292  0.6679  0.6349
 5026SOL     OW15976   4.499   5.346   5.070 -0.0452  0.7426 -0.3186
 5026SOL    HW115977   4.528   5.283   4.998 -1.6406 -0.2803 -0.1186
 5026SOL    HW215978   4.538   5.317   5.158 -1.1479 -0.2881 -0.1460
 5027SOL     OW15979   6.103   0.177   2.649 -0.2341  0.0179 -0.1019
 5027SOL    HW115980   6.018   0.229   2.640 -1.1360 -1.7252 -3.8925
 5027SOL    HW215981   6.106   0.133   2.739 -3.0794  0.5662  0.3660
 5028SOL     OW15982   5.385   1.613   2.315  0.1917  0.2681 -0.1057
 5028SOL    HW115983   5.470   1.567   2.340 -0.3617 -0.5226  0.3528
 5028SOL    HW215984   5.375   1.695   2.372  1.4602  1.3200 -1.3205
 5029SOL     OW15985   4.511   1.904   4.678  0.1595 -0.2152 -0.0869
 5029SOL    HW115986   4.518   1.936   4.584  1.5423 -3.2084 -1.1013
 5029SOL    HW215987   4.572   1.826   4.692 -0.5692 -0.3464  3.0977
 5030SOL     OW15988   0.801   3.313   6.320 -0.0927  0.4602 -0.6211
 5030SOL    HW115989   0.900   3.310   6.336 -0.2056 -0.7302 -0.0288
 5030SOL    HW215990   0.753   3.292   6.405 -0.8730  1.2534 -0.8510
 5031SOL     OW15991   6.465   1.144   6.382 -0.0601 -0.0004 -0.6496
 5031SOL    HW115992   6.477   1.237   6.348 -2.7291  0.3463 -0.8401
 5031SOL    HW215993   6.442   1.084   6.305  1.8444 -0.9087 -0.5612
 5032SOL     OW15994   2.061   5.843   5.404  0.6987  0.5709 -0.0699
 5032SOL    HW115995   2.136   5.868   5.342 -0.1998  2.9303 -0.3152
 5032SOL    HW215996   1.998   5.920   5.413 -1.3397 -1.0770  0.6988
 5033SOL     OW15997   1.769   0.662   3.809 -0.2769 -0.1949 -0.0134
 5033SOL    HW115998   1.745   0.567   3.831 -2.3340 -0.2682 -2.2184
 5033SOL    HW215999   1.688   0.719   3.819  0.9261  1.3854  1.2164
 5034SOL     OW16000   4.936   5.139   3.072 -0.2957 -0.0101 -0.2957
 5034SOL    HW116001   4.898   5.051   3.046  0.1615 -0.9144  1.8744
 5034SOL    HW216002   4.881   5.212   3.032 -0.6502 -1.2449 -2.1777
 5035SOL     OW16003   1.937   3.047   3.943  0.3340 -1.0622 -0.3079
 5035SOL    HW116004   1.877   3.127   3.938  0.6948 -0.8293 -1.1183
 5035SOL    HW216005   1.947   3.019   4.038  1.6767  0.9918  0.2225
 5036SOL     OW16006   1.224   2.018   5.194  0.2045 -0.0734 -0.8333
 5036SOL    HW116007   1.314   1.973   5.190  0.2235 -0.0191 -0.9913
 5036SOL    HW216008   1.234   2.106   5.241 -0.3875 -1.6388  2.5024
 5037SOL     OW16009   4.389   3.126   1.732  0.8500 -0.7462  0.1521
 5037SOL    HW116010   4.368   3.055   1.665  1.1583  0.0587 -0.8301
 5037SOL    HW216011   4.468   3.098   1.787 -0.8433 -2.4781  1.8667
 5038SOL     OW16012   3.933   3.752   3.985 -0.0762  0.7854 -0.1428
 5038SOL    HW116013   4.001   3.741   3.913  0.0884 -0.2423  0.1560
 5038SOL    HW216014   3.877   3.833   3.967 -1.2923 -0.4750 -2.4513
 5039SOL     OW16015   6.838   2.153   1.440 -0.2832  0.2762 -0.0982
 5039SOL    HW116016   6.827   2.084   1.512 -3.3115  1.4171  0.6892
 5039SOL    HW216017   6.935   2.175   1.430  0.4138 -1.2733  2.3224
 5040SOL     OW16018   1.270   0.094   6.241 -0.7551 -0.2475  0.3819
 5040SOL    HW116019   1.265   0.159   6.317  0.1847 -1.3593  1.4366
 5040SOL    HW216020   1.286   0.144   6.155  0.8110  0.8635  1.2732
 5041SOL     OW16021   0.229   2.718   1.277  0.3200  0.0021  0.0644
 5041SOL    HW116022   0.301   2.649   1.285 -0.3364 -0.6476  0.5511
 5041SOL    HW216023   0.212   2.760   1.366 -1.3445 -1.3732  0.4609
 5042SOL     OW16024   1.955   1.446   6.462 -0.9874 -0.0906 -0.0395
 5042SOL    HW116025   1.940   1.370   6.525 -2.1116  0.7066  0.6851
 5042SOL    HW216026   2.023   1.509   6.502 -2.2013  0.7687  0.7354
 5043SOL     OW16027   3.239   6.692   6.970  0.3006 -0.3125 -0.4000
 5043SOL    HW116028   3.306   6.628   7.008 -1.6650 -1.7120  0.9154
 5043SOL    HW216029   3.160   6.641   6.936 -1.5985  1.3883  1.1819
 5044SOL     OW16030   5.660   4.937   1.517  0.3941  0.0839  0.3352
 5044SOL    HW116031   5.727   4.916   1.445 -0.6232 -0.0083 -0.6076
 5044SOL    HW216032   5.636   4.854   1.566 -0.8965 -0.3550 -0.9906
 5045SOL     OW16033   5.736   3.023   6.963 -0.3289  0.3708  0.4189
 5045SOL    HW116034   5.665   3.082   6.926  0.5053  2.3464  1.7867
 5045SOL    HW216035   5.752   3.046   7.059  0.0161 -2.1681  1.0601
 5046SOL     OW16036   3.267   2.671   1.761  0.3603 -0.2582  0.0554
 5046SOL    HW116037   3.317   2.590   1.730  0.0930 -0.4751  0.1849
 5046SOL    HW216038   3.328   2.750   1.761  0.9898 -0.7240  1.2169
 5047SOL     OW16039   2.461   5.145   3.798  0.2900 -0.2411 -0.1971
 5047SOL    HW116040   2.536   5.177   3.740 -0.2948  1.5747 -0.0140
 5047SOL    HW216041   2.392   5.100   3.741  0.7003 -0.3801 -0.5939
 5048SOL     OW16042   1.850   0.101   5.264 -0.5483 -0.3061 -0.2181
 5048SOL    HW116043   1.818   0.094   5.359  0.4852  1.4216  0.2977
 5048SOL    HW216044   1.773   0.085   5.202 -2.2745  2.5747  0.9588
 5049SOL     OW16045   2.949   1.214   6.361 -0.0931  0.0474  0.1348
 5049SOL    HW116046   2.882   1.156   6.313  0.3135 -0.6723  0.4272
 5049SOL    HW216047   3.011   1.255   6.294 -2.5537  3.1121 -0.5161
 5050SOL     OW16048   1.130   6.573   0.443  0.6173 -0.1801  0.2901
 5050SOL    HW116049   1.059   6.504   0.432  0.3410 -0.0909  1.3754
 5050SOL    HW216050   1.113   6.625   0.527  1.1219  0.8502 -0.2260
 5051SOL     OW16051   3.946   4.572   1.376  0.4809 -0.4419 -0.7094
 5051SOL    HW116052   3.906   4.515   1.448  1.0817 -0.4807 -0.3975
 5051SOL    HW216053   4.036   4.606   1.406 -0.0070  0.9506 -0.7474
 5052SOL     OW16054   1.962   3.973   4.503  0.1506 -0.6459 -0.2634
 5052SOL    HW116055   2.010   3.922   4.432 -0.0761 -0.3905 -0.5994
 5052SOL    HW216056   2.020   3.978   4.585  1.4591  1.1339 -1.2186
 5053SOL     OW16057   6.733   0.662   0.973 -0.5862  0.0581  0.4226
 5053SOL    HW116058   6.770   0.579   1.015 -0.6863 -0.1972  0.0081
 5053SOL    HW216059   6.777   0.678   0.885 -2.1730 -0.8457 -0.5956
 5054SOL     OW16060   3.509   5.497   3.330 -0.2869 -0.1075 -0.4848
 5054SOL    HW116061   3.416   5.526   3.312  0.6139  3.6240  0.1707
 5054SOL    HW216062   3.569   5.527   3.256  1.0745  1.8684  1.3216
 5055SOL     OW16063   4.050   4.857   3.458  0.5179  0.7213  0.4115
 5055SOL    HW116064   4.071   4.769   3.414  1.8437  1.7577 -1.1502
 5055SOL    HW216065   3.951   4.866   3.468  0.3980 -1.8073  2.5201
 5056SOL     OW16066   0.791   5.267   5.091 -0.2371  0.1498 -0.6024
 5056SOL    HW116067   0.858   5.211   5.043  0.7528  0.7402  0.0725
 5056SOL    HW216068   0.777   5.230   5.184  0.7244  1.2265 -0.0100
 5057SOL     OW16069   5.988   6.002   3.630  0.0497  0.0698 -0.3401
 5057SOL    HW116070   5.993   6.092   3.673  3.6638 -0.0757 -0.0908
 5057SOL    HW216071   6.048   5.939   3.679  0.3691 -1.4841 -2.5642
 5058SOL     OW16072   2.781   5.883   5.414 -0.1418  0.1547 -0.2307
 5058SOL    HW116073   2.825   5.960   5.366  0.5352 -0.7408 -1.0856
 5058SOL    HW216074   2.686   5.877   5.385  0.0073  0.2049 -0.7431
 5059SOL     OW16075   0.089   6.149   2.818 -0.0173 -0.3570  0.0042
 5059SOL    HW116076   0.109   6.150   2.916 -1.2205 -1.7157  0.2932
 5059SOL    HW216077   0.094   6.056   2.784  2.5250  0.3020 -1.7526
 5060SOL     OW16078   4.807   2.688   0.928  0.9226 -0.4859  0.2227
 5060SOL    HW116079   4.825   2.590   0.934  0.6836 -0.5095  0.5717
 5060SOL    HW216080   4.711   2.706   0.949  1.2948 -0.0358  1.6757
 5061SOL     OW16081   7.001   4.970   6.256 -0.2811  0.1215 -0.0617
 5061SOL    HW116082   7.072   4.988   6.188 -0.7631  0.1992 -0.5455
 5061SOL    HW216083   7.034   4.901   6.321  1.3096  2.0662  1.3554
 5062SOL     OW16084   5.115   0.214   5.367 -0.3557  0.3005 -0.5792
 5062SOL    HW116085   5.133   0.189   5.462  0.1704  0.4223 -0.6480
 5062SOL    HW216086   5.136   0.136   5.307 -0.4169  0.3175 -0.6231
 5063SOL     OW16087   1.335   6.642   2.693  0.0641 -0.2841  0.2924
 5063SOL    HW116088   1.409   6.661   2.629 -1.6129  1.5441 -1.2777
 5063SOL    HW216089   1.260   6.597   2.644 -0.8312  0.1464  1.2323
 5064SOL     OW16090   3.813   5.169   5.853 -0.1613 -0.3431 -0.4200
 5064SOL    HW116091   3.726   5.216   5.835 -0.2371  0.0255  0.8325
 5064SOL    HW216092   3.834   5.174   5.951  1.9896  0.8324 -0.8918
 5065SOL     OW16093   3.029   5.827   6.084  0.1940 -0.0337  0.1879
 5065SOL    HW116094   2.985   5.740   6.107 -0.4409  0.6304  1.5648
 5065SOL    HW216095   3.128   5.815   6.084  0.2012 -0.2989  2.4436
 5066SOL     OW16096   5.824   5.161   0.072  1.0390 -0.3892 -0.5584
 5066SOL    HW116097   5.826   5.170   0.172 -0.0899 -0.5644 -0.5032
 5066SOL    HW216098   5.776   5.239   0.032 -2.4923 -2.3621 -0.5860
 5067SOL     OW16099   6.403   6.920   6.742  0.3369  0.2754  0.9312
 5067SOL    HW116100   6.323   6.896   6.797 -0.3454  1.0216  0.3046
 5067SOL    HW216101   6.445   6.837   6.706 -1.6984 -0.0802 -0.8340
 5068SOL     OW16102   3.398   6.112   0.534 -0.3123 -0.8370 -0.4254
 5068SOL    HW116103   3.432   6.109   0.628 -0.3609  0.0312 -0.3667
 5068SOL    HW216104   3.468   6.076   0.472 -0.0521 -0.8667 -0.1159
 5069SOL     OW16105   6.892   5.456   4.335 -0.6876 -0.2233 -0.9936
 5069SOL    HW116106   6.873   5.536   4.391 -1.6458 -0.8935 -0.3156
 5069SOL    HW216107   6.831   5.456   4.255  1.0585  1.0251 -2.3963
 5070SOL     OW16108   4.039   1.524   3.721 -0.3683 -0.3963 -0.2591
 5070SOL    HW116109   4.057   1.594   3.651  2.5185 -0.5100  0.2435
 5070SOL    HW216110   4.094   1.443   3.702 -3.8274 -2.7873 -0.9728
 5071SOL     OW16111   2.362   1.653   3.145  0.1317  0.0897 -0.4701
 5071SOL    HW116112   2.305   1.595   3.088  1.3688 -1.0728 -0.5555
 5071SOL    HW216113   2.387   1.604   3.228  1.0605  0.5585 -0.4592
 5072SOL     OW16114   1.635   5.237   3.154 -0.0600 -0.0802  0.0791
 5072SOL    HW116115   1.603   5.317   3.206  2.2466  0.9558  0.0409
 5072SOL    HW216116   1.627   5.255   3.056 -2.9355 -1.4206 -0.0432
 5073SOL     OW16117   5.493   2.526   5.016  0.0384 -0.0885 -0.3874
 5073SOL    HW116118   5.583   2.540   4.975 -0.3466 -2.7801 -2.4173
 5073SOL    HW216119   5.492   2.439   5.065 -1.4673 -0.1167 -0.4294
 5074SOL     OW16120   2.966   3.349   4.250  0.0154  0.1370 -0.2472
 5074SOL    HW116121   2.978   3.320   4.345  0.0817  0.4343 -0.1617
 5074SOL    HW216122   2.975   3.270   4.189 -0.6720 -0.1627  0.0352
 5075SOL     OW16123   6.012   1.431   1.775 -0.0012  0.1399  0.4661
 5075SOL    HW116124   5.950   1.399   1.703  0.8875  0.3590 -0.4155
 5075SOL    HW216125   5.959   1.461   1.854 -0.9863 -0.2766 -0.0221
 5076SOL     OW16126   5.739   6.705   0.108  0.2772 -0.8969  0.3904
 5076SOL    HW116127   5.784   6.780   0.156  1.1541  0.7986 -2.7425
 5076SOL    HW216128   5.647   6.693   0.143  0.3034  1.2956  1.3712
 5077SOL     OW16129   0.733   2.137   3.508 -0.1922 -0.7738 -0.0884
 5077SOL    HW116130   0.786   2.179   3.582  0.0371  2.1771 -1.7772
 5077SOL    HW216131   0.644   2.182   3.502 -0.0521 -0.6851 -1.8320
 5078SOL     OW16132   0.922   2.173   3.963  0.2787  0.2281  0.5288
 5078SOL    HW116133   0.985   2.234   4.011  1.1961 -0.7340  0.5777
 5078SOL    HW216134   0.868   2.122   4.030  0.6059 -0.1353  0.5163
 5079SOL     OW16135   6.922   5.773   6.059 -0.4590  0.5915  0.4637
 5079SOL    HW116136   6.947   5.713   5.983  0.0143  0.5733  0.6322
 5079SOL    HW216137   7.003   5.824   6.089 -0.7243  0.8626  0.7215
 5080SOL     OW16138   4.312   6.928   5.790  0.1376 -0.0165 -0.2220
 5080SOL    HW116139   4.314   7.028   5.786 -1.5331  0.0006 -1.7158
 5080SOL    HW216140   4.252   6.898   5.864  1.6257  0.0278  1.0584
 5081SOL     OW16141   3.010   4.579   1.500  0.5248 -0.1440 -0.4775
 5081SOL    HW116142   3.041   4.637   1.576 -0.7111 -0.1756  0.0595
 5081SOL    HW216143   3.090   4.534   1.458  1.6455  2.4334 -1.3539
 5082SOL     OW16144   1.251   0.986   5.113  0.6354  0.1980  0.0575
 5082SOL    HW116145   1.345   1.005   5.141  0.4026 -0.7429  1.5803
 5082SOL    HW216146   1.245   0.985   5.013  2.5294 -1.1295 -0.0826
 5083SOL     OW16147   0.144   5.909   2.241 -0.4177 -0.1642 -0.5728
 5083SOL    HW116148   0.202   5.841   2.196  1.7969 -0.6401  2.6748
 5083SOL    HW216149   0.078   5.864   2.300  0.6768  0.4017  1.1600
 5084SOL     OW16150   1.660   6.861   2.119  0.2587  0.6153  0.2874
 5084SOL    HW116151   1.734   6.886   2.182  0.9014  2.5092 -1.1340
 5084SOL    HW216152   1.611   6.944   2.090 -1.7182 -0.4869  0.3107
 5085SOL     OW16153   0.721   2.471   5.049 -0.1789 -0.5674  0.1593
 5085SOL    HW116154   0.638   2.423   5.020 -0.4867 -0.1536  0.3393
 5085SOL    HW216155   0.801   2.423   5.015 -0.4552 -1.5889  0.9132
 5086SOL     OW16156   0.073   5.553   3.548  0.1988  0.1274 -0.2677
 5086SOL    HW116157   0.091   5.638   3.598  1.1139  0.2272 -0.7660
 5086SOL    HW216158   0.065   5.572   3.451 -0.6732 -0.2082 -0.2715
 5087SOL     OW16159   0.715   4.935   5.680  0.1648 -0.3786 -0.0131
 5087SOL    HW116160   0.660   4.923   5.597 -0.3152 -1.1835  0.4061
 5087SOL    HW216161   0.735   5.032   5.693  0.4618 -0.2656 -1.2011
 5088SOL     OW16162   3.787   1.604   4.404 -0.0609  0.0924  0.0669
 5088SOL    HW116163   3.788   1.632   4.309 -1.8428 -0.2817 -0.0932
 5088SOL    HW216164   3.714   1.537   4.419  0.3867 -0.1020  1.6314
 5089SOL     OW16165   5.230   4.399   4.496  0.3472  0.0157  0.1847
 5089SOL    HW116166   5.252   4.490   4.461 -0.8348  0.4996  0.6589
 5089SOL    HW216167   5.213   4.404   4.594 -0.1141 -0.6450  0.1417
 5090SOL     OW16168   0.068   4.002   6.082 -0.6104 -0.0674  0.1475
 5090SOL    HW116169   0.152   3.948   6.090 -1.9815 -2.2250  0.9586
 5090SOL    HW216170   0.075   4.083   6.140  0.5015 -0.7553  1.0274
 5091SOL     OW16171   0.460   6.217   5.519  0.8205  0.3643 -0.2297
 5091SOL    HW116172   0.395   6.272   5.571 -0.5124 -0.8623 -0.5361
 5091SOL    HW216173   0.439   6.120   5.532  2.4082 -0.0491 -0.5931
 5092SOL     OW16174   3.984   1.852   6.394 -0.5374  0.0962  0.3327
 5092SOL    HW116175   4.008   1.780   6.460  0.0775  0.9145  1.0367
 5092SOL    HW216176   3.950   1.811   6.310 -2.2259 -0.9630  1.4812
 5093SOL     OW16177   2.336   6.929   1.458  0.3352  0.3156  0.2813
 5093SOL    HW116178   2.434   6.929   1.442  0.3809  1.6802  0.4268
 5093SOL    HW216179   2.317   6.970   1.548 -0.2550 -1.9607  1.2767
 5094SOL     OW16180   6.483   0.117   0.050  0.4440  0.1265 -0.1279
 5094SOL    HW116181   6.542   0.193   0.024 -0.5434  0.7669 -0.5829
 5094SOL    HW216182   6.499   0.040  -0.011 -0.2352  0.8237 -1.2134
 5095SOL     OW16183   3.475   6.355   3.564 -0.2005  0.3974 -0.0330
 5095SOL    HW116184   3.462   6.353   3.663  0.1856 -1.8567  0.0060
 5095SOL    HW216185   3.468   6.263   3.527 -2.9128  1.4150 -2.4806
 5096SOL     OW16186   5.040   6.238   2.806  1.2002 -0.4260 -0.0645
 5096SOL    HW116187   4.981   6.202   2.733  1.7831 -0.0845 -0.7095
 5096SOL    HW216188   4.983   6.283   2.876  0.6517 -0.6195 -0.3820
 5097SOL     OW16189   1.161   3.474   4.002  0.0591  0.1253  0.1747
 5097SOL    HW116190   1.185   3.508   3.911 -2.2371  1.8745  0.1468
 5097SOL    HW216191   1.161   3.549   4.067  0.6658 -0.9296  1.4503
 5098SOL     OW16192   1.972   1.872   2.969  0.2569 -0.1477  0.6952
 5098SOL    HW116193   1.940   1.785   2.930 -0.2917 -0.2780  1.4089
 5098SOL    HW216194   2.059   1.897   2.927 -1.0216  0.5199 -1.7277
 5099SOL     OW16195   6.627   1.418   4.147 -0.5980  0.0980  0.1531
 5099SOL    HW116196   6.665   1.480   4.077 -1.0063 -0.1205 -0.2624
 5099SOL    HW216197   6.601   1.332   4.105 -2.7015  0.6654  0.1835
 5100SOL     OW16198   4.622   4.613   5.694 -0.1532  0.6446 -0.0453
 5100SOL    HW116199   4.533   4.606   5.738 -0.3482  2.5219 -0.0380
 5100SOL    HW216200   4.658   4.705   5.707  1.9950 -0.1855  0.3058
 5101SOL     OW16201   4.412   6.765   0.930  0.3173  0.1259 -0.1504
 5101SOL    HW116202   4.366   6.823   0.996  1.9987  1.3767 -0.0052
 5101SOL    HW216203   4.374   6.672   0.934 -1.0050  0.6905  1.0817
 5102SOL     OW16204   2.948   6.093   4.140  0.6231 -0.0727 -0.3576
 5102SOL    HW116205   2.981   6.181   4.173  0.6508 -0.3582  0.3834
 5102SOL    HW216206   3.002   6.019   4.179  0.8354 -0.4093 -1.2652
 5103SOL     OW16207   1.415   2.511   5.066  0.4575 -0.0262  0.5161
 5103SOL    HW116208   1.410   2.453   5.147  0.7016 -0.5726  0.1475
 5103SOL    HW216209   1.338   2.574   5.065  1.3158  1.1099  2.0169
 5104SOL     OW16210   0.308   0.145   6.073 -0.4539  0.2404  0.4354
 5104SOL    HW116211   0.335   0.168   5.980  0.3596  0.9829  0.8340
 5104SOL    HW216212   0.211   0.122   6.076 -0.2655 -0.7566 -0.7536
 5105SOL     OW16213   0.997   4.562   1.657  0.0337 -0.2132 -0.0198
 5105SOL    HW116214   0.897   4.569   1.652  0.0585 -0.3687 -0.9717
 5105SOL    HW216215   1.022   4.469   1.685 -0.0827 -0.3146 -0.2515
 5106SOL     OW16216   2.214   6.823   3.347  0.4382 -0.8806 -0.2456
 5106SOL    HW116217   2.289   6.762   3.374 -0.0552 -1.2572  0.3241
 5106SOL    HW216218   2.220   6.908   3.399  0.3417 -1.0025 -0.0340
 5107SOL     OW16219   6.991   0.774   4.581 -0.0206  0.2568 -0.5606
 5107SOL    HW116220   6.973   0.801   4.676  2.7905  2.3620 -0.5019
 5107SOL    HW216221   7.027   0.852   4.530  1.7781 -1.6736 -2.4392
 5108SOL     OW16222   3.437   2.846   4.960 -0.5006 -0.7454 -0.2203
 5108SOL    HW116223   3.528   2.847   4.917 -0.8712 -2.6372 -1.1722
 5108SOL    HW216224   3.403   2.940   4.967  0.5316 -0.1724 -2.0391
 5109SOL     OW16225   0.503   3.494   3.382  0.2274  0.4024 -0.7173
 5109SOL    HW116226   0.551   3.528   3.463  1.6613 -0.4935 -1.1623
 5109SOL    HW216227   0.553   3.416   3.344 -1.5856 -0.5741 -1.2156
 5110SOL     OW16228   2.002   0.955   4.341  0.0804 -0.0737  0.2390
 5110SOL    HW116229   1.928   1.023   4.339  0.2084  0.2093 -4.0284
 5110SOL    HW216230   2.074   0.986   4.402 -1.2422  2.0100  0.8686
 5111SOL     OW16231   0.763   0.992   6.400  0.1434  0.0372 -0.3447
 5111SOL    HW116232   0.824   0.996   6.478 -0.9015  1.8813  0.4565
 5111SOL    HW216233   0.800   1.049   6.326 -0.9793  1.9413  0.4904
 5112SOL     OW16234   1.637   6.596   3.058  0.1398  0.1503  0.4282
 5112SOL    HW116235   1.611   6.689   3.031  1.2938  1.1306  2.4744
 5112SOL    HW216236   1.557   6.549   3.094 -0.4945  0.2475 -0.7785
 5113SOL     OW16237   0.311   1.391   6.481  0.5411 -0.4792  0.5061
 5113SOL    HW116238   0.326   1.307   6.429 -2.2568 -0.2118 -0.9361
 5113SOL    HW216239   0.296   1.369   6.577 -1.4296 -1.8405 -0.0586
 5114SOL     OW16240   5.698   5.604   1.353  0.3436  0.5211  0.3657
 5114SOL    HW116241   5.615   5.549   1.353 -0.1130  1.1654  1.9124
 5114SOL    HW216242   5.770   5.556   1.301 -0.6881 -0.4717 -0.1858
 5115SOL     OW16243   2.171   3.536   5.548 -0.4064 -0.0262 -0.1891
 5115SOL    HW116244   2.093   3.594   5.525  0.1542  1.3749  1.2257
 5115SOL    HW216245   2.224   3.517   5.466 -0.0561  2.3481 -0.5928
 5116SOL     OW16246   1.256   4.220   2.844 -0.4194  0.4594 -0.0274
 5116SOL    HW116247   1.258   4.163   2.926 -2.0213 -1.1427 -1.0331
 5116SOL    HW216248   1.337   4.202   2.789 -1.2878 -1.5252 -0.7258
 5117SOL     OW16249   3.448   5.993   4.043 -0.1342 -0.4540 -0.0502
 5117SOL    HW116250   3.394   6.063   4.089 -1.0785 -0.3117 -1.3045
 5117SOL    HW216251   3.487   6.031   3.959  0.5156 -1.0494 -0.0326
 5118SOL     OW16252   4.754   6.426   3.593 -0.1828 -0.1288 -0.1529
 5118SOL    HW116253   4.696   6.486   3.648 -2.0035  0.0941 -2.1916
 5118SOL    HW216254   4.810   6.481   3.531 -1.2818 -0.4480 -1.4753
 5119SOL     OW16255   0.478   0.209   2.246  0.2846  0.1153 -0.9286
 5119SOL    HW116256   0.518   0.128   2.290 -0.3909 -0.1650 -0.8211
 5119SOL    HW216257   0.378   0.202   2.247  0.2044  1.1117 -0.6052
 5120SOL     OW16258   4.324   0.367   6.536  0.1843  0.2482 -0.2283
 5120SOL    HW116259   4.312   0.463   6.511  1.1420 -0.0458 -1.9407
 5120SOL    HW216260   4.389   0.359   6.611 -0.6244  0.9807  0.5671
 5121SOL     OW16261   0.465   4.058   5.440  0.1910  0.4234  0.4240
 5121SOL    HW116262   0.415   4.002   5.374 -1.0346 -0.0001  1.6502
 5121SOL    HW216263   0.487   4.147   5.400 -1.1578  0.4436 -0.3094
 5122SOL     OW16264   2.020   5.677   4.508  0.0058 -0.5763  0.1400
 5122SOL    HW116265   2.119   5.661   4.508  0.3342  0.9725 -2.2424
 5122SOL    HW216266   1.978   5.626   4.433 -0.5898  0.6773 -0.4190
 5123SOL     OW16267   6.623   2.163   0.492  0.4459  0.3117  0.2507
 5123SOL    HW116268   6.538   2.213   0.510 -0.3562 -0.6136 -0.8215
 5123SOL    HW216269   6.652   2.180   0.397  0.6998 -0.4830  0.1836
 5124SOL     OW16270   3.816   6.406   0.258  1.0554  0.1274  0.3997
 5124SOL    HW116271   3.744   6.475   0.246  1.0502  0.3916  1.7642
 5124SOL    HW216272   3.898   6.434   0.209  0.7135  0.5733  0.0771
 5125SOL     OW16273   1.841   1.961   6.628 -0.4313  0.3256 -0.2847
 5125SOL    HW116274   1.851   1.896   6.703 -1.2269  0.5704  0.0445
 5125SOL    HW216275   1.815   1.912   6.545  2.0902 -0.1685 -0.8620
 5126SOL     OW16276   4.428   2.140   6.984  0.2895  0.2857 -0.4004
 5126SOL    HW116277   4.402   2.066   6.921 -1.0406  0.6493 -0.3228
 5126SOL    HW216278   4.503   2.109   7.043 -0.2088 -0.9963 -0.4004
 5127SOL     OW16279   3.638   2.913   6.066  0.7629  0.1241 -0.1456
 5127SOL    HW116280   3.644   3.012   6.055 -0.8660  0.3258  0.4853
 5127SOL    HW216281   3.670   2.869   5.982  0.4495  1.2217 -0.8661
 5128SOL     OW16282   0.126   1.715   6.200  0.5405 -0.1077  0.0395
 5128SOL    HW116283   0.142   1.625   6.241 -1.0242 -0.0741  0.7934
 5128SOL    HW216284   0.052   1.709   6.133 -0.7341  0.8926  1.2901
 5129SOL     OW16285   5.077   1.754   5.427  0.1686  0.3189  0.1095
 5129SOL    HW116286   5.124   1.783   5.343  0.5582  0.7727  0.4778
 5129SOL    HW216287   5.072   1.655   5.430  2.2383  0.1749  0.6565
 5130SOL     OW16288   2.629   6.596   5.026  0.0461 -0.0651 -0.4672
 5130SOL    HW116289   2.535   6.597   4.992 -0.0516 -0.3792 -0.2137
 5130SOL    HW216290   2.651   6.504   5.059  0.1415  0.2371  0.3132
 5131SOL     OW16291   2.277   5.761   2.392 -0.1402 -0.3646  0.3729
 5131SOL    HW116292   2.186   5.794   2.366 -0.3209 -0.4784  0.8552
 5131SOL    HW216293   2.328   5.835   2.435  0.3627 -0.0149 -0.7747
 5132SOL     OW16294   4.652   1.660   6.658 -0.0827 -0.1130 -0.1508
 5132SOL    HW116295   4.714   1.663   6.580  0.2009 -2.6946 -0.1025
 5132SOL    HW216296   4.696   1.705   6.737  1.1323 -0.6135 -0.5126
 5133SOL     OW16297   2.347   3.780   6.716 -0.2769 -0.0912  0.0753
 5133SOL    HW116298   2.260   3.753   6.676  0.5659 -0.3021 -1.6997
 5133SOL    HW216299   2.383   3.706   6.772 -0.7049 -0.4421 -0.1141
 5134SOL     OW16300   5.810   6.257   1.690 -0.0366  0.7126 -0.0478
 5134SOL    HW116301   5.874   6.293   1.622 -0.9344  1.7445 -0.3893
 5134SOL    HW216302   5.860   6.226   1.771  1.0342 -0.4123 -1.1132
 5135SOL     OW16303   1.092   4.367   3.089  0.1305  0.4177 -0.1104
 5135SOL    HW116304   1.177   4.381   3.139 -0.3355  0.6647  0.6198
 5135SOL    HW216305   1.098   4.283   3.034  0.2849 -0.4102  1.1362
 5136SOL     OW16306   0.648   6.416   6.393 -0.6292 -0.2401 -0.0460
 5136SOL    HW116307   0.665   6.339   6.331  1.3422  2.5091 -3.2782
 5136SOL    HW216308   0.554   6.447   6.382 -0.2489  0.3543 -1.9891
 5137SOL     OW16309   6.124   0.476   2.498  1.0145 -0.4038 -0.2499
 5137SOL    HW116310   6.200   0.433   2.547  0.1576  1.3423  2.9120
 5137SOL    HW216311   6.049   0.410   2.490  0.5824 -0.3435  2.4112
 5138SOL     OW16312   3.659   3.289   3.696  0.0561  0.3518  0.4066
 5138SOL    HW116313   3.703   3.208   3.657 -0.0361  0.1546  0.7025
 5138SOL    HW216314   3.719   3.368   3.684 -0.2442  0.4311 -0.6927
 5139SOL     OW16315   3.331   0.798   6.764  0.4368 -0.0874 -0.1224
 5139SOL    HW116316   3.286   0.805   6.675 -1.4045  4.1843  0.8797
 5139SOL    HW216317   3.426   0.827   6.756  0.3627 -0.0193 -0.7740
 5140SOL     OW16318   2.291   3.680   6.162 -0.1569  0.4517  0.3782
 5140SOL    HW116319   2.296   3.697   6.064 -2.1453 -1.9551 -0.2481
 5140SOL    HW216320   2.265   3.764   6.209  0.5576  1.5776 -1.1564
 5141SOL     OW16321   6.121   2.671   1.424 -0.1854  0.1626 -0.4067
 5141SOL    HW116322   6.097   2.593   1.482  0.5730 -0.3748 -0.7944
 5141SOL    HW216323   6.196   2.722   1.466 -1.0623  1.0415  0.1348
 5142SOL     OW16324   0.655   6.754   2.709  0.2750 -0.2016 -0.2531
 5142SOL    HW116325   0.564   6.716   2.694  0.1239  0.3407 -0.7570
 5142SOL    HW216326   0.649   6.853   2.719  0.7824 -0.1880 -0.0359
 5143SOL     OW16327   6.484   4.571   4.322  0.6032  0.6711 -0.1532
 5143SOL    HW116328   6.495   4.627   4.404  3.4808  1.1733 -0.7686
 5143SOL    HW216329   6.497   4.475   4.346  2.5799  0.9014 -0.1073
 5144SOL     OW16330   1.253   3.270   5.922 -1.1323 -0.1779 -0.1351
 5144SOL    HW116331   1.242   3.171   5.932 -0.8986 -0.2310 -0.4119
 5144SOL    HW216332   1.181   3.316   5.973 -1.7079 -0.5034 -0.6394
 5145SOL     OW16333   2.420   6.062   6.469  0.0417  0.0139  0.0322
 5145SOL    HW116334   2.370   6.149   6.475  1.3337  0.7722  0.1434
 5145SOL    HW216335   2.370   5.992   6.519 -0.3251  1.0372  1.1577
 5146SOL     OW16336   5.744   4.924   6.463 -0.2030  0.1936 -0.2007
 5146SOL    HW116337   5.674   4.857   6.440 -0.0947  0.1435 -0.3863
 5146SOL    HW216338   5.701   5.005   6.502 -0.2196 -0.6237  1.5676
 5147SOL     OW16339   3.206   1.985   4.078 -0.2026 -0.1876 -0.0752
 5147SOL    HW116340   3.268   1.955   4.151  0.7061  2.1606  0.2037
 5147SOL    HW216341   3.133   2.041   4.118 -0.8428 -0.5220 -0.7589
 5148SOL     OW16342   5.076   3.024   3.558 -0.3248  0.0358  0.1407
 5148SOL    HW116343   5.155   2.976   3.597 -0.3293 -0.6643 -0.6957
 5148SOL    HW216344   5.097   3.121   3.551  0.8408 -0.2745 -0.9720
 5149SOL     OW16345   3.729   6.814   3.508  0.4054 -0.5026 -0.2139
 5149SOL    HW116346   3.667   6.736   3.516  0.0707 -0.1544  0.7470
 5149SOL    HW216347   3.702   6.885   3.573  1.5958 -0.2006 -0.0188
 5150SOL     OW16348   6.877   2.765   5.860 -0.1249  0.0932  0.7711
 5150SOL    HW116349   6.790   2.716   5.847 -0.6530  1.0506  0.5939
 5150SOL    HW216350   6.918   2.782   5.771  1.0006 -1.6254  0.9087
 5151SOL     OW16351   4.391   4.637   2.398 -0.2497 -0.3372  0.3677
 5151SOL    HW116352   4.443   4.552   2.397  0.6876  0.2065  1.3187
 5151SOL    HW216353   4.366   4.661   2.304 -1.7231 -2.3465  0.1774
 5152SOL     OW16354   1.493   1.467   1.008  0.5766 -0.8275 -0.3513
 5152SOL    HW116355   1.468   1.444   0.914  0.7610  0.4158 -0.7203
 5152SOL    HW216356   1.450   1.553   1.034  2.6782  0.2532 -0.2537
 5153SOL     OW16357   1.915   2.842   6.710  0.4194 -0.1736  0.3408
 5153SOL    HW116358   2.003   2.864   6.668  0.9742 -1.3623  0.8419
 5153SOL    HW216359   1.929   2.819   6.806 -0.4360 -0.3878  0.4184
 5154SOL     OW16360   6.078   4.732   6.395 -0.1154  0.9166  0.5196
 5154SOL    HW116361   6.117   4.648   6.431  0.5430  0.3379 -1.4076
 5154SOL    HW216362   6.115   4.811   6.445  0.3946  0.1515  1.3667
 5155SOL     OW16363   2.788   6.360   0.182 -0.0757  0.0857 -0.2892
 5155SOL    HW116364   2.753   6.291   0.245 -0.4906  0.3602 -0.2122
 5155SOL    HW216365   2.831   6.434   0.234  0.9932 -0.4437 -0.4004
 5156SOL     OW16366   6.294   3.313   5.483 -0.0154 -0.0144 -0.7456
 5156SOL    HW116367   6.348   3.342   5.562 -0.4456  0.5613 -0.6490
 5156SOL    HW216368   6.263   3.219   5.496  0.6643 -0.2294 -0.6451
 5157SOL     OW16369   4.797   0.377   2.174  0.0322 -0.5908  0.7443
 5157SOL    HW116370   4.703   0.407   2.157  0.3327  0.4014  0.7875
 5157SOL    HW216371   4.845   0.368   2.087  0.2499  0.0839  0.7935
 5158SOL     OW16372   0.339   3.615   0.225 -0.3745  0.1490 -0.3823
 5158SOL    HW116373   0.351   3.666   0.139 -1.2162  1.0809  0.0413
 5158SOL    HW216374   0.262   3.552   0.215  0.7534 -1.1819 -0.9532
 5159SOL     OW16375   6.381   3.334   6.882 -0.1388  0.5698  0.1300
 5159SOL    HW116376   6.287   3.305   6.895 -0.5082  1.6047 -0.1666
 5159SOL    HW216377   6.442   3.269   6.928 -1.0087  0.0951  0.6449
 5160SOL     OW16378   5.317   2.952   4.996 -0.1385 -0.3405  0.1206
 5160SOL    HW116379   5.371   3.011   5.055  1.1055 -3.1437  2.0118
 5160SOL    HW216380   5.375   2.916   4.922 -0.0083 -1.4769  0.7475
 5161SOL     OW16381   1.175   0.349   6.711  0.4171 -0.0461 -0.0348
 5161SOL    HW116382   1.227   0.304   6.783  0.4110 -0.7009 -0.4407
 5161SOL    HW216383   1.085   0.306   6.703  0.7134 -0.5121 -0.9757
 5162SOL     OW16384   2.766   1.203   5.397  0.1447 -0.1619  0.1758
 5162SOL    HW116385   2.763   1.229   5.301  1.8130  0.9622  0.3896
 5162SOL    HW216386   2.792   1.107   5.405  0.7340 -0.0618 -0.4821
 5163SOL     OW16387   2.620   2.003   2.863 -0.1399  0.0811  0.0224
 5163SOL    HW116388   2.625   2.077   2.929  1.1322 -0.0732  0.1189
 5163SOL    HW216389   2.647   2.037   2.773  1.2102 -0.4227  0.2184
 5164SOL     OW16390   2.822   2.736   5.823 -0.0285  0.1215  0.2087
 5164SOL    HW116391   2.802   2.801   5.749  0.8444  2.0113  1.5758
 5164SOL    HW216392   2.835   2.645   5.783  1.2676  1.2140 -2.0904
 5165SOL     OW16393   0.563   0.197   5.485  0.0915  0.0912 -0.9238
 5165SOL    HW116394   0.643   0.166   5.538 -0.5476  0.2586  0.1771
 5165SOL    HW216395   0.587   0.281   5.435  0.7575 -0.1541 -1.0305
 5166SOL     OW16396   6.119   5.486   6.953 -0.4142 -0.1978 -0.0690
 5166SOL    HW116397   6.043   5.547   6.931 -1.2519 -0.5762  1.6334
 5166SOL    HW216398   6.122   5.411   6.886 -0.8744  0.4020 -0.7722
 5167SOL     OW16399   4.356   4.033   6.414  0.2738  0.4153 -0.1961
 5167SOL    HW116400   4.386   4.019   6.509 -0.7309  2.8473  0.5903
 5167SOL    HW216401   4.280   3.972   6.394 -2.1295  2.4116  2.0201
 5168SOL     OW16402   6.201   6.768   5.143  0.5132  0.0237  0.6432
 5168SOL    HW116403   6.143   6.813   5.211  1.3797  1.1260  0.6706
 5168SOL    HW216404   6.213   6.672   5.168 -1.5710 -0.3331  0.4550
 5169SOL     OW16405   3.961   5.949   3.464  0.3592  0.6309  0.2301
 5169SOL    HW116406   4.053   5.974   3.435  1.1545 -0.4585  1.6800
 5169SOL    HW216407   3.908   5.920   3.384  1.6123  0.2668 -0.5044
 5170SOL     OW16408   2.952   3.313   5.047  0.5339 -0.5456 -0.2089
 5170SOL    HW116409   2.890   3.245   5.008  0.5735 -0.5067 -0.3414
 5170SOL    HW216410   2.978   3.378   4.975  0.5500 -0.4316 -0.0991
 5171SOL     OW16411   6.698   0.037   5.404  0.1827  0.0023  0.1488
 5171SOL    HW116412   6.787   0.020   5.447 -0.0371  0.3653  0.7477
 5171SOL    HW216413   6.713   0.081   5.315  0.6142 -0.2378  0.0970
 5172SOL     OW16414   3.780   5.619   6.346  0.6214 -0.6298  0.2007
 5172SOL    HW116415   3.767   5.645   6.442  0.3308  0.6615 -0.1702
 5172SOL    HW216416   3.864   5.663   6.312 -0.8388  1.4469 -0.9600
 5173SOL     OW16417   3.862   0.120   4.061 -0.1598 -0.5848 -0.1877
 5173SOL    HW116418   3.801   0.199   4.066  0.3879 -0.2472  1.6527
 5173SOL    HW216419   3.899   0.113   3.968 -0.6661  0.9638 -0.5343
 5174SOL     OW16420   1.528   6.298   4.342  0.2393  0.4124  0.0057
 5174SOL    HW116421   1.492   6.373   4.287  0.6994  0.2791 -0.4806
 5174SOL    HW216422   1.609   6.328   4.391  1.9292 -0.4234 -2.1171
 5175SOL     OW16423   3.258   4.308   5.819  0.0813  0.6413 -0.8055
 5175SOL    HW116424   3.224   4.301   5.726  0.4267  1.7284 -1.0277
 5175SOL    HW216425   3.182   4.321   5.882 -0.1712 -0.3164 -0.9006
 5176SOL     OW16426   4.896   5.781   5.914  0.0929 -0.0936 -0.1886
 5176SOL    HW116427   4.912   5.830   5.828  1.0236  2.4316  1.3190
 5176SOL    HW216428   4.984   5.750   5.951  0.2040  2.0415  1.5562
 5177SOL     OW16429   0.054   4.816   2.714  0.1273 -0.2123  0.3765
 5177SOL    HW116430   0.055   4.915   2.706  1.6831 -0.1913  0.6371
 5177SOL    HW216431  -0.040   4.785   2.730 -0.0465  1.4176  3.0420
 5178SOL     OW16432   1.364   2.796   2.255 -0.5431 -0.3982 -0.2759
 5178SOL    HW116433   1.322   2.777   2.167  1.1396  0.0661 -1.2234
 5178SOL    HW216434   1.389   2.710   2.299  1.6796 -0.6648 -1.8582
 5179SOL     OW16435   5.242   6.966   1.844 -0.3380  0.1991  0.1440
 5179SOL    HW116436   5.311   6.920   1.900 -0.1667 -1.2792 -1.2354
 5179SOL    HW216437   5.152   6.955   1.888 -0.3158 -1.5567 -0.1637
 5180SOL     OW16438   1.847   5.563   1.854  0.1183 -0.6068 -0.4983
 5180SOL    HW116439   1.847   5.594   1.759  1.7673  2.7012  0.4037
 5180SOL    HW216440   1.941   5.545   1.883 -0.2468 -0.5968  0.7581
 5181SOL     OW16441   6.003   3.765   5.127  0.4056  0.5275 -0.5838
 5181SOL    HW116442   5.941   3.758   5.048 -0.0579  0.3750 -0.2146
 5181SOL    HW216443   5.951   3.793   5.207  0.8016  0.3034 -0.2436
 5182SOL     OW16444   3.706   6.101   2.327 -0.3711  0.9757  0.2549
 5182SOL    HW116445   3.627   6.122   2.386  0.0196  0.2439  1.0596
 5182SOL    HW216446   3.788   6.142   2.366  0.8696 -3.4929  3.1313
 5183SOL     OW16447   4.377   2.231   4.370 -0.7672 -0.1984  0.0351
 5183SOL    HW116448   4.456   2.235   4.308  1.9608  0.7101  3.2836
 5183SOL    HW216449   4.344   2.324   4.388 -1.1018 -0.3942  0.4417
 5184SOL     OW16450   2.455   1.747   1.862 -0.3084 -1.3739 -0.1598
 5184SOL    HW116451   2.484   1.821   1.922 -0.9332  0.2828 -1.8014
 5184SOL    HW216452   2.374   1.702   1.900 -2.4248  1.4836 -0.9858
 5185SOL     OW16453   6.709   6.804   0.988 -0.5920 -0.2242 -0.3369
 5185SOL    HW116454   6.614   6.775   1.002  0.4638 -2.3312  4.1139
 5185SOL    HW216455   6.749   6.752   0.913 -2.2183 -1.2600 -0.5284
 5186SOL     OW16456   6.237   3.895   5.541 -0.8628 -0.2468 -0.0607
 5186SOL    HW116457   6.331   3.876   5.571 -1.7810 -0.9918  2.6482
 5186SOL    HW216458   6.237   3.917   5.444  2.3142  1.4073  0.1896
 5187SOL     OW16459   1.362   3.332   4.513  0.2994 -0.3209 -0.0200
 5187SOL    HW116460   1.407   3.398   4.454 -0.4111  1.2328  1.1143
 5187SOL    HW216461   1.425   3.301   4.584 -0.1145  1.2743  1.1035
 5188SOL     OW16462   5.819   0.507   1.290 -0.2142 -0.1965  0.6808
 5188SOL    HW116463   5.740   0.487   1.232  1.1078 -1.9721 -0.6176
 5188SOL    HW216464   5.842   0.604   1.281 -0.9764 -0.0959 -0.5702
 5189SOL     OW16465   6.910   4.680   4.036 -0.1601  0.1171 -0.0176
 5189SOL    HW116466   6.901   4.682   3.936  1.2467 -0.3420 -0.1689
 5189SOL    HW216467   6.819   4.667   4.076 -0.9267  1.5160 -1.1670
 5190SOL     OW16468   2.260   4.831   0.295  0.5821 -0.1170  0.4540
 5190SOL    HW116469   2.335   4.764   0.296 -1.0385 -2.0317 -0.2000
 5190SOL    HW216470   2.177   4.787   0.262 -1.0794  1.7067  1.9923
 5191SOL     OW16471   2.122   3.756   1.203 -0.3954 -0.5878  0.2921
 5191SOL    HW116472   2.127   3.829   1.271 -0.6841 -1.0310  0.8008
 5191SOL    HW216473   2.128   3.667   1.249 -0.3596 -0.8905 -0.2855
 5192SOL     OW16474   5.334   3.455   3.706 -0.4102  0.0450 -1.3571
 5192SOL    HW116475   5.384   3.534   3.742 -0.8487  0.2098 -1.1061
 5192SOL    HW216476   5.396   3.377   3.699 -0.7900 -0.7049  2.0220
 5193SOL     OW16477   2.235   5.944   5.686 -0.9445 -0.0796  0.1816
 5193SOL    HW116478   2.255   5.933   5.783 -2.0487  1.6763  0.6487
 5193SOL    HW216479   2.168   5.875   5.657 -0.1059 -1.0329  0.4828
 5194SOL     OW16480   3.528   2.689   5.720 -0.3231 -0.4813 -0.3300
 5194SOL    HW116481   3.474   2.617   5.677  1.0804 -1.3429 -0.7254
 5194SOL    HW216482   3.624   2.662   5.722  0.0779  0.8938  0.5706
 5195SOL     OW16483   1.045   1.094   5.283  0.1100  0.0007  0.1697
 5195SOL    HW116484   1.110   1.057   5.215 -0.0482  1.5645 -0.8776
 5195SOL    HW216485   1.080   1.181   5.318 -0.8260  0.2304  0.5436
 5196SOL     OW16486   0.389   4.522   4.231  0.1269  0.1314 -0.1047
 5196SOL    HW116487   0.450   4.551   4.157 -1.3409  2.8595 -0.3780
 5196SOL    HW216488   0.428   4.549   4.319  0.8173 -1.1257  0.0034
 5197SOL     OW16489   2.789   2.423   6.202  0.6565 -0.2311 -0.4314
 5197SOL    HW116490   2.823   2.515   6.185 -0.1459  0.0044 -0.8205
 5197SOL    HW216491   2.798   2.400   6.299  2.5418 -0.4456 -0.6168
 5198SOL     OW16492   6.468   5.937   5.144 -0.3797 -0.2774  0.1907
 5198SOL    HW116493   6.446   5.897   5.233 -0.8297  2.5235  1.4431
 5198SOL    HW216494   6.386   5.934   5.086 -0.2060 -1.7263 -0.0209
 5199SOL     OW16495   0.272   5.045   0.088 -0.1421 -0.2205  0.0344
 5199SOL    HW116496   0.194   5.070   0.146  1.0547  1.8392  0.8491
 5199SOL    HW216497   0.242   4.977   0.020 -2.0667 -1.2121  1.7444
 5200SOL     OW16498   6.331   4.968   0.067  0.3548  0.4007  0.4698
 5200SOL    HW116499   6.240   5.010   0.061  0.1903  0.0690  0.5641
 5200SOL    HW216500   6.320   4.872   0.092  0.8469  1.0783  3.7259
 5201SOL     OW16501   1.716   6.572   2.782 -0.7678  0.3102  0.5483
 5201SOL    HW116502   1.808   6.610   2.789 -0.6188 -0.2048  1.5246
 5201SOL    HW216503   1.675   6.568   2.873 -2.7379  2.9012 -0.0974
 5202SOL     OW16504   0.173   5.141   1.285 -0.7328 -0.2278 -0.9471
 5202SOL    HW116505   0.102   5.079   1.319 -1.7560  0.7477 -1.2122
 5202SOL    HW216506   0.240   5.158   1.357 -1.1211 -0.6759 -0.4684
 5203SOL     OW16507   4.901   3.493   4.727  0.3326 -0.3524 -0.5677
 5203SOL    HW116508   4.892   3.562   4.655  2.8853 -0.0528 -0.6674
 5203SOL    HW216509   4.882   3.535   4.816 -2.7641 -0.7084 -0.9284
 5204SOL     OW16510   6.649   4.127   5.109 -0.4414  0.3847 -0.0857
 5204SOL    HW116511   6.565   4.156   5.063 -0.5241 -1.6321 -1.3260
 5204SOL    HW216512   6.726   4.136   5.045 -0.4998 -2.1041 -0.6278
 5205SOL     OW16513   2.353   4.706   1.576  0.0692 -0.5622 -0.3517
 5205SOL    HW116514   2.313   4.797   1.570  0.7721 -0.1780  0.5464
 5205SOL    HW216515   2.383   4.676   1.485  1.2326  0.7532 -0.4330
 5206SOL     OW16516   1.010   3.047   4.874  0.2567 -0.4543  1.0185
 5206SOL    HW116517   1.036   3.090   4.961  0.8958  1.9749 -0.2622
 5206SOL    HW216518   1.072   2.972   4.854 -0.2430 -1.4209  2.8914
 5207SOL     OW16519   3.564   5.288   1.642 -0.5372 -0.2070 -0.5088
 5207SOL    HW116520   3.467   5.295   1.623 -0.7184 -1.6301 -0.2409
 5207SOL    HW216521   3.603   5.213   1.588  0.4360  0.4082 -0.6886
 5208SOL     OW16522   2.728   2.545   6.846 -0.2565 -0.2961 -0.0521
 5208SOL    HW116523   2.691   2.513   6.933 -1.5714  1.2767  0.0079
 5208SOL    HW216524   2.781   2.628   6.861  0.7431 -0.8207 -0.5792
 5209SOL     OW16525   5.345   5.340   4.715 -0.2155 -0.0365  0.1644
 5209SOL    HW116526   5.360   5.426   4.764 -1.1049 -0.6759  1.6224
 5209SOL    HW216527   5.434   5.300   4.691  0.2505  0.4374  1.0232
 5210SOL     OW16528   5.516   3.478   4.329 -0.0330  0.3460 -0.1095
 5210SOL    HW116529   5.610   3.477   4.297 -0.1652 -0.2013 -0.4953
 5210SOL    HW216530   5.459   3.425   4.267 -0.3393 -0.5457  0.9017
 5211SOL     OW16531   2.713   4.445   1.693 -0.0434  0.0668 -0.0303
 5211SOL    HW116532   2.772   4.482   1.765 -1.5876 -0.3627  1.5285
 5211SOL    HW216533   2.638   4.393   1.735 -0.9110 -0.3318 -1.9715
 5212SOL     OW16534   0.199   0.075   1.241 -0.2690  0.0601 -0.1282
 5212SOL    HW116535   0.290   0.116   1.247  0.3513 -1.2699 -0.2498
 5212SOL    HW216536   0.150   0.114   1.163 -0.5662  2.1928  1.0180
 5213SOL     OW16537   3.509   1.395   6.821  0.2770 -0.0127  0.1723
 5213SOL    HW116538   3.446   1.464   6.857 -0.2726 -0.8086  0.7795
 5213SOL    HW216539   3.483   1.372   6.727  1.1387  1.3863 -0.4358
 5214SOL     OW16540   2.492   2.848   0.710  0.3304  0.2508  0.3350
 5214SOL    HW116541   2.571   2.874   0.765  1.1475  1.6137 -1.3850
 5214SOL    HW216542   2.427   2.923   0.705 -1.1578 -0.8607  1.7408
 5215SOL     OW16543   6.452   5.898   4.592 -0.7812 -0.4434  0.0386
 5215SOL    HW116544   6.532   5.845   4.621 -1.2764 -1.3221 -0.1470
 5215SOL    HW216545   6.436   5.973   4.656  0.6929  0.2798 -0.3907
 5216SOL     OW16546   4.040   0.258   0.571 -0.7390  0.3362  0.0679
 5216SOL    HW116547   4.046   0.164   0.607 -0.9798  0.5645  0.7316
 5216SOL    HW216548   4.029   0.256   0.472 -0.8813 -0.3416  0.0952
 5217SOL     OW16549   3.544   5.590   3.777 -0.3655  0.1965  0.1109
 5217SOL    HW116550   3.542   5.649   3.858  0.7778  0.1891  0.1715
 5217SOL    HW216551   3.549   5.647   3.695  0.7087  0.2227  0.1682
 5218SOL     OW16552   2.585   0.938   2.323  0.1559  0.4452 -0.3783
 5218SOL    HW116553   2.520   1.012   2.341 -0.1567  0.0985 -0.0617
 5218SOL    HW216554   2.608   0.937   2.225  0.8294  1.4982 -0.2475
 5219SOL     OW16555   3.639   1.243   0.738 -0.0287  0.0705  0.5339
 5219SOL    HW116556   3.653   1.300   0.819 -0.5017 -0.5825  1.0831
 5219SOL    HW216557   3.561   1.182   0.753 -0.4097  0.2493 -0.5861
 5220SOL     OW16558   1.670   0.379   2.916  0.0343 -0.0681 -0.3505
 5220SOL    HW116559   1.646   0.456   2.857  2.4180  1.5923  0.6666
 5220SOL    HW216560   1.640   0.398   3.010 -0.1478 -0.8093 -0.2535
 5221SOL     OW16561   4.571   0.656   0.605 -0.2594 -0.2068 -0.4099
 5221SOL    HW116562   4.654   0.602   0.594 -0.9866 -1.0518 -2.1496
 5221SOL    HW216563   4.509   0.609   0.668  1.3396  1.4640  2.6321
 5222SOL     OW16564   0.954   5.385   3.326 -0.0139  0.0504  0.5455
 5222SOL    HW116565   0.884   5.331   3.373 -0.0097 -0.5116 -0.0712
 5222SOL    HW216566   0.959   5.356   3.230  1.9791 -0.8362  0.8784
 5223SOL     OW16567   4.873   5.865   2.744  0.0249  0.4342 -0.2706
 5223SOL    HW116568   4.835   5.828   2.829 -1.3879  1.8004 -0.2561
 5223SOL    HW216569   4.899   5.791   2.683  0.0072 -0.5592  0.8993
 5224SOL     OW16570   4.154   0.334   2.687 -0.4268 -0.2354  0.3264
 5224SOL    HW116571   4.117   0.275   2.759 -0.1953 -0.2341  0.4476
 5224SOL    HW216572   4.208   0.279   2.624 -1.6110 -0.4476 -0.5342
 5225SOL     OW16573   6.632   0.365   5.851  0.4987  0.0087 -0.0945
 5225SOL    HW116574   6.557   0.428   5.870  0.7423  0.6910 -1.3070
 5225SOL    HW216575   6.676   0.390   5.765  3.0573  0.5388  1.2570
 5226SOL     OW16576   3.316   0.374   3.919  0.2013  0.2114  0.2750
 5226SOL    HW116577   3.222   0.351   3.943 -0.5391  2.5013 -0.2669
 5226SOL    HW216578   3.376   0.354   3.997 -0.9093 -0.1419  1.0607
 5227SOL     OW16579   4.809   4.263   3.326 -0.0544 -0.1245 -0.5444
 5227SOL    HW116580   4.749   4.320   3.382  1.5790  1.5495 -0.4090
 5227SOL    HW216581   4.817   4.172   3.368  1.0818  1.0500  1.9913
 5228SOL     OW16582   5.818   2.043   2.627 -0.1173  0.0091 -0.0242
 5228SOL    HW116583   5.797   2.099   2.547  1.0778 -0.2266 -0.5171
 5228SOL    HW216584   5.732   2.011   2.667 -0.7543 -1.1325 -2.1110
 5229SOL     OW16585   0.337   2.103   3.301 -0.1826  0.7671 -0.1541
 5229SOL    HW116586   0.241   2.123   3.318 -0.3093 -0.9140  1.5160
 5229SOL    HW216587   0.359   2.121   3.206 -2.0065  1.7120 -0.4277
 5230SOL     OW16588   0.765   0.688   6.024 -0.0672 -0.1648  0.3053
 5230SOL    HW116589   0.703   0.618   6.059 -0.3706  0.5473  1.2124
 5230SOL    HW216590   0.860   0.657   6.037 -0.1593 -1.7396 -2.0692
 5231SOL     OW16591   3.792   3.433   4.387  0.1880 -0.1947  0.2718
 5231SOL    HW116592   3.787   3.474   4.295 -0.6960 -0.4456  0.1976
 5231SOL    HW216593   3.752   3.342   4.385  1.3140 -0.7161  0.6452
 5232SOL     OW16594   6.030   2.311   5.363 -0.5036 -0.3577  0.1514
 5232SOL    HW116595   6.031   2.357   5.452  0.0969 -0.0407 -0.0105
 5232SOL    HW216596   5.953   2.344   5.308  0.6606  1.4736 -0.4666
 5233SOL     OW16597   0.292   6.685   2.940  0.0776 -0.2890 -0.4177
 5233SOL    HW116598   0.194   6.684   2.958  0.2248  0.2934  0.4779
 5233SOL    HW216599   0.342   6.672   3.026  0.7785 -2.7917 -1.1352
 5234SOL     OW16600   3.534   3.531   2.894  0.1722  0.1250 -0.0317
 5234SOL    HW116601   3.467   3.605   2.890 -1.5566 -1.3776 -0.5058
 5234SOL    HW216602   3.520   3.479   2.978  1.0448  0.0231  0.0607
 5235SOL     OW16603   2.982   1.967   2.356  0.2205  0.5268  0.0646
 5235SOL    HW116604   2.956   2.025   2.279 -0.5431 -1.4857 -1.2987
 5235SOL    HW216605   3.054   2.011   2.409  0.5942  2.1005 -1.6678
 5236SOL     OW16606   5.781   1.756   1.096  0.0876 -0.4872  0.1640
 5236SOL    HW116607   5.739   1.730   1.183  0.2497  0.4538  0.5431
 5236SOL    HW216608   5.733   1.836   1.059  0.2939 -0.6178 -0.3962
 5237SOL     OW16609   1.517   0.766   3.298 -0.1005 -0.4415 -0.1215
 5237SOL    HW116610   1.537   0.733   3.206  3.2413  1.3504 -0.1894
 5237SOL    HW216611   1.600   0.759   3.355 -1.1958  1.2799  1.8405
 5238SOL     OW16612   0.833   3.713   2.108 -0.2971  0.0334  0.9851
 5238SOL    HW116613   0.801   3.697   2.015  2.2812  1.0745 -0.1934
 5238SOL    HW216614   0.767   3.769   2.158 -1.8301 -0.7395 -0.1011
 5239SOL     OW16615   3.433   4.156   4.511  0.1449  0.2277  0.2171
 5239SOL    HW116616   3.433   4.238   4.569 -1.0815 -0.7602  1.6950
 5239SOL    HW216617   3.375   4.087   4.552 -0.3059 -0.7511 -1.9528
 5240SOL     OW16618   4.504   2.287   5.230 -0.2128 -0.0973  0.3930
 5240SOL    HW116619   4.533   2.223   5.301  0.2790  0.1144  0.3918
 5240SOL    HW216620   4.584   2.315   5.177 -0.2750  1.1777  0.9357
 5241SOL     OW16621   5.742   3.970   5.603 -0.2117 -0.3373  0.3632
 5241SOL    HW116622   5.748   4.045   5.537  0.0782  0.4545  1.2528
 5241SOL    HW216623   5.833   3.951   5.640 -0.3772 -0.7353  0.5736
 5242SOL     OW16624   3.911   1.342   4.153 -0.2233  0.1773  0.0494
 5242SOL    HW116625   3.985   1.409   4.161  0.4788 -0.6144  0.2367
 5242SOL    HW216626   3.826   1.390   4.128  0.2273  1.1531  0.3294
 5243SOL     OW16627   2.786   5.078   6.132 -0.4074 -0.1314 -0.2188
 5243SOL    HW116628   2.789   4.987   6.091 -1.9719 -0.2617 -0.1225
 5243SOL    HW216629   2.691   5.102   6.153 -0.0362  1.5541 -0.3025
 5244SOL     OW16630   5.778   1.837   1.389 -0.3173 -0.3550  0.7543
 5244SOL    HW116631   5.828   1.783   1.456  0.0185 -3.6762 -1.9125
 5244SOL    HW216632   5.831   1.920   1.367 -0.0471  0.4073  3.7708
 5245SOL     OW16633   5.846   5.037   6.053  0.5342 -0.3263  1.0295
 5245SOL    HW116634   5.897   5.034   6.139  1.2156  1.2474  0.7167
 5245SOL    HW216635   5.885   4.971   5.989 -0.5196 -2.1282  2.1678
 5246SOL     OW16636   1.518   3.258   3.932  0.0282  0.0924 -0.0877
 5246SOL    HW116637   1.463   3.181   3.900 -0.8720  0.3128  0.8696
 5246SOL    HW216638   1.461   3.318   3.990  0.9545  0.9798 -0.0733
 5247SOL     OW16639   6.912   1.958   6.519  0.6199 -0.1109 -0.1598
 5247SOL    HW116640   6.971   1.879   6.501  0.3904 -0.2759 -0.1908
 5247SOL    HW216641   6.827   1.949   6.467  1.1273  0.7895 -1.1741
 5248SOL     OW16642   3.987   1.225   1.069  0.1933  0.2156  0.2296
 5248SOL    HW116643   3.952   1.205   0.978 -0.4872 -0.0193  0.5365
 5248SOL    HW216644   3.998   1.324   1.080  0.6045  0.2213 -0.2208
 5249SOL     OW16645   0.942   3.637   6.142  0.4113 -0.1017  0.3161
 5249SOL    HW116646   0.958   3.545   6.106 -0.7270 -0.6057  1.0349
 5249SOL    HW216647   0.890   3.690   6.075  1.5466  0.2210 -0.3339
 5250SOL     OW16648   0.812   1.019   5.874  0.6560 -0.5671 -0.4488
 5250SOL    HW116649   0.849   0.933   5.838  0.3122 -0.8053 -0.2407
 5250SOL    HW216650   0.882   1.065   5.928  0.5025 -1.2591  0.3571
 5251SOL     OW16651   2.429   2.253   2.640  0.7356 -0.3581 -0.2384
 5251SOL    HW116652   2.492   2.176   2.640 -0.2683 -1.1998 -0.3246
 5251SOL    HW216653   2.336   2.220   2.654 -0.0837  0.5282 -2.9753
 5252SOL     OW16654   5.224   5.762   1.472  0.4713 -0.0291  0.5409
 5252SOL    HW116655   5.171   5.794   1.550 -1.4656 -0.8753 -0.3597
 5252SOL    HW216656   5.249   5.840   1.414 -2.5612  0.1783 -0.6476
 5253SOL     OW16657   4.619   4.917   5.337  0.1593  0.4031  0.2539
 5253SOL    HW116658   4.708   4.883   5.367  0.1597 -0.3220 -0.5222
 5253SOL    HW216659   4.549   4.890   5.404  0.7962  2.9574  2.0868
 5254SOL     OW16660   5.706   5.637   3.716  0.3422 -0.1369  0.8373
 5254SOL    HW116661   5.726   5.542   3.691  0.9914 -0.0661  1.0643
 5254SOL    HW216662   5.643   5.677   3.649  0.8256 -0.4332  0.1902
 5255SOL     OW16663   2.089   4.810   3.479  0.1813 -0.0229  0.5796
 5255SOL    HW116664   2.100   4.753   3.560  0.0454 -0.6439  0.1685
 5255SOL    HW216665   2.010   4.779   3.427  0.5114  0.1020 -0.0088
 5256SOL     OW16666   5.480   5.956   3.246 -0.4699 -0.2157 -0.7798
 5256SOL    HW116667   5.537   5.944   3.165 -0.1581  0.0083 -0.5934
 5256SOL    HW216668   5.518   5.902   3.321  1.0787  2.0164  0.1397
 5257SOL     OW16669   0.887   0.664   4.711  0.1425 -0.1328  0.0986
 5257SOL    HW116670   0.819   0.686   4.641  0.7579  0.0962 -0.4304
 5257SOL    HW216671   0.850   0.686   4.802  0.5354  2.6803 -0.3391
 5258SOL     OW16672   4.395   2.536   0.882  0.4448 -0.3833 -0.2754
 5258SOL    HW116673   4.341   2.465   0.927 -0.2270 -0.6277 -1.4095
 5258SOL    HW216674   4.333   2.600   0.836  1.0612 -1.4562 -2.7997
 5259SOL     OW16675   5.024   4.287   1.534  0.2563  0.2256  0.1947
 5259SOL    HW116676   4.935   4.333   1.527 -0.5485 -1.1715  0.8685
 5259SOL    HW216677   5.096   4.353   1.515 -0.8635  1.7154  0.8276
 5260SOL     OW16678   4.861   3.183   2.763  0.6344 -0.5276  0.3721
 5260SOL    HW116679   4.881   3.205   2.859 -0.8020  1.7645  0.2267
 5260SOL    HW216680   4.785   3.119   2.759 -0.2636  0.4676  0.8098
 5261SOL     OW16681   1.910   3.468   3.348 -0.4320  0.0472  0.5431
 5261SOL    HW116682   1.967   3.441   3.271 -1.0529  0.1884  0.0244
 5261SOL    HW216683   1.966   3.515   3.416  0.4174 -1.4133  0.8963
 5262SOL     OW16684   0.995   1.492   1.865 -0.3404  0.3341 -0.4466
 5262SOL    HW116685   0.991   1.399   1.828 -0.2071  0.6535 -1.2896
 5262SOL    HW216686   0.905   1.517   1.900 -0.8738  0.5199 -1.8599
 5263SOL     OW16687   2.850   6.195   6.966  0.2156 -0.2380  0.4369
 5263SOL    HW116688   2.874   6.279   7.015 -2.9209  0.5077  0.8582
 5263SOL    HW216689   2.803   6.133   7.028  2.0459 -2.1894 -0.0061
 5264SOL     OW16690   0.580   1.569   0.958 -0.2569  0.5832 -0.1178
 5264SOL    HW116691   0.651   1.530   1.017 -1.2288 -1.0661  0.0474
 5264SOL    HW216692   0.601   1.665   0.939  2.2403  0.0507 -0.4659
 5265SOL     OW16693   4.967   4.566   5.105  0.3117 -0.9191 -0.0387
 5265SOL    HW116694   5.016   4.479   5.096 -0.9000 -1.5051 -1.1191
 5265SOL    HW216695   4.929   4.593   5.017  4.3241  3.0119 -0.9576
 5266SOL     OW16696   1.587   0.062   1.147 -0.1830  0.1928 -0.1582
 5266SOL    HW116697   1.563   0.123   1.222  2.3225  1.6276 -0.4306
 5266SOL    HW216698   1.622  -0.024   1.184  0.6035  0.7125  0.3261
 5267SOL     OW16699   3.029   2.844   5.968  0.3013 -0.3356 -0.2328
 5267SOL    HW116700   3.102   2.825   5.903  1.2262  0.8291  0.4326
 5267SOL    HW216701   2.940   2.832   5.922  0.8738 -1.9117 -0.9957
 5268SOL     OW16702   6.144   3.016   5.153  0.2676 -0.0191 -0.2675
 5268SOL    HW116703   6.101   3.083   5.213  0.1812 -1.1246  0.9399
 5268SOL    HW216704   6.076   2.979   5.090 -0.4878 -1.3694  1.2775
 5269SOL     OW16705   1.217   4.771   6.631  0.5846 -0.2195 -0.4704
 5269SOL    HW116706   1.267   4.685   6.620  1.2538  0.1830 -0.5968
 5269SOL    HW216707   1.279   4.844   6.659 -0.0935  0.0907  0.2753
 5270SOL     OW16708   6.480   0.524   2.052  0.3340 -0.6470 -0.6788
 5270SOL    HW116709   6.386   0.552   2.034  0.8343  0.5569 -1.5910
 5270SOL    HW216710   6.521   0.489   1.968  0.9204 -0.4817 -0.4698
 5271SOL     OW16711   6.498   4.461   3.201  0.5658 -0.3819  0.4301
 5271SOL    HW116712   6.478   4.373   3.243  0.0278 -0.3790  0.1839
 5271SOL    HW216713   6.455   4.534   3.255  0.1525 -0.3531  0.0675
 5272SOL     OW16714   1.829   1.172   2.691 -0.1387  0.6483  0.4137
 5272SOL    HW116715   1.875   1.101   2.745 -0.4340 -0.0372 -0.2146
 5272SOL    HW216716   1.882   1.190   2.608  1.4197  3.1575  1.7961
 5273SOL     OW16717   0.739   3.401   4.639  0.0244  0.3601 -0.8764
 5273SOL    HW116718   0.640   3.391   4.637  0.0850 -0.2601 -1.3943
 5273SOL    HW216719   0.774   3.370   4.728 -0.2041  0.0858 -0.8802
 5274SOL     OW16720   1.036   4.542   5.155 -0.0756  0.4308  0.1612
 5274SOL    HW116721   1.047   4.637   5.184 -1.1096  0.1334  1.6092
 5274SOL    HW216722   1.096   4.525   5.076 -1.2880  2.8107 -1.4127
 5275SOL     OW16723   2.298   6.863   5.819 -0.3968 -0.3352  0.4347
 5275SOL    HW116724   2.368   6.916   5.867 -0.5198  0.4278 -0.1979
 5275SOL    HW216725   2.243   6.813   5.885  0.5476 -0.7086  0.9625
 5276SOL     OW16726   6.182   1.592   1.620 -0.0549  0.1184  0.0245
 5276SOL    HW116727   6.248   1.652   1.666  1.5434 -0.2819 -1.5971
 5276SOL    HW216728   6.149   1.524   1.684 -0.7754  1.7813  1.5147
 5277SOL     OW16729   3.128   2.152   2.529  0.5695  0.1013 -0.3107
 5277SOL    HW116730   3.107   2.119   2.621  1.5131 -1.6519 -0.6752
 5277SOL    HW216731   3.223   2.184   2.527  0.6710 -0.2281 -0.7593
 5278SOL     OW16732   0.052   5.095   1.042  0.0413  0.1971 -0.1226
 5278SOL    HW116733   0.005   5.006   1.041  2.2665 -1.0673 -0.1870
 5278SOL    HW216734   0.095   5.109   1.132 -0.1702  1.1472 -0.1614
 5279SOL     OW16735   4.043   5.424   6.784  0.1430 -0.2687  0.1621
 5279SOL    HW116736   4.030   5.425   6.883  0.9016 -1.3486  0.2787
 5279SOL    HW216737   4.015   5.335   6.747  1.2456 -0.4014 -0.3924
 5280SOL     OW16738   4.937   6.544   6.035 -0.0214  0.1159 -0.0437
 5280SOL    HW116739   5.031   6.570   6.056 -0.2782  0.0800  1.2453
 5280SOL    HW216740   4.915   6.457   6.081 -0.7694  0.2821 -0.0639
 5281SOL     OW16741   0.787   0.181   5.702 -0.4448  0.0390  0.4108
 5281SOL    HW116742   0.768   0.194   5.800 -0.9043 -0.4381  0.3862
 5281SOL    HW216743   0.882   0.152   5.691 -0.1824  0.7835  0.6616
 5282SOL     OW16744   0.284   6.109   1.142  0.0632 -0.1409  0.6653
 5282SOL    HW116745   0.261   6.200   1.106  1.5466 -0.1310 -0.3368
 5282SOL    HW216746   0.208   6.076   1.198 -1.9814  0.2413 -1.7062
 5283SOL     OW16747   2.718   6.888   3.687 -0.2820 -0.1479  0.6610
 5283SOL    HW116748   2.720   6.872   3.786  1.8519 -0.8062  0.5716
 5283SOL    HW216749   2.773   6.819   3.641 -1.2760  0.1325 -1.0140
 5284SOL     OW16750   6.515   2.979   2.443  0.2902 -0.0370 -0.0261
 5284SOL    HW116751   6.435   3.023   2.402 -0.8127 -0.5147  1.5186
 5284SOL    HW216752   6.577   2.948   2.371 -0.2523  1.5176 -1.2199
 5285SOL     OW16753   2.682   1.517   2.957  0.1317  0.3545  0.3112
 5285SOL    HW116754   2.766   1.506   3.009  0.0943 -0.3378  0.2332
 5285SOL    HW216755   2.676   1.446   2.887 -0.2510  0.7346 -0.0561
 5286SOL     OW16756   0.507   2.535   0.758  0.1128 -0.8393 -0.2752
 5286SOL    HW116757   0.535   2.591   0.680 -1.8095  0.8527  0.1743
 5286SOL    HW216758   0.448   2.461   0.727  1.2434 -1.6131 -0.6585
 5287SOL     OW16759   0.729   6.599   2.246  0.2005 -0.3853 -0.0835
 5287SOL    HW116760   0.641   6.622   2.286  0.4900 -0.0399  0.3526
 5287SOL    HW216761   0.735   6.500   2.234 -0.6789 -0.3333 -1.1230
 5288SOL     OW16762   5.348   0.927   2.218 -0.4433  0.2175  0.7622
 5288SOL    HW116763   5.360   0.900   2.123  2.7029  0.4858  0.9727
 5288SOL    HW216764   5.343   0.845   2.276 -0.9211  0.0599  0.4980
 5289SOL     OW16765   1.661   5.568   6.585  0.6333  0.1888  0.3036
 5289SOL    HW116766   1.625   5.653   6.546  0.6433 -0.4150 -1.0918
 5289SOL    HW216767   1.752   5.551   6.547 -0.2496 -1.5617 -1.2087
 5290SOL     OW16768   1.912   1.163   0.081 -0.0229 -0.1072 -0.2061
 5290SOL    HW116769   1.954   1.113   0.005 -0.3242 -0.4409 -0.1547
 5290SOL    HW216770   1.980   1.176   0.153  0.4515  0.7777 -0.7937
 5291SOL     OW16771   1.174   6.547   3.595 -0.2923 -0.4219  0.2688
 5291SOL    HW116772   1.230   6.477   3.640  0.2752  0.1551  0.4773
 5291SOL    HW216773   1.157   6.622   3.658 -0.3627 -0.0803 -0.1522
 5292SOL     OW16774   1.780   3.279   3.531  0.0461  0.1286  0.1069
 5292SOL    HW116775   1.840   3.345   3.485  1.1476  0.2989  1.7195
 5292SOL    HW216776   1.786   3.191   3.483 -0.7441  0.9054 -1.5207
 5293SOL     OW16777   2.483   0.498   4.187  0.2536 -0.0728  0.3521
 5293SOL    HW116778   2.414   0.468   4.253 -1.0658  0.1439 -0.8639
 5293SOL    HW216779   2.526   0.582   4.220  0.9426 -0.9545  1.7763
 5294SOL     OW16780   6.084   1.126   3.007  0.2496  0.3989  0.2826
 5294SOL    HW116781   5.986   1.111   2.996 -0.4714  2.2737  3.0328
 5294SOL    HW216782   6.111   1.212   2.962  0.5930  0.0186 -0.2501
 5295SOL     OW16783   2.406   2.092   1.342 -0.1584 -0.1556 -0.0896
 5295SOL    HW116784   2.412   2.030   1.263 -0.9343  0.7857 -0.9083
 5295SOL    HW216785   2.424   2.185   1.313  2.3789 -0.1026  1.3856
 5296SOL     OW16786   3.961   5.530   1.424  0.1651  0.4583  0.0005
 5296SOL    HW116787   3.945   5.482   1.511  0.4344 -0.6939 -0.5752
 5296SOL    HW216788   4.055   5.515   1.394 -0.4465 -0.7216 -1.4232
 5297SOL     OW16789   4.259   2.834   0.894 -0.5242 -0.3044  0.3496
 5297SOL    HW116790   4.280   2.839   0.992 -3.0768 -1.4942  1.0310
 5297SOL    HW216791   4.335   2.875   0.842  0.7842  0.6107  2.7927
 5298SOL     OW16792   2.168   2.722   0.594  0.0907  0.1114  0.3267
 5298SOL    HW116793   2.194   2.644   0.652 -0.4668  1.2597  2.2005
 5298SOL    HW216794   2.246   2.747   0.536  0.0378 -2.3058 -0.9521
 5299SOL     OW16795   1.030   2.081   1.501  0.6916  0.1794  0.3156
 5299SOL    HW116796   0.975   1.998   1.501  0.4458  0.3363  0.8633
 5299SOL    HW216797   1.127   2.057   1.495  0.7219 -0.2423  1.9254
 5300SOL     OW16798   3.557   4.006   0.421 -0.3159 -0.6070 -0.3008
 5300SOL    HW116799   3.628   3.979   0.356 -0.4170 -4.5000  0.9445
 5300SOL    HW216800   3.587   3.984   0.514 -1.4640  1.8085  0.7263
 5301SOL     OW16801   5.677   0.200   6.549 -0.0951  0.6038  0.2078
 5301SOL    HW116802   5.743   0.202   6.625  1.5909 -1.9029 -1.0736
 5301SOL    HW216803   5.591   0.159   6.580  0.3380  0.2241  0.9374
 5302SOL     OW16804   5.707   5.566   4.629 -0.0286  0.3529 -0.3225
 5302SOL    HW116805   5.781   5.554   4.563 -1.0058 -1.1592 -1.2129
 5302SOL    HW216806   5.619   5.563   4.582 -0.7107  0.6125  0.8928
 5303SOL     OW16807   1.108   5.891   5.472  0.2587 -0.2287 -0.2782
 5303SOL    HW116808   1.068   5.980   5.496  1.1381  0.6008 -1.7277
 5303SOL    HW216809   1.166   5.902   5.391 -1.2200 -2.4977 -1.7513
 5304SOL     OW16810   1.054   0.884   3.412  0.2790  0.5592 -0.4445
 5304SOL    HW116811   1.081   0.949   3.483 -0.1909 -0.3634  0.6102
 5304SOL    HW216812   1.118   0.889   3.335 -0.2734  2.9204 -0.8177
 5305SOL     OW16813   6.224   5.330   5.109  1.0270 -0.0719  0.4472
 5305SOL    HW116814   6.132   5.337   5.068  0.9288  1.2152  0.8356
 5305SOL    HW216815   6.225   5.377   5.197  2.0474 -0.1435  0.4871
 5306SOL     OW16816   0.970   2.459   6.450 -0.2401  0.5424 -0.7907
 5306SOL    HW116817   1.037   2.424   6.515  0.6172  1.9229 -0.8912
 5306SOL    HW216818   0.973   2.404   6.366  0.3206  0.2100 -0.5556
 5307SOL     OW16819   0.923   0.860   1.392 -0.0141  0.0250  0.0798
 5307SOL    HW116820   0.824   0.846   1.387 -0.0375 -0.0735  0.8030
 5307SOL    HW216821   0.964   0.792   1.452  0.3708  0.6249  0.5098
 5308SOL     OW16822   1.435   4.990   2.746  0.1966 -0.1343  0.0354
 5308SOL    HW116823   1.426   5.002   2.647  1.4120 -2.2354 -0.3877
 5308SOL    HW216824   1.532   4.983   2.770 -0.1511 -1.6026  1.0923
 5309SOL     OW16825   6.524   7.022   2.119 -0.3435  0.1781 -0.3920
 5309SOL    HW116826   6.564   7.062   2.037 -0.4683  2.8919  0.7700
 5309SOL    HW216827   6.471   7.091   2.168  0.2318 -1.1493  2.3115
 5310SOL     OW16828   5.516   2.270   4.746 -0.0537 -0.0093 -0.0586
 5310SOL    HW116829   5.600   2.259   4.693 -0.3965  0.4197 -0.7139
 5310SOL    HW216830   5.456   2.192   4.730  0.1813 -0.2695  0.3339
 5311SOL     OW16831   0.201   1.581   1.265  0.3199  0.5274  0.1736
 5311SOL    HW116832   0.243   1.572   1.174  1.0196  0.1567  0.5205
 5311SOL    HW216833   0.175   1.676   1.281  2.1282  1.0308  0.4013
 5312SOL     OW16834   6.213   6.484   5.872  0.5866 -0.1504  0.2478
 5312SOL    HW116835   6.212   6.384   5.873 -0.5543 -0.1750 -0.5557
 5312SOL    HW216836   6.305   6.517   5.853  0.7358 -1.0740 -0.6914
 5313SOL     OW16837   1.950   6.273   6.558 -0.5294  0.0078 -0.0286
 5313SOL    HW116838   2.001   6.274   6.472  1.0704 -0.5052  0.8594
 5313SOL    HW216839   1.993   6.338   6.622 -0.8683 -0.5817  0.8084
 5314SOL     OW16840   0.253   1.615   2.871  0.0367  0.5536  0.4309
 5314SOL    HW116841   0.155   1.608   2.890  0.6805 -1.6997  3.5187
 5314SOL    HW216842   0.279   1.545   2.804  0.1007 -1.8390  2.7824
 5315SOL     OW16843   4.125   6.882   4.338  0.3888 -0.1348  0.3111
 5315SOL    HW116844   4.084   6.889   4.247  0.5571  0.6606  0.2944
 5315SOL    HW216845   4.129   6.785   4.365 -1.9497 -0.2119  0.5369
 5316SOL     OW16846   0.114   2.666   5.639 -0.3535  0.5803 -0.2314
 5316SOL    HW116847   0.051   2.724   5.588 -0.0073  0.1619 -1.1511
 5316SOL    HW216848   0.152   2.595   5.579 -1.1374 -0.9251  0.9595
 5317SOL     OW16849   6.971   2.596   1.877 -0.4256  0.3937 -0.4001
 5317SOL    HW116850   7.005   2.588   1.784 -2.6439 -1.9364 -1.1222
 5317SOL    HW216851   6.891   2.537   1.889  0.6486 -0.6046  3.4213
 5318SOL     OW16852   5.493   4.571   6.885 -0.7773  0.0919 -0.2625
 5318SOL    HW116853   5.514   4.650   6.829 -0.3003 -0.2450 -0.5638
 5318SOL    HW216854   5.553   4.570   6.965 -0.9164  0.1417 -0.1575
 5319SOL     OW16855   3.121   6.073   3.163  0.0037 -0.3269 -0.0112
 5319SOL    HW116856   3.032   6.064   3.207 -0.4569  0.5269 -0.7580
 5319SOL    HW216857   3.129   6.162   3.119  1.5956  0.0035  0.8464
 5320SOL     OW16858   4.130   4.830   1.599  0.4140  0.5847 -0.4842
 5320SOL    HW116859   4.168   4.785   1.518 -0.4279 -0.4371 -0.3312
 5320SOL    HW216860   4.093   4.761   1.661  0.0955  1.4276  0.2873
 5321SOL     OW16861   2.344   4.208   5.894 -0.2149 -0.3356 -0.3573
 5321SOL    HW116862   2.298   4.193   5.982  0.1087 -2.7680 -0.5225
 5321SOL    HW216863   2.301   4.152   5.824  0.3797  0.5535 -1.4609
 5322SOL     OW16864   3.822   5.311   2.896 -0.3702 -0.2087  0.1416
 5322SOL    HW116865   3.730   5.296   2.860 -1.4069  1.7845  1.7351
 5322SOL    HW216866   3.864   5.224   2.921 -0.7036 -1.3966 -3.0829
 5323SOL     OW16867   5.443   6.043   6.607  0.3132  0.6101  0.3900
 5323SOL    HW116868   5.514   6.000   6.551  0.8785  0.4700  1.1923
 5323SOL    HW216869   5.375   5.974   6.632  0.9536  0.2772  1.2594
 5324SOL     OW16870   1.488   1.140   0.634  0.0172 -0.2122  0.3103
 5324SOL    HW116871   1.581   1.175   0.619  0.5617 -0.6133  2.4624
 5324SOL    HW216872   1.442   1.197   0.702 -0.6411 -1.1182  0.6339
 5325SOL     OW16873   2.316   1.438   4.731  0.6425  0.0404 -0.1558
 5325SOL    HW116874   2.381   1.512   4.740  1.3302 -0.6894  1.0706
 5325SOL    HW216875   2.347   1.374   4.661  0.4545  0.4819 -0.6465
 5326SOL     OW16876   6.709   5.915   0.075  0.8453 -0.5697  0.0791
 5326SOL    HW116877   6.773   5.881   0.005  0.2856 -0.9486 -0.2558
 5326SOL    HW216878   6.680   5.839   0.133  0.8925 -0.3535  0.3859
 5327SOL     OW16879   1.555   3.661   5.556 -0.5583 -0.1723  0.2671
 5327SOL    HW116880   1.604   3.628   5.475  1.2458  2.2486  0.2528
 5327SOL    HW216881   1.490   3.733   5.529 -0.1491  0.4518  0.8931
 5328SOL     OW16882   4.482   5.392   6.742 -0.2784 -0.3417 -0.2719
 5328SOL    HW116883   4.466   5.484   6.706  0.5136 -0.4405 -0.8852
 5328SOL    HW216884   4.530   5.337   6.674  0.1565 -0.9039  0.4752
 5329SOL     OW16885   3.579   4.813   6.051 -0.5560  0.2291 -0.0263
 5329SOL    HW116886   3.591   4.746   6.126 -1.9506  0.0437  0.0497
 5329SOL    HW216887   3.609   4.771   5.965 -1.0358 -0.3613  0.0839
 5330SOL     OW16888   2.209   5.316   0.470 -0.0746  0.0514  0.7391
 5330SOL    HW116889   2.182   5.223   0.496 -0.6118  0.3319  1.2076
 5330SOL    HW216890   2.296   5.339   0.514  0.9891 -0.8646 -0.7933
 5331SOL     OW16891   7.015   1.774   6.953  0.4142 -0.4394 -0.4580
 5331SOL    HW116892   7.072   1.759   7.034  0.4119 -0.9107 -0.5401
 5331SOL    HW216893   7.002   1.687   6.905 -0.7402 -0.4256 -0.1947
 5332SOL     OW16894   1.918   4.117   2.344  0.2126 -0.5840  0.1093
 5332SOL    HW116895   1.923   4.206   2.388  0.4625 -2.0133  3.2509
 5332SOL    HW216896   2.008   4.075   2.342 -0.4696 -2.4120  2.6193
 5333SOL     OW16897   6.892   5.896   4.352  0.2471  0.3829  0.0980
 5333SOL    HW116898   6.838   5.976   4.380 -0.5122 -0.3427  0.7794
 5333SOL    HW216899   6.987   5.923   4.337  0.4286  1.0877  2.1801
 5334SOL     OW16900   4.253   0.694   5.477 -0.2142  0.1559 -1.0799
 5334SOL    HW116901   4.169   0.701   5.531  0.8096 -0.2285  0.6544
 5334SOL    HW216902   4.234   0.717   5.382 -2.1595  0.6001 -0.6237
 5335SOL     OW16903   0.430   4.977   1.609  1.3413 -0.1311 -0.1403
 5335SOL    HW116904   0.360   4.949   1.543  1.9584 -1.0587 -0.4209
 5335SOL    HW216905   0.469   5.065   1.582  2.6108 -1.1574 -1.8792
 5336SOL     OW16906   0.044   3.579   2.334 -0.0735  0.1885  0.0135
 5336SOL    HW116907  -0.037   3.523   2.319 -0.9750  1.4983 -0.1526
 5336SOL    HW216908   0.020   3.676   2.325  1.2888  0.6467  0.9759
 5337SOL     OW16909   6.128   5.691   0.793  0.0867  0.2736 -0.3485
 5337SOL    HW116910   6.221   5.694   0.830  0.7782  2.7328 -2.0718
 5337SOL    HW216911   6.129   5.646   0.704 -0.7767 -1.4272  0.4458
 5338SOL     OW16912   5.813   2.181   2.389 -0.1997 -0.5158 -0.7082
 5338SOL    HW116913   5.906   2.161   2.357 -0.1331  0.0369 -0.8686
 5338SOL    HW216914   5.756   2.202   2.310 -1.0321 -3.0142 -0.8608
 5339SOL     OW16915   4.963   6.979   0.539  0.3611  0.3096 -0.2603
 5339SOL    HW116916   4.984   7.045   0.610  0.8040  0.4756 -0.5344
 5339SOL    HW216917   5.023   6.899   0.549 -0.1547 -0.0430  0.0555
 5340SOL     OW16918   5.311   1.989   1.430  0.0760  0.5405  0.2192
 5340SOL    HW116919   5.298   2.013   1.334 -3.7251 -1.4653  0.0404
 5340SOL    HW216920   5.264   2.055   1.488 -0.5863 -0.0985  0.4333
 5341SOL     OW16921   3.408   1.096   1.126  0.1310 -0.4551  0.3860
 5341SOL    HW116922   3.309   1.099   1.116  0.0235  0.4942  1.5325
 5341SOL    HW216923   3.432   1.035   1.202  0.5370 -1.9064 -0.8487
 5342SOL     OW16924   0.846   6.157   5.246 -0.3083 -0.5542  0.4209
 5342SOL    HW116925   0.915   6.229   5.237  0.4712 -1.3319 -0.0346
 5342SOL    HW216926   0.758   6.191   5.211  0.3962 -0.2925 -1.1912
 5343SOL     OW16927   3.831   4.907   1.071  0.0973  0.0480 -0.7843
 5343SOL    HW116928   3.750   4.923   1.014 -1.0802 -1.1734  0.4765
 5343SOL    HW216929   3.803   4.868   1.158  2.0634 -0.3268 -0.2790
 5344SOL     OW16930   3.001   2.218   3.894  0.0858  0.6542  0.3933
 5344SOL    HW116931   2.976   2.209   3.797 -0.1133 -1.4148  0.6057
 5344SOL    HW216932   3.090   2.175   3.910 -1.0165 -1.3528  1.5538
 5345SOL     OW16933   5.485   6.708   1.430 -0.2807  0.2434  0.3361
 5345SOL    HW116934   5.555   6.671   1.491 -1.3448  2.3225  2.9810
 5345SOL    HW216935   5.423   6.634   1.402  0.4857 -0.8463  1.4411
 5346SOL     OW16936   1.820   0.527   4.153  0.1435 -0.3906  0.4428
 5346SOL    HW116937   1.871   0.611   4.132  1.0138 -1.0015  0.0323
 5346SOL    HW216938   1.722   0.547   4.154  0.2962  0.4871 -0.3494
 5347SOL     OW16939   0.494   0.694   2.302  0.1125 -0.6476  0.0779
 5347SOL    HW116940   0.476   0.617   2.364 -0.0932 -0.9555 -0.3603
 5347SOL    HW216941   0.482   0.664   2.207  0.7001 -0.2548 -0.1285
 5348SOL     OW16942   6.793   1.026   6.996  0.0693 -0.1733  0.2030
 5348SOL    HW116943   6.891   1.013   7.005  0.2890 -0.0116 -1.5992
 5348SOL    HW216944   6.749   0.939   6.976 -0.0175 -0.0853  0.0050
 5349SOL     OW16945   5.014   5.957   0.983 -0.2669  0.8866 -0.1410
 5349SOL    HW116946   5.066   5.880   0.945 -1.0777 -0.0662  0.6373
 5349SOL    HW216947   4.984   5.935   1.076 -2.2249  1.3110 -0.6282
 5350SOL     OW16948   2.911   6.515   6.382  0.0342  0.6121 -0.3309
 5350SOL    HW116949   2.845   6.440   6.384  0.1556  0.5060 -0.3174
 5350SOL    HW216950   2.899   6.567   6.298  0.0790  0.4604 -0.4326
 5351SOL     OW16951   4.881   3.129   2.201  0.5696 -0.6297  0.5852
 5351SOL    HW116952   4.822   3.116   2.122  0.8528 -0.3414  0.3239
 5351SOL    HW216953   4.874   3.224   2.232  1.3791 -0.4248  0.1610
 5352SOL     OW16954   4.338   6.908   4.027 -0.5922 -0.5107 -0.2032
 5352SOL    HW116955   4.398   6.930   3.950 -0.5373  0.1040  0.0131
 5352SOL    HW216956   4.392   6.902   4.111 -0.6739 -1.0371 -0.1842
 5353SOL     OW16957   0.965   0.201   6.415 -0.3064 -0.4731 -0.1767
 5353SOL    HW116958   1.065   0.192   6.407  0.0230  2.0736 -0.0607
 5353SOL    HW216959   0.944   0.260   6.494 -2.0785 -2.9967  1.3639
 5354SOL     OW16960   1.014   1.117   2.041  0.1005 -0.2110  0.2350
 5354SOL    HW116961   1.069   1.034   2.050  1.0196  0.4338  0.7706
 5354SOL    HW216962   0.996   1.135   1.945 -1.2023 -1.7069  0.1526
 5355SOL     OW16963   5.275   0.459   4.836  0.3479 -0.2796 -0.0313
 5355SOL    HW116964   5.371   0.468   4.860 -0.1163  2.2798  1.1971
 5355SOL    HW216965   5.261   0.494   4.743  0.5757 -0.6457 -0.2076
 5356SOL     OW16966   6.564   3.447   2.258  0.1684  0.5328 -0.1196
 5356SOL    HW116967   6.478   3.497   2.248 -0.1872 -0.2095 -0.9649
 5356SOL    HW216968   6.577   3.420   2.354 -1.1944 -0.4373 -0.1749
 5357SOL     OW16969   3.247   5.510   0.518  0.2398  0.1215  0.1334
 5357SOL    HW116970   3.239   5.603   0.554  1.8055  1.2076 -2.0460
 5357SOL    HW216971   3.203   5.505   0.429  1.2272 -0.8598 -0.3263
 5358SOL     OW16972   6.002   3.734   2.711 -0.1519 -0.0491 -0.0863
 5358SOL    HW116973   5.946   3.651   2.709 -0.3945  0.1270 -0.9028
 5358SOL    HW216974   6.059   3.733   2.793 -0.6675 -0.6800  0.2774
 5359SOL     OW16975   1.609   2.160   0.085  0.6140 -0.9355 -0.0274
 5359SOL    HW116976   1.601   2.098   0.163  2.1199 -1.7268 -0.4774
 5359SOL    HW216977   1.525   2.155   0.031 -1.2458  0.9581  2.4125
 5360SOL     OW16978   4.526   2.053   6.451  0.1632 -0.1146  0.0141
 5360SOL    HW116979   4.505   2.123   6.382  1.1292  0.9947  0.8190
 5360SOL    HW216980   4.568   1.974   6.407 -0.8694 -0.1858 -0.8962
 5361SOL     OW16981   1.411   2.353   6.610 -0.1060 -0.2536  0.1810
 5361SOL    HW116982   1.358   2.431   6.576  0.3465 -0.0599 -0.0961
 5361SOL    HW216983   1.488   2.337   6.549 -1.6369 -2.5733 -1.2931
 5362SOL     OW16984   5.301   5.078   3.954  0.2729  0.1928 -0.4080
 5362SOL    HW116985   5.378   5.128   3.994 -0.1558 -0.8941  1.9118
 5362SOL    HW216986   5.335   5.011   3.889  0.9701  2.1827 -2.2285
 5363SOL     OW16987   0.441   6.122   3.552 -0.1350  0.5720 -0.2663
 5363SOL    HW116988   0.380   6.153   3.625 -0.5405 -2.1299  0.6729
 5363SOL    HW216989   0.527   6.090   3.592 -0.1683 -0.5005 -1.0059
 5364SOL     OW16990   1.681   6.101   0.429 -0.3023  0.6919 -0.5270
 5364SOL    HW116991   1.666   6.049   0.345  0.0915  0.0749 -0.2276
 5364SOL    HW216992   1.742   6.178   0.411  0.7043 -0.0950 -0.5915
 5365SOL     OW16993   5.578   3.313   5.853 -0.1284  0.2237 -0.5158
 5365SOL    HW116994   5.629   3.228   5.838 -0.2066  0.3639 -1.6869
 5365SOL    HW216995   5.582   3.338   5.949  2.5103  0.5574 -0.6487
 5366SOL     OW16996   4.600   3.328   5.588 -0.0895  0.0471 -0.5182
 5366SOL    HW116997   4.588   3.386   5.508  1.0270  2.3600  0.8976
 5366SOL    HW216998   4.527   3.347   5.654 -0.3899 -1.0575 -0.5092
 5367SOL     OW16999   0.560   4.808   2.473 -0.0616  0.3429  0.5962
 5367SOL    HW117000   0.553   4.889   2.531 -0.2863  0.3002  0.6302
 5367SOL    HW217001   0.554   4.836   2.377  1.9154  0.5998  0.5047
 5368SOL     OW17002   1.238   0.207   4.784  0.0514 -0.7134 -0.0566
 5368SOL    HW117003   1.197   0.273   4.847  0.1383  0.7169 -1.4316
 5368SOL    HW217004   1.223   0.237   4.689  1.0173 -2.1298 -0.6992
 5369SOL     OW17005   0.969   1.984   2.229  0.1029 -0.2586  0.5733
 5369SOL    HW117006   0.923   1.904   2.191  0.5904 -0.3489  0.1627
 5369SOL    HW217007   0.942   1.997   2.324 -0.9739 -0.1554  0.2621
 5370SOL     OW17008   2.023   3.489   1.814 -0.1762  0.6005  0.0839
 5370SOL    HW117009   2.098   3.482   1.880 -1.3420 -0.6316  1.3321
 5370SOL    HW217010   1.936   3.469   1.859 -1.1702  1.0190 -1.5528
 5371SOL     OW17011   2.466   4.441   4.044  0.4148  0.0911  0.3290
 5371SOL    HW117012   2.435   4.349   4.070  3.2717 -0.9401  0.4755
 5371SOL    HW217013   2.534   4.473   4.110 -1.5890  3.0263  1.1198
 5372SOL     OW17014   2.662   6.002   4.275 -0.6724  0.0103  0.7483
 5372SOL    HW117015   2.568   6.037   4.269 -0.5621  0.4655  1.4824
 5372SOL    HW217016   2.726   6.074   4.250 -0.4750  0.1217  1.5332
 5373SOL     OW17017   3.516   4.921   3.329  0.0162 -0.0338  0.4030
 5373SOL    HW117018   3.483   4.856   3.261 -0.1753 -0.6473  1.0738
 5373SOL    HW217019   3.469   5.009   3.318  0.9500  0.3110 -1.1095
 5374SOL     OW17020   2.924   2.543   1.229 -0.4093 -0.0368 -0.1414
 5374SOL    HW117021   2.971   2.562   1.143  1.9937  1.8616  1.4670
 5374SOL    HW217022   2.985   2.562   1.305 -3.0371  0.1164  2.0681
 5375SOL     OW17023   1.908   2.836   2.638 -0.1989 -0.2143 -0.1184
 5375SOL    HW117024   1.831   2.832   2.574  0.4132 -0.3374 -0.8695
 5375SOL    HW217025   1.875   2.863   2.728 -1.5258 -2.7647  0.2530
 5376SOL     OW17026   2.609   4.815   6.370  0.2897  0.3442 -0.2030
 5376SOL    HW117027   2.580   4.910   6.370 -0.7330  0.0477  0.3548
 5376SOL    HW217028   2.648   4.791   6.459 -1.4320 -0.3151  0.4034
 5377SOL     OW17029   1.568   3.763   0.244 -0.4047  0.2008 -0.2106
 5377SOL    HW117030   1.548   3.665   0.246  1.3370 -0.1910  1.0228
 5377SOL    HW217031   1.502   3.812   0.302 -0.1029 -0.5429  0.8039
 5378SOL     OW17032   6.126   6.069   0.242  0.3966 -0.0768  0.4721
 5378SOL    HW117033   6.179   6.047   0.160  0.9587 -1.6349  1.2135
 5378SOL    HW217034   6.049   6.128   0.217  1.5507  0.9157 -0.8809
 5379SOL     OW17035   5.277   0.911   1.441 -0.0093 -0.1959  0.1023
 5379SOL    HW117036   5.192   0.923   1.492 -0.7320 -0.2620 -1.0440
 5379SOL    HW217037   5.297   0.994   1.389 -0.2386 -0.7178 -0.8606
 5380SOL     OW17038   2.846   1.631   6.585 -0.2626 -0.4655  0.4011
 5380SOL    HW117039   2.909   1.688   6.531 -0.3127 -1.3821 -0.6702
 5380SOL    HW217040   2.898   1.583   6.656  0.1901 -0.8747 -0.1934
 5381SOL     OW17041   5.778   3.327   2.109  0.0677 -0.2543 -0.5175
 5381SOL    HW117042   5.729   3.387   2.173  0.2469 -1.4578  0.8010
 5381SOL    HW217043   5.867   3.366   2.087  1.2288 -1.0770  2.2424
 5382SOL     OW17044   4.840   0.709   1.437  0.5217 -0.6740 -0.0751
 5382SOL    HW117045   4.920   0.676   1.487  0.2936 -0.0084  0.7402
 5382SOL    HW217046   4.846   0.808   1.424  1.4527 -1.0109 -2.9517
 5383SOL     OW17047   2.840   1.605   5.029  0.0956  0.0916  0.0168
 5383SOL    HW117048   2.880   1.660   4.956 -1.5114 -0.5288 -1.4200
 5383SOL    HW217049   2.898   1.525   5.047  0.8655  0.6243 -0.0767
 5384SOL     OW17050   5.227   6.832   3.493 -0.0220 -0.1422 -0.0217
 5384SOL    HW117051   5.204   6.877   3.407  1.2062 -0.2020 -0.4013
 5384SOL    HW217052   5.166   6.753   3.507 -3.0712  2.2151  1.2584
 5385SOL     OW17053   2.239   3.547   0.445 -0.3442  0.3175  0.0421
 5385SOL    HW117054   2.208   3.530   0.539  1.4945  0.0184  0.6238
 5385SOL    HW217055   2.239   3.461   0.394 -0.2447  0.2811  0.1043
 5386SOL     OW17056   5.225   6.496   5.570  0.1243 -0.3207 -0.5274
 5386SOL    HW117057   5.173   6.457   5.646 -0.5260 -0.8281 -1.2104
 5386SOL    HW217058   5.161   6.531   5.501  0.6996  0.3062 -0.7580
 5387SOL     OW17059   2.807   5.267   6.465  0.0386 -0.4693 -0.4812
 5387SOL    HW117060   2.825   5.205   6.388 -2.4080 -0.6378 -0.9933
 5387SOL    HW217061   2.799   5.213   6.549 -2.1196 -0.9564 -0.9315
 5388SOL     OW17062   0.427   0.607   3.960 -0.1986 -0.0150 -0.5616
 5388SOL    HW117063   0.393   0.701   3.962 -2.3857 -0.7622  0.2839
 5388SOL    HW217064   0.432   0.576   3.865 -1.8470  0.1918 -0.7486
 5389SOL     OW17065   5.893   3.127   1.603  0.2232  0.5843 -0.3332
 5389SOL    HW117066   5.988   3.113   1.573  0.7924 -1.2808  1.9465
 5389SOL    HW217067   5.869   3.223   1.596  2.7989  1.3465  0.2410
 5390SOL     OW17068   6.535   2.946   1.072  0.0198  0.4017 -0.1343
 5390SOL    HW117069   6.609   2.879   1.069  0.6302  1.0885 -0.5832
 5390SOL    HW217070   6.570   3.037   1.048 -0.3128  1.3315  2.4585
 5391SOL     OW17071   3.847   6.287   1.110 -0.2419 -0.0653  0.2059
 5391SOL    HW117072   3.817   6.262   1.018 -0.1701  0.1502  0.1218
 5391SOL    HW217073   3.861   6.386   1.114 -0.9269  0.0222  0.6505
 5392SOL     OW17074   0.368   3.856   2.186  0.1325 -0.7014  0.7452
 5392SOL    HW117075   0.467   3.849   2.199  0.6261  0.1177 -1.8197
 5392SOL    HW217076   0.336   3.945   2.220  0.5384 -0.4129  0.3862
 5393SOL     OW17077   6.609   6.445   5.802  0.3208  0.1182 -0.2316
 5393SOL    HW117078   6.595   6.532   5.754 -0.5103  0.2779  0.2855
 5393SOL    HW217079   6.555   6.373   5.758 -2.1917  0.6987  1.6604
 5394SOL     OW17080   1.860   3.107   6.892  0.0639 -0.1421 -0.7788
 5394SOL    HW117081   1.801   3.075   6.967  0.5919 -1.3388 -0.8459
 5394SOL    HW217082   1.953   3.119   6.926  0.1224  0.1715 -1.0443
 5395SOL     OW17083   4.781   1.025   2.724 -0.3019 -0.1429 -0.2866
 5395SOL    HW117084   4.735   0.938   2.709 -0.4088 -0.1787  0.2329
 5395SOL    HW217085   4.751   1.092   2.656  0.0975 -0.6321 -0.9516
 5396SOL     OW17086   5.180   2.581   0.059 -0.0797 -0.0534  0.0506
 5396SOL    HW117087   5.245   2.510   0.031  1.9442  1.4398  0.7402
 5396SOL    HW217088   5.184   2.657  -0.006 -1.7671 -0.2501 -0.3348
 5397SOL     OW17089   2.475   0.940   0.811  0.5638 -0.6825 -0.1132
 5397SOL    HW117090   2.556   0.973   0.861  1.0118  1.2079 -1.9628
 5397SOL    HW217091   2.504   0.901   0.723 -0.5010 -0.6281 -0.4963
 5398SOL     OW17092   3.007   3.825   3.089 -0.2205  0.2118 -0.1054
 5398SOL    HW117093   2.996   3.818   3.188 -0.2880 -0.0328 -0.1312
 5398SOL    HW217094   3.092   3.874   3.069 -0.0379 -0.0344  0.0697
 5399SOL     OW17095   0.269   3.055   0.383  0.6374  0.0019 -0.0372
 5399SOL    HW117096   0.307   3.092   0.298 -0.3050  1.1994  0.0277
 5399SOL    HW217097   0.210   3.124   0.425 -0.7591 -1.4014  0.4025
 5400SOL     OW17098   2.571   3.382   0.082  0.0004 -0.6257  0.2726
 5400SOL    HW117099   2.542   3.363  -0.012  0.4549  0.0837 -0.0232
 5400SOL    HW217100   2.521   3.323   0.145 -0.9639 -0.4950 -0.3421
 5401SOL     OW17101   6.519   1.655   0.716  0.2179 -0.1034 -0.1371
 5401SOL    HW117102   6.525   1.628   0.812  0.3246 -2.5671 -0.7677
 5401SOL    HW217103   6.425   1.640   0.683  0.6552 -1.3267 -0.9164
 5402SOL     OW17104   0.422   5.826   3.515 -0.6018 -0.2325 -0.3332
 5402SOL    HW117105   0.478   5.882   3.455 -0.5494 -0.5629 -0.5903
 5402SOL    HW217106   0.348   5.882   3.554 -0.3215  0.1068 -0.2880
 5403SOL     OW17107   6.960   2.861   6.914 -0.0573  0.4708  0.0965
 5403SOL    HW117108   6.897   2.936   6.932 -0.8522 -0.5471  1.7733
 5403SOL    HW217109   6.963   2.844   6.815 -1.7488  1.1271 -0.1101
 5404SOL     OW17110   6.017   1.976   1.752  0.0849 -0.0983  0.0883
 5404SOL    HW117111   6.094   1.928   1.793  0.6178 -0.8840 -1.7324
 5404SOL    HW217112   6.038   1.998   1.656 -2.0350 -0.5622 -0.5317
 5405SOL     OW17113   6.981   3.878   3.455  0.4719  0.3634  0.1787
 5405SOL    HW117114   7.078   3.871   3.480  0.6917  1.4884 -0.3146
 5405SOL    HW217115   6.969   3.846   3.361  0.5237  1.0536 -0.0698
 5406SOL     OW17116   2.954   0.374   2.763  0.4361  0.2248  0.2281
 5406SOL    HW117117   3.012   0.455   2.749  0.1456  0.1296 -1.9358
 5406SOL    HW217118   2.970   0.309   2.689  0.6309 -1.7269  1.9123
 5407SOL     OW17119   3.971   3.286   0.652 -0.2323 -0.2261  0.2891
 5407SOL    HW117120   3.982   3.265   0.749 -0.1835 -2.8208 -0.1963
 5407SOL    HW217121   4.052   3.334   0.619 -1.3070  3.0816  1.9948
 5408SOL     OW17122   5.024   0.411   0.425  0.1020 -0.4935 -0.0108
 5408SOL    HW117123   5.053   0.441   0.515  1.4598 -0.6115 -0.3824
 5408SOL    HW217124   4.941   0.460   0.397 -0.0240 -0.0829  1.0651
 5409SOL     OW17125   4.247   1.127   1.074 -0.0781  0.1563  0.2083
 5409SOL    HW117126   4.151   1.143   1.098 -0.0079  0.5922  0.2042
 5409SOL    HW217127   4.278   1.198   1.011  0.4400  0.4073  0.7363
 5410SOL     OW17128   0.881   2.660   3.086  0.8010 -0.5222 -0.1071
 5410SOL    HW117129   0.944   2.722   3.038  0.0571 -0.8296 -1.5236
 5410SOL    HW217130   0.838   2.709   3.162  1.4677  0.1900 -0.1724
 5411SOL     OW17131   2.971   3.981   5.508  0.0387  0.1088  0.1107
 5411SOL    HW117132   3.055   3.998   5.457  0.3148 -1.1159  0.1133
 5411SOL    HW217133   2.911   3.920   5.456 -0.8052  0.8893  0.1547
 5412SOL     OW17134   1.247   6.807   2.299 -0.7141  0.0902 -1.0044
 5412SOL    HW117135   1.346   6.792   2.298 -0.3272  2.1411 -0.2478
 5412SOL    HW217136   1.205   6.752   2.371 -0.1257 -0.7433 -1.2896
 5413SOL     OW17137   2.436   6.877   4.497 -0.2235 -0.1688  0.3436
 5413SOL    HW117138   2.520   6.919   4.531  0.0415  0.1268 -0.6179
 5413SOL    HW217139   2.459   6.809   4.427 -0.7936  0.3507 -0.3707
 5414SOL     OW17140   4.267   0.140   5.271  0.6201  0.5975  0.3817
 5414SOL    HW117141   4.211   0.125   5.189 -0.1694  2.6378  0.5053
 5414SOL    HW217142   4.344   0.076   5.270  0.4195  0.3069 -1.7662
 5415SOL     OW17143   4.563   5.196   4.362 -0.0647  0.1216  0.6497
 5415SOL    HW117144   4.468   5.218   4.341 -0.3105 -0.1949  1.3841
 5415SOL    HW217145   4.565   5.122   4.429  0.6983  0.4861  1.0318
 5416SOL     OW17146   4.994   4.188   4.463 -0.0338  0.3623  0.1210
 5416SOL    HW117147   5.046   4.253   4.518  1.7873  0.9758 -2.1444
 5416SOL    HW217148   5.014   4.095   4.493 -1.1767  0.7174  2.1551
 5417SOL     OW17149   2.150   6.553   5.807 -0.1355  0.1226 -0.0824
 5417SOL    HW117150   2.194   6.473   5.766 -0.2543  0.1515 -0.2683
 5417SOL    HW217151   2.120   6.615   5.735 -0.0237  0.3471  0.0614
 5418SOL     OW17152   2.050   2.757   4.470  0.4023 -0.2977  0.9260
 5418SOL    HW117153   2.023   2.665   4.441  0.7704  0.2442 -1.3503
 5418SOL    HW217154   2.142   2.753   4.510  0.7163 -0.8262  0.1791
 5419SOL     OW17155   2.454   2.569   0.679  0.2891  0.4549  0.2583
 5419SOL    HW117156   2.463   2.668   0.687 -1.1365  0.8650 -2.1206
 5419SOL    HW217157   2.544   2.526   0.694  1.2146  2.2152 -0.0067
 5420SOL     OW17158   0.986   2.768   1.293 -0.4240  0.7367 -0.1544
 5420SOL    HW117159   1.075   2.745   1.254  0.2292  1.5678  0.8219
 5420SOL    HW217160   0.921   2.785   1.219 -0.6196 -2.7292 -0.9904
 5421SOL     OW17161   1.641   3.125   1.322 -0.7621 -0.4649  0.5524
 5421SOL    HW117162   1.726   3.170   1.293 -0.6543 -1.1113 -0.1400
 5421SOL    HW217163   1.650   3.026   1.312 -2.1207 -0.4748 -0.9808
 5422SOL     OW17164   6.518   3.144   6.998  0.2585 -0.2707  0.2075
 5422SOL    HW117165   6.459   3.064   6.993  2.2886 -1.9452  1.5347
 5422SOL    HW217166   6.558   3.151   7.090 -0.6426  2.9058  0.4870
 5423SOL     OW17167   3.112   4.290   5.587 -0.1023  0.0944 -0.0828
 5423SOL    HW117168   3.099   4.209   5.530  0.0943  0.9573 -1.4010
 5423SOL    HW217169   3.084   4.372   5.537  3.1745  1.2509 -0.2582
 5424SOL     OW17170   6.041   3.776   4.700 -0.1031  0.2277  0.3358
 5424SOL    HW117171   6.135   3.778   4.734  0.2997  0.4408 -0.7297
 5424SOL    HW217172   5.978   3.759   4.775  0.6861  1.2746  1.2606
 5425SOL     OW17173   4.558   0.770   3.749  0.3326  0.0265  0.0249
 5425SOL    HW117174   4.571   0.720   3.664 -0.1085  1.3386 -0.8509
 5425SOL    HW217175   4.462   0.795   3.759 -0.0116 -1.7705  1.9104
 5426SOL     OW17176   6.798   2.628   6.555 -0.2034  0.1213  0.5311
 5426SOL    HW117177   6.708   2.610   6.516  0.5852  0.8566 -1.8034
 5426SOL    HW217178   6.839   2.707   6.509  2.0896 -0.8630  0.7338
 5427SOL     OW17179   5.904   6.131   5.733  0.0221 -0.0392  0.5290
 5427SOL    HW117180   5.903   6.066   5.656  2.4062 -1.2340  1.4088
 5427SOL    HW217181   5.846   6.096   5.806 -0.1769 -0.2266  0.2845
 5428SOL     OW17182   2.268   5.199   0.856 -0.6531 -0.3026  0.3850
 5428SOL    HW117183   2.231   5.181   0.764  1.6163  0.8232 -0.8271
 5428SOL    HW217184   2.241   5.291   0.885  0.0432  0.0106  0.0679
 5429SOL     OW17185   1.949   3.589   6.385 -0.0129 -0.0737  0.1847
 5429SOL    HW117186   1.982   3.538   6.306  0.3456 -0.7488  0.7680
 5429SOL    HW217187   1.850   3.575   6.396 -0.0941  0.1587 -0.2394
 5430SOL     OW17188   2.634   0.960   4.377 -0.0667 -0.0041  0.3672
 5430SOL    HW117189   2.681   0.983   4.462  0.1850  2.7398 -0.4289
 5430SOL    HW217190   2.535   0.966   4.392 -0.0296  0.2368  0.5246
 5431SOL     OW17191   4.084   5.831   2.508  0.3103  0.1239  0.3509
 5431SOL    HW117192   4.165   5.790   2.550 -0.3331 -1.2179  0.3271
 5431SOL    HW217193   4.086   5.817   2.409  1.0823  1.9637  0.0817
 5432SOL     OW17194   3.324   3.639   5.497 -0.3600  0.2208  0.5098
 5432SOL    HW117195   3.275   3.631   5.410  1.8328 -0.8250 -0.7155
 5432SOL    HW217196   3.341   3.547   5.533  2.5258  0.3499 -0.2660
 5433SOL     OW17197   1.730   1.827   3.613  0.4036 -0.2905 -0.3570
 5433SOL    HW117198   1.796   1.752   3.612  0.7099 -0.1125  1.4634
 5433SOL    HW217199   1.688   1.836   3.523  2.5056 -0.7105 -1.4473
 5434SOL     OW17200   2.303   6.052   5.424  0.5613  0.2219 -0.2060
 5434SOL    HW117201   2.226   6.113   5.405  0.9656  0.7841 -0.0697
 5434SOL    HW217202   2.291   6.010   5.514  0.1587 -0.0943 -0.4044
 5435SOL     OW17203   4.478   1.021   2.620 -0.1200 -0.2313  0.5681
 5435SOL    HW117204   4.563   1.061   2.587  0.1072 -0.3239  1.0205
 5435SOL    HW217205   4.423   1.092   2.664 -1.6841  0.5188 -2.3450
 5436SOL     OW17206   4.100   6.271   3.456  0.3543  0.2728 -0.3177
 5436SOL    HW117207   4.111   6.173   3.441 -0.0736  0.2373 -0.3962
 5436SOL    HW217208   4.186   6.318   3.434  0.6703 -0.1226  0.0736
 5437SOL     OW17209   2.333   4.784   5.464  0.1439 -0.1068 -0.0041
 5437SOL    HW117210   2.235   4.772   5.451  0.0240  0.1740  0.5741
 5437SOL    HW217211   2.382   4.701   5.437 -0.4763 -1.2261  2.1371
 5438SOL     OW17212   5.794   1.502   6.615 -0.0831 -0.1018  0.1931
 5438SOL    HW117213   5.785   1.418   6.563  1.2369  0.8327 -1.6528
 5438SOL    HW217214   5.704   1.530   6.648 -1.0963 -0.4761 -2.0593
 5439SOL     OW17215   0.775   2.750   0.646 -0.4174  0.0411 -0.6152
 5439SOL    HW117216   0.831   2.723   0.725  0.0586 -0.7634 -1.2100
 5439SOL    HW217217   0.750   2.846   0.654  1.3531  0.5197 -0.4919
 5440SOL     OW17218   2.761   0.034   1.510 -0.0027 -0.1301 -0.2857
 5440SOL    HW117219   2.825   0.088   1.565  1.1498 -0.6159 -1.1072
 5440SOL    HW217220   2.744   0.081   1.423 -3.4072  1.6780  1.1366
 5441SOL     OW17221   4.194   3.436   6.292 -0.4413  0.8626  0.1111
 5441SOL    HW117222   4.102   3.426   6.254 -0.4760  0.3607  0.3167
 5441SOL    HW217223   4.191   3.499   6.370 -0.9022 -0.3429  1.0957
 5442SOL     OW17224   3.813   2.605   1.212  0.0083 -0.1717  0.1703
 5442SOL    HW117225   3.768   2.523   1.176 -0.7039 -0.0966  0.8848
 5442SOL    HW217226   3.789   2.684   1.156  0.1348 -0.3248 -0.1016
 5443SOL     OW17227   0.656   4.703   5.869 -0.3566 -0.2725 -0.0924
 5443SOL    HW117228   0.649   4.778   5.803 -1.8351 -0.4270 -0.1358
 5443SOL    HW217229   0.641   4.616   5.823 -0.3114 -0.4683  0.2560
 5444SOL     OW17230   0.340   2.484   1.608 -0.1560  0.4638 -0.2922
 5444SOL    HW117231   0.366   2.507   1.515  1.2637  2.9711  0.6290
 5444SOL    HW217232   0.334   2.384   1.618  1.1840  0.0966 -2.6313
 5445SOL     OW17233   0.104   1.774   6.522 -0.3484 -0.0938  0.3247
 5445SOL    HW117234   0.192   1.754   6.480 -0.2103  0.9157  0.1101
 5445SOL    HW217235   0.047   1.691   6.522  0.2370 -0.5056 -0.4018
 5446SOL     OW17236   6.043   0.121   6.426  0.6417  0.0170 -0.0512
 5446SOL    HW117237   6.125   0.076   6.462  0.1531 -0.8142  0.0625
 5446SOL    HW217238   6.055   0.220   6.430  0.7461 -0.0315  2.1075
 5447SOL     OW17239   2.913   2.968   0.309 -0.3313 -0.4716 -0.4145
 5447SOL    HW117240   2.839   3.020   0.353  0.0610  0.4654 -0.8426
 5447SOL    HW217241   2.881   2.933   0.221 -0.4816 -0.6595 -0.2871
 5448SOL     OW17242   5.206   1.756   6.388  0.3852  0.5541 -0.1896
 5448SOL    HW117243   5.181   1.708   6.305  2.7059  0.4886 -0.9400
 5448SOL    HW217244   5.176   1.851   6.382 -1.8700 -0.0834  0.1437
 5449SOL     OW17245   6.699   3.510   6.077 -0.1944  0.3158 -0.3789
 5449SOL    HW117246   6.797   3.519   6.060 -0.3736  0.7290 -1.2077
 5449SOL    HW217247   6.681   3.527   6.174  0.6703 -0.7566 -0.0062
 5450SOL     OW17248   1.576   6.242   1.345 -0.4981 -0.2571  0.0368
 5450SOL    HW117249   1.600   6.194   1.260 -2.5274 -0.4831 -0.4602
 5450SOL    HW217250   1.513   6.317   1.325  1.0277  1.3888  1.0654
 5451SOL     OW17251   3.473   1.195   1.598 -0.3007  0.1188  0.0068
 5451SOL    HW117252   3.444   1.270   1.539 -0.0077  0.7450  0.6449
 5451SOL    HW217253   3.414   1.115   1.583  1.4468 -0.7582 -3.2205
 5452SOL     OW17254   3.571   2.351   5.353 -0.2420  0.5726 -0.4855
 5452SOL    HW117255   3.667   2.328   5.346 -0.1045  0.5744  1.0491
 5452SOL    HW217256   3.556   2.443   5.317  0.3903  0.6923 -0.4478
 5453SOL     OW17257   0.084   5.575   4.776  0.4244  0.2294  0.0904
 5453SOL    HW117258   0.153   5.560   4.706  0.1931  0.3860 -0.1763
 5453SOL    HW217259   0.055   5.671   4.774  0.5178  0.2681  0.4953
 5454SOL     OW17260   0.745   2.261   4.602  0.1726  0.7913 -0.3793
 5454SOL    HW117261   0.684   2.253   4.681  2.0114 -1.9479  0.9194
 5454SOL    HW217262   0.813   2.332   4.619  0.5892  0.1870  0.5472
 5455SOL     OW17263   5.142   0.639   1.063  0.1617  0.3372 -0.1130
 5455SOL    HW117264   5.217   0.589   1.018 -1.3995 -1.2897 -1.0487
 5455SOL    HW217265   5.180   0.711   1.121  2.3946  0.5036 -1.6420
 5456SOL     OW17266   3.604   6.943   0.312 -0.5067  0.0981 -0.2253
 5456SOL    HW117267   3.642   6.961   0.403 -1.1773 -0.4352  0.1774
 5456SOL    HW217268   3.592   6.844   0.301 -0.6048  0.1766 -0.8225
 5457SOL     OW17269   6.577   2.426   1.222 -0.8326  0.3493 -0.2941
 5457SOL    HW117270   6.615   2.334   1.211 -1.4457 -0.1021  1.0703
 5457SOL    HW217271   6.647   2.494   1.202  0.1553 -0.4371  0.4182
 5458SOL     OW17272   1.361   4.697   5.473 -1.0029  0.2259 -0.5652
 5458SOL    HW117273   1.299   4.664   5.545 -0.7379  0.5394 -0.1834
 5458SOL    HW217274   1.397   4.619   5.422  1.0419 -0.3214  1.4910
 5459SOL     OW17275   0.651   4.909   0.024 -0.7802 -0.0876 -0.1353
 5459SOL    HW117276   0.581   4.840   0.043 -0.6212 -0.1449  0.2542
 5459SOL    HW217277   0.709   4.877  -0.051 -1.2849  0.0457 -0.5948
 5460SOL     OW17278   3.025   6.723   5.379 -0.2253 -0.1067 -0.3029
 5460SOL    HW117279   3.019   6.702   5.281  2.1055 -0.8081 -0.3765
 5460SOL    HW217280   3.080   6.805   5.392 -2.7253  1.5470  0.3609
 5461SOL     OW17281   3.282   6.019   4.434 -0.2039 -0.8134  0.0198
 5461SOL    HW117282   3.288   6.091   4.503  0.5096  0.9932 -1.8142
 5461SOL    HW217283   3.199   5.966   4.449  0.1411 -0.7907  2.4898
 5462SOL     OW17284   0.264   1.968   2.301 -0.6118 -0.0198  0.4584
 5462SOL    HW117285   0.228   2.061   2.300  0.5704  0.5006  2.0274
 5462SOL    HW217286   0.203   1.910   2.357  0.6094  0.7560  2.7313
 5463SOL     OW17287   6.012   3.960   0.948  0.4620  0.5113 -0.5062
 5463SOL    HW117288   6.036   3.963   0.851  1.4461  1.4457 -0.2581
 5463SOL    HW217289   6.064   4.030   0.997  0.3428 -0.2712  0.7798
 5464SOL     OW17290   1.412   6.286   5.146  0.0574 -0.2353  0.1367
 5464SOL    HW117291   1.459   6.372   5.166  0.8471  0.1419 -2.9108
 5464SOL    HW217292   1.478   6.211   5.145 -0.5368 -0.8619  2.1775
 5465SOL     OW17293   1.664   0.087   5.796  0.2046 -0.1479  0.4957
 5465SOL    HW117294   1.691   0.158   5.862 -1.6512  0.3076  0.8203
 5465SOL    HW217295   1.594   0.029   5.837 -0.4431 -0.3167 -0.8156
 5466SOL     OW17296   6.257   6.256   5.234  0.7209  0.0809 -0.4907
 5466SOL    HW117297   6.332   6.275   5.171  0.5836 -1.8102 -1.2632
 5466SOL    HW217298   6.186   6.204   5.187 -0.6578  0.9965  0.5015
 5467SOL     OW17299   6.257   2.750   3.961  0.1581 -0.0289  0.6874
 5467SOL    HW117300   6.232   2.837   3.919 -1.8128 -0.1913  1.4145
 5467SOL    HW217301   6.272   2.681   3.890  0.4159  0.5606  0.1627
 5468SOL     OW17302   2.220   0.346   6.143  0.0195  0.0691 -0.4080
 5468SOL    HW117303   2.162   0.407   6.198  0.2020  0.3344 -0.5100
 5468SOL    HW217304   2.266   0.281   6.204  0.7147  0.7738 -0.1764
 5469SOL     OW17305   3.210   5.110   0.927 -0.3721  0.0501  0.0288
 5469SOL    HW117306   3.306   5.103   0.900 -1.1257 -3.2950 -2.4563
 5469SOL    HW217307   3.182   5.026   0.973 -2.0364  1.1497  1.1403
 5470SOL     OW17308   5.218   4.614   2.907 -0.0041 -0.6918  0.3283
 5470SOL    HW117309   5.315   4.590   2.897 -0.2857 -1.6264 -0.2917
 5470SOL    HW217310   5.171   4.541   2.957 -0.6505 -0.8939 -0.5492
 5471SOL     OW17311   1.187   2.701   2.030 -0.2305 -0.2751  0.0424
 5471SOL    HW117312   1.114   2.684   2.097  2.2673 -0.7096  2.8568
 5471SOL    HW217313   1.190   2.625   1.965 -1.5801 -0.7677  0.5172
 5472SOL     OW17314   3.432   5.126   6.874 -0.5914  0.2391 -0.0022
 5472SOL    HW117315   3.525   5.093   6.857 -0.7086 -0.4323  0.5907
 5472SOL    HW217316   3.429   5.225   6.860  0.1417  0.2282 -0.3104
 5473SOL     OW17317   0.833   5.724   5.886  0.0313 -0.4255 -0.1309
 5473SOL    HW117318   0.753   5.772   5.921 -0.3410  0.1085 -1.6636
 5473SOL    HW217319   0.901   5.790   5.854  1.0266 -0.8739  0.9682
 5474SOL     OW17320   0.201   6.762   4.213 -0.6229  0.1765 -0.1500
 5474SOL    HW117321   0.138   6.721   4.146 -0.1224 -1.1385  0.1685
 5474SOL    HW217322   0.148   6.815   4.280 -1.2177  0.6370 -0.9580
 5475SOL     OW17323   3.671   1.189   2.249  0.7374 -0.0538 -0.3623
 5475SOL    HW117324   3.573   1.202   2.262  0.9385  1.3080 -0.0649
 5475SOL    HW217325   3.710   1.271   2.206  1.8334 -0.3506  0.0430
 5476SOL     OW17326   2.916   2.394   6.733  1.2542  0.4930 -0.3069
 5476SOL    HW117327   3.004   2.407   6.778  0.4492 -0.3149  1.5984
 5476SOL    HW217328   2.847   2.452   6.778  0.8861  1.5727 -2.1499
 5477SOL     OW17329   1.654   1.958   2.125 -0.5929 -0.8569 -0.7601
 5477SOL    HW117330   1.691   1.867   2.106  2.3551 -0.0791  0.6537
 5477SOL    HW217331   1.645   1.971   2.224  2.2634  1.4205 -0.6649
 5478SOL     OW17332   1.799   5.993   5.315  1.0253 -0.4228 -0.1683
 5478SOL    HW117333   1.813   6.081   5.270 -1.1226  0.5770  0.9849
 5478SOL    HW217334   1.823   6.000   5.412  0.3358 -0.9339  0.0499
 5479SOL     OW17335   4.669   5.908   6.000  0.2000  0.4234 -0.3012
 5479SOL    HW117336   4.662   5.869   6.091 -0.8201 -0.1956 -0.6276
 5479SOL    HW217337   4.751   5.872   5.954  0.2645  0.0996  0.0699
 5480SOL     OW17338   0.209   2.919   5.961  0.5749  0.6575 -0.3414
 5480SOL    HW117339   0.197   2.861   6.041 -0.8855 -0.0593 -1.0329
 5480SOL    HW217340   0.248   2.865   5.886  2.4395  1.4498 -0.0019
 5481SOL     OW17341   3.727   6.148   4.314  0.4874  0.1187  0.0928
 5481SOL    HW117342   3.660   6.090   4.361 -0.0003  1.2220  0.8031
 5481SOL    HW217343   3.681   6.228   4.277  1.5724  1.5688  1.7269
 5482SOL     OW17344   3.395   7.013   1.076 -0.1905 -0.1145 -0.3540
 5482SOL    HW117345   3.474   7.036   1.020  0.1937 -1.0516 -0.2068
 5482SOL    HW217346   3.395   7.070   1.159 -0.5388  0.9852 -1.0838
 5483SOL     OW17347   1.517   3.869   4.475 -0.3350 -0.1696  0.4365
 5483SOL    HW117348   1.433   3.906   4.516 -0.9915  0.8018 -1.6414
 5483SOL    HW217349   1.576   3.945   4.448 -0.8856 -0.6169 -2.2559
 5484SOL     OW17350   4.364   5.253   4.011  1.1098  0.1458 -1.2601
 5484SOL    HW117351   4.340   5.259   4.108  2.3468  3.1816 -1.0385
 5484SOL    HW217352   4.459   5.223   4.003  2.6389  4.2488 -1.0917
 5485SOL     OW17353   4.198   1.125   5.027 -0.1862 -0.3185  0.5989
 5485SOL    HW117354   4.164   1.214   5.058  1.2995  0.8171 -0.8453
 5485SOL    HW217355   4.155   1.101   4.940 -1.1483 -1.4214  1.3459
 5486SOL     OW17356   2.386   5.408   4.049  0.0609 -0.0725  0.4565
 5486SOL    HW117357   2.343   5.333   4.000  1.3664 -0.2596 -0.4521
 5486SOL    HW217358   2.382   5.391   4.147 -1.2082 -0.4549  0.3489
 5487SOL     OW17359   3.541   6.592   4.620  0.0502  0.5279 -0.4558
 5487SOL    HW117360   3.601   6.668   4.642  1.0554 -0.2216 -0.5397
 5487SOL    HW217361   3.447   6.624   4.615  0.3639  1.6160  0.2671
 5488SOL     OW17362   4.407   1.961   5.029 -0.1559 -0.3186 -0.2381
 5488SOL    HW117363   4.426   2.050   4.989  2.0603 -0.1660  0.9663
 5488SOL    HW217364   4.314   1.932   5.005 -0.2092  1.3634 -2.3291
 5489SOL     OW17365   6.995   4.141   5.846  0.3761  0.3661  0.6350
 5489SOL    HW117366   7.037   4.112   5.932 -0.8813 -0.6816  0.9407
 5489SOL    HW217367   6.896   4.126   5.851  0.4297 -1.1930 -1.5130
 5490SOL     OW17368   6.815   5.657   1.763  0.4021  0.2424  0.0195
 5490SOL    HW117369   6.830   5.558   1.764  0.6437  0.2766 -0.1044
 5490SOL    HW217370   6.721   5.676   1.735  0.4148  0.0522 -0.1595
 5491SOL     OW17371   0.165   4.153   0.525  0.3982  0.2063 -0.0903
 5491SOL    HW117372   0.137   4.244   0.493  0.5160  0.1658 -0.3161
 5491SOL    HW217373   0.159   4.089   0.449 -0.1888 -0.0880  0.1997
 5492SOL     OW17374   1.681   1.175   6.211 -0.1405 -0.4926  0.3922
 5492SOL    HW117375   1.733   1.149   6.292 -1.4995 -2.5272  0.6771
 5492SOL    HW217376   1.742   1.173   6.131  0.9891  0.6293  1.1702
 5493SOL     OW17377   4.168   4.070   5.297 -0.3210 -0.0925  0.1570
 5493SOL    HW117378   4.209   3.985   5.332 -0.9593 -0.5940 -0.3007
 5493SOL    HW217379   4.122   4.052   5.211 -1.2799  0.5190  0.5249
 5494SOL     OW17380   5.372   1.901   5.714  0.0211 -0.1567  0.1378
 5494SOL    HW117381   5.397   1.993   5.746 -1.5054  0.5169 -0.5210
 5494SOL    HW217382   5.440   1.870   5.648  3.2297 -1.5488  3.6639
 5495SOL     OW17383   4.612   2.606   1.472  0.2688  0.1254 -0.3170
 5495SOL    HW117384   4.592   2.514   1.507 -0.4475 -0.1240 -1.3184
 5495SOL    HW217385   4.710   2.622   1.476  0.5727 -1.2251 -1.3456
 5496SOL     OW17386   4.241   0.189   6.076  0.2215 -0.8653 -0.6608
 5496SOL    HW117387   4.196   0.263   6.027  0.7920 -0.7443 -1.0098
 5496SOL    HW217388   4.313   0.227   6.135  1.6391 -1.2421 -2.0669
 5497SOL     OW17389   0.944   1.554   6.245 -0.3389 -0.1523  0.0192
 5497SOL    HW117390   0.905   1.627   6.189  3.0699  0.4210 -1.8772
 5497SOL    HW217391   1.022   1.589   6.297 -0.4134 -1.8250  1.3440
 5498SOL     OW17392   6.101   5.209   2.992  0.4905 -0.0543  0.1560
 5498SOL    HW117393   6.093   5.309   2.987 -1.6502 -0.2039 -0.4633
 5498SOL    HW217394   6.067   5.178   3.081  1.3716 -0.2247  0.4384
 5499SOL     OW17395   1.156   1.129   3.599 -0.0839 -0.5684 -0.3083
 5499SOL    HW117396   1.072   1.173   3.633  0.3035 -0.2172  0.2220
 5499SOL    HW217397   1.214   1.198   3.556 -0.1626 -0.8524 -0.8787
 5500SOL     OW17398   6.437   5.854   2.011 -0.5158  0.2113 -0.1697
 5500SOL    HW117399   6.524   5.890   2.045  0.2096 -2.2188  0.7677
 5500SOL    HW217400   6.446   5.829   1.915  0.5918 -1.9498  0.4141
 5501SOL     OW17401   4.303   4.200   1.171  0.0571  0.3144 -0.0024
 5501SOL    HW117402   4.204   4.217   1.179 -0.1620 -0.8483  0.0605
 5501SOL    HW217403   4.343   4.265   1.106 -0.9080  0.3002 -0.6370
 5502SOL     OW17404   5.196   2.807   6.884  0.1640 -0.3340  0.1906
 5502SOL    HW117405   5.293   2.831   6.891  0.4111 -0.5533 -1.7127
 5502SOL    HW217406   5.159   2.844   6.798 -0.9381 -1.8285 -0.0267
 5503SOL     OW17407   5.156   2.228   0.752 -0.0855  0.5495  0.4505
 5503SOL    HW117408   5.068   2.179   0.754 -0.3321  1.0039  0.9323
 5503SOL    HW217409   5.139   2.326   0.750  0.4055  0.6293 -0.7110
 5504SOL     OW17410   2.218   3.366   0.244  0.2679  0.1861  0.9079
 5504SOL    HW117411   2.129   3.331   0.216  0.0517  0.5022  1.1884
 5504SOL    HW217412   2.236   3.452   0.196  1.0023 -0.5174 -0.1338
 5505SOL     OW17413   2.130   6.208   4.763  0.0543 -0.1284 -0.0954
 5505SOL    HW117414   2.069   6.184   4.688 -1.1637  1.2578  0.4225
 5505SOL    HW217415   2.093   6.173   4.849 -1.4748  2.8780  0.6038
 5506SOL     OW17416   5.497   2.533   5.678  0.0995  0.0134 -0.3591
 5506SOL    HW117417   5.451   2.445   5.682 -3.6999  1.7667 -1.2726
 5506SOL    HW217418   5.517   2.556   5.583  2.3580 -0.3726 -0.0298
 5507SOL     OW17419   2.256   0.243   5.888  0.3537  0.4948 -0.1384
 5507SOL    HW117420   2.241   0.276   5.981 -1.8738 -0.0055 -0.2760
 5507SOL    HW217421   2.313   0.161   5.891  0.9009  0.8889  0.7121
 5508SOL     OW17422   0.111   2.698   6.440 -0.2478 -0.5782 -0.1212
 5508SOL    HW117423   0.037   2.765   6.431  0.1275 -0.2533 -0.8818
 5508SOL    HW217424   0.134   2.687   6.537 -1.4087 -0.8243  0.1405
 5509SOL     OW17425   4.211   4.935   0.215 -0.1629 -0.2347 -0.0130
 5509SOL    HW117426   4.169   4.914   0.302  1.3201 -1.4274  0.4543
 5509SOL    HW217427   4.260   5.023   0.222  1.5938 -1.2379  1.0139
 5510SOL     OW17428   5.780   6.177   6.437  0.3495 -0.0227 -0.4538
 5510SOL    HW117429   5.738   6.259   6.399 -1.6575 -0.8310 -0.0718
 5510SOL    HW217430   5.822   6.124   6.364 -0.5915  0.0738 -1.0795
 5511SOL     OW17431   0.718   3.346   6.074  0.4485 -0.2493  0.3159
 5511SOL    HW117432   0.759   3.359   6.164 -2.0822  0.1566  1.5147
 5511SOL    HW217433   0.626   3.307   6.085 -0.3075  0.7147 -2.0093
 5512SOL     OW17434   3.202   1.010   1.711  0.2793  0.3915  0.1682
 5512SOL    HW117435   3.150   1.002   1.626  0.0334  1.4037  0.2126
 5512SOL    HW217436   3.140   1.028   1.787  0.7314  2.4890  0.0894
 5513SOL     OW17437   4.047   0.752   5.825  0.0525  0.7563  0.2010
 5513SOL    HW117438   4.020   0.847   5.841  0.2413  1.1337 -1.5034
 5513SOL    HW217439   4.045   0.733   5.727  1.2408 -0.6468  0.4129
 5514SOL     OW17440   4.521   0.985   6.995 -0.2096 -0.2620  0.0759
 5514SOL    HW117441   4.534   0.937   7.081  0.6856 -0.9369 -0.4173
 5514SOL    HW217442   4.559   0.930   6.920 -0.3905  0.6038 -0.6689
 5515SOL     OW17443   2.851   4.788   2.693  0.4625 -0.3858 -0.6773
 5515SOL    HW117444   2.920   4.755   2.757 -1.5214  0.2324  1.9596
 5515SOL    HW217445   2.805   4.869   2.732 -0.4798  0.3737 -3.1717
 5516SOL     OW17446   2.621   2.360   4.519 -0.3852  0.0974 -0.1716
 5516SOL    HW117447   2.569   2.439   4.551  0.4459  0.5531  0.0703
 5516SOL    HW217448   2.652   2.307   4.598 -0.7165 -0.3369 -0.3240
 5517SOL     OW17449   1.168   3.053   4.034  0.1165  0.2979 -0.0115
 5517SOL    HW117450   1.126   2.970   4.071 -0.6024  0.0027 -1.4139
 5517SOL    HW217451   1.100   3.125   4.029 -0.0464  0.0665 -1.5365
 5518SOL     OW17452   3.052   3.446   4.828 -0.1569 -0.3318  0.0116
 5518SOL    HW117453   3.129   3.458   4.765 -1.4271 -2.7198 -2.1678
 5518SOL    HW217454   3.020   3.536   4.858  1.7404  0.8213 -1.1796
 5519SOL     OW17455   0.292   3.164   4.578  0.6685  0.0545 -0.1590
 5519SOL    HW117456   0.368   3.119   4.626 -0.5967 -0.4691  1.4367
 5519SOL    HW217457   0.236   3.096   4.532 -0.8145 -0.0093  1.6231
 5520SOL     OW17458   6.415   5.907   1.153 -0.8840  0.3661 -0.2596
 5520SOL    HW117459   6.345   5.917   1.223 -0.8643  0.7555 -0.2968
 5520SOL    HW217460   6.390   5.960   1.072 -0.3660  0.8164 -0.1348
 5521SOL     OW17461   5.469   5.813   4.123 -0.1097  0.0851 -0.0914
 5521SOL    HW117462   5.538   5.864   4.070  0.2834  0.6288  0.9209
 5521SOL    HW217463   5.392   5.873   4.144  0.5647  0.4298  1.5068
 5522SOL     OW17464   5.280   6.468   5.917  0.6094 -0.6960 -0.4006
 5522SOL    HW117465   5.350   6.540   5.911 -0.6731  0.8140  1.5543
 5522SOL    HW217466   5.240   6.468   6.008 -0.4392 -3.0029 -0.7919
 5523SOL     OW17467   6.432   6.768   1.024  0.4576 -0.4259  0.1824
 5523SOL    HW117468   6.356   6.725   0.973  1.6233 -0.1804 -1.8566
 5523SOL    HW217469   6.418   6.866   1.028 -0.0057 -0.5150  1.0360
 5524SOL     OW17470   3.939   1.527   3.149  0.3382  0.1309  0.6237
 5524SOL    HW117471   3.988   1.614   3.148  0.0001  0.3527 -1.7907
 5524SOL    HW217472   4.003   1.451   3.137  0.6900 -0.0712  3.1668
 5525SOL     OW17473   6.172   0.870   6.962  0.7271 -0.3335 -0.3540
 5525SOL    HW117474   6.108   0.877   6.886  0.2557 -1.3671 -0.0675
 5525SOL    HW217475   6.232   0.950   6.962 -0.3056  0.4653 -0.8452
 5526SOL     OW17476   4.477   4.504   3.267 -0.2699  0.1730 -0.0579
 5526SOL    HW117477   4.501   4.407   3.282 -0.4757  0.2185  0.5792
 5526SOL    HW217478   4.540   4.562   3.318  0.9545  0.4562 -1.8069
 5527SOL     OW17479   0.309   6.893   2.543 -0.6052  0.0960 -0.2274
 5527SOL    HW117480   0.355   6.822   2.595 -1.7722 -0.3998  0.1692
 5527SOL    HW217481   0.336   6.887   2.447  1.4002  0.8823  0.2423
 5528SOL     OW17482   2.701   3.677   6.251 -0.2526 -0.0485  0.4817
 5528SOL    HW117483   2.691   3.604   6.183 -0.2793 -1.1432  1.6087
 5528SOL    HW217484   2.631   3.667   6.321 -1.7269  2.4875 -0.5181
 5529SOL     OW17485   3.022   1.287   1.831 -0.0224 -0.1397  0.3886
 5529SOL    HW117486   3.047   1.200   1.872 -1.0844 -0.5146  0.2748
 5529SOL    HW217487   2.931   1.279   1.789 -0.3448  1.1646  0.8072
 5530SOL     OW17488   0.118   0.420   5.888  0.2951  0.7569  0.1989
 5530SOL    HW117489   0.041   0.482   5.869 -0.1706 -0.1085 -0.8560
 5530SOL    HW217490   0.202   0.473   5.896 -0.3157  1.6676  0.7980
 5531SOL     OW17491   1.434   4.917   6.673  0.7544  0.2149  0.5798
 5531SOL    HW117492   1.506   4.848   6.663  0.2150 -0.0978 -1.8760
 5531SOL    HW217493   1.459   4.999   6.623 -0.7633 -0.0793 -0.7399
 5532SOL     OW17494   1.094   6.011   4.864  0.3910  0.5727 -0.6363
 5532SOL    HW117495   1.051   5.924   4.889 -0.7159  1.0979 -0.6580
 5532SOL    HW217496   1.122   6.060   4.946  0.0955  0.6392 -0.5720
 5533SOL     OW17497   2.220   2.375   4.218 -0.1525  0.1994 -0.2223
 5533SOL    HW117498   2.311   2.391   4.178 -0.3211  4.0801  0.5957
 5533SOL    HW217499   2.151   2.376   4.145  0.2288 -0.6555 -0.6115
 5534SOL     OW17500   3.053   6.319   4.263  0.8014 -0.3131 -0.0055
 5534SOL    HW117501   2.996   6.396   4.234 -1.4252 -1.3437  1.3716
 5534SOL    HW217502   3.115   6.350   4.336 -1.0196 -0.0710  1.4951
 5535SOL     OW17503   6.337   2.030   4.945 -0.8536 -0.4518  0.5402
 5535SOL    HW117504   6.301   1.937   4.942  0.5864 -1.0350 -3.2302
 5535SOL    HW217505   6.295   2.085   4.873  1.1018  0.6805  0.1894
 5536SOL     OW17506   4.308   0.632   3.929 -0.0308  0.0085  0.0220
 5536SOL    HW117507   4.352   0.617   4.017 -0.2604  0.9668  0.3103
 5536SOL    HW217508   4.303   0.730   3.910 -0.8759 -0.1458 -0.6054
 5537SOL     OW17509   2.240   1.643   2.058 -0.8728 -0.7101 -0.0958
 5537SOL    HW117510   2.170   1.714   2.065 -0.8353 -0.5589 -1.1508
 5537SOL    HW217511   2.214   1.565   2.115  0.2167  1.0225  2.9918
 5538SOL     OW17512   2.825   6.401   3.934 -0.0226 -0.0380  0.8721
 5538SOL    HW117513   2.772   6.359   3.860 -0.0003  2.2436 -0.5393
 5538SOL    HW217514   2.923   6.386   3.918 -0.0682 -2.0473  2.0985
 5539SOL     OW17515   2.156   3.644   1.639  0.2588  0.4186  0.0479
 5539SOL    HW117516   2.220   3.591   1.584  0.7502  0.3190  0.7079
 5539SOL    HW217517   2.106   3.583   1.702 -1.1031  0.3675 -1.0283
 5540SOL     OW17518   4.077   6.060   3.069  0.3064 -0.4568  0.1176
 5540SOL    HW117519   4.125   5.974   3.049 -1.4287 -1.1560 -1.3941
 5540SOL    HW217520   4.018   6.083   2.992 -0.6504  1.1470  1.2741
 5541SOL     OW17521   5.483   1.532   6.720  0.8757 -0.1705 -0.0408
 5541SOL    HW117522   5.468   1.631   6.719 -1.2685 -0.4527 -0.7852
 5541SOL    HW217523   5.469   1.497   6.812 -1.7731 -0.1733 -0.3792
 5542SOL     OW17524   5.754   3.470   5.755 -0.3593 -0.3379  0.1341
 5542SOL    HW117525   5.811   3.504   5.829 -0.9978 -0.0626  0.5088
 5542SOL    HW217526   5.688   3.403   5.791 -1.2265  0.4089 -0.0135
 5543SOL     OW17527   0.967   2.830   2.244 -0.0004  0.5696  0.0256
 5543SOL    HW117528   0.922   2.741   2.250 -1.6750  1.4357  0.7261
 5543SOL    HW217529   0.908   2.894   2.196  2.2216  0.7231 -2.8094
 5544SOL     OW17530   6.121   0.539   6.807 -0.3032 -0.2869 -0.0091
 5544SOL    HW117531   6.173   0.617   6.770  0.7474 -1.9555 -2.3338
 5544SOL    HW217532   6.177   0.456   6.801 -2.4668 -1.7933 -0.5944
 5545SOL     OW17533   0.900   1.941   0.458 -0.5308  0.3465 -0.2555
 5545SOL    HW117534   0.997   1.918   0.466  0.0351  1.5550 -2.7799
 5545SOL    HW217535   0.880   2.021   0.516  0.3630  1.0360 -0.8716
 5546SOL     OW17536   1.357   5.178   4.292 -0.1366 -0.6446 -0.4707
 5546SOL    HW117537   1.315   5.260   4.254  2.1193  1.1763  0.6904
 5546SOL    HW217538   1.418   5.137   4.225  1.8001  1.0311  0.1634
 5547SOL     OW17539   1.853   5.944   2.779  0.6295  0.1728 -0.4272
 5547SOL    HW117540   1.886   5.855   2.811 -3.6966 -1.9674 -1.1597
 5547SOL    HW217541   1.860   6.011   2.853  0.1214 -1.9625  1.6742
 5548SOL     OW17542   5.798   1.062   3.901 -0.2278 -0.4184  0.2871
 5548SOL    HW117543   5.717   1.040   3.846 -1.6185  0.3743  1.9461
 5548SOL    HW217544   5.827   1.155   3.881 -0.5591 -0.2293  0.6839
 5549SOL     OW17545   5.290   4.741   5.210  0.1426 -0.5695 -0.0807
 5549SOL    HW117546   5.200   4.723   5.249 -0.8774  0.4032 -1.8557
 5549SOL    HW217547   5.300   4.691   5.124  1.9158 -1.8559  0.8231
 5550SOL     OW17548   4.715   6.881   1.599  0.1322 -0.4165 -0.1374
 5550SOL    HW117549   4.695   6.812   1.530 -1.8703  1.0517 -1.1226
 5550SOL    HW217550   4.744   6.965   1.554 -1.6802  0.7250  0.7246
 5551SOL     OW17551   3.324   0.785   2.927  0.3679 -0.5325  0.2942
 5551SOL    HW117552   3.362   0.750   3.013 -0.4937 -0.3537  0.7529
 5551SOL    HW217553   3.314   0.710   2.862  1.0104 -0.6700  0.3402
 5552SOL     OW17554   0.337   3.154   0.978  0.0285  0.1847  0.0031
 5552SOL    HW117555   0.275   3.228   1.006 -0.7150 -0.5733  0.4011
 5552SOL    HW217556   0.289   3.067   0.985  1.2374 -0.4554  0.5993
 5553SOL     OW17557   6.269   7.007   6.472  0.0004  0.1933  0.2394
 5553SOL    HW117558   6.236   6.923   6.430 -0.7034  1.2543 -1.4211
 5553SOL    HW217559   6.357   6.989   6.517 -0.9806 -1.8170  1.5202
 5554SOL     OW17560   2.176   5.385   5.931  0.0205  0.2380  0.8302
 5554SOL    HW117561   2.225   5.379   6.018  3.4841  1.2911 -0.8687
 5554SOL    HW217562   2.203   5.309   5.872 -1.2529  0.2749  0.1562
 5555SOL     OW17563   0.647   6.002   6.944 -0.1576  0.1102 -0.1483
 5555SOL    HW117564   0.581   5.951   6.889  0.1209 -0.3052 -0.1023
 5555SOL    HW217565   0.655   6.095   6.909 -0.7424  0.1509 -0.1726
 5556SOL     OW17566   0.744   2.333   4.192 -0.1839 -0.8799 -0.2406
 5556SOL    HW117567   0.673   2.263   4.198  0.4847 -1.6113 -0.6981
 5556SOL    HW217568   0.709   2.419   4.228 -1.0181 -1.4480  0.3345
 5557SOL     OW17569   1.844   2.213   4.089 -0.2899 -0.4844  0.3997
 5557SOL    HW117570   1.820   2.137   4.149 -0.3775 -0.7065  0.0870
 5557SOL    HW217571   1.768   2.230   4.025  0.2263 -0.9491 -0.3491
 5558SOL     OW17572   6.040   2.575   6.200  0.0738 -0.9442  0.3600
 5558SOL    HW117573   6.041   2.564   6.101 -0.3233 -3.0348  0.5462
 5558SOL    HW217574   5.978   2.650   6.225 -0.0935 -0.6313 -0.9392
 5559SOL     OW17575   3.630   0.827   0.798  0.2663 -0.0337 -0.3437
 5559SOL    HW117576   3.666   0.817   0.891 -0.8546  1.0864  0.2402
 5559SOL    HW217577   3.559   0.898   0.797 -0.7249 -0.9911 -1.7793
 5560SOL     OW17578   6.095   2.662   4.986  0.5572 -0.1504  0.2529
 5560SOL    HW117579   6.043   2.596   5.040 -2.3367  1.6735 -0.0782
 5560SOL    HW217580   6.077   2.648   4.889 -1.0890  1.7404  0.2143
 5561SOL     OW17581   3.649   4.338   1.216 -0.0159  0.0844  0.0129
 5561SOL    HW117582   3.564   4.299   1.180 -0.4737  0.0324  1.1114
 5561SOL    HW217583   3.649   4.332   1.316  1.0345  0.6011  0.0589
 5562SOL     OW17584   4.829   2.317   0.544  0.6215  0.4435  0.1689
 5562SOL    HW117585   4.813   2.388   0.475  2.8232  0.0798 -0.7989
 5562SOL    HW217586   4.854   2.231   0.498  0.1843 -0.3726  1.3967
 5563SOL     OW17587   4.865   4.290   0.627 -0.0527 -0.1082  0.0150
 5563SOL    HW117588   4.916   4.205   0.638 -0.1166 -0.5557 -2.6159
 5563SOL    HW217589   4.773   4.270   0.594 -0.4973  0.9286  0.5845
 5564SOL     OW17590   5.850   0.850   3.603 -0.0158  0.2917 -0.3867
 5564SOL    HW117591   5.934   0.860   3.655  0.0668  1.4037 -0.7183
 5564SOL    HW217592   5.862   0.778   3.534  0.4199 -0.0262  0.0132
 5565SOL     OW17593   1.607   2.324   5.870  0.4625 -0.3320 -0.0476
 5565SOL    HW117594   1.522   2.327   5.818  1.7915 -0.5206 -2.3709
 5565SOL    HW217595   1.685   2.325   5.807  2.2115  0.0915  1.9940
 5566SOL     OW17596   3.494   2.856   1.744 -0.4330 -0.0399  0.3344
 5566SOL    HW117597   3.525   2.951   1.747 -1.2470  0.2615 -0.2798
 5566SOL    HW217598   3.573   2.795   1.744  0.0990  0.6258  0.8010
 5567SOL     OW17599   2.740   5.781   2.712 -0.1353  0.3267 -0.3784
 5567SOL    HW117600   2.765   5.741   2.624  0.9593 -1.2328  0.5842
 5567SOL    HW217601   2.672   5.723   2.756  0.5162  0.2007  0.4843
 5568SOL     OW17602   3.217   4.701   6.525 -0.1147  0.4387  0.0471
 5568SOL    HW117603   3.202   4.759   6.446  0.2796  1.1806  0.5059
 5568SOL    HW217604   3.242   4.609   6.495 -2.0906  0.0997 -0.6973
 5569SOL     OW17605   4.360   6.537   0.102  0.4072 -0.0299  0.0072
 5569SOL    HW117606   4.369   6.521   0.004 -1.0398 -0.8350 -0.0226
 5569SOL    HW217607   4.442   6.505   0.149  1.0123  0.1494 -0.9145
 5570SOL     OW17608   3.925   1.686   6.178  0.4574 -0.1747 -0.0318
 5570SOL    HW117609   3.844   1.722   6.133 -0.2491  1.4066  2.3029
 5570SOL    HW217610   3.993   1.660   6.109 -1.1770  0.4655 -1.9811
 5571SOL     OW17611   2.934   6.194   5.699 -0.1714  0.8994  0.4470
 5571SOL    HW117612   2.943   6.136   5.779  0.8296  0.4515  0.0169
 5571SOL    HW217613   2.838   6.193   5.668 -0.1926 -0.4443  0.4953
 5572SOL     OW17614   2.402   2.739   5.246  0.7552 -0.4504 -0.0837
 5572SOL    HW117615   2.361   2.697   5.166  2.2235 -0.9212 -0.6259
 5572SOL    HW217616   2.396   2.839   5.238  0.8593 -0.4938 -0.7669
 5573SOL     OW17617   1.259   4.849   0.940  0.2187 -0.0980 -0.0718
 5573SOL    HW117618   1.258   4.946   0.967 -2.4717  0.2705 -1.1892
 5573SOL    HW217619   1.346   4.828   0.896  0.2935  2.2583 -1.2206
 5574SOL     OW17620   0.791   4.862   2.825  0.1484  0.1942 -0.0491
 5574SOL    HW117621   0.831   4.835   2.913  0.9694 -0.0404 -0.4948
 5574SOL    HW217622   0.694   4.885   2.839  0.5554  1.2845  1.1220
 5575SOL     OW17623   1.114   2.295   2.041  0.5649  0.3083 -0.4410
 5575SOL    HW117624   1.071   2.215   1.999  1.7153 -0.6080  0.0916
 5575SOL    HW217625   1.185   2.330   1.980  1.1404 -0.0452  0.0243
 5576SOL     OW17626   5.569   6.233   0.441  0.1433  0.6732 -0.0104
 5576SOL    HW117627   5.491   6.226   0.503  0.6369  2.1646  0.8326
 5576SOL    HW217628   5.579   6.147   0.390 -0.8220 -0.2737  1.3123
 5577SOL     OW17629   1.263   5.744   4.599  0.0302  0.2482  0.0462
 5577SOL    HW117630   1.197   5.747   4.523 -1.1801  0.4467  1.0838
 5577SOL    HW217631   1.297   5.837   4.617 -2.0777  0.7647  1.7531
 5578SOL     OW17632   2.923   3.835   6.296 -0.4307 -0.4035  0.0731
 5578SOL    HW117633   2.856   3.761   6.304 -0.6458 -0.2808 -0.5026
 5578SOL    HW217634   2.887   3.906   6.235 -0.3008  0.2639  0.7670
 5579SOL     OW17635   5.496   4.776   3.105  0.1629  0.1779  0.3020
 5579SOL    HW117636   5.403   4.807   3.086  0.6724  1.3567 -0.3644
 5579SOL    HW217637   5.532   4.726   3.026 -0.1445 -0.9050  0.8308
 5580SOL     OW17638   5.807   6.035   2.387 -0.8991 -0.4721  0.7592
 5580SOL    HW117639   5.802   6.020   2.486  0.2257  0.9741  1.0705
 5580SOL    HW217640   5.902   6.024   2.357 -1.0227  0.2648  0.0671
 5581SOL     OW17641   2.837   2.687   6.174  0.1779  0.3290 -0.5000
 5581SOL    HW117642   2.762   2.749   6.199 -1.7244 -1.6454 -1.0316
 5581SOL    HW217643   2.884   2.723   6.094 -0.2765  1.5582 -0.2361
 5582SOL     OW17644   3.540   4.160   3.573 -0.1880  0.3756 -0.1206
 5582SOL    HW117645   3.574   4.066   3.575 -1.5181 -0.1587 -1.3848
 5582SOL    HW217646   3.536   4.196   3.666  0.7756 -0.6456  0.3341
 5583SOL     OW17647   4.377   1.409   0.305  0.3824 -0.0063 -0.2555
 5583SOL    HW117648   4.351   1.318   0.272  0.0076 -0.1780  0.5009
 5583SOL    HW217649   4.298   1.454   0.347  0.4518  0.8508 -1.0047
 5584SOL     OW17650   6.391   3.374   4.803  0.5162 -0.0975 -0.1019
 5584SOL    HW117651   6.374   3.348   4.898 -0.7178  0.0712 -0.2508
 5584SOL    HW217652   6.463   3.443   4.799  0.3287  0.1611  0.7490
 5585SOL     OW17653   6.802   2.383   3.411  0.0523 -0.2368 -0.1128
 5585SOL    HW117654   6.715   2.371   3.363 -0.9774  1.3460  1.2433
 5585SOL    HW217655   6.864   2.439   3.355 -0.8372  0.9225  0.0170
 5586SOL     OW17656   1.583   0.051   2.392 -0.6048  0.0710 -0.3823
 5586SOL    HW117657   1.636   0.053   2.307 -1.6356  0.1412 -1.0513
 5586SOL    HW217658   1.644   0.058   2.470  0.6205 -2.5473 -1.0018
 5587SOL     OW17659   1.671   0.887   4.523  0.4228 -0.0184 -0.6487
 5587SOL    HW117660   1.760   0.855   4.490 -0.0173 -0.7380 -1.1482
 5587SOL    HW217661   1.677   0.906   4.621  0.4951 -2.4037 -0.1385
 5588SOL     OW17662   5.386   6.601   0.716  0.1949  0.4051 -0.0919
 5588SOL    HW117663   5.350   6.518   0.760 -0.0038  0.1050 -0.8085
 5588SOL    HW217664   5.453   6.643   0.776 -0.7596  0.5294  0.9210
 5589SOL     OW17665   1.776   2.399   4.837  0.1088 -0.0956 -0.1673
 5589SOL    HW117666   1.859   2.454   4.846  0.3952 -0.4663 -0.4844
 5589SOL    HW217667   1.729   2.393   4.925  0.6482 -0.2405  0.1125
 5590SOL     OW17668   0.739   1.512   1.948  0.4225 -0.0970  0.2188
 5590SOL    HW117669   0.694   1.549   1.866  1.9937 -1.2823 -1.2618
 5590SOL    HW217670   0.670   1.473   2.009 -0.7803  0.7071 -0.5771
 5591SOL     OW17671   5.404   1.468   6.211  0.1394 -0.0413  0.1918
 5591SOL    HW117672   5.401   1.448   6.309  2.2941  1.3869  0.6041
 5591SOL    HW217673   5.389   1.565   6.196  0.1776 -0.1909 -0.8723
 5592SOL     OW17674   1.058   2.977   3.793  0.6319 -0.4415 -0.1551
 5592SOL    HW117675   1.027   2.892   3.834  0.3731 -0.5540 -0.5837
 5592SOL    HW217676   1.133   3.015   3.848 -0.1498 -0.2416  0.7928
 5593SOL     OW17677   2.969   4.997   6.407 -0.4905  0.1396  0.0144
 5593SOL    HW117678   3.062   4.964   6.395 -1.2594 -2.0945 -0.1549
 5593SOL    HW217679   2.917   4.987   6.322 -1.4181 -0.4772  0.6288
 5594SOL     OW17680   3.883   0.243   6.495 -0.3653 -0.7517  0.1706
 5594SOL    HW117681   3.857   0.216   6.403  0.6569  2.1173 -1.0507
 5594SOL    HW217682   3.807   0.291   6.539  0.2708  0.9970 -0.5661
 5595SOL     OW17683   6.103   3.729   2.151 -0.4494 -0.6305  0.1949
 5595SOL    HW117684   6.037   3.747   2.078 -0.6458 -0.3948  0.4281
 5595SOL    HW217685   6.071   3.772   2.236 -0.4609 -1.2983  0.5362
 5596SOL     OW17686   5.052   5.734   4.141  0.0740 -0.3494  0.2035
 5596SOL    HW117687   4.987   5.735   4.216 -1.2905  0.2792 -0.9461
 5596SOL    HW217688   5.131   5.791   4.165 -0.6982  0.4711  0.8684
 5597SOL     OW17689   2.467   2.250   5.930  0.1909 -0.6007 -0.5536
 5597SOL    HW117690   2.444   2.315   5.858 -0.0787  0.7224  0.6713
 5597SOL    HW217691   2.411   2.168   5.920 -0.4277 -0.0941 -1.3786
 5598SOL     OW17692   6.603   0.111   4.416 -0.5039  0.9816  0.1859
 5598SOL    HW117693   6.525   0.126   4.356 -0.3633  0.6604 -0.0838
 5598SOL    HW217694   6.579   0.044   4.487 -0.1987  0.1568 -0.4625
 5599SOL     OW17695   0.285   3.293   3.494  0.4169 -0.2008  0.2808
 5599SOL    HW117696   0.358   3.344   3.448  1.9973  0.5152  3.3208
 5599SOL    HW217697   0.312   3.197   3.503  0.2949 -0.2567  0.0357
 5600SOL     OW17698   1.693   3.617   1.642  0.6430 -0.3121  0.2391
 5600SOL    HW117699   1.598   3.587   1.648  0.7220 -0.6301 -0.0527
 5600SOL    HW217700   1.745   3.550   1.588  0.6998  0.6503 -0.9329
 5601SOL     OW17701   4.275   2.793   1.160  0.4945 -0.2093  0.6443
 5601SOL    HW117702   4.352   2.816   1.219  0.9977 -0.1751 -0.0080
 5601SOL    HW217703   4.264   2.694   1.156  0.8208 -0.2349  0.3500
 5602SOL     OW17704   5.149   0.365   2.885 -0.3651  0.0721  0.2337
 5602SOL    HW117705   5.221   0.306   2.848 -0.9313 -0.0568 -0.7083
 5602SOL    HW217706   5.133   0.442   2.823 -0.9163  0.1922  0.5134
 5603SOL     OW17707   2.806   1.278   1.165 -0.3446 -0.0076  0.2391
 5603SOL    HW117708   2.724   1.333   1.153  0.1921  0.8176  0.2703
 5603SOL    HW217709   2.851   1.265   1.076 -0.6622 -0.7225  0.1720
 5604SOL     OW17710   0.517   5.361   3.718  0.5014 -0.2437 -0.4742
 5604SOL    HW117711   0.479   5.417   3.791  1.3324 -0.8239  0.4207
 5604SOL    HW217712   0.477   5.270   3.720 -0.0764 -0.0262 -1.2764
 5605SOL     OW17713   3.521   1.815   2.457  0.1706 -0.0214 -0.4273
 5605SOL    HW117714   3.505   1.913   2.473  0.8199 -0.1339  1.0857
 5605SOL    HW217715   3.617   1.794   2.473 -0.1277 -1.0533  0.0723
 5606SOL     OW17716   4.903   5.076   0.531 -0.3319 -0.2521 -0.3460
 5606SOL    HW117717   4.811   5.082   0.492 -0.0076 -2.0980 -1.5095
 5606SOL    HW217718   4.899   5.031   0.620 -0.4187 -2.1134 -1.2298
 5607SOL     OW17719   2.848   1.017   1.632 -0.2625  0.3443  0.1189
 5607SOL    HW117720   2.828   1.113   1.653 -0.0017  0.2315  0.9439
 5607SOL    HW217721   2.766   0.962   1.648  0.0718  0.1824  1.4545
 5608SOL     OW17722   0.025   6.336   3.702 -0.1664 -0.2352 -0.4051
 5608SOL    HW117723   0.096   6.324   3.633 -0.5464  2.2825 -1.3332
 5608SOL    HW217724   0.061   6.389   3.779 -0.6345 -0.1847 -0.2144
 5609SOL     OW17725   5.478   6.738   0.214 -0.4195  0.0214 -0.4047
 5609SOL    HW117726   5.415   6.810   0.243  1.1980  1.0815  0.6559
 5609SOL    HW217727   5.466   6.658   0.272 -2.0103 -0.4838 -1.3842
 5610SOL     OW17728   5.812   5.356   6.469 -0.6177  0.6817 -0.0886
 5610SOL    HW117729   5.717   5.336   6.445 -0.9504  1.0484  0.8404
 5610SOL    HW217730   5.822   5.455   6.481  0.4471  0.9034 -2.4340
 5611SOL     OW17731   6.463   4.598   2.300 -0.2586  0.5544 -0.4177
 5611SOL    HW117732   6.413   4.526   2.349 -1.0967 -0.1037 -2.1444
 5611SOL    HW217733   6.558   4.598   2.328 -0.1306 -1.5579 -0.6679
 5612SOL     OW17734   5.312   1.577   2.044 -0.1896 -0.0073  0.0563
 5612SOL    HW117735   5.330   1.587   2.142 -2.3136 -1.8558  0.7093
 5612SOL    HW217736   5.398   1.572   1.994  0.9392  0.0720  1.9277
 5613SOL     OW17737   6.916   5.266   6.943  0.2983  0.0865 -0.7000
 5613SOL    HW117738   6.946   5.240   7.034 -1.1699 -1.2418 -0.5541
 5613SOL    HW217739   6.937   5.193   6.878 -0.7582 -0.0121 -0.9576
 5614SOL     OW17740   4.767   0.991   5.200 -0.1831 -0.0326  0.5208
 5614SOL    HW117741   4.700   1.006   5.127 -1.7156 -2.2595  1.3360
 5614SOL    HW217742   4.720   0.990   5.289  1.2664  0.3159  1.3195
 5615SOL     OW17743   1.341   1.818   2.042 -0.4981 -0.0065  0.5083
 5615SOL    HW117744   1.305   1.856   2.127 -0.1768  1.2551  0.0914
 5615SOL    HW217745   1.434   1.784   2.058 -0.5145  0.0412  0.7115
 5616SOL     OW17746   2.186   2.136   2.549 -0.3742  0.1377 -0.4004
 5616SOL    HW117747   2.107   2.195   2.565 -2.4091 -2.4492 -0.3732
 5616SOL    HW217748   2.186   2.104   2.454  0.8698  0.3713 -0.5008
 5617SOL     OW17749   1.024   4.287   5.001 -0.5508 -0.4118  0.1557
 5617SOL    HW117750   0.944   4.255   4.949 -0.0273 -1.4669 -0.0318
 5617SOL    HW217751   1.107   4.259   4.954 -0.0612 -0.8330  1.2444
 5618SOL     OW17752   6.091   1.249   3.674 -0.1889  0.2130 -0.7125
 5618SOL    HW117753   6.110   1.334   3.625 -1.5600  0.2079 -1.3121
 5618SOL    HW217754   6.031   1.192   3.618  1.0534 -1.3598 -0.5067
 5619SOL     OW17755   3.559   3.659   3.237  0.7990  0.3990 -0.3114
 5619SOL    HW117756   3.642   3.675   3.291  0.0743 -0.9062  1.2896
 5619SOL    HW217757   3.538   3.741   3.183  0.3711  2.7232  3.0618
 5620SOL     OW17758   4.819   4.353   4.294  0.4518 -0.1051 -0.0464
 5620SOL    HW117759   4.821   4.338   4.195 -0.9580 -1.1999  0.0549
 5620SOL    HW217760   4.875   4.283   4.339  0.8340  0.1977 -0.0509
 5621SOL     OW17761   5.647   5.091   6.694  0.3047 -0.0481  0.0939
 5621SOL    HW117762   5.721   5.158   6.706 -0.7004  1.0458  0.3426
 5621SOL    HW217763   5.564   5.137   6.665 -1.1481 -0.7595  2.7393
 5622SOL     OW17764   6.002   4.713   4.938  0.0573 -0.0719 -0.1272
 5622SOL    HW117765   6.026   4.717   5.034  1.4921 -0.6781 -0.4434
 5622SOL    HW217766   5.991   4.618   4.909 -0.9572  0.1250 -0.4334
 5623SOL     OW17767   4.811   4.896   2.956 -0.0399  0.3969 -0.0589
 5623SOL    HW117768   4.733   4.958   2.954  0.6720  1.3228 -2.4037
 5623SOL    HW217769   4.790   4.818   3.015 -1.9123  1.6163  0.9922
 5624SOL     OW17770   0.405   6.358   3.860 -0.2780 -0.2666 -0.1724
 5624SOL    HW117771   0.345   6.280   3.840 -0.1835 -0.5510  0.6234
 5624SOL    HW217772   0.399   6.381   3.957  0.2566  0.2434 -0.2543
 5625SOL     OW17773   3.357   4.609   5.652 -0.0265 -0.1443  0.0716
 5625SOL    HW117774   3.447   4.616   5.694 -0.7750 -0.4710  1.8095
 5625SOL    HW217775   3.297   4.680   5.690 -0.3655  0.4404 -1.4784
 5626SOL     OW17776   1.307   3.655   5.364  0.4466  0.3177  0.0009
 5626SOL    HW117777   1.344   3.568   5.396 -0.4841  0.0566  0.4105
 5626SOL    HW217778   1.353   3.730   5.412 -0.3402 -0.0380  1.3819
 5627SOL     OW17779   2.243   4.948   1.499  0.1531  0.0399  0.5079
 5627SOL    HW117780   2.310   5.022   1.509 -2.1686  2.4523 -0.6167
 5627SOL    HW217781   2.152   4.981   1.526 -0.7550 -2.9586  1.5174
 5628SOL     OW17782   1.660   3.176   0.525  0.2367  0.1750  0.1651
 5628SOL    HW117783   1.635   3.273   0.514 -0.6561 -0.2679 -2.3464
 5628SOL    HW217784   1.584   3.119   0.494  1.2244 -1.3366  0.4511
 5629SOL     OW17785   0.463   2.749   3.718  0.0803  0.3753  0.0257
 5629SOL    HW117786   0.529   2.719   3.648 -0.3252 -1.6888  0.4554
 5629SOL    HW217787   0.508   2.812   3.781  1.0397  0.6253 -0.8656
 5630SOL     OW17788   0.121   3.182   6.685 -0.0461  0.0629 -0.4401
 5630SOL    HW117789   0.132   3.086   6.710  0.9417  0.2667 -0.0430
 5630SOL    HW217790   0.199   3.234   6.719 -0.6730  1.0446 -0.4715
 5631SOL     OW17791   1.355   0.032   5.416 -1.1121 -0.7635 -0.2594
 5631SOL    HW117792   1.396   0.050   5.326 -1.0699  1.4489  0.1355
 5631SOL    HW217793   1.369   0.112   5.475 -1.9100 -1.8272  1.4341
 5632SOL     OW17794   4.117   6.117   6.486  0.3772 -0.6807 -0.2548
 5632SOL    HW117795   4.181   6.185   6.450  1.4614 -0.6313  1.6426
 5632SOL    HW217796   4.070   6.154   6.566  0.0066 -1.7009  0.0161
 5633SOL     OW17797   1.378   4.483   3.527 -0.5053 -0.3984 -0.3516
 5633SOL    HW117798   1.343   4.444   3.611  3.7131 -2.1562  0.8530
 5633SOL    HW217799   1.389   4.582   3.538  1.6538 -0.7988  2.0044
 5634SOL     OW17800   2.456   0.252   1.593  0.0991  0.1793 -0.4616
 5634SOL    HW117801   2.510   0.171   1.615  0.6702  1.3149  2.9385
 5634SOL    HW217802   2.517   0.326   1.562  0.1993  0.5910  0.6577
 5635SOL     OW17803   3.664   1.624   3.186  0.0986  0.3806 -0.6181
 5635SOL    HW117804   3.758   1.595   3.202  0.4190  1.1339 -1.1226
 5635SOL    HW217805   3.662   1.720   3.160 -0.5354 -0.2513 -3.2635
 5636SOL     OW17806   5.374   6.774   5.334 -0.1523 -0.2177  0.1673
 5636SOL    HW117807   5.395   6.773   5.432  3.0389 -0.0824 -0.3993
 5636SOL    HW217808   5.425   6.700   5.289 -0.2337  0.7504 -1.6015
 5637SOL     OW17809   5.390   6.760   4.517  0.0005 -0.3687 -0.5482
 5637SOL    HW117810   5.462   6.690   4.519 -1.4178 -1.8798  1.0760
 5637SOL    HW217811   5.431   6.849   4.499  1.8951 -1.5493 -2.6144
 5638SOL     OW17812   1.289   5.931   0.160 -0.1413  0.0007  0.4843
 5638SOL    HW117813   1.293   5.920   0.259  0.4419 -0.0300  0.4609
 5638SOL    HW217814   1.198   5.906   0.127 -0.4226  0.2840  1.0435
 5639SOL     OW17815   4.245   6.338   1.562  0.0890 -0.5016 -0.1603
 5639SOL    HW117816   4.230   6.279   1.642  0.7935 -0.1668  0.2257
 5639SOL    HW217817   4.163   6.393   1.546  0.7438  1.2470  1.8729
 5640SOL     OW17818   5.629   5.782   4.343  0.0266  0.1533 -0.2277
 5640SOL    HW117819   5.720   5.809   4.311  0.4323 -1.0493 -0.1545
 5640SOL    HW217820   5.569   5.767   4.264  0.7448 -1.8593 -0.4367
 5641SOL     OW17821   6.561   4.159   3.253  0.4485  0.1278  0.1813
 5641SOL    HW117822   6.529   4.110   3.334  1.1219 -1.0704 -0.2660
 5641SOL    HW217823   6.644   4.211   3.276 -0.0348  0.7553  0.5481
 5642SOL     OW17824   3.105   0.897   6.224 -0.3017  0.0388 -0.6857
 5642SOL    HW117825   3.126   0.940   6.137  0.0646 -0.9624 -1.1113
 5642SOL    HW217826   3.009   0.913   6.248  0.0250  1.7270 -0.4384
 5643SOL     OW17827   4.500   1.313   4.810 -0.4952  0.1075  0.2113
 5643SOL    HW117828   4.416   1.272   4.774 -0.0200 -0.0473 -0.7716
 5643SOL    HW217829   4.487   1.410   4.825 -0.5888  0.2692 -0.8291
 5644SOL     OW17830   1.460   1.072   6.336 -0.3224  0.2520 -0.2214
 5644SOL    HW117831   1.548   1.091   6.291 -0.1036 -0.1799  0.0229
 5644SOL    HW217832   1.472   1.001   6.405 -0.1767  2.3261  2.0523
 5645SOL     OW17833   5.575   6.228   4.738  0.3119 -0.0624  0.2310
 5645SOL    HW117834   5.662   6.265   4.706  0.1857  0.3989  0.4132
 5645SOL    HW217835   5.578   6.128   4.734  1.0035 -0.0643  0.6342
 5646SOL     OW17836   5.605   6.913   1.773  0.3794  0.3041 -0.0591
 5646SOL    HW117837   5.670   6.906   1.848  2.4280 -2.3468 -1.8958
 5646SOL    HW217838   5.542   6.835   1.775  1.2411 -0.4970 -1.6820
 5647SOL     OW17839   6.936   4.084   0.014  0.7901 -0.1849 -0.1236
 5647SOL    HW117840   6.946   4.161  -0.050  0.5537  0.3187  0.4291
 5647SOL    HW217841   6.929   4.120   0.107  0.7490 -0.8897  0.1480
 5648SOL     OW17842   1.444   1.700   5.905 -0.0373  0.1272 -0.4296
 5648SOL    HW117843   1.458   1.670   5.999 -0.6505 -0.6922 -0.5930
 5648SOL    HW217844   1.399   1.789   5.906 -2.7811 -1.1629  0.1003
 5649SOL     OW17845   6.747   0.101   6.363 -0.0519  0.1214  0.2104
 5649SOL    HW117846   6.666   0.136   6.315 -0.3444 -0.9472 -0.1200
 5649SOL    HW217847   6.826   0.107   6.302  0.3484  2.0228  0.8510
 5650SOL     OW17848   5.032   2.929   5.589 -0.1049  0.1562  0.5154
 5650SOL    HW117849   5.069   3.015   5.555  0.8250  0.4480  2.1932
 5650SOL    HW217850   4.950   2.946   5.644 -0.3288 -0.1101  0.2718
 5651SOL     OW17851   6.480   0.952   2.217  0.2266  0.2918 -0.0842
 5651SOL    HW117852   6.512   0.891   2.290  1.1440  0.6487 -0.1759
 5651SOL    HW217853   6.383   0.937   2.201  0.4789 -1.2891 -0.2430
 5652SOL     OW17854   1.652   2.915   0.751  0.1350 -0.3448 -0.7404
 5652SOL    HW117855   1.616   2.908   0.844  0.8266  0.8233 -0.3601
 5652SOL    HW217856   1.671   3.011   0.730 -0.2136 -0.5728 -2.1734
 5653SOL     OW17857   3.556   0.532   4.633  0.5193 -0.2000  0.1006
 5653SOL    HW117858   3.458   0.511   4.627  0.3197  0.8772 -0.7489
 5653SOL    HW217859   3.607   0.468   4.576  0.2209 -0.2177 -0.1507
 5654SOL     OW17860   3.233   2.012   1.402  0.2215 -0.3323  0.0820
 5654SOL    HW117861   3.203   1.944   1.468 -2.2399  2.0070  1.5807
 5654SOL    HW217862   3.314   2.059   1.436  1.5638 -1.9826 -0.6818
 5655SOL     OW17863   5.992   5.273   2.288  0.2065 -0.0827 -0.0341
 5655SOL    HW117864   5.906   5.226   2.307  1.5657 -2.1623  1.4663
 5655SOL    HW217865   6.015   5.333   2.365  0.8363 -0.7472  0.3066
 5656SOL     OW17866   2.301   5.657   0.674 -0.1238 -0.0027 -0.1371
 5656SOL    HW117867   2.336   5.621   0.588  0.8181  0.8844 -0.1506
 5656SOL    HW217868   2.203   5.676   0.665  0.1496  1.0097 -1.3645
 5657SOL     OW17869   5.132   0.553   2.650 -0.6878 -0.0598 -0.2255
 5657SOL    HW117870   5.153   0.489   2.576  0.7146  1.3992 -1.1584
 5657SOL    HW217871   5.078   0.629   2.614  0.5905  1.0170  0.0662
 5658SOL     OW17872   0.145   5.086   5.690  0.5269 -0.3221  0.6439
 5658SOL    HW117873   0.244   5.102   5.678  0.4067  0.1665  0.2344
 5658SOL    HW217874   0.124   4.992   5.667  0.5926  0.1121 -1.3865
 5659SOL     OW17875   4.029   3.076   2.162  0.1318 -0.2654 -0.0663
 5659SOL    HW117876   4.003   3.158   2.111 -3.6435  0.0729  2.0593
 5659SOL    HW217877   4.073   3.102   2.248  0.7207 -0.5849 -0.2619
 5660SOL     OW17878   6.502   5.209   2.934 -0.2604 -0.3507 -0.6917
 5660SOL    HW117879   6.426   5.257   2.889 -0.3489  0.0371 -0.1377
 5660SOL    HW217880   6.502   5.113   2.905 -0.0344 -0.0080 -1.8689
 5661SOL     OW17881   6.777   5.015   4.920  0.0147  0.4032 -0.1814
 5661SOL    HW117882   6.692   4.986   4.876  0.4925 -0.7696 -0.3557
 5661SOL    HW217883   6.847   4.945   4.908 -0.1235 -0.5066  3.4026
 5662SOL     OW17884   1.947   4.237   4.354 -0.6420 -0.5704 -0.2497
 5662SOL    HW117885   1.993   4.207   4.270 -2.0495 -0.7420 -0.9870
 5662SOL    HW217886   2.007   4.301   4.403  0.5457 -1.1111 -0.9366
 5663SOL     OW17887   1.913   3.602   5.914 -0.2556 -0.6175 -0.3329
 5663SOL    HW117888   1.830   3.609   5.860 -0.9690  0.5591  0.8574
 5663SOL    HW217889   1.891   3.614   6.011  0.9891 -2.5463  0.2626
 5664SOL     OW17890   5.697   0.534   2.959  0.0060 -0.6680 -0.4942
 5664SOL    HW117891   5.706   0.619   2.907 -0.1915 -0.0894  0.3982
 5664SOL    HW217892   5.605   0.528   2.998 -0.2781 -1.7214 -1.2697
 5665SOL     OW17893   0.608   0.058   5.228  0.0404  0.3268  0.5553
 5665SOL    HW117894   0.607   0.070   5.327  0.4976  2.4520  0.3612
 5665SOL    HW217895   0.703   0.059   5.195 -0.1547  1.6978 -0.0581
 5666SOL     OW17896   3.644   4.851   7.017  0.6219  0.4747 -0.1886
 5666SOL    HW117897   3.568   4.864   7.080  0.6713 -0.7704  0.1642
 5666SOL    HW217898   3.656   4.932   6.961 -0.1826  1.1474  0.5942
 5667SOL     OW17899   5.477   7.006   2.887  0.5303 -0.3021 -0.2261
 5667SOL    HW117900   5.454   6.909   2.894  2.2342 -0.7050  0.4784
 5667SOL    HW217901   5.573   7.016   2.860  1.2314  1.0796  2.3404
 5668SOL     OW17902   1.494   2.986   5.916 -0.2093  0.7838 -0.7597
 5668SOL    HW117903   1.527   3.078   5.893  0.4328  0.9642  0.7366
 5668SOL    HW217904   1.558   2.918   5.883 -1.0127  0.8075 -2.4529
 5669SOL     OW17905   1.417   1.738   5.063  0.3475  0.1324 -0.2478
 5669SOL    HW117906   1.502   1.708   5.019 -0.0405 -0.0554 -0.8901
 5669SOL    HW217907   1.438   1.795   5.142  1.0692  0.5308 -0.7210
 5670SOL     OW17908   0.794   3.473   3.043  0.0752 -0.5972  0.1847
 5670SOL    HW117909   0.798   3.550   2.980  0.1182  0.1261  1.0394
 5670SOL    HW217910   0.776   3.389   2.993 -1.0689  0.1193 -0.6598
 5671SOL     OW17911   0.225   0.764   6.590  0.0039 -0.5907 -0.3266
 5671SOL    HW117912   0.299   0.712   6.631  0.5789  1.3969  1.3362
 5671SOL    HW217913   0.255   0.802   6.503  1.4749  1.1626  0.8564
 5672SOL     OW17914   4.390   3.368   6.106  0.3451 -0.1382 -0.0389
 5672SOL    HW117915   4.454   3.334   6.175 -0.0456 -1.2625 -0.2061
 5672SOL    HW217916   4.303   3.389   6.149  0.1547 -0.6780 -0.1527
 5673SOL     OW17917   2.885   5.973   2.867 -0.1717 -0.4295 -0.3130
 5673SOL    HW117918   2.825   5.922   2.806 -1.6402 -2.7677  2.8051
 5673SOL    HW217919   2.975   5.930   2.869  0.0397 -0.0415 -1.1436
 5674SOL     OW17920   0.766   2.873   6.035  0.5142  0.1153 -0.1834
 5674SOL    HW117921   0.747   2.776   6.042  2.2888 -0.7553 -4.3838
 5674SOL    HW217922   0.686   2.920   5.996  0.4640 -0.0867 -0.3241
 5675SOL     OW17923   5.711   2.485   5.390 -0.2229 -0.4367  0.2735
 5675SOL    HW117924   5.635   2.542   5.358 -0.4030 -0.7021  0.2313
 5675SOL    HW217925   5.679   2.391   5.404 -0.4923 -0.0597  2.5476
 5676SOL     OW17926   3.150   5.878   1.440 -0.2669  0.0364  0.0329
 5676SOL    HW117927   3.116   5.786   1.463  0.1939 -0.1761 -0.1241
 5676SOL    HW217928   3.163   5.930   1.524  0.8890 -0.5533  0.2499
 5677SOL     OW17929   6.579   1.244   3.242  0.1934 -0.0306  0.5878
 5677SOL    HW117930   6.591   1.168   3.178 -0.2735  0.1365  0.2981
 5677SOL    HW217931   6.662   1.299   3.245  0.5949 -0.6446  0.9214
 5678SOL     OW17932   1.021   5.717   2.909  0.3038  0.4271  0.4120
 5678SOL    HW117933   1.077   5.638   2.882 -0.1994 -0.2428  1.2527
 5678SOL    HW217934   1.037   5.737   3.006 -0.1436  0.8739  0.3937
 5679SOL     OW17935   3.056   5.480   4.711 -0.3912  0.1715  0.5497
 5679SOL    HW117936   2.983   5.516   4.653 -1.1815 -0.2408  1.2646
 5679SOL    HW217937   3.041   5.382   4.725  0.5371 -0.0069  0.3721
 5680SOL     OW17938   6.647   6.761   6.476  0.4173  0.0983  0.4416
 5680SOL    HW117939   6.608   6.744   6.566  0.5971  0.6398  0.6216
 5680SOL    HW217940   6.578   6.743   6.405  0.3246 -0.4822  0.6749
 5681SOL     OW17941   2.871   1.914   0.401 -0.1295 -0.9118  0.0877
 5681SOL    HW117942   2.884   1.868   0.313  1.1394 -2.2867  0.9462
 5681SOL    HW217943   2.776   1.947   0.408  0.1595  0.7610 -2.4510
 5682SOL     OW17944   3.142   5.172   3.411 -0.8992 -0.0658 -0.9961
 5682SOL    HW117945   3.112   5.226   3.490  0.3537 -0.9911  0.1527
 5682SOL    HW217946   3.096   5.083   3.412  0.0474 -0.5590 -0.5865
 5683SOL     OW17947   3.502   3.914   3.936 -0.8894  0.4150 -0.1762
 5683SOL    HW117948   3.535   3.821   3.952 -0.1519  0.1139 -2.8367
 5683SOL    HW217949   3.551   3.978   3.995 -0.9755 -0.7946  1.2629
 5684SOL     OW17950   3.661   3.331   1.960  0.4292  0.7454  0.1274
 5684SOL    HW117951   3.712   3.371   1.884 -1.9859  2.2060 -0.8416
 5684SOL    HW217952   3.691   3.373   2.046  1.4625  0.8976 -0.2877
 5685SOL     OW17953   5.828   1.263   1.631  0.1124  0.1578  0.3255
 5685SOL    HW117954   5.891   1.272   1.554  0.3543 -1.3109  0.3375
 5685SOL    HW217955   5.752   1.203   1.606  1.0041 -1.6380  1.6869
 5686SOL     OW17956   2.530   5.575   6.388 -0.2809  0.2342 -0.0127
 5686SOL    HW117957   2.499   5.623   6.305  0.1490  0.8785  0.1894
 5686SOL    HW217958   2.456   5.517   6.422  0.6338 -2.9396 -2.8656
 5687SOL     OW17959   2.605   6.152   5.661 -0.2731 -0.2929 -0.0422
 5687SOL    HW117960   2.608   6.052   5.660 -1.1385 -0.4014  1.9925
 5687SOL    HW217961   2.578   6.183   5.752  0.2269  1.8220 -0.5599
 5688SOL     OW17962   5.254   2.999   2.610 -0.3763  0.1357 -0.0043
 5688SOL    HW117963   5.285   2.905   2.591  0.5757  0.2505  0.8674
 5688SOL    HW217964   5.329   3.062   2.592 -0.7241  0.6373  0.2875
 5689SOL     OW17965   4.295   4.216   5.802  0.9833  0.0694 -0.5521
 5689SOL    HW117966   4.244   4.301   5.788 -0.0982 -0.9364 -3.6543
 5689SOL    HW217967   4.272   4.178   5.891 -0.2151  1.9260 -0.0004
 5690SOL     OW17968   1.174   1.599   5.044 -0.3568 -0.1691 -0.2480
 5690SOL    HW117969   1.214   1.508   5.055  1.6084  0.7707  0.8223
 5690SOL    HW217970   1.246   1.668   5.048 -1.9012  1.5063 -0.1484
 5691SOL     OW17971   3.634   0.897   4.053  0.0400  0.3336  0.4031
 5691SOL    HW117972   3.565   0.878   3.984  0.4431 -1.0984  0.3695
 5691SOL    HW217973   3.647   0.817   4.111  0.9533  0.9210  1.0456
 5692SOL     OW17974   5.979   2.062   3.788 -0.9520 -0.2482  0.1946
 5692SOL    HW117975   5.924   1.983   3.760 -1.0706  0.0406 -0.3952
 5692SOL    HW217976   5.974   2.072   3.888 -1.5413 -0.5350  0.1996
 5693SOL     OW17977   4.413   5.122   2.675 -0.1836  0.2822 -0.0124
 5693SOL    HW117978   4.482   5.193   2.665 -0.5990  0.7070  0.0678
 5693SOL    HW217979   4.355   5.121   2.593  1.3275 -1.6374 -1.1206
 5694SOL     OW17980   1.810   1.609   4.820  0.3203  0.2832  0.6885
 5694SOL    HW117981   1.883   1.642   4.880 -1.8478  1.3323  2.8985
 5694SOL    HW217982   1.777   1.685   4.764 -0.5627  0.3863  1.3356
 5695SOL     OW17983   1.371   3.694   2.777 -0.1027  0.3329  0.3642
 5695SOL    HW117984   1.470   3.700   2.768 -0.0706  1.0687  1.1010
 5695SOL    HW217985   1.332   3.661   2.691  1.0346 -3.3249  1.1046
 5696SOL     OW17986   3.710   1.330   5.834  0.8636 -0.0113  0.0586
 5696SOL    HW117987   3.753   1.373   5.914  1.0182 -2.0159  1.1339
 5696SOL    HW217988   3.638   1.268   5.865 -1.2471  1.4962 -1.5874
 5697SOL     OW17989   5.316   3.888   2.100  0.2414  0.1614  0.0517
 5697SOL    HW117990   5.313   3.821   2.174  1.1455  0.3785  0.2989
 5697SOL    HW217991   5.411   3.906   2.075  0.0060  1.1653 -0.1813
 5698SOL     OW17992   1.023   3.825   3.132  0.2600 -0.1261  0.8268
 5698SOL    HW117993   1.051   3.803   3.038  1.6718 -0.6799  1.3462
 5698SOL    HW217994   0.983   3.916   3.135 -0.8875 -0.5413 -0.4986
 5699SOL     OW17995   6.713   6.508   4.805  0.3094  0.5274  0.3128
 5699SOL    HW117996   6.616   6.513   4.831 -0.6717 -1.1216 -2.5170
 5699SOL    HW217997   6.741   6.594   4.764 -1.2823 -0.1645 -2.5029
 5700SOL     OW17998   1.207   3.913   3.944 -0.1720 -0.9061 -0.5552
 5700SOL    HW117999   1.123   3.868   3.973 -1.0859 -0.6813 -2.6302
 5700SOL    HW218000   1.216   3.904   3.844 -0.0384  2.8665 -1.0131
 5701SOL     OW18001   6.196   2.898   2.627  0.4120  0.5108  0.2764
 5701SOL    HW118002   6.234   2.819   2.580 -0.4124 -0.6376  1.4912
 5701SOL    HW218003   6.238   2.908   2.717  0.9479  1.8384 -0.0961
 5702SOL     OW18004   4.459   6.066   0.766  0.5040  0.2464  0.1319
 5702SOL    HW118005   4.501   6.121   0.838  3.3083 -1.2924 -0.2105
 5702SOL    HW218006   4.516   5.986   0.747 -1.5761 -0.8701 -1.8950
 5703SOL     OW18007   4.126   4.964   4.356  0.1505 -0.0526  0.1612
 5703SOL    HW118008   4.147   4.871   4.328  1.3423 -0.0944  1.1329
 5703SOL    HW218009   4.079   4.962   4.445 -3.4378  0.0823 -1.5697
 5704SOL     OW18010   5.193   1.776   4.340 -0.3668  0.4696  0.2305
 5704SOL    HW118011   5.103   1.797   4.302 -0.2791  0.7659  0.1834
 5704SOL    HW218012   5.202   1.819   4.430  0.5170  2.2350 -0.6660
 5705SOL     OW18013   5.576   0.771   4.252 -0.1197 -0.0939 -0.3994
 5705SOL    HW118014   5.600   0.680   4.285  1.8548  0.6535  0.3953
 5705SOL    HW218015   5.495   0.803   4.301 -0.3469 -1.1047 -0.0920
 5706SOL     OW18016   1.543   6.873   5.930  0.1186  0.1303  0.1832
 5706SOL    HW118017   1.485   6.792   5.939  0.0316 -0.0763 -1.7247
 5706SOL    HW218018   1.601   6.882   6.011 -1.4338 -0.5562  1.4249
 5707SOL     OW18019   6.558   0.083   1.589  0.0642  0.1829  0.2901
 5707SOL    HW118020   6.579  -0.012   1.612 -0.6810  0.1445  0.8604
 5707SOL    HW218021   6.488   0.086   1.519  0.6168  0.3195 -0.2691
 5708SOL     OW18022   1.723   5.905   0.203 -0.1384  0.3714  0.3450
 5708SOL    HW118023   1.709   5.878   0.108 -1.5258  0.2294  0.5665
 5708SOL    HW218024   1.813   5.874   0.234 -0.3119 -0.9643 -0.4356
 5709SOL     OW18025   6.559   2.290   6.934  0.1720  0.1326  0.1633
 5709SOL    HW118026   6.461   2.284   6.916  0.0910 -1.1510  0.9753
 5709SOL    HW218027   6.594   2.375   6.894 -0.8294 -0.4441 -2.0847
 5710SOL     OW18028   4.050   3.573   4.922 -0.2935  0.5021 -0.2701
 5710SOL    HW118029   3.988   3.519   4.980  0.7968  1.4728  1.9048
 5710SOL    HW218030   3.999   3.648   4.881 -1.6131 -1.5144 -2.5589
 5711SOL     OW18031   6.848   1.366   5.327 -0.0825 -0.1170 -0.3874
 5711SOL    HW118032   6.883   1.457   5.345 -0.5444  0.0143 -0.1244
 5711SOL    HW218033   6.800   1.365   5.239 -2.2145  0.5450  0.6866
 5712SOL     OW18034   4.403   6.590   5.021 -0.0240 -0.3525 -0.6264
 5712SOL    HW118035   4.393   6.557   4.928  0.4304  0.1192 -0.8452
 5712SOL    HW218036   4.461   6.526   5.073 -0.0561 -0.4740 -0.7392
 5713SOL     OW18037   6.897   5.825   3.041  0.5252 -0.4662 -0.0772
 5713SOL    HW118038   6.849   5.738   3.047  0.5642 -0.4374  0.8864
 5713SOL    HW218039   6.990   5.814   3.076  0.3178  0.1017  0.6927
 5714SOL     OW18040   2.601   0.513   0.737 -0.0232 -0.0316  0.3686
 5714SOL    HW118041   2.682   0.455   0.734  0.1161  0.1835 -0.2040
 5714SOL    HW218042   2.628   0.609   0.731 -0.3844 -0.0081 -1.7256
 5715SOL     OW18043   1.449   6.151   4.053  0.1924  0.3098 -0.2111
 5715SOL    HW118044   1.443   6.107   4.143  2.5384 -1.1181 -0.6741
 5715SOL    HW218045   1.485   6.244   4.063  0.5963  0.0988  0.3151
 5716SOL     OW18046   1.718   2.281   2.195 -0.6341 -0.2102 -0.0592
 5716SOL    HW118047   1.768   2.201   2.162  0.4345  0.6963 -0.7005
 5716SOL    HW218048   1.737   2.295   2.292  2.6191  1.6620 -0.8392
 5717SOL     OW18049   1.539   5.708   3.604  0.2544  0.2524  0.0595
 5717SOL    HW118050   1.492   5.726   3.517  0.4955  1.4970  0.1587
 5717SOL    HW218051   1.496   5.631   3.650 -0.1160 -0.1893 -0.9950
 5718SOL     OW18052   1.686   0.350   6.233  0.5014 -0.0343 -0.4182
 5718SOL    HW118053   1.710   0.328   6.138 -0.5770  0.8859 -0.9294
 5718SOL    HW218054   1.729   0.436   6.260  0.0994  0.1566 -0.3773
 5719SOL     OW18055   1.232   1.007   4.829 -0.0326  0.1967 -0.0953
 5719SOL    HW118056   1.286   1.007   4.744  0.2560  0.3868  0.0863
 5719SOL    HW218057   1.135   1.008   4.807  0.0001 -1.4917 -0.4577
 5720SOL     OW18058   1.335   6.111   3.399  0.1750  0.5263  0.4419
 5720SOL    HW118059   1.307   6.016   3.410 -0.0120  0.5583  0.2458
 5720SOL    HW218060   1.254   6.170   3.394  0.0618  0.2626 -3.7111
 5721SOL     OW18061   5.836   4.301   5.212  1.0505 -0.4634 -0.2757
 5721SOL    HW118062   5.903   4.374   5.195  0.7046 -0.1869 -0.4653
 5721SOL    HW218063   5.843   4.232   5.141 -1.0061  1.1323 -2.1607
 5722SOL     OW18064   5.982   0.873   4.007 -0.0495 -0.0592 -0.4963
 5722SOL    HW118065   5.908   0.929   3.970 -0.4156  0.2850  0.6984
 5722SOL    HW218066   5.956   0.776   4.005 -0.6682  0.0836  0.1713
 5723SOL     OW18067   6.042   0.979   0.662 -0.8055  0.2126  0.7919
 5723SOL    HW118068   6.055   0.934   0.750 -1.9644  2.3530  2.1330
 5723SOL    HW218069   5.997   1.067   0.675 -0.8790  0.6852 -1.9477
 5724SOL     OW18070   2.883   4.072   6.170 -0.1457 -0.3785 -0.2367
 5724SOL    HW118071   2.794   4.088   6.127 -0.8849 -3.5210 -0.0665
 5724SOL    HW218072   2.951   4.055   6.099 -0.4797 -1.4852 -0.3094
 5725SOL     OW18073   0.215   0.553   0.032  0.3016 -0.0118 -0.0913
 5725SOL    HW118074   0.199   0.465  -0.014 -0.7542 -1.3267  2.5674
 5725SOL    HW218075   0.128   0.593   0.059  0.7781  1.8855 -1.2050
 5726SOL     OW18076   3.794   5.194   6.651 -0.6201 -0.2179  0.1629
 5726SOL    HW118077   3.752   5.264   6.592 -1.0291 -0.1289  0.5520
 5726SOL    HW218078   3.802   5.108   6.600 -0.0997  0.1167 -0.3211
 5727SOL     OW18079   5.810   4.807   3.003  0.6334  0.0168 -0.0169
 5727SOL    HW118080   5.787   4.735   2.938 -1.7531  1.0573 -0.4387
 5727SOL    HW218081   5.762   4.791   3.089  1.0643  0.4689  0.3172
 5728SOL     OW18082   3.994   0.437   5.487 -0.6624  0.2698  0.1134
 5728SOL    HW118083   4.091   0.434   5.462 -0.9729 -1.3263 -0.9888
 5728SOL    HW218084   3.970   0.355   5.539 -1.8082 -0.2539 -1.1841
 5729SOL     OW18085   3.916   1.825   4.991  0.2963  0.2306 -0.3518
 5729SOL    HW118086   3.908   1.925   4.992  2.2923  0.4236 -0.1396
 5729SOL    HW218087   3.871   1.788   4.909 -0.2529  1.3087 -0.5501
 5730SOL     OW18088   2.887   5.614   5.699  0.2217 -0.1174 -0.1955
 5730SOL    HW118089   2.832   5.532   5.713  2.6582 -2.1703 -1.7413
 5730SOL    HW218090   2.900   5.630   5.601  1.2833  1.0351  0.1032
 5731SOL     OW18091   4.017   0.480   4.688  0.6692  0.0256  0.1642
 5731SOL    HW118092   4.044   0.504   4.782  0.8782  1.1276 -0.1633
 5731SOL    HW218093   4.047   0.552   4.626 -0.8035  0.0483 -0.5533
 5732SOL     OW18094   5.624   4.852   4.867  0.0316  0.8248 -0.3132
 5732SOL    HW118095   5.615   4.760   4.831 -0.6721  1.8739 -3.0162
 5732SOL    HW218096   5.534   4.888   4.891  0.3371  0.7441  1.0920
 5733SOL     OW18097   2.085   4.914   6.663  0.4585 -0.2008  0.7325
 5733SOL    HW118098   2.120   4.985   6.602  4.9127 -2.7643 -0.0836
 5733SOL    HW218099   2.126   4.925   6.753 -0.1191 -0.8294  1.0795
 5734SOL     OW18100   0.624   3.061   1.379  0.2559  0.1007  0.3237
 5734SOL    HW118101   0.720   3.066   1.406  0.6448  2.6848 -1.1716
 5734SOL    HW218102   0.584   3.152   1.382 -1.4249 -0.4976 -1.5328
 5735SOL     OW18103   5.447   0.453   1.418  0.3245 -0.1295  0.2996
 5735SOL    HW118104   5.435   0.384   1.489 -3.8701  0.8021  0.7772
 5735SOL    HW218105   5.425   0.543   1.456  2.0533  0.9947 -1.2227
 5736SOL     OW18106   2.902   3.711   6.703  0.6136 -1.3229  0.6093
 5736SOL    HW118107   2.952   3.624   6.702  1.4791 -0.8876  2.3109
 5736SOL    HW218108   2.905   3.750   6.795 -0.2465  0.2436  0.0089
 5737SOL     OW18109   6.063   5.769   3.813 -0.2667 -0.6046 -0.2996
 5737SOL    HW118110   5.976   5.747   3.858 -0.2749 -2.2234 -1.0278
 5737SOL    HW218111   6.118   5.685   3.804  0.0728 -0.2011 -2.5722
 5738SOL     OW18112   1.183   0.649   0.477 -0.1571 -0.1660  0.0328
 5738SOL    HW118113   1.106   0.672   0.537 -0.0538 -0.2172  0.1875
 5738SOL    HW218114   1.156   0.660   0.382  0.3768  2.2135  0.0989
 5739SOL     OW18115   1.821   0.861   6.315  1.0153 -0.4953  0.2860
 5739SOL    HW118116   1.915   0.838   6.339  1.1040  0.1755  0.6118
 5739SOL    HW218117   1.816   0.880   6.217  1.5746  1.0363  0.5185
 5740SOL     OW18118   0.486   2.297   2.087  0.0805 -0.3415  0.4527
 5740SOL    HW118119   0.509   2.287   1.990  0.9971  1.6631  0.4035
 5740SOL    HW218120   0.542   2.235   2.142 -0.4216 -1.4665 -0.2674
 5741SOL     OW18121   1.334   3.233   3.243  0.3893 -0.1147 -0.2816
 5741SOL    HW118122   1.359   3.329   3.234 -0.0456  0.1207  0.7976
 5741SOL    HW218123   1.299   3.199   3.156  0.6635  0.6624 -0.7074
 5742SOL     OW18124   6.873   5.132   2.642  0.1365 -0.2638  0.3200
 5742SOL    HW118125   6.830   5.043   2.662  1.4796 -1.1418 -0.5788
 5742SOL    HW218126   6.971   5.126   2.660  0.5383  0.4968 -1.4516
 5743SOL     OW18127   1.825   6.235   5.202 -0.6277 -0.2320  1.0538
 5743SOL    HW118128   1.880   6.311   5.237  1.7379 -1.1343 -0.4498
 5743SOL    HW218129   1.772   6.267   5.123 -1.6572  0.4388  1.9881
 5744SOL     OW18130   4.328   5.702   4.647  0.3881 -0.2207  0.2356
 5744SOL    HW118131   4.417   5.748   4.652 -0.6635  1.7597  3.1852
 5744SOL    HW218132   4.264   5.759   4.595  0.3024 -0.6379 -0.1164
 5745SOL     OW18133   1.356   4.657   2.533 -0.2236 -0.4191 -0.0892
 5745SOL    HW118134   1.277   4.698   2.486  1.2163  0.7910 -1.5585
 5745SOL    HW218135   1.433   4.652   2.469  0.6681 -2.3338  1.0804
 5746SOL     OW18136   5.869   1.282   4.398 -0.4302 -0.1022  0.1296
 5746SOL    HW118137   5.835   1.315   4.310  0.6586  1.0078  0.0957
 5746SOL    HW218138   5.856   1.353   4.468 -0.2959 -0.5445  0.6086
 5747SOL     OW18139   2.548   7.010   1.673  0.0617 -0.2963 -0.1468
 5747SOL    HW118140   2.634   6.999   1.622  0.4658 -0.0083  0.4524
 5747SOL    HW218141   2.569   7.035   1.767 -0.7025  0.4213 -0.1589
 5748SOL     OW18142   6.620   6.915   5.077 -0.6127 -0.2544 -0.7082
 5748SOL    HW118143   6.630   6.820   5.106 -1.2443 -0.4295 -1.0348
 5748SOL    HW218144   6.534   6.952   5.114 -0.1470  0.3450 -0.1848
 5749SOL     OW18145   3.464   5.597   5.747 -0.4899 -0.0264  0.5137
 5749SOL    HW118146   3.383   5.603   5.688 -0.3051 -0.9497  0.1621
 5749SOL    HW218147   3.537   5.549   5.700  1.0856  2.6682 -0.0386
 5750SOL     OW18148   6.680   1.045   3.072 -0.5366 -0.3364 -0.6888
 5750SOL    HW118149   6.751   1.109   3.044 -0.4557 -0.1919 -0.1547
 5750SOL    HW218150   6.622   1.023   2.993 -2.1007  2.3060 -0.3754
 5751SOL     OW18151   6.583   6.204   5.971 -0.7280 -1.1218  0.2449
 5751SOL    HW118152   6.628   6.116   5.962  1.1973 -0.1106 -0.6090
 5751SOL    HW218153   6.631   6.272   5.915 -3.9350 -0.1429 -1.6202
 5752SOL     OW18154   4.088   3.776   6.130 -0.0446  0.1255  0.1986
 5752SOL    HW118155   4.066   3.683   6.161  2.1558  0.5458  3.4668
 5752SOL    HW218156   4.178   3.775   6.086  0.2927  0.8031  0.8650
 5753SOL     OW18157   2.993   3.237   3.546 -0.0776  0.3305 -0.4749
 5753SOL    HW118158   2.966   3.276   3.458 -0.8035 -1.4666 -1.0916
 5753SOL    HW218159   2.982   3.306   3.618 -0.0593  1.6387 -1.6827
 5754SOL     OW18160   4.912   6.238   0.659  0.1536  0.0091  0.0868
 5754SOL    HW118161   4.932   6.141   0.671  1.7315  0.1978 -0.6994
 5754SOL    HW218162   4.889   6.279   0.747  1.4421 -0.6793  0.7748
 5755SOL     OW18163   6.575   3.868   5.909 -0.1408  0.4130  0.2647
 5755SOL    HW118164   6.529   3.838   5.992 -1.3606  0.0682 -0.5027
 5755SOL    HW218165   6.508   3.910   5.847  0.0778 -2.0018 -1.7895
 5756SOL     OW18166   5.646   0.900   1.408 -0.1140  0.7280 -0.5176
 5756SOL    HW118167   5.615   0.987   1.446 -2.9099 -0.5701  0.4293
 5756SOL    HW218168   5.597   0.882   1.322  1.8610  0.9123 -1.7480
 5757SOL     OW18169   1.855   1.600   2.204 -0.0927  0.4769 -0.2563
 5757SOL    HW118170   1.860   1.555   2.115 -0.0430 -1.3391  0.6182
 5757SOL    HW218171   1.940   1.651   2.221  0.5126 -0.4009 -0.6203
 5758SOL     OW18172   5.181   1.958   3.410  0.4789  0.6980 -0.1778
 5758SOL    HW118173   5.100   1.901   3.400  1.1218 -0.6163  1.6448
 5758SOL    HW218174   5.198   2.007   3.324 -1.9491  0.6684 -0.7359
 5759SOL     OW18175   3.173   5.658   2.408 -0.8015  0.4110 -0.2629
 5759SOL    HW118176   3.111   5.600   2.355  0.1330 -1.3931  0.5033
 5759SOL    HW218177   3.247   5.690   2.349 -1.0672  0.4277 -0.5903
 5760SOL     OW18178   5.958   1.787   6.179 -0.3620 -0.4967 -0.0357
 5760SOL    HW118179   5.871   1.753   6.141 -1.3657 -0.2113  1.9032
 5760SOL    HW218180   5.956   1.778   6.278  1.4270  0.5206  0.1108
 5761SOL     OW18181   0.972   4.619   6.989  0.3723  0.0028 -0.0145
 5761SOL    HW118182   1.035   4.558   6.940 -0.6591  0.0924 -1.5327
 5761SOL    HW218183   1.024   4.694   7.030  1.3085 -0.0888 -0.9759
 5762SOL     OW18184   0.000   6.332   0.167 -0.2359 -0.4582  0.1719
 5762SOL    HW118185  -0.065   6.394   0.123 -0.2097  0.9519  1.9998
 5762SOL    HW218186   0.089   6.341   0.122 -0.3975  0.3494 -0.0059
 5763SOL     OW18187   4.763   0.104   5.720  0.1047  0.1645 -0.2062
 5763SOL    HW118188   4.690   0.045   5.756 -1.4326  1.4356 -1.1116
 5763SOL    HW218189   4.741   0.200   5.740  1.6539  0.5798 -0.3352
 5764SOL     OW18190   4.402   6.020   3.493 -0.3302 -0.4100 -0.0342
 5764SOL    HW118191   4.494   6.035   3.456 -0.1487 -0.6463  0.3150
 5764SOL    HW218192   4.334   6.030   3.420 -0.0504  0.0531 -0.2337
 5765SOL     OW18193   5.806   0.345   1.828 -0.2203 -0.5435 -0.2704
 5765SOL    HW118194   5.884   0.285   1.815  0.7017 -0.1970  2.9910
 5765SOL    HW218195   5.722   0.296   1.805  0.6908 -2.1004 -0.3856
 5766SOL     OW18196   0.743   6.886   3.808 -0.0357  0.5331 -0.0633
 5766SOL    HW118197   0.737   6.973   3.857  1.9665  0.5578  0.2377
 5766SOL    HW218198   0.761   6.812   3.873 -1.3315 -0.0676 -0.3611
 5767SOL     OW18199   0.413   0.883   1.244  0.0086  0.3459 -0.0064
 5767SOL    HW118200   0.321   0.856   1.274 -0.0325 -1.3099 -1.4978
 5767SOL    HW218201   0.428   0.853   1.150  3.4110 -2.9386  1.3182
 5768SOL     OW18202   2.829   0.781   5.677  0.0167 -0.1486  0.5554
 5768SOL    HW118203   2.911   0.729   5.703  0.3057 -1.2250 -2.1926
 5768SOL    HW218204   2.748   0.723   5.689 -0.0678  0.0392  0.8973
 5769SOL     OW18205   1.460   1.262   5.960  0.1693  0.2578 -0.3616
 5769SOL    HW118206   1.527   1.320   5.914 -2.3462  2.1121 -1.9580
 5769SOL    HW218207   1.508   1.189   6.010  3.2729  0.9013 -2.1137
 5770SOL     OW18208   1.831   2.917   2.879  0.6445 -0.5250 -0.5044
 5770SOL    HW118209   1.766   2.865   2.935  0.1056 -0.7979 -1.3533
 5770SOL    HW218210   1.904   2.952   2.937  0.8369 -1.9349  0.1603
 5771SOL     OW18211   2.581   1.100   3.606 -0.5559 -0.6917  0.3667
 5771SOL    HW118212   2.532   1.077   3.690 -0.5257 -1.2527  0.2318
 5771SOL    HW218213   2.676   1.073   3.614 -0.2965  0.2526  0.5662
 5772SOL     OW18214   2.200   0.975   3.274  0.6293  0.7242 -0.0197
 5772SOL    HW118215   2.256   0.915   3.331  0.0344  0.3377  0.1606
 5772SOL    HW218216   2.150   0.921   3.206  0.1708  1.0203  0.0764
 5773SOL     OW18217   6.151   0.178   4.501 -0.4573  0.5841 -0.5525
 5773SOL    HW118218   6.217   0.252   4.494  0.6007 -0.0401  1.7205
 5773SOL    HW218219   6.199   0.092   4.521 -1.8323 -0.2327 -0.6098
 5774SOL     OW18220   2.067   5.575   4.193  0.3649 -0.0409  0.4555
 5774SOL    HW118221   2.061   5.491   4.247  0.2628  1.0702  2.2648
 5774SOL    HW218222   2.162   5.594   4.171  0.2287 -2.0086 -2.3786
 5775SOL     OW18223   5.075   4.630   3.432  0.0796 -0.0836  0.6307
 5775SOL    HW118224   5.174   4.622   3.443  0.1979  0.3211 -0.0794
 5775SOL    HW218225   5.054   4.713   3.381 -0.6579  0.0683  1.1682
 5776SOL     OW18226   1.841   1.186   4.649 -0.9115  0.3065 -0.2155
 5776SOL    HW118227   1.933   1.196   4.613 -0.4798 -0.4984  0.6091
 5776SOL    HW218228   1.835   1.101   4.701 -2.3988 -0.1528 -1.0755
 5777SOL     OW18229   6.098   0.667   2.316  0.0630 -0.2199 -0.0201
 5777SOL    HW118230   6.001   0.681   2.300 -0.2026 -0.4301  1.3061
 5777SOL    HW218231   6.111   0.593   2.382  1.2520 -2.5421 -2.6518
 5778SOL     OW18232   5.159   6.484   2.680 -0.5317  0.7972  0.5914
 5778SOL    HW118233   5.120   6.425   2.751  1.4029  1.5076  2.3364
 5778SOL    HW218234   5.108   6.471   2.595 -2.0252 -1.1642  1.6916
 5779SOL     OW18235   5.421   1.313   0.215  0.5549 -0.0738  0.4782
 5779SOL    HW118236   5.490   1.245   0.190  1.3780  0.3408  1.5401
 5779SOL    HW218237   5.438   1.345   0.308 -0.7034  0.5155  0.5286
 5780SOL     OW18238   5.616   5.424   4.267  0.3036  0.3774 -0.1069
 5780SOL    HW118239   5.535   5.472   4.302 -1.2659 -0.5750 -2.2071
 5780SOL    HW218240   5.614   5.329   4.297 -0.1366 -0.0032 -1.2865
 5781SOL     OW18241   1.091   0.303   6.023 -0.1649 -0.3624 -0.2838
 5781SOL    HW118242   1.154   0.379   6.037 -1.4277  0.9327 -1.2947
 5781SOL    HW218243   1.109   0.262   5.933  1.8701 -2.6828  1.0522
 5782SOL     OW18244   5.613   0.116   0.215 -0.2473 -0.2410  0.0930
 5782SOL    HW118245   5.516   0.134   0.229 -0.2106  0.4923 -0.4887
 5782SOL    HW218246   5.666   0.196   0.244 -0.0950  0.8463 -2.8484
 5783SOL     OW18247   1.579   2.633   0.465 -0.1234  0.2361  0.4987
 5783SOL    HW118248   1.602   2.609   0.559 -0.8138 -0.6459  0.4572
 5783SOL    HW218249   1.612   2.562   0.403  1.1033  1.2318 -0.0350
 5784SOL     OW18250   5.465   5.615   0.180  1.0763  0.3951  0.5791
 5784SOL    HW118251   5.453   5.702   0.131  1.1534  0.5538  0.8424
 5784SOL    HW218252   5.491   5.633   0.275 -0.1685  0.1106  0.9874
 5785SOL     OW18253   1.992   1.610   1.778 -0.0346 -0.0743 -0.0981
 5785SOL    HW118254   1.932   1.616   1.699  2.8694  1.7669 -2.4191
 5785SOL    HW218255   2.052   1.530   1.770  1.0412  0.7315 -0.4492
 5786SOL     OW18256   4.883   4.839   2.672  0.1015  0.1105 -1.3187
 5786SOL    HW118257   4.859   4.843   2.769  2.0089  1.3263 -0.8371
 5786SOL    HW218258   4.801   4.824   2.618 -1.2734  1.1065  0.3732
 5787SOL     OW18259   4.475   1.460   6.554  1.1119 -0.5426  0.3502
 5787SOL    HW118260   4.383   1.461   6.592  0.9019 -1.3081 -0.1135
 5787SOL    HW218261   4.531   1.529   6.599 -0.5251  2.1442 -1.4963
 5788SOL     OW18262   3.609   6.142   5.042 -0.4186  0.0638 -0.6547
 5788SOL    HW118263   3.705   6.136   5.018 -0.0098  2.2627  0.2153
 5788SOL    HW218264   3.594   6.099   5.131 -0.1652  0.0057 -0.6400
 5789SOL     OW18265   1.816   5.392   0.622  0.0388  0.1552 -0.1653
 5789SOL    HW118266   1.719   5.375   0.639  0.0166  0.7971  0.4027
 5789SOL    HW218267   1.863   5.406   0.709  0.7028 -0.4622 -0.4189
 5790SOL     OW18268   2.055   3.414   2.955  0.7480 -0.3127 -0.2361
 5790SOL    HW118269   2.083   3.357   2.877 -0.9804 -3.0537  0.9931
 5790SOL    HW218270   1.968   3.459   2.933  0.9411  0.0054 -0.3583
 5791SOL     OW18271   1.019   2.480   2.478  0.5264  0.1899 -0.8732
 5791SOL    HW118272   0.939   2.526   2.519 -0.7995  0.2573 -3.3397
 5791SOL    HW218273   1.103   2.517   2.518 -0.6035  2.0265 -0.0607
 5792SOL     OW18274   5.594   6.991   4.584  0.2540  0.0300 -0.0840
 5792SOL    HW118275   5.530   7.059   4.549 -1.4619 -1.3731  0.1871
 5792SOL    HW218276   5.607   7.005   4.682  0.9748  0.7660 -0.2725
 5793SOL     OW18277   0.155   2.985   4.427  0.2728 -0.1529  0.1166
 5793SOL    HW118278   0.104   3.050   4.370  1.3286  0.7441  0.1451
 5793SOL    HW218279   0.092   2.919   4.468 -0.8116  0.7120 -0.1066
 5794SOL     OW18280   6.009   3.534   5.435 -0.2478 -0.1934  0.6419
 5794SOL    HW118281   6.052   3.528   5.345 -0.4534 -0.7054  0.5779
 5794SOL    HW218282   6.068   3.587   5.497 -0.6700  1.2433 -0.1310
 5795SOL     OW18283   6.731   4.080   1.053 -0.2932  0.3240  0.3654
 5795SOL    HW118284   6.645   4.045   1.091  0.2217 -0.3132  0.9779
 5795SOL    HW218285   6.728   4.180   1.051 -0.8367  0.3271  0.8982
 5796SOL     OW18286   2.203   2.567   5.553  0.4005 -0.0377  0.7979
 5796SOL    HW118287   2.156   2.525   5.630  0.1541  0.5476  0.9674
 5796SOL    HW218288   2.237   2.495   5.492  2.7265 -0.6497  2.6632
 5797SOL     OW18289   2.681   2.321   5.706 -0.5595 -0.4125  0.8684
 5797SOL    HW118290   2.645   2.291   5.794 -0.7931 -1.2166  0.5036
 5797SOL    HW218291   2.623   2.288   5.633 -1.4579  1.8494  0.4781
 5798SOL     OW18292   0.295   4.318   3.657 -0.4421  0.2336 -0.4573
 5798SOL    HW118293   0.214   4.283   3.703  0.2181  0.4865  0.9526
 5798SOL    HW218294   0.306   4.273   3.568 -1.9576  0.0119 -0.5556
 5799SOL     OW18295   6.363   6.742   4.933  0.5382 -0.4778  0.6941
 5799SOL    HW118296   6.297   6.762   5.004  1.3560  1.1060  1.0509
 5799SOL    HW218297   6.351   6.805   4.857  0.1918 -1.6412 -0.2508
 5800SOL     OW18298   6.421   4.331   6.822 -0.3635 -0.3090  0.4151
 5800SOL    HW118299   6.472   4.248   6.798 -0.4874 -0.4581  0.6634
 5800SOL    HW218300   6.451   4.363   6.912  1.0741  1.0128 -0.4795
 5801SOL     OW18301   4.094   6.564   6.423  0.1761  0.0628  0.4397
 5801SOL    HW118302   4.035   6.486   6.405  1.4401 -0.4938 -1.6577
 5801SOL    HW218303   4.068   6.606   6.510 -3.8342  0.3977 -0.7247
 5802SOL     OW18304   1.365   3.405   5.464  0.0767 -0.3745  0.0923
 5802SOL    HW118305   1.341   3.349   5.543  2.0205 -0.4303  0.6893
 5802SOL    HW218306   1.326   3.365   5.381  1.0497 -2.3945  0.5536
 5803SOL     OW18307   1.057   6.595   1.246  0.4310 -0.6499 -0.1651
 5803SOL    HW118308   1.148   6.576   1.209  0.6836  0.4591 -0.1729
 5803SOL    HW218309   1.062   6.601   1.346  0.3524 -0.6795 -0.1592
 5804SOL     OW18310   1.406   2.248   6.869 -0.0884 -0.0577 -0.4130
 5804SOL    HW118311   1.356   2.308   6.933  0.1131 -0.0813 -0.2316
 5804SOL    HW218312   1.375   2.265   6.776 -1.7435 -1.3405 -0.1388
 5805SOL     OW18313   4.298   3.031   6.947 -0.6302  0.4461  0.1719
 5805SOL    HW118314   4.312   2.934   6.965 -2.9940 -0.0884 -0.4922
 5805SOL    HW218315   4.323   3.084   7.027  0.6389 -0.7044  0.5702
 5806SOL     OW18316   5.008   6.496   5.093 -0.2820 -0.6260  0.0919
 5806SOL    HW118317   4.968   6.460   5.009 -1.5015 -1.4602  0.9908
 5806SOL    HW218318   4.993   6.431   5.168 -0.3828  0.6688  1.2347
 5807SOL     OW18319   3.506   5.098   2.221  0.2999 -0.2915 -0.1391
 5807SOL    HW118320   3.557   5.155   2.286  2.7894 -1.1329 -1.2300
 5807SOL    HW218321   3.494   5.148   2.135 -0.5499 -0.1974  0.0219
 5808SOL     OW18322   6.837   1.846   4.008  0.2071 -0.0145  0.6092
 5808SOL    HW118323   6.754   1.894   4.037 -1.5053 -0.1767 -3.3650
 5808SOL    HW218324   6.912   1.911   3.998 -0.4885  0.8116  0.6383
 5809SOL     OW18325   1.260   4.051   3.039 -0.1339 -0.0698 -0.1972
 5809SOL    HW118326   1.186   4.050   3.106  0.8437 -0.1173  0.9182
 5809SOL    HW218327   1.347   4.042   3.086  0.5880 -0.0833 -1.4921
 5810SOL     OW18328   5.323   1.411   5.249  0.3728 -0.0722  0.2539
 5810SOL    HW118329   5.283   1.320   5.252 -0.9875  0.2699 -3.0516
 5810SOL    HW218330   5.395   1.414   5.179  2.1054  0.8567  1.9667
 5811SOL     OW18331   3.518   5.628   0.732  0.2046  0.3689 -0.4698
 5811SOL    HW118332   3.425   5.657   0.714  0.3748  0.7102 -0.8127
 5811SOL    HW218333   3.537   5.541   0.686 -0.7776 -1.1235  1.7567
 5812SOL     OW18334   5.768   1.008   5.434  0.4792 -0.4218  0.0743
 5812SOL    HW118335   5.849   1.002   5.376  1.1622 -0.7240  1.0388
 5812SOL    HW218336   5.782   1.077   5.504  1.3020 -2.7065  2.3237
 5813SOL     OW18337   0.973   1.984   5.038  0.1557  0.3719  0.0400
 5813SOL    HW118338   1.051   1.989   5.101  0.1583 -2.2523  0.3345
 5813SOL    HW218339   1.006   1.997   4.944  0.9216 -0.4840  0.1794
 5814SOL     OW18340   5.275   3.855   6.976  0.0486 -0.4487  0.0112
 5814SOL    HW118341   5.254   3.798   7.056 -1.9353  0.3196  0.0747
 5814SOL    HW218342   5.287   3.796   6.896 -3.1452 -1.0194 -0.1785
 5815SOL     OW18343   3.544   6.650   3.770  0.1567  0.2148 -0.2136
 5815SOL    HW118344   3.547   6.550   3.770  1.3411  0.2217  0.8894
 5815SOL    HW218345   3.496   6.681   3.852  0.3347  0.5412 -0.2324
 5816SOL     OW18346   0.360   4.749   5.577  0.0875 -0.2495  0.1351
 5816SOL    HW118347   0.365   4.653   5.602  0.6976 -1.2469 -3.3152
 5816SOL    HW218348   0.265   4.778   5.572 -0.1188 -0.8379  0.6149
 5817SOL     OW18349   5.898   2.220   3.535 -0.7711  0.0731 -0.9767
 5817SOL    HW118350   5.871   2.124   3.543  0.0293 -0.0014  1.4552
 5817SOL    HW218351   5.987   2.233   3.577 -1.4147  2.1214 -0.1616
 5818SOL     OW18352   4.869   6.790   5.426  0.2726 -0.1813  0.5398
 5818SOL    HW118353   4.835   6.741   5.506  0.7719 -2.0713 -0.3466
 5818SOL    HW218354   4.825   6.880   5.420 -0.7277 -0.5240  2.1816
 5819SOL     OW18355   6.279   1.447   1.117  0.0502 -0.1677  0.4738
 5819SOL    HW118356   6.242   1.356   1.096 -1.6049  0.5508  0.1680
 5819SOL    HW218357   6.226   1.489   1.190  1.7321 -0.0061  1.6561
 5820SOL     OW18358   3.465   4.815   0.475  0.4412  0.5868  0.1084
 5820SOL    HW118359   3.443   4.893   0.533 -0.3757  0.9192 -0.6207
 5820SOL    HW218360   3.386   4.753   0.470  0.8985 -0.0196  0.2635
 5821SOL     OW18361   5.044   6.835   1.519 -0.7913 -0.7343  0.3114
 5821SOL    HW118362   4.970   6.833   1.452 -0.9246 -0.2815  0.4400
 5821SOL    HW218363   5.046   6.925   1.563  1.0775 -0.0346 -1.0885
 5822SOL     OW18364   0.847   1.577   3.379 -0.0643 -0.6543  0.4761
 5822SOL    HW118365   0.928   1.525   3.406 -0.9200 -2.1020  0.3446
 5822SOL    HW218366   0.815   1.632   3.456  2.1661  1.5494 -0.0255
 5823SOL     OW18367   1.450   2.865   3.625  0.2631  0.2182  0.4079
 5823SOL    HW118368   1.410   2.913   3.703  1.3657  2.1999 -0.1734
 5823SOL    HW218369   1.550   2.870   3.632  0.4067  1.7271 -1.8173
 5824SOL     OW18370   4.709   2.743   3.915 -0.3961  0.0493 -0.1581
 5824SOL    HW118371   4.730   2.732   4.013 -1.1205  1.9562  0.2574
 5824SOL    HW218372   4.630   2.686   3.891  0.1746 -0.9139  0.2005
 5825SOL     OW18373   2.020   6.135   0.888 -0.4915 -0.1154 -0.0875
 5825SOL    HW118374   1.963   6.093   0.818 -0.4233 -0.6454  0.1762
 5825SOL    HW218375   1.965   6.153   0.969 -0.9880  2.0004 -0.8174
 5826SOL     OW18376   0.605   2.092   2.910 -0.4794  0.7786  0.2212
 5826SOL    HW118377   0.619   1.995   2.894 -0.8967  0.9759 -1.4750
 5826SOL    HW218378   0.674   2.126   2.974 -0.0109 -0.5024  0.4196
 5827SOL     OW18379   3.012   4.808   5.988  0.1516 -0.5178  0.1679
 5827SOL    HW118380   3.032   4.723   5.939  1.0113  0.1271 -0.6510
 5827SOL    HW218381   2.919   4.805   6.025  0.1294 -1.7549  0.0553
 5828SOL     OW18382   5.583   1.120   1.574 -0.3727 -0.0110 -0.5478
 5828SOL    HW118383   5.595   1.097   1.671 -1.0804 -1.7137 -0.8218
 5828SOL    HW218384   5.498   1.171   1.562 -1.5130 -1.8073 -0.5038
 5829SOL     OW18385   1.325   2.366   0.070  0.1067 -0.0438 -0.3686
 5829SOL    HW118386   1.381   2.448   0.084 -0.8602  0.6661 -0.5115
 5829SOL    HW218387   1.343   2.300   0.144 -0.5516  1.1367  0.8910
 5830SOL     OW18388   2.393   6.801   6.469  0.0792  0.3330  0.1170
 5830SOL    HW118389   2.395   6.725   6.404 -0.7449  0.2389  0.1900
 5830SOL    HW218390   2.313   6.859   6.451  0.7475  1.2493 -0.0008
 5831SOL     OW18391   0.217   6.307   3.160  0.5545  0.2813  0.3521
 5831SOL    HW118392   0.293   6.311   3.095  0.3870 -0.6492  0.0831
 5831SOL    HW218393   0.232   6.233   3.225  0.4770  0.8974  1.0792
 5832SOL     OW18394   3.771   3.692   6.183 -0.5861  0.2894 -0.2573
 5832SOL    HW118395   3.739   3.786   6.173 -0.6669  0.4138  1.0375
 5832SOL    HW218396   3.694   3.633   6.210 -0.4455 -0.0703 -0.6290
 5833SOL     OW18397   3.962   3.298   4.562  0.0812  0.5245  0.0030
 5833SOL    HW118398   4.028   3.344   4.621 -0.8508  1.7813  0.1055
 5833SOL    HW218399   3.918   3.365   4.501  0.1942 -0.5602 -1.3309
 5834SOL     OW18400   3.534   1.136   6.497 -0.2695 -0.1632  0.3516
 5834SOL    HW118401   3.470   1.097   6.432  0.0509 -1.4796  0.7936
 5834SOL    HW218402   3.557   1.068   6.567  0.3513  0.8067  1.1289
 5835SOL     OW18403   5.877   2.574   3.920 -0.4548 -0.4484  0.5270
 5835SOL    HW118404   5.875   2.630   3.837 -0.7051  0.5437  1.1880
 5835SOL    HW218405   5.785   2.541   3.940 -0.5211 -0.1017  0.7978
 5836SOL     OW18406   2.754   6.091   3.753  0.3914 -0.6919  0.4622
 5836SOL    HW118407   2.715   6.169   3.704  1.1615 -1.0999 -0.8256
 5836SOL    HW218408   2.779   6.019   3.689  0.8535 -1.5067  1.5123
 5837SOL     OW18409   3.895   1.670   0.705 -0.3405  0.3500 -0.2697
 5837SOL    HW118410   3.798   1.646   0.703 -0.6155  1.3953  0.0607
 5837SOL    HW218411   3.938   1.642   0.620 -0.5384 -1.6664  0.2489
 5838SOL     OW18412   1.720   6.551   0.623 -0.1249  0.1921  0.1680
 5838SOL    HW118413   1.658   6.626   0.602 -0.2125  0.3854  1.0786
 5838SOL    HW218414   1.796   6.585   0.679  0.8923 -0.0104 -1.0416
 5839SOL     OW18415   0.222   2.422   0.672  0.2583  0.0344 -0.3488
 5839SOL    HW118416   0.192   2.450   0.763  0.1402 -0.2381 -0.3029
 5839SOL    HW218417   0.164   2.467   0.603  0.1277 -0.0260 -0.2788
 5840SOL     OW18418   2.017   5.140   5.420 -0.4284  0.4635  0.2634
 5840SOL    HW118419   1.928   5.182   5.434 -0.2228  0.3389  2.2588
 5840SOL    HW218420   2.012   5.077   5.342 -2.1842  0.2147  0.5250
 5841SOL     OW18421   0.641   2.701   2.877  0.3498 -0.1154 -0.2048
 5841SOL    HW118422   0.714   2.703   2.945  2.1798 -0.4233 -2.0561
 5841SOL    HW218423   0.626   2.607   2.847 -1.6478 -0.2087  0.9518
 5842SOL     OW18424   1.755   2.601   6.952  0.1267  0.4777 -0.1706
 5842SOL    HW118425   1.694   2.619   6.875  3.1654  1.6732 -2.4898
 5842SOL    HW218426   1.705   2.550   7.023 -2.5061 -1.8399 -3.3830
 5843SOL     OW18427   6.718   1.476   1.534 -0.1462  0.1189 -0.3004
 5843SOL    HW118428   6.792   1.526   1.578  0.6508 -0.8362 -0.5438
 5843SOL    HW218429   6.661   1.432   1.603  0.2963 -0.2478 -0.1716
 5844SOL     OW18430   0.862   1.791   6.091 -0.2575  0.2574  0.4592
 5844SOL    HW118431   0.770   1.811   6.124 -0.5694 -1.0612  0.4574
 5844SOL    HW218432   0.866   1.808   5.993 -0.5706  0.0956  0.4167
 5845SOL     OW18433   1.997   2.415   4.021  0.1418 -0.3592  0.1772
 5845SOL    HW118434   1.908   2.370   4.036 -0.6999  0.7337 -1.2510
 5845SOL    HW218435   2.017   2.416   3.923  1.7114 -0.4814  0.4685
 5846SOL     OW18436   5.750   2.781   6.898 -0.4400  0.4492  0.0200
 5846SOL    HW118437   5.743   2.874   6.934  2.2283  0.7852 -0.1032
 5846SOL    HW218438   5.723   2.715   6.969 -0.1186  1.2484  0.9044
 5847SOL     OW18439   1.273   2.470   2.865 -0.3718 -0.4840 -0.2747
 5847SOL    HW118440   1.319   2.383   2.881 -0.9780 -0.9543 -0.9907
 5847SOL    HW218441   1.196   2.479   2.929 -1.0065 -1.0171 -0.9372
 5848SOL     OW18442   1.979   4.524   3.048  0.0309  0.1301  0.6324
 5848SOL    HW118443   1.885   4.541   3.076 -0.4566  1.2661 -1.4607
 5848SOL    HW218444   1.980   4.484   2.957  1.5812  0.0534  0.6514
 5849SOL     OW18445   2.161   1.002   5.863 -0.9697  0.1011  0.0217
 5849SOL    HW118446   2.208   1.039   5.783 -0.4649  1.2466  0.8124
 5849SOL    HW218447   2.110   0.920   5.837  0.9337 -0.8323 -1.0241
 5850SOL     OW18448   2.370   4.794   2.959 -0.2336  0.0723 -0.6962
 5850SOL    HW118449   2.421   4.743   3.028  0.1288 -0.0986 -1.0828
 5850SOL    HW218450   2.429   4.809   2.879 -0.5691  0.4716 -0.8728
 5851SOL     OW18451   6.273   2.859   5.687  0.2265 -0.1296  0.1755
 5851SOL    HW118452   6.177   2.880   5.667  0.6317  0.9180 -0.8410
 5851SOL    HW218453   6.316   2.821   5.605  0.5066 -1.3180  0.8517
 5852SOL     OW18454   4.407   5.839   2.518  0.7092 -0.0379  0.2427
 5852SOL    HW118455   4.506   5.835   2.507  0.6719  0.6922 -0.4960
 5852SOL    HW218456   4.372   5.923   2.475 -0.6007 -1.7890 -2.3315
 5853SOL     OW18457   6.118   4.714   5.195 -0.5164  0.0066  0.2431
 5853SOL    HW118458   6.090   4.667   5.279 -1.4899 -2.5095 -1.3352
 5853SOL    HW218459   6.203   4.673   5.161 -0.0054  1.1626  0.1055
 5854SOL     OW18460   6.838   0.706   6.698 -0.1144 -0.0632 -0.4913
 5854SOL    HW118461   6.903   0.776   6.667 -1.1673  0.5907 -1.3286
 5854SOL    HW218462   6.876   0.615   6.681  1.1869  0.2937  0.4116
 5855SOL     OW18463   1.204   0.981   6.330 -0.0024 -0.6406 -0.7302
 5855SOL    HW118464   1.148   1.062   6.314 -0.1839 -0.1159  2.0331
 5855SOL    HW218465   1.298   1.000   6.302 -0.2433  0.1825 -1.0075
 5856SOL     OW18466   1.327   6.406   3.753 -0.2288 -0.6701 -0.3149
 5856SOL    HW118467   1.394   6.342   3.715  0.9825  1.1929 -1.4668
 5856SOL    HW218468   1.352   6.428   3.848  0.4149 -0.5004 -0.5183
 5857SOL     OW18469   2.008   2.924   0.566 -0.6699  0.0610  0.0634
 5857SOL    HW118470   1.915   2.895   0.541 -0.4740  1.2803 -2.3637
 5857SOL    HW218471   2.063   2.843   0.587 -2.2924 -0.6721  1.8756
 5858SOL     OW18472   3.381   0.135   4.369 -0.2826 -0.0076 -0.4389
 5858SOL    HW118473   3.435   0.054   4.345  0.0776  0.3028 -0.6920
 5858SOL    HW218474   3.395   0.158   4.465 -0.3488 -0.2154 -0.3787
 5859SOL     OW18475   5.600   5.751   3.404  0.0796 -0.8002  0.7851
 5859SOL    HW118476   5.556   5.679   3.458 -0.7144 -1.9217 -1.2749
 5859SOL    HW218477   5.647   5.710   3.326  0.2674  0.8579 -0.0119
 5860SOL     OW18478   6.396   1.968   0.089  0.0914 -0.0598  0.1163
 5860SOL    HW118479   6.394   2.035   0.163  0.9058  0.7734 -0.5848
 5860SOL    HW218480   6.310   1.918   0.086  0.5217 -1.0948  2.5005
 5861SOL     OW18481   6.242   3.622   2.935 -0.2306 -0.2432 -0.0787
 5861SOL    HW118482   6.275   3.541   2.984  0.0582 -1.1499 -1.7132
 5861SOL    HW218483   6.220   3.694   3.001 -0.3610 -1.5886  1.4018
 5862SOL     OW18484   7.021   6.398   3.286 -0.1411 -0.3627  0.5558
 5862SOL    HW118485   6.944   6.343   3.253  1.0218 -0.5136 -2.2219
 5862SOL    HW218486   7.101   6.379   3.229  1.0918  2.1470  1.3256
 5863SOL     OW18487   1.320   2.429   1.090 -0.1315  0.0335 -0.6190
 5863SOL    HW118488   1.408   2.456   1.129 -0.2777 -0.3127 -0.0462
 5863SOL    HW218489   1.250   2.494   1.118 -0.2823 -0.3466 -0.0947
 5864SOL     OW18490   3.837   6.043   5.672 -0.0456  0.2971  0.5338
 5864SOL    HW118491   3.884   6.091   5.598  0.8080 -0.9445  0.2312
 5864SOL    HW218492   3.739   6.057   5.664  0.1643  1.7978  0.3432
 5865SOL     OW18493   6.060   0.800   4.548 -0.2458 -0.1257 -0.0811
 5865SOL    HW118494   6.083   0.787   4.645  1.2044 -0.3524 -0.4331
 5865SOL    HW218495   6.122   0.744   4.492 -0.1603  1.0582 -1.1956
 5866SOL     OW18496   3.703   6.594   6.348  0.0774  0.1540 -0.0333
 5866SOL    HW118497   3.772   6.524   6.331  1.6450  1.6740 -0.2660
 5866SOL    HW218498   3.744   6.685   6.335 -1.6284  1.1480  1.1232
 5867SOL     OW18499   6.654   2.145   2.156  0.1952  0.0322  0.5951
 5867SOL    HW118500   6.639   2.062   2.209  0.7851 -0.8699 -0.6088
 5867SOL    HW218501   6.571   2.169   2.106  0.2483 -0.2479  0.3734
 5868SOL     OW18502   0.165   6.536   4.355  0.4280 -0.2329 -0.2257
 5868SOL    HW118503   0.192   6.628   4.326 -1.2331  0.0926 -0.8437
 5868SOL    HW218504   0.119   6.490   4.279 -0.4118 -0.8832  0.6543
 5869SOL     OW18505   1.032   6.899   3.974  0.1749 -0.1653  0.0159
 5869SOL    HW118506   1.019   6.998   3.961  0.3526 -0.2464 -0.8533
 5869SOL    HW218507   0.965   6.866   4.041 -0.8730  0.2957 -0.7676
 5870SOL     OW18508   5.812   6.086   4.427  0.6992  0.3668  0.1449
 5870SOL    HW118509   5.753   6.107   4.350 -0.0039  1.3431  0.9312
 5870SOL    HW218510   5.895   6.040   4.393 -0.0486 -0.1568 -1.0606
 5871SOL     OW18511   4.101   5.475   2.444  0.0177  0.1899  0.4717
 5871SOL    HW118512   4.174   5.514   2.499  0.3508 -0.7753  0.7379
 5871SOL    HW218513   4.015   5.477   2.495  0.1323  0.1408  0.6651
 5872SOL     OW18514   4.506   5.931   4.198 -0.2590  0.6470 -0.0414
 5872SOL    HW118515   4.496   5.840   4.239  1.2248  0.9205  0.9899
 5872SOL    HW218516   4.435   5.991   4.235 -1.2870 -0.0673 -0.7696
 5873SOL     OW18517   2.164   2.193   2.249  0.2910  0.3782  0.0319
 5873SOL    HW118518   2.246   2.218   2.300  0.8337  0.4832 -0.8841
 5873SOL    HW218519   2.146   2.261   2.178 -0.9295  0.6760  0.5857
 5874SOL     OW18520   5.088   4.635   4.531 -0.2705  0.1074  0.8662
 5874SOL    HW118521   5.064   4.648   4.627 -0.6578  0.9063  0.6697
 5874SOL    HW218522   5.005   4.625   4.477 -0.0422 -0.8100  0.6705
 5875SOL     OW18523   5.230   3.040   0.606 -0.0074  0.6801  0.0611
 5875SOL    HW118524   5.290   3.119   0.595 -0.1712  0.7160 -0.5834
 5875SOL    HW218525   5.280   2.957   0.584  0.1103  0.6162  0.5583
 5876SOL     OW18526   3.644   3.775   6.470  0.0646  0.0879 -0.3595
 5876SOL    HW118527   3.562   3.764   6.413  0.4629 -1.1152 -0.7433
 5876SOL    HW218528   3.705   3.841   6.427 -0.1565  0.0610 -0.7227
 5877SOL     OW18529   6.702   4.683   4.207 -0.0874  0.2149  0.5239
 5877SOL    HW118530   6.690   4.781   4.226 -0.7854  0.0919  0.7419
 5877SOL    HW218531   6.633   4.631   4.257  0.0072 -0.3597  0.0581
 5878SOL     OW18532   5.445   3.609   2.617 -0.2962  0.0054 -0.0885
 5878SOL    HW118533   5.424   3.513   2.637  0.4268 -0.5588 -1.8620
 5878SOL    HW218534   5.365   3.653   2.576 -0.2133 -0.2128 -0.4862
 5879SOL     OW18535   2.185   4.744   6.951 -0.0227  0.0320 -0.0268
 5879SOL    HW118536   2.120   4.820   6.962  1.6950  1.7779 -1.1568
 5879SOL    HW218537   2.147   4.677   6.887 -1.1871  0.3941  0.2488
 5880SOL     OW18538   4.917   2.436   2.621  0.1937 -0.6256 -0.0817
 5880SOL    HW118539   4.905   2.533   2.600 -0.0399 -0.4980  0.6012
 5880SOL    HW218540   4.930   2.426   2.720 -2.1796 -1.5037  0.2026
 5881SOL     OW18541   6.999   5.734   4.070  0.1590 -0.1251 -0.1513
 5881SOL    HW118542   6.933   5.752   4.143 -0.0770  1.5538 -0.7380
 5881SOL    HW218543   6.984   5.641   4.035 -0.2863 -0.6455  1.3315
 5882SOL     OW18544   1.081   6.880   6.021  0.1274 -0.5060  0.1973
 5882SOL    HW118545   1.014   6.888   5.947  0.0722 -0.6015  0.2367
 5882SOL    HW218546   1.153   6.948   6.008  0.1179 -0.5218  0.0564
 5883SOL     OW18547   6.155   5.844   0.412 -0.2663 -0.1105 -0.4283
 5883SOL    HW118548   6.099   5.766   0.386 -1.4043  0.2103  0.9075
 5883SOL    HW218549   6.112   5.928   0.379 -0.8130  0.1636  0.9077
 5884SOL     OW18550   1.894   2.055   0.582  0.5920 -0.1713  0.2285
 5884SOL    HW118551   1.977   2.098   0.618  1.4490 -0.7979 -0.9540
 5884SOL    HW218552   1.826   2.048   0.655  0.5300  2.8217  0.6098
 5885SOL     OW18553   0.571   5.309   2.246  0.1809  0.0597 -0.0215
 5885SOL    HW118554   0.620   5.395   2.261  0.3901  0.1212 -1.0096
 5885SOL    HW218555   0.496   5.324   2.181  0.1137 -0.4697 -0.0685
 5886SOL     OW18556   2.019   6.280   3.182  0.2170  0.2456 -0.8945
 5886SOL    HW118557   1.923   6.307   3.168 -0.2069 -0.9751 -0.4410
 5886SOL    HW218558   2.026   6.180   3.179  1.1298  0.2014  1.1617
 5887SOL     OW18559   1.395   4.300   6.962  0.6828  0.5337  0.6551
 5887SOL    HW118560   1.453   4.228   6.924 -0.5669 -1.1551  1.8280
 5887SOL    HW218561   1.450   4.382   6.978  2.0545  0.0058 -1.0815
 5888SOL     OW18562   5.128   6.496   2.156  0.8878  0.1986  0.5282
 5888SOL    HW118563   5.088   6.407   2.178  0.0530  0.5276  0.4092
 5888SOL    HW218564   5.141   6.549   2.240  0.9398  0.1429  0.5548
 5889SOL     OW18565   3.712   2.654   1.753 -0.4782 -0.3893 -0.4497
 5889SOL    HW118566   3.695   2.566   1.797 -0.0672 -0.5284 -0.5605
 5889SOL    HW218567   3.796   2.694   1.790 -1.2065  0.4437  0.3428
 5890SOL     OW18568   2.272   5.648   1.788 -0.0406  0.1197 -0.0373
 5890SOL    HW118569   2.183   5.617   1.755  0.6489 -0.2036 -1.6898
 5890SOL    HW218570   2.322   5.690   1.712  1.5357 -0.4348  0.6694
 5891SOL     OW18571   2.148   2.808   6.984 -0.7020 -0.3402  0.2440
 5891SOL    HW118572   2.196   2.736   6.934  1.4359 -0.3446  2.1609
 5891SOL    HW218573   2.094   2.767   7.057 -1.9194 -0.1561 -0.5131
 5892SOL     OW18574   0.840   2.146   0.712  0.5369  0.6463 -0.5606
 5892SOL    HW118575   0.809   2.208   0.784  0.0070 -0.4013  0.1509
 5892SOL    HW218576   0.918   2.092   0.747 -1.1600 -1.5244  0.1491
 5893SOL     OW18577   2.957   5.550   1.265  0.3976 -0.3719  0.2384
 5893SOL    HW118578   3.051   5.542   1.233  0.4410 -0.7673  0.4589
 5893SOL    HW218579   2.955   5.594   1.354  0.4734 -1.3319  0.7328
 5894SOL     OW18580   4.783   5.902   0.375 -0.3320  0.5133  0.0522
 5894SOL    HW118581   4.690   5.891   0.342 -0.6096  1.1348  0.6192
 5894SOL    HW218582   4.808   5.999   0.375  0.9315  0.2491 -1.7290
 5895SOL     OW18583   4.900   3.217   4.683 -0.5865 -0.3607 -0.1279
 5895SOL    HW118584   4.901   3.313   4.712  0.0593 -0.4959  0.3074
 5895SOL    HW218585   4.850   3.163   4.750 -1.9690 -0.1719 -0.9435
 5896SOL     OW18586   5.658   3.239   1.229 -0.5240  0.2003 -0.3827
 5896SOL    HW118587   5.717   3.294   1.288 -0.1709 -2.0970  1.5424
 5896SOL    HW218588   5.577   3.209   1.281 -0.7684 -0.9656 -1.3867
 5897SOL     OW18589   3.257   4.054   0.091  0.6816  0.4673  0.1663
 5897SOL    HW118590   3.263   4.038   0.190  0.1319  1.0525  0.3003
 5897SOL    HW218591   3.303   4.140   0.069  0.4345  0.5507 -0.0259
 5898SOL     OW18592   4.532   0.625   5.159 -0.2643  0.2663  0.1719
 5898SOL    HW118593   4.579   0.571   5.089 -2.0482  0.5898 -1.3320
 5898SOL    HW218594   4.469   0.567   5.210  0.4156  0.2176  0.9934
 5899SOL     OW18595   6.587   2.308   0.250  0.5378 -0.2145  0.2272
 5899SOL    HW118596   6.541   2.351   0.172  1.2244 -0.6593 -0.4380
 5899SOL    HW218597   6.683   2.335   0.250  1.2092 -2.3867 -0.7195
 5900SOL     OW18598   3.993   5.694   4.297  0.3368  0.0219 -0.2699
 5900SOL    HW118599   4.055   5.626   4.256 -0.4091  0.7321 -2.7616
 5900SOL    HW218600   3.899   5.675   4.267 -0.2845  0.5922  1.2155
 5901SOL     OW18601   0.845   5.403   6.510  0.0742  0.3755  0.1542
 5901SOL    HW118602   0.789   5.338   6.458 -0.6371  1.0334  0.0796
 5901SOL    HW218603   0.847   5.376   6.606  1.6829 -1.0520 -0.2255
 5902SOL     OW18604   6.182   5.312   6.665  0.2979  0.2264 -0.1869
 5902SOL    HW118605   6.278   5.308   6.640  0.1578  2.1037 -1.2085
 5902SOL    HW218606   6.125   5.297   6.584 -0.2294  1.1112  0.0003
 5903SOL     OW18607   4.812   0.792   6.585  0.1793  0.2718 -1.0776
 5903SOL    HW118608   4.743   0.859   6.560 -0.9131 -1.0235 -1.6925
 5903SOL    HW218609   4.892   0.838   6.624 -1.4562  1.7449  0.7001
 5904SOL     OW18610   0.653   5.906   1.591  0.1594  0.2289 -0.1983
 5904SOL    HW118611   0.735   5.901   1.534  0.4549  0.4529  0.2054
 5904SOL    HW218612   0.575   5.930   1.535  0.4438  0.4141 -0.5168
 5905SOL     OW18613   6.711   2.624   3.707  0.1437 -0.2062 -0.4397
 5905SOL    HW118614   6.762   2.579   3.634 -0.2515  1.0002 -1.4999
 5905SOL    HW218615   6.750   2.600   3.796  0.1291 -2.3758 -0.9592
 5906SOL     OW18616   5.918   0.010   3.768 -0.3290 -0.1764  0.4019
 5906SOL    HW118617   5.842   0.049   3.716  0.8800 -0.3916 -1.6403
 5906SOL    HW218618   6.002   0.017   3.714  0.9410 -0.7785  2.2118
 5907SOL     OW18619   1.465   2.828   0.249  0.5036  0.1159 -0.0990
 5907SOL    HW118620   1.439   2.906   0.192  3.4727  0.3255 -1.3578
 5907SOL    HW218621   1.549   2.850   0.298  0.2112 -1.5588  1.2252
 5908SOL     OW18622   4.582   2.335   0.677 -0.3809  0.3191  0.1209
 5908SOL    HW118623   4.547   2.428   0.666  0.0398  0.1967 -3.6622
 5908SOL    HW218624   4.676   2.331   0.642 -1.7773 -2.2006 -4.1043
 5909SOL     OW18625   0.086   6.947   3.729  0.0126  0.1189 -0.2288
 5909SOL    HW118626   0.148   6.992   3.794  0.2005  0.6027 -0.7392
 5909SOL    HW218627  -0.008   6.969   3.752  0.1506  2.0388 -1.3798
 5910SOL     OW18628   1.801   6.158   1.481 -0.1011  0.5976 -0.6152
 5910SOL    HW118629   1.863   6.129   1.408 -1.1141 -0.4438 -1.0950
 5910SOL    HW218630   1.728   6.214   1.442  0.9671  2.5862  0.0781
 5911SOL     OW18631   0.850   0.793   4.954 -0.2871  0.1889 -0.3189
 5911SOL    HW118632   0.766   0.746   4.983  0.6101 -0.7511  0.8851
 5911SOL    HW218633   0.927   0.756   5.006  1.1127 -0.0272 -2.4613
 5912SOL     OW18634   0.906   4.315   5.557  0.5261 -0.4688  0.0110
 5912SOL    HW118635   0.875   4.406   5.585  1.4301 -0.3976  0.8334
 5912SOL    HW218636   0.967   4.323   5.478  0.7650 -0.3388  0.2078
 5913SOL     OW18637   0.692   1.954   5.902 -0.1117 -0.3904  0.6988
 5913SOL    HW118638   0.663   1.869   5.859  0.9312  0.4758 -1.9790
 5913SOL    HW218639   0.612   2.011   5.921 -0.6861 -1.2205  0.8162
 5914SOL     OW18640   1.010   1.732   0.883  0.4714 -0.0460 -0.2436
 5914SOL    HW118641   1.043   1.639   0.896  0.1923 -0.3156 -1.3553
 5914SOL    HW218642   1.057   1.773   0.805  1.0203  0.9623  0.5899
 5915SOL     OW18643   2.872   6.046   3.267 -0.4334 -0.2750 -0.4068
 5915SOL    HW118644   2.818   6.120   3.306  0.0065  0.5302 -1.2750
 5915SOL    HW218645   2.817   5.997   3.199 -0.9548 -1.2168  0.6440
 5916SOL     OW18646   3.134   2.086   5.949 -0.4343 -0.1501  0.0171
 5916SOL    HW118647   3.192   2.163   5.977 -0.3322 -1.0803  2.5949
 5916SOL    HW218648   3.040   2.117   5.937  0.0648  0.8537 -1.6286
 5917SOL     OW18649   1.871   2.116   0.941 -0.1281  0.0405 -0.0706
 5917SOL    HW118650   1.822   2.079   0.862  1.4030 -1.3815 -0.3946
 5917SOL    HW218651   1.916   2.042   0.991  1.9921  1.3020 -0.0017
 5918SOL     OW18652   2.112   1.089   2.607  0.0179 -0.1026 -0.0627
 5918SOL    HW118653   2.165   1.172   2.623 -4.4311  2.7864  1.5779
 5918SOL    HW218654   2.094   1.044   2.695 -0.1197 -1.1519 -0.6112
 5919SOL     OW18655   1.549   0.249   6.448  0.6853  0.1171 -0.0892
 5919SOL    HW118656   1.591   0.298   6.372  1.6305  1.1821  1.0860
 5919SOL    HW218657   1.597   0.271   6.533  0.6710 -2.2735  0.6165
 5920SOL     OW18658   2.915   3.642   5.724 -0.0824  0.6244 -0.9320
 5920SOL    HW118659   2.910   3.738   5.751  0.6655  0.2522  0.6625
 5920SOL    HW218660   2.835   3.618   5.670 -0.8913  1.8468 -0.3128
 5921SOL     OW18661   1.903   6.543   5.453 -0.3904  0.1217 -0.1752
 5921SOL    HW118662   1.833   6.498   5.508  0.8542  0.5179  1.8020
 5921SOL    HW218663   1.858   6.605   5.388 -1.9062  1.5565  2.0771
 5922SOL     OW18664   7.007   4.928   2.024  0.1378  0.1993  0.7708
 5922SOL    HW118665   7.046   4.973   2.105  0.9638  0.1744  0.3973
 5922SOL    HW218666   7.020   4.829   2.031 -0.0281  0.1736  0.7278
 5923SOL     OW18667   0.202   6.361   3.492  0.4421 -0.3727  0.4737
 5923SOL    HW118668   0.283   6.391   3.441  0.2506  0.9248  0.9093
 5923SOL    HW218669   0.123   6.360   3.431  0.3477  0.5280  0.5722
 5924SOL     OW18670   6.604   1.804   5.054  0.6474  0.1971  0.4152
 5924SOL    HW118671   6.550   1.733   5.098  1.9132 -0.6178  0.6943
 5924SOL    HW218672   6.551   1.889   5.051 -0.0526 -0.1392  2.1065
 5925SOL     OW18673   0.492   6.429   1.034  0.0744  0.2368 -0.3127
 5925SOL    HW118674   0.497   6.404   0.938 -0.8952 -0.3779 -0.2279
 5925SOL    HW218675   0.505   6.347   1.090 -3.0849 -0.1921 -0.0214
 5926SOL     OW18676   2.640   6.330   2.616 -0.2592  0.5742  0.5953
 5926SOL    HW118677   2.609   6.323   2.521  0.9428 -1.5994  0.3038
 5926SOL    HW218678   2.561   6.340   2.677 -1.1436  0.3556 -0.4893
 5927SOL     OW18679   3.092   4.596   0.776 -0.3403  0.1117  0.4630
 5927SOL    HW118680   3.094   4.574   0.678 -1.2938 -0.4396  0.5517
 5927SOL    HW218681   3.149   4.676   0.793  3.3511 -2.2161  0.1189
 5928SOL     OW18682   6.037   5.431   0.182  0.0694  0.5385 -0.4992
 5928SOL    HW118683   6.045   5.444   0.083  0.5789  0.5799 -0.4560
 5928SOL    HW218684   6.079   5.343   0.207  1.3233  1.2080 -0.1339
 5929SOL     OW18685   6.540   0.096   6.649  0.3467  0.3046 -0.0675
 5929SOL    HW118686   6.466   0.048   6.696  0.7445  0.0676  0.3179
 5929SOL    HW218687   6.612   0.032   6.625  1.0578  0.7642  0.7949
 5930SOL     OW18688   0.734   1.010   5.572 -0.4388 -0.1795 -0.0496
 5930SOL    HW118689   0.740   1.042   5.666  2.6410  2.0023 -0.8271
 5930SOL    HW218690   0.777   0.920   5.564 -1.2061 -0.6214  0.6842
 5931SOL     OW18691   6.216   5.234   1.055 -0.1543 -0.4122 -0.1674
 5931SOL    HW118692   6.168   5.308   1.009 -1.5819 -0.3292  1.3435
 5931SOL    HW218693   6.170   5.213   1.141  1.8381 -1.1791  0.7877
 5932SOL     OW18694   4.691   6.541   0.822  0.6015 -0.3604 -0.2551
 5932SOL    HW118695   4.680   6.637   0.796  0.9695 -0.4909 -0.9004
 5932SOL    HW218696   4.602   6.495   0.814  0.9878 -0.8028 -2.9899
 5933SOL     OW18697   5.484   0.406   4.576  0.4020 -0.0059 -0.2935
 5933SOL    HW118698   5.464   0.311   4.551 -0.7096  0.2330 -0.3774
 5933SOL    HW218699   5.398   0.457   4.580  0.6197  0.2937  2.7342
 5934SOL     OW18700   5.803   3.376   1.588 -0.0362 -0.8243 -0.0139
 5934SOL    HW118701   5.888   3.428   1.582 -0.1632 -0.7481 -2.4205
 5934SOL    HW218702   5.741   3.408   1.516 -1.7618 -1.4833  1.1335
 5935SOL     OW18703   3.618   3.213   2.858 -0.3450  0.3886  0.2782
 5935SOL    HW118704   3.588   3.240   2.767  0.5346 -0.5491 -0.3068
 5935SOL    HW218705   3.708   3.170   2.853  0.3397  1.5284  1.7667
 5936SOL     OW18706   5.983   4.405   6.503  0.3992  0.2690 -0.3456
 5936SOL    HW118707   5.914   4.380   6.572  1.4034 -0.6218  0.3776
 5936SOL    HW218708   6.075   4.390   6.541  0.9911 -1.2419 -2.2076
 5937SOL     OW18709   0.565   3.675   1.280 -0.1150 -0.0159  0.0712
 5937SOL    HW118710   0.664   3.669   1.286 -0.1629 -3.3979 -0.5158
 5937SOL    HW218711   0.528   3.710   1.366  1.4750 -0.3494  0.9178
 5938SOL     OW18712   2.150   4.344   1.565  0.2521 -0.1336  0.0031
 5938SOL    HW118713   2.101   4.344   1.478  0.5977  1.3950 -0.2184
 5938SOL    HW218714   2.178   4.251   1.588  0.3015 -0.5344 -1.6041
 5939SOL     OW18715   5.984   6.376   1.469 -0.0856  0.5907 -0.3221
 5939SOL    HW118716   5.997   6.278   1.456 -1.3283  0.1410  1.3471
 5939SOL    HW218717   6.055   6.426   1.420  0.4330 -1.1175 -1.4133
 5940SOL     OW18718   4.598   4.486   3.596 -0.3255  0.4710  0.1823
 5940SOL    HW118719   4.618   4.570   3.546 -1.4185  0.6336 -0.0092
 5940SOL    HW218720   4.499   4.478   3.608 -0.2827 -1.1684 -0.4431
 5941SOL     OW18721   5.245   2.738   2.891 -0.4476  0.6218 -0.5847
 5941SOL    HW118722   5.320   2.673   2.901  0.2312  1.4553 -0.1655
 5941SOL    HW218723   5.221   2.746   2.794 -1.1080 -0.8524 -0.5798
 5942SOL     OW18724   1.253   0.583   3.060  0.0690 -0.2815 -0.3687
 5942SOL    HW118725   1.302   0.539   2.985 -0.2800 -0.5416 -0.4445
 5942SOL    HW218726   1.185   0.520   3.097 -0.7628  0.3473 -0.7918
 5943SOL     OW18727   3.592   0.722   1.682  0.1194  0.3257  0.4676
 5943SOL    HW118728   3.666   0.731   1.749 -0.1325  2.5583  0.5291
 5943SOL    HW218729   3.507   0.756   1.722 -0.1689  1.1274 -0.7785
 5944SOL     OW18730   4.321   2.022   2.244  0.1116  0.3598 -0.2639
 5944SOL    HW118731   4.304   2.110   2.201  4.2425  1.0690 -0.9288
 5944SOL    HW218732   4.304   2.028   2.342 -1.1915  1.3513 -0.5292
 5945SOL     OW18733   0.303   6.557   6.830 -0.0228 -0.3411  0.1073
 5945SOL    HW118734   0.288   6.642   6.880  0.1556  0.8327 -1.7541
 5945SOL    HW218735   0.388   6.514   6.862 -0.2176  0.0607  1.1934
 5946SOL     OW18736   2.908   2.901   6.651  0.6854  0.3210 -0.5777
 5946SOL    HW118737   2.954   2.936   6.569  1.1569  0.4692 -0.2560
 5946SOL    HW218738   2.970   2.840   6.701 -0.1322 -0.9927 -1.1327
 5947SOL     OW18739   4.180   4.723   4.254 -0.0685 -0.1437 -0.0989
 5947SOL    HW118740   4.236   4.654   4.299 -3.2611 -1.2907  2.4941
 5947SOL    HW218741   4.184   4.710   4.155  2.5601 -1.3824  0.0805
 5948SOL     OW18742   1.201   5.730   3.142  0.1127  0.5086  0.0495
 5948SOL    HW118743   1.137   5.706   3.215  0.5184 -1.9852 -0.3474
 5948SOL    HW218744   1.255   5.650   3.116  0.6829  1.5652 -2.3250
 5949SOL     OW18745   6.366   2.003   3.013 -0.1836 -0.2659  0.3681
 5949SOL    HW118746   6.370   2.095   2.973 -0.7274  0.2973  1.5543
 5949SOL    HW218747   6.427   1.998   3.092 -1.5198 -0.3360  1.4276
 5950SOL     OW18748   2.077   2.303   3.279 -0.4249 -0.1953 -0.9147
 5950SOL    HW118749   2.095   2.205   3.264 -2.5655 -0.5815 -1.2330
 5950SOL    HW218750   1.983   2.324   3.253 -0.6660  1.5428  1.0976
 5951SOL     OW18751   1.098   2.169   5.721  0.2959  0.5440 -0.0647
 5951SOL    HW118752   1.146   2.089   5.685 -0.2420  1.1146 -2.1410
 5951SOL    HW218753   1.021   2.138   5.777  0.8257 -0.3759  0.1839
 5952SOL     OW18754   0.005   1.406   3.701  0.3012 -0.2746 -0.1757
 5952SOL    HW118755  -0.046   1.388   3.785 -0.4364  0.1873 -0.5034
 5952SOL    HW218756  -0.052   1.383   3.622  1.3458 -1.6522 -0.5632
 5953SOL     OW18757   1.240   5.648   5.074  0.1383 -0.0533 -0.1381
 5953SOL    HW118758   1.222   5.565   5.127 -1.5041 -0.1968 -0.8794
 5953SOL    HW218759   1.306   5.628   5.001 -0.3726 -0.7565 -0.4135
 5954SOL     OW18760   6.590   5.120   5.835 -0.0612 -0.1247  0.2696
 5954SOL    HW118761   6.530   5.067   5.775 -1.3979  3.3070 -1.7132
 5954SOL    HW218762   6.551   5.123   5.927 -0.7936 -1.1529  0.0136
 5955SOL     OW18763   3.090   4.320   1.732 -0.2252  0.3857 -0.0201
 5955SOL    HW118764   3.000   4.362   1.743 -0.6244 -0.9399  2.6098
 5955SOL    HW218765   3.160   4.392   1.728 -1.0388  1.4435  2.4890
 5956SOL     OW18766   0.756   1.490   6.796 -0.3706 -0.2574  0.0597
 5956SOL    HW118767   0.792   1.432   6.723 -1.0255 -0.9148  0.2558
 5956SOL    HW218768   0.741   1.435   6.878 -2.5538 -0.1771 -0.2404
 5957SOL     OW18769   2.860   5.729   6.522 -0.2341 -0.1993 -0.7249
 5957SOL    HW118770   2.813   5.679   6.450 -0.3725 -1.3397  0.1273
 5957SOL    HW218771   2.793   5.764   6.588 -0.0798  0.4597 -0.9142
 5958SOL     OW18772   2.801   0.264   1.655 -0.2740 -0.2668  0.3546
 5958SOL    HW118773   2.720   0.323   1.658  0.6286  1.0000  0.6827
 5958SOL    HW218774   2.867   0.303   1.591  0.0888 -1.3000  0.0767
 5959SOL     OW18775   0.887   3.191   3.734 -0.1074  0.1883  0.3983
 5959SOL    HW118776   0.929   3.101   3.740 -0.4730  0.0397  0.8512
 5959SOL    HW218777   0.921   3.239   3.654 -0.0388 -0.4236  0.0570
 5960SOL     OW18778   4.099   5.108   5.748  0.2153  0.4315 -0.7261
 5960SOL    HW118779   4.015   5.158   5.772 -0.1213 -0.4991  0.1215
 5960SOL    HW218780   4.077   5.011   5.736  0.7977  0.5033 -2.6463
 5961SOL     OW18781   1.363   0.953   4.591 -0.1339 -0.2206  0.0315
 5961SOL    HW118782   1.459   0.941   4.567  0.3118 -0.4048  1.7532
 5961SOL    HW218783   1.312   0.871   4.565  0.2543 -0.3156 -0.4607
 5962SOL     OW18784   5.021   3.678   3.011 -0.2301 -0.0895  0.6781
 5962SOL    HW118785   4.959   3.682   2.933 -0.0933  1.4141  0.6214
 5962SOL    HW218786   5.080   3.598   3.002  1.3889  1.2765 -2.0138
 5963SOL     OW18787   4.839   5.010   1.254  0.2713 -0.3143 -0.0855
 5963SOL    HW118788   4.805   4.921   1.284  2.4215 -0.8519  0.9417
 5963SOL    HW218789   4.814   5.024   1.158  1.2298 -2.7565 -0.7723
 5964SOL     OW18790   1.912   2.739   5.103 -0.2189  0.2032 -0.5074
 5964SOL    HW118791   1.829   2.737   5.047 -0.4818  1.1212 -0.1604
 5964SOL    HW218792   1.956   2.828   5.093 -1.0475  0.9344  1.8750
 5965SOL     OW18793   2.743   1.004   4.620  0.2165 -0.1926  0.0178
 5965SOL    HW118794   2.691   0.957   4.692 -0.4006  0.6952  0.1670
 5965SOL    HW218795   2.830   1.036   4.658 -0.5215  1.1280  0.6719
 5966SOL     OW18796   1.262   6.319   2.436 -0.4084 -0.1185 -0.1577
 5966SOL    HW118797   1.326   6.374   2.381 -0.2889  1.0384  1.0934
 5966SOL    HW218798   1.281   6.222   2.421 -0.5228  0.1291 -2.3114
 5967SOL     OW18799   6.001   4.166   1.493  0.2079  0.0418  0.2614
 5967SOL    HW118800   6.045   4.256   1.498 -0.4705  0.6480 -2.9530
 5967SOL    HW218801   5.935   4.157   1.568  1.4139  1.5248  1.5828
 5968SOL     OW18802   2.073   0.908   3.589 -0.3136  0.3853 -0.1619
 5968SOL    HW118803   2.135   0.844   3.544 -1.4024 -0.7321 -0.1471
 5968SOL    HW218804   2.006   0.941   3.523 -1.6891 -0.9701  0.4952
 5969SOL     OW18805   6.765   2.638   2.418  0.6861  0.2570 -0.1055
 5969SOL    HW118806   6.681   2.669   2.462  1.3493  0.2630  1.2072
 5969SOL    HW218807   6.749   2.551   2.372 -0.3003  0.7948 -0.8123
 5970SOL     OW18808   2.009   5.290   6.379 -0.0780  0.0832 -0.4911
 5970SOL    HW118809   1.985   5.314   6.285 -1.2121 -1.0255 -0.5114
 5970SOL    HW218810   1.936   5.320   6.440  1.1912  1.8922  0.2399
 5971SOL     OW18811   1.914   5.541   2.636 -0.7284 -0.3987 -0.1745
 5971SOL    HW118812   2.009   5.512   2.634 -0.9956 -1.3257  0.3861
 5971SOL    HW218813   1.889   5.577   2.546 -0.3615 -1.8396 -0.8787
 5972SOL     OW18814   4.973   6.345   1.196 -0.0457 -0.1318 -0.2886
 5972SOL    HW118815   4.876   6.341   1.218  0.1264 -1.9815  0.2691
 5972SOL    HW218816   4.993   6.432   1.151 -2.1423 -0.1413 -1.3493
 5973SOL     OW18817   2.168   4.812   2.405  0.2164  0.4688  0.2609
 5973SOL    HW118818   2.182   4.775   2.497  0.7100 -0.4485 -0.1684
 5973SOL    HW218819   2.246   4.789   2.347  1.4494  3.7177  0.4000
 5974SOL     OW18820   0.997   2.732   6.350  0.1011  0.0967 -0.2617
 5974SOL    HW118821   0.949   2.757   6.435  2.1482  0.1837  0.9216
 5974SOL    HW218822   0.969   2.640   6.322  2.3364 -1.7332  2.8794
 5975SOL     OW18823   1.248   1.853   3.992  0.4670 -0.0057  0.0487
 5975SOL    HW118824   1.299   1.797   4.057  0.2722  1.3080  1.3908
 5975SOL    HW218825   1.150   1.840   4.007  0.4198  0.1574 -0.1127
 5976SOL     OW18826   2.144   4.010   5.461 -0.0292  0.1234  0.1378
 5976SOL    HW118827   2.175   3.928   5.413 -1.1485 -0.4949  0.4295
 5976SOL    HW218828   2.068   3.986   5.522 -0.9023  1.5165 -0.3603
 5977SOL     OW18829   1.272   3.406   2.532  0.3434  0.0884 -0.2837
 5977SOL    HW118830   1.275   3.306   2.532  0.2183  0.0630  0.8926
 5977SOL    HW218831   1.334   3.442   2.463  0.9634 -0.7897 -0.1949
 5978SOL     OW18832   6.731   6.395   2.029 -0.1087 -0.3379 -0.1727
 5978SOL    HW118833   6.685   6.319   1.984 -0.1747 -0.7479  0.5741
 5978SOL    HW218834   6.773   6.454   1.960 -3.0943  0.9796 -1.0553
 5979SOL     OW18835   0.156   2.084   0.786 -0.0381  0.2636  0.0138
 5979SOL    HW118836   0.108   2.119   0.706 -0.2729 -1.2407 -0.5464
 5979SOL    HW218837   0.252   2.110   0.782 -0.2393  0.9682 -0.2782
 5980SOL     OW18838   5.792   2.809   4.428 -0.3938  0.0217  0.6491
 5980SOL    HW118839   5.710   2.850   4.468 -0.2669 -1.0606  2.0997
 5980SOL    HW218840   5.782   2.806   4.328 -1.4114  1.3551  0.6823
 5981SOL     OW18841   3.014   1.076   6.599 -0.1201 -0.1710 -0.4051
 5981SOL    HW118842   3.000   1.107   6.505  0.7607  0.0447 -0.4737
 5981SOL    HW218843   2.942   1.114   6.658  1.7965  3.5604 -0.1624
 5982SOL     OW18844   6.151   1.886   0.090  0.2561  0.3667 -0.0572
 5982SOL    HW118845   6.118   1.976   0.061  0.0013  1.0615  2.1863
 5982SOL    HW218846   6.078   1.819   0.079 -0.1626  0.8093 -0.0203
 5983SOL     OW18847   0.593   2.038   5.074 -0.0484 -0.4175 -0.0390
 5983SOL    HW118848   0.643   2.120   5.105 -1.5282 -1.0032  4.6357
 5983SOL    HW218849   0.642   1.956   5.104 -0.7854 -1.1674 -0.8377
 5984SOL     OW18850   6.004   5.915   0.930 -0.0330  0.2781  0.4205
 5984SOL    HW118851   6.023   5.837   0.871 -0.9355  1.0133 -0.8979
 5984SOL    HW218852   5.956   5.885   1.012  0.5255 -0.6634  0.4083
 5985SOL     OW18853   5.699   3.627   3.495  0.3989  0.6365  0.5304
 5985SOL    HW118854   5.710   3.650   3.591  0.3536  2.2872  0.1744
 5985SOL    HW218855   5.727   3.705   3.439 -0.7893  0.1856 -0.7560
 5986SOL     OW18856   3.358   3.233   2.976 -0.5515  0.5211 -0.0209
 5986SOL    HW118857   3.448   3.249   2.936 -0.4745  1.7108  0.5970
 5986SOL    HW218858   3.319   3.320   3.007 -2.2429  0.1597 -0.9615
 5987SOL     OW18859   3.127   1.618   3.193 -0.0089  0.0339 -0.8971
 5987SOL    HW118860   3.084   1.692   3.244 -0.7251 -0.9136 -0.0990
 5987SOL    HW218861   3.220   1.603   3.229 -0.8117 -1.2020  0.7680
 5988SOL     OW18862   2.804   0.844   5.083 -0.4385  0.0124 -0.1338
 5988SOL    HW118863   2.781   0.749   5.101 -0.0325  0.0934  0.9006
 5988SOL    HW218864   2.903   0.854   5.074 -0.4432  0.4020  0.2044
 5989SOL     OW18865   3.641   0.761   6.504 -0.7573 -0.1573 -0.2024
 5989SOL    HW118866   3.596   0.823   6.568  0.4170  1.7942 -1.1721
 5989SOL    HW218867   3.709   0.706   6.553 -1.0760  0.0758  0.5159
 5990SOL     OW18868   1.283   0.607   3.399  0.1320  0.5583 -0.0859
 5990SOL    HW118869   1.333   0.681   3.353  1.1169  0.3347  0.5982
 5990SOL    HW218870   1.287   0.525   3.343  0.8210  0.4501  0.1177
 5991SOL     OW18871   3.518   4.808   1.623 -0.7395  0.2385  0.7060
 5991SOL    HW118872   3.535   4.730   1.683  0.0793 -1.1855 -1.2660
 5991SOL    HW218873   3.420   4.814   1.602 -1.1426  1.1663  2.6220
 5992SOL     OW18874   4.723   2.799   2.417  0.4668 -0.0278  0.2934
 5992SOL    HW118875   4.783   2.879   2.408 -0.5069  0.5566 -1.4432
 5992SOL    HW218876   4.692   2.771   2.326 -0.9405 -1.0415  1.0632
 5993SOL     OW18877   1.782   3.883   5.123 -0.3460 -0.0412 -0.0369
 5993SOL    HW118878   1.836   3.931   5.053  1.5183 -1.3257  0.4481
 5993SOL    HW218879   1.840   3.818   5.171 -2.4689 -1.8148  0.2704
 5994SOL     OW18880   6.342   3.442   3.101 -0.3116 -0.4325  0.2351
 5994SOL    HW118881   6.432   3.485   3.113 -0.5340  0.2562 -0.4947
 5994SOL    HW218882   6.350   3.344   3.116  1.0093 -0.7075 -1.8920
 5995SOL     OW18883   0.474   6.374   0.777  0.4748  1.0618 -0.4166
 5995SOL    HW118884   0.401   6.307   0.792 -0.3422  1.7100 -1.4025
 5995SOL    HW218885   0.536   6.341   0.705  1.1259  0.5609  0.3462
 5996SOL     OW18886   0.826   6.465   6.621  0.1382  0.5659  0.3043
 5996SOL    HW118887   0.911   6.412   6.626 -0.6659 -0.6634  1.3999
 5996SOL    HW218888   0.770   6.431   6.546  0.5721  1.3711 -0.4121
 5997SOL     OW18889   0.078   6.849   0.110 -0.7273 -0.7304  0.0661
 5997SOL    HW118890  -0.012   6.817   0.140 -0.6208 -0.9877  0.1114
 5997SOL    HW218891   0.123   6.897   0.185 -1.0162 -0.1951 -0.0971
 5998SOL     OW18892   5.283   3.392   2.308 -0.3321 -0.4976 -0.6413
 5998SOL    HW118893   5.310   3.448   2.230 -0.6652 -0.9965 -1.1239
 5998SOL    HW218894   5.283   3.296   2.282 -1.1359 -0.6174 -0.2298
 5999SOL     OW18895   1.741   2.880   2.448 -0.2997 -0.5696 -0.5526
 5999SOL    HW118896   1.735   2.953   2.380  1.8640  0.4857  0.2890
 5999SOL    HW218897   1.747   2.792   2.403  1.9622  0.1607 -1.8136
 6000SOL     OW18898   6.558   0.627   3.480  0.0010 -0.0515 -0.0608
 6000SOL    HW118899   6.649   0.585   3.470 -0.4405 -1.2804  0.7986
 6000SOL    HW218900   6.534   0.674   3.395  1.2620 -0.0671 -0.4564
 6001SOL     OW18901   3.424   1.634   6.943  0.1896 -0.5614 -0.3779
 6001SOL    HW118902   3.482   1.611   7.021  0.9257 -1.2683 -1.1144
 6001SOL    HW218903   3.417   1.734   6.935 -1.0623 -0.4652  1.4176
 6002SOL     OW18904   1.297   0.565   3.834 -0.1523  0.3393 -0.1799
 6002SOL    HW118905   1.294   0.628   3.757 -2.4413 -0.8327 -1.1522
 6002SOL    HW218906   1.372   0.500   3.820 -0.6732 -0.0055 -1.5878
 6003SOL     OW18907   5.737   6.186   4.169 -0.1841 -0.6571 -0.2434
 6003SOL    HW118908   5.778   6.267   4.126  0.8778  0.2009  2.1933
 6003SOL    HW218909   5.728   6.114   4.101 -0.1547  1.1302 -2.2611
 6004SOL     OW18910   0.854   3.113   0.905  0.6289  0.5850 -0.1732
 6004SOL    HW118911   0.896   3.120   0.814  1.0776  3.4752  0.1418
 6004SOL    HW218912   0.755   3.112   0.896  0.6823 -0.3557 -0.7241
 6005SOL     OW18913   3.240   6.578   2.909 -0.2079  0.0204  0.5710
 6005SOL    HW118914   3.324   6.618   2.946 -1.3979  2.1160  1.1661
 6005SOL    HW218915   3.239   6.589   2.810  0.3266 -0.2796  0.5244
 6006SOL     OW18916   2.054   6.832   6.770  0.3901 -0.7448  0.0683
 6006SOL    HW118917   2.126   6.787   6.823  0.8175 -0.5223 -0.3156
 6006SOL    HW218918   2.058   6.800   6.675  0.4284 -0.2199 -0.1122
 6007SOL     OW18919   4.914   3.708   3.725 -0.1416 -0.2767  0.4437
 6007SOL    HW118920   4.867   3.708   3.812  1.2662  1.0048  1.2654
 6007SOL    HW218921   4.940   3.615   3.700  0.2338 -0.5689  1.8605
 6008SOL     OW18922   6.085   2.156   2.372  0.4403 -0.1431 -0.1017
 6008SOL    HW118923   6.074   2.078   2.433 -0.9422 -1.1739 -1.6132
 6008SOL    HW218924   6.145   2.223   2.416 -1.6754 -0.0959  3.0747
 6009SOL     OW18925   3.548   0.332   5.442 -0.7764  0.1865 -0.0459
 6009SOL    HW118926   3.575   0.235   5.437  0.6557  0.5874 -0.6419
 6009SOL    HW218927   3.580   0.370   5.528 -1.0671  0.2118  0.0508
 6010SOL     OW18928   0.907   4.756   3.057  0.0553 -0.5205 -0.3401
 6010SOL    HW118929   0.874   4.826   3.120 -1.6078 -0.0585 -1.6385
 6010SOL    HW218930   0.892   4.665   3.096  2.4963 -0.2255  1.4855
 6011SOL     OW18931   6.058   2.427   1.534 -0.3333 -0.3962 -0.6792
 6011SOL    HW118932   6.027   2.372   1.612 -1.3241 -2.2096 -2.2640
 6011SOL    HW218933   6.154   2.406   1.516 -0.4754 -1.0178 -0.7552
 6012SOL     OW18934   1.390   3.024   0.097  0.1750  0.3362  0.4521
 6012SOL    HW118935   1.301   3.048   0.056  0.0392  0.1057  0.6076
 6012SOL    HW218936   1.442   2.968   0.033  0.3145  0.6920  0.2578
 6013SOL     OW18937   3.974   6.328   3.925  0.4888  0.1581 -0.7171
 6013SOL    HW118938   3.906   6.270   3.970  0.9204 -0.8736 -1.3768
 6013SOL    HW218939   3.934   6.419   3.910 -0.0860  0.1569  0.6006
 6014SOL     OW18940   5.400   5.813   7.001 -0.1637 -0.2791 -0.1040
 6014SOL    HW118941   5.316   5.761   7.016  0.3212 -0.8535  0.7331
 6014SOL    HW218942   5.413   5.828   6.903 -1.2977 -0.0675 -0.2365
 6015SOL     OW18943   6.139   6.742   4.473 -0.0327 -0.0730 -0.1897
 6015SOL    HW118944   6.213   6.807   4.453  2.1793 -1.7792  1.8867
 6015SOL    HW218945   6.064   6.789   4.519  0.8130  1.2739 -0.1413
 6016SOL     OW18946   0.180   0.172   5.332  1.4617 -0.3961  0.1009
 6016SOL    HW118947   0.226   0.229   5.263  1.5745 -1.4783 -0.7436
 6016SOL    HW218948   0.238   0.094   5.355  0.5956 -1.0982 -0.0404
 6017SOL     OW18949   0.341   2.992   2.461  0.0135 -0.0188 -0.0467
 6017SOL    HW118950   0.393   3.073   2.434  0.2358 -0.1803 -0.1054
 6017SOL    HW218951   0.321   2.937   2.380  1.0828 -0.7474  0.1536
 6018SOL     OW18952   2.544   4.635   2.797  0.1737 -0.3432  0.4353
 6018SOL    HW118953   2.557   4.656   2.700  0.5453 -1.6126  0.1941
 6018SOL    HW218954   2.457   4.587   2.810  0.8833 -1.6901  0.4575
 6019SOL     OW18955   0.469   6.883   5.111  0.1233 -0.6525 -0.3961
 6019SOL    HW118956   0.491   6.847   5.021  0.5298 -1.5387  0.0431
 6019SOL    HW218957   0.527   6.962   5.131  2.2645 -2.3253  0.3201
 6020SOL     OW18958   3.360   0.291   3.645  0.0112  0.7681  0.2918
 6020SOL    HW118959   3.321   0.306   3.736 -0.2699  0.7478  0.1786
 6020SOL    HW218960   3.290   0.250   3.586  0.6951 -0.7881  0.5257
 6021SOL     OW18961   0.936   0.594   2.990  0.7112  0.2313 -0.5364
 6021SOL    HW118962   0.986   0.549   3.065 -3.1932 -0.2482  2.0554
 6021SOL    HW218963   0.906   0.525   2.924  0.2136 -0.0650 -0.0102
 6022SOL     OW18964   2.613   2.755   5.406  0.3713 -0.4120 -0.3279
 6022SOL    HW118965   2.591   2.713   5.494  0.6789 -0.0629 -0.0817
 6022SOL    HW218966   2.547   2.725   5.337 -0.5901  0.2183  0.2841
 6023SOL     OW18967   6.437   2.521   3.092  0.3252 -0.5329  0.0651
 6023SOL    HW118968   6.528   2.535   3.053  0.6044 -1.8790  0.1496
 6023SOL    HW218969   6.446   2.471   3.179 -0.3745  1.1663  1.1559
 6024SOL     OW18970   5.866   5.013   0.616  0.4668 -0.4053 -0.3181
 6024SOL    HW118971   5.914   5.037   0.532  2.0970  2.9594  1.3508
 6024SOL    HW218972   5.768   5.009   0.599  0.7406  0.2661 -2.3442
 6025SOL     OW18973   5.220   1.725   3.795 -0.3543 -0.1423  0.0475
 6025SOL    HW118974   5.236   1.804   3.854  1.8665  1.3220 -2.2554
 6025SOL    HW218975   5.268   1.646   3.832 -3.2528 -0.8086  2.8121
 6026SOL     OW18976   0.618   3.739   3.067 -0.1834  0.8682  0.3653
 6026SOL    HW118977   0.607   3.801   3.145 -0.0720  0.4813  0.6943
 6026SOL    HW218978   0.624   3.792   2.983 -0.5019  1.2829  0.5988
 6027SOL     OW18979   3.971   2.937   6.570  0.0657  0.0236  0.2016
 6027SOL    HW118980   3.965   2.960   6.473  0.1778 -3.3319 -0.7167
 6027SOL    HW218981   4.066   2.917   6.595 -0.1300 -0.3780  0.6519
 6028SOL     OW18982   6.773   2.197   4.355  0.5186 -0.3947  0.9642
 6028SOL    HW118983   6.673   2.190   4.356  0.5434 -0.8645  0.6944
 6028SOL    HW218984   6.810   2.161   4.441  0.4560 -0.2648  1.0447
 6029SOL     OW18985   5.787   5.131   2.384  0.7056 -0.4959  0.2952
 6029SOL    HW118986   5.818   5.079   2.464  0.3073  0.5683  1.1662
 6029SOL    HW218987   5.705   5.089   2.347 -0.4941  0.3030  1.9104
 6030SOL     OW18988   3.161   5.945   1.755  0.1455  0.3024  0.8369
 6030SOL    HW118989   3.102   5.980   1.828 -0.1468  0.9713  0.2837
 6030SOL    HW218990   3.232   6.013   1.734  2.0342 -1.0385  2.4668
 6031SOL     OW18991   3.254   2.049   4.995  0.2698 -0.5631  0.1152
 6031SOL    HW118992   3.175   2.110   5.000 -1.0222 -2.2243  0.8262
 6031SOL    HW218993   3.331   2.091   5.043 -1.0444 -0.1267  1.9507
 6032SOL     OW18994   0.609   3.133   0.817  0.0587 -0.3545  0.2455
 6032SOL    HW118995   0.550   3.092   0.887  1.0647 -1.0619  0.7066
 6032SOL    HW218996   0.579   3.226   0.797 -0.4514 -0.2663  1.3707
 6033SOL     OW18997   0.033   6.696   2.500 -0.3675 -0.1650  0.0101
 6033SOL    HW118998   0.118   6.697   2.446 -0.2684  0.5209  0.1628
 6033SOL    HW218999  -0.003   6.603   2.504  1.2112 -0.7707  1.2325
 6034SOL     OW19000   2.862   5.996   5.940 -0.0851  0.6347  0.3864
 6034SOL    HW119001   2.803   5.966   5.865 -0.2255  0.4554  0.5665
 6034SOL    HW219002   2.947   5.943   5.939 -0.2750  0.3181  0.6211
 6035SOL     OW19003   5.307   6.186   4.671  0.0323  0.4720 -0.2412
 6035SOL    HW119004   5.267   6.247   4.602 -0.4634  2.2566  1.5309
 6035SOL    HW219005   5.401   6.214   4.690 -0.0766  0.4610  0.3276
 6036SOL     OW19006   5.100   1.489   5.413  0.1184 -0.1550 -0.2679
 6036SOL    HW119007   5.016   1.465   5.365  0.5890 -1.0248 -0.6860
 6036SOL    HW219008   5.179   1.453   5.362  0.7636  0.8521 -0.0140
 6037SOL     OW19009   0.584   4.563   3.981 -0.1256  0.7852 -0.4094
 6037SOL    HW119010   0.519   4.639   3.970  1.3189  2.2545  0.6950
 6037SOL    HW219011   0.677   4.597   3.967  0.6598 -0.5015  1.3578
 6038SOL     OW19012   6.003   3.642   6.290 -0.0167 -0.7039 -0.6375
 6038SOL    HW119013   6.060   3.665   6.368 -1.5616  0.6970  0.1281
 6038SOL    HW219014   5.910   3.622   6.321 -0.8705  0.6798 -2.1610
 6039SOL     OW19015   3.295   3.900   3.332 -0.2888  0.2417  0.5496
 6039SOL    HW119016   3.290   3.998   3.352 -0.3761  0.1083  1.2184
 6039SOL    HW219017   3.355   3.885   3.253 -2.7491  1.0877 -1.6272
 6040SOL     OW19018   1.355   2.898   1.342 -0.3550 -0.4283  0.1277
 6040SOL    HW119019   1.309   2.979   1.379 -1.1764 -1.0222  0.4403
 6040SOL    HW219020   1.425   2.867   1.406 -2.2252 -1.8498  1.5926
 6041SOL     OW19021   6.838   5.220   1.029 -0.1998  0.1672 -0.9525
 6041SOL    HW119022   6.754   5.193   0.982 -1.6160  0.3239  1.3072
 6041SOL    HW219023   6.912   5.159   1.003 -1.2015 -0.4860 -2.4077
 6042SOL     OW19024   1.584   5.797   6.507  0.0883 -0.1155 -0.3816
 6042SOL    HW119025   1.579   5.858   6.587  1.2595 -1.0635  0.4439
 6042SOL    HW219026   1.640   5.840   6.436 -0.3863  0.4372 -0.4288
 6043SOL     OW19027   6.195   2.382   3.459 -0.3411 -0.3446 -0.1904
 6043SOL    HW119028   6.238   2.307   3.410  2.1478  1.3333 -0.7647
 6043SOL    HW219029   6.153   2.446   3.394 -0.2142  0.0503  0.1093
 6044SOL     OW19030   1.921   2.201   0.152  0.1243 -0.1356  0.1724
 6044SOL    HW119031   1.997   2.144   0.124  0.9301 -0.1714  2.2711
 6044SOL    HW219032   1.901   2.268   0.081  2.1781 -0.0748 -0.3889
 6045SOL     OW19033   0.222   4.726   5.110  0.1191 -0.3257 -0.2837
 6045SOL    HW119034   0.276   4.655   5.064 -0.6852 -0.9862 -0.2388
 6045SOL    HW219035   0.134   4.687   5.138 -0.9367  1.0583 -1.5445
 6046SOL     OW19036   0.544   4.016   6.424  0.0775 -0.2357  0.3567
 6046SOL    HW119037   0.467   3.970   6.468  0.1675 -0.8414 -0.1038
 6046SOL    HW219038   0.629   3.993   6.473  0.1133 -0.5019  0.1693
 6047SOL     OW19039   0.300   6.212   5.945  0.1392 -0.3407  0.6594
 6047SOL    HW119040   0.241   6.252   5.876 -0.8975  0.4131  1.9385
 6047SOL    HW219041   0.322   6.117   5.920  1.5871  0.5571 -1.7565
 6048SOL     OW19042   4.615   6.004   3.035  0.3098 -0.2297  0.5018
 6048SOL    HW119043   4.533   5.953   3.007  1.0033 -0.3654 -1.4353
 6048SOL    HW219044   4.697   5.950   3.016  0.9156  0.2028  1.7394
 6049SOL     OW19045   6.310   3.508   0.603  0.4946  0.2284  0.2894
 6049SOL    HW119046   6.237   3.532   0.540 -0.4023 -4.3489 -0.6964
 6049SOL    HW219047   6.397   3.504   0.553  0.1372 -1.3762 -0.2323
 6050SOL     OW19048   5.351   4.734   4.451  0.0061 -0.2228 -0.7985
 6050SOL    HW119049   5.369   4.681   4.368 -0.5547  0.1513 -1.1665
 6050SOL    HW219050   5.258   4.715   4.483  0.3412 -0.6352 -0.0467
 6051SOL     OW19051   3.888   1.990   3.181 -0.0111  0.4351 -0.0208
 6051SOL    HW119052   3.791   1.969   3.186  0.3608 -1.1973  1.0551
 6051SOL    HW219053   3.938   1.912   3.143  1.2211 -0.1359  2.5152
 6052SOL     OW19054   2.148   1.556   6.025 -0.0065  0.9101 -0.2658
 6052SOL    HW119055   2.134   1.609   5.941  0.9038 -2.0313 -2.4544
 6052SOL    HW219056   2.061   1.516   6.054 -0.2231  1.4762 -0.1250
 6053SOL     OW19057   6.318   1.077   0.540 -0.4268  0.2567  0.0596
 6053SOL    HW119058   6.232   1.047   0.579 -0.2155  0.7731  0.9577
 6053SOL    HW219059   6.311   1.078   0.440 -1.2943 -0.1591  0.1084
 6054SOL     OW19060   0.075   3.396   4.233  0.2740  0.2707 -0.2051
 6054SOL    HW119061   0.026   3.467   4.183 -1.3207  0.5311  1.6056
 6054SOL    HW219062   0.158   3.371   4.183 -2.0719 -0.8567 -3.9009
 6055SOL     OW19063   4.536   6.014   5.761  0.7891 -0.0088  0.3899
 6055SOL    HW119064   4.437   6.023   5.753  0.7175 -1.6614 -1.2578
 6055SOL    HW219065   4.559   5.958   5.841  0.3918  0.1400  0.6087
 6056SOL     OW19066   4.848   4.198   6.487 -0.4902 -0.3735 -0.8774
 6056SOL    HW119067   4.881   4.242   6.571 -1.0266 -3.0814  0.8913
 6056SOL    HW219068   4.748   4.190   6.490 -0.3538 -3.0558 -0.2459
 6057SOL     OW19069   3.906   0.482   5.795  0.0228  0.5690 -0.1008
 6057SOL    HW119070   3.888   0.444   5.704  3.3160  0.0857 -0.6733
 6057SOL    HW219071   3.940   0.576   5.785 -1.5494  1.2707  0.8315
 6058SOL     OW19072   4.798   0.482   3.348  0.6456 -0.5636  0.2783
 6058SOL    HW119073   4.807   0.385   3.327  0.4967 -0.6977  0.8334
 6058SOL    HW219074   4.876   0.532   3.309 -1.1054 -0.3378 -3.3141
 6059SOL     OW19075   5.984   5.620   2.762 -0.7196  0.2561 -0.4221
 6059SOL    HW119076   6.019   5.667   2.681  1.3276  0.9063  0.7624
 6059SOL    HW219077   5.912   5.675   2.803  0.6282  1.7248  0.1043
 6060SOL     OW19078   2.472   5.652   6.149  0.4507 -0.1776 -0.8916
 6060SOL    HW119079   2.431   5.640   6.058  0.2268 -0.4408 -0.7591
 6060SOL    HW219080   2.471   5.749   6.172 -2.2240 -0.3338  0.0468
 6061SOL     OW19081   1.044   1.355   5.457  0.2797  0.5605  1.1673
 6061SOL    HW119082   1.005   1.398   5.376 -2.1183 -0.6208  1.6063
 6061SOL    HW219083   1.077   1.425   5.520 -0.0482  1.5874  0.2114
 6062SOL     OW19084   3.648   5.377   3.532  0.2738  0.0849 -0.4844
 6062SOL    HW119085   3.611   5.415   3.447  0.0822 -0.4461 -0.6478
 6062SOL    HW219086   3.573   5.337   3.585  0.7004 -2.0259 -1.3406
 6063SOL     OW19087   6.600   5.990   1.418 -0.3472 -0.2775  0.1604
 6063SOL    HW119088   6.581   5.906   1.367 -0.6030  0.2643 -0.6696
 6063SOL    HW219089   6.532   6.059   1.393  0.1178  0.3049  0.5026
 6064SOL     OW19090   1.022   0.312   0.784  0.1366  0.3327  0.1663
 6064SOL    HW119091   1.102   0.345   0.735  0.4300 -1.1501 -0.4182
 6064SOL    HW219092   0.963   0.261   0.721  0.1965 -1.0719  1.1795
 6065SOL     OW19093   5.782   5.176   0.373  0.1983 -0.7566  0.1470
 6065SOL    HW119094   5.684   5.163   0.386  0.2646 -0.6521  0.7832
 6065SOL    HW219095   5.808   5.266   0.407  0.3833 -0.4571 -0.7614
 6066SOL     OW19096   4.143   0.352   5.891 -0.4553 -0.1676  0.2941
 6066SOL    HW119097   4.048   0.379   5.876 -0.3502 -0.6922 -1.5882
 6066SOL    HW219098   4.204   0.414   5.842  0.1359 -0.2895  0.8554
 6067SOL     OW19099   5.514   2.159   1.074  0.5275 -0.3808 -0.0763
 6067SOL    HW119100   5.540   2.223   1.146  1.6755  1.9364 -2.3550
 6067SOL    HW219101   5.595   2.107   1.045 -0.0174 -1.6186  0.5679
 6068SOL     OW19102   5.197   0.374   0.913  0.2829 -0.5973 -1.0478
 6068SOL    HW119103   5.272   0.439   0.903  0.9306 -0.9808  0.9057
 6068SOL    HW219104   5.234   0.282   0.929 -0.5128 -0.6095  1.1522
 6069SOL     OW19105   0.643   6.702   3.392 -0.1945  0.6881 -0.2599
 6069SOL    HW119106   0.548   6.735   3.389  0.0641  1.5350  0.3869
 6069SOL    HW219107   0.671   6.690   3.488 -0.5843 -2.4408 -0.4250
 6070SOL     OW19108   2.329   2.622   1.670 -0.0424 -0.8767  0.6838
 6070SOL    HW119109   2.353   2.651   1.578  0.4883 -1.7038  0.5544
 6070SOL    HW219110   2.327   2.702   1.731 -1.7361 -0.1174 -0.3006
 6071SOL     OW19111   6.031   6.946   5.335 -0.1541 -0.1224  0.2133
 6071SOL    HW119112   5.936   6.939   5.366 -0.0869  0.6887  0.6082
 6071SOL    HW219113   6.074   7.025   5.377  1.2563 -1.4910  1.4473
 6072SOL     OW19114   5.309   0.173   2.751 -0.0530  0.2051 -0.5561
 6072SOL    HW119115   5.370   0.102   2.787  0.3903  1.1328  0.5690
 6072SOL    HW219116   5.217   0.136   2.743  0.3355 -0.7547 -0.8130
 6073SOL     OW19117   5.425   5.644   0.847  0.2614  0.3409  0.0230
 6073SOL    HW119118   5.331   5.677   0.833  0.6746  1.5598  0.0379
 6073SOL    HW219119   5.487   5.721   0.856  1.1395 -0.4476  1.0149
 6074SOL     OW19120   0.994   2.091   5.385  0.1202 -0.1636 -0.3645
 6074SOL    HW119121   0.923   2.105   5.454 -1.0990  0.4572 -1.6921
 6074SOL    HW219122   1.017   1.994   5.380  1.4444 -0.0403  2.0327
 6075SOL     OW19123   4.590   3.866   6.204  0.4054  0.0549  0.5796
 6075SOL    HW119124   4.621   3.942   6.146 -0.0630  0.5585  0.9758
 6075SOL    HW219125   4.527   3.901   6.274 -0.9311 -0.8852 -0.0973
 6076SOL     OW19126   1.896   1.605   3.561 -0.4008 -0.2141 -0.2601
 6076SOL    HW119127   1.855   1.530   3.614 -2.2585  0.8874 -0.0803
 6076SOL    HW219128   1.920   1.571   3.470 -2.2217 -0.8137 -0.5622
 6077SOL     OW19129   6.261   5.781   4.435  0.3277  0.0558  0.5755
 6077SOL    HW119130   6.198   5.719   4.482  1.1947 -0.7945  0.6457
 6077SOL    HW219131   6.326   5.818   4.502  1.5497 -1.1321  0.0922
 6078SOL     OW19132   3.295   5.786   2.126  0.3070  0.2207 -0.8557
 6078SOL    HW119133   3.197   5.765   2.123  0.4689 -0.6309 -0.5697
 6078SOL    HW219134   3.335   5.772   2.036  0.2936 -0.1191 -0.8108
 6079SOL     OW19135   3.092   2.277   1.479  0.3108 -0.2318  0.4748
 6079SOL    HW119136   3.167   2.254   1.542  0.4279  0.0220  0.4272
 6079SOL    HW219137   3.091   2.210   1.404  1.5870  0.7515 -0.4604
 6080SOL     OW19138   4.684   2.795   1.753 -0.4892  0.3451 -0.0300
 6080SOL    HW119139   4.630   2.783   1.670 -1.5252  1.5595  0.4412
 6080SOL    HW219140   4.674   2.889   1.786  2.3864  0.8177 -0.2434
 6081SOL     OW19141   1.440   5.357   1.612  0.0444 -0.0802  0.0893
 6081SOL    HW119142   1.501   5.311   1.676 -0.0550 -1.6737 -0.9072
 6081SOL    HW219143   1.482   5.359   1.521  0.0686  1.9143  0.0914
 6082SOL     OW19144   4.110   1.380   4.592 -0.0145  0.4831  0.4652
 6082SOL    HW119145   4.145   1.341   4.507  2.6796  2.3038  0.6536
 6082SOL    HW219146   4.100   1.479   4.583 -0.5548  0.6025  1.9927
 6083SOL     OW19147   2.089   6.669   6.322 -0.2411 -0.3306 -0.4237
 6083SOL    HW119148   2.159   6.644   6.254  1.2799 -2.6653  1.8146
 6083SOL    HW219149   2.107   6.761   6.356  1.0891 -0.4727 -0.6941
 6084SOL     OW19150   0.321   5.488   0.927  0.2696  0.4824  0.7300
 6084SOL    HW119151   0.384   5.495   1.004  2.0026 -1.0823 -0.4689
 6084SOL    HW219152   0.271   5.401   0.932  0.6992  0.1781 -0.1159
 6085SOL     OW19153   5.443   4.114   3.430 -0.3402  0.1366 -0.0052
 6085SOL    HW119154   5.363   4.168   3.402  1.2922  1.1612 -3.1178
 6085SOL    HW219155   5.445   4.030   3.376  0.7064  0.1576 -0.0041
 6086SOL     OW19156   1.904   1.834   1.959  0.1173 -0.3188  0.0354
 6086SOL    HW119157   1.819   1.861   1.914 -1.2521 -1.4684  1.7747
 6086SOL    HW219158   1.937   1.748   1.920  0.8291  0.4363 -1.0472
 6087SOL     OW19159   4.266   6.605   0.630 -0.2844  0.2935 -0.1379
 6087SOL    HW119160   4.223   6.538   0.569 -0.7397  0.1854  0.2982
 6087SOL    HW219161   4.232   6.592   0.723 -0.4920  1.2384 -0.0750
 6088SOL     OW19162   0.516   1.454   5.337 -0.2294 -0.3660  0.1431
 6088SOL    HW119163   0.580   1.383   5.367 -1.1160 -0.6822  1.3957
 6088SOL    HW219164   0.422   1.421   5.349 -0.6575  0.1201 -1.5785
 6089SOL     OW19165   6.933   4.130   3.125 -0.7585 -0.2876  0.4911
 6089SOL    HW119166   6.861   4.064   3.146 -1.3579  0.4681  0.8745
 6089SOL    HW219167   6.992   4.141   3.205 -0.8136 -0.1755  0.5169
 6090SOL     OW19168   1.485   1.434   4.224 -0.3347  0.4503  0.0809
 6090SOL    HW119169   1.420   1.368   4.261 -0.4569  0.8755  0.6399
 6090SOL    HW219170   1.569   1.431   4.278 -0.0864  0.2848 -0.3068
 6091SOL     OW19171   6.447   1.676   1.720 -0.2797  0.2413 -0.4329
 6091SOL    HW119172   6.486   1.598   1.769 -0.2729  0.6136  0.1643
 6091SOL    HW219173   6.478   1.675   1.625 -1.2414 -1.1688 -0.7671
 6092SOL     OW19174   6.813   3.982   1.292 -0.3003  0.5907  0.3275
 6092SOL    HW119175   6.793   4.013   1.199  0.3219  0.5917  0.1887
 6092SOL    HW219176   6.905   4.013   1.318  0.6009 -1.6002 -0.0320
 6093SOL     OW19177   6.670   4.366   7.004 -0.6638 -0.3808  0.1878
 6093SOL    HW119178   6.733   4.333   6.934 -1.3841 -0.1004 -0.6125
 6093SOL    HW219179   6.606   4.294   7.028 -1.3362 -0.0421 -0.5238
 6094SOL     OW19180   6.204   0.092   0.805 -0.2630 -0.4864  0.5206
 6094SOL    HW119181   6.236   0.178   0.765 -1.4882  0.8477  2.2752
 6094SOL    HW219182   6.233   0.016   0.747  3.0380  0.8368  0.1923
 6095SOL     OW19183   0.350   3.751   5.883  0.7317  0.8890 -0.2030
 6095SOL    HW119184   0.335   3.820   5.812  0.0562 -0.1596 -1.1194
 6095SOL    HW219185   0.305   3.665   5.856 -0.2638  0.6923  1.8807
 6096SOL     OW19186   3.630   1.873   3.076 -0.5809  0.6085  0.1038
 6096SOL    HW119187   3.604   1.969   3.086  2.8032  1.6386  0.1608
 6096SOL    HW219188   3.656   1.855   2.981 -1.6115 -0.4231 -0.0056
 6097SOL     OW19189   3.033   2.169   3.278 -0.1163  0.0479 -0.1565
 6097SOL    HW119190   2.989   2.180   3.188 -0.7677  0.3184  0.1826
 6097SOL    HW219191   2.981   2.220   3.346  0.9608  0.6835  0.2023
 6098SOL     OW19192   5.874   0.120   0.518 -0.4596 -0.2760 -0.3511
 6098SOL    HW119193   5.940   0.184   0.479 -1.4760  0.4973 -0.8343
 6098SOL    HW219194   5.891   0.112   0.617 -1.2328  1.9216  0.0153
 6099SOL     OW19195   6.359   5.109   3.835 -0.3222  0.3212  0.2796
 6099SOL    HW119196   6.435   5.163   3.801 -0.7063  0.4892 -0.3347
 6099SOL    HW219197   6.383   5.012   3.830  0.9237  0.4385  2.7348
 6100SOL     OW19198   1.527   2.430   0.867  0.3739 -0.1035  0.1412
 6100SOL    HW119199   1.524   2.350   0.927 -0.5976 -0.2431 -0.0806
 6100SOL    HW219200   1.466   2.500   0.902  1.1766  0.5316  0.3003
 6101SOL     OW19201   0.183   5.143   4.933  0.8152  0.1104  0.3770
 6101SOL    HW119202   0.185   5.234   4.974  1.1633  0.9060 -1.3137
 6101SOL    HW219203   0.160   5.075   5.003 -1.6284  1.7145  1.2714
 6102SOL     OW19204   2.326   6.739   4.127 -0.2065 -0.1675  0.6537
 6102SOL    HW119205   2.312   6.804   4.052 -1.2108  0.4232  1.3147
 6102SOL    HW219206   2.255   6.669   4.123 -1.5478  1.0168  2.1830
 6103SOL     OW19207   5.718   0.771   4.650  0.1874  0.2600 -0.6463
 6103SOL    HW119208   5.771   0.844   4.607  0.1556  1.7583  1.6746
 6103SOL    HW219209   5.774   0.726   4.719  0.2034 -1.9952 -2.0514
 6104SOL     OW19210   1.767   4.855   1.660  0.3750  0.3893  0.2954
 6104SOL    HW119211   1.743   4.836   1.756  0.0315  2.6476  0.7123
 6104SOL    HW219212   1.804   4.772   1.618  0.2615 -0.7389  2.2913
 6105SOL     OW19213   3.536   5.846   5.877 -0.5262 -0.0590  0.6902
 6105SOL    HW119214   3.447   5.852   5.922 -0.5649 -1.2869  0.8050
 6105SOL    HW219215   3.546   5.756   5.833 -0.5498  1.0964 -1.8759
 6106SOL     OW19216   0.436   6.702   4.787  0.0936  0.2915  0.4005
 6106SOL    HW119217   0.535   6.699   4.778  0.0123 -0.3818 -0.3707
 6106SOL    HW219218   0.400   6.609   4.788 -0.5108  0.5191  1.0248
 6107SOL     OW19219   0.939   5.041   5.372  0.2032 -0.8283  0.1060
 6107SOL    HW119220   0.982   5.114   5.319  0.9320  0.0626  1.8331
 6107SOL    HW219221   0.840   5.059   5.379 -0.1531 -1.6905 -2.0141
 6108SOL     OW19222   4.965   1.114   3.474  0.4310  0.1048 -0.2589
 6108SOL    HW119223   4.979   1.128   3.376 -0.7060 -0.0256 -0.4569
 6108SOL    HW219224   4.936   1.020   3.490 -0.7390  0.4996  0.0304
 6109SOL     OW19225   1.765   4.012   2.126 -0.2960 -0.3155 -0.2718
 6109SOL    HW119226   1.806   4.058   2.204 -0.8519 -0.8662  0.3510
 6109SOL    HW219227   1.683   3.962   2.155  0.3153 -1.7534 -0.9229
 6110SOL     OW19228   3.677   1.478   4.070  0.1935 -0.5163  0.2043
 6110SOL    HW119229   3.720   1.555   4.119  0.1400  0.0930 -0.6829
 6110SOL    HW219230   3.683   1.494   3.971  0.5273 -1.8505 -0.0124
 6111SOL     OW19231   6.278   3.911   2.662  1.1434 -0.3193 -0.5519
 6111SOL    HW119232   6.345   3.837   2.663  0.5265 -0.8869 -0.0572
 6111SOL    HW219233   6.189   3.875   2.633  0.9953  0.3691 -0.9667
 6112SOL     OW19234   3.844   4.918   0.345  0.2278 -0.1296 -0.0879
 6112SOL    HW119235   3.801   4.836   0.381  0.6012 -0.0343  0.5835
 6112SOL    HW219236   3.858   4.984   0.419 -0.3171  0.6496 -0.6663
 6113SOL     OW19237   0.514   5.349   6.202  0.4571 -0.4407 -0.1108
 6113SOL    HW119238   0.500   5.258   6.241  0.2924 -1.3038 -2.0832
 6113SOL    HW219239   0.474   5.418   6.263 -1.0955 -1.8338  0.5193
 6114SOL     OW19240   4.605   4.522   1.320 -0.2865 -0.5115 -0.1170
 6114SOL    HW119241   4.509   4.550   1.327 -0.0368  0.3123  0.0984
 6114SOL    HW219242   4.612   4.445   1.256 -1.0599 -0.4512 -0.2889
 6115SOL     OW19243   1.242   5.360   2.219  0.1297 -0.1139  0.6511
 6115SOL    HW119244   1.184   5.368   2.137 -0.3162 -1.5217  0.7874
 6115SOL    HW219245   1.293   5.444   2.232  0.1401  0.1857 -1.0288
 6116SOL     OW19246   2.803   3.659   1.772  0.1966 -0.1518 -0.3630
 6116SOL    HW119247   2.829   3.581   1.716  0.1024 -0.5668  0.1679
 6116SOL    HW219248   2.763   3.627   1.857  0.5710  0.4692  0.0561
 6117SOL     OW19249   5.361   5.715   4.513 -0.0622 -0.1019  0.3993
 6117SOL    HW119250   5.454   5.733   4.479  0.1212 -0.0069  0.9515
 6117SOL    HW219251   5.314   5.802   4.529  0.3067 -0.1274  1.6435
 6118SOL     OW19252   0.811   0.023   3.316  0.8340  0.0891  0.0613
 6118SOL    HW119253   0.866   0.077   3.380  0.4975 -0.9291  1.2556
 6118SOL    HW219254   0.847  -0.070   3.310 -0.1984 -0.3363  0.1619
 6119SOL     OW19255   4.513   5.663   4.323  0.2535 -0.0970  0.1031
 6119SOL    HW119256   4.572   5.631   4.249 -1.5722 -1.3755 -0.9033
 6119SOL    HW219257   4.456   5.587   4.355 -1.6129  1.2741  0.2279
 6120SOL     OW19258   4.028   1.777   3.113 -0.2837 -0.1738  0.1154
 6120SOL    HW119259   4.017   1.797   3.015 -1.6762 -0.2041  0.2417
 6120SOL    HW219260   4.120   1.802   3.142  0.0637  0.0880 -1.1460
 6121SOL     OW19261   0.014   1.483   2.845  0.4814  0.1091  0.4083
 6121SOL    HW119262  -0.053   1.510   2.776  0.4656 -0.1534  0.3165
 6121SOL    HW219263   0.054   1.394   2.818  1.0725  0.3995  0.3076
 6122SOL     OW19264   4.929   4.967   4.321  0.3210 -0.2416 -0.6445
 6122SOL    HW119265   5.013   4.949   4.270  2.1588  0.0905  2.0419
 6122SOL    HW219266   4.925   5.063   4.347 -0.7367 -0.3225 -0.4475
 6123SOL     OW19267   6.944   6.908   0.779  0.5403  0.6045 -0.7383
 6123SOL    HW119268   6.930   6.988   0.837 -0.1548 -0.7863  1.1534
 6123SOL    HW219269   6.870   6.903   0.712  1.0265  1.9464 -1.3970
 6124SOL     OW19270   3.559   1.570   4.965 -0.3690 -0.7671  0.4979
 6124SOL    HW119271   3.538   1.663   4.935  2.3254 -0.5964 -1.1657
 6124SOL    HW219272   3.496   1.506   4.921 -0.5154  0.0351 -0.5025
 6125SOL     OW19273   1.941   4.067   3.908  0.0497  0.4844 -0.0105
 6125SOL    HW119274   1.879   4.145   3.922 -1.5013 -1.1176  3.1368
 6125SOL    HW219275   2.026   4.099   3.866 -1.9029  3.1908 -2.2827
 6126SOL     OW19276   4.429   6.344   1.138  0.1356  0.2415 -0.8593
 6126SOL    HW119277   4.350   6.313   1.192 -0.5959  1.9174 -0.9089
 6126SOL    HW219278   4.491   6.267   1.124 -1.6311 -1.2273 -1.0844
 6127SOL     OW19279   0.366   5.230   1.818 -0.2691 -0.1353 -0.4548
 6127SOL    HW119280   0.326   5.183   1.739  0.3788 -1.2726 -0.1171
 6127SOL    HW219281   0.436   5.173   1.860 -0.9647  0.2243  1.2744
 6128SOL     OW19282   5.649   2.261   1.318 -0.1330  0.0629  0.4892
 6128SOL    HW119283   5.697   2.173   1.323  0.5226  0.3037 -0.9593
 6128SOL    HW219284   5.715   2.335   1.330 -0.5383  0.3873  0.7687
 6129SOL     OW19285   5.991   3.276   4.635  0.5653 -0.2488 -0.3231
 6129SOL    HW119286   6.066   3.334   4.667 -0.2140 -0.0928  1.3921
 6129SOL    HW219287   5.919   3.333   4.595  0.0225 -0.0278  0.9022
 6130SOL     OW19288   5.660   3.424   3.941 -0.0581  0.4521 -0.6389
 6130SOL    HW119289   5.587   3.415   4.009 -0.3166  1.1123 -0.8216
 6130SOL    HW219290   5.688   3.333   3.910  0.3237  0.1126  0.6207
 6131SOL     OW19291   1.228   1.910   5.709  0.0082 -0.1616  0.2258
 6131SOL    HW119292   1.259   1.894   5.803 -0.7025 -0.3126  0.4418
 6131SOL    HW219293   1.137   1.872   5.698  0.5669 -1.2435 -0.8842
 6132SOL     OW19294   0.074   4.256   6.232 -0.2535  0.2802  0.0721
 6132SOL    HW119295   0.151   4.276   6.171  1.3157 -0.7200  1.6056
 6132SOL    HW219296   0.016   4.336   6.241  1.8584  1.8497  0.5396
 6133SOL     OW19297   1.842   3.782   0.306 -0.4883  0.3126  0.0212
 6133SOL    HW119298   1.765   3.833   0.266  0.4954  1.7458 -0.1077
 6133SOL    HW219299   1.911   3.847   0.339  0.2788 -0.9355  0.9287
 6134SOL     OW19300   3.682   4.627   0.151 -0.0584 -0.5038 -0.0001
 6134SOL    HW119301   3.772   4.668   0.138 -0.4094  1.2034  2.3555
 6134SOL    HW219302   3.615   4.675   0.093  0.2757 -0.7576 -0.6051
 6135SOL     OW19303   3.846   4.941   3.125  0.2569 -0.1535  0.5463
 6135SOL    HW119304   3.879   5.008   3.190  0.6468 -0.3568  0.5612
 6135SOL    HW219305   3.746   4.945   3.120  0.2027 -0.3407  1.3774
 6136SOL     OW19306   2.125   1.343   3.039  0.0973 -0.0942 -0.2044
 6136SOL    HW119307   2.046   1.282   3.030 -0.3033  0.5246 -0.9895
 6136SOL    HW219308   2.168   1.328   3.128 -0.8600 -0.4892  0.2077
 6137SOL     OW19309   0.191   6.902   6.197 -0.5955 -0.0043  0.2628
 6137SOL    HW119310   0.150   6.834   6.257  0.5311 -0.5200  0.4755
 6137SOL    HW219311   0.245   6.857   6.126 -1.3073  0.6223 -0.7009
 6138SOL     OW19312   3.358   6.902   3.686 -0.0612  0.2619 -0.3059
 6138SOL    HW119313   3.386   6.806   3.685  0.0464  0.2830  0.2346
 6138SOL    HW219314   3.413   6.952   3.753  2.9763  1.6702 -3.5152
 6139SOL     OW19315   2.682   7.014   5.104  0.0724 -0.7340  0.2172
 6139SOL    HW119316   2.756   6.947   5.117  0.8208  0.4269  2.5215
 6139SOL    HW219317   2.721   7.103   5.080 -0.8274 -0.7402 -1.4292
 6140SOL     OW19318   1.607   6.521   1.076 -0.0979  0.5879 -0.2544
 6140SOL    HW119319   1.608   6.425   1.049  1.5526  0.5366 -0.0833
 6140SOL    HW219320   1.678   6.537   1.144 -1.1385  1.6964  0.6166
 6141SOL     OW19321   5.956   6.055   5.267 -0.5612 -0.4529 -0.1394
 6141SOL    HW119322   5.897   6.136   5.269  0.2111  0.1188  0.0076
 6141SOL    HW219323   6.012   6.057   5.184  0.2221 -0.2797  0.3910
 6142SOL     OW19324   6.293   2.910   3.442 -0.0782 -0.3111 -0.6334
 6142SOL    HW119325   6.281   2.868   3.352  0.2055 -0.2031 -0.7224
 6142SOL    HW219326   6.326   2.841   3.506 -0.3591 -0.4081 -0.5903
 6143SOL     OW19327   6.104   4.547   1.136  0.0857  0.1710  0.1628
 6143SOL    HW119328   6.203   4.544   1.125 -0.0318 -1.5315 -0.9606
 6143SOL    HW219329   6.074   4.465   1.186 -0.8081  0.3414 -0.0789
 6144SOL     OW19330   1.278   4.474   5.000  0.5159 -0.3749 -0.0154
 6144SOL    HW119331   1.296   4.401   5.065 -0.6666 -0.6031  0.0840
 6144SOL    HW219332   1.301   4.444   4.908 -0.0468 -0.9077  0.0150
 6145SOL     OW19333   6.256   6.934   4.166 -0.0396 -0.1821  0.5166
 6145SOL    HW119334   6.237   7.003   4.096 -1.4395  0.2396  1.2825
 6145SOL    HW219335   6.181   6.931   4.231  0.8167 -1.2210  1.4944
 6146SOL     OW19336   6.245   0.954   5.796  0.4870  0.5603 -0.5045
 6146SOL    HW119337   6.267   0.897   5.717 -0.0433  0.3726 -0.5170
 6146SOL    HW219338   6.278   0.909   5.879 -0.8799 -0.2952 -0.4059
 6147SOL     OW19339   0.089   2.200   2.925 -0.3303  0.2283 -0.2830
 6147SOL    HW119340   0.177   2.184   2.970 -0.2779  2.4166  0.5155
 6147SOL    HW219341   0.065   2.121   2.870  2.7467  0.0209 -1.5180
 6148SOL     OW19342   6.729   0.233   2.251  0.1840 -0.0487  0.2859
 6148SOL    HW119343   6.641   0.276   2.270  0.4735  0.4900  0.4246
 6148SOL    HW219344   6.749   0.239   2.154  1.4476  2.5631  0.6244
 6149SOL     OW19345   0.864   6.402   4.149  0.3664 -0.2020 -0.2329
 6149SOL    HW119346   0.929   6.352   4.092  1.2138  0.6865 -0.0856
 6149SOL    HW219347   0.789   6.342   4.175  0.4340 -0.8771 -1.5288
 6150SOL     OW19348   6.033   5.513   1.573 -0.5820 -0.0835  0.1625
 6150SOL    HW119349   5.971   5.439   1.548 -0.1762  0.3359 -2.3363
 6150SOL    HW219350   5.981   5.598   1.580 -0.4738  0.1193 -1.1415
 6151SOL     OW19351   4.397   0.270   4.477  0.0040 -0.8269  0.5279
 6151SOL    HW119352   4.297   0.268   4.474 -0.1360  1.5786  1.7905
 6151SOL    HW219353   4.428   0.222   4.559 -0.1585 -0.8511  0.5767
 6152SOL     OW19354   6.607   3.103   0.234 -0.0576  0.3891 -0.1253
 6152SOL    HW119355   6.566   3.140   0.318 -0.0707  0.0912 -0.0012
 6152SOL    HW219356   6.658   3.020   0.255  0.8019  0.8701 -0.2443
 6153SOL     OW19357   5.099   3.657   5.454  0.0499  0.8628 -0.1925
 6153SOL    HW119358   5.152   3.672   5.537  0.2363  1.5450 -0.4238
 6153SOL    HW219359   5.160   3.634   5.378 -0.1746 -0.4009 -0.0079
 6154SOL     OW19360   4.631   0.942   3.971  0.0678  0.1706 -0.2346
 6154SOL    HW119361   4.614   0.857   3.921 -0.1425 -0.1752  0.4077
 6154SOL    HW219362   4.712   0.931   4.029  1.0500  0.9857 -1.4139
 6155SOL     OW19363   3.847   5.612   3.528  0.3194 -0.5687 -0.3545
 6155SOL    HW119364   3.812   5.698   3.492  0.4426 -0.7257 -0.8713
 6155SOL    HW219365   3.773   5.545   3.533  0.3590 -0.6301 -0.5847
 6156SOL     OW19366   5.895   0.131   5.681  0.3480  0.1247  0.1344
 6156SOL    HW119367   5.801   0.125   5.650 -0.5130  1.4131  2.2624
 6156SOL    HW219368   5.911   0.064   5.754  0.3957  1.3243  1.2642
 6157SOL     OW19369   3.048   6.743   4.035  0.0558  0.0185 -0.2888
 6157SOL    HW119370   3.028   6.740   3.937 -1.1720  0.6849 -0.0852
 6157SOL    HW219371   3.125   6.683   4.056 -0.4699 -1.1028 -1.4665
 6158SOL     OW19372   3.907   4.973   1.472  0.7495  0.3757 -0.4927
 6158SOL    HW119373   3.969   4.943   1.545 -2.0770 -0.0772  1.8942
 6158SOL    HW219374   3.893   4.898   1.408  0.2573 -0.5740  0.7040
 6159SOL     OW19375   3.924   3.649   5.624 -0.1186 -0.7000 -0.4265
 6159SOL    HW119376   3.851   3.659   5.691 -0.0468 -2.0459 -0.1202
 6159SOL    HW219377   3.899   3.578   5.558  0.2966 -0.1676 -1.1722
 6160SOL     OW19378   6.662   5.276   0.387  0.5293  0.4375 -0.2688
 6160SOL    HW119379   6.752   5.237   0.409 -0.0198 -1.8690 -1.7910
 6160SOL    HW219380   6.610   5.211   0.331 -1.1972  2.6680 -1.4227
 6161SOL     OW19381   4.078   5.745   0.124 -0.0132 -0.3101 -0.0033
 6161SOL    HW119382   4.163   5.730   0.073  0.2132  0.1124  0.2447
 6161SOL    HW219383   4.040   5.834   0.098 -0.1345 -0.2929  0.2343
 6162SOL     OW19384   5.430   5.728   3.751  0.0116 -0.0440  0.2981
 6162SOL    HW119385   5.399   5.667   3.823  0.2455  0.4846  0.8581
 6162SOL    HW219386   5.414   5.823   3.779  1.8825  0.2546  0.5151
 6163SOL     OW19387   5.751   3.671   2.986  0.1015  0.1998  0.2395
 6163SOL    HW119388   5.771   3.616   2.904  3.1562  0.0754  0.9562
 6163SOL    HW219389   5.798   3.631   3.065 -1.7892  1.0212  1.8581
 6164SOL     OW19390   4.525   2.821   1.326  0.2610 -0.3281  0.3741
 6164SOL    HW119391   4.553   2.907   1.367 -0.2936 -0.4321  0.9885
 6164SOL    HW219392   4.549   2.745   1.386  0.4201 -0.5724  0.0057
 6165SOL     OW19393   5.012   6.402   2.455 -0.0297  0.5056  0.0604
 6165SOL    HW119394   5.049   6.310   2.442 -0.6260  0.2984 -0.2041
 6165SOL    HW219395   4.924   6.410   2.409 -0.2784  1.0170  0.6009
 6166SOL     OW19396   3.197   0.835   0.583 -0.2580 -0.2403  0.3859
 6166SOL    HW119397   3.185   0.809   0.679 -0.2414  2.5303  1.2285
 6166SOL    HW219398   3.129   0.905   0.559 -1.4901 -2.1625 -2.2282
 6167SOL     OW19399   1.270   5.974   2.134  0.1546 -0.2247 -0.3239
 6167SOL    HW119400   1.213   5.935   2.207 -1.4816 -0.1059 -1.4757
 6167SOL    HW219401   1.213   6.029   2.073  1.6800  0.5776 -1.0933
 6168SOL     OW19402   0.073   2.247   1.409 -0.2520  0.2034  0.1608
 6168SOL    HW119403   0.154   2.234   1.350 -0.2041  1.6665 -0.1180
 6168SOL    HW219404   0.102   2.281   1.498 -0.4812 -0.2657  0.4160
 6169SOL     OW19405   2.430   4.440   2.436  0.1385  0.3389 -0.0883
 6169SOL    HW119406   2.419   4.510   2.506  0.8413  0.5853 -0.2173
 6169SOL    HW219407   2.479   4.478   2.357 -0.3200 -0.0359 -0.5626
 6170SOL     OW19408   4.961   1.075   4.292 -0.2022 -0.3926 -0.0374
 6170SOL    HW119409   5.060   1.065   4.287 -0.3880 -1.8864 -2.1314
 6170SOL    HW219410   4.934   1.161   4.248  0.0460 -0.9250 -1.2509
 6171SOL     OW19411   6.329   3.234   5.038  0.1041 -0.0115  0.1764
 6171SOL    HW119412   6.398   3.236   5.110  0.5395  1.1239 -0.2385
 6171SOL    HW219413   6.243   3.199   5.075  0.3967  0.2840  1.1777
 6172SOL     OW19414   6.178   4.542   2.269 -0.0592 -0.1827 -0.2629
 6172SOL    HW119415   6.138   4.569   2.181  0.7846 -0.2114 -0.6658
 6172SOL    HW219416   6.249   4.607   2.295  1.0719 -1.2574 -0.5895
 6173SOL     OW19417   4.297   6.607   5.562  0.0189  0.5832 -0.3447
 6173SOL    HW119418   4.347   6.686   5.527  0.1579 -0.2282 -2.0787
 6173SOL    HW219419   4.362   6.540   5.599  0.2765 -0.3524 -2.3527
 6174SOL     OW19420   2.270   1.951   3.460 -0.3982  0.4352  0.1816
 6174SOL    HW119421   2.357   1.994   3.484  0.3405 -1.6073  1.3547
 6174SOL    HW219422   2.196   1.993   3.514  0.5292 -0.7155  2.4665
 6175SOL     OW19423   4.641   2.241   5.990  0.0493 -0.0648  0.1684
 6175SOL    HW119424   4.705   2.294   5.934  2.1291 -3.0777 -0.5981
 6175SOL    HW219425   4.676   2.234   6.084  0.4760 -0.9971 -0.0395
 6176SOL     OW19426   1.973   5.751   6.816 -0.4802 -1.1344  0.3329
 6176SOL    HW119427   1.996   5.768   6.720 -1.5282 -2.1794 -0.1219
 6176SOL    HW219428   1.978   5.838   6.866 -1.6926 -0.2035 -1.0516
 6177SOL     OW19429   5.694   5.131   1.696 -0.2291  0.0596  0.1413
 6177SOL    HW119430   5.648   5.120   1.784  0.6990 -2.1006  0.4151
 6177SOL    HW219431   5.660   5.063   1.632  0.0925  0.7213 -0.7488
 6178SOL     OW19432   5.112   5.044   2.358 -0.4168 -0.1454  0.2348
 6178SOL    HW119433   5.166   5.069   2.278  0.4655  2.8137  1.6097
 6178SOL    HW219434   5.016   5.036   2.332  0.0446 -0.9467 -1.3741
 6179SOL     OW19435   4.821   6.617   5.666  0.5417  0.2455  0.6540
 6179SOL    HW119436   4.888   6.550   5.698 -0.3433  0.4224  3.1451
 6179SOL    HW219437   4.807   6.686   5.737  0.2006  2.1728 -1.1730
 6180SOL     OW19438   1.755   2.851   0.501 -0.0868 -0.4590  0.6008
 6180SOL    HW119439   1.747   2.763   0.455  1.6605 -0.8941  1.0604
 6180SOL    HW219440   1.689   2.856   0.575 -3.3034  0.4404 -2.0844
 6181SOL     OW19441   4.829   5.496   6.043 -0.8629  0.2097 -0.4872
 6181SOL    HW119442   4.825   5.586   6.086 -0.1004 -0.4710  1.1058
 6181SOL    HW219443   4.840   5.507   5.944 -1.4198  1.8407 -0.4078
 6182SOL     OW19444   3.046   1.126   3.997  0.1650  0.4504  0.0385
 6182SOL    HW119445   3.058   1.204   3.936  1.6893 -1.1300 -1.8371
 6182SOL    HW219446   2.964   1.075   3.970  0.1927  0.3898  0.0677
 6183SOL     OW19447   1.493   0.402   0.066 -0.6511  0.0901  0.1508
 6183SOL    HW119448   1.483   0.373   0.161 -3.1412 -0.4519 -0.2031
 6183SOL    HW219449   1.554   0.338   0.018 -0.5557 -0.4973  1.0325
 6184SOL     OW19450   2.899   5.566   5.187  0.7134  0.0455 -0.0466
 6184SOL    HW119451   2.961   5.538   5.113 -0.5006  0.6800 -1.3465
 6184SOL    HW219452   2.822   5.617   5.149 -0.5838 -0.6476  1.5373
 6185SOL     OW19453   3.677   4.094   2.380 -0.1246 -0.1200  0.3264
 6185SOL    HW119454   3.698   4.029   2.307 -3.3054 -0.4704 -0.3955
 6185SOL    HW219455   3.673   4.186   2.342  1.2390  0.1272  0.7264
 6186SOL     OW19456   1.093   0.835   1.617 -0.5148 -0.1312 -0.0606
 6186SOL    HW119457   1.156   0.811   1.543 -2.0594 -0.4233 -1.3248
 6186SOL    HW219458   1.144   0.884   1.689  1.7539 -2.8271  0.3524
 6187SOL     OW19459   3.327   4.546   6.127  0.5005 -0.3196 -0.0835
 6187SOL    HW119460   3.387   4.488   6.182  0.2874  0.9331  1.5221
 6187SOL    HW219461   3.365   4.554   6.035  1.3069 -1.7907  0.0843
 6188SOL     OW19462   1.443   1.771   6.594 -0.4838 -0.0165 -0.3275
 6188SOL    HW119463   1.473   1.760   6.689 -1.7162  1.1366  0.2199
 6188SOL    HW219464   1.499   1.841   6.549  0.6392 -1.1281 -0.7385
 6189SOL     OW19465   5.698   5.742   2.262  0.4231 -0.4056  0.6741
 6189SOL    HW119466   5.761   5.755   2.185  0.0192 -2.5753 -0.1161
 6189SOL    HW219467   5.630   5.815   2.263 -0.1222 -0.7984 -1.6551
 6190SOL     OW19468   1.193   2.418   3.241 -0.1940  0.4072  0.9617
 6190SOL    HW119469   1.249   2.485   3.290 -0.0625  2.0921 -1.3203
 6190SOL    HW219470   1.253   2.355   3.192 -0.2386  1.2182 -0.1854
 6191SOL     OW19471   2.658   6.302   4.721  0.1885  0.4500  0.2233
 6191SOL    HW119472   2.706   6.246   4.789 -2.2189  0.3119  1.9193
 6191SOL    HW219473   2.718   6.316   4.642  2.1293 -1.6114  1.2032
 6192SOL     OW19474   1.236   3.157   1.453  0.7581 -0.7261 -0.3835
 6192SOL    HW119475   1.249   3.222   1.528 -1.6287 -1.2453  0.5650
 6192SOL    HW219476   1.143   3.122   1.455  0.4330 -0.4058 -3.9511
 6193SOL     OW19477   4.541   5.866   0.261  0.0194 -0.3739  0.0416
 6193SOL    HW119478   4.515   5.779   0.220  1.1886 -1.3499  1.2714
 6193SOL    HW219479   4.581   5.925   0.191 -0.4221 -0.9833 -0.7312
 6194SOL     OW19480   3.607   0.395   5.703  0.0356 -0.2183  0.0560
 6194SOL    HW119481   3.551   0.415   5.783  1.2482  0.2253  0.8213
 6194SOL    HW219482   3.655   0.308   5.715  1.5633  0.6503  0.6263
 6195SOL     OW19483   0.341   5.976   5.492  0.0563 -0.1866 -0.0015
 6195SOL    HW119484   0.376   5.956   5.400 -1.2693 -0.1520 -0.5374
 6195SOL    HW219485   0.358   5.897   5.551  2.5539  0.4710  0.2576
 6196SOL     OW19486   1.417   4.307   3.828 -0.3081 -0.3154 -0.2461
 6196SOL    HW119487   1.407   4.289   3.926  1.6850  1.0050  0.2418
 6196SOL    HW219488   1.328   4.334   3.791 -0.8265  0.5652  1.5065
 6197SOL     OW19489   0.263   4.459   1.331  0.1351  0.2492 -0.0317
 6197SOL    HW119490   0.185   4.436   1.389 -0.2190 -0.9296 -0.9311
 6197SOL    HW219491   0.240   4.538   1.275  0.3170  1.1198  1.0801
 6198SOL     OW19492   6.889   2.472   4.487 -0.2095  0.3241 -0.0301
 6198SOL    HW119493   6.986   2.497   4.481  0.2580 -0.9669  1.5610
 6198SOL    HW219494   6.877   2.377   4.461 -0.7664 -0.0223  1.3878
 6199SOL     OW19495   3.078   5.464   4.997  0.1172  0.1220  0.2117
 6199SOL    HW119496   3.052   5.510   4.913 -0.6812 -0.7992 -0.0597
 6199SOL    HW219497   3.167   5.420   4.985  1.0894  1.8575  0.5998
 6200SOL     OW19498   1.569   0.643   7.007 -0.0350  0.6487  0.4280
 6200SOL    HW119499   1.548   0.546   7.018 -1.1938  0.6797 -1.2452
 6200SOL    HW219500   1.645   0.667   7.067  0.5861 -1.3858  0.5189
 6201SOL     OW19501   0.251   6.075   2.523  1.1197  0.0489  0.1077
 6201SOL    HW119502   0.242   6.145   2.453  0.0033 -0.9818 -0.8181
 6201SOL    HW219503   0.172   6.014   2.520  2.4075 -1.7223  0.3460
 6202SOL     OW19504   5.733   2.529   2.328 -0.6395 -0.3556 -0.2175
 6202SOL    HW119505   5.651   2.584   2.343  0.3335  0.9212  0.5751
 6202SOL    HW219506   5.799   2.581   2.273  1.2713  0.3036  2.5052
 6203SOL     OW19507   1.211   1.212   0.778  0.5427 -0.5248 -0.0776
 6203SOL    HW119508   1.193   1.197   0.681  1.3899  1.2265 -0.5535
 6203SOL    HW219509   1.165   1.142   0.832 -1.0234 -0.7896 -1.6643
 6204SOL     OW19510   1.891   4.725   3.321 -0.0304  0.1132 -0.5742
 6204SOL    HW119511   1.842   4.800   3.277 -0.3494  0.1894 -0.0979
 6204SOL    HW219512   1.858   4.638   3.284 -1.1494  0.1234  0.3280
 6205SOL     OW19513   0.293   4.516   2.952 -0.7393  0.2796  0.0852
 6205SOL    HW119514   0.374   4.573   2.939 -0.3047 -0.5082 -0.7438
 6205SOL    HW219515   0.309   4.454   3.029 -0.5281  0.0941 -0.1048
 6206SOL     OW19516   6.046   3.779   4.236 -0.2417 -0.0206 -0.1650
 6206SOL    HW119517   6.105   3.731   4.172 -1.6949 -1.5669 -0.4189
 6206SOL    HW219518   6.084   3.870   4.255  1.2783 -0.3034 -1.6172
 6207SOL     OW19519   3.459   6.093   3.437  0.0405 -0.1450  0.5060
 6207SOL    HW119520   3.389   6.058   3.374 -0.5565  1.4889  0.2279
 6207SOL    HW219521   3.537   6.128   3.385  2.2701 -4.0595  0.8199
 6208SOL     OW19522   4.068   2.622   0.046  0.0360 -0.7579 -0.4528
 6208SOL    HW119523   4.035   2.714   0.065  0.6433 -0.7750  0.7575
 6208SOL    HW219524   4.037   2.560   0.118 -2.0216 -1.9505 -2.1963
 6209SOL     OW19525   2.850   6.910   0.235  0.1452  0.6281 -0.1032
 6209SOL    HW119526   2.915   6.967   0.185 -0.9028  0.6632 -1.4897
 6209SOL    HW219527   2.838   6.822   0.187  0.5041 -0.1056  1.1088
 6210SOL     OW19528   6.886   1.130   5.756  0.1131  0.1575 -0.3779
 6210SOL    HW119529   6.801   1.177   5.778  0.5571  0.9540 -0.3249
 6210SOL    HW219530   6.964   1.186   5.784  0.6776 -1.3582  1.2875
 6211SOL     OW19531   5.621   1.924   5.112  0.1647  0.1131 -0.3461
 6211SOL    HW119532   5.632   1.930   5.212 -0.8387  2.1639 -0.2957
 6211SOL    HW219533   5.529   1.952   5.088  0.0637 -1.3434 -1.8254
 6212SOL     OW19534   4.639   4.518   5.414 -0.1596 -0.1637 -0.0322
 6212SOL    HW119535   4.606   4.494   5.505 -0.8238  0.9239  0.0242
 6212SOL    HW219536   4.566   4.564   5.363  0.0373 -1.2007 -1.2993
 6213SOL     OW19537   4.741   6.947   1.040  0.2633 -0.2724  0.8257
 6213SOL    HW119538   4.702   6.996   1.118 -0.0157  0.2287  0.3816
 6213SOL    HW219539   4.675   6.948   0.964  1.3663  1.1203 -0.1564
 6214SOL     OW19540   5.956   6.926   4.703  0.3529  0.0087  0.0527
 6214SOL    HW119541   5.969   6.908   4.801  3.6523 -2.3129 -0.6679
 6214SOL    HW219542   5.948   7.025   4.689  2.7954  0.6662  2.4564
 6215SOL     OW19543   4.863   4.922   4.587 -0.0320  0.2226 -0.0019
 6215SOL    HW119544   4.928   4.924   4.511  0.4148 -0.0730  0.3681
 6215SOL    HW219545   4.796   4.849   4.572 -0.8653  1.1321 -0.8532
 6216SOL     OW19546   6.133   3.152   0.235  0.3555 -0.3130  0.0543
 6216SOL    HW119547   6.199   3.078   0.223  0.0445 -0.4564 -0.8356
 6216SOL    HW219548   6.151   3.199   0.321  2.4329  0.4661 -0.7580
 6217SOL     OW19549   5.931   4.165   1.901  0.4720  0.3862  0.0088
 6217SOL    HW119550   6.015   4.213   1.875 -0.5411  1.8524 -0.6980
 6217SOL    HW219551   5.871   4.158   1.821 -0.1485 -0.5184  0.5367
 6218SOL     OW19552   4.371   6.268   3.975  0.2134 -0.6679 -0.0625
 6218SOL    HW119553   4.334   6.320   3.897 -0.1509  0.4058  0.8013
 6218SOL    HW219554   4.468   6.248   3.958  0.2616 -0.0283 -0.5902
 6219SOL     OW19555   1.252   0.261   0.302 -0.5500 -0.4001  0.1363
 6219SOL    HW119556   1.313   0.185   0.285  0.7894  0.2680  1.7364
 6219SOL    HW219557   1.217   0.296   0.215  0.3875 -1.5599 -0.7265
 6220SOL     OW19558   3.373   0.068   2.817  0.3434  0.1408  0.3615
 6220SOL    HW119559   3.375   0.024   2.907  1.3590  1.2063  0.9026
 6220SOL    HW219560   3.379   0.168   2.829  0.2696  0.3117 -0.8850
 6221SOL     OW19561   3.947   5.685   4.920  0.1801  0.3836  0.0812
 6221SOL    HW119562   4.002   5.768   4.929  2.0031 -0.7078 -0.4976
 6221SOL    HW219563   3.933   5.645   5.011  1.8183 -0.2051  0.1105
 6222SOL     OW19564   6.803   2.132   1.895 -0.2808 -0.2324 -0.0210
 6222SOL    HW119565   6.740   2.141   1.972 -0.5900  2.2115 -0.4714
 6222SOL    HW219566   6.773   2.057   1.836 -3.7561  1.7243 -1.0169
 6223SOL     OW19567   5.336   5.068   5.245 -0.2410  0.1974 -0.1483
 6223SOL    HW119568   5.260   5.101   5.301 -0.1471 -0.1507  0.1903
 6223SOL    HW219569   5.324   4.970   5.228  0.3766  0.0362  0.3101
 6224SOL     OW19570   4.168   1.209   0.704 -0.0389 -0.8550  0.1351
 6224SOL    HW119571   4.090   1.156   0.737 -0.5476  0.7137  1.6284
 6224SOL    HW219572   4.251   1.181   0.752 -0.2256 -0.6097  0.6059
 6225SOL     OW19573   6.911   5.545   6.907  0.4829 -0.1515 -0.1013
 6225SOL    HW119574   6.844   5.604   6.862 -0.5888 -1.4417 -0.2981
 6225SOL    HW219575   6.872   5.453   6.916  1.6948 -0.5821  1.0926
 6226SOL     OW19576   3.822   6.822   2.593  0.0960 -0.3860 -0.6288
 6226SOL    HW119577   3.827   6.863   2.501  1.1983 -1.2731 -0.9921
 6226SOL    HW219578   3.739   6.853   2.639 -0.1098  0.6571 -1.6454
 6227SOL     OW19579   1.589   3.311   6.272  0.9808  0.3053 -0.1711
 6227SOL    HW119580   1.662   3.270   6.327  0.9931  0.4593 -0.0741
 6227SOL    HW219581   1.524   3.239   6.244  0.4369  0.3726  0.8632
 6228SOL     OW19582   0.743   4.326   2.713  0.7586 -0.3582  0.0400
 6228SOL    HW119583   0.786   4.407   2.674  2.1405  0.4098  2.9152
 6228SOL    HW219584   0.812   4.270   2.759 -0.9655  0.0744  3.4621
 6229SOL     OW19585   1.014   4.728   6.168 -0.0641 -0.3196  0.2622
 6229SOL    HW119586   1.084   4.670   6.125 -0.0474 -0.6370  0.7068
 6229SOL    HW219587   1.045   4.755   6.259 -0.8513 -1.1162  0.7877
 6230SOL     OW19588   0.401   6.579   0.141 -0.3604 -0.1836  0.8683
 6230SOL    HW119589   0.484   6.616   0.182  0.0936  0.0381 -0.2237
 6230SOL    HW219590   0.350   6.652   0.095 -0.0728 -0.6795 -0.2690
 6231SOL     OW19591   3.211   6.216   6.740  0.2474 -0.2527  0.1092
 6231SOL    HW119592   3.228   6.130   6.788  0.8170 -0.0700  0.2392
 6231SOL    HW219593   3.148   6.200   6.665  0.5172 -0.8274 -0.0013
 6232SOL     OW19594   3.397   1.145   5.682 -0.3896  0.1628  0.4296
 6232SOL    HW119595   3.460   1.142   5.760  1.9600  1.1412 -1.3029
 6232SOL    HW219596   3.331   1.219   5.695 -0.6599 -0.3026  1.8944
 6233SOL     OW19597   6.730   4.690   0.899 -0.7210  0.3167 -0.2113
 6233SOL    HW119598   6.633   4.694   0.879 -0.7718  0.5969  0.0778
 6233SOL    HW219599   6.744   4.648   0.989 -0.5788  0.3311 -0.2256
 6234SOL     OW19600   4.024   4.593   5.545  0.0201  0.1004  0.1269
 6234SOL    HW119601   4.040   4.595   5.446  0.2732 -0.0844  0.1636
 6234SOL    HW219602   3.947   4.533   5.565  0.8435 -0.9555  0.1573
 6235SOL     OW19603   0.487   1.876   1.657 -0.4437  0.2475 -0.0274
 6235SOL    HW119604   0.525   1.819   1.584  0.1021  0.8309 -0.2086
 6235SOL    HW219605   0.453   1.818   1.731 -2.0545 -0.4113 -1.2191
 6236SOL     OW19606   0.722   2.623   2.177  0.2750 -0.0108  0.2117
 6236SOL    HW119607   0.765   2.554   2.118 -0.5943  0.4361 -0.9900
 6236SOL    HW219608   0.686   2.579   2.259 -1.5603 -1.2759 -1.1976
 6237SOL     OW19609   2.709   2.204   3.162  0.5220  0.5063 -0.8024
 6237SOL    HW119610   2.663   2.121   3.192  2.3910 -0.5501 -0.7312
 6237SOL    HW219611   2.643   2.265   3.118 -0.8831 -0.9987 -0.8582
 6238SOL     OW19612   1.448   1.099   3.363  0.3258  0.4552  0.1268
 6238SOL    HW119613   1.478   1.046   3.443 -0.2402 -0.3776 -0.1961
 6238SOL    HW219614   1.416   1.036   3.292  0.8227  1.1807 -0.7664
 6239SOL     OW19615   3.134   0.981   3.565  0.0372  0.4770 -0.3282
 6239SOL    HW119616   3.144   0.897   3.512  1.8471  0.1003  0.5488
 6239SOL    HW219617   3.122   0.959   3.662 -0.2762  1.2286 -0.1841
 6240SOL     OW19618   3.153   3.730   3.993 -0.3326  0.1023  0.4728
 6240SOL    HW119619   3.082   3.662   4.016  0.0081 -0.1525  0.7898
 6240SOL    HW219620   3.222   3.730   4.065  1.2799 -1.3832 -0.9766
 6241SOL     OW19621   2.908   0.573   4.413  0.4456 -0.0278 -0.3388
 6241SOL    HW119622   2.943   0.661   4.445 -0.4026  0.0736  0.3661
 6241SOL    HW219623   2.958   0.544   4.332  3.3903 -0.7609  1.5856
 6242SOL     OW19624   4.920   1.950   5.880 -0.2106  0.6874  0.1082
 6242SOL    HW119625   5.007   1.900   5.882 -0.7858 -0.3320  1.3090
 6242SOL    HW219626   4.897   1.973   5.785  0.5479 -0.4985 -0.3887
 6243SOL     OW19627   5.573   1.536   1.002  0.1311  0.0810  0.1729
 6243SOL    HW119628   5.539   1.536   0.908 -2.1280 -0.6598  0.9224
 6243SOL    HW219629   5.503   1.574   1.062  1.6518  0.8111  1.5470
 6244SOL     OW19630   4.562   1.449   3.497  0.2962  0.4079 -0.1219
 6244SOL    HW119631   4.467   1.429   3.519  0.3913  1.3158  1.2394
 6244SOL    HW219632   4.614   1.460   3.581  1.4120  0.8409 -0.8390
 6245SOL     OW19633   0.303   5.447   1.968 -0.1085  0.1469  0.1683
 6245SOL    HW119634   0.289   5.500   1.884  0.0778  0.1030  0.1081
 6245SOL    HW219635   0.327   5.353   1.944  0.7487  0.3337  0.2535
 6246SOL     OW19636   2.989   6.138   6.133 -0.1156  0.1336  1.0961
 6246SOL    HW119637   3.018   6.097   6.220  2.1821  1.2362  0.9244
 6246SOL    HW219638   2.937   6.071   6.081 -1.2313 -0.6852  3.1319
 6247SOL     OW19639   5.547   4.691   2.829 -0.0476 -0.4771 -0.2750
 6247SOL    HW119640   5.481   4.666   2.758 -0.1031  2.5563 -1.4400
 6247SOL    HW219641   5.640   4.687   2.790 -0.0065  0.3140 -0.2732
 6248SOL     OW19642   4.102   3.425   5.423 -0.3205  0.0992 -0.2664
 6248SOL    HW119643   4.179   3.361   5.433 -0.6550 -0.4410 -1.0468
 6248SOL    HW219644   4.132   3.517   5.450  0.4656 -0.1914 -0.1055
 6249SOL     OW19645   6.510   3.170   4.166 -0.2299  0.4397 -0.0356
 6249SOL    HW119646   6.544   3.086   4.210 -1.6963  0.1344  0.5866
 6249SOL    HW219647   6.449   3.145   4.091  1.2896  0.9747 -1.4975
 6250SOL     OW19648   4.724   0.794   4.973  0.2095 -0.0468 -0.1394
 6250SOL    HW119649   4.749   0.809   5.069  0.3006 -2.5022  0.2697
 6250SOL    HW219650   4.625   0.805   4.962  0.2905  0.9850  0.0466
 6251SOL     OW19651   3.603   0.757   4.289  0.5127  0.5067  0.1354
 6251SOL    HW119652   3.605   0.856   4.276  2.1914  0.5124  0.1144
 6251SOL    HW219653   3.515   0.729   4.328  0.2439  2.0733  0.7111
 6252SOL     OW19654   3.381   5.046   0.603  0.7689  0.4205 -0.3384
 6252SOL    HW119655   3.402   5.074   0.697  0.7347 -2.2081  0.5432
 6252SOL    HW219656   3.282   5.039   0.592  0.7868  0.2447 -0.3931
 6253SOL     OW19657   5.402   6.349   4.043 -0.2600  0.1926 -0.5461
 6253SOL    HW119658   5.391   6.293   4.125 -0.8179  0.8672 -0.1538
 6253SOL    HW219659   5.313   6.386   4.015  0.2722  2.0475  0.0444
 6254SOL     OW19660   0.794   5.416   0.433  0.1036 -0.2898  0.0880
 6254SOL    HW119661   0.786   5.329   0.481  3.8396 -0.4884  0.6940
 6254SOL    HW219662   0.800   5.400   0.334  0.3279 -0.6976  0.1669
 6255SOL     OW19663   4.883   1.402   2.142 -0.3572  1.0108 -0.1615
 6255SOL    HW119664   4.839   1.329   2.193  0.3614  0.2354 -0.6195
 6255SOL    HW219665   4.844   1.407   2.050 -0.1379  0.9372 -0.2598
 6256SOL     OW19666   0.070   3.283   3.255 -0.3469  0.0275 -0.4454
 6256SOL    HW119667   0.056   3.248   3.348  1.3285 -2.3316 -0.9848
 6256SOL    HW219668   0.167   3.298   3.240 -0.4267 -1.0688 -2.2617
 6257SOL     OW19669   2.653   4.958   6.995  0.2604 -0.2126 -0.5612
 6257SOL    HW119670   2.717   5.006   6.935  0.2204  1.1021  0.3827
 6257SOL    HW219671   2.657   4.860   6.978  2.9533 -0.2445 -0.1564
 6258SOL     OW19672   4.461   5.424   3.758  0.2566  1.1688 -0.1734
 6258SOL    HW119673   4.415   5.384   3.837  0.9133  1.5918  0.4426
 6258SOL    HW219674   4.543   5.370   3.737 -0.3977  0.5276 -1.1455
 6259SOL     OW19675   4.421   0.487   4.738 -0.2765  0.0308  0.2107
 6259SOL    HW119676   4.428   0.388   4.742  1.1394  0.1263  0.9159
 6259SOL    HW219677   4.437   0.518   4.644 -1.2139 -0.4182 -0.1071
 6260SOL     OW19678   3.751   6.967   6.389  0.5146  0.1305  0.0203
 6260SOL    HW119679   3.774   6.923   6.475 -1.4493  1.5702  1.3673
 6260SOL    HW219680   3.801   6.923   6.314  2.1874 -1.2260  1.8454
 6261SOL     OW19681   4.907   3.119   1.327 -0.6926 -0.2305  0.4326
 6261SOL    HW119682   4.967   3.056   1.278 -0.0982  1.1276 -0.6685
 6261SOL    HW219683   4.958   3.167   1.397 -0.3359  1.1850 -0.7397
 6262SOL     OW19684   5.667   6.819   3.957 -0.4359  0.4307  0.8542
 6262SOL    HW119685   5.681   6.901   4.013  1.1115 -0.4427  1.8197
 6262SOL    HW219686   5.641   6.743   4.016  0.3444 -0.2992  0.2766
 6263SOL     OW19687   6.835   1.082   6.589  0.0002  0.0218 -0.8690
 6263SOL    HW119688   6.791   1.080   6.499  0.4872 -1.7219 -1.1082
 6263SOL    HW219689   6.884   0.996   6.603  0.7526  0.6812  0.6675
 6264SOL     OW19690   2.137   6.775   0.126  0.8105  0.5895 -0.0581
 6264SOL    HW119691   2.171   6.818   0.210  2.7724 -1.3248  0.2266
 6264SOL    HW219692   2.046   6.737   0.142  0.4616  1.6943  0.6644
 6265SOL     OW19693   4.972   6.793   1.033 -0.6693 -0.0448  0.5969
 6265SOL    HW119694   4.893   6.849   1.007 -1.0335 -0.2352  1.2806
 6265SOL    HW219695   5.056   6.836   0.998 -1.0682  0.1258 -0.1953
 6266SOL     OW19696   3.204   6.666   4.880  0.1509 -0.1906  0.0773
 6266SOL    HW119697   3.120   6.678   4.827 -0.7410 -1.1211  1.2150
 6266SOL    HW219698   3.234   6.755   4.914 -1.3341 -0.0111  1.0328
 6267SOL     OW19699   0.754   6.644   3.651 -0.3862 -0.0643  0.5841
 6267SOL    HW119700   0.795   6.729   3.684  0.0670 -0.3059  0.6517
 6267SOL    HW219701   0.741   6.582   3.728  0.5598 -0.5823  0.3419
 6268SOL     OW19702   1.959   2.316   1.387  0.4806 -0.1848 -0.0540
 6268SOL    HW119703   1.997   2.228   1.416  1.6068  0.8360  1.8295
 6268SOL    HW219704   2.028   2.367   1.336  1.1108  0.9085  1.7591
 6269SOL     OW19705   6.626   4.140   2.661 -0.6327 -0.2105 -0.1532
 6269SOL    HW119706   6.578   4.131   2.574  2.5167 -2.6019 -1.8811
 6269SOL    HW219707   6.691   4.065   2.671  0.7382  1.2113  3.2828
 6270SOL     OW19708   0.963   6.372   2.047  0.4334 -0.0170 -0.5743
 6270SOL    HW119709   0.885   6.349   2.106  0.3420  0.5573 -0.4613
 6270SOL    HW219710   1.004   6.457   2.080  1.6594 -0.7836 -0.0873
 6271SOL     OW19711   6.400   4.343   6.084  0.3724 -0.3323 -0.3576
 6271SOL    HW119712   6.306   4.365   6.059  0.2426 -0.3407  0.1066
 6271SOL    HW219713   6.462   4.410   6.044  0.0362  0.5250  0.5099
 6272SOL     OW19714   1.727   0.329   6.631  0.4795  0.7150 -0.3306
 6272SOL    HW119715   1.775   0.398   6.685  0.1831  2.5867 -2.3055
 6272SOL    HW219716   1.789   0.290   6.564  0.3141 -0.0509 -0.0482
 6273SOL     OW19717   1.007   6.364   5.139  0.4393  0.4101  0.2077
 6273SOL    HW119718   1.083   6.428   5.143  2.7217 -2.1041 -0.1965
 6273SOL    HW219719   0.948   6.387   5.061  2.1743  1.0148 -0.9780
 6274SOL     OW19720   2.101   6.162   4.372 -0.4931 -0.3226  0.0967
 6274SOL    HW119721   2.010   6.203   4.363  0.4243  1.8844  0.3793
 6274SOL    HW219722   2.159   6.219   4.429  2.1619  0.2769 -2.8903
 6275SOL     OW19723   3.090   4.996   1.514 -0.3984 -0.0749 -0.4137
 6275SOL    HW119724   2.993   4.990   1.489 -0.3102 -0.6144 -0.6267
 6275SOL    HW219725   3.139   5.047   1.443 -0.5370  0.2619 -0.2698
 6276SOL     OW19726   2.967   4.778   2.969  0.3313  0.0292  0.0473
 6276SOL    HW119727   2.965   4.765   3.068  1.3811 -0.6451  0.0062
 6276SOL    HW219728   2.897   4.844   2.941  0.6177  0.9047  1.3390
 6277SOL     OW19729   6.040   1.304   1.420 -0.4293 -0.2007  0.4775
 6277SOL    HW119730   6.126   1.265   1.452 -0.6479 -0.1517  1.1361
 6277SOL    HW219731   6.057   1.392   1.377  0.1067 -1.0952 -1.2585
 6278SOL     OW19732   2.851   0.235   6.481 -0.2847 -0.0777 -0.6545
 6278SOL    HW119733   2.937   0.190   6.508 -0.2935  1.9119  3.3435
 6278SOL    HW219734   2.872   0.316   6.426  0.5932  0.9318  1.0729
 6279SOL     OW19735   1.326   1.355   6.704 -0.3489 -0.2005  0.0664
 6279SOL    HW119736   1.371   1.269   6.728 -1.0837 -0.8157 -0.6837
 6279SOL    HW219737   1.253   1.375   6.770 -0.7590 -0.6232 -0.2508
 6280SOL     OW19738   5.805   0.927   6.536  0.5538 -0.3335  0.0133
 6280SOL    HW119739   5.823   0.831   6.560  0.6529  0.0242  1.5049
 6280SOL    HW219740   5.863   0.986   6.593 -1.6822  0.6935  1.3567
 6281SOL     OW19741   5.468   2.488   6.456  0.0116 -0.0869 -0.2479
 6281SOL    HW119742   5.532   2.524   6.523  0.2220  0.2302 -0.6185
 6281SOL    HW219743   5.477   2.388   6.452 -1.6904 -0.3932  1.9346
 6282SOL     OW19744   1.486   4.972   3.276 -0.1432 -0.4932  0.2793
 6282SOL    HW119745   1.531   5.053   3.238  0.1521 -0.9379 -0.3267
 6282SOL    HW219746   1.392   4.968   3.243  0.3789 -1.3658 -1.1574
 6283SOL     OW19747   2.434   0.384   3.139  0.1168 -0.5960 -0.3196
 6283SOL    HW119748   2.455   0.314   3.072 -1.3208 -1.5085  0.1256
 6283SOL    HW219749   2.495   0.375   3.218 -0.5537 -1.9142  0.0888
 6284SOL     OW19750   0.964   6.610   4.920 -0.6425  0.3567 -0.4947
 6284SOL    HW119751   0.880   6.567   4.953  0.1750 -0.5209  0.5086
 6284SOL    HW219752   1.033   6.608   4.992  0.3455  0.8048 -1.4008
 6285SOL     OW19753   1.961   2.852   3.791 -0.0854  0.2382  0.1491
 6285SOL    HW119754   1.886   2.802   3.747 -0.0628 -0.0046  0.3777
 6285SOL    HW219755   1.924   2.914   3.860 -0.1633  1.0536 -0.6111
 6286SOL     OW19756   0.495   2.604   6.288 -0.2874 -0.0211  0.5736
 6286SOL    HW119757   0.441   2.568   6.365 -0.6905 -0.1023  0.2617
 6286SOL    HW219758   0.467   2.698   6.269 -2.3396 -0.8938 -1.3224
 6287SOL     OW19759   3.684   5.384   4.597  0.2686 -0.1176  0.4050
 6287SOL    HW119760   3.766   5.328   4.610  2.0274  1.9833 -1.0534
 6287SOL    HW219761   3.700   5.476   4.632 -0.9519  0.7576 -1.1900
 6288SOL     OW19762   2.342   3.696   5.691  0.7592 -0.1735  0.2099
 6288SOL    HW119763   2.276   3.660   5.624  1.5480 -0.0974 -0.6316
 6288SOL    HW219764   2.395   3.620   5.728 -0.0155 -0.2785  1.1554
 6289SOL     OW19765   3.001   0.034   4.812 -0.2337  0.1509  0.1273
 6289SOL    HW119766   3.081   0.061   4.759 -0.2936 -0.2921 -0.1934
 6289SOL    HW219767   3.030  -0.015   4.894 -0.1662  0.3039  0.1963
 6290SOL     OW19768   6.264   2.321   2.500 -0.0575  0.8839 -0.0717
 6290SOL    HW119769   6.223   2.412   2.492  1.1299  1.7491  2.4720
 6290SOL    HW219770   6.361   2.331   2.522  0.6041 -1.0729 -1.7655
 6291SOL     OW19771   3.447   3.348   2.257 -0.0902  0.1019  0.4445
 6291SOL    HW119772   3.526   3.287   2.252  0.2286  0.6086 -1.4027
 6291SOL    HW219773   3.370   3.308   2.207  0.0979  1.1188 -0.7229
 6292SOL     OW19774   0.901   5.160   4.136  0.1320 -0.1275 -0.3953
 6292SOL    HW119775   0.881   5.220   4.214 -0.5647  0.2032 -0.8161
 6292SOL    HW219776   0.815   5.120   4.102  0.5598 -1.1834 -0.2719
 6293SOL     OW19777   2.249   2.046   6.717  0.0409 -0.0325 -0.0518
 6293SOL    HW119778   2.168   2.039   6.658 -0.2957  0.5300  0.3337
 6293SOL    HW219779   2.286   2.139   6.713  0.9604 -0.4075 -0.5869
 6294SOL     OW19780   1.254   1.561   1.913  0.2712 -0.1302 -0.0023
 6294SOL    HW119781   1.250   1.648   1.961 -0.7603 -0.5049  0.6340
 6294SOL    HW219782   1.166   1.541   1.871  0.8893 -0.2485 -1.3066
 6295SOL     OW19783   3.255   4.438   6.477  0.1985  0.0077  0.8186
 6295SOL    HW119784   3.307   4.375   6.419 -0.9732  0.5112 -0.8672
 6295SOL    HW219785   3.181   4.389   6.522 -0.1526 -0.0102  0.2322
 6296SOL     OW19786   5.709   3.477   1.375  0.0914  0.0164 -0.2561
 6296SOL    HW119787   5.782   3.525   1.326  0.1786 -0.8446 -0.9897
 6296SOL    HW219788   5.625   3.532   1.372  0.7609  1.1589  0.8585
 6297SOL     OW19789   0.343   1.815   3.321 -0.1493  0.2665 -0.0033
 6297SOL    HW119790   0.440   1.791   3.321  0.0976  1.1374 -1.5929
 6297SOL    HW219791   0.332   1.913   3.302 -1.2995  0.5370  1.7602
 6298SOL     OW19792   1.107   2.280   6.922  0.3348 -0.2061  0.3928
 6298SOL    HW119793   1.131   2.377   6.928 -1.0451  0.1142  1.0044
 6298SOL    HW219794   1.102   2.241   7.013  0.0061 -0.6308  0.1979
 6299SOL     OW19795   1.960   2.118   3.862 -0.1611 -0.1088  0.1689
 6299SOL    HW119796   1.932   2.167   3.945 -0.3129  1.0233 -0.5425
 6299SOL    HW219797   1.878   2.085   3.814 -0.1966  1.0629 -0.6158
 6300SOL     OW19798   1.439   1.944   0.495 -0.2148  1.1919 -0.3212
 6300SOL    HW119799   1.407   2.022   0.548  0.2384 -0.1184  2.0193
 6300SOL    HW219800   1.484   1.878   0.556 -1.1719 -1.2187 -2.0575
 6301SOL     OW19801   3.276   5.852   5.950 -0.0437  0.8281 -0.3694
 6301SOL    HW119802   3.262   5.755   5.933  1.8597  0.6331 -0.9795
 6301SOL    HW219803   3.215   5.905   5.890 -0.9581  0.0492 -0.1598
 6302SOL     OW19804   0.394   4.299   0.716  0.1545  0.1702  0.2107
 6302SOL    HW119805   0.382   4.203   0.740  0.6922 -0.1271 -0.6869
 6302SOL    HW219806   0.417   4.307   0.619 -1.6301  1.3222 -0.1674
 6303SOL     OW19807   6.562   5.670   4.669 -0.2334 -0.0196 -0.6716
 6303SOL    HW119808   6.627   5.670   4.593 -0.6045 -1.6644 -1.0386
 6303SOL    HW219809   6.610   5.648   4.754 -0.0598  0.2917 -0.6902
 6304SOL     OW19810   2.279   1.388   0.100  0.2468  0.4317  0.7861
 6304SOL    HW119811   2.373   1.374   0.071  0.3563  0.8194  0.9470
 6304SOL    HW219812   2.222   1.408   0.019 -0.3959 -3.1487  0.1764
 6305SOL     OW19813   1.707   5.248   6.244  0.5207 -0.2633 -0.0527
 6305SOL    HW119814   1.736   5.153   6.250 -0.0354 -0.3843  1.0045
 6305SOL    HW219815   1.771   5.299   6.187  2.1913 -0.7773  1.2597
 6306SOL     OW19816   0.324   4.408   5.268 -0.6437 -0.1568 -0.3749
 6306SOL    HW119817   0.378   4.492   5.277 -1.2016  0.5390 -2.7907
 6306SOL    HW219818   0.385   4.329   5.258 -0.0356  0.4439 -1.6711
 6307SOL     OW19819   4.066   3.261   3.338 -0.3642  0.0378  0.4033
 6307SOL    HW119820   3.992   3.210   3.294  0.4811 -0.7118 -0.1965
 6307SOL    HW219821   4.152   3.242   3.291  0.1668  1.1296  0.9001
 6308SOL     OW19822   2.908   0.357   1.423 -0.2131  0.1872  0.3129
 6308SOL    HW119823   2.882   0.399   1.335  0.1460  1.3730  0.7478
 6308SOL    HW219824   2.978   0.287   1.407 -1.5467 -1.0102 -0.5483
 6309SOL     OW19825   2.208   4.105   4.419  0.1513 -0.0895  0.5801
 6309SOL    HW119826   2.246   4.157   4.495  0.2026 -1.2393  1.3703
 6309SOL    HW219827   2.108   4.110   4.422  0.1539  1.5265 -0.4988
 6310SOL     OW19828   1.402   1.009   2.220  0.4392 -0.0741  0.0277
 6310SOL    HW119829   1.334   1.018   2.293  0.5507  0.9380  0.0304
 6310SOL    HW219830   1.356   0.990   2.134 -0.0323  2.0523 -0.2530
 6311SOL     OW19831   6.658   2.607   5.794 -0.4125 -0.2181 -0.0034
 6311SOL    HW119832   6.655   2.530   5.731  1.7250 -1.1389  0.9516
 6311SOL    HW219833   6.592   2.592   5.869 -0.5475 -0.7343 -0.2246
 6312SOL     OW19834   3.151   4.827   0.188  0.3224  0.0850  0.3977
 6312SOL    HW119835   3.054   4.825   0.163  0.6053  1.6200 -1.0093
 6312SOL    HW219836   3.171   4.911   0.237  0.7580 -0.7089  1.6120
 6313SOL     OW19837   5.312   5.277   2.225 -0.7946  0.4093 -0.0947
 6313SOL    HW119838   5.382   5.319   2.283 -0.4541 -2.5125  1.8253
 6313SOL    HW219839   5.355   5.240   2.143 -0.0359 -1.1798  0.9690
 6314SOL     OW19840   0.921   5.806   1.150 -0.1420  0.0937 -0.4275
 6314SOL    HW119841   0.942   5.897   1.185 -2.9536  0.4051  0.7739
 6314SOL    HW219842   0.941   5.802   1.052  0.7102  1.7521 -0.3572
 6315SOL     OW19843   3.033   1.276   3.771 -0.0351 -0.6075 -0.1707
 6315SOL    HW119844   3.075   1.291   3.682 -0.3214 -1.0497 -0.3842
 6315SOL    HW219845   2.979   1.356   3.797 -1.0936 -1.0183 -1.0380
 6316SOL     OW19846   3.510   0.119   5.113  0.2032  0.2450 -0.7443
 6316SOL    HW119847   3.455   0.202   5.100  1.4359  1.0153 -1.1923
 6316SOL    HW219848   3.553   0.122   5.203 -0.0282 -0.0924 -0.6196
 6317SOL     OW19849   2.789   5.333   4.023  0.4535 -0.1024  0.1005
 6317SOL    HW119850   2.810   5.377   4.110  1.2922  0.7147 -0.4967
 6317SOL    HW219851   2.735   5.395   3.967  0.4319 -0.3877 -0.1975
 6318SOL     OW19852   4.310   6.634   1.351 -0.3428  0.3800  0.1246
 6318SOL    HW119853   4.326   6.630   1.449  0.4801  1.1581  0.0223
 6318SOL    HW219854   4.244   6.562   1.326  1.2822 -1.4777  0.8649
 6319SOL     OW19855   5.434   2.339   3.285 -0.1235  0.3152 -0.4204
 6319SOL    HW119856   5.364   2.382   3.343 -2.1343 -2.2354 -0.7442
 6319SOL    HW219857   5.443   2.391   3.200 -0.0189  1.8870  0.5110
 6320SOL     OW19858   3.701   2.979   6.548  0.1054  0.8785 -0.1497
 6320SOL    HW119859   3.723   2.989   6.450 -0.8837 -1.5253 -0.6616
 6320SOL    HW219860   3.784   2.951   6.597  0.8774  3.0980 -0.0364
 6321SOL     OW19861   0.134   3.715   6.251  0.3839  0.4174 -0.0278
 6321SOL    HW119862   0.171   3.634   6.297 -0.1369  0.6399  0.7957
 6321SOL    HW219863   0.199   3.790   6.257  1.3478 -0.2150 -1.7271
 6322SOL     OW19864   0.844   3.681   1.350 -0.7499  0.3381  0.2356
 6322SOL    HW119865   0.901   3.600   1.342 -1.6325 -0.5429  2.1156
 6322SOL    HW219866   0.827   3.700   1.447 -2.4095  1.4487 -0.2224
 6323SOL     OW19867   1.769   6.841   1.245 -0.2037  0.8678  0.6683
 6323SOL    HW119868   1.852   6.885   1.280  0.8318 -1.1123  0.8419
 6323SOL    HW219869   1.701   6.836   1.319  0.2369  0.8233  1.0771
 6324SOL     OW19870   6.989   5.326   1.411 -0.0236 -0.1541 -0.0596
 6324SOL    HW119871   7.061   5.359   1.472  0.6457 -0.2156 -0.7836
 6324SOL    HW219872   6.989   5.226   1.410  1.6817 -0.2272 -2.0024
 6325SOL     OW19873   0.621   3.252   3.250  0.3682 -0.0170  0.1242
 6325SOL    HW119874   0.711   3.269   3.211  0.8472  0.6334  1.4392
 6325SOL    HW219875   0.630   3.217   3.343 -0.7312 -0.3472  0.1265
 6326SOL     OW19876   6.082   5.566   4.573  0.0391  0.1050 -0.5362
 6326SOL    HW119877   6.122   5.482   4.610 -1.4257 -0.6912 -0.6770
 6326SOL    HW219878   5.990   5.547   4.540 -0.0152  1.6008 -1.3435
 6327SOL     OW19879   0.292   1.122   1.050  0.1249 -0.4340 -0.2192
 6327SOL    HW119880   0.340   1.179   0.983  1.0630  1.0646  1.6033
 6327SOL    HW219881   0.306   1.026   1.029  0.4115 -0.0283 -2.1083
 6328SOL     OW19882   3.925   3.801   4.809 -0.3517  0.1347  0.0125
 6328SOL    HW119883   3.845   3.861   4.811 -0.8748 -0.5714  0.6903
 6328SOL    HW219884   3.946   3.775   4.715 -1.5032 -0.4495 -0.0893
 6329SOL     OW19885   6.511   2.937   3.795 -0.2155 -0.0006 -0.7135
 6329SOL    HW119886   6.489   2.884   3.713  1.0278  0.2078 -1.1939
 6329SOL    HW219887   6.597   2.986   3.782 -0.8927  1.4600  0.0479
 6330SOL     OW19888   5.380   1.354   6.489 -0.1787 -0.4761  0.2507
 6330SOL    HW119889   5.284   1.344   6.462  0.2829  2.0765 -2.9383
 6330SOL    HW219890   5.384   1.404   6.575 -1.7019 -0.2124  0.2098
 6331SOL     OW19891   1.073   2.891   3.035  0.2133  0.1504  0.2578
 6331SOL    HW119892   1.053   2.989   3.043  0.4635  0.4589 -2.1804
 6331SOL    HW219893   1.164   2.873   3.071  0.1372  0.8025  0.7983
 6332SOL     OW19894   3.187   1.024   6.879  0.1471  0.2362 -0.2786
 6332SOL    HW119895   3.241   0.946   6.848 -2.7622 -1.7014 -0.8506
 6332SOL    HW219896   3.194   1.098   6.812 -0.2286 -1.1212 -1.8843
 6333SOL     OW19897   5.903   2.665   2.164  1.0440  0.7658 -0.1392
 6333SOL    HW119898   5.840   2.742   2.176  0.6601  0.3260  0.6696
 6333SOL    HW219899   5.993   2.689   2.201  1.0985  1.0455 -0.4461
 6334SOL     OW19900   1.657   1.513   0.634  0.8771  0.2312  0.2009
 6334SOL    HW119901   1.738   1.470   0.675  1.1117  1.4079  1.0294
 6334SOL    HW219902   1.576   1.460   0.658  1.1450  0.2880  1.2708
 6335SOL     OW19903   6.075   0.801   5.142  0.5429 -0.7121 -0.1347
 6335SOL    HW119904   6.001   0.745   5.105 -1.2257  1.0734  0.5231
 6335SOL    HW219905   6.135   0.744   5.197 -0.0757 -2.3022 -1.0222
 6336SOL     OW19906   0.782   4.765   5.377 -0.6407  0.4585  0.1553
 6336SOL    HW119907   0.796   4.725   5.287  0.1630  1.0129  0.0178
 6336SOL    HW219908   0.703   4.826   5.375  0.4252  1.8826 -0.6926
 6337SOL     OW19909   4.629   6.996   4.019 -0.6217  0.4206  0.4601
 6337SOL    HW119910   4.624   7.094   4.035 -0.4256  0.3069  1.2573
 6337SOL    HW219911   4.596   6.947   4.100  1.6687 -0.1961  1.0888
 6338SOL     OW19912   0.612   1.625   0.118 -0.1827 -0.0423  0.5313
 6338SOL    HW119913   0.586   1.564   0.043 -1.7876  0.3864  0.7151
 6338SOL    HW219914   0.707   1.606   0.145  0.3857 -0.3199 -1.4841
 6339SOL     OW19915   6.283   3.691   4.131 -1.2417 -0.1828 -0.2472
 6339SOL    HW119916   6.378   3.724   4.136 -1.6323  0.8948  0.4827
 6339SOL    HW219917   6.277   3.599   4.169 -0.4233 -0.4177 -0.6586
 6340SOL     OW19918   2.830   4.504   0.204  0.0659  0.5023 -0.2247
 6340SOL    HW119919   2.857   4.457   0.121 -2.0131  1.9842 -1.8416
 6340SOL    HW219920   2.881   4.590   0.212 -0.9467  1.1995 -0.9574
 6341SOL     OW19921   1.578   5.611   3.047  0.2810  0.0255  0.4807
 6341SOL    HW119922   1.487   5.571   3.035  0.5643 -0.1488 -1.3605
 6341SOL    HW219923   1.591   5.635   3.143 -1.0800 -1.4443  1.0806
 6342SOL     OW19924   2.631   6.634   6.647 -0.9189 -0.5118  0.2769
 6342SOL    HW119925   2.662   6.659   6.555 -0.0567  0.1763  0.7321
 6342SOL    HW219926   2.553   6.571   6.641 -0.5754 -0.8445 -0.9155
 6343SOL     OW19927   1.524   2.843   1.558  0.3958  0.2309 -0.3454
 6343SOL    HW119928   1.501   2.753   1.596 -0.0526  0.3950 -0.2162
 6343SOL    HW219929   1.485   2.914   1.617 -1.9902  0.4867 -2.0876
 6344SOL     OW19930   2.282   0.751   3.881  0.1122  0.1636  0.5891
 6344SOL    HW119931   2.300   0.657   3.911  0.9850 -0.7485 -2.4022
 6344SOL    HW219932   2.191   0.756   3.842  0.2870  0.4092  0.2140
 6345SOL     OW19933   1.014   2.643   5.898 -0.0042  0.6221  0.1087
 6345SOL    HW119934   1.051   2.582   5.829 -0.0304 -1.8330  2.1172
 6345SOL    HW219935   0.957   2.712   5.855 -0.2705 -0.9902 -2.2861
 6346SOL     OW19936   0.185   3.825   3.813 -0.1006 -0.3175  0.5357
 6346SOL    HW119937   0.201   3.731   3.780 -0.5311 -0.8063  1.6713
 6346SOL    HW219938   0.237   3.840   3.898  0.4255  0.6811  0.0593
 6347SOL     OW19939   1.752   3.273   2.516  0.4088 -0.3391 -0.9675
 6347SOL    HW119940   1.685   3.317   2.576  1.7025 -0.9779  1.0387
 6347SOL    HW219941   1.824   3.338   2.494  0.8324 -0.6028 -0.3774
 6348SOL     OW19942   1.010   2.520   6.157  0.5113  0.0154 -0.0308
 6348SOL    HW119943   0.932   2.459   6.161  0.7532 -0.3942 -1.1096
 6348SOL    HW219944   1.002   2.579   6.076 -0.0336  1.8705  1.3084
 6349SOL     OW19945   5.932   0.272   0.194  0.1236  0.2904 -0.2128
 6349SOL    HW119946   5.978   0.249   0.108  1.7690 -1.3976  1.0389
 6349SOL    HW219947   5.992   0.251   0.271 -1.2312  1.9166  1.3914
 6350SOL     OW19948   0.791   2.128   1.110  0.3708 -0.9167  0.1761
 6350SOL    HW119949   0.840   2.192   1.051 -0.1302 -0.8594 -0.1799
 6350SOL    HW219950   0.714   2.176   1.154  1.0246 -0.8208  1.2682
 6351SOL     OW19951   5.794   3.521   3.216 -0.4315 -0.1042 -0.5493
 6351SOL    HW119952   5.758   3.444   3.162  0.4823 -0.0664 -1.2330
 6351SOL    HW219953   5.780   3.503   3.313 -2.2150 -0.1232 -0.7803
 6352SOL     OW19954   1.971   1.762   3.925 -0.3525 -0.0701 -0.1864
 6352SOL    HW119955   1.908   1.693   3.959 -1.1369  0.6262 -0.1789
 6352SOL    HW219956   1.960   1.771   3.825 -0.4062  0.1834 -0.1591
 6353SOL     OW19957   4.238   0.978   0.038 -0.3267  0.1094  0.1145
 6353SOL    HW119958   4.324   0.951  -0.007  0.5483  2.2807  0.3466
 6353SOL    HW219959   4.179   0.898   0.048  0.0706 -0.7985 -3.4400
 6354SOL     OW19960   6.181   4.582   4.605  0.2768  0.1376 -0.6233
 6354SOL    HW119961   6.220   4.513   4.544 -1.0678 -0.8641 -0.3943
 6354SOL    HW219962   6.122   4.643   4.553  0.1130  0.0534 -0.5367
 6355SOL     OW19963   5.771   5.186   1.195 -0.2037 -0.2941 -0.1159
 6355SOL    HW119964   5.688   5.178   1.251 -0.2680  0.9345 -0.0137
 6355SOL    HW219965   5.836   5.115   1.222  1.1253  2.0584  3.8671
 6356SOL     OW19966   7.015   5.158   6.476 -0.0107  0.3624 -0.2018
 6356SOL    HW119967   6.945   5.221   6.441  1.8945  2.2919 -0.7198
 6356SOL    HW219968   7.057   5.109   6.400 -1.4418 -1.5876  0.1953
 6357SOL     OW19969   5.535   2.419   1.993  0.1199  0.0013  0.3668
 6357SOL    HW119970   5.513   2.509   2.032  0.0548 -0.5084  1.5470
 6357SOL    HW219971   5.590   2.431   1.911 -1.8211  1.2164 -0.8427
 6358SOL     OW19972   0.968   6.787   4.502  0.0622 -0.2173  0.1727
 6358SOL    HW119973   0.904   6.720   4.540 -0.5078 -0.5676 -1.3148
 6358SOL    HW219974   0.962   6.872   4.554 -2.2593  0.0512 -0.4195
 6359SOL     OW19975   1.897   4.637   1.132  0.5091  0.4721 -0.4577
 6359SOL    HW119976   1.805   4.662   1.165  1.2772 -0.1876  2.4971
 6359SOL    HW219977   1.890   4.558   1.072 -0.8352 -0.0859  0.3726
 6360SOL     OW19978   0.664   3.964   6.167  0.1531  0.9411  0.3531
 6360SOL    HW119979   0.593   4.001   6.229 -0.7524  0.1395 -0.1855
 6360SOL    HW219980   0.670   4.022   6.086  1.1140  1.8072  1.0124
 6361SOL     OW19981   0.925   1.097   4.569 -0.5283 -0.2573  0.0302
 6361SOL    HW119982   0.851   1.164   4.569  0.2587  0.6215 -0.0300
 6361SOL    HW219983   0.927   1.051   4.658  0.1483  1.1742  0.7756
 6362SOL     OW19984   0.183   6.119   0.515  0.3181 -0.2807  0.0359
 6362SOL    HW119985   0.257   6.185   0.499  0.0389  0.2397  0.8661
 6362SOL    HW219986   0.213   6.050   0.581 -0.4013  0.7705  1.5209
 6363SOL     OW19987   0.784   0.017   2.106 -0.0658  0.3314  0.5440
 6363SOL    HW119988   0.703   0.037   2.162  0.2845  0.4113  1.0262
 6363SOL    HW219989   0.794   0.088   2.036 -2.0155 -1.1361 -1.3722
 6364SOL     OW19990   4.093   1.188   2.808 -0.0838 -0.4452  0.2175
 6364SOL    HW119991   4.050   1.275   2.785  0.5629 -0.5338 -1.4587
 6364SOL    HW219992   4.030   1.132   2.862 -1.4441  0.0691 -0.8017
 6365SOL     OW19993   6.422   6.959   0.743 -0.1013  0.1476 -0.1753
 6365SOL    HW119994   6.450   7.054   0.728 -0.7306  0.3682  0.0255
 6365SOL    HW219995   6.465   6.924   0.826  0.3103  0.1783 -0.3712
 6366SOL     OW19996   6.713   2.658   4.883 -0.0102  0.6343  0.3631
 6366SOL    HW119997   6.650   2.580   4.887 -1.7775  1.9462 -0.1460
 6366SOL    HW219998   6.755   2.672   4.972  0.1418 -0.7243  0.5260
 6367SOL     OW19999   0.901   2.939   4.392 -0.5449 -0.3809  0.1520
 6367SOL    HW120000   0.829   2.942   4.324 -1.5201  1.0811  1.1850
 6367SOL    HW220001   0.898   3.022   4.448  3.6492  1.1378 -1.4560
 6368SOL     OW20002   0.594   2.816   5.324 -0.4155  0.0835 -0.7434
 6368SOL    HW120003   0.590   2.834   5.226 -1.9756  2.3475 -0.3424
 6368SOL    HW220004   0.682   2.846   5.360  1.2574 -3.1383 -1.7508
 6369SOL     OW20005   3.591   3.686   1.912  0.1401 -0.1897 -0.4544
 6369SOL    HW120006   3.538   3.739   1.977  1.2715  0.0647  0.3001
 6369SOL    HW220007   3.534   3.614   1.872 -1.4703  1.6277 -1.6084
 6370SOL     OW20008   4.988   3.540   5.722 -0.1308  0.5051  0.2522
 6370SOL    HW120009   5.060   3.607   5.740 -0.2085  0.5981  0.2160
 6370SOL    HW220010   4.986   3.518   5.624  0.7344 -0.5029  0.4373
 6371SOL     OW20011   5.092   4.530   1.096  0.3063  0.6680  0.0752
 6371SOL    HW120012   5.062   4.625   1.096 -0.0303  0.5919 -1.9556
 6371SOL    HW220013   5.174   4.520   1.040  0.8139 -0.1177  0.9202
 6372SOL     OW20014   4.712   1.852   2.964  0.9355 -0.2060  0.1131
 6372SOL    HW120015   4.750   1.840   3.056 -1.1912  0.3276  1.1250
 6372SOL    HW220016   4.758   1.928   2.919  0.0196  1.5223  1.9491
 6373SOL     OW20017   5.562   3.391   2.309 -0.4136  0.3968  0.0565
 6373SOL    HW120018   5.588   3.485   2.287 -0.6636  0.6400  0.7720
 6373SOL    HW220019   5.465   3.388   2.334 -0.2539  0.0561  0.6559
 6374SOL     OW20020   2.058   4.612   0.450  0.4397  0.1117  0.4620
 6374SOL    HW120021   2.005   4.664   0.517  1.8185  1.6002  0.4695
 6374SOL    HW220022   2.080   4.672   0.372  1.4842 -0.6652  0.1394
 6375SOL     OW20023   6.767   2.420   1.834  0.1650 -0.7765 -0.7739
 6375SOL    HW120024   6.749   2.396   1.739 -1.4767 -1.0806 -0.4205
 6375SOL    HW220025   6.806   2.341   1.882  1.7047 -0.3855 -1.3618
 6376SOL     OW20026   5.436   6.724   1.817 -0.1905 -0.0713 -0.5685
 6376SOL    HW120027   5.367   6.667   1.772  1.3825 -1.0813 -1.7613
 6376SOL    HW220028   5.406   6.743   1.911 -1.1875 -2.1140 -0.4148
 6377SOL     OW20029   6.256   3.402   0.849  0.1206 -0.0779 -0.7535
 6377SOL    HW120030   6.278   3.445   0.761 -0.5964 -1.3192 -1.5640
 6377SOL    HW220031   6.159   3.382   0.854  0.1462 -0.0035  0.3446
 6378SOL     OW20032   6.639   3.553   1.971  0.7093  0.1076  0.9725
 6378SOL    HW120033   6.703   3.610   1.920 -0.5750  1.8908  1.2703
 6378SOL    HW220034   6.639   3.580   2.067 -0.3014 -0.0231  1.0205
 6379SOL     OW20035   1.944   4.176   0.104  0.2329  0.2120 -0.2520
 6379SOL    HW120036   1.883   4.252   0.084  0.5587  0.3208 -0.8565
 6379SOL    HW220037   2.028   4.210   0.145 -0.4474 -0.0135  1.3814
 6380SOL     OW20038   2.342   1.655   3.869 -0.6121 -0.3313 -0.0996
 6380SOL    HW120039   2.320   1.735   3.925 -0.7365 -1.3203  1.2970
 6380SOL    HW220040   2.267   1.639   3.804 -0.8678  0.3177  0.0206
 6381SOL     OW20041   2.974   6.310   0.785  0.2374  0.7163  0.2703
 6381SOL    HW120042   3.027   6.384   0.825 -3.6024  1.6212  4.3392
 6381SOL    HW220043   2.993   6.225   0.834  1.0253  0.0134 -1.1782
 6382SOL     OW20044   1.470   2.774   1.897  0.8643  0.8685  0.2890
 6382SOL    HW120045   1.378   2.766   1.935  1.3255  0.6574  1.3943
 6382SOL    HW220046   1.513   2.684   1.893  0.9997  0.9567 -0.2809
 6383SOL     OW20047   2.770   1.822   1.978 -0.0577  0.3237 -0.3399
 6383SOL    HW120048   2.865   1.848   1.964 -0.2204  1.1654  0.0237
 6383SOL    HW220049   2.715   1.905   1.991 -0.7314 -0.1870  0.1152
 6384SOL     OW20050   0.989   3.294   2.190 -0.1241 -0.0994 -0.3011
 6384SOL    HW120051   0.976   3.310   2.288  1.4866  2.4192 -0.3979
 6384SOL    HW220052   1.077   3.250   2.175  0.2055  0.6500 -0.6435
 6385SOL     OW20053   6.944   4.471   3.126  0.2531 -0.0520 -0.2038
 6385SOL    HW120054   6.995   4.551   3.094 -0.9018  0.2129 -1.4780
 6385SOL    HW220055   6.957   4.396   3.061  1.0039 -0.7838  0.7735
 6386SOL     OW20056   1.678   5.030   1.204  0.0584  0.6107 -0.3506
 6386SOL    HW120057   1.641   5.070   1.120 -0.9078 -1.0101 -0.7385
 6386SOL    HW220058   1.640   4.938   1.216  1.5988  0.1061  0.9010
 6387SOL     OW20059   5.713   3.078   5.775 -0.8073 -0.3960 -0.0755
 6387SOL    HW120060   5.669   3.004   5.724 -0.3362 -1.8541  1.5146
 6387SOL    HW220061   5.812   3.061   5.778 -0.5153  1.0653 -0.8493
 6388SOL     OW20062   6.553   6.913   3.262 -0.0691  0.0477 -0.2548
 6388SOL    HW120063   6.641   6.937   3.303 -0.1216 -0.7802  0.3548
 6388SOL    HW220064   6.503   6.852   3.323 -1.0475  0.4631 -0.6270
 6389SOL     OW20065   6.077   0.309   5.917  0.3889 -0.5735 -0.3056
 6389SOL    HW120066   6.055   0.269   5.828 -1.9189 -2.5609  1.0343
 6389SOL    HW220067   6.012   0.383   5.937  0.4026 -0.6637  0.0724
 6390SOL     OW20068   4.753   5.722   1.201 -0.1012 -0.0878 -0.0552
 6390SOL    HW120069   4.696   5.640   1.202 -0.0299 -0.1685 -1.0929
 6390SOL    HW220070   4.700   5.800   1.167  0.4205 -0.1995 -1.1817
 6391SOL     OW20071   0.644   1.294   7.003  0.3455  0.1823  0.4598
 6391SOL    HW120072   0.551   1.269   6.979 -0.1509  0.9204  1.5398
 6391SOL    HW220073   0.669   1.254   7.091  1.7994 -1.6937 -0.7133
 6392SOL     OW20074   3.836   6.843   5.816  0.6964 -0.7268  0.1055
 6392SOL    HW120075   3.817   6.859   5.719  0.2285 -1.2528  0.1036
 6392SOL    HW220076   3.927   6.877   5.838  0.8075 -0.5993 -0.5207
 6393SOL     OW20077   2.766   4.679   1.407 -0.3306 -0.1233  0.3159
 6393SOL    HW120078   2.724   4.611   1.347  0.1065  0.2963 -0.4712
 6393SOL    HW220079   2.832   4.634   1.467  0.5006 -0.3140 -0.7011
 6394SOL     OW20080   1.777   0.031   2.576  0.5317 -0.1109 -0.3485
 6394SOL    HW120081   1.874   0.003   2.578  0.3529 -0.7274  0.0707
 6394SOL    HW220082   1.760   0.097   2.649  0.8753  0.8408 -1.1128
 6395SOL     OW20083   0.664   4.330   4.142  0.3047 -0.0968  0.0023
 6395SOL    HW120084   0.637   4.402   4.078 -0.0456 -0.2625 -0.0372
 6395SOL    HW220085   0.630   4.242   4.109 -1.3137  0.0154  1.2345
 6396SOL     OW20086   0.911   3.985   2.753 -0.1342  0.4924 -0.4237
 6396SOL    HW120087   0.945   4.077   2.774 -0.4741  1.1364 -2.4674
 6396SOL    HW220088   0.985   3.919   2.764 -0.4343  0.5760  3.3089
 6397SOL     OW20089   6.821   1.079   3.901 -0.0762  0.2560 -0.6060
 6397SOL    HW120090   6.760   1.057   3.825 -0.3367 -0.8047 -0.1104
 6397SOL    HW220091   6.873   0.997   3.927 -0.5291  0.3877  0.8199
 6398SOL     OW20092   0.223   0.127   2.269  0.2825  0.2718 -0.5713
 6398SOL    HW120093   0.192   0.038   2.237 -0.6165  0.5040 -0.3696
 6398SOL    HW220094   0.186   0.144   2.361 -1.5152  1.8183 -1.4971
 6399SOL     OW20095   1.897   0.740   4.496 -0.2516 -0.4959  0.1545
 6399SOL    HW120096   1.962   0.720   4.569 -1.8167 -1.3490  1.3775
 6399SOL    HW220097   1.941   0.797   4.426  1.8235 -1.1784  0.8456
 6400SOL     OW20098   2.111   0.450   2.723 -0.5920  0.3004 -0.3477
 6400SOL    HW120099   2.054   0.476   2.800  1.6649  0.3981  1.3879
 6400SOL    HW220100   2.141   0.532   2.674  0.4625  0.5095  0.5967
 6401SOL     OW20101   5.185   5.254   0.040  0.1554 -0.1842  0.4412
 6401SOL    HW120102   5.195   5.160   0.071 -0.8263  0.2342  2.1524
 6401SOL    HW220103   5.200   5.317   0.117 -0.6888  0.9908 -0.3106
 6402SOL     OW20104   4.416   2.508   6.764  0.5217  0.0091 -0.2111
 6402SOL    HW120105   4.411   2.418   6.719 -2.1580  0.4020 -0.8791
 6402SOL    HW220106   4.412   2.496   6.863 -1.7501 -0.6256 -0.3163
 6403SOL     OW20107   4.644   4.158   6.815  0.5321  0.7272  0.2333
 6403SOL    HW120108   4.607   4.170   6.907  0.0411  1.0857 -0.0063
 6403SOL    HW220109   4.744   4.159   6.818  0.5218  2.4710  0.5535
 6404SOL     OW20110   4.911   6.857   6.423  0.0131 -0.2249 -0.5088
 6404SOL    HW120111   4.996   6.836   6.472  0.6624 -0.0758 -1.5189
 6404SOL    HW220112   4.857   6.921   6.476 -0.4940 -1.9461  1.1418
 6405SOL     OW20113   3.870   1.161   4.358 -0.2792 -0.0443  0.1727
 6405SOL    HW120114   3.902   1.246   4.317  2.2720 -0.6175  0.7920
 6405SOL    HW220115   3.917   1.083   4.316  1.8192 -0.7165  3.4140
 6406SOL     OW20116   0.338   2.105   3.038  0.0341 -0.2699 -0.0027
 6406SOL    HW120117   0.328   2.014   2.998  2.6651 -1.3726  1.5552
 6406SOL    HW220118   0.402   2.159   2.983 -1.2609  0.5559 -0.7358
 6407SOL     OW20119   0.914   0.436   0.140 -0.1900  0.6956  0.0791
 6407SOL    HW120120   0.819   0.438   0.110 -0.0731  0.3038 -0.3245
 6407SOL    HW220121   0.937   0.345   0.172  0.2489  0.6090 -0.4753
 6408SOL     OW20122   0.434   0.533   4.921 -0.3558  0.2356 -0.8738
 6408SOL    HW120123   0.423   0.555   4.824 -0.0373 -0.6763 -1.1270
 6408SOL    HW220124   0.357   0.476   4.951  0.0258 -0.2642 -0.8356
 6409SOL     OW20125   6.575   4.703   3.864 -0.3816  0.0568 -0.1598
 6409SOL    HW120126   6.489   4.680   3.911  0.0928 -0.1358  0.6386
 6409SOL    HW220127   6.587   4.802   3.863 -0.6960  0.0913 -0.4176
 6410SOL     OW20128   1.858   2.350   0.654 -0.0984  0.0192  0.1565
 6410SOL    HW120129   1.933   2.293   0.624 -0.1333  0.1289 -0.1417
 6410SOL    HW220130   1.881   2.392   0.742  0.3644  0.3840 -0.1310
 6411SOL     OW20131   1.550   1.546   4.889 -0.0746  0.6470 -0.0245
 6411SOL    HW120132   1.642   1.564   4.855 -0.2534 -0.1846 -1.0164
 6411SOL    HW220133   1.483   1.584   4.825 -0.4155  0.6563  0.3399
 6412SOL     OW20134   5.097   0.682   6.431 -0.1447 -0.4466  0.2688
 6412SOL    HW120135   5.108   0.747   6.355  1.4459  0.1422  0.9665
 6412SOL    HW220136   5.003   0.688   6.466 -1.2364 -1.4727 -2.2627
 6413SOL     OW20137   6.940   0.570   3.730 -0.3956 -0.2576  0.4121
 6413SOL    HW120138   6.957   0.667   3.709 -1.3520  0.0713  1.0994
 6413SOL    HW220139   6.863   0.537   3.677  1.2487 -1.2977 -1.4768
 6414SOL     OW20140   3.628   5.396   0.052  0.1214 -0.1369  0.3840
 6414SOL    HW120141   3.641   5.317   0.111  1.0986 -1.2155 -1.1912
 6414SOL    HW220142   3.556   5.377  -0.015  1.1729 -0.2194 -0.7750
 6415SOL     OW20143   0.020   3.093   2.595 -0.0050  0.0989  0.0661
 6415SOL    HW120144  -0.004   3.032   2.520  1.2830 -0.2119 -0.1267
 6415SOL    HW220145   0.106   3.139   2.574 -0.3174  1.0380  0.7674
 6416SOL     OW20146   1.580   3.856   7.003  0.3416 -0.0948  0.0186
 6416SOL    HW120147   1.598   3.863   7.101  0.0404  1.1537  0.0056
 6416SOL    HW220148   1.614   3.768   6.969 -2.7179 -2.1816  1.9052
 6417SOL     OW20149   4.308   2.413   5.500  0.7464  0.2621  0.0918
 6417SOL    HW120150   4.290   2.486   5.565  2.7566 -0.4976  1.6355
 6417SOL    HW220151   4.346   2.334   5.549  0.1451 -1.2354 -1.7258
 6418SOL     OW20152   6.234   4.954   5.409  0.1188  0.2726  0.0676
 6418SOL    HW120153   6.229   5.046   5.449 -1.1922  0.4640 -0.4556
 6418SOL    HW220154   6.210   4.960   5.311 -0.3737 -0.6676  0.1210
 6419SOL     OW20155   1.061   1.394   5.823 -0.5193  0.6690  0.1148
 6419SOL    HW120156   1.158   1.411   5.805 -0.4425  1.1307  0.9405
 6419SOL    HW220157   1.009   1.415   5.741 -0.0414  1.5488  0.0174
 6420SOL     OW20158   3.978   4.970   4.119  0.3624  0.1892 -0.0612
 6420SOL    HW120159   4.041   4.958   4.196  0.5193  1.2266 -0.0110
 6420SOL    HW220160   3.929   5.057   4.129 -1.9678 -1.1298  0.5021
 6421SOL     OW20161   5.269   6.519   1.703 -0.1313 -0.3705 -0.3629
 6421SOL    HW120162   5.309   6.465   1.630 -0.7100  1.5909 -2.2268
 6421SOL    HW220163   5.173   6.536   1.684 -1.1940 -2.4274  2.5108
 6422SOL     OW20164   0.296   0.876   3.369 -0.3886  0.4506 -0.1624
 6422SOL    HW120165   0.220   0.903   3.310 -0.2650  2.8070  0.6621
 6422SOL    HW220166   0.260   0.842   3.456 -0.5152  0.4178 -0.2279
 6423SOL     OW20167   0.911   1.959   2.503 -0.1548 -0.2925 -0.5549
 6423SOL    HW120168   0.879   2.046   2.541 -0.6637 -0.4289 -0.6769
 6423SOL    HW220169   0.971   1.914   2.570 -0.7593 -0.3627 -0.0567
 6424SOL     OW20170   6.044   0.975   6.722 -0.6582  0.4662 -0.1729
 6424SOL    HW120171   6.074   1.070   6.723  0.1604  0.2343 -1.2123
 6424SOL    HW220172   6.074   0.931   6.637 -0.6839 -0.8257  0.4619
 6425SOL     OW20173   1.764   5.841   3.909 -0.4789  0.1560  0.3378
 6425SOL    HW120174   1.848   5.892   3.893 -0.0053 -0.4310  0.9321
 6425SOL    HW220175   1.778   5.745   3.886  0.0475 -0.6267  3.4352
 6426SOL     OW20176   3.162   4.897   3.832  0.7352 -0.4366  0.0887
 6426SOL    HW120177   3.239   4.925   3.889  0.4814  1.4465 -0.3953
 6426SOL    HW220178   3.081   4.882   3.889  1.4080 -2.3751  0.5909
 6427SOL     OW20179   4.060   3.285   3.026 -0.5839  0.1485 -0.7812
 6427SOL    HW120180   3.970   3.304   3.065 -1.7376 -1.3281 -2.5686
 6427SOL    HW220181   4.112   3.371   3.020 -2.0724  1.1398 -0.2294
 6428SOL     OW20182   0.851   5.204   0.816  0.0537 -0.1665 -0.1607
 6428SOL    HW120183   0.853   5.190   0.717  1.6995  0.5452 -0.2711
 6428SOL    HW220184   0.757   5.216   0.846 -0.4701 -0.2605 -1.6571
 6429SOL     OW20185   3.930   2.677   5.345 -0.9937 -0.5423 -0.2568
 6429SOL    HW120186   3.996   2.623   5.292 -0.6617 -0.3718 -0.0217
 6429SOL    HW220187   3.875   2.732   5.283  0.3228  0.7118 -0.3656
 6430SOL     OW20188   4.736   1.137   2.971  0.6860  0.4953 -1.1282
 6430SOL    HW120189   4.639   1.160   2.971 -0.0002 -2.1132 -1.8166
 6430SOL    HW220190   4.763   1.106   2.880  1.6184 -0.8633 -0.4242
 6431SOL     OW20191   2.699   5.020   3.460 -0.4507  0.5465  0.4963
 6431SOL    HW120192   2.721   5.063   3.373  0.2037  1.7772  1.2311
 6431SOL    HW220193   2.710   5.087   3.534 -0.1889 -0.6707  1.6098
 6432SOL     OW20194   2.497   3.845   0.253 -0.7575  0.3215  0.3306
 6432SOL    HW120195   2.578   3.800   0.215 -1.4578 -0.8979  0.2151
 6432SOL    HW220196   2.496   3.833   0.352 -1.2751 -0.5213  0.2355
 6433SOL     OW20197   2.358   5.617   5.877 -0.2039  0.1740  0.0462
 6433SOL    HW120198   2.272   5.581   5.842 -0.8446  1.6216  0.0985
 6433SOL    HW220199   2.425   5.543   5.880 -1.4516 -0.9984  0.0815
 6434SOL     OW20200   0.348   5.226   5.957  0.9184  0.2385 -0.0023
 6434SOL    HW120201   0.344   5.141   6.009  1.2861 -0.3850 -0.9676
 6434SOL    HW220202   0.403   5.293   6.007  1.8292 -0.5701  0.1088
 6435SOL     OW20203   5.096   5.883   0.008 -0.2410 -0.0390 -0.3277
 6435SOL    HW120204   5.105   5.953  -0.063 -2.2622  0.9278  0.3128
 6435SOL    HW220205   5.120   5.922   0.097  0.8807 -0.8472 -0.2497
 6436SOL     OW20206   2.797   0.352   3.299 -0.3563 -0.6211  0.3120
 6436SOL    HW120207   2.797   0.275   3.363 -1.3882 -0.7184  0.2070
 6436SOL    HW220208   2.719   0.411   3.318 -0.3893 -0.3809 -0.5334
 6437SOL     OW20209   1.333   1.546   6.525  0.1197  0.1349 -0.2784
 6437SOL    HW120210   1.385   1.623   6.562  0.6720 -0.8626  1.0758
 6437SOL    HW220211   1.333   1.471   6.590  0.6842 -1.5050 -2.0756
 6438SOL     OW20212   0.640   4.631   2.067  0.2300 -0.3785  0.3965
 6438SOL    HW120213   0.617   4.548   2.016  1.2086 -0.3047 -0.1713
 6438SOL    HW220214   0.679   4.699   2.006  0.0123  0.2837  0.9774
 6439SOL     OW20215   2.934   6.428   2.813  0.1792  0.5825  0.4997
 6439SOL    HW120216   2.941   6.434   2.713  1.9817  0.4318  0.5734
 6439SOL    HW220217   2.840   6.407   2.839 -0.2092  0.0231 -1.2049
 6440SOL     OW20218   2.120   1.405   5.642  0.3215  0.2572 -0.0118
 6440SOL    HW120219   2.055   1.468   5.600  0.1926 -1.1518 -2.0971
 6440SOL    HW220220   2.146   1.439   5.733 -1.7737  1.8658  0.0615
 6441SOL     OW20221   2.875   0.742   2.438 -0.0632  0.4334  0.0400
 6441SOL    HW120222   2.946   0.800   2.478  0.4443 -1.5243  2.1692
 6441SOL    HW220223   2.788   0.760   2.483  0.3890 -1.3567  1.7675
 6442SOL     OW20224   4.073   2.188   4.395 -0.0168  0.4504 -0.3572
 6442SOL    HW120225   4.068   2.187   4.295 -0.9304  0.7876 -0.3248
 6442SOL    HW220226   4.168   2.191   4.424  0.2274  1.5154 -1.2377
 6443SOL     OW20227   3.064   3.480   6.686 -0.3528  0.2218  0.6231
 6443SOL    HW120228   3.154   3.441   6.670 -0.8728 -0.9228  0.4386
 6443SOL    HW220229   3.022   3.436   6.765 -0.9731  0.3563  0.3725
 6444SOL     OW20230   6.767   3.751   5.742  0.3856  0.2420 -0.1271
 6444SOL    HW120231   6.857   3.775   5.779  0.6368 -0.9629  0.0704
 6444SOL    HW220232   6.696   3.785   5.804  0.7826 -0.9690  1.0537
 6445SOL     OW20233   2.733   3.338   1.845  0.0519  0.2846 -0.2587
 6445SOL    HW120234   2.833   3.337   1.858 -0.0287  1.1235  0.5180
 6445SOL    HW220235   2.688   3.323   1.932 -0.5312 -1.6691 -0.8475
 6446SOL     OW20236   0.203   0.915   0.609 -0.2549  0.0089  0.3690
 6446SOL    HW120237   0.169   1.006   0.634 -0.7424 -0.5572  1.8484
 6446SOL    HW220238   0.271   0.885   0.676  0.0570 -0.6413 -0.2265
 6447SOL     OW20239   0.458   4.758   0.698 -0.3887  0.3183  0.0727
 6447SOL    HW120240   0.503   4.752   0.609  2.9061  1.6086  1.4687
 6447SOL    HW220241   0.404   4.676   0.715  1.8302 -1.6305 -1.6712
 6448SOL     OW20242   4.510   4.531   0.741 -0.5947  0.0394 -0.1416
 6448SOL    HW120243   4.598   4.546   0.785 -1.7105  3.8393  1.1408
 6448SOL    HW220244   4.436   4.552   0.805 -2.4230 -0.4362 -1.9758
 6449SOL     OW20245   5.605   6.274   5.801  0.1362  0.2156 -0.5040
 6449SOL    HW120246   5.603   6.305   5.896  0.8258 -0.0610 -0.3964
 6449SOL    HW220247   5.597   6.352   5.740  1.1946  0.5463 -0.2300
 6450SOL     OW20248   4.722   3.421   0.761 -0.0783 -0.3625 -0.2159
 6450SOL    HW120249   4.705   3.418   0.860 -1.4473  0.7867 -0.3788
 6450SOL    HW220250   4.663   3.354   0.715 -0.9018  0.4508 -0.3899
 6451SOL     OW20251   5.469   2.053   1.893 -1.1112  0.0454 -0.0449
 6451SOL    HW120252   5.378   2.092   1.876 -0.8530  0.6776  0.0288
 6451SOL    HW220253   5.473   2.019   1.987 -1.1253  0.4254  0.0942
 6452SOL     OW20254   4.252   1.873   3.217  0.1667  0.6847 -0.3806
 6452SOL    HW120255   4.274   1.923   3.300  1.6744 -0.1950 -0.2144
 6452SOL    HW220256   4.298   1.916   3.139 -1.1732  1.4575 -0.7738
 6453SOL     OW20257   4.232   6.275   3.086 -0.2961  0.4160  0.3768
 6453SOL    HW120258   4.191   6.185   3.070  2.1006 -0.5379 -1.0725
 6453SOL    HW220259   4.274   6.276   3.176  0.0873 -0.1362  0.2147
 6454SOL     OW20260   5.149   2.626   5.416  0.2083  0.6925  0.3191
 6454SOL    HW120261   5.052   2.604   5.407  0.0685  1.3014  0.3175
 6454SOL    HW220262   5.178   2.683   5.339  0.5748  0.5051  0.3119
 6455SOL     OW20263   4.822   3.254   5.193 -0.3008  0.0924 -0.2290
 6455SOL    HW120264   4.750   3.224   5.255 -0.1291 -0.3138 -0.2232
 6455SOL    HW220265   4.819   3.354   5.184 -1.0756  0.0491 -0.4978
 6456SOL     OW20266   5.293   2.524   4.599  0.2188  0.0868  0.5960
 6456SOL    HW120267   5.326   2.527   4.693 -0.5663  1.0500  0.8638
 6456SOL    HW220268   5.321   2.608   4.551  0.4512 -0.3104  0.0199
 6457SOL     OW20269   6.661   6.941   3.540  0.1377  0.1860  0.0897
 6457SOL    HW120270   6.745   6.988   3.513  1.0760 -0.1827  2.2075
 6457SOL    HW220271   6.591   7.008   3.563  0.9851  0.5827  1.6272
 6458SOL     OW20272   1.404   0.072   4.959  0.2766 -0.3949 -0.1677
 6458SOL    HW120273   1.446   0.002   4.902 -1.0931 -0.9463 -0.5542
 6458SOL    HW220274   1.346   0.131   4.903 -1.3861 -1.1728  0.6345
 6459SOL     OW20275   0.169   3.945   4.383  0.0175 -0.0482  0.2266
 6459SOL    HW120276   0.209   3.861   4.421  2.7373  1.6129  1.3623
 6459SOL    HW220277   0.216   3.969   4.298 -0.6927  0.3617 -0.0586
 6460SOL     OW20278   1.476   2.966   3.304  0.3681  0.3715 -0.3317
 6460SOL    HW120279   1.524   2.958   3.392  1.0424 -0.1770 -0.7374
 6460SOL    HW220280   1.454   3.062   3.287  0.5771  0.5308  0.2549
 6461SOL     OW20281   6.783   1.847   4.754 -0.2767  0.0183 -0.1539
 6461SOL    HW120282   6.817   1.832   4.847 -1.3852 -1.8968  0.0118
 6461SOL    HW220283   6.690   1.881   4.757 -0.0533  0.6904 -0.5799
 6462SOL     OW20284   3.401   5.220   3.998  0.4181 -0.7559 -0.1595
 6462SOL    HW120285   3.379   5.250   4.091  0.7481 -0.8027 -0.0647
 6462SOL    HW220286   3.380   5.123   3.988  1.3745 -1.0109  0.1931
 6463SOL     OW20287   6.207   4.584   2.802  0.1611 -0.6319 -0.4364
 6463SOL    HW120288   6.175   4.657   2.862  0.3083 -1.6016  0.8644
 6463SOL    HW220289   6.218   4.620   2.709 -2.0700  0.3881 -0.3734
 6464SOL     OW20290   0.141   4.246   4.038  0.1140  0.3205 -0.9339
 6464SOL    HW120291   0.044   4.222   4.040 -0.3169  1.5957 -3.3853
 6464SOL    HW220292   0.151   4.344   4.025  1.8003  0.4720  0.9481
 6465SOL     OW20293   4.767   6.433   2.301  0.7194  0.0667  0.0970
 6465SOL    HW120294   4.697   6.405   2.367 -0.0067 -0.8531 -1.0389
 6465SOL    HW220295   4.748   6.391   2.212  0.6279  2.7173 -1.2238
 6466SOL     OW20296   5.965   4.408   0.466 -0.7115 -0.2452 -0.0266
 6466SOL    HW120297   5.964   4.491   0.409 -0.2328  0.0527  0.3942
 6466SOL    HW220298   6.001   4.332   0.412 -1.1210 -0.1781 -0.4048
 6467SOL     OW20299   3.840   3.513   3.651 -0.1274  0.1946  0.5809
 6467SOL    HW120300   3.795   3.600   3.671  0.3820  0.9427 -1.2792
 6467SOL    HW220301   3.923   3.505   3.706 -0.6698  0.4459  1.4454
 6468SOL     OW20302   1.938   1.999   5.833 -0.2364  0.4001  0.2606
 6468SOL    HW120303   2.032   1.967   5.819 -0.1816  0.9051 -0.6205
 6468SOL    HW220304   1.939   2.097   5.852 -0.5717  0.3627  0.4749
 6469SOL     OW20305   4.196   0.950   0.506 -0.3315  0.3429  0.2505
 6469SOL    HW120306   4.145   0.864   0.518  0.8732 -0.5429 -0.8097
 6469SOL    HW220307   4.262   0.959   0.581  0.4573 -0.3292 -0.3535
 6470SOL     OW20308   5.991   0.419   0.552  0.2476 -0.7854 -0.0550
 6470SOL    HW120309   5.998   0.386   0.646  1.1284 -0.5467 -0.0242
 6470SOL    HW220310   5.994   0.519   0.551  3.2885 -0.7823 -0.4914
 6471SOL     OW20311   5.921   2.037   5.844 -0.8626  0.1405 -0.2728
 6471SOL    HW120312   5.839   2.065   5.893 -0.1660 -0.2088  1.1764
 6471SOL    HW220313   5.962   2.116   5.799 -1.2891  0.5850  0.1130
 6472SOL     OW20314   0.780   3.943   6.542 -0.1494 -0.0751 -0.0504
 6472SOL    HW120315   0.840   3.863   6.546  1.8340  1.3904  1.5999
 6472SOL    HW220316   0.824   4.015   6.489  0.4367  1.6057  2.5197
 6473SOL     OW20317   1.878   0.639   2.532 -0.2287 -0.7724  0.2050
 6473SOL    HW120318   1.952   0.698   2.566  0.0974 -0.8187 -0.4254
 6473SOL    HW220319   1.914   0.548   2.513 -0.4506 -0.7999 -0.0842
 6474SOL     OW20320   4.413   6.736   2.205 -0.2733  0.2774 -0.4464
 6474SOL    HW120321   4.511   6.745   2.225 -0.2137  0.5192 -0.8263
 6474SOL    HW220322   4.389   6.639   2.198  0.0016  0.2200 -0.6346
 6475SOL     OW20323   5.831   6.238   4.648 -0.3680 -0.1272 -0.0897
 6475SOL    HW120324   5.843   6.192   4.560  1.5070  1.0557 -0.5156
 6475SOL    HW220325   5.858   6.175   4.721  0.9268 -0.1840 -0.5778
 6476SOL     OW20326   6.082   3.440   3.848  0.1393 -0.4239 -0.9421
 6476SOL    HW120327   6.035   3.490   3.774 -0.8571  1.5115  0.9013
 6476SOL    HW220328   6.181   3.455   3.839 -0.0167  0.4301 -1.4534
 6477SOL     OW20329   1.072   1.322   0.523 -0.4011  0.1989 -0.5131
 6477SOL    HW120330   1.142   1.260   0.489  0.4895  0.2762  1.0564
 6477SOL    HW220331   1.000   1.270   0.569 -0.1862  0.2472 -0.1137
 6478SOL     OW20332   1.967   4.712   6.542  0.3407  0.3530  0.4401
 6478SOL    HW120333   1.981   4.718   6.443 -0.4146  2.9105  0.4094
 6478SOL    HW220334   2.033   4.772   6.588 -0.1195  0.1340  1.4082
 6479SOL     OW20335   5.640   3.856   5.163 -0.7089  0.0676  0.1441
 6479SOL    HW120336   5.705   3.883   5.234  0.1290 -1.7328  0.1306
 6479SOL    HW220337   5.609   3.762   5.181 -0.0250 -0.6607 -2.1435
 6480SOL     OW20338   2.113   5.515   0.326  0.4872  0.1955  0.3653
 6480SOL    HW120339   2.145   5.442   0.386 -0.1024  1.2138  1.9733
 6480SOL    HW220340   2.173   5.594   0.335 -0.1379  0.6833  0.3244
 6481SOL     OW20341   5.185   4.388   1.953 -0.1794 -0.7377 -0.2133
 6481SOL    HW120342   5.091   4.354   1.941 -0.0195 -0.8783 -1.1743
 6481SOL    HW220343   5.184   4.469   2.011 -0.9634 -0.4044 -0.6765
 6482SOL     OW20344   5.356   4.233   3.028  0.6441 -0.1814 -0.2822
 6482SOL    HW120345   5.376   4.331   3.027  0.6234 -0.1747 -0.0219
 6482SOL    HW220346   5.426   4.184   2.975 -0.7128  0.2255 -2.5982
 6483SOL     OW20347   0.034   6.633   5.934  0.2450 -0.1956  0.6196
 6483SOL    HW120348   0.000   6.629   6.028  1.5860  1.9741  1.2698
 6483SOL    HW220349  -0.037   6.669   5.874 -0.0360  0.0887  1.1206
 6484SOL     OW20350   3.839   2.436   5.402 -0.0256  0.0605  0.1103
 6484SOL    HW120351   3.880   2.381   5.329  2.7333  0.0718  1.5360
 6484SOL    HW220352   3.861   2.533   5.387 -0.2549  0.1679  0.4596
 6485SOL     OW20353   2.123   6.151   5.226 -0.5189  0.4070  0.5504
 6485SOL    HW120354   2.029   6.138   5.196 -0.7399  1.0755  0.9248
 6485SOL    HW220355   2.185   6.140   5.148 -0.8592 -0.5502  0.4066
 6486SOL     OW20356   0.658   4.829   1.623 -0.2778  0.2526  0.4655
 6486SOL    HW120357   0.718   4.861   1.549 -0.0057  0.9653  0.9885
 6486SOL    HW220358   0.566   4.867   1.610 -0.6248 -0.7690 -0.2862
 6487SOL     OW20359   6.049   6.400   4.823 -0.0243 -0.4763  0.1072
 6487SOL    HW120360   6.030   6.486   4.776 -1.2702 -1.5491 -1.5021
 6487SOL    HW220361   5.975   6.380   4.887 -0.0273 -0.6100  0.0633
 6488SOL     OW20362   3.180   5.373   2.038  0.0390  0.0068  0.5558
 6488SOL    HW120363   3.192   5.285   1.992  1.3414  0.4694 -0.0210
 6488SOL    HW220364   3.218   5.446   1.982  1.4561  0.6276  2.2344
 6489SOL     OW20365   6.657   3.049   4.832  0.0420 -0.1384  0.6141
 6489SOL    HW120366   6.683   2.982   4.762  2.1575  0.0615  1.1429
 6489SOL    HW220367   6.558   3.056   4.836 -0.1591 -0.6831 -1.8655
 6490SOL     OW20368   0.501   2.333   3.863 -0.5070  0.2736 -0.1817
 6490SOL    HW120369   0.421   2.314   3.807  0.9782 -0.3275 -2.2117
 6490SOL    HW220370   0.482   2.308   3.958 -3.2194  1.6368 -0.2763
 6491SOL     OW20371   2.113   6.484   3.006  0.3161  0.4517 -0.4209
 6491SOL    HW120372   2.089   6.397   3.050  0.1310 -0.3849 -2.0878
 6491SOL    HW220373   2.207   6.509   3.030  0.0293  0.3435  0.8984
 6492SOL     OW20374   4.266   2.952   1.523  0.0753  0.2105 -0.2109
 6492SOL    HW120375   4.179   2.938   1.570 -0.3361  1.5537 -0.5195
 6492SOL    HW220376   4.322   2.869   1.530 -0.6408 -0.1877  1.2052
 6493SOL     OW20377   1.697   4.981   5.068  0.4002 -0.1413  0.2133
 6493SOL    HW120378   1.609   5.014   5.101  0.5430  0.8085 -0.3125
 6493SOL    HW220379   1.707   4.884   5.089  0.3890  0.3488  2.7030
 6494SOL     OW20380   6.906   0.519   0.516  0.0098 -0.4959  0.0026
 6494SOL    HW120381   6.990   0.558   0.478 -0.5648  0.1855 -0.5932
 6494SOL    HW220382   6.901   0.422   0.492 -1.2147  0.2555 -3.3738
 6495SOL     OW20383   6.879   5.520   2.986 -0.7373 -0.0633 -0.6219
 6495SOL    HW120384   6.839   5.474   2.907 -0.2629 -2.1055  0.2519
 6495SOL    HW220385   6.964   5.566   2.959 -1.7492  1.2230 -1.7246
 6496SOL     OW20386   2.192   0.961   0.515  0.3576 -0.1868  0.8994
 6496SOL    HW120387   2.103   0.960   0.469  1.3207 -0.8921 -1.0942
 6496SOL    HW220388   2.210   0.871   0.554  0.8096 -0.5197 -0.0391
 6497SOL     OW20389   6.255   3.528   1.731 -0.9695 -0.4510 -0.4695
 6497SOL    HW120390   6.288   3.621   1.712  0.0683 -0.9270 -1.1018
 6497SOL    HW220391   6.300   3.492   1.812  0.4403 -1.2573 -1.5713
 6498SOL     OW20392   4.265   4.896   5.987 -0.0845  0.7135 -0.0197
 6498SOL    HW120393   4.262   4.838   6.069 -1.2617  0.9681  0.1389
 6498SOL    HW220394   4.244   4.991   6.013 -0.3476  0.8157 -0.5996
 6499SOL     OW20395   4.560   1.755   3.765  0.1224 -0.4688  0.1237
 6499SOL    HW120396   4.567   1.756   3.665  0.1342  1.2996  0.0971
 6499SOL    HW220397   4.463   1.759   3.791  0.0219 -2.5636  0.2378
 6500SOL     OW20398   2.186   3.803   2.717 -0.5413  0.1257 -0.0294
 6500SOL    HW120399   2.202   3.901   2.711  1.0459 -0.0683  0.4903
 6500SOL    HW220400   2.230   3.758   2.639 -0.9468 -0.2159 -0.0665
 6501SOL     OW20401   5.970   1.335   3.897 -0.5203  0.1380 -0.2688
 6501SOL    HW120402   5.971   1.279   3.980 -1.1265  0.8362  0.2299
 6501SOL    HW220403   6.033   1.297   3.829  2.0108  0.9875  1.4622
 6502SOL     OW20404   0.846   4.738   2.428  0.5910  0.5206 -0.0805
 6502SOL    HW120405   0.887   4.811   2.374 -1.6492  0.7003 -1.6825
 6502SOL    HW220406   0.750   4.760   2.446  0.6239 -0.7380  1.8551
 6503SOL     OW20407   0.332   4.439   5.563 -0.4948  0.1666 -0.2357
 6503SOL    HW120408   0.339   4.430   5.463  0.1654  2.0781 -0.4126
 6503SOL    HW220409   0.308   4.351   5.603 -2.1471 -0.3566 -2.1969
 6504SOL     OW20410   4.170   6.130   5.280  0.2778 -0.7282 -0.5114
 6504SOL    HW120411   4.126   6.040   5.283 -0.9747 -0.1553 -1.0795
 6504SOL    HW220412   4.269   6.118   5.286  0.1435 -2.1623 -0.7129
 6505SOL     OW20413   0.576   0.860   6.942 -0.4725 -0.3113  0.3219
 6505SOL    HW120414   0.562   0.805   7.024 -1.2243  0.5865  0.8077
 6505SOL    HW220415   0.522   0.822   6.867  0.4448 -1.3074  0.1338
 6506SOL     OW20416   0.027   5.341   1.823 -0.2734 -0.3015  0.3949
 6506SOL    HW120417   0.041   5.355   1.921  0.2941  0.4945  0.2090
 6506SOL    HW220418   0.025   5.243   1.803  1.5297 -0.4861  0.9483
 6507SOL     OW20419   4.637   5.491   1.185  0.2858  0.6892 -0.1921
 6507SOL    HW120420   4.714   5.429   1.200  0.2353  0.3004 -1.3948
 6507SOL    HW220421   4.570   5.447   1.125  0.7124  2.2326 -1.8930
 6508SOL     OW20422   6.046   2.659   4.119  0.5545  0.1222 -0.3036
 6508SOL    HW120423   6.141   2.684   4.101  0.8172 -0.6860 -0.1122
 6508SOL    HW220424   6.004   2.624   4.035  1.2414 -1.9753  0.1496
 6509SOL     OW20425   1.449   6.378   6.837 -0.1411 -0.2335 -0.2463
 6509SOL    HW120426   1.548   6.391   6.838 -0.0383 -0.8125 -1.2862
 6509SOL    HW220427   1.404   6.459   6.874  0.6603  0.7993 -1.4502
 6510SOL     OW20428   4.118   5.004   2.760 -0.0117  0.0659  0.0023
 6510SOL    HW120429   4.210   5.013   2.722  0.1230 -0.7725  0.1052
 6510SOL    HW220430   4.072   4.926   2.717 -0.6567  0.4538 -0.0163
 6511SOL     OW20431   3.341   1.922   6.904 -0.1745  0.2287 -0.2295
 6511SOL    HW120432   3.435   1.925   6.871 -0.8784 -0.8559 -2.5610
 6511SOL    HW220433   3.278   1.936   6.827 -1.9563  2.1476  1.4242
 6512SOL     OW20434   6.915   1.057   1.746 -0.6031  0.0214 -0.4682
 6512SOL    HW120435   6.988   0.991   1.761  0.6189  1.4365  0.0531
 6512SOL    HW220436   6.859   1.063   1.829  0.7567  1.3614  0.3940
 6513SOL     OW20437   3.847   4.428   1.576 -0.0050  0.3738 -0.1611
 6513SOL    HW120438   3.846   4.517   1.622 -1.0996  0.0948  0.4081
 6513SOL    HW220439   3.753   4.397   1.562  0.3611 -0.7756 -0.1872
 6514SOL     OW20440   5.993   4.857   5.917  0.0035 -0.6300  0.4297
 6514SOL    HW120441   6.021   4.803   5.838  3.4509  1.9743 -0.3589
 6514SOL    HW220442   6.040   4.823   5.999  0.0035 -0.4917  0.4869
 6515SOL     OW20443   1.290   4.159   1.196  0.3782  0.3941  0.1396
 6515SOL    HW120444   1.216   4.195   1.140 -0.6452 -0.5802  0.8236
 6515SOL    HW220445   1.358   4.114   1.137  0.1057  0.7363 -0.4362
 6516SOL     OW20446   6.936   1.171   3.373 -0.5303 -0.2133 -1.0451
 6516SOL    HW120447   7.015   1.145   3.318 -1.7055 -0.1396 -2.8469
 6516SOL    HW220448   6.877   1.091   3.387 -0.3865 -0.1663 -0.1168
 6517SOL     OW20449   0.594   3.565   0.380 -0.3041  0.7124  0.7454
 6517SOL    HW120450   0.526   3.596   0.313  1.8310  1.0096 -1.4494
 6517SOL    HW220451   0.617   3.640   0.441 -0.4249  1.2488  0.1419
 6518SOL     OW20452   1.996   0.922   1.250 -0.2258  0.3489  0.4584
 6518SOL    HW120453   1.933   0.886   1.319 -0.0518  0.8072  0.8615
 6518SOL    HW220454   2.034   0.846   1.197 -0.2191 -0.0274  0.9892
 6519SOL     OW20455   1.771   2.895   1.438 -0.4865  0.4255  0.2520
 6519SOL    HW120456   1.813   2.812   1.400 -0.2578  0.9270 -0.5920
 6519SOL    HW220457   1.697   2.868   1.500 -0.5354 -0.4076 -0.1504
 6520SOL     OW20458   4.686   0.828   6.820  0.4305 -0.0403  0.1077
 6520SOL    HW120459   4.765   0.827   6.881  0.9780  2.7988 -0.3988
 6520SOL    HW220460   4.716   0.813   6.726  0.1957 -0.0706  0.0373
 6521SOL     OW20461   1.406   3.631   4.004  0.1629 -0.5687 -0.3669
 6521SOL    HW120462   1.428   3.716   4.053  0.6764 -0.5710 -0.5892
 6521SOL    HW220463   1.460   3.556   4.043 -0.2026 -0.7705 -0.2492
 6522SOL     OW20464   1.880   1.603   5.879 -0.2462  0.7951 -0.6022
 6522SOL    HW120465   1.824   1.681   5.906 -1.2358 -0.0218 -0.2681
 6522SOL    HW220466   1.956   1.636   5.821  0.9941  2.3582  1.7436
 6523SOL     OW20467   4.161   5.603   0.586  0.5177  0.3913  0.0952
 6523SOL    HW120468   4.142   5.673   0.516 -1.4448 -1.2077 -1.0760
 6523SOL    HW220469   4.182   5.517   0.541  1.9719 -0.0405  1.5288
 6524SOL     OW20470   2.888   2.204   0.957 -0.0046  0.0406 -0.3376
 6524SOL    HW120471   2.951   2.261   1.010  1.7373 -0.6357 -1.5623
 6524SOL    HW220472   2.803   2.192   1.007  0.0550  2.6235  0.5309
 6525SOL     OW20473   1.177   6.803   1.745 -0.1568 -0.2519 -0.0931
 6525SOL    HW120474   1.214   6.865   1.814  0.6809  0.6396 -1.2927
 6525SOL    HW220475   1.089   6.767   1.775 -0.7225  1.6042  0.5959
 6526SOL     OW20476   0.290   6.118   2.142 -0.0428  0.2934 -0.5851
 6526SOL    HW120477   0.363   6.066   2.098 -1.6902 -1.8134 -0.9904
 6526SOL    HW220478   0.246   6.061   2.212 -0.6553  1.8704  0.3800
 6527SOL     OW20479   0.023   3.455   6.542 -0.4374  0.7321  0.0149
 6527SOL    HW120480   0.107   3.503   6.519  0.3969 -1.2570 -1.3373
 6527SOL    HW220481   0.041   3.391   6.617 -0.3447 -0.7010 -1.1922
 6528SOL     OW20482   4.638   5.942   1.741 -0.2166  0.2355 -0.3687
 6528SOL    HW120483   4.700   5.923   1.818 -0.2501 -0.3623 -0.4820
 6528SOL    HW220484   4.612   5.856   1.698  0.0321  0.5859 -1.2358
 6529SOL     OW20485   4.508   5.674   1.624  0.8208 -0.8916 -1.2328
 6529SOL    HW120486   4.439   5.659   1.554  0.3876 -1.9019 -0.6100
 6529SOL    HW220487   4.518   5.591   1.679 -0.3467  0.4885  1.2173
 6530SOL     OW20488   0.168   3.091   3.872 -0.1784  0.0321 -0.5664
 6530SOL    HW120489   0.214   3.148   3.941  0.2339 -0.2302 -0.6236
 6530SOL    HW220490   0.102   3.031   3.918  1.2036 -1.2638 -0.1930
 6531SOL     OW20491   3.210   4.021   3.014 -0.2760  0.2031 -0.3330
 6531SOL    HW120492   3.280   4.079   3.055 -1.5173  0.2668  1.8531
 6531SOL    HW220493   3.198   4.046   2.918  1.4256  1.3671 -0.2875
 6532SOL     OW20494   6.698   5.067   1.232  0.0974 -0.7182  0.2057
 6532SOL    HW120495   6.760   5.137   1.195  1.2487 -1.5765  0.4726
 6532SOL    HW220496   6.604   5.094   1.212  0.5215  0.7272 -0.0189
 6533SOL     OW20497   5.236   5.933   1.224  0.3458  0.6284  0.6793
 6533SOL    HW120498   5.245   6.032   1.207  0.3718  0.0831 -3.5296
 6533SOL    HW220499   5.140   5.907   1.219  0.4694  0.2420  0.2996
 6534SOL     OW20500   0.619   3.092   4.398  0.8165 -0.6099 -0.2321
 6534SOL    HW120501   0.681   3.154   4.351  0.4271  1.8356  2.1787
 6534SOL    HW220502   0.637   3.096   4.497 -0.0080 -3.5554  0.1247
 6535SOL     OW20503   4.276   3.390   1.410  0.6607  0.1987 -0.2831
 6535SOL    HW120504   4.331   3.306   1.410  0.4909  0.0867 -0.1094
 6535SOL    HW220505   4.183   3.369   1.438  0.2207  0.1875 -1.6857
 6536SOL     OW20506   6.209   6.253   6.355  0.0007 -0.6694 -0.2097
 6536SOL    HW120507   6.180   6.178   6.295 -0.8512 -0.3387 -0.2156
 6536SOL    HW220508   6.132   6.313   6.373  1.2441  1.8078 -2.4369
 6537SOL     OW20509   6.926   4.645   3.751  0.5584 -0.1933  0.1113
 6537SOL    HW120510   6.969   4.571   3.698  0.3002 -0.5331  0.3667
 6537SOL    HW220511   6.896   4.717   3.689 -0.0018 -0.7189 -0.2478
 6538SOL     OW20512   1.063   4.596   4.587  0.2328  0.3191  0.2059
 6538SOL    HW120513   1.023   4.661   4.651 -1.5429 -1.1021  0.6418
 6538SOL    HW220514   1.005   4.514   4.582  0.4529  0.2121 -2.9598
 6539SOL     OW20515   6.192   0.630   6.097  0.4348 -0.1495  0.1252
 6539SOL    HW120516   6.092   0.632   6.101  0.3758 -0.8180 -0.5947
 6539SOL    HW220517   6.225   0.544   6.137  0.4351 -1.8558 -3.1271
 6540SOL     OW20518   2.126   2.022   0.113 -0.9479  0.8820 -0.6346
 6540SOL    HW120519   2.145   1.983   0.023  0.2502  1.4606 -0.6547
 6540SOL    HW220520   2.114   1.948   0.179 -0.0910  0.4566 -0.9361
 6541SOL     OW20521   2.147   6.812   6.037  0.8342  0.0649  0.0719
 6541SOL    HW120522   2.220   6.867   6.079  1.7355 -0.4761 -0.7480
 6541SOL    HW220523   2.067   6.812   6.097  0.6891  2.4812  0.0032
 6542SOL     OW20524   1.326   5.052   1.224  0.0254 -0.2484 -0.2625
 6542SOL    HW120525   1.303   4.973   1.280  0.8302 -0.4431 -0.1969
 6542SOL    HW220526   1.358   5.126   1.282  0.6513 -0.3749 -0.4380
 6543SOL     OW20527   4.502   2.507   2.303 -0.4484 -0.1739  0.7586
 6543SOL    HW120528   4.443   2.472   2.376 -1.1540 -0.2262  0.1899
 6543SOL    HW220529   4.509   2.437   2.231 -1.3031  0.5724 -0.0719
 6544SOL     OW20530   0.602   3.139   2.299 -0.1031  0.4084 -0.3127
 6544SOL    HW120531   0.550   3.221   2.324 -0.8946  0.1485 -1.0471
 6544SOL    HW220532   0.542   3.075   2.250  0.6061 -0.4375 -0.1131
 6545SOL     OW20533   6.292   6.201   5.940 -0.1732  0.0096 -0.1627
 6545SOL    HW120534   6.391   6.191   5.932 -0.2499 -0.7041 -0.3733
 6545SOL    HW220535   6.268   6.227   6.034  0.1084 -1.6124  0.3915
 6546SOL     OW20536   3.814   6.081   4.042 -0.4506 -0.0192 -0.6638
 6546SOL    HW120537   3.800   6.083   4.141 -0.9026 -0.3797 -0.7174
 6546SOL    HW220538   3.735   6.124   3.997  0.4328  1.5517 -0.8130
 6547SOL     OW20539   3.646   6.662   5.564  0.0880 -0.1701  0.0501
 6547SOL    HW120540   3.689   6.585   5.517  1.0679  0.0357  0.5757
 6547SOL    HW220541   3.716   6.729   5.591 -0.5624  0.2126  0.8682
 6548SOL     OW20542   1.539   2.164   4.438  0.6060  0.4017 -0.3396
 6548SOL    HW120543   1.619   2.215   4.469  1.5014 -1.9599  1.4947
 6548SOL    HW220544   1.468   2.167   4.509 -1.1363  2.6206 -2.0066
 6549SOL     OW20545   3.755   2.156   2.896  0.8846 -0.6890  0.0318
 6549SOL    HW120546   3.729   2.169   2.992  0.5520  1.1233 -0.2732
 6549SOL    HW220547   3.675   2.128   2.844  0.9376 -1.1073  0.1685
 6550SOL     OW20548   3.941   6.873   2.343 -0.4364 -0.1386  0.6676
 6550SOL    HW120549   4.035   6.840   2.351  0.0273  0.6958 -0.8426
 6550SOL    HW220550   3.941   6.963   2.299 -1.9820 -0.4707 -0.0976
 6551SOL     OW20551   3.938   5.370   1.632  0.8047  0.1623  0.2609
 6551SOL    HW120552   3.923   5.403   1.725  2.8480 -1.0076  1.0636
 6551SOL    HW220553   3.993   5.287   1.634 -1.8001 -1.7935 -1.8342
 6552SOL     OW20554   1.534   4.989   6.331  0.4871 -0.4712  0.0976
 6552SOL    HW120555   1.495   5.062   6.387  0.2546  0.6542 -1.4505
 6552SOL    HW220556   1.468   4.914   6.323  0.8617 -1.0382  1.9794
 6553SOL     OW20557   2.127   2.495   2.901 -0.1940  0.1947 -0.2576
 6553SOL    HW120558   2.125   2.540   2.811  0.6096  0.8998  0.0617
 6553SOL    HW220559   2.070   2.413   2.899 -3.6019  2.3839 -0.2558
 6554SOL     OW20560   2.741   0.340   4.882  0.4338  0.2112 -0.5063
 6554SOL    HW120561   2.647   0.316   4.857  0.6463 -0.6777 -0.5128
 6554SOL    HW220562   2.799   0.338   4.800  0.8004 -1.0490 -0.2524
 6555SOL     OW20563   0.494   3.770   1.528  0.1785 -0.5831  0.5433
 6555SOL    HW120564   0.530   3.798   1.617 -1.5408 -0.7088  1.3281
 6555SOL    HW220565   0.400   3.736   1.539  0.2736 -1.5431 -1.1807
 6556SOL     OW20566   3.564   1.999   4.027 -0.3470  0.0648 -0.0304
 6556SOL    HW120567   3.609   1.917   3.992  0.3688  0.4264  0.0408
 6556SOL    HW220568   3.587   2.078   3.970 -2.7010 -0.1215 -1.3654
 6557SOL     OW20569   2.807   0.133   3.480  0.3775 -0.0516  0.5203
 6557SOL    HW120570   2.890   0.104   3.528 -0.2843 -0.7760  1.2622
 6557SOL    HW220571   2.785   0.067   3.408 -0.4911 -0.8030  1.4517
 6558SOL     OW20572   3.540   5.175   1.146 -0.2861 -0.1518 -0.2588
 6558SOL    HW120573   3.564   5.090   1.194  0.2825 -0.0838 -0.4208
 6558SOL    HW220574   3.605   5.246   1.170  0.8012 -0.4678 -2.1262
 6559SOL     OW20575   0.412   2.259   6.902 -0.1294  0.2445  0.3134
 6559SOL    HW120576   0.348   2.230   6.831  0.3745  1.8927 -0.8740
 6559SOL    HW220577   0.493   2.200   6.900 -0.7218 -0.5796  0.4623
 6560SOL     OW20578   6.252   3.084   5.978 -0.2563 -0.1136  0.3868
 6560SOL    HW120579   6.191   3.118   6.050  0.6341  0.5318  0.8510
 6560SOL    HW220580   6.257   2.984   5.984 -1.8066 -0.2484 -0.1131
 6561SOL     OW20581   1.413   4.918   0.556  0.0252 -0.3338  0.3281
 6561SOL    HW120582   1.467   5.001   0.545 -0.4582 -0.1617 -1.0135
 6561SOL    HW220583   1.317   4.939   0.536 -0.0986 -1.2149 -0.0211
 6562SOL     OW20584   4.473   1.600   0.763  0.1910  0.1789  0.1833
 6562SOL    HW120585   4.400   1.549   0.718  1.7251 -1.6372 -0.3756
 6562SOL    HW220586   4.516   1.542   0.833 -0.0753  1.8519  1.8052
 6563SOL     OW20587   3.468   2.468   6.500 -0.3147  0.0640  0.2387
 6563SOL    HW120588   3.549   2.522   6.478 -0.4752  0.2670  0.1494
 6563SOL    HW220589   3.450   2.404   6.424  0.9544 -1.4180  1.1257
 6564SOL     OW20590   5.813   4.566   3.248 -0.6565 -0.0580  0.2965
 6564SOL    HW120591   5.882   4.589   3.179 -0.4138  1.6539  1.0582
 6564SOL    HW220592   5.846   4.491   3.305  2.7372  3.4225  3.4878
 6565SOL     OW20593   6.256   4.304   1.248  0.3872  0.5254 -0.3475
 6565SOL    HW120594   6.160   4.284   1.267  0.2827  0.3192 -1.0700
 6565SOL    HW220595   6.272   4.301   1.150  0.8519  1.7982 -0.3341
 6566SOL     OW20596   5.156   5.366   4.175  0.2120  0.0451 -0.0878
 6566SOL    HW120597   5.242   5.400   4.213  0.0723  0.2576  0.0414
 6566SOL    HW220598   5.131   5.280   4.219 -0.4629  0.7930  1.0294
 6567SOL     OW20599   2.796   6.057   1.660 -0.8817 -0.1204  0.6250
 6567SOL    HW120600   2.839   6.036   1.748 -1.1724 -0.8556  0.6040
 6567SOL    HW220601   2.843   6.134   1.617 -1.5648  1.1226  2.0201
 6568SOL     OW20602   5.637   2.218   6.986 -0.0429 -0.1230 -0.0994
 6568SOL    HW120603   5.565   2.215   7.055 -0.6592 -0.7714 -0.7580
 6568SOL    HW220604   5.714   2.161   7.016 -0.1282 -0.0661  0.2351
 6569SOL     OW20605   0.963   4.939   2.629  0.3007 -0.3533  0.2565
 6569SOL    HW120606   1.037   4.985   2.678  1.8498 -2.8526  0.4554
 6569SOL    HW220607   0.900   4.898   2.695 -0.4890  0.5411  0.0819
 6570SOL     OW20608   5.650   6.931   2.305 -0.0165  0.2124 -0.6346
 6570SOL    HW120609   5.574   6.869   2.289 -0.9997  1.0920  0.4466
 6570SOL    HW220610   5.692   6.910   2.394 -0.2750  0.9943 -0.3192
 6571SOL     OW20611   1.976   6.459   3.446  0.5881  0.4298  0.1272
 6571SOL    HW120612   1.894   6.488   3.495 -0.8295 -0.8631 -1.3460
 6571SOL    HW220613   1.995   6.521   3.370 -0.0677 -0.2039 -0.5719
 6572SOL     OW20614   1.102   0.473   4.350 -0.7590  0.1544  0.0767
 6572SOL    HW120615   1.130   0.522   4.267 -1.7055  0.7641  0.1115
 6572SOL    HW220616   1.034   0.527   4.400 -0.6754 -0.5011  0.9218
 6573SOL     OW20617   0.581   6.576   4.155  0.6748  0.1089 -0.1716
 6573SOL    HW120618   0.589   6.608   4.249  2.0982  1.1803 -0.6227
 6573SOL    HW220619   0.520   6.496   4.152  0.4861  0.1417  1.6125
 6574SOL     OW20620   1.493   5.446   0.940  0.4062  0.3730  0.4030
 6574SOL    HW120621   1.425   5.451   1.013 -1.0671  1.1038 -0.9346
 6574SOL    HW220622   1.476   5.365   0.884 -1.6125  2.2069 -1.8987
 6575SOL     OW20623   6.987   6.790   4.440 -0.2572 -0.4281 -0.2543
 6575SOL    HW120624   6.959   6.865   4.379  2.1833  0.4373 -0.4327
 6575SOL    HW220625   6.910   6.728   4.454 -1.2373 -0.1037 -3.3897
 6576SOL     OW20626   4.968   5.510   3.863  0.7237  0.2238  0.4933
 6576SOL    HW120627   4.955   5.438   3.794 -1.3577  2.2432 -1.4076
 6576SOL    HW220628   4.938   5.476   3.952  0.3123 -1.4461 -0.2403
 6577SOL     OW20629   2.906   0.712   6.451  0.1874  0.7134  0.0554
 6577SOL    HW120630   2.950   0.801   6.463  2.2509 -0.2960  0.5330
 6577SOL    HW220631   2.898   0.667   6.540  2.3179 -0.9096 -0.4862
 6578SOL     OW20632   1.542   5.263   1.402  0.0734 -0.5482  0.7980
 6578SOL    HW120633   1.619   5.303   1.352 -0.8253  1.2720  0.8005
 6578SOL    HW220634   1.565   5.169   1.428  2.7668  0.2692  1.7560
 6579SOL     OW20635   2.700   2.155   1.908 -0.0645  0.2906  0.0516
 6579SOL    HW120636   2.784   2.205   1.928  0.2515  0.8575 -2.3302
 6579SOL    HW220637   2.630   2.178   1.974  0.4804  2.9098 -0.1977
 6580SOL     OW20638   3.748   1.937   6.943  0.3924 -0.4208 -0.3123
 6580SOL    HW120639   3.798   1.874   7.003 -0.2995 -0.5630  0.1175
 6580SOL    HW220640   3.812   2.006   6.907  0.4766  0.8816  2.1429
 6581SOL     OW20641   1.107   3.599   2.635  0.2947  0.6006  0.2808
 6581SOL    HW120642   1.160   3.524   2.595 -0.5594  0.1307  0.0174
 6581SOL    HW220643   1.057   3.647   2.563  0.3163  1.0067  0.5347
 6582SOL     OW20644   5.035   5.997   3.513 -0.4441 -0.0688 -0.3984
 6582SOL    HW120645   5.129   6.030   3.516 -0.1749 -0.8521 -0.1644
 6582SOL    HW220646   4.973   6.071   3.543  0.1176  0.3273 -0.2015
 6583SOL     OW20647   0.873   5.071   0.210  0.2714 -0.6456 -0.1171
 6583SOL    HW120648   0.826   4.983   0.213 -1.8315  0.3919 -0.3379
 6583SOL    HW220649   0.808   5.144   0.231  1.4668  1.0245 -1.8423
 6584SOL     OW20650   4.204   4.070   5.596 -0.6649  0.3391 -0.8301
 6584SOL    HW120651   4.232   4.136   5.665  0.1605 -0.2544 -0.5716
 6584SOL    HW220652   4.162   4.118   5.518  1.0556  1.2966 -1.2191
 6585SOL     OW20653   5.497   4.853   1.817  0.0172 -0.8530 -0.1974
 6585SOL    HW120654   5.565   4.834   1.746 -0.1993 -1.6723 -0.2021
 6585SOL    HW220655   5.480   4.770   1.870 -0.8912 -0.6368 -0.1206
 6586SOL     OW20656   0.391   2.844   6.245 -0.2720  0.5761 -0.0527
 6586SOL    HW120657   0.314   2.789   6.213  0.4691 -0.5783  0.0786
 6586SOL    HW220658   0.360   2.910   6.314 -0.7766 -1.4925  1.8088
 6587SOL     OW20659   2.549   3.819   5.529 -0.1744 -0.4725  0.0365
 6587SOL    HW120660   2.555   3.905   5.580  0.8579 -1.2476  1.2996
 6587SOL    HW220661   2.488   3.756   5.577  0.2773 -0.9739 -0.0366
 6588SOL     OW20662   0.785   2.419   0.486  0.0457  0.4197  0.2624
 6588SOL    HW120663   0.694   2.450   0.513 -1.1768 -1.9663 -0.7195
 6588SOL    HW220664   0.854   2.458   0.546 -1.2784  4.3194 -0.4470
 6589SOL     OW20665   5.678   0.710   6.888 -0.1964  0.6754 -0.5039
 6589SOL    HW120666   5.705   0.803   6.863  1.7027  0.5263  0.8043
 6589SOL    HW220667   5.759   0.658   6.916 -1.3674 -1.0540 -0.1653
 6590SOL     OW20668   0.718   0.794   4.085  0.0405 -0.0063 -0.3074
 6590SOL    HW120669   0.746   0.847   4.165  0.0938  0.7214 -0.8022
 6590SOL    HW220670   0.634   0.744   4.107  1.1171 -1.4025  0.8546
 6591SOL     OW20671   5.201   4.660   3.756 -0.0039  0.3587  0.1861
 6591SOL    HW120672   5.141   4.589   3.720  0.7777 -0.1736 -0.0957
 6591SOL    HW220673   5.154   4.710   3.828 -1.0321  0.4190 -0.5161
 6592SOL     OW20674   1.590   1.380   3.607 -0.5400  0.1815  0.4559
 6592SOL    HW120675   1.617   1.458   3.663 -0.9364 -0.6019  1.7634
 6592SOL    HW220676   1.534   1.317   3.661 -0.2972 -0.9751 -0.5925
 6593SOL     OW20677   6.837   6.948   3.301 -0.4779 -0.2055 -0.1591
 6593SOL    HW120678   6.831   6.862   3.249  0.9510 -0.0336 -0.6586
 6593SOL    HW220679   6.933   6.966   3.323 -1.0019 -0.1999  2.4500
 6594SOL     OW20680   4.299   0.476   5.720  0.1763 -0.2921 -0.4553
 6594SOL    HW120681   4.359   0.416   5.668 -1.0713 -1.3385 -0.7528
 6594SOL    HW220682   4.300   0.567   5.680  0.3968 -0.6904 -1.3832
 6595SOL     OW20683   2.087   6.314   5.476  0.3150 -0.1216 -0.4128
 6595SOL    HW120684   2.085   6.257   5.394  1.0271 -1.4827  0.4641
 6595SOL    HW220685   2.027   6.393   5.464 -1.5867 -1.6073 -1.3090
 6596SOL     OW20686   3.556   5.759   3.981 -0.0301 -0.5701  0.0288
 6596SOL    HW120687   3.497   5.827   4.026  0.0386 -2.2825  2.9804
 6596SOL    HW220688   3.650   5.791   3.980 -0.5515  1.1928 -2.6549
 6597SOL     OW20689   1.315   5.985   3.026 -0.6827 -0.6547 -0.7763
 6597SOL    HW120690   1.296   5.899   3.074  0.2352  0.0767  1.0135
 6597SOL    HW220691   1.397   5.973   2.969 -0.2565 -0.8444 -0.1388
 6598SOL     OW20692   1.500   5.733   2.457 -0.7952  0.0376 -0.7010
 6598SOL    HW120693   1.409   5.765   2.485  1.0296  3.8667  1.6736
 6598SOL    HW220694   1.535   5.670   2.525 -0.1315  1.8138  0.6570
 6599SOL     OW20695   0.508   5.901   0.518 -0.0190 -0.0311 -0.0321
 6599SOL    HW120696   0.409   5.901   0.505 -0.3023  0.0022  1.8302
 6599SOL    HW220697   0.547   5.816   0.484 -0.7674 -0.2893 -0.2457
 6600SOL     OW20698   4.571   0.632   3.505 -0.0036 -0.4592  0.5785
 6600SOL    HW120699   4.660   0.591   3.486 -0.0407 -0.1640 -0.2904
 6600SOL    HW220700   4.500   0.586   3.452 -0.2601 -0.2116  0.6970
 6601SOL     OW20701   0.709   0.723   4.511 -0.3119 -0.1330 -0.7553
 6601SOL    HW120702   0.722   0.715   4.412 -1.8698 -0.9699 -0.9184
 6601SOL    HW220703   0.649   0.649   4.543  0.9909 -0.5064  0.9888
 6602SOL     OW20704   6.700   5.929   0.506  0.0613 -0.5638 -0.1742
 6602SOL    HW120705   6.709   6.027   0.526 -0.7473 -0.9747  2.6717
 6602SOL    HW220706   6.634   5.916   0.433  0.0579  1.0147 -0.4883
 6603SOL     OW20707   5.301   4.466   1.690 -0.1691 -0.2272  0.0131
 6603SOL    HW120708   5.222   4.419   1.730  0.2481 -0.1924  0.9237
 6603SOL    HW220709   5.330   4.419   1.607 -0.3227 -1.0546  0.4128
 6604SOL     OW20710   2.457   4.389   1.552  0.2351  0.1917 -0.0488
 6604SOL    HW120711   2.544   4.412   1.509  1.0025  0.1567  1.4286
 6604SOL    HW220712   2.382   4.409   1.489  1.3617 -1.1384 -1.9147
 6605SOL     OW20713   6.682   4.468   2.023 -0.3763  0.8553 -0.1086
 6605SOL    HW120714   6.657   4.450   1.928 -1.5657 -0.2720  0.4030
 6605SOL    HW220715   6.644   4.556   2.051 -2.3070  0.0126  0.0862
 6606SOL     OW20716   0.940   6.067   3.799  0.0545  0.7208  0.2336
 6606SOL    HW120717   0.861   6.023   3.842 -0.8454  2.0660  0.0110
 6606SOL    HW220718   0.908   6.128   3.726  1.3541  0.8451 -0.2559
 6607SOL     OW20719   0.986   1.855   4.092  0.0256  0.2289 -0.0724
 6607SOL    HW120720   0.930   1.926   4.049 -1.4413 -0.9905 -0.2511
 6607SOL    HW220721   0.962   1.848   4.189  1.4817  1.1936  0.3925
 6608SOL     OW20722   0.586   5.468   5.843 -0.1920 -0.6056 -0.0444
 6608SOL    HW120723   0.641   5.482   5.762  1.7150  2.3001  1.5604
 6608SOL    HW220724   0.498   5.514   5.832  0.2615  0.2199 -0.3093
 6609SOL     OW20725   2.525   2.353   6.165 -0.5225 -0.4446 -0.3297
 6609SOL    HW120726   2.484   2.315   6.083 -0.0058  0.2917 -0.9494
 6609SOL    HW220727   2.624   2.360   6.153 -0.3241 -1.1618  0.7122
 6610SOL     OW20728   3.176   4.158   0.923 -0.1254 -0.0121 -0.7462
 6610SOL    HW120729   3.252   4.095   0.938 -0.7759 -0.8891 -1.0746
 6610SOL    HW220730   3.196   4.245   0.968  0.9517 -0.3140 -0.6037
 6611SOL     OW20731   2.415   0.656   4.975  0.2439  0.1858 -0.3010
 6611SOL    HW120732   2.375   0.588   4.913 -2.2428  0.0454  1.2943
 6611SOL    HW220733   2.510   0.631   4.996  0.1891 -1.3912 -1.6977
 6612SOL     OW20734   5.076   2.044   6.976  0.1825 -0.1372 -0.2887
 6612SOL    HW120735   4.989   2.089   6.998  0.3788 -0.7085  1.8929
 6612SOL    HW220736   5.128   2.100   6.912 -0.6634  1.4861  0.3971
 6613SOL     OW20737   6.270   4.279   0.529  0.9133 -0.5612 -0.0457
 6613SOL    HW120738   6.304   4.350   0.592 -2.7077  1.0688  0.3914
 6613SOL    HW220739   6.308   4.294   0.438  1.1395  1.3236  0.3035
 6614SOL     OW20740   2.899   5.011   6.665  0.2027  0.5259 -0.3093
 6614SOL    HW120741   2.889   4.980   6.570 -1.2940  0.5926 -0.1976
 6614SOL    HW220742   2.991   5.047   6.678  0.5826  0.1181 -1.6136
 6615SOL     OW20743   4.065   5.420   5.532 -0.1863  0.0587 -0.8836
 6615SOL    HW120744   4.144   5.372   5.495  0.6686  1.6201 -1.1526
 6615SOL    HW220745   4.086   5.456   5.623 -0.9210 -0.3281 -0.5462
 6616SOL     OW20746   4.344   1.699   0.178  0.2497  0.3788  0.4795
 6616SOL    HW120747   4.426   1.734   0.223 -0.6461 -0.0507  2.6047
 6616SOL    HW220748   4.331   1.603   0.204 -0.8458  0.4108  0.0850
 6617SOL     OW20749   4.755   0.654   4.171  0.4984  0.0663 -0.0079
 6617SOL    HW120750   4.790   0.640   4.264  2.2636 -1.7005 -0.8681
 6617SOL    HW220751   4.807   0.728   4.127  0.6123 -0.0370 -0.0470
 6618SOL     OW20752   6.703   2.617   2.722  0.1429 -0.0417  0.1504
 6618SOL    HW120753   6.802   2.603   2.717  0.2196  0.0874  1.1056
 6618SOL    HW220754   6.681   2.710   2.692  0.4449  0.3386  1.0868
 6619SOL     OW20755   5.347   6.207   4.289  0.0496 -0.1158  0.2119
 6619SOL    HW120756   5.415   6.277   4.310 -0.5781  0.3800  0.5838
 6619SOL    HW220757   5.258   6.232   4.327 -0.1576 -1.1774  0.4836
 6620SOL     OW20758   1.162   3.068   2.124 -0.5622  0.0979 -1.0779
 6620SOL    HW120759   1.198   3.051   2.033 -0.0664 -1.3745 -0.6366
 6620SOL    HW220760   1.133   2.981   2.165 -0.3057  0.6601  0.3568
 6621SOL     OW20761   3.968   3.066   2.909  0.2129 -0.0715  0.1258
 6621SOL    HW120762   4.045   3.011   2.876  0.1078  1.9018 -4.1868
 6621SOL    HW220763   4.003   3.150   2.951  0.4611  0.1855 -0.5757
 6622SOL     OW20764   1.480   3.558   1.077 -0.1511  0.0029  0.2227
 6622SOL    HW120765   1.563   3.513   1.112 -1.1979 -1.8672  0.4607
 6622SOL    HW220766   1.454   3.633   1.137 -0.0252 -1.0002  1.5671
 6623SOL     OW20767   3.630   4.106   2.877 -0.3409 -0.8419 -0.3134
 6623SOL    HW120768   3.701   4.084   2.811  1.0136 -0.6881  1.0438
 6623SOL    HW220769   3.652   4.065   2.965 -1.2204  0.3548  0.4996
 6624SOL     OW20770   3.642   2.087   3.358  0.2743  0.5223 -0.2103
 6624SOL    HW120771   3.548   2.058   3.378  0.1730  0.1695 -1.1295
 6624SOL    HW220772   3.690   2.108   3.443 -0.2283 -0.5813  0.3556
 6625SOL     OW20773   0.500   5.134   7.011  0.1099 -0.0318  0.2272
 6625SOL    HW120774   0.407   5.115   7.042  0.3061 -0.6062  0.4712
 6625SOL    HW220775   0.557   5.053   7.024  0.2009 -0.3264 -1.6656
 6626SOL     OW20776   2.335   5.122   4.239  0.2916  0.0137 -0.4866
 6626SOL    HW120777   2.271   5.077   4.301 -1.9475  1.3853 -1.6906
 6626SOL    HW220778   2.383   5.196   4.286 -0.2035  0.0143  0.0124
 6627SOL     OW20779   3.839   6.894   5.534 -0.1569  0.1977  0.1180
 6627SOL    HW120780   3.839   6.878   5.436  1.3234 -0.2100  0.1613
 6627SOL    HW220781   3.919   6.949   5.559 -1.4969  1.9079  0.8731
 6628SOL     OW20782   4.519   6.139   2.166 -0.4557  0.3556 -0.1107
 6628SOL    HW120783   4.518   6.062   2.102 -0.7255 -0.5952  1.0049
 6628SOL    HW220784   4.599   6.131   2.226 -0.1656  1.2780 -0.3482
 6629SOL     OW20785   5.159   0.086   4.592 -0.1153 -0.2894  0.5694
 6629SOL    HW120786   5.151   0.153   4.666  2.0296 -2.4060  2.9014
 6629SOL    HW220787   5.138  -0.005   4.628  0.6437 -1.3499 -1.5451
 6630SOL     OW20788   1.018   6.717   0.654  0.1654 -0.3970 -0.2896
 6630SOL    HW120789   1.032   6.682   0.746 -0.2795  0.9404  0.3116
 6630SOL    HW220790   0.930   6.765   0.649 -0.1147 -0.9766 -1.5851
 6631SOL     OW20791   0.984   1.260   5.021 -0.2198 -0.5186 -0.0602
 6631SOL    HW120792   0.933   1.223   5.098 -2.0418  1.7260 -0.0750
 6631SOL    HW220793   1.064   1.310   5.055 -1.0257  0.4768  0.4253
 6632SOL     OW20794   0.703   0.061   6.001 -0.6850  0.0774  0.1581
 6632SOL    HW120795   0.788   0.074   6.051  0.1772 -0.6300 -1.0506
 6632SOL    HW220796   0.668  -0.031   6.018 -0.2062 -0.2883 -0.7666
 6633SOL     OW20797   4.359   1.105   6.256  0.6816  0.7760  0.1674
 6633SOL    HW120798   4.427   1.093   6.183 -0.5357  0.3345 -0.9453
 6633SOL    HW220799   4.318   1.017   6.278 -1.1659  1.3154 -0.8645
 6634SOL     OW20800   3.535   1.451   5.293  0.8367 -0.0906  0.0689
 6634SOL    HW120801   3.496   1.526   5.240 -1.1061 -0.1254  1.3527
 6634SOL    HW220802   3.573   1.382   5.230 -1.0724  0.0314 -1.3031
 6635SOL     OW20803   6.737   5.684   5.710 -1.0387  0.3516  0.1553
 6635SOL    HW120804   6.687   5.766   5.683  0.4180  2.0300  2.2013
 6635SOL    HW220805   6.817   5.673   5.650 -1.2613  0.3926 -0.1511
 6636SOL     OW20806   4.381   3.144   1.363 -0.2337 -0.0875 -0.2456
 6636SOL    HW120807   4.480   3.147   1.374 -0.3403  1.3047  0.5291
 6636SOL    HW220808   4.343   3.071   1.420  0.3358 -0.6635 -0.5889
 6637SOL     OW20809   0.356   4.216   6.977  0.9959  0.0839  0.2598
 6637SOL    HW120810   0.455   4.229   6.971  0.8909  0.2814 -1.6550
 6637SOL    HW220811   0.310   4.279   6.915 -0.2134 -1.3161 -0.3352
 6638SOL     OW20812   3.041   3.935   3.444  0.1986 -0.3438  0.2225
 6638SOL    HW120813   3.117   3.930   3.380 -0.4755  0.8129 -0.7140
 6638SOL    HW220814   2.977   3.859   3.426  0.0195 -0.0333 -0.4857
 6639SOL     OW20815   6.808   3.318   2.445  0.7929  0.0555 -0.1341
 6639SOL    HW120816   6.854   3.234   2.414 -1.7549 -1.4729 -0.1090
 6639SOL    HW220817   6.782   3.373   2.366  1.0303 -0.0023 -0.2524
 6640SOL     OW20818   0.866   3.662   4.942  0.0048 -0.3680  0.0780
 6640SOL    HW120819   0.938   3.667   4.873  1.0830  0.0398  1.1910
 6640SOL    HW220820   0.904   3.628   5.028 -1.1379 -0.1635  0.6928
 6641SOL     OW20821   5.124   2.305   0.288  1.1502 -0.6152  0.0137
 6641SOL    HW120822   5.207   2.269   0.329  0.6801 -0.9864  0.6498
 6641SOL    HW220823   5.146   2.345   0.198  2.2561  0.5765  0.7759
 6642SOL     OW20824   0.066   4.732   0.163  0.0965  0.7364 -0.2230
 6642SOL    HW120825   0.061   4.651   0.105  0.7509  0.5954 -0.0973
 6642SOL    HW220826   0.016   4.716   0.247  0.0872  0.5219 -0.2680
 6643SOL     OW20827   6.921   0.925   6.042 -1.1303  0.2476  0.1311
 6643SOL    HW120828   6.934   0.988   6.119 -1.6185  0.7563 -0.1949
 6643SOL    HW220829   6.921   0.977   5.956 -3.4702  0.0756 -0.0167
 6644SOL     OW20830   2.391   6.388   2.744  0.4363  0.6115  0.2730
 6644SOL    HW120831   2.377   6.486   2.733  2.8712  0.7653 -2.5276
 6644SOL    HW220832   2.302   6.342   2.749 -0.7914  2.7358 -0.6277
 6645SOL     OW20833   5.355   3.296   4.168 -0.6518  0.7508  0.1172
 6645SOL    HW120834   5.306   3.302   4.081  0.0361 -2.2747 -0.5987
 6645SOL    HW220835   5.332   3.209   4.213  1.2992  0.8885  1.5101
 6646SOL     OW20836   4.746   6.209   5.941  0.1346 -0.4861 -0.3540
 6646SOL    HW120837   4.748   6.241   6.036 -3.4880  0.9957 -0.6023
 6646SOL    HW220838   4.702   6.120   5.937 -0.0122 -0.4002 -0.6524
 6647SOL     OW20839   3.658   6.615   1.629 -0.2860  0.0624 -0.1191
 6647SOL    HW120840   3.697   6.641   1.718 -0.1842 -0.7133  0.0710
 6647SOL    HW220841   3.571   6.568   1.642 -0.1535 -0.2758 -0.4085
 6648SOL     OW20842   3.971   5.453   3.737 -0.0638  0.2397 -0.2668
 6648SOL    HW120843   3.914   5.528   3.706 -1.0064 -0.7914 -1.1135
 6648SOL    HW220844   4.041   5.433   3.669 -0.2774 -0.1080 -0.3918
 6649SOL     OW20845   0.039   2.844   4.632 -0.2324  0.4263  0.4693
 6649SOL    HW120846  -0.035   2.898   4.672  0.4873  1.0330  1.0187
 6649SOL    HW220847   0.044   2.755   4.678 -0.3885  0.5248  0.6758
 6650SOL     OW20848   2.772   1.142   3.894  0.0308 -0.1979  0.0198
 6650SOL    HW120849   2.711   1.102   3.963 -0.6840 -1.3180 -1.1901
 6650SOL    HW220850   2.790   1.238   3.916 -0.6044 -0.3776  1.4480
 6651SOL     OW20851   5.275   2.575   4.854 -0.0992  0.7676  0.3524
 6651SOL    HW120852   5.350   2.555   4.917  0.4615 -2.4421 -1.1554
 6651SOL    HW220853   5.187   2.564   4.902  0.3103 -1.6932  0.6750
 6652SOL     OW20854   6.077   4.238   0.710  0.2066 -0.2633 -0.5800
 6652SOL    HW120855   6.130   4.256   0.628 -0.6533 -0.7718 -1.2628
 6652SOL    HW220856   6.024   4.319   0.735 -0.1370 -0.3573 -0.9909
 6653SOL     OW20857   5.093   3.400   4.881 -0.7267  0.3002  0.4308
 6653SOL    HW120858   5.074   3.302   4.886 -0.2078  0.0592 -1.6184
 6653SOL    HW220859   5.023   3.445   4.826  0.9235  0.4754 -1.6251
 6654SOL     OW20860   1.045   1.851   3.573  0.0026 -0.6619 -0.4770
 6654SOL    HW120861   1.005   1.790   3.641  0.2378  0.6088  0.8553
 6654SOL    HW220862   1.140   1.869   3.596 -0.7450  2.3608  0.8718
 6655SOL     OW20863   0.336   4.267   0.214  0.0127  0.4675 -0.5473
 6655SOL    HW120864   0.357   4.227   0.124 -1.5967 -1.2166 -0.2384
 6655SOL    HW220865   0.261   4.332   0.204 -0.2492  0.1869 -0.4066
 6656SOL     OW20866   6.060   4.243   3.073  0.3872  0.3687  0.9730
 6656SOL    HW120867   6.114   4.201   3.145 -1.4251 -0.8037  1.7373
 6656SOL    HW220868   5.963   4.242   3.099  0.0022  3.1011  0.0489
 6657SOL     OW20869   4.455   0.589   4.166  0.0174 -0.3987 -0.0752
 6657SOL    HW120870   4.552   0.593   4.145 -0.1759  1.1415 -0.8407
 6657SOL    HW220871   4.442   0.603   4.264  0.5158  1.0805 -0.1885
 6658SOL     OW20872   5.989   3.375   4.088  0.0491  0.0303 -0.2290
 6658SOL    HW120873   6.018   3.404   3.997 -0.9440 -1.8625 -1.2172
 6658SOL    HW220874   6.069   3.342   4.140  0.6904  1.5413 -0.1929
 6659SOL     OW20875   6.730   5.407   1.516  0.3198 -0.1124  0.4560
 6659SOL    HW120876   6.748   5.402   1.614 -0.6383 -1.5144  0.5949
 6659SOL    HW220877   6.812   5.381   1.465 -0.0628 -2.5833  0.9850
 6660SOL     OW20878   1.272   0.326   4.503  0.3332  0.5234 -0.1456
 6660SOL    HW120879   1.196   0.383   4.472 -0.8069 -0.8442  0.0332
 6660SOL    HW220880   1.358   0.363   4.469 -0.4950  1.5813 -1.1478
 6661SOL     OW20881   2.623   6.539   4.024  0.3196  0.0323 -0.1041
 6661SOL    HW120882   2.566   6.567   3.947  1.9031  1.8609 -0.7126
 6661SOL    HW220883   2.703   6.490   3.990 -0.9111 -2.7182  0.7526
 6662SOL     OW20884   2.828   5.935   0.124  0.0370  0.3258 -0.0563
 6662SOL    HW120885   2.828   5.905   0.219 -0.6716 -1.1506 -0.4971
 6662SOL    HW220886   2.835   5.855   0.064  1.2900  1.2800 -1.2483
 6663SOL     OW20887   1.806   4.476   6.201  0.0986  0.8070  0.1716
 6663SOL    HW120888   1.839   4.458   6.294 -0.5317  0.3297  0.3149
 6663SOL    HW220889   1.763   4.566   6.198  0.8127  1.1476  0.1482
 6664SOL     OW20890   3.742   6.497   1.394  0.6675  0.6531 -0.0667
 6664SOL    HW120891   3.710   6.543   1.477  0.4982  1.0531 -0.3525
 6664SOL    HW220892   3.718   6.400   1.398 -2.3882  1.2853 -1.1777
 6665SOL     OW20893   3.815   4.982   5.662  0.0018  0.0497  0.0413
 6665SOL    HW120894   3.802   5.066   5.715 -0.1617  0.0317  0.0283
 6665SOL    HW220895   3.739   4.969   5.599  0.6474  0.5570 -0.8723
 6666SOL     OW20896   3.407   0.265   0.557 -0.3267 -0.5639  0.4672
 6666SOL    HW120897   3.343   0.197   0.521 -1.4269 -0.4908  2.1319
 6666SOL    HW220898   3.435   0.327   0.485 -2.7427 -0.1524 -0.2042
 6667SOL     OW20899   2.393   5.822   0.879  0.4866 -0.0795  0.1178
 6667SOL    HW120900   2.368   5.786   0.790 -1.8099 -1.4288  1.2216
 6667SOL    HW220901   2.333   5.784   0.949  0.9051  2.4471  2.0113
 6668SOL     OW20902   6.997   3.708   5.139 -0.2557 -0.3628  0.1188
 6668SOL    HW120903   6.920   3.652   5.168 -0.5864 -0.5819 -1.1438
 6668SOL    HW220904   6.975   3.805   5.151 -0.1706 -0.4550  1.0933
 6669SOL     OW20905   6.956   2.212   3.548  0.7213  0.2779 -0.0727
 6669SOL    HW120906   6.905   2.289   3.510 -1.4575 -1.2802 -0.5104
 6669SOL    HW220907   7.004   2.164   3.474 -0.6428 -0.6839 -0.3732
 6670SOL     OW20908   6.703   3.055   1.848 -0.2816 -0.6332  0.1793
 6670SOL    HW120909   6.673   3.011   1.763  2.1714  0.3143 -1.2685
 6670SOL    HW220910   6.758   2.991   1.902  0.2035 -0.4867 -0.1390
 6671SOL     OW20911   0.675   4.000   6.790  0.7365 -0.6840  0.3156
 6671SOL    HW120912   0.731   3.990   6.707  1.5400 -0.0031  0.7636
 6671SOL    HW220913   0.584   4.033   6.764 -0.1709 -3.5789 -0.6295
 6672SOL     OW20914   2.241   1.917   6.341  0.2671  0.1480  0.1838
 6672SOL    HW120915   2.324   1.931   6.394 -0.0340 -0.1552  0.7411
 6672SOL    HW220916   2.162   1.949   6.393  0.0195  0.3357 -0.2972
 6673SOL     OW20917   4.709   1.915   4.422  0.2892 -0.2749  0.0744
 6673SOL    HW120918   4.620   1.960   4.417  0.3236 -0.2920 -1.0580
 6673SOL    HW220919   4.697   1.819   4.444 -0.0298 -0.4090 -0.6495
 6674SOL     OW20920   6.784   2.004   0.724  0.3928 -0.2040  0.3234
 6674SOL    HW120921   6.862   1.967   0.774  0.5270  1.5766  1.5163
 6674SOL    HW220922   6.817   2.064   0.651  0.1568 -1.4144 -0.8141
 6675SOL     OW20923   4.417   6.992   0.254 -0.4235  0.6017 -0.3793
 6675SOL    HW120924   4.369   7.073   0.286  2.8234  2.2713  0.6690
 6675SOL    HW220925   4.492   6.970   0.316 -0.0188 -2.0956 -1.6569
 6676SOL     OW20926   6.968   4.298   6.591 -0.3982 -0.2024 -0.6195
 6676SOL    HW120927   6.913   4.310   6.508 -0.1768 -1.7935 -1.0142
 6676SOL    HW220928   6.977   4.201   6.612 -0.6064  0.1669  1.3884
 6677SOL     OW20929   6.002   0.485   1.030  0.1466 -0.0994  0.0301
 6677SOL    HW120930   6.048   0.518   1.112 -1.1685  0.8526  0.4271
 6677SOL    HW220931   5.907   0.519   1.030 -0.9571 -2.9427 -0.1257
 6678SOL     OW20932   2.546   7.018   0.622 -0.3409  0.4422 -0.3769
 6678SOL    HW120933   2.619   6.971   0.572 -0.4751 -0.1962  0.0135
 6678SOL    HW220934   2.586   7.074   0.694 -0.2977 -1.3201  1.0183
 6679SOL     OW20935   2.467   0.010   3.235 -0.4028 -0.1660  0.1145
 6679SOL    HW120936   2.394   0.031   3.299 -1.3675 -0.2982 -0.9136
 6679SOL    HW220937   2.461   0.071   3.156  1.4995  0.8107  0.6689
 6680SOL     OW20938   0.378   5.769   2.837  0.2906  0.1506  0.0201
 6680SOL    HW120939   0.400   5.762   2.740 -0.0211  1.1584 -0.1366
 6680SOL    HW220940   0.354   5.864   2.859  1.8221  0.2773  1.3744
 6681SOL     OW20941   3.225   0.565   2.423  0.3943  0.7133 -0.1027
 6681SOL    HW120942   3.281   0.597   2.346  1.7645 -2.3583 -0.5125
 6681SOL    HW220943   3.181   0.479   2.399  2.0474 -1.1630  2.9473
 6682SOL     OW20944   1.045   4.538   6.437 -0.6914 -0.4904 -0.9284
 6682SOL    HW120945   1.055   4.497   6.528 -0.7524  0.4438 -0.4922
 6682SOL    HW220946   1.129   4.522   6.384 -0.5466 -0.7939 -0.6165
 6683SOL     OW20947   0.909   0.306   1.059 -0.2737 -0.1269  0.4156
 6683SOL    HW120948   0.828   0.364   1.050 -0.9675 -1.2853 -1.2176
 6683SOL    HW220949   0.965   0.314   0.976 -1.2256 -2.9697 -0.6083
 6684SOL     OW20950   1.681   0.687   0.267  0.8471  0.4263  0.1833
 6684SOL    HW120951   1.603   0.692   0.328  0.5151  0.6271 -0.2496
 6684SOL    HW220952   1.733   0.772   0.272  0.8913  0.3933  0.2801
 6685SOL     OW20953   3.918   2.397   1.724 -0.0540  0.6324  0.2193
 6685SOL    HW120954   3.885   2.402   1.629 -0.7531 -1.5017  0.2738
 6685SOL    HW220955   3.842   2.372   1.784  0.6644  0.5850  1.1332
 6686SOL     OW20956   3.814   4.631   6.461 -0.5738 -0.1624 -0.1490
 6686SOL    HW120957   3.848   4.556   6.405  1.1762 -0.4634  1.2086
 6686SOL    HW220958   3.804   4.600   6.556  0.8403  1.4289  0.5817
 6687SOL     OW20959   0.780   3.323   1.925  0.2395  0.9800 -0.4651
 6687SOL    HW120960   0.706   3.378   1.962  0.0119 -1.0438  2.3884
 6687SOL    HW220961   0.862   3.333   1.981  0.9202  0.1961 -1.2681
 6688SOL     OW20962   5.483   5.516   6.868  0.0741  0.0213 -0.1464
 6688SOL    HW120963   5.495   5.532   6.770 -0.8894  0.8290 -0.1571
 6688SOL    HW220964   5.388   5.537   6.893  1.3689  4.8017  1.8312
 6689SOL     OW20965   4.853   4.475   5.693 -0.1413  0.3034  0.4277
 6689SOL    HW120966   4.884   4.421   5.614  0.2621 -0.8389  1.3431
 6689SOL    HW220967   4.769   4.524   5.668  0.6517  0.9832 -1.0997
 6690SOL     OW20968   6.416   0.007   1.021  0.1828  0.2279  0.1321
 6690SOL    HW120969   6.470   0.088   1.043  0.1993  0.5901 -1.1663
 6690SOL    HW220970   6.324   0.034   0.992  0.3777 -0.1490 -0.8983
 6691SOL     OW20971   2.120   2.567   2.416 -0.7162  0.0360  0.1331
 6691SOL    HW120972   2.087   2.588   2.324 -0.6413  2.6281  0.6341
 6691SOL    HW220973   2.220   2.569   2.417 -0.6064 -2.4148 -0.1977
 6692SOL     OW20974   4.596   6.866   1.860 -0.8148  0.5099  0.3402
 6692SOL    HW120975   4.643   6.881   1.773 -0.6185  0.1401  0.3820
 6692SOL    HW220976   4.506   6.910   1.856 -2.3412 -2.4339 -1.4130
 6693SOL     OW20977   3.622   1.060   4.307  0.4984  0.8256  0.0606
 6693SOL    HW120978   3.711   1.088   4.342  0.7281 -0.2692  0.4107
 6693SOL    HW220979   3.575   1.138   4.266  0.9925  1.7428  1.1909
 6694SOL     OW20980   5.354   5.128   3.073 -0.3280  0.1661 -0.3383
 6694SOL    HW120981   5.285   5.164   3.010 -0.0332 -1.5932 -1.7493
 6694SOL    HW220982   5.354   5.028   3.069 -0.8905 -0.0980  3.1748
 6695SOL     OW20983   3.465   6.842   1.338 -0.4025 -0.2577  0.2624
 6695SOL    HW120984   3.471   6.747   1.370  0.7461  0.3403  1.9399
 6695SOL    HW220985   3.410   6.845   1.254 -2.4907 -2.0684  1.4612
 6696SOL     OW20986   2.587   0.349   6.912 -0.0740 -0.3338  0.2303
 6696SOL    HW120987   2.504   0.332   6.858 -0.4498 -1.5556  1.1377
 6696SOL    HW220988   2.666   0.352   6.852 -0.7958  1.2162 -0.7035
 6697SOL     OW20989   4.003   1.300   2.488 -0.9348 -0.4232 -0.1569
 6697SOL    HW120990   4.021   1.348   2.574  0.4160 -1.0463 -0.0636
 6697SOL    HW220991   3.995   1.367   2.414  0.4088 -0.0012  0.0514
 6698SOL     OW20992   1.996   2.341   1.003 -0.1583  0.3988 -0.1541
 6698SOL    HW120993   1.963   2.409   0.937 -0.1395 -0.5765 -1.2009
 6698SOL    HW220994   1.952   2.253   0.985  0.8241 -0.2049  0.3049
 6699SOL     OW20995   2.047   3.198   5.270 -0.3433  0.1532  0.5164
 6699SOL    HW120996   2.074   3.236   5.182 -1.9313  2.5124  0.9573
 6699SOL    HW220997   2.083   3.105   5.279 -0.9624 -0.5528 -3.0034
 6700SOL     OW20998   5.495   5.705   0.439  0.2357 -0.2905 -0.3555
 6700SOL    HW120999   5.578   5.699   0.494  0.8477 -0.1460 -1.2471
 6700SOL    HW221000   5.419   5.663   0.489  0.3992  1.2432  1.2821
 6701SOL     OW21001   0.002   3.982   1.035  0.0871  0.0289  0.2535
 6701SOL    HW121002   0.072   4.053   1.037 -0.7554  1.0489 -2.3583
 6701SOL    HW221003  -0.088   4.024   1.028 -0.3941 -1.1923 -1.9960
 6702SOL     OW21004   4.343   1.717   1.076  0.9053  0.7308 -0.6829
 6702SOL    HW121005   4.316   1.813   1.086 -0.0568  0.2361  3.5416
 6702SOL    HW221006   4.291   1.676   1.001 -3.3546  2.1717  1.1328
 6703SOL     OW21007   5.907   5.739   1.662 -0.5624 -0.1129 -0.3803
 6703SOL    HW121008   5.876   5.790   1.582 -0.9295 -0.1177 -0.2434
 6703SOL    HW221009   5.942   5.803   1.730  0.2875 -0.1513 -0.7726
 6704SOL     OW21010   1.492   4.802   6.996  0.0795 -0.0104  0.1527
 6704SOL    HW121011   1.407   4.787   6.946  1.7037 -0.4377 -2.6750
 6704SOL    HW221012   1.473   4.853   7.080 -2.8774  0.1966 -0.5475
 6705SOL     OW21013   2.029   2.975   3.048 -0.7351 -0.5753  0.6553
 6705SOL    HW121014   2.042   3.015   3.138  0.7516 -2.2784  1.2639
 6705SOL    HW221015   2.067   2.882   3.047 -1.8197 -1.0574 -1.3761
 6706SOL     OW21016   1.804   5.033   0.626  0.9906 -0.7705 -0.2757
 6706SOL    HW121017   1.725   5.082   0.588  1.2921 -0.1762 -0.1583
 6706SOL    HW221018   1.877   5.031   0.558  1.5196  0.2654  0.2322
 6707SOL     OW21019   6.748   0.625   1.519  0.3216 -0.2853  0.1990
 6707SOL    HW121020   6.799   0.542   1.543  1.1771 -0.8419 -3.0908
 6707SOL    HW221021   6.650   0.609   1.533  0.4116 -2.1667 -0.9516
 6708SOL     OW21022   6.745   2.210   0.929  0.0746  0.4358  0.0789
 6708SOL    HW121023   6.736   2.211   1.029  1.5523  0.5006  0.2318
 6708SOL    HW221024   6.732   2.116   0.896 -3.5616  0.8527 -0.0501
 6709SOL     OW21025   2.256   4.416   2.734 -0.2511  0.3676  0.1030
 6709SOL    HW121026   2.293   4.342   2.677 -1.0617  0.0832 -0.0595
 6709SOL    HW221027   2.287   4.403   2.828  1.6272  1.1892 -0.3457
 6710SOL     OW21028   4.455   1.634   2.781  0.0650 -0.1465  0.1973
 6710SOL    HW121029   4.529   1.621   2.846 -0.2088  0.5467  0.6529
 6710SOL    HW221030   4.458   1.727   2.744 -0.7914  0.0122  0.5022
 6711SOL     OW21031   3.541   3.446   6.795  0.0164 -0.1443  0.6561
 6711SOL    HW121032   3.594   3.466   6.713 -0.9943  2.0688  0.4833
 6711SOL    HW221033   3.539   3.527   6.854 -2.7580 -0.2715  0.8701
 6712SOL     OW21034   5.081   3.252   1.733  0.3388 -0.0588  0.3143
 6712SOL    HW121035   5.153   3.315   1.764  0.0980  1.0244 -1.1844
 6712SOL    HW221036   4.992   3.283   1.768  0.4394 -0.6168  1.0629
 6713SOL     OW21037   1.701   3.813   3.416  0.3431 -0.0445 -0.3437
 6713SOL    HW121038   1.768   3.860   3.359  0.4487 -0.0336 -0.2102
 6713SOL    HW221039   1.742   3.790   3.504 -0.1955  1.0980  0.2335
 6714SOL     OW21040   6.750   1.506   2.336  0.8768  0.2609  0.5838
 6714SOL    HW121041   6.826   1.544   2.283  1.8595 -0.2063  1.6225
 6714SOL    HW221042   6.722   1.419   2.295  2.0489 -0.4106  1.1420
 6715SOL     OW21043   6.855   1.153   5.063 -0.3919 -0.4024  0.1215
 6715SOL    HW121044   6.927   1.170   4.995 -0.1940 -3.1400 -0.4342
 6715SOL    HW221045   6.812   1.065   5.045 -1.5745 -0.3790  2.5064
 6716SOL     OW21046   1.790   4.847   1.957  0.2435  0.1093  0.4441
 6716SOL    HW121047   1.763   4.943   1.965 -3.7471 -0.9399  2.2688
 6716SOL    HW221048   1.856   4.825   2.029 -1.4660  0.7837  2.3055
 6717SOL     OW21049   6.353   0.849   6.026 -1.2117  0.2068 -0.2829
 6717SOL    HW121050   6.450   0.830   6.012 -0.9389  2.3133 -1.5748
 6717SOL    HW221051   6.316   0.784   6.093  1.2726 -0.1153  0.8895
 6718SOL     OW21052   3.935   2.463   6.867  0.7330  0.4186 -0.1409
 6718SOL    HW121053   4.015   2.403   6.862  0.2550 -0.5080  1.9552
 6718SOL    HW221054   3.952   2.535   6.934  0.8779  2.0255 -1.8380
 6719SOL     OW21055   0.678   0.511   2.650 -0.8519  0.0225 -0.0249
 6719SOL    HW121056   0.716   0.524   2.558 -1.7401  1.1861 -0.2433
 6719SOL    HW221057   0.603   0.445   2.646 -0.5713 -0.2997 -0.0422
 6720SOL     OW21058   0.386   2.577   4.314 -0.3924  0.0762  0.3022
 6720SOL    HW121059   0.457   2.531   4.367  1.5940  1.1761 -1.2870
 6720SOL    HW221060   0.369   2.526   4.230 -0.9792  0.2119  0.3336
 6721SOL     OW21061   6.952   5.969   6.898  0.1469 -0.0312 -0.4738
 6721SOL    HW121062   6.959   6.050   6.840 -1.9573 -0.3871 -1.3351
 6721SOL    HW221063   7.039   5.954   6.945 -0.0315  4.0857  1.6293
 6722SOL     OW21064   0.117   4.620   2.554  0.0366  0.4266  0.3552
 6722SOL    HW121065   0.130   4.535   2.604  0.3068 -0.4610 -1.1822
 6722SOL    HW221066   0.101   4.695   2.619 -0.8915 -0.8962  1.7018
 6723SOL     OW21067   1.773   3.415   5.011 -0.1960  0.3911 -0.0963
 6723SOL    HW121068   1.728   3.361   5.083 -0.2356 -0.8663 -1.0301
 6723SOL    HW221069   1.767   3.512   5.034 -3.7274  0.3737 -0.2817
 6724SOL     OW21070   1.932   3.742   5.282 -0.1038  0.3600 -0.2861
 6724SOL    HW121071   2.014   3.700   5.242  0.0458 -0.1403  0.5277
 6724SOL    HW221072   1.957   3.792   5.364 -0.8132 -1.0548  0.8262
 6725SOL     OW21073   5.258   2.429   3.480  0.1830 -0.5486 -0.4070
 6725SOL    HW121074   5.221   2.337   3.482  0.7540 -0.8198 -1.4558
 6725SOL    HW221075   5.186   2.495   3.500 -0.2909 -1.2051  0.0675
 6726SOL     OW21076   0.063   0.193   1.051 -0.6658 -0.2148 -0.3974
 6726SOL    HW121077   0.127   0.206   0.976  0.3291 -1.5135  0.1849
 6726SOL    HW221078  -0.030   0.187   1.016 -0.4824  1.5405 -1.2763
 6727SOL     OW21079   1.532   5.961   6.743 -0.1394  0.0999  0.2038
 6727SOL    HW121080   1.609   6.015   6.708 -0.3794  0.8182  0.7527
 6727SOL    HW221081   1.544   5.946   6.841  0.2185 -1.3742 -0.0534
 6728SOL     OW21082   3.426   0.711   5.123  0.6814  0.1427 -0.3375
 6728SOL    HW121083   3.434   0.810   5.122 -0.4594  0.2461 -0.7100
 6728SOL    HW221084   3.447   0.674   5.033  0.7591  0.0739 -0.2921
 6729SOL     OW21085   5.161   2.034   2.255  0.3195  0.7016 -0.1852
 6729SOL    HW121086   5.110   1.986   2.184  0.1048  2.1765 -1.0910
 6729SOL    HW221087   5.185   2.126   2.222 -0.3171  1.6685  1.8621
 6730SOL     OW21088   0.749   0.975   1.799 -1.2882 -0.4844 -0.7219
 6730SOL    HW121089   0.780   0.881   1.786 -0.6985 -0.6137  1.3259
 6730SOL    HW221090   0.689   0.980   1.879 -1.3117  0.8883 -0.7964
 6731SOL     OW21091   3.438   6.516   0.290  0.1802  0.6888  0.2086
 6731SOL    HW121092   3.489   6.570   0.357  0.4732 -1.3814  1.7674
 6731SOL    HW221093   3.385   6.446   0.338 -2.1383  1.1230 -1.5497
 6732SOL     OW21094   6.137   5.399   4.322 -0.1659 -0.2822  0.3509
 6732SOL    HW121095   6.233   5.422   4.304 -0.3499  0.0284 -0.2782
 6732SOL    HW221096   6.131   5.305   4.354  0.0871 -1.5163 -2.8487
 6733SOL     OW21097   6.348   4.309   0.269 -0.0633 -0.0752  0.0531
 6733SOL    HW121098   6.296   4.252   0.204  0.6944  0.9974 -1.5698
 6733SOL    HW221099   6.296   4.392   0.289  0.2988  0.2477 -0.3123
 6734SOL     OW21100   6.437   0.231   5.444 -0.0096 -0.2201  0.1087
 6734SOL    HW121101   6.413   0.224   5.541  1.8226  2.4706  0.8612
 6734SOL    HW221102   6.524   0.184   5.428 -0.6597 -1.2777 -0.4302
 6735SOL     OW21103   4.005   3.290   6.099 -0.1958 -0.0079 -0.0943
 6735SOL    HW121104   3.952   3.277   6.183 -0.7115 -0.7538 -0.5178
 6735SOL    HW221105   3.978   3.376   6.055 -1.4727 -0.6311 -0.5778
 6736SOL     OW21106   4.798   2.341   1.489  0.9428  0.3093 -0.3162
 6736SOL    HW121107   4.793   2.346   1.389  1.0460  0.3052 -0.3210
 6736SOL    HW221108   4.774   2.248   1.518 -1.3666  0.8839 -0.1998
 6737SOL     OW21109   5.795   6.770   3.017 -0.0591 -0.2471  0.0375
 6737SOL    HW121110   5.859   6.808   3.084 -0.3716  0.8804 -0.2840
 6737SOL    HW221111   5.802   6.820   2.931  1.6023 -2.7730 -1.4281
 6738SOL     OW21112   3.193   0.235   2.118  0.2081  0.4528 -0.1107
 6738SOL    HW121113   3.228   0.289   2.041 -0.3163 -0.4808 -1.0310
 6738SOL    HW221114   3.137   0.160   2.083  1.6263 -1.2311  1.0586
 6739SOL     OW21115   0.387   0.497   6.613  0.5686  0.4599 -0.0919
 6739SOL    HW121116   0.348   0.409   6.584  0.6626  0.5134 -0.3814
 6739SOL    HW221117   0.410   0.551   6.533  0.6827  0.6758  0.0863
 6740SOL     OW21118   1.788   6.530   4.132 -0.5653  0.8960 -0.0282
 6740SOL    HW121119   1.876   6.483   4.126 -2.3705 -2.6494 -3.2695
 6740SOL    HW221120   1.800   6.625   4.103  2.2086  0.6141 -0.1037
 6741SOL     OW21121   2.209   1.783   0.877  0.5934  0.0246  0.3824
 6741SOL    HW121122   2.193   1.858   0.813  0.5179  1.3386  1.8745
 6741SOL    HW221123   2.258   1.818   0.957  3.2338 -2.1153 -0.1617
 6742SOL     OW21124   4.230   4.668   3.294  0.0923  0.3377  0.1540
 6742SOL    HW121125   4.179   4.718   3.225  0.3016 -0.1382 -0.3565
 6742SOL    HW221126   4.326   4.658   3.265  0.4438  1.0756  1.0198
 6743SOL     OW21127   4.091   3.938   0.333  0.2492  0.6997 -0.1450
 6743SOL    HW121128   4.104   3.942   0.432 -0.8475 -0.6872  0.0932
 6743SOL    HW221129   4.021   3.869   0.312 -0.0194  1.4488 -1.8424
 6744SOL     OW21130   0.300   5.963   5.815  0.0492  0.1748  0.1589
 6744SOL    HW121131   0.286   5.954   5.717 -1.1256  0.2146  0.3156
 6744SOL    HW221132   0.222   5.924   5.864 -1.1164  3.2647  1.0028
 6745SOL     OW21133   0.202   3.581   3.680  0.5580  0.1179 -0.2088
 6745SOL    HW121134   0.116   3.606   3.635  0.5133 -0.3632 -0.3918
 6745SOL    HW221135   0.261   3.533   3.616  0.3490 -0.8820  0.3309
 6746SOL     OW21136   1.122   0.445   2.085 -0.3121 -0.2313 -0.1472
 6746SOL    HW121137   1.066   0.494   2.017  0.1921  0.3046 -0.1822
 6746SOL    HW221138   1.063   0.414   2.160 -0.9030 -0.9549 -0.8886
 6747SOL     OW21139   0.308   6.494   5.209  0.4633  0.3346 -0.0437
 6747SOL    HW121140   0.268   6.583   5.193  0.1850 -0.1532 -2.3952
 6747SOL    HW221141   0.392   6.504   5.263  0.3914  1.9909 -0.2054
 6748SOL     OW21142   1.250   3.441   1.436 -0.4646  0.0393 -0.5027
 6748SOL    HW121143   1.203   3.398   1.359 -0.3972 -0.4779 -0.2588
 6748SOL    HW221144   1.347   3.414   1.435 -0.7275 -1.0297  0.4992
 6749SOL     OW21145   2.644   5.750   0.923 -0.5716  0.2542  0.1371
 6749SOL    HW121146   2.643   5.681   0.851  0.7289 -0.4042  0.7104
 6749SOL    HW221147   2.552   5.787   0.936 -1.2345 -1.1469 -0.4048
 6750SOL     OW21148   1.833   6.758   1.010 -0.0509 -0.2908 -0.3029
 6750SOL    HW121149   1.816   6.795   1.101  1.2517  0.3657 -0.3012
 6750SOL    HW221150   1.769   6.799   0.945  2.1607  3.1656 -0.5679
 6751SOL     OW21151   4.552   3.150   6.551 -0.6097  0.1949 -0.3379
 6751SOL    HW121152   4.460   3.155   6.591 -0.7091 -0.8499 -0.4209
 6751SOL    HW221153   4.616   3.199   6.610 -1.0874  0.2762  0.1240
 6752SOL     OW21154   2.793   4.771   2.230 -0.3043  0.1128 -0.2745
 6752SOL    HW121155   2.732   4.838   2.188 -0.6465 -0.1804 -0.2608
 6752SOL    HW221156   2.796   4.689   2.173 -1.2374 -0.5233  0.5509
 6753SOL     OW21157   2.718   3.946   6.873  0.8537 -0.4700 -0.2834
 6753SOL    HW121158   2.773   4.007   6.816  1.5275 -1.0986 -0.3312
 6753SOL    HW221159   2.639   3.995   6.909  1.6759  0.5883  0.1250
 6754SOL     OW21160   4.390   6.876   6.346 -0.4751 -0.0754 -0.3611
 6754SOL    HW121161   4.408   6.777   6.348  0.5530  0.0879 -0.9305
 6754SOL    HW221162   4.347   6.899   6.259  0.6161  0.1814 -0.8465
 6755SOL     OW21163   2.644   5.103   3.994 -0.2188 -0.0971 -0.4140
 6755SOL    HW121164   2.562   5.119   3.939 -0.9047  2.0598  1.1260
 6755SOL    HW221165   2.702   5.184   3.992  1.1715 -1.0486 -0.2538
 6756SOL     OW21166   3.655   0.906   6.278  0.4221  0.2846  0.0473
 6756SOL    HW121167   3.691   0.859   6.197 -0.7502  0.6750 -0.7205
 6756SOL    HW221168   3.684   0.857   6.361  3.5786  1.1446 -0.4227
 6757SOL     OW21169   2.170   5.095   6.472 -0.2911  0.7417  0.3851
 6757SOL    HW121170   2.263   5.131   6.474 -0.2332  0.5637  1.1936
 6757SOL    HW221171   2.109   5.163   6.433  0.1673  0.8811 -0.1029
 6758SOL     OW21172   4.066   0.484   4.030 -0.0156 -0.0780 -0.3113
 6758SOL    HW121173   4.107   0.566   3.990  1.5748 -0.2050  0.9518
 6758SOL    HW221174   4.014   0.435   3.960  1.0272  0.7304 -1.6960
 6759SOL     OW21175   0.823   3.723   1.653  0.0385  0.0371 -0.3196
 6759SOL    HW121176   0.742   3.763   1.694  1.5354  0.4283  2.5166
 6759SOL    HW221177   0.904   3.748   1.707  1.6675 -2.8616 -1.1840
 6760SOL     OW21178   4.971   1.102   5.066  0.1415 -0.0438 -0.4793
 6760SOL    HW121179   4.917   1.066   5.141  1.3323 -0.8433  0.0232
 6760SOL    HW221180   4.926   1.083   4.979 -0.7672  0.0370 -0.0319
 6761SOL     OW21181   1.971   0.441   5.605 -0.1780 -0.5204  0.1635
 6761SOL    HW121182   2.060   0.395   5.614  0.3849  0.8034  1.8979
 6761SOL    HW221183   1.943   0.441   5.509  2.0487 -0.3454 -0.5415
 6762SOL     OW21184   6.315   5.783   6.402  0.3207  0.2126 -0.1019
 6762SOL    HW121185   6.246   5.711   6.409 -1.2215  1.3854 -2.1279
 6762SOL    HW221186   6.295   5.856   6.468 -1.3721  1.2366 -1.6313
 6763SOL     OW21187   4.559   5.200   5.352  0.2911 -0.4061 -0.0332
 6763SOL    HW121188   4.603   5.210   5.441 -0.9367 -0.2871  0.5836
 6763SOL    HW221189   4.521   5.107   5.344  0.6811 -0.5277 -0.5819
 6764SOL     OW21190   1.588   6.904   1.446 -0.0660 -0.2886 -0.5538
 6764SOL    HW121191   1.493   6.875   1.454  0.0966 -0.9551 -0.9837
 6764SOL    HW221192   1.625   6.919   1.538 -0.3984 -0.6490 -0.3558
 6765SOL     OW21193   1.307   2.776   3.191  0.2597 -0.5923 -0.0169
 6765SOL    HW121194   1.232   2.765   3.255  0.9898 -0.1806  0.9394
 6765SOL    HW221195   1.367   2.850   3.223 -0.3081  0.8445 -2.0908
 6766SOL     OW21196   6.240   6.162   2.545  0.3180  0.4446  0.2277
 6766SOL    HW121197   6.295   6.184   2.464 -0.2441  1.0692  0.0109
 6766SOL    HW221198   6.143   6.177   2.525  0.0849 -0.3366  0.7089
 6767SOL     OW21199   3.496   6.967   0.815 -0.6959  0.3497  0.0868
 6767SOL    HW121200   3.406   6.981   0.857  0.8774  0.6118  3.8098
 6767SOL    HW221201   3.535   7.055   0.791  0.4930  0.8296  3.2911
 6768SOL     OW21202   3.452   0.445   0.317  0.0180 -0.4901 -0.1753
 6768SOL    HW121203   3.454   0.527   0.374 -2.0145 -2.1181  2.5379
 6768SOL    HW221204   3.411   0.466   0.229  1.1830  1.7040 -0.2514
 6769SOL     OW21205   6.949   2.614   0.166  0.0108 -0.4122  0.5502
 6769SOL    HW121206   7.000   2.691   0.205  2.5152 -0.7206 -1.7804
 6769SOL    HW221207   6.853   2.640   0.154  0.8918  2.6956 -0.8188
 6770SOL     OW21208   0.430   6.346   2.064 -0.0026  0.4550  0.1825
 6770SOL    HW121209   0.385   6.405   1.997 -0.0502 -2.1924 -2.2923
 6770SOL    HW221210   0.378   6.261   2.074  2.7155 -1.4004 -0.4283
 6771SOL     OW21211   3.898   1.127   5.161 -0.6795  0.2924  0.4735
 6771SOL    HW121212   3.912   1.224   5.181 -0.6343  0.6911 -1.2969
 6771SOL    HW221213   3.979   1.090   5.115 -1.1015 -0.2998  0.1881
 6772SOL     OW21214   3.512   1.820   4.903  0.2471  0.3163 -0.9277
 6772SOL    HW121215   3.427   1.834   4.850 -2.2941 -0.5200  2.5857
 6772SOL    HW221216   3.558   1.908   4.914  0.3499  0.6757 -3.5354
 6773SOL     OW21217   0.928   4.909   2.242  0.2395  0.4074  0.1911
 6773SOL    HW121218   0.841   4.932   2.198 -0.1986  0.3262  0.9923
 6773SOL    HW221219   0.997   4.977   2.217 -0.0163  0.4001 -0.5561
 6774SOL     OW21220   2.234   4.056   6.860 -0.1818 -0.1773 -0.1089
 6774SOL    HW121221   2.146   4.009   6.865 -0.9909  1.4160  2.0309
 6774SOL    HW221222   2.302   4.005   6.912 -0.4023 -0.2917  0.0673
 6775SOL     OW21223   0.272   3.574   1.719  0.0995  0.3951 -0.5033
 6775SOL    HW121224   0.222   3.503   1.768  0.6205  0.4443  0.1166
 6775SOL    HW221225   0.320   3.534   1.641  0.9436 -0.0624  0.2416
 6776SOL     OW21226   6.160   6.220   5.673 -0.3129  0.2334  1.0599
 6776SOL    HW121227   6.066   6.187   5.677 -0.0489 -0.5968  0.6942
 6776SOL    HW221228   6.211   6.184   5.751 -0.3167  0.7479  1.3015
 6777SOL     OW21229   4.424   4.046   0.516 -0.4286 -0.0460 -0.4205
 6777SOL    HW121230   4.503   4.077   0.465  0.0917  0.2556  0.5432
 6777SOL    HW221231   4.431   3.947   0.532  0.6782  0.2388  1.1591
 6778SOL     OW21232   5.143   5.211   2.929  0.0579  0.2036  0.1839
 6778SOL    HW121233   5.061   5.170   2.971 -0.2535  0.4386 -0.1879
 6778SOL    HW221234   5.128   5.220   2.831 -0.2909  2.1323  0.3857
 6779SOL     OW21235   5.643   3.231   0.637 -0.0741  0.3449 -0.3512
 6779SOL    HW121236   5.666   3.305   0.574 -0.5599 -0.5500 -1.6152
 6779SOL    HW221237   5.546   3.236   0.660 -0.1722 -0.0586 -0.6657
 6780SOL     OW21238   2.078   2.418   1.784 -0.2352  0.0765 -0.0352
 6780SOL    HW121239   2.164   2.444   1.827  0.3402  0.6712 -1.4763
 6780SOL    HW221240   2.095   2.346   1.717 -0.7985  0.4828 -0.6250
 6781SOL     OW21241   6.839   4.900   6.915  0.4263 -0.1465  0.7202
 6781SOL    HW121242   6.760   4.929   6.968  0.9472  0.0072  1.4292
 6781SOL    HW221243   6.861   4.969   6.846  0.4612  0.2211  1.0935
 6782SOL     OW21244   6.110   2.065   3.109 -0.1238 -0.0253  0.4205
 6782SOL    HW121245   6.021   2.027   3.083  0.1268 -0.8849  0.7955
 6782SOL    HW221246   6.183   2.012   3.067  0.2309  1.3518 -0.8081
 6783SOL     OW21247   2.989   6.679   0.846 -0.5858  0.2482  0.1261
 6783SOL    HW121248   2.971   6.743   0.771  0.4243  1.1408  0.6140
 6783SOL    HW221249   3.086   6.684   0.871 -0.8637 -0.1726  1.3602
 6784SOL     OW21250   3.208   1.137   0.364  0.3022 -0.4948  0.5332
 6784SOL    HW121251   3.219   1.072   0.290  2.2155  0.1193  0.2234
 6784SOL    HW221252   3.123   1.118   0.413  0.2440 -2.4798 -0.2470
 6785SOL     OW21253   6.169   6.881   1.269 -0.2568 -0.4218  0.1789
 6785SOL    HW121254   6.194   6.785   1.252 -1.8812 -0.9986  0.8540
 6785SOL    HW221255   6.099   6.909   1.203  0.0723  0.2514  0.1070
 6786SOL     OW21256   2.083   2.950   5.071 -0.0045 -0.2236 -0.0115
 6786SOL    HW121257   2.057   3.043   5.043 -2.1360 -1.0587 -0.9597
 6786SOL    HW221258   2.180   2.936   5.052  0.5431  1.9942  0.7444
 6787SOL     OW21259   1.465   3.946   3.207  0.0346  0.2285 -0.5356
 6787SOL    HW121260   1.545   3.932   3.148  1.6534  3.5364  0.6643
 6787SOL    HW221261   1.460   3.873   3.275  1.8280 -0.2238 -0.8562
 6788SOL     OW21262   2.521   4.134   6.968 -0.1830 -0.6594  0.0497
 6788SOL    HW121263   2.562   4.204   7.027 -0.9518 -0.2161  0.0743
 6788SOL    HW221264   2.522   4.167   6.873 -2.3514  0.2859  0.3093
 6789SOL     OW21265   0.872   5.066   3.148  1.1070  0.5541  0.0491
 6789SOL    HW121266   0.785   5.115   3.150  0.9210  0.2695 -0.8034
 6789SOL    HW221267   0.881   5.012   3.233  0.7530  1.0808  0.4279
 6790SOL     OW21268   1.111   1.867   1.881 -0.1234  0.5817 -0.6755
 6790SOL    HW121269   1.180   1.852   1.951  0.4870 -2.1794 -1.7241
 6790SOL    HW221270   1.040   1.928   1.916  1.1790  0.9097  1.5662
 6791SOL     OW21271   2.905   3.454   3.703 -0.3100 -0.3834  0.0470
 6791SOL    HW121272   2.950   3.542   3.691 -0.4524 -0.4982 -1.5614
 6791SOL    HW221273   2.806   3.465   3.699 -0.3171 -0.7411 -1.4647
 6792SOL     OW21274   1.909   5.153   1.334  0.7362 -0.2644 -0.1847
 6792SOL    HW121275   1.828   5.109   1.296 -0.4182  1.3716  0.2509
 6792SOL    HW221276   1.932   5.112   1.422  0.2931 -0.6526 -0.2503
 6793SOL     OW21277   5.720   1.192   2.089 -0.6214 -0.4506  0.3600
 6793SOL    HW121278   5.805   1.150   2.056 -0.5303 -0.6331  0.8053
 6793SOL    HW221279   5.689   1.142   2.170 -1.1836 -0.4164  0.1677
 6794SOL     OW21280   2.647   6.666   6.284 -0.4254  0.2056  0.4150
 6794SOL    HW121281   2.668   6.751   6.333  0.7918 -0.6692  1.5005
 6794SOL    HW221282   2.722   6.644   6.222 -1.2319  0.4567 -0.6845
 6795SOL     OW21283   2.543   5.873   6.965  0.3604  0.7590 -0.1164
 6795SOL    HW121284   2.499   5.799   7.016 -0.3211 -0.2444 -2.0685
 6795SOL    HW221285   2.548   5.954   7.023 -0.7370 -0.1943  1.4016
 6796SOL     OW21286   2.135   3.361   4.276 -0.1907 -0.3932  0.5188
 6796SOL    HW121287   2.101   3.298   4.205 -0.0107  0.6985 -0.5772
 6796SOL    HW221288   2.151   3.310   4.360 -1.8380 -1.4752  0.2412
 6797SOL     OW21289   6.658   1.490   2.894  0.2141  0.2997  0.1742
 6797SOL    HW121290   6.653   1.568   2.956  1.7977 -0.5526  1.4468
 6797SOL    HW221291   6.719   1.513   2.818  0.1491  0.5424  0.1939
 6798SOL     OW21292   6.217   6.587   1.311 -0.1927  0.1283 -0.1551
 6798SOL    HW121293   6.277   6.549   1.241  1.7687  0.4320  1.2809
 6798SOL    HW221294   6.261   6.580   1.400 -1.7498  1.5979  0.7888
 6799SOL     OW21295   6.453   6.268   1.759  0.1389  0.6230  0.3080
 6799SOL    HW121296   6.539   6.229   1.792 -0.8608  0.4090  2.9174
 6799SOL    HW221297   6.388   6.194   1.740  0.1662  0.8234 -0.5966
 6800SOL     OW21298   3.513   3.933   5.875 -1.4596 -0.1302  0.3601
 6800SOL    HW121299   3.468   3.861   5.823 -0.6157 -0.6634  0.3549
 6800SOL    HW221300   3.514   4.017   5.820 -0.3152 -0.7574 -0.6512
 6801SOL     OW21301   2.166   2.703   3.903  0.4592 -0.4017 -0.2633
 6801SOL    HW121302   2.087   2.750   3.865  1.1822  1.4072  0.3785
 6801SOL    HW221303   2.172   2.611   3.863 -1.4552 -0.2812 -0.9447
 6802SOL     OW21304   1.481   5.914   4.873 -0.2908  0.6211 -0.4806
 6802SOL    HW121305   1.493   5.981   4.799 -0.8573 -1.5825 -2.7344
 6802SOL    HW221306   1.384   5.907   4.895 -0.3908 -0.3559 -1.1924
 6803SOL     OW21307   3.598   1.854   0.965 -0.0361  0.2774 -0.0632
 6803SOL    HW121308   3.562   1.918   1.033 -0.0228 -1.1186  1.2864
 6803SOL    HW221309   3.528   1.786   0.942  0.6155 -0.4336  0.0366
 6804SOL     OW21310   1.817   6.157   2.976  0.2677  0.4477 -1.1364
 6804SOL    HW121311   1.786   6.184   3.067 -2.3799 -0.1550 -1.7681
 6804SOL    HW221312   1.771   6.214   2.907 -0.3185 -1.2506 -2.1991
 6805SOL     OW21313   0.561   1.839   6.595  0.2521  0.4270 -1.3967
 6805SOL    HW121314   0.491   1.775   6.563 -0.9608 -0.3299  2.2765
 6805SOL    HW221315   0.645   1.790   6.616 -0.7380 -0.1941  1.6017
 6806SOL     OW21316   5.760   4.184   5.440  0.2772  0.2874  0.2640
 6806SOL    HW121317   5.791   4.232   5.357  1.3409  1.5648  1.3578
 6806SOL    HW221318   5.755   4.248   5.516 -1.2621 -0.7405  1.0939
 6807SOL     OW21319   3.957   2.562   6.253 -0.2054 -0.1718  0.1237
 6807SOL    HW121320   3.991   2.489   6.194  0.1529  0.0233  0.0831
 6807SOL    HW221321   3.994   2.650   6.223 -0.6134  0.0261  0.1871
 6808SOL     OW21322   1.580   5.887   2.871  0.7496  1.1813 -0.9165
 6808SOL    HW121323   1.604   5.800   2.913 -1.7485  0.8190 -0.0292
 6808SOL    HW221324   1.663   5.937   2.848  2.2524 -1.1242 -0.8542
 6809SOL     OW21325   1.738   1.860   5.916  0.2557  0.3550  0.2075
 6809SOL    HW121326   1.663   1.896   5.860  1.5661  1.4691 -0.9212
 6809SOL    HW221327   1.817   1.922   5.909  0.7328  0.1414  2.7281
 6810SOL     OW21328   4.518   2.451   4.139 -0.2370 -0.0334  0.1952
 6810SOL    HW121329   4.575   2.463   4.220 -1.1935  1.3198  0.7026
 6810SOL    HW221330   4.517   2.535   4.086  1.0951 -1.1668 -1.7560
 6811SOL     OW21331   5.918   5.771   1.144 -0.0728  0.5738  0.2773
 6811SOL    HW121332   5.998   5.786   1.201 -0.1670  1.0577  0.2936
 6811SOL    HW221333   5.880   5.680   1.161  0.7131  0.1842 -0.0391
 6812SOL     OW21334   3.216   3.262   2.158 -0.0691 -0.0327 -0.0254
 6812SOL    HW121335   3.209   3.167   2.187 -1.4101  0.0025 -0.1741
 6812SOL    HW221336   3.135   3.287   2.106  0.5069  1.0493 -0.4420
 6813SOL     OW21337   5.067   4.057   1.754 -0.2193  0.2442 -0.7709
 6813SOL    HW121338   5.041   3.970   1.712 -0.6253 -0.0316  0.0261
 6813SOL    HW221339   5.166   4.071   1.743 -0.2056 -0.1608 -1.1798
 6814SOL     OW21340   1.095   3.819   5.828  0.0604 -0.0558  0.7526
 6814SOL    HW121341   1.049   3.801   5.741  1.6664  0.7020 -0.3000
 6814SOL    HW221342   1.032   3.867   5.890 -0.7755  0.3491 -0.3815
 6815SOL     OW21343   1.170   6.674   6.150 -0.0582  0.3231 -0.3445
 6815SOL    HW121344   1.095   6.615   6.180 -0.9695  1.2100 -0.8093
 6815SOL    HW221345   1.133   6.761   6.119  1.3227  1.4853  1.1322
 6816SOL     OW21346   3.919   4.947   1.857  0.0530  0.1331 -0.0641
 6816SOL    HW121347   3.939   4.898   1.942 -0.7702 -1.4794 -0.7656
 6816SOL    HW221348   3.828   4.988   1.863 -0.0844 -0.1412 -0.2152
 6817SOL     OW21349   1.446   1.594   5.662 -0.2040 -0.5780  0.3029
 6817SOL    HW121350   1.522   1.629   5.607 -0.4681 -1.3955 -0.6219
 6817SOL    HW221351   1.449   1.635   5.753  0.3021  0.7453 -0.2849
 6818SOL     OW21352   3.695   0.178   0.214 -0.4023  0.3042 -0.2950
 6818SOL    HW121353   3.724   0.186   0.309 -0.1902 -1.7094 -0.1626
 6818SOL    HW221354   3.649   0.091   0.200  1.4688 -0.4094 -2.5128
 6819SOL     OW21355   2.952   1.174   2.735 -0.1659 -0.1414 -0.3393
 6819SOL    HW121356   2.997   1.212   2.654  0.6868  1.3102  0.7719
 6819SOL    HW221357   2.995   1.211   2.817 -1.8492 -0.5903  0.7880
 6820SOL     OW21358   1.377   4.091   4.555 -0.1000 -0.3563 -0.0120
 6820SOL    HW121359   1.350   4.176   4.509 -1.9674  0.7386  2.8050
 6820SOL    HW221360   1.298   4.029   4.558  0.5825 -1.2409 -0.0389
 6821SOL     OW21361   1.659   3.063   2.707  0.2676  0.3191  0.1921
 6821SOL    HW121362   1.728   3.097   2.644  1.5685 -1.8458  0.3389
 6821SOL    HW221363   1.703   3.013   2.781 -1.4207 -1.7346 -0.0742
 6822SOL     OW21364   4.415   0.290   6.263  0.0982  0.1519  0.1059
 6822SOL    HW121365   4.449   0.373   6.217  0.7279  0.3424  0.8937
 6822SOL    HW221366   4.398   0.311   6.359 -0.6172 -0.4042  0.1005
 6823SOL     OW21367   4.961   3.614   1.399  0.1193  0.3392 -0.0453
 6823SOL    HW121368   5.046   3.591   1.447 -0.0370 -0.0972  0.0217
 6823SOL    HW221369   4.942   3.712   1.412  0.4392  0.3702  0.2131
 6824SOL     OW21370   1.041   5.192   4.936  0.1588 -0.3879  0.0259
 6824SOL    HW121371   1.129   5.235   4.919  0.1115  0.6666  2.1048
 6824SOL    HW221372   1.049   5.093   4.926  1.3850 -0.2516 -0.4850
 6825SOL     OW21373   5.164   0.356   3.591  0.1279 -0.2081  0.0542
 6825SOL    HW121374   5.165   0.256   3.597 -0.1462 -0.1325  2.0639
 6825SOL    HW221375   5.070   0.389   3.596  0.1184  0.1547 -1.6669
 6826SOL     OW21376   1.032   1.957   3.121  0.4449 -0.5014  0.3843
 6826SOL    HW121377   1.084   1.904   3.188  1.3652  0.9677  0.8942
 6826SOL    HW221378   1.078   1.955   3.033 -0.8337 -2.5415 -0.3026
 6827SOL     OW21379   5.271   5.204   6.174 -0.2048  0.0097 -0.0799
 6827SOL    HW121380   5.275   5.301   6.194 -1.1165  0.2027 -0.7675
 6827SOL    HW221381   5.255   5.190   6.076 -2.6418 -0.7597  0.3590
 6828SOL     OW21382   2.117   3.462   6.130 -0.0098 -0.1787 -0.1767
 6828SOL    HW121383   2.158   3.550   6.157 -0.6508  0.4417 -1.1468
 6828SOL    HW221384   2.189   3.394   6.118  0.7810  0.8950 -1.8453
 6829SOL     OW21385   4.822   4.606   4.856  0.0989 -0.1596 -0.5728
 6829SOL    HW121386   4.838   4.525   4.799  0.2040 -0.5518  0.0075
 6829SOL    HW221387   4.724   4.620   4.868  0.0799 -0.1896 -0.6976
 6830SOL     OW21388   0.111   0.835   3.746 -0.1444 -0.7793  0.7941
 6830SOL    HW121389   0.116   0.909   3.678 -1.0454 -0.2506  1.2766
 6830SOL    HW221390   0.040   0.857   3.813 -2.3386 -3.2368 -0.4996
 6831SOL     OW21391   6.274   1.158   6.555 -0.5124  0.8143  0.2414
 6831SOL    HW121392   6.359   1.153   6.503  0.3278 -2.0129  1.7095
 6831SOL    HW221393   6.199   1.182   6.493  1.3088  3.9872 -0.9825
 6832SOL     OW21394   1.760   4.188   1.901  0.6354 -0.0438  0.4233
 6832SOL    HW121395   1.758   4.124   1.978 -0.3652 -0.1615  0.3074
 6832SOL    HW221396   1.733   4.140   1.817 -2.3448  0.9736  0.6879
 6833SOL     OW21397   4.257   4.881   6.507  0.1792 -0.7284 -0.0374
 6833SOL    HW121398   4.268   4.782   6.498  2.0593 -0.7081  1.4336
 6833SOL    HW221399   4.160   4.903   6.518 -0.2934 -2.3562 -0.5976
 6834SOL     OW21400   2.151   5.048   2.268  0.3848 -0.0414 -0.8093
 6834SOL    HW121401   2.180   4.963   2.311 -0.4315 -0.6808 -1.5083
 6834SOL    HW221402   2.101   5.104   2.334 -1.9356 -1.5463 -1.1999
 6835SOL     OW21403   5.782   0.681   4.077 -0.0149  0.2165 -0.5543
 6835SOL    HW121404   5.715   0.736   4.126 -0.9908  0.6743 -2.3237
 6835SOL    HW221405   5.838   0.631   4.142 -0.8976  1.2083  1.0170
 6836SOL     OW21406   2.548   6.469   0.700 -0.3360  0.1275  0.6013
 6836SOL    HW121407   2.460   6.474   0.748 -0.0669  0.3504  1.0761
 6836SOL    HW221408   2.622   6.492   0.763 -0.0515  1.4082 -0.1621
 6837SOL     OW21409   1.498   3.342   1.412 -0.0340  0.3502 -0.6360
 6837SOL    HW121410   1.515   3.323   1.509 -0.4956  0.6744 -0.4867
 6837SOL    HW221411   1.520   3.261   1.358 -1.3018 -0.3937 -0.0900
 6838SOL     OW21412   1.512   3.037   6.764 -0.4537  0.3635  0.2674
 6838SOL    HW121413   1.597   3.023   6.714 -0.8091 -1.0958  0.0141
 6838SOL    HW221414   1.435   3.035   6.700 -0.6931  1.5896  0.5035
 6839SOL     OW21415   4.389   1.480   2.345 -0.2026  0.0433  0.0256
 6839SOL    HW121416   4.429   1.442   2.428 -2.3200 -1.5555  0.4085
 6839SOL    HW221417   4.337   1.409   2.297 -0.4814  1.3672 -1.7553
 6840SOL     OW21418   7.000   0.322   5.494  0.0715  0.7699  0.5633
 6840SOL    HW121419   7.045   0.402   5.533  0.2698  0.1840  1.5822
 6840SOL    HW221420   7.052   0.289   5.415  0.0771  1.5394  0.2409
 6841SOL     OW21421   6.429   3.411   5.680  0.0675  0.0511 -0.3829
 6841SOL    HW121422   6.448   3.447   5.771 -0.1889 -0.1564 -0.2454
 6841SOL    HW221423   6.489   3.456   5.613  0.8213 -0.3817 -0.0085
 6842SOL     OW21424   3.444   5.799   1.859 -0.6263  0.2642  0.2263
 6842SOL    HW121425   3.356   5.826   1.819 -0.1843  0.4710 -0.6326
 6842SOL    HW221426   3.515   5.803   1.789 -0.0416 -0.5129  0.7574
 6843SOL     OW21427   4.034   5.589   2.837 -0.3048 -0.0947  0.8697
 6843SOL    HW121428   4.096   5.645   2.781  1.3920 -0.8687  1.8979
 6843SOL    HW221429   4.026   5.498   2.796  1.4447 -0.8712  2.1233
 6844SOL     OW21430   5.147   6.384   6.855 -0.3178 -0.5168 -0.3200
 6844SOL    HW121431   5.063   6.436   6.873  0.0378  1.5481 -3.6384
 6844SOL    HW221432   5.224   6.428   6.901 -0.6395 -0.7317  0.4371
 6845SOL     OW21433   5.617   1.354   4.730  0.3446 -0.3663 -0.0652
 6845SOL    HW121434   5.661   1.350   4.641 -2.5597 -0.0585 -1.6277
 6845SOL    HW221435   5.577   1.265   4.752 -0.4076 -0.0079  0.0801
 6846SOL     OW21436   0.805   2.873   1.055  0.7753 -0.2478  0.1654
 6846SOL    HW121437   0.835   2.954   1.005 -0.4149 -0.6504 -1.2719
 6846SOL    HW221438   0.794   2.796   0.992 -2.1518 -0.4097  0.7173
 6847SOL     OW21439   6.799   3.509   4.344  0.2952 -0.1759  0.2428
 6847SOL    HW121440   6.722   3.460   4.386  0.4165  0.5078  1.2993
 6847SOL    HW221441   6.847   3.447   4.282 -1.6039 -0.3618 -1.1094
 6848SOL     OW21442   6.955   5.107   4.460 -0.3806  0.0336  0.3371
 6848SOL    HW121443   6.899   5.185   4.486 -1.6288 -0.0340 -1.8577
 6848SOL    HW221444   6.896   5.033   4.426  0.8313 -1.5173  1.4574
 6849SOL     OW21445   2.952   4.447   5.444 -0.4286 -0.0292 -0.4199
 6849SOL    HW121446   2.879   4.388   5.478  0.3634 -1.4982 -1.2089
 6849SOL    HW221447   2.957   4.440   5.345  2.2064 -1.7244 -0.2516
 6850SOL     OW21448   4.508   0.211   4.737  0.1859 -0.2204 -0.7354
 6850SOL    HW121449   4.438   0.187   4.804  0.8354  1.9284  0.8100
 6850SOL    HW221450   4.597   0.217   4.783  0.4584  2.4604 -1.4567
 6851SOL     OW21451   2.596   4.561   4.273 -0.7470 -0.6429 -0.0813
 6851SOL    HW121452   2.624   4.623   4.347 -0.5036  0.1142 -0.7885
 6851SOL    HW221453   2.512   4.514   4.299 -1.0943  0.2048  0.3685
 6852SOL     OW21454   5.313   2.692   5.972 -0.1163 -0.1337 -0.4120
 6852SOL    HW121455   5.307   2.792   5.978  0.8895 -0.1204  0.7991
 6852SOL    HW221456   5.271   2.661   5.887 -0.8468  1.2802 -0.5926
 6853SOL     OW21457   6.233   4.832   6.693 -0.0494  0.4392  0.0075
 6853SOL    HW121458   6.244   4.766   6.768  0.6351  0.2262 -0.2787
 6853SOL    HW221459   6.299   4.813   6.621  0.9191  2.1135  0.4075
 6854SOL     OW21460   0.080   6.770   6.484  0.6083 -0.6667 -0.0062
 6854SOL    HW121461  -0.015   6.772   6.454 -0.0501 -0.1077  1.9886
 6854SOL    HW221462   0.124   6.686   6.451 -0.9319 -1.5397  0.0914
 6855SOL     OW21463   3.812   5.135   3.624  0.4406  0.0831  0.4497
 6855SOL    HW121464   3.765   5.209   3.577 -2.7762 -0.5543  2.3222
 6855SOL    HW221465   3.803   5.051   3.572 -0.5628 -0.0338  0.7994
 6856SOL     OW21466   6.314   2.341   1.362  0.3919 -0.5822  0.3564
 6856SOL    HW121467   6.338   2.418   1.303 -2.1382  1.1016  1.3585
 6856SOL    HW221468   6.239   2.289   1.320 -0.9588  0.2267  1.6553
 6857SOL     OW21469   1.446   5.283   5.172  0.9166  0.3209  0.3404
 6857SOL    HW121470   1.438   5.184   5.188  0.5200  0.3328  0.2227
 6857SOL    HW221471   1.487   5.326   5.252  3.4317 -0.2711 -0.5354
 6858SOL     OW21472   1.746   1.302   1.019 -0.4587  0.1246 -0.0988
 6858SOL    HW121473   1.727   1.235   0.947 -0.8990  0.7072 -0.5305
 6858SOL    HW221474   1.664   1.356   1.037 -0.1143  0.5376  0.2603
 6859SOL     OW21475   2.707   1.999   6.631 -0.3253 -0.6193  0.0900
 6859SOL    HW121476   2.806   1.987   6.639 -0.3021 -0.8009 -0.4692
 6859SOL    HW221477   2.679   2.081   6.682  0.1138 -0.5506  0.2196
 6860SOL     OW21478   1.257   6.926   5.658 -0.3735  0.8041  0.4302
 6860SOL    HW121479   1.307   6.933   5.744  0.0433  2.9016  0.0455
 6860SOL    HW221480   1.305   6.975   5.586 -0.7748 -0.8183 -1.0232
 6861SOL     OW21481   5.319   4.453   0.954 -0.3219 -0.1445 -0.0660
 6861SOL    HW121482   5.340   4.445   0.857  1.4135 -0.9269  0.3381
 6861SOL    HW221483   5.396   4.496   1.002 -1.6013  1.3009  0.8294
 6862SOL     OW21484   1.363   5.950   2.684 -0.5916 -0.1530 -0.4123
 6862SOL    HW121485   1.280   5.899   2.708 -0.5614 -0.4527 -0.9358
 6862SOL    HW221486   1.437   5.923   2.746 -0.3432 -1.3901 -1.2170
 6863SOL     OW21487   6.095   1.155   4.518  0.0508 -0.9351 -0.2236
 6863SOL    HW121488   6.164   1.147   4.447 -0.3430  0.4150 -0.7996
 6863SOL    HW221489   6.026   1.223   4.490 -0.1343 -0.3989  1.4122
 6864SOL     OW21490   2.276   3.123   5.717  0.0843 -0.2515 -0.3042
 6864SOL    HW121491   2.323   3.102   5.803  0.4281  0.1771 -0.3859
 6864SOL    HW221492   2.226   3.208   5.727 -2.6501 -1.8326  0.5630
 6865SOL     OW21493   1.707   2.037   3.803 -0.3635 -0.6007 -0.0635
 6865SOL    HW121494   1.708   1.958   3.742 -0.2622 -0.1721 -0.6301
 6865SOL    HW221495   1.616   2.047   3.844 -1.1210  0.3564 -1.8417
 6866SOL     OW21496   6.217   4.064   0.123  0.0249  0.3025  0.0387
 6866SOL    HW121497   6.186   3.975   0.155 -1.2928  0.4261 -0.7706
 6866SOL    HW221498   6.229   4.061   0.023 -0.2634  1.0684 -0.0304
 6867SOL     OW21499   2.155   1.192   0.247 -0.4965  0.3928  0.1362
 6867SOL    HW121500   2.200   1.255   0.184  0.1954  1.5608  1.7153
 6867SOL    HW221501   2.220   1.122   0.276 -0.0922  1.1663  1.2087
 6868SOL     OW21502   1.904   6.406   4.950 -0.2934 -0.0613  0.0695
 6868SOL    HW121503   1.999   6.430   4.928 -0.5121  1.0772  0.3182
 6868SOL    HW221504   1.848   6.489   4.952 -0.7234 -0.3239  2.7719
 6869SOL     OW21505   0.371   6.995   5.371  0.4549 -0.2895  0.1610
 6869SOL    HW121506   0.454   6.971   5.322  1.5764  0.7386  1.4834
 6869SOL    HW221507   0.365   6.941   5.456  1.9578  2.3812  2.1274
 6870SOL     OW21508   0.065   4.629   4.857 -0.6878  0.2469 -0.5963
 6870SOL    HW121509   0.151   4.680   4.866  0.2221 -1.2943 -0.1457
 6870SOL    HW221510   0.023   4.619   4.948 -0.9862  0.4040 -0.7167
 6871SOL     OW21511   6.971   2.646   3.301  0.0061 -0.5830  0.0501
 6871SOL    HW121512   6.963   2.654   3.400 -0.2731 -1.8347  0.1443
 6871SOL    HW221513   6.998   2.734   3.263  0.7283 -0.2408  1.2897
 6872SOL     OW21514   2.841   3.037   1.741  0.2324  0.4258 -0.3565
 6872SOL    HW121515   2.750   3.003   1.718 -0.0982  1.3852 -0.5229
 6872SOL    HW221516   2.909   2.994   1.681 -0.0313 -0.6593  0.0906
 6873SOL     OW21517   0.039   4.710   3.059  0.0143  0.0338  0.2044
 6873SOL    HW121518   0.068   4.711   2.964  1.6023 -0.7142  0.6425
 6873SOL    HW221519  -0.011   4.794   3.081 -0.5719  0.1082 -1.3184
 6874SOL     OW21520   1.959   6.621   0.754  0.1079  0.1755 -0.1911
 6874SOL    HW121521   1.932   6.650   0.846  0.0813  1.8027 -0.6728
 6874SOL    HW221522   1.992   6.527   0.757 -2.0481 -0.6124  1.0589
 6875SOL     OW21523   2.201   0.079   6.642  0.1696 -0.3512  0.1075
 6875SOL    HW121524   2.118   0.079   6.697  0.4649 -0.2810  0.5641
 6875SOL    HW221525   2.278   0.047   6.698  0.8437  1.4770  0.3253
 6876SOL     OW21526   6.663   1.021   3.683 -0.2364  0.1067 -0.3929
 6876SOL    HW121527   6.564   1.011   3.672 -0.2002 -1.5936  0.5890
 6876SOL    HW221528   6.708   1.007   3.595 -0.8536  0.9817 -0.8652
 6877SOL     OW21529   2.181   5.466   2.633 -0.5805 -0.0433  0.7935
 6877SOL    HW121530   2.227   5.481   2.545 -1.6147  0.7922  0.3643
 6877SOL    HW221531   2.227   5.393   2.683  2.1549  1.7473  1.0963
 6878SOL     OW21532   2.779   6.270   5.421 -0.8785  0.5241 -0.1682
 6878SOL    HW121533   2.809   6.353   5.467  0.1457 -0.3655  0.8253
 6878SOL    HW221534   2.693   6.238   5.462 -0.9366  0.7386 -0.1215
 6879SOL     OW21535   0.623   0.970   0.185 -0.1136 -0.1083 -0.8455
 6879SOL    HW121536   0.598   0.957   0.090 -0.5509 -0.6490 -0.6612
 6879SOL    HW221537   0.562   0.916   0.244 -0.9750  1.5536 -0.1417
 6880SOL     OW21538   0.162   5.882   6.992  0.3349 -0.3619 -0.1459
 6880SOL    HW121539   0.191   5.786   6.996  0.8035 -0.2292 -0.2628
 6880SOL    HW221540   0.195   5.930   7.073  1.2111 -0.0074 -0.6915
 6881SOL     OW21541   1.159   5.046   0.515 -0.4738 -0.1200 -0.1793
 6881SOL    HW121542   1.140   5.050   0.417  0.9352 -0.3256 -0.4887
 6881SOL    HW221543   1.101   4.977   0.557  0.2268 -1.3885 -1.2194
 6882SOL     OW21544   2.309   5.266   4.985  0.1167 -0.3652  0.6171
 6882SOL    HW121545   2.211   5.271   4.966  0.3304  1.0440 -0.2976
 6882SOL    HW221546   2.337   5.347   5.037  1.3910  1.2974 -2.3819
 6883SOL     OW21547   4.901   6.431   0.932 -0.1052  0.8266  0.1770
 6883SOL    HW121548   4.997   6.442   0.905 -0.4594  1.2805 -0.9326
 6883SOL    HW221549   4.843   6.491   0.877 -1.2122 -0.6840 -0.3730
 6884SOL     OW21550   2.493   6.352   3.232  0.3246 -0.2685  0.1805
 6884SOL    HW121551   2.499   6.344   3.133  2.0119 -1.0589  0.3022
 6884SOL    HW221552   2.411   6.305   3.265  0.6319 -1.4681 -0.7113
 6885SOL     OW21553   6.499   3.872   4.976 -0.2299  0.4724 -0.3339
 6885SOL    HW121554   6.572   3.915   5.030  0.4111  0.2298 -0.9786
 6885SOL    HW221555   6.452   3.804   5.031  2.5429 -2.1493 -0.9407
 6886SOL     OW21556   5.912   4.495   0.714 -0.0673  0.1472 -0.0445
 6886SOL    HW121557   5.925   4.460   0.621  0.3994  1.0822 -0.3470
 6886SOL    HW221558   5.945   4.589   0.718 -0.2822  0.1805  1.0223
 6887SOL     OW21559   4.492   6.226   5.305  0.3817 -0.1820  0.4161
 6887SOL    HW121560   4.501   6.137   5.260  0.4627  0.3745 -0.7105
 6887SOL    HW221561   4.484   6.213   5.403 -2.8205 -1.6874  0.1102
 6888SOL     OW21562   5.504   4.617   3.953  0.4113 -0.1299 -0.4544
 6888SOL    HW121563   5.441   4.625   3.876 -0.0515  1.0464  0.0297
 6888SOL    HW221564   5.565   4.696   3.955 -0.2180  0.3466  0.9277
 6889SOL     OW21565   6.005   2.535   4.759  0.1701  0.0309  0.6545
 6889SOL    HW121566   6.099   2.507   4.738 -0.0886  0.1002 -0.7164
 6889SOL    HW221567   5.953   2.456   4.792  0.1498 -0.5482 -0.6808
 6890SOL     OW21568   4.206   4.828   3.701 -0.2387 -0.0984 -0.3708
 6890SOL    HW121569   4.214   4.911   3.756 -1.4879 -0.1398 -0.0967
 6890SOL    HW221570   4.149   4.847   3.621  1.2750 -0.1301 -1.4999
 6891SOL     OW21571   3.162   6.762   1.496 -0.1167 -0.2643 -0.5133
 6891SOL    HW121572   3.222   6.813   1.558 -2.2606 -0.7425  2.1118
 6891SOL    HW221573   3.106   6.826   1.444 -0.3259  0.1255  0.1759
 6892SOL     OW21574   6.888   1.415   4.201  0.1741 -0.3295  0.2649
 6892SOL    HW121575   6.789   1.427   4.199  0.2676  0.4681 -0.3115
 6892SOL    HW221576   6.933   1.505   4.200  0.9010 -0.6585  1.4229
 6893SOL     OW21577   6.731   4.224   0.588 -0.0296 -0.6752 -0.5069
 6893SOL    HW121578   6.724   4.137   0.636 -1.8362 -0.1796  0.2123
 6893SOL    HW221579   6.693   4.216   0.496  0.0461 -0.6995 -0.5365
 6894SOL     OW21580   6.160   4.299   1.910  0.1525 -0.2023  0.1757
 6894SOL    HW121581   6.212   4.215   1.927  1.7876  0.1152 -2.5966
 6894SOL    HW221582   6.224   4.372   1.886 -1.4316  0.7968 -1.2036
 6895SOL     OW21583   1.728   4.023   2.584 -0.2109  0.5403 -0.1244
 6895SOL    HW121584   1.775   4.092   2.640  1.5188 -0.6051 -0.0879
 6895SOL    HW221585   1.766   4.025   2.492  0.1458 -0.6141 -0.0116
 6896SOL     OW21586   4.875   1.922   5.603 -0.4505  0.3790 -0.1190
 6896SOL    HW121587   4.777   1.920   5.582 -0.7798 -0.3417  1.3510
 6896SOL    HW221588   4.927   1.924   5.517 -1.7322  0.2331 -0.9376
 6897SOL     OW21589   4.230   2.650   5.641 -0.0361 -0.5629 -0.2877
 6897SOL    HW121590   4.187   2.701   5.566 -1.3770 -1.2616 -0.0234
 6897SOL    HW221591   4.189   2.678   5.728 -0.5795 -1.8592 -0.1150
 6898SOL     OW21592   2.602   4.886   1.285 -0.1956  0.1796  0.1599
 6898SOL    HW121593   2.503   4.881   1.274 -0.5853 -0.3600  2.9892
 6898SOL    HW221594   2.635   4.806   1.335  1.3961  1.1684  0.7913
 6899SOL     OW21595   6.278   6.213   3.819 -0.1438 -0.1121  0.4525
 6899SOL    HW121596   6.373   6.217   3.849 -0.3696 -0.0394  1.1818
 6899SOL    HW221597   6.234   6.131   3.857  0.0061 -0.9357 -1.0560
 6900SOL     OW21598   0.141   5.689   3.783 -0.2637  0.2408 -0.6618
 6900SOL    HW121599   0.120   5.602   3.828  1.6118 -0.4613 -1.0566
 6900SOL    HW221600   0.199   5.744   3.843 -1.1885  1.1292 -0.5451
 6901SOL     OW21601   5.842   2.887   6.569 -0.6216 -0.2453  0.5548
 6901SOL    HW121602   5.841   2.801   6.518 -0.7979  0.1021 -0.0455
 6901SOL    HW221603   5.907   2.881   6.644  0.7058 -0.2957 -0.5647
 6902SOL     OW21604   1.795   6.163   4.015  0.0209  0.0156  0.3101
 6902SOL    HW121605   1.720   6.148   3.951 -0.2789 -0.0758  0.6776
 6902SOL    HW221606   1.786   6.100   4.093  0.7684 -0.3620  0.1086
 6903SOL     OW21607   0.758   0.064   4.442 -0.0208 -0.2116  0.3932
 6903SOL    HW121608   0.708  -0.005   4.495 -1.1541 -1.0014 -1.6082
 6903SOL    HW221609   0.721   0.155   4.463  0.0419 -0.4156  1.4646
 6904SOL     OW21610   0.700   0.731   6.316 -0.0709  0.0207 -0.6630
 6904SOL    HW121611   0.765   0.807   6.319 -0.4652  0.3678 -0.7785
 6904SOL    HW221612   0.748   0.648   6.289  0.6172 -0.0476  0.6478
 6905SOL     OW21613   4.148   0.101   5.003  0.3581 -0.1275  0.7303
 6905SOL    HW121614   4.100   0.186   4.985  1.2384  0.1658 -0.3564
 6905SOL    HW221615   4.097   0.024   4.964  0.3367  0.0858  0.3342
 6906SOL     OW21616   4.244   1.078   4.162 -0.2115 -0.4083  0.0580
 6906SOL    HW121617   4.340   1.068   4.190 -0.5915 -1.2202  1.1151
 6906SOL    HW221618   4.237   1.059   4.064  1.1918  2.8357 -0.8209
 6907SOL     OW21619   4.302   2.440   0.547  0.7720 -0.2126 -0.0822
 6907SOL    HW121620   4.369   2.424   0.620 -0.3162  2.6626  1.7313
 6907SOL    HW221621   4.218   2.390   0.567  0.6416  0.1982  0.4320
 6908SOL     OW21622   2.019   4.758   0.219 -0.2191 -0.6761 -0.1765
 6908SOL    HW121623   1.949   4.687   0.226  0.0900 -0.8335  2.3936
 6908SOL    HW221624   1.991   4.826   0.152 -2.6104 -0.9920  0.4075
 6909SOL     OW21625   3.756   4.897   3.945  0.0241 -0.4005 -0.5737
 6909SOL    HW121626   3.728   4.826   4.009 -2.4507  1.4432  0.5636
 6909SOL    HW221627   3.846   4.932   3.971  0.4024 -1.7576  0.0104
 6910SOL     OW21628   1.512   1.570   1.784  0.2865 -0.0824 -0.1414
 6910SOL    HW121629   1.431   1.532   1.828  1.1294 -2.2307 -0.3248
 6910SOL    HW221630   1.495   1.665   1.758 -2.0680 -0.4198  0.0003
 6911SOL     OW21631   2.361   2.015   4.506  0.3867 -0.1798 -0.1014
 6911SOL    HW121632   2.411   2.084   4.560 -0.2478 -0.6309  1.0883
 6911SOL    HW221633   2.315   2.061   4.430  1.4190  0.4476 -0.3834
 6912SOL     OW21634   3.593   5.661   0.113 -0.1816  0.3938  0.3241
 6912SOL    HW121635   3.580   5.699   0.021  2.0492  0.4243 -0.0509
 6912SOL    HW221636   3.601   5.561   0.107  0.3902  0.4311  0.4124
 6913SOL     OW21637   4.067   4.202   0.764 -0.1390  0.2366 -0.5302
 6913SOL    HW121638   4.140   4.152   0.811 -0.2294  0.7715  0.1932
 6913SOL    HW221639   4.035   4.148   0.686  1.3820  0.2289 -1.1790
 6914SOL     OW21640   0.063   1.896   1.006  0.2730 -0.2832  0.1870
 6914SOL    HW121641   0.091   1.973   0.948  1.7585 -0.0179  1.1845
 6914SOL    HW221642   0.040   1.818   0.948  2.0926 -0.1562 -0.7971
 6915SOL     OW21643   3.917   5.123   3.343  0.2567  0.1044 -0.5789
 6915SOL    HW121644   3.828   5.166   3.325 -0.2218 -0.7745 -0.3986
 6915SOL    HW221645   3.932   5.118   3.441  0.1604 -0.4070 -0.5851
 6916SOL     OW21646   3.519   0.288   3.346  0.0072 -0.1397  0.0067
 6916SOL    HW121647   3.456   0.212   3.329  0.8248 -0.5615 -1.3800
 6916SOL    HW221648   3.594   0.256   3.405 -1.7324  0.7479  2.8777
 6917SOL     OW21649   4.016   4.676   6.776  0.5823  0.4147  0.3126
 6917SOL    HW121650   4.083   4.614   6.734  1.1889  0.7905  0.7142
 6917SOL    HW221651   4.057   4.720   6.856 -1.0191 -1.4528  2.2881
 6918SOL     OW21652   0.900   3.886   6.892  0.0868  0.4182  0.3712
 6918SOL    HW121653   0.824   3.950   6.884 -0.3282 -0.0458  0.5048
 6918SOL    HW221654   0.951   3.884   6.806 -1.0345 -0.4650 -0.3106
 6919SOL     OW21655   5.209   5.721   2.850  0.0315 -0.8847 -0.2285
 6919SOL    HW121656   5.292   5.686   2.895  2.0006  0.8203 -2.3106
 6919SOL    HW221657   5.202   5.819   2.866 -1.7562 -1.0280  0.0613
 6920SOL     OW21658   1.515   3.119   5.392 -0.5858  0.2838  0.6152
 6920SOL    HW121659   1.546   3.047   5.329  1.2493  1.5220  0.0390
 6920SOL    HW221660   1.460   3.077   5.464  0.6234 -1.7505  0.4478
 6921SOL     OW21661   4.247   6.310   6.777 -0.5410 -0.0326 -0.0264
 6921SOL    HW121662   4.196   6.385   6.734  0.5714  0.9081  0.2352
 6921SOL    HW221663   4.191   6.267   6.847 -1.6816 -0.3324 -1.0833
 6922SOL     OW21664   1.999   4.986   0.415  0.5993  0.3780  0.3161
 6922SOL    HW121665   2.089   4.986   0.371  0.4724 -0.7916  0.0255
 6922SOL    HW221666   1.928   4.982   0.345  0.3603 -0.0112  0.5736
 6923SOL     OW21667   6.130   6.820   2.764  0.3373  0.1392  0.6884
 6923SOL    HW121668   6.046   6.797   2.716 -0.2019  0.9405  1.2262
 6923SOL    HW221669   6.204   6.833   2.698 -0.6065  2.1990 -0.0581
 6924SOL     OW21670   2.251   5.469   1.237 -0.4047 -0.0386  0.4673
 6924SOL    HW121671   2.321   5.425   1.293  1.4768 -0.9910 -2.3726
 6924SOL    HW221672   2.165   5.418   1.244  0.7004 -2.0756  0.0617
 6925SOL     OW21673   6.926   0.621   2.697  0.2542 -0.1604 -0.3527
 6925SOL    HW121674   6.855   0.667   2.751  0.2828 -0.3105 -0.1869
 6925SOL    HW221675   6.952   0.679   2.620  0.4528  0.2088 -0.0155
 6926SOL     OW21676   0.255   4.057   0.776 -0.1439  0.1956  0.4236
 6926SOL    HW121677   0.221   4.077   0.684  0.4071  1.0078  0.3902
 6926SOL    HW221678   0.314   3.976   0.773  2.9987  2.3461 -0.6964
 6927SOL     OW21679   2.275   0.844   4.146 -0.6933 -0.3175  0.7688
 6927SOL    HW121680   2.293   0.856   4.049 -0.9164  1.7118  0.9384
 6927SOL    HW221681   2.213   0.766   4.159 -0.7877 -0.5137 -0.7106
 6928SOL     OW21682   4.878   5.952   6.587  0.0698  0.8449 -0.9867
 6928SOL    HW121683   4.871   5.852   6.598  1.2294  0.9870  1.8163
 6928SOL    HW221684   4.805   5.996   6.639  2.1595  1.4845  1.6002
 6929SOL     OW21685   4.808   4.804   5.462 -0.2571 -0.7000 -0.2928
 6929SOL    HW121686   4.763   4.717   5.443 -0.9922 -0.2930 -0.4431
 6929SOL    HW221687   4.810   4.819   5.561 -1.5721 -0.1500 -0.3317
 6930SOL     OW21688   1.419   5.973   1.796 -0.1641  0.2255  0.1421
 6930SOL    HW121689   1.396   6.055   1.850  0.4607  0.6628 -0.2377
 6930SOL    HW221690   1.507   5.987   1.752  0.0208 -0.7318  0.2026
 6931SOL     OW21691   3.453   2.368   0.996  0.1563  0.2190  0.1552
 6931SOL    HW121692   3.540   2.413   0.975  1.0602 -0.7799  1.6338
 6931SOL    HW221693   3.469   2.271   1.014 -1.3830 -0.1402 -0.2475
 6932SOL     OW21694   4.706   6.614   0.091  0.1560  0.3787 -0.1140
 6932SOL    HW121695   4.711   6.586   0.187  0.9079  1.5901  0.2243
 6932SOL    HW221696   4.642   6.555   0.042  0.1170 -0.5535  1.0238
 6933SOL     OW21697   4.583   6.916   5.753 -0.2694  0.5590  0.3604
 6933SOL    HW121698   4.618   6.878   5.839  0.5670  2.3973  0.8769
 6933SOL    HW221699   4.489   6.884   5.739  0.9990 -3.4683 -0.3926
 6934SOL     OW21700   4.728   6.276   0.148  0.5711 -0.0356  0.0842
 6934SOL    HW121701   4.760   6.316   0.062  0.9561  1.1640  0.7704
 6934SOL    HW221702   4.805   6.237   0.198  0.3945 -0.4250  0.0643
 6935SOL     OW21703   4.116   3.934   1.394  0.2265 -0.6447 -0.1898
 6935SOL    HW121704   4.071   4.020   1.372 -0.2249 -0.9173 -0.3289
 6935SOL    HW221705   4.055   3.876   1.448  0.9711 -0.3843  0.9657
 6936SOL     OW21706   1.088   1.448   6.848 -0.0082 -0.1188 -0.0468
 6936SOL    HW121707   1.037   1.404   6.774  0.3617 -0.2473 -0.2321
 6936SOL    HW221708   1.081   1.393   6.931 -0.3611 -0.0153 -0.0088
 6937SOL     OW21709   6.415   2.771   1.782  0.2887  0.4911 -0.2526
 6937SOL    HW121710   6.367   2.856   1.805  0.4899  0.4274  0.4216
 6937SOL    HW221711   6.488   2.791   1.717  0.4583  0.8766  0.0472
 6938SOL     OW21712   3.080   2.128   4.418  0.4003 -0.0265 -0.0852
 6938SOL    HW121713   3.028   2.130   4.332 -0.7388 -0.7340  0.5593
 6938SOL    HW221714   3.026   2.170   4.491  2.0042  2.0612 -0.0077
 6939SOL     OW21715   5.774   5.202   3.483  0.8996 -0.0539 -0.7412
 6939SOL    HW121716   5.731   5.219   3.394  1.7751  0.3622 -1.1016
 6939SOL    HW221717   5.759   5.108   3.510 -3.1651  0.8482  0.7819
 6940SOL     OW21718   6.281   6.018   0.940  0.4124 -0.2485 -0.5331
 6940SOL    HW121719   6.290   6.051   0.846  0.9707  1.7801  0.1775
 6940SOL    HW221720   6.188   5.984   0.954  0.3694 -0.7509 -1.8524
 6941SOL     OW21721   3.425   4.249   1.070  0.0673  0.3066 -0.1079
 6941SOL    HW121722   3.379   4.164   1.094  0.2155  0.5844  1.2046
 6941SOL    HW221723   3.361   4.326   1.078  0.2916  0.4819  0.0233
 6942SOL     OW21724   0.037   6.726   3.020 -0.4293 -0.1421 -0.7363
 6942SOL    HW121725  -0.062   6.738   3.033 -0.4472 -0.2337 -0.7906
 6942SOL    HW221726   0.081   6.719   3.109 -0.3151  1.1538 -0.6710
 6943SOL     OW21727   3.176   5.014   6.046  0.0136 -1.0104  0.0595
 6943SOL    HW121728   3.111   4.949   6.006 -0.0527 -0.4969 -0.6963
 6943SOL    HW221729   3.138   5.106   6.043  0.0151 -0.9502  1.3326
 6944SOL     OW21730   0.876   4.184   6.380  1.1813  0.9579 -0.6391
 6944SOL    HW121731   0.823   4.248   6.435  1.8377  1.3921 -0.4889
 6944SOL    HW221732   0.834   4.173   6.290  0.1555  0.3244 -0.1029
 6945SOL     OW21733   3.726   1.541   6.807  0.2813 -0.0068 -0.3298
 6945SOL    HW121734   3.637   1.497   6.801 -0.4997  1.3137  1.0217
 6945SOL    HW221735   3.732   1.614   6.738 -0.2594  0.8224  0.4712
 6946SOL     OW21736   0.168   4.989   5.169  0.6556 -0.1576  0.1239
 6946SOL    HW121737   0.200   4.902   5.131 -0.1544 -0.1603 -0.5816
 6946SOL    HW221738   0.089   4.972   5.227  1.4565 -0.0666  1.2747
 6947SOL     OW21739   0.084   4.260   4.667 -1.5477  0.5455 -0.4735
 6947SOL    HW121740   0.083   4.250   4.568 -2.0388 -1.4409 -0.3176
 6947SOL    HW221741   0.067   4.171   4.709 -0.2376  1.1413  1.4190
 6948SOL     OW21742   1.326   5.272   6.267  0.1970  0.0252 -0.1702
 6948SOL    HW121743   1.369   5.207   6.330  0.6253 -0.3296 -0.8165
 6948SOL    HW221744   1.348   5.365   6.295 -1.9717  0.0235  1.8898
 6949SOL     OW21745   2.629   0.960   4.073 -0.1284 -0.4346  0.1129
 6949SOL    HW121746   2.677   0.874   4.057  0.2629 -0.1408 -0.3320
 6949SOL    HW221747   2.605   0.967   4.169  2.0265  0.0522  0.6799
 6950SOL     OW21748   2.509   0.201   4.797  0.0247 -0.0317 -0.5315
 6950SOL    HW121749   2.554   0.212   4.709  0.4460  0.5535 -0.2514
 6950SOL    HW221750   2.548   0.122   4.845 -0.3330 -0.4626 -0.9377
 6951SOL     OW21751   0.082   2.588   0.504  0.0594  0.5771  0.4950
 6951SOL    HW121752  -0.004   2.538   0.513  0.1602  0.5584  1.4693
 6951SOL    HW221753   0.081   2.642   0.420  0.6117 -2.3258 -1.5239
 6952SOL     OW21754   4.645   4.676   3.407  0.1889 -0.2166  0.1113
 6952SOL    HW121755   4.633   4.729   3.322 -0.7353  0.4243  0.6218
 6952SOL    HW221756   4.705   4.726   3.469 -0.6181  0.2206  0.5609
 6953SOL     OW21757   6.707   0.882   1.124 -0.2372 -0.2430 -0.3713
 6953SOL    HW121758   6.663   0.883   1.214 -0.3597 -1.2858 -0.4065
 6953SOL    HW221759   6.711   0.788   1.090  0.6346  0.0315 -1.0577
 6954SOL     OW21760   0.154   4.863   3.516  0.4018 -0.1304  0.1190
 6954SOL    HW121761   0.085   4.909   3.572 -0.4922 -0.9388 -0.2954
 6954SOL    HW221762   0.226   4.928   3.491 -0.2552  0.7441  0.4798
 6955SOL     OW21763   3.603   5.286   2.415  0.4432 -0.8458 -0.1969
 6955SOL    HW121764   3.639   5.364   2.364  1.7978 -0.7989  0.7829
 6955SOL    HW221765   3.513   5.308   2.452  1.1699  0.6020  0.8017
 6956SOL     OW21766   5.530   5.438   3.259  0.0130 -0.0456 -1.2257
 6956SOL    HW121767   5.436   5.472   3.266 -0.5041 -1.6826  0.5731
 6956SOL    HW221768   5.594   5.514   3.273 -1.0780  0.3638  2.6173
 6957SOL     OW21769   5.541   4.284   4.559 -0.2037  0.2337  0.1238
 6957SOL    HW121770   5.483   4.273   4.478  1.7321 -1.0537 -1.1550
 6957SOL    HW221771   5.489   4.259   4.641 -1.1362 -2.1008 -1.0842
 6958SOL     OW21772   3.527   2.025   0.092  0.4395  0.2267  0.3726
 6958SOL    HW121773   3.518   2.124   0.097  1.7964  0.3381  0.9832
 6958SOL    HW221774   3.598   2.002   0.025 -0.3230 -0.3741 -0.2521
 6959SOL     OW21775   6.683   2.084   3.444 -0.0193  0.4839  0.4423
 6959SOL    HW121776   6.763   2.025   3.428 -0.1140 -0.0549  1.8047
 6959SOL    HW221777   6.713   2.179   3.456  0.3171  0.4347 -0.0016
 6960SOL     OW21778   3.595   3.597   0.226  0.1562 -0.4613 -0.1379
 6960SOL    HW121779   3.563   3.618   0.133  0.3188  3.4922  0.5418
 6960SOL    HW221780   3.694   3.611   0.231  0.2084 -1.0248  0.5460
 6961SOL     OW21781   5.089   3.186   5.487  0.7573  0.1681 -0.3493
 6961SOL    HW121782   5.160   3.229   5.541 -0.4976 -0.3736  1.8510
 6961SOL    HW221783   5.010   3.247   5.481  0.6158 -0.0692 -1.0063
 6962SOL     OW21784   3.537   6.731   0.095 -0.6563  0.7160 -0.3140
 6962SOL    HW121785   3.607   6.697   0.033 -0.2584  1.3474 -0.2216
 6962SOL    HW221786   3.499   6.655   0.148 -0.4943  0.2815 -0.8185
 6963SOL     OW21787   5.050   2.479   0.718  0.5675 -0.1003  1.1153
 6963SOL    HW121788   4.971   2.447   0.665 -0.4155 -0.0097  2.4669
 6963SOL    HW221789   5.119   2.517   0.656  0.1927 -1.4949 -0.2275
 6964SOL     OW21790   3.211   1.103   5.261  0.0592 -0.2857 -0.2929
 6964SOL    HW121791   3.291   1.131   5.208  1.0742 -0.3445  1.1540
 6964SOL    HW221792   3.171   1.184   5.305 -0.2918 -0.3600 -0.4657
 6965SOL     OW21793   1.152   4.792   1.563 -0.1254 -0.0967 -0.4089
 6965SOL    HW121794   1.232   4.790   1.623 -1.0383  2.1592  0.9846
 6965SOL    HW221795   1.084   4.728   1.595 -0.1877  0.3563  0.3853
 6966SOL     OW21796   0.547   6.455   5.963  0.2789  0.1858 -0.4265
 6966SOL    HW121797   0.455   6.429   5.934  0.3194 -0.2516 -0.1707
 6966SOL    HW221798   0.557   6.440   6.061  0.6825  0.0593 -0.4829
 6967SOL     OW21799   3.531   6.101   5.346 -0.1507 -0.0837 -0.3398
 6967SOL    HW121800   3.452   6.148   5.306  0.0310 -0.0476 -0.6545
 6967SOL    HW221801   3.558   6.147   5.431  0.0302  0.3867 -0.6520
 6968SOL     OW21802   3.892   1.048   1.383  0.0076 -0.3886  0.2520
 6968SOL    HW121803   3.926   0.956   1.370 -0.7202 -0.6994  0.4656
 6968SOL    HW221804   3.864   1.087   1.295  1.1648 -0.0149  0.0322
 6969SOL     OW21805   0.740   1.969   3.241 -0.0630  1.0755 -0.2642
 6969SOL    HW121806   0.839   1.957   3.232 -0.0262 -0.2782  1.4703
 6969SOL    HW221807   0.720   2.025   3.321 -0.7291  0.6227 -0.1085
 6970SOL     OW21808   2.603   0.261   5.411  0.0884  0.2874 -0.3412
 6970SOL    HW121809   2.572   0.278   5.504  4.1105 -0.2899  1.3289
 6970SOL    HW221810   2.585   0.165   5.386  0.4803 -0.0213  0.5330
 6971SOL     OW21811   2.506   2.527   6.652 -0.0003  0.3208  0.0682
 6971SOL    HW121812   2.578   2.518   6.721 -0.7520  0.2090  0.8465
 6971SOL    HW221813   2.520   2.458   6.581  1.3912  1.1270 -0.4672
 6972SOL     OW21814   4.401   2.720   1.604  0.1727  0.5151  0.3710
 6972SOL    HW121815   4.472   2.671   1.553 -0.5158 -0.0570 -0.0653
 6972SOL    HW221816   4.320   2.661   1.614  0.6994  0.1108  3.2291
 6973SOL     OW21817   0.649   6.483   4.720  0.1831 -0.3332  0.1261
 6973SOL    HW121818   0.585   6.408   4.706 -1.4932  1.3302 -1.7288
 6973SOL    HW221819   0.723   6.476   4.653 -0.3672  0.0579 -0.5271
 6974SOL     OW21820   3.578   2.780   0.763  0.4212 -0.1939 -0.2746
 6974SOL    HW121821   3.594   2.817   0.672  0.4183 -0.5393 -0.4198
 6974SOL    HW221822   3.535   2.849   0.821 -0.6575 -0.3403 -0.8782
 6975SOL     OW21823   1.675   4.189   6.635  0.7861 -0.3589  0.3345
 6975SOL    HW121824   1.712   4.169   6.545 -3.6694  0.2982 -1.8984
 6975SOL    HW221825   1.632   4.107   6.673 -0.0111  0.0879  0.4239
 6976SOL     OW21826   5.827   5.838   5.141  0.1089 -0.5234  0.5408
 6976SOL    HW121827   5.736   5.844   5.183 -1.0863  2.1810 -2.1186
 6976SOL    HW221828   5.886   5.910   5.178 -0.4247  0.7982 -1.0625
 6977SOL     OW21829   2.625   5.298   3.057 -0.6316 -0.7287  0.0605
 6977SOL    HW121830   2.640   5.371   2.991  0.1929 -0.5819  0.4076
 6977SOL    HW221831   2.527   5.275   3.059 -0.7212 -0.4623 -0.9084
 6978SOL     OW21832   5.379   5.102   1.776  0.2204  0.2803 -0.0423
 6978SOL    HW121833   5.371   5.158   1.858  0.2999  1.8159 -1.0306
 6978SOL    HW221834   5.415   5.012   1.799  0.0607  0.6200  1.6125
 6979SOL     OW21835   0.593   5.698   1.783 -0.4513  0.1138 -0.2663
 6979SOL    HW121836   0.582   5.601   1.761 -1.8739  0.0588  0.6255
 6979SOL    HW221837   0.627   5.746   1.702 -1.5286 -0.8124 -1.3007
 6980SOL     OW21838   3.795   4.964   2.839 -0.0690 -0.2806 -0.0436
 6980SOL    HW121839   3.852   4.905   2.782  2.4046  0.5744  1.3655
 6980SOL    HW221840   3.837   4.973   2.930 -0.7268  2.9701  0.0778
 6981SOL     OW21841   3.516   2.903   6.923  0.5241 -0.1181  0.0199
 6981SOL    HW121842   3.548   2.987   6.879 -0.4469 -0.4520 -1.3965
 6981SOL    HW221843   3.551   2.824   6.872 -0.4456 -0.5211 -0.0323
 6982SOL     OW21844   0.019   0.195   3.411  0.1632  0.1646 -1.0088
 6982SOL    HW121845   0.063   0.265   3.466  1.1124 -0.4621 -0.9500
 6982SOL    HW221846   0.058   0.106   3.432 -1.5376 -0.5176 -0.5343
 6983SOL     OW21847   5.473   0.816   0.056  0.8955 -0.8508  0.1626
 6983SOL    HW121848   5.411   0.737   0.060 -0.5140  0.0452 -1.9058
 6983SOL    HW221849   5.539   0.803  -0.018 -0.4250  0.5593 -1.3386
 6984SOL     OW21850   2.067   4.622   1.484 -0.3225  0.3770  0.5106
 6984SOL    HW121851   2.070   4.547   1.550 -1.1865  0.8008  1.0544
 6984SOL    HW221852   2.144   4.684   1.501  1.0448 -0.9349 -0.6497
 6985SOL     OW21853   3.592   3.392   0.395 -0.7828 -0.6519  0.1950
 6985SOL    HW121854   3.543   3.309   0.368  1.4853 -1.5940 -1.3066
 6985SOL    HW221855   3.577   3.464   0.326 -1.6124 -0.2413  0.7783
 6986SOL     OW21856   3.740   0.726   4.680  0.3243  0.1659 -0.6076
 6986SOL    HW121857   3.684   0.799   4.720  0.9760 -0.1111  0.8756
 6986SOL    HW221858   3.682   0.648   4.659 -0.1402  0.5626 -0.8198
 6987SOL     OW21859   6.308   1.446   6.582 -0.4269  0.3410 -0.6463
 6987SOL    HW121860   6.283   1.377   6.515  2.4002 -1.3315 -0.1466
 6987SOL    HW221861   6.373   1.510   6.542 -0.3067  0.5705 -0.1002
 6988SOL     OW21862   0.082   1.246   6.992  0.4179  0.3747 -0.5793
 6988SOL    HW121863  -0.017   1.259   6.994  0.3876  0.1085 -0.2256
 6988SOL    HW221864   0.105   1.181   6.919  0.3196  0.3307 -0.5715
 6989SOL     OW21865   0.652   5.216   3.204  0.3015  0.3082  0.1007
 6989SOL    HW121866   0.595   5.278   3.151 -1.1661 -1.5892 -0.6358
 6989SOL    HW221867   0.643   5.238   3.302 -0.2715  1.1644 -0.1377
 6990SOL     OW21868   1.942   4.964   6.341  0.1078 -0.2969 -0.1752
 6990SOL    HW121869   1.994   5.014   6.410 -1.9300 -0.1714  1.3341
 6990SOL    HW221870   1.968   4.997   6.250 -0.0242  2.3823  0.6845
 6991SOL     OW21871   4.823   4.995   3.468  0.0666 -0.1431  0.3385
 6991SOL    HW121872   4.795   4.921   3.529 -1.4181  0.0423 -0.0741
 6991SOL    HW221873   4.778   5.080   3.495  1.2330  0.4699  0.4002
 6992SOL     OW21874   0.517   6.257   4.649  0.3303  0.2879 -0.5345
 6992SOL    HW121875   0.455   6.306   4.587 -0.2436 -1.8770 -1.8096
 6992SOL    HW221876   0.467   6.232   4.732 -0.2415 -0.5207 -1.0990
 6993SOL     OW21877   3.107   1.969   3.497  0.3972 -0.1693 -0.4482
 6993SOL    HW121878   3.084   1.872   3.508  1.0434 -0.3830 -0.9016
 6993SOL    HW221879   3.091   1.996   3.402  0.9187 -0.0254 -0.4941
 6994SOL     OW21880   1.903   2.107   5.053 -0.7128  0.3821 -0.2977
 6994SOL    HW121881   1.976   2.086   4.988 -1.9985 -0.2359 -1.5967
 6994SOL    HW221882   1.838   2.170   5.010 -1.1538  0.6180  0.6987
 6995SOL     OW21883   1.288   4.027   6.710  1.1714 -0.1175 -0.1473
 6995SOL    HW121884   1.355   4.078   6.764  2.3864 -1.6930 -0.0893
 6995SOL    HW221885   1.315   3.931   6.707 -0.5916 -0.6160 -0.9481
 6996SOL     OW21886   0.226   2.781   0.636 -0.0199 -0.0369  0.4507
 6996SOL    HW121887   0.304   2.813   0.583 -0.6989  0.5584 -0.2208
 6996SOL    HW221888   0.190   2.697   0.595 -0.3925  0.2864  0.1095
 6997SOL     OW21889   4.667   4.360   0.024 -0.1322  0.3971  0.8758
 6997SOL    HW121890   4.667   4.440   0.084 -1.7950  2.0760 -1.1458
 6997SOL    HW221891   4.595   4.297   0.052 -1.3191  1.4702  0.3651
 6998SOL     OW21892   0.039   0.265   0.199  0.2098 -0.4974  0.2212
 6998SOL    HW121893   0.114   0.238   0.140  0.0790 -0.2463 -0.0629
 6998SOL    HW221894   0.066   0.255   0.295 -0.5614 -3.7486  0.2002
 6999SOL     OW21895   0.772   4.554   6.340 -0.1680  0.1049  0.1470
 6999SOL    HW121896   0.870   4.555   6.359 -0.4560  0.9678  1.7109
 6999SOL    HW221897   0.758   4.548   6.241  1.4364 -2.8755 -0.0182
 7000SOL     OW21898   6.777   5.369   2.762 -0.1306  0.1415  0.5806
 7000SOL    HW121899   6.767   5.276   2.726  1.4189 -0.0179  0.5026
 7000SOL    HW221900   6.733   5.434   2.699  2.5790 -0.1192 -1.7852
 7001SOL     OW21901   0.200   0.688   4.855 -0.3186 -0.0807 -0.6357
 7001SOL    HW121902   0.206   0.634   4.939 -2.9566 -1.3465 -1.1641
 7001SOL    HW221903   0.292   0.713   4.825  0.7217  0.6502  2.7201
 7002SOL     OW21904   0.627   5.329   2.792 -0.5714  0.1493  0.6476
 7002SOL    HW121905   0.719   5.314   2.829 -0.2789 -0.8053 -0.4267
 7002SOL    HW221906   0.624   5.417   2.745 -0.0375 -0.0800  0.1790
 7003SOL     OW21907   6.864   0.790   6.366 -0.0697 -0.2648 -0.3444
 7003SOL    HW121908   6.784   0.732   6.373 -0.6723  0.6350  0.4298
 7003SOL    HW221909   6.924   0.756   6.293 -1.6864 -0.3038 -1.7118
 7004SOL     OW21910   1.119   0.746   6.204 -0.4943 -0.5060  0.4726
 7004SOL    HW121911   1.142   0.822   6.265 -2.2574  0.3592  0.1180
 7004SOL    HW221912   1.075   0.673   6.257  0.1080 -0.7792  0.6079
 7005SOL     OW21913   3.114   5.501   1.712  0.1073 -0.2345  0.1614
 7005SOL    HW121914   3.068   5.534   1.794  0.9675 -1.0186  0.9890
 7005SOL    HW221915   3.213   5.504   1.725  0.2462 -2.0223 -0.1409
 7006SOL     OW21916   6.746   0.365   2.643 -0.0288  0.3983  0.0122
 7006SOL    HW121917   6.832   0.350   2.593 -0.0281 -1.6395  0.5091
 7006SOL    HW221918   6.765   0.412   2.729  0.1506  2.6643 -1.1998
 7007SOL     OW21919   1.289   0.990   4.187 -0.1176 -0.4709  0.5879
 7007SOL    HW121920   1.240   1.017   4.270 -0.3975  0.2808  0.1951
 7007SOL    HW221921   1.228   0.996   4.109  0.9397  2.0661 -0.1706
 7008SOL     OW21922   5.869   1.452   4.599 -0.2303 -0.0067 -0.3478
 7008SOL    HW121923   5.954   1.489   4.636  0.3523 -0.2214 -1.4548
 7008SOL    HW221924   5.798   1.523   4.600  0.7547  1.0456 -2.0584
 7009SOL     OW21925   4.912   3.814   2.279  0.0781 -0.5691  0.0819
 7009SOL    HW121926   4.912   3.773   2.188  0.5610  0.0974 -0.2265
 7009SOL    HW221927   4.960   3.753   2.342  0.4462 -0.6677 -0.2866
 7010SOL     OW21928   4.193   2.170   5.001 -0.2757  0.4014  0.2798
 7010SOL    HW121929   4.218   2.266   5.012 -0.7857  0.5034  0.6372
 7010SOL    HW221930   4.140   2.158   4.917  1.3722  0.0934 -0.7541
 7011SOL     OW21931   3.322   5.310   1.245 -0.1816 -0.2406 -0.4101
 7011SOL    HW121932   3.396   5.257   1.203  1.0678  2.2447 -1.5185
 7011SOL    HW221933   3.358   5.362   1.323 -1.0731  0.0192 -0.1590
 7012SOL     OW21934   1.163   3.226   0.170  0.4259 -0.6341 -0.2126
 7012SOL    HW121935   1.086   3.220   0.107 -0.2866 -0.3016  0.6011
 7012SOL    HW221936   1.201   3.318   0.170 -0.2537 -0.3409  0.6031
 7013SOL     OW21937   1.824   2.440   0.408 -0.9063 -0.2144  0.2862
 7013SOL    HW121938   1.865   2.422   0.497  0.1430  1.4301  0.1809
 7013SOL    HW221939   1.860   2.526   0.371 -0.8303 -1.1651 -2.0239
 7014SOL     OW21940   0.276   3.805   2.476  0.2015  0.3300 -0.6975
 7014SOL    HW121941   0.364   3.764   2.496  0.0178  0.3452  0.1656
 7014SOL    HW221942   0.260   3.803   2.377  0.8867 -0.2305 -0.8031
 7015SOL     OW21943   6.561   5.775   3.353  0.3615 -0.6156 -0.2306
 7015SOL    HW121944   6.619   5.829   3.415  1.5986 -2.0709 -0.0697
 7015SOL    HW221945   6.576   5.807   3.259 -1.2865  1.3849  0.1049
 7016SOL     OW21946   3.166   5.068   6.780 -0.1032 -0.0657  0.2709
 7016SOL    HW121947   3.079   5.060   6.829 -0.1112 -0.6402  0.1695
 7016SOL    HW221948   3.239   5.091   6.845  0.0875 -1.9016  0.7715
 7017SOL     OW21949   5.734   1.594   6.982 -0.2798  0.5715  0.3098
 7017SOL    HW121950   5.803   1.527   7.009 -1.3285 -1.1272 -1.0062
 7017SOL    HW221951   5.646   1.549   6.971 -1.0574  2.1906 -0.5525
 7018SOL     OW21952   6.296   0.799   5.574 -0.3956  0.3616  0.4944
 7018SOL    HW121953   6.365   0.727   5.562  0.6007  1.3372  0.1869
 7018SOL    HW221954   6.208   0.757   5.598  0.0417 -0.9878 -0.1227
 7019SOL     OW21955   4.103   4.885   1.099 -0.2511  0.8656 -0.4204
 7019SOL    HW121956   4.115   4.985   1.094 -1.2301  0.9475 -1.6737
 7019SOL    HW221957   4.007   4.862   1.079  0.0846 -0.3579 -0.6909
 7020SOL     OW21958   6.090   2.025   1.480  0.1554 -0.0615 -0.8258
 7020SOL    HW121959   6.165   1.999   1.418  1.1980  1.4216 -0.2432
 7020SOL    HW221960   6.027   2.086   1.432  2.3687  3.2807  0.1430
 7021SOL     OW21961   1.637   2.627   5.807 -0.7048  0.5459 -0.6216
 7021SOL    HW121962   1.678   2.591   5.724 -0.5585 -1.7415  0.3659
 7021SOL    HW221963   1.671   2.719   5.825  1.1942  0.0926 -1.7521
 7022SOL     OW21964   0.440   4.139   1.492 -0.5952 -0.4727  0.1634
 7022SOL    HW121965   0.353   4.170   1.453  1.3947  4.2449 -1.2583
 7022SOL    HW221966   0.504   4.118   1.418  1.0335  1.4681  0.9200
 7023SOL     OW21967   5.690   1.149   0.197  0.3744  0.0767  0.4785
 7023SOL    HW121968   5.759   1.198   0.250  0.7428  0.5644 -0.4352
 7023SOL    HW221969   5.720   1.141   0.102 -0.3303 -0.6789  0.3021
 7024SOL     OW21970   2.281   2.607   6.813 -0.1241 -0.0960 -0.0958
 7024SOL    HW121971   2.361   2.589   6.755  1.1428  1.1213  1.1733
 7024SOL    HW221972   2.239   2.521   6.840  0.8343 -0.7786 -0.7109
 7025SOL     OW21973   3.654   0.723   6.875 -0.0762  0.2289 -0.8346
 7025SOL    HW121974   3.608   0.637   6.898  1.0125 -0.2564 -0.3969
 7025SOL    HW221975   3.674   0.774   6.959 -1.1070  1.1337 -1.1193
 7026SOL     OW21976   2.639   2.622   1.295  0.0727 -0.1186 -0.0934
 7026SOL    HW121977   2.615   2.676   1.215 -1.0651 -1.1609 -0.4885
 7026SOL    HW221978   2.721   2.569   1.277 -0.0634 -0.1915 -0.4890
 7027SOL     OW21979   1.548   3.681   1.943  0.0959 -0.6141  0.1314
 7027SOL    HW121980   1.593   3.719   1.862 -1.2957  0.7481 -0.0411
 7027SOL    HW221981   1.460   3.727   1.957  0.1329 -1.0941  2.1998
 7028SOL     OW21982   3.075   0.985   1.959  0.0954 -0.1030 -0.8263
 7028SOL    HW121983   3.150   0.974   2.025  0.9539  0.5349 -1.6665
 7028SOL    HW221984   3.010   0.910   1.970  0.8415 -0.6562 -0.0517
 7029SOL     OW21985   3.341   3.379   5.630  0.2773  0.3754  0.1561
 7029SOL    HW121986   3.242   3.371   5.644  0.5066 -1.4216  0.9874
 7029SOL    HW221987   3.374   3.300   5.578  1.3616  0.6634  0.3845
 7030SOL     OW21988   6.028   6.517   4.391 -0.1232 -0.4897 -0.2445
 7030SOL    HW121989   6.088   6.581   4.438  0.5492 -1.1107 -0.2475
 7030SOL    HW221990   5.988   6.561   4.311 -1.5569  0.7068  1.0432
 7031SOL     OW21991   5.418   3.687   2.269 -0.1065  0.5313 -0.1280
 7031SOL    HW121992   5.364   3.735   2.338  0.3142  0.4488  0.2640
 7031SOL    HW221993   5.516   3.701   2.288  0.0123  1.0623 -1.0926
 7032SOL     OW21994   3.028   5.851   4.246 -0.0684 -0.2055  0.2929
 7032SOL    HW121995   3.121   5.832   4.217  0.6528  3.1803  0.0657
 7032SOL    HW221996   2.977   5.765   4.252  2.2435 -1.8952 -2.2140
 7033SOL     OW21997   1.033   7.007   4.654  0.2408  0.1929 -0.3721
 7033SOL    HW121998   0.976   7.089   4.652  1.4590  1.2745  2.8193
 7033SOL    HW221999   1.129   7.034   4.639  0.6443 -0.6518  0.6322
 7034SOL     OW22000   6.509   2.567   1.939 -0.1389  0.2215 -0.2109
 7034SOL    HW122001   6.468   2.641   1.886  1.3548 -0.7060 -2.8064
 7034SOL    HW222002   6.604   2.554   1.911  0.3547 -1.1372  1.8819
 7035SOL     OW22003   3.471   2.386   0.252 -0.2981  0.4864 -0.3404
 7035SOL    HW122004   3.474   2.450   0.174  1.2830 -0.5004 -1.1400
 7035SOL    HW222005   3.481   2.437   0.337 -0.2689  1.4138 -0.8803
 7036SOL     OW22006   5.991   1.096   2.268 -0.1226  0.0363 -0.9492
 7036SOL    HW122007   6.021   1.168   2.205 -0.8971  0.8325 -0.4308
 7036SOL    HW222008   5.968   1.136   2.356  1.5209 -1.1462  0.0730
 7037SOL     OW22009   2.162   2.837   6.567  0.0424  0.4870  0.5245
 7037SOL    HW122010   2.186   2.791   6.481  0.1449  1.6401 -0.0874
 7037SOL    HW222011   2.246   2.864   6.614 -0.0230  0.4397  0.6682
 7038SOL     OW22012   0.654   4.543   0.796 -0.1105  0.4797  0.4771
 7038SOL    HW122013   0.655   4.549   0.896  0.0999  0.6631  0.4634
 7038SOL    HW222014   0.619   4.628   0.758 -1.3851 -0.0442  0.4335
 7039SOL     OW22015   6.932   1.563   6.574  0.5063 -0.2174  0.0100
 7039SOL    HW122016   6.844   1.552   6.529  0.2823 -1.1033  0.6403
 7039SOL    HW222017   6.976   1.473   6.583  0.1591 -0.2228  2.2997
 7040SOL     OW22018   4.884   0.896   4.103  0.5650 -0.1471 -0.5707
 7040SOL    HW122019   4.903   0.923   4.198  0.2014 -1.4576 -0.1067
 7040SOL    HW222020   4.968   0.863   4.060  0.2451 -2.0442  0.1647
 7041SOL     OW22021   0.700   6.440   3.089  0.5750  0.3618  0.0410
 7041SOL    HW122022   0.708   6.538   3.105 -2.2922  0.7244 -0.2498
 7041SOL    HW222023   0.709   6.392   3.177  1.1502  0.9445  0.3099
 7042SOL     OW22024   5.611   3.614   4.636  0.5082  0.5631  0.0776
 7042SOL    HW122025   5.653   3.559   4.563 -0.1302  0.5685 -0.3036
 7042SOL    HW222026   5.586   3.704   4.600 -0.9801  0.1281 -0.0779
 7043SOL     OW22027   2.882   6.489   1.427 -0.2335  0.0088 -0.7474
 7043SOL    HW122028   2.800   6.449   1.387  0.6559 -0.3777 -2.2443
 7043SOL    HW222029   2.961   6.473   1.367  1.3104 -1.1396  1.4479
 7044SOL     OW22030   5.118   6.737   6.134  0.1864  0.5285  0.0701
 7044SOL    HW122031   5.045   6.805   6.126  1.8309  2.3383 -0.5967
 7044SOL    HW222032   5.180   6.765   6.208  3.3903  2.4287 -3.0340
 7045SOL     OW22033   5.952   6.190   0.861  0.3978  0.4931 -0.0091
 7045SOL    HW122034   6.035   6.234   0.897  1.5599 -0.2426 -1.6427
 7045SOL    HW222035   5.955   6.092   0.881  0.9404  0.1156 -1.7401
 7046SOL     OW22036   1.920   1.318   1.654  0.3510  0.5375 -0.4313
 7046SOL    HW122037   2.019   1.329   1.664  0.0982  1.6496  1.2118
 7046SOL    HW222038   1.878   1.408   1.639 -0.7964  0.7955  3.3175
 7047SOL     OW22039   2.156   5.990   1.096 -0.7566 -0.5526  0.4336
 7047SOL    HW122040   2.178   6.040   1.012 -0.7453 -0.0669  0.7252
 7047SOL    HW222041   2.194   5.897   1.090  0.6285 -0.0089  0.5625
 7048SOL     OW22042   6.879   5.135   5.445 -0.0196 -0.7775  0.5704
 7048SOL    HW122043   6.890   5.065   5.374 -1.7181  0.2812 -0.8336
 7048SOL    HW222044   6.965   5.185   5.456  0.6544 -1.8351  0.2168
 7049SOL     OW22045   1.258   1.315   4.348 -0.3079 -0.0165  0.0447
 7049SOL    HW122046   1.218   1.227   4.376 -0.0770 -0.0158  0.3914
 7049SOL    HW222047   1.218   1.388   4.403 -0.0612  0.0197  0.1813
 7050SOL     OW22048   4.510   2.831   6.472 -0.1197 -0.6167 -0.1450
 7050SOL    HW122049   4.505   2.747   6.417 -2.8674  0.5234 -1.8415
 7050SOL    HW222050   4.527   2.909   6.412  0.3540  0.2947  1.1405
 7051SOL     OW22051   1.222   3.735   2.257  0.2286 -0.1928 -0.5627
 7051SOL    HW122052   1.215   3.647   2.209 -0.3737  0.3054 -1.4215
 7051SOL    HW222053   1.286   3.727   2.333  0.2709 -1.3410 -0.7084
 7052SOL     OW22054   4.593   1.885   4.105  0.6242  0.2518 -0.2232
 7052SOL    HW122055   4.639   1.807   4.062  0.8380 -1.2195  2.4889
 7052SOL    HW222056   4.592   1.873   4.204 -0.8937  2.8986  0.1743
 7053SOL     OW22057   0.590   5.421   1.751 -0.3746  0.2078  0.8924
 7053SOL    HW122058   0.521   5.362   1.793 -0.5334 -0.5522 -0.3770
 7053SOL    HW222059   0.571   5.431   1.653  1.3454 -0.0930  0.4936
 7054SOL     OW22060   5.964   6.678   1.305  0.3502  0.6790  0.2290
 7054SOL    HW122061   5.892   6.625   1.260  1.0866  0.4262 -0.6797
 7054SOL    HW222062   6.048   6.624   1.310  0.0371  0.2865  2.8947
 7055SOL     OW22063   2.569   6.343   0.010  0.6074  0.2585 -0.5779
 7055SOL    HW122064   2.588   6.330  -0.087  1.7478  1.3990 -0.5231
 7055SOL    HW222065   2.654   6.360   0.059  0.1007 -0.7057  0.7129
 7056SOL     OW22066   0.415   6.819   2.139  0.0249  0.5968 -0.2046
 7056SOL    HW122067   0.419   6.901   2.082  2.2950  0.4620 -0.3488
 7056SOL    HW222068   0.406   6.738   2.082 -0.3511  0.6270 -0.1884
 7057SOL     OW22069   3.036   6.416   4.666 -0.3048  0.0166  0.6309
 7057SOL    HW122070   3.054   6.514   4.676 -0.4362  0.1174 -0.0822
 7057SOL    HW222071   2.968   6.401   4.594 -0.3945 -0.5907  0.8333
 7058SOL     OW22072   2.915   4.797   5.279 -0.2615  0.0021  0.4577
 7058SOL    HW122073   2.881   4.737   5.207  0.0486  0.2241  0.1269
 7058SOL    HW222074   3.011   4.779   5.297 -0.7508 -1.2861  2.0609
 7059SOL     OW22075   2.269   1.362   2.772  0.0827 -0.0442 -0.2119
 7059SOL    HW122076   2.344   1.417   2.807  0.5182  1.3193 -3.0219
 7059SOL    HW222077   2.207   1.338   2.847  1.6895  1.3570  1.6571
 7060SOL     OW22078   3.957   2.192   2.038  0.0834 -0.2185 -0.0917
 7060SOL    HW122079   3.861   2.217   2.051  0.2957 -0.0700  1.3530
 7060SOL    HW222080   3.982   2.204   1.942 -0.8918  1.3701 -0.1863
 7061SOL     OW22081   1.452   0.615   1.986 -0.5949  1.1621 -0.2233
 7061SOL    HW122082   1.538   0.654   1.951 -0.4441 -0.6422 -2.0938
 7061SOL    HW222083   1.469   0.572   2.074  0.1911  1.7073 -0.0950
 7062SOL     OW22084   3.459   6.502   3.201  0.7260  0.2108  0.4678
 7062SOL    HW122085   3.478   6.411   3.165 -1.1246  0.3564 -1.1038
 7062SOL    HW222086   3.432   6.562   3.125 -3.2705  0.6016  1.9643
 7063SOL     OW22087   6.873   1.228   0.663 -0.0793 -0.0430  0.0294
 7063SOL    HW122088   6.851   1.175   0.744 -0.8380  1.2798  0.7361
 7063SOL    HW222089   6.828   1.318   0.669  2.7194  1.4695 -0.1559
 7064SOL     OW22090   3.824   2.110   4.507 -0.3525  0.4768  0.5874
 7064SOL    HW122091   3.919   2.124   4.481 -0.0608  0.3961  1.5724
 7064SOL    HW222092   3.772   2.078   4.428  0.9747 -1.9446  0.6203
 7065SOL     OW22093   4.193   6.758   2.428  0.1143 -0.7971  0.2309
 7065SOL    HW122094   4.248   6.690   2.380 -0.8561 -1.2417 -0.2826
 7065SOL    HW222095   4.183   6.730   2.524 -0.9342 -1.8207 -0.1532
 7066SOL     OW22096   5.423   0.545   0.593 -0.1730  0.0945  0.1236
 7066SOL    HW122097   5.446   0.643   0.592 -0.5338  0.1913 -0.8419
 7066SOL    HW222098   5.477   0.498   0.662  0.7825  0.7961 -0.1256
 7067SOL     OW22099   3.680   3.909   6.763 -0.7469 -0.0361  0.2228
 7067SOL    HW122100   3.704   4.000   6.730  1.8185 -1.0846 -1.1287
 7067SOL    HW222101   3.705   3.841   6.693 -2.2091 -1.8198  1.3475
 7068SOL     OW22102   4.074   5.269   3.926 -0.3598  0.7223  0.0025
 7068SOL    HW122103   4.019   5.331   3.870  0.2097  2.5915  1.4149
 7068SOL    HW222104   4.153   5.317   3.962  1.2192 -1.3968 -0.4103
 7069SOL     OW22105   4.275   1.155   0.234  0.1812  0.0731  0.3177
 7069SOL    HW122106   4.189   1.162   0.284  0.8056 -0.2693  1.4804
 7069SOL    HW222107   4.266   1.086   0.162  0.0454 -1.4665  1.7185
 7070SOL     OW22108   6.767   2.832   4.673  0.2197 -0.2290  0.1768
 7070SOL    HW122109   6.690   2.859   4.616 -0.2455 -2.5343 -0.3778
 7070SOL    HW222110   6.738   2.758   4.734  1.6544 -0.1966  0.9296
 7071SOL     OW22111   3.924   4.005   5.487 -0.1183  0.3278 -0.6501
 7071SOL    HW122112   3.913   4.038   5.393  0.8945  2.2470 -0.1567
 7071SOL    HW222113   3.862   4.056   5.548  0.3894  0.2480 -0.0528
 7072SOL     OW22114   1.896   3.073   5.426  0.0172  0.1712 -0.3159
 7072SOL    HW122115   1.882   3.115   5.515 -3.6059  0.1627 -0.7276
 7072SOL    HW222116   1.931   3.141   5.361 -0.9003  1.2136  0.2496
 7073SOL     OW22117   2.150   3.116   3.731 -0.3192  0.3619  0.0966
 7073SOL    HW122118   2.089   3.048   3.772  0.2694 -0.5155 -0.4288
 7073SOL    HW222119   2.242   3.076   3.719 -0.1380  1.0073 -0.8581
 7074SOL     OW22120   6.699   2.590   1.464 -0.6855 -0.0259  0.2535
 7074SOL    HW122121   6.631   2.517   1.466 -0.1644 -0.4971  0.9199
 7074SOL    HW222122   6.775   2.563   1.405  0.5413 -0.9707  2.1920
 7075SOL     OW22123   1.750   5.132   1.883 -0.0051  0.9084 -0.6313
 7075SOL    HW122124   1.676   5.111   1.818  0.2865 -0.2210 -0.6279
 7075SOL    HW222125   1.823   5.181   1.835  0.3270 -0.1481 -1.2501
 7076SOL     OW22126   6.563   1.988   1.606  0.3083 -0.4632  0.4206
 7076SOL    HW122127   6.558   1.920   1.532  0.4208 -0.4763  0.4247
 7076SOL    HW222128   6.502   2.064   1.585 -0.3084 -0.8588  0.7202
 7077SOL     OW22129   3.618   4.991   1.851  0.4126  0.2153 -0.0783
 7077SOL    HW122130   3.604   4.901   1.890  2.1697 -0.3661 -0.7154
 7077SOL    HW222131   3.586   4.992   1.756 -1.5491  0.9138  0.5344
 7078SOL     OW22132   0.155   1.656   5.787 -0.3984 -0.4074 -0.6031
 7078SOL    HW122133   0.229   1.703   5.740  0.5819 -0.0718  1.1756
 7078SOL    HW222134   0.182   1.561   5.806  0.5802  0.2962  1.9765
 7079SOL     OW22135   2.072   4.478   3.905 -0.8299  0.4922  0.3281
 7079SOL    HW122136   2.117   4.532   3.977 -1.9223  0.9913  0.6500
 7079SOL    HW222137   1.997   4.425   3.945 -0.9031  0.1050 -0.3034
 7080SOL     OW22138   4.609   1.276   0.596  0.3415  0.5235  0.1701
 7080SOL    HW122139   4.569   1.366   0.579 -0.2975  0.1321 -0.4254
 7080SOL    HW222140   4.550   1.205   0.558  0.4251 -0.2110  1.3505
 7081SOL     OW22141   2.621   4.912   5.647 -0.2199  0.1868  0.0652
 7081SOL    HW122142   2.683   4.849   5.601  1.2205  1.3925  0.2687
 7081SOL    HW222143   2.527   4.881   5.636  0.3349 -1.1902 -1.0512
 7082SOL     OW22144   1.159   3.734   0.680  0.7379  0.2349  0.0966
 7082SOL    HW122145   1.159   3.673   0.601 -0.0566 -0.7041  0.7964
 7082SOL    HW222146   1.110   3.818   0.657  0.3675 -0.1002 -0.3521
 7083SOL     OW22147   6.122   1.503   4.335 -0.1372 -0.0899 -0.2651
 7083SOL    HW122148   6.036   1.485   4.287  0.5327 -0.3778 -1.3738
 7083SOL    HW222149   6.199   1.485   4.275  0.7239 -0.0745  0.7971
 7084SOL     OW22150   2.425   5.198   6.476  1.1154  0.7706  0.3657
 7084SOL    HW122151   2.422   5.297   6.488  2.6710  0.8316  0.3755
 7084SOL    HW222152   2.491   5.175   6.405  0.4976 -0.2517  0.1016
 7085SOL     OW22153   1.239   5.217   1.792  0.2185 -0.1290 -0.8681
 7085SOL    HW122154   1.271   5.134   1.747 -2.8629 -1.4938 -0.8189
 7085SOL    HW222155   1.281   5.297   1.750  2.3417 -1.6258 -1.7454
 7086SOL     OW22156   4.656   1.685   4.513 -0.4474  0.6976  0.3365
 7086SOL    HW122157   4.578   1.630   4.542 -1.3731  1.6801 -0.2209
 7086SOL    HW222158   4.734   1.667   4.573 -0.4753 -1.7730 -0.2724
 7087SOL     OW22159   4.963   2.984   3.985  0.0118  0.3972  0.7331
 7087SOL    HW122160   4.914   2.986   4.072  0.0984 -1.2170  0.8322
 7087SOL    HW222161   4.912   2.930   3.918 -0.3000  2.0202 -0.4077
 7088SOL     OW22162   0.061   2.023   4.778 -0.6593 -0.6064  0.0583
 7088SOL    HW122163  -0.014   2.064   4.727  0.2048  1.0554  0.0434
 7088SOL    HW222164   0.134   2.091   4.790  0.2477 -1.7438  1.2737
 7089SOL     OW22165   5.638   6.531   1.816  0.2436 -0.5273 -0.3655
 7089SOL    HW122166   5.654   6.538   1.718  0.2863  1.3045 -0.2487
 7089SOL    HW222167   5.573   6.601   1.845  0.4290 -0.8702  0.9626
 7090SOL     OW22168   6.276   2.873   1.542  0.1863  0.1598 -0.2215
 7090SOL    HW122169   6.365   2.830   1.545 -0.3662 -1.0097  2.5642
 7090SOL    HW222170   6.256   2.914   1.631 -2.1131  0.2419 -0.7111
 7091SOL     OW22171   4.854   1.589   6.090  0.3474 -0.1919  0.2142
 7091SOL    HW122172   4.851   1.567   5.992  0.7438 -1.0313  0.3834
 7091SOL    HW222173   4.794   1.667   6.108 -0.4837 -0.6346 -0.5379
 7092SOL     OW22174   4.779   0.462   0.325 -0.4992  0.0211 -0.1573
 7092SOL    HW122175   4.815   0.554   0.309  0.4365 -0.2944  0.0483
 7092SOL    HW222176   4.764   0.416   0.237  3.0526 -1.1172 -0.3117
 7093SOL     OW22177   4.951   2.928   0.886  0.2885 -0.3947  0.2637
 7093SOL    HW122178   4.893   2.850   0.912  0.8844 -0.4790  1.3746
 7093SOL    HW222179   5.010   2.953   0.962  0.9667  0.3809 -0.4938
 7094SOL     OW22180   3.405   0.571   6.878 -0.5855  0.0388  0.2803
 7094SOL    HW122181   3.385   0.549   6.973  0.9582  0.0693  0.6430
 7094SOL    HW222182   3.373   0.664   6.858  0.6722  0.7548  1.3434
 7095SOL     OW22183   3.058   6.329   2.145 -0.1147  0.0541 -0.0886
 7095SOL    HW122184   3.051   6.425   2.117 -4.6515 -0.4190 -1.4641
 7095SOL    HW222185   3.069   6.324   2.244  0.5586  1.9628 -0.0174
 7096SOL     OW22186   6.714   3.634   6.366  0.0357  0.1265  0.3608
 7096SOL    HW122187   6.786   3.586   6.416 -0.4681 -0.1660  0.8114
 7096SOL    HW222188   6.752   3.717   6.325  0.4685  0.3453  1.1826
 7097SOL     OW22189   5.510   2.144   2.752 -0.3004 -0.5267 -0.1942
 7097SOL    HW122190   5.436   2.158   2.818 -0.8034  0.1410 -0.8698
 7097SOL    HW222191   5.558   2.059   2.772 -0.8248 -0.6275  0.6634
 7098SOL     OW22192   1.628   1.075   1.434 -0.1452 -0.9123  0.1188
 7098SOL    HW122193   1.530   1.092   1.449 -0.3406 -2.0177  0.1999
 7098SOL    HW222194   1.641   0.980   1.406  0.8293 -0.5234 -0.7908
 7099SOL     OW22195   2.769   1.031   5.772  0.4027 -0.4428 -0.2958
 7099SOL    HW122196   2.780   0.943   5.727 -2.3031 -1.0518  0.0608
 7099SOL    HW222197   2.784   1.019   5.871  0.3758 -0.4118 -0.2885
 7100SOL     OW22198   6.665   6.058   0.978 -0.2404  0.3492 -0.8695
 7100SOL    HW122199   6.623   6.144   1.006 -1.0077 -0.7568  1.7557
 7100SOL    HW222200   6.750   6.076   0.930  0.2391  2.5728  0.6558
 7101SOL     OW22201   0.855   6.831   5.826 -0.5191 -0.5641  0.0902
 7101SOL    HW122202   0.775   6.847   5.767 -0.2984  1.1783  0.2275
 7101SOL    HW222203   0.853   6.736   5.859 -1.9681 -0.8545 -0.7297
 7102SOL     OW22204   4.926   1.454   2.501  0.4841 -0.3468 -0.8182
 7102SOL    HW122205   4.886   1.441   2.592  1.3823  1.7758 -0.0627
 7102SOL    HW222206   4.861   1.502   2.442  0.5991 -0.0432 -0.6989
 7103SOL     OW22207   6.069   2.315   4.108  0.3817  0.1353 -0.4368
 7103SOL    HW122208   6.018   2.397   4.082 -0.1309  0.4846  1.4981
 7103SOL    HW222209   6.071   2.307   4.208  1.4194 -1.5973 -0.5483
 7104SOL     OW22210   3.780   1.761   2.515 -0.0941 -0.5715  0.1993
 7104SOL    HW122211   3.877   1.777   2.497 -0.3680 -1.1172 -2.0621
 7104SOL    HW222212   3.769   1.675   2.565  0.5181 -1.3195 -0.9194
 7105SOL     OW22213   2.145   2.662   1.314  0.0732 -0.0655 -0.3177
 7105SOL    HW122214   2.155   2.745   1.259 -1.2813  0.1757 -0.2507
 7105SOL    HW222215   2.221   2.655   1.379 -0.2432  1.5936  0.2788
 7106SOL     OW22216   0.983   3.220   1.142  0.4171  0.5400 -0.4606
 7106SOL    HW122217   1.022   3.307   1.113  1.2369  1.0358  1.9001
 7106SOL    HW222218   0.933   3.179   1.066  2.3367  1.7029 -2.4755
 7107SOL     OW22219   5.351   1.048   6.454  0.0258  0.2136  0.1286
 7107SOL    HW122220   5.382   1.118   6.390  1.0881 -0.0378  0.3608
 7107SOL    HW222221   5.330   0.964   6.404 -0.1701  0.3472 -0.0149
 7108SOL     OW22222   3.170   0.169   1.379 -0.0335 -0.1511 -0.1598
 7108SOL    HW122223   3.139   0.074   1.380 -0.9741  0.1387 -0.3609
 7108SOL    HW222224   3.263   0.174   1.344 -0.0985 -0.9629 -0.4658
 7109SOL     OW22225   1.099   4.812   0.095 -0.3612 -0.2215 -0.6353
 7109SOL    HW122226   1.124   4.819   0.191 -2.4724  1.0503 -0.0934
 7109SOL    HW222227   1.137   4.890   0.045 -2.5607  1.3857  0.0632
 7110SOL     OW22228   1.807   4.723   5.424 -0.1093 -0.0016  0.5492
 7110SOL    HW122229   1.725   4.668   5.442 -1.0086  1.0528 -0.1358
 7110SOL    HW222230   1.793   4.816   5.460  0.7531  0.2203  0.3395
 7111SOL     OW22231   5.555   3.032   5.135 -0.2145 -0.6353 -0.5826
 7111SOL    HW122232   5.619   2.998   5.066  1.0117 -2.5318  1.3601
 7111SOL    HW222233   5.601   3.100   5.193 -0.4207 -0.8958 -0.1077
 7112SOL     OW22234   0.319   4.795   4.782  0.3336  0.2783  0.3012
 7112SOL    HW122235   0.291   4.807   4.687 -0.9786  0.2552  0.6597
 7112SOL    HW222236   0.365   4.877   4.815  2.0736 -0.2264 -0.7498
 7113SOL     OW22237   4.213   6.307   4.975  0.2983 -0.0066  0.8194
 7113SOL    HW122238   4.241   6.226   5.027 -1.0209 -0.7088  0.4938
 7113SOL    HW222239   4.137   6.352   5.022 -0.3870 -0.2056 -0.0669
 7114SOL     OW22240   4.236   4.299   6.916  0.2714 -0.4136 -0.3238
 7114SOL    HW122241   4.244   4.201   6.900  2.4581 -0.3177 -0.1509
 7114SOL    HW222242   4.178   4.315   6.996 -1.7733 -1.4182 -1.5407
 7115SOL     OW22243   5.615   2.793   6.101  0.0432  0.3955  0.0363
 7115SOL    HW122244   5.639   2.733   6.024  1.0417  0.6783  0.1125
 7115SOL    HW222245   5.563   2.871   6.068 -1.7377 -0.7471  0.0006
 7116SOL     OW22246   0.937   5.244   6.126  0.2797 -0.0981 -0.1593
 7116SOL    HW122247   0.978   5.335   6.119 -1.0055  0.4599 -0.7350
 7116SOL    HW222248   0.943   5.213   6.221  1.2765  0.3166 -0.0737
 7117SOL     OW22249   3.364   1.477   3.634  0.4443  0.2809 -0.2414
 7117SOL    HW122250   3.338   1.386   3.665  2.2009  0.6489  2.6863
 7117SOL    HW222251   3.306   1.546   3.679  2.0575  0.7595  1.2253
 7118SOL     OW22252   6.875   6.143   6.553  0.2386 -0.1940 -0.5636
 7118SOL    HW122253   6.821   6.108   6.630 -0.0013  0.3211 -0.4944
 7118SOL    HW222254   6.863   6.083   6.474  0.3690 -0.6443 -0.2480
 7119SOL     OW22255   1.260   5.642   5.466 -0.5607  0.5701  0.1764
 7119SOL    HW122256   1.334   5.658   5.530  0.0014  1.2553 -0.6159
 7119SOL    HW222257   1.199   5.722   5.465  0.0983  1.0811 -0.9891
 7120SOL     OW22258   4.968   2.742   3.338 -0.0088 -0.1703  0.7925
 7120SOL    HW122259   4.999   2.690   3.418 -1.2554 -2.2966 -0.0198
 7120SOL    HW222260   4.977   2.686   3.256 -1.7161  0.7736 -0.0921
 7121SOL     OW22261   2.401   5.401   1.833  0.1726  0.5509 -0.4549
 7121SOL    HW122262   2.347   5.339   1.776 -0.0563  1.0225 -0.7547
 7121SOL    HW222263   2.382   5.496   1.807  0.9284  0.7304 -0.3613
 7122SOL     OW22264   2.671   0.553   5.643 -0.1327  0.0361  0.0923
 7122SOL    HW122265   2.659   0.560   5.544  0.4788 -0.9985 -0.0725
 7122SOL    HW222266   2.614   0.478   5.678  0.1350 -0.0185  0.4177
 7123SOL     OW22267   5.060   3.481   6.050 -0.1109 -0.3693 -0.4926
 7123SOL    HW122268   4.966   3.457   6.024 -0.7612  1.5815 -0.0767
 7123SOL    HW222269   5.062   3.575   6.083  2.0662 -0.2776 -0.7842
 7124SOL     OW22270   3.164   0.177   5.518  0.0676 -0.2698 -0.1140
 7124SOL    HW122271   3.133   0.235   5.443 -1.3996 -0.0260  0.6649
 7124SOL    HW222272   3.108   0.095   5.523 -0.4314  0.1234  1.2492
 7125SOL     OW22273   3.604   7.016   2.342 -0.1705  0.2466 -0.5039
 7125SOL    HW122274   3.675   7.080   2.369  0.7846  0.4104 -3.1523
 7125SOL    HW222275   3.515   7.062   2.343  0.4824  1.6806 -2.2700
 7126SOL     OW22276   2.263   3.636   0.134  0.4536  0.5542  0.0367
 7126SOL    HW122277   2.298   3.728   0.152  0.7809  0.2927  0.7640
 7126SOL    HW222278   2.164   3.634   0.147  0.6569  0.3897  1.8424
 7127SOL     OW22279   2.813   0.429   5.343  0.1426 -0.1305  0.3124
 7127SOL    HW122280   2.775   0.521   5.328  0.8111 -0.0728 -1.3240
 7127SOL    HW222281   2.741   0.368   5.377 -0.3515  0.9492  1.2548
 7128SOL     OW22282   2.645   3.119   6.337 -0.0324 -0.2649 -0.2641
 7128SOL    HW122283   2.651   3.040   6.276  0.8626 -0.2883 -0.1571
 7128SOL    HW222284   2.691   3.197   6.295  0.2070 -0.1609  0.1835
 7129SOL     OW22285   5.735   2.485   0.269 -0.3263 -0.0485 -0.3169
 7129SOL    HW122286   5.720   2.397   0.316 -0.6949  0.4798  0.5801
 7129SOL    HW222287   5.724   2.560   0.334 -1.6916  0.7621 -1.4198
 7130SOL     OW22288   3.089   6.904   3.634 -0.3740  0.0834 -0.4885
 7130SOL    HW122289   3.186   6.911   3.659 -0.3634 -1.9177  0.2109
 7130SOL    HW222290   3.037   6.870   3.713 -1.6721  1.1286 -0.8541
 7131SOL     OW22291   1.409   1.217   3.793 -0.4670 -0.5249 -0.1089
 7131SOL    HW122292   1.458   1.202   3.878  1.2154  1.0702 -0.7126
 7131SOL    HW222293   1.313   1.237   3.812  0.3478  2.3045  1.7035
 7132SOL     OW22294   5.452   5.410   1.071 -0.8779  0.8524  0.5642
 7132SOL    HW122295   5.393   5.350   1.018 -0.6256  0.7207  0.4292
 7132SOL    HW222296   5.545   5.406   1.034 -0.7509  0.9355  0.8727
 7133SOL     OW22297   4.819   5.640   3.494  0.1411  0.8093  0.6643
 7133SOL    HW122298   4.902   5.656   3.547 -0.5535 -0.2396  2.1170
 7133SOL    HW222299   4.826   5.551   3.448  1.9840  2.8610 -3.5305
 7134SOL     OW22300   5.661   4.791   5.239 -0.7145 -0.0444 -0.6941
 7134SOL    HW122301   5.573   4.807   5.285 -0.4557  1.7402 -0.7190
 7134SOL    HW222302   5.645   4.744   5.153 -1.1902 -3.7689  1.2232
 7135SOL     OW22303   2.684   0.142   5.752 -0.0074 -0.1984  0.1619
 7135SOL    HW122304   2.731   0.066   5.706  0.2404  1.5421 -2.7519
 7135SOL    HW222305   2.748   0.189   5.813  0.1398 -1.6141  1.1390
 7136SOL     OW22306   0.598   1.738   3.311 -0.3185  0.0267  0.3188
 7136SOL    HW122307   0.665   1.798   3.266  1.1388 -2.6750 -1.4112
 7136SOL    HW222308   0.618   1.732   3.408  1.5190 -0.1391 -0.0389
 7137SOL     OW22309   4.375   0.133   1.920 -0.3660  0.5479 -0.4408
 7137SOL    HW122310   4.368   0.037   1.948 -2.1124  1.1628  1.4780
 7137SOL    HW222311   4.287   0.164   1.885  0.1971  1.4520 -1.1101
 7138SOL     OW22312   6.224   2.747   0.735 -0.2192 -0.1533 -0.5115
 7138SOL    HW122313   6.212   2.846   0.735  1.9402  0.2296 -3.0388
 7138SOL    HW222314   6.291   2.722   0.805  0.1150  0.3603 -0.6348
 7139SOL     OW22315   5.557   6.486   3.585 -0.0351  0.1224  0.9070
 7139SOL    HW122316   5.524   6.557   3.522  0.7307 -0.4620 -0.1934
 7139SOL    HW222317   5.552   6.397   3.539 -1.9377 -0.7367  2.6036
 7140SOL     OW22318   4.958   4.287   2.245 -0.4816 -0.1637  0.3939
 7140SOL    HW122319   4.947   4.310   2.342  2.5054 -0.4075  0.8789
 7140SOL    HW222320   4.973   4.371   2.193 -2.3466 -0.0087  0.0524
 7141SOL     OW22321   1.970   2.182   6.700 -0.1531  0.2482 -0.5495
 7141SOL    HW122322   1.926   2.221   6.781  1.8285  1.5962 -0.0352
 7141SOL    HW222323   1.925   2.096   6.675 -1.3148  0.2009  1.5055
 7142SOL     OW22324   2.710   4.982   5.242 -0.7367  1.0865 -0.0095
 7142SOL    HW122325   2.746   5.067   5.279 -0.7919  0.4135  1.6646
 7142SOL    HW222326   2.768   4.906   5.269 -1.1868  0.4679 -0.7261
 7143SOL     OW22327   2.121   2.909   5.624 -0.2704 -0.0287  0.2292
 7143SOL    HW122328   2.182   2.968   5.676  1.3514 -0.3440 -1.2068
 7143SOL    HW222329   2.130   2.929   5.526 -0.4472 -1.8952 -0.2201
 7144SOL     OW22330   6.950   3.386   5.033 -0.2743 -0.4805 -0.7937
 7144SOL    HW122331   6.890   3.410   5.110 -0.7266 -2.6614 -0.3905
 7144SOL    HW222332   6.895   3.349   4.958  0.4723 -2.4011 -0.4660
 7145SOL     OW22333   6.679   3.423   6.618 -0.2131 -0.2421 -0.4537
 7145SOL    HW122334   6.706   3.329   6.600  0.3225 -0.1995  0.0878
 7145SOL    HW222335   6.585   3.437   6.587 -1.0574 -1.5481  1.3457
 7146SOL     OW22336   0.465   1.602   4.476 -0.5281 -0.2562  0.0775
 7146SOL    HW122337   0.370   1.581   4.453 -0.7732  0.6199  0.2408
 7146SOL    HW222338   0.469   1.634   4.570  0.2161 -2.1193  0.7293
 7147SOL     OW22339   2.289   1.056   6.524 -0.1674 -0.4243 -0.6936
 7147SOL    HW122340   2.350   1.116   6.576 -0.5301 -0.5814 -0.0821
 7147SOL    HW222341   2.343   0.983   6.482 -0.2130 -2.3998  2.3612
 7148SOL     OW22342   5.370   0.004   5.726 -0.1125 -0.3150 -0.0225
 7148SOL    HW122343   5.317  -0.063   5.778  0.8049 -1.0510  0.0060
 7148SOL    HW222344   5.445   0.038   5.784  0.3013 -0.3688 -0.5180
 7149SOL     OW22345   6.846   1.306   3.041 -0.0506 -0.3577  0.1931
 7149SOL    HW122346   6.793   1.351   2.969  1.3544  3.3556  1.2076
 7149SOL    HW222347   6.834   1.357   3.127  1.7906 -1.9559  1.4874
 7150SOL     OW22348   2.071   2.732   6.244  0.2786  0.0218 -0.0399
 7150SOL    HW122349   2.050   2.682   6.161 -0.7804 -0.3214  0.4140
 7150SOL    HW222350   1.988   2.776   6.278  0.9222  1.0515  0.2587
 7151SOL     OW22351   6.604   3.091   5.272  0.3622  1.3210  0.2700
 7151SOL    HW122352   6.669   3.062   5.202 -0.0533 -1.5261  0.9340
 7151SOL    HW222353   6.653   3.108   5.358  0.3430 -1.4527  0.9554
 7152SOL     OW22354   5.669   0.209   4.276  0.3160  0.0480  0.2514
 7152SOL    HW122355   5.762   0.204   4.312  0.0662 -1.7151  0.7355
 7152SOL    HW222356   5.604   0.220   4.351  0.1578  2.4161 -0.1555
 7153SOL     OW22357   5.209   3.905   6.649  0.2831  0.4313  0.2623
 7153SOL    HW122358   5.124   3.924   6.697 -0.4705 -0.5520 -0.6212
 7153SOL    HW222359   5.238   3.986   6.598 -0.6226  0.5074 -0.1473
 7154SOL     OW22360   0.246   6.763   0.472  0.5345 -0.1692  0.2565
 7154SOL    HW122361   0.182   6.701   0.426 -0.1335  1.0660 -0.5390
 7154SOL    HW222362   0.340   6.734   0.452  0.2822 -1.9956  1.4238
 7155SOL     OW22363   2.684   5.544   0.737 -0.1134  0.0490 -0.3445
 7155SOL    HW122364   2.723   5.524   0.647 -0.1065  0.8999 -0.5368
 7155SOL    HW222365   2.625   5.468   0.765  0.6578 -0.6638 -0.6261
 7156SOL     OW22366   0.825   4.236   4.817 -0.3020 -0.2990 -0.7213
 7156SOL    HW122367   0.838   4.318   4.762  0.1564  0.7795  0.9295
 7156SOL    HW222368   0.765   4.172   4.768 -0.8788  1.1185 -1.9233
 7157SOL     OW22369   0.268   5.524   6.276 -0.1455 -0.6989 -0.0160
 7157SOL    HW122370   0.256   5.553   6.371  0.4273 -1.6110  0.3418
 7157SOL    HW222371   0.181   5.492   6.239 -0.1468 -1.3940  0.5684
 7158SOL     OW22372   3.049   5.809   3.646 -0.3570 -0.3124 -0.0749
 7158SOL    HW122373   3.070   5.751   3.725 -0.2737 -1.3924 -0.8609
 7158SOL    HW222374   2.949   5.818   3.638 -0.3792 -0.5766 -0.1074
 7159SOL     OW22375   1.183   4.753   3.016  0.0528 -0.2861 -0.2316
 7159SOL    HW122376   1.083   4.748   3.016 -0.0785  1.2902  1.4767
 7159SOL    HW222377   1.217   4.740   2.923 -1.4579 -4.4636 -0.4231
 7160SOL     OW22378   7.011   6.404   2.479  0.7617 -0.3289  0.2201
 7160SOL    HW122379   7.041   6.314   2.446  1.5329 -0.1895  0.5106
 7160SOL    HW222380   7.012   6.404   2.579 -1.2113 -0.6358  0.2740
 7161SOL     OW22381   4.931   2.292   2.175  0.0381 -0.3328 -0.7612
 7161SOL    HW122382   4.973   2.289   2.266 -0.6025  0.2892 -0.4264
 7161SOL    HW222383   4.876   2.210   2.161 -2.1821  0.7959  0.6201
 7162SOL     OW22384   5.907   0.021   6.205  0.0608  0.2545 -0.0528
 7162SOL    HW122385   5.984  -0.005   6.148  0.7047 -1.3942  1.4714
 7162SOL    HW222386   5.940   0.063   6.290 -0.5883 -1.6553  1.2098
 7163SOL     OW22387   0.107   5.556   0.655 -0.3115 -0.0967  0.2178
 7163SOL    HW122388   0.082   5.466   0.690 -0.4325  0.3232  1.2549
 7163SOL    HW222389   0.055   5.626   0.703  0.7691  0.6158  0.3975
 7164SOL     OW22390   2.890   5.529   6.085 -0.3391 -0.0922 -0.1372
 7164SOL    HW122391   2.849   5.566   6.168  0.5662 -0.3406  0.4400
 7164SOL    HW222392   2.925   5.437   6.103 -1.4381 -0.7447 -1.2034
 7165SOL     OW22393   2.905   2.784   5.359  0.0264 -0.8257  0.0731
 7165SOL    HW122394   2.936   2.868   5.313  1.4433  0.4937  3.1099
 7165SOL    HW222395   2.812   2.797   5.393  0.2798 -0.4094  0.6257
 7166SOL     OW22396   0.867   6.797   6.929  1.2156 -0.1953 -0.2707
 7166SOL    HW122397   0.828   6.775   6.839 -0.3098  1.2431 -0.0294
 7166SOL    HW222398   0.902   6.891   6.928 -0.1994  0.3882  1.0179
 7167SOL     OW22399   0.285   3.983   5.237 -0.5605 -0.1699 -0.4943
 7167SOL    HW122400   0.293   4.017   5.143  2.0767 -1.2075 -0.7327
 7167SOL    HW222401   0.281   3.883   5.236  1.2051 -0.2940  0.5022
 7168SOL     OW22402   6.938   0.727   3.446  0.0756 -0.3437  0.1877
 7168SOL    HW122403   6.922   0.630   3.430  0.8434 -0.1668 -1.9402
 7168SOL    HW222404   7.028   0.740   3.486 -0.0853 -0.5025  0.6085
 7169SOL     OW22405   1.459   5.745   5.907  0.5273  0.4617  0.6098
 7169SOL    HW122406   1.458   5.647   5.922  2.6679  0.4939  1.2307
 7169SOL    HW222407   1.459   5.764   5.808 -0.4146 -0.1060  0.4866
 7170SOL     OW22408   4.987   2.969   1.802  0.0944  0.1450  0.5014
 7170SOL    HW122409   4.907   2.999   1.854  0.4443 -0.1579  1.2354
 7170SOL    HW222410   5.047   3.047   1.784 -1.4155  0.8275 -2.0307
 7171SOL     OW22411   6.642   5.038   4.079 -0.1474  0.5545 -0.1067
 7171SOL    HW122412   6.742   5.036   4.085 -0.1164  2.9818  2.6445
 7171SOL    HW222413   6.613   5.011   3.987  3.0085 -0.1849 -0.9976
 7172SOL     OW22414   0.392   1.113   4.873  0.1339 -0.4606 -0.3487
 7172SOL    HW122415   0.357   1.131   4.781 -0.4678 -1.4705 -0.3362
 7172SOL    HW222416   0.315   1.099   4.935  0.5312  0.6211  0.4063
 7173SOL     OW22417   3.769   4.886   3.451 -0.3116  0.1293  0.1703
 7173SOL    HW122418   3.769   4.789   3.478  1.1580 -0.4157 -1.5996
 7173SOL    HW222419   3.680   4.909   3.413  0.1646 -1.4147 -2.1177
 7174SOL     OW22420   6.807   3.503   3.610 -0.3695 -0.1001 -0.1107
 7174SOL    HW122421   6.823   3.462   3.700 -0.2227  0.4959  0.1369
 7174SOL    HW222422   6.813   3.602   3.617 -1.3639  0.0092 -0.5695
 7175SOL     OW22423   4.887   2.345   5.542  0.3587 -0.6659  0.3518
 7175SOL    HW122424   4.948   2.292   5.601 -0.8989 -1.1454  1.2717
 7175SOL    HW222425   4.901   2.318   5.447  0.6547 -1.7299  0.6765
 7176SOL     OW22426   6.764   1.630   6.338 -0.5300 -0.2046 -0.9759
 7176SOL    HW122427   6.770   1.730   6.341  4.2276 -0.2574  3.1016
 7176SOL    HW222428   6.816   1.596   6.260 -0.2713  0.4769 -1.1123
 7177SOL     OW22429   1.805   6.777   3.223  0.0473  0.3399  0.4773
 7177SOL    HW122430   1.897   6.737   3.229 -0.7289 -1.9662 -1.6005
 7177SOL    HW222431   1.739   6.706   3.201 -2.0945  2.1791  0.6398
 7178SOL     OW22432   2.362   4.784   5.105  0.2024  0.2208  0.2464
 7178SOL    HW122433   2.346   4.867   5.052  0.2454 -0.0236 -0.1536
 7178SOL    HW222434   2.457   4.755   5.093 -0.2952 -0.9590 -1.1910
 7179SOL     OW22435   4.866   4.339   5.927 -0.0272 -0.3297 -0.5345
 7179SOL    HW122436   4.925   4.258   5.928  1.0850  0.4534 -0.7549
 7179SOL    HW222437   4.868   4.380   5.837  0.6998  0.8467 -0.0031
 7180SOL     OW22438   4.695   2.234   3.833  0.0792 -0.0002  0.5997
 7180SOL    HW122439   4.727   2.254   3.926 -0.3922  0.8853  0.5849
 7180SOL    HW222440   4.614   2.177   3.837 -0.7394  1.1459  0.8015
 7181SOL     OW22441   3.527   6.732   6.748 -0.1460 -0.0218 -0.5594
 7181SOL    HW122442   3.502   6.768   6.838 -1.7576  0.5391 -1.1931
 7181SOL    HW222443   3.455   6.670   6.716 -0.1615  0.6716 -1.9357
 7182SOL     OW22444   2.074   0.129   2.422  0.5379 -0.2080  0.2877
 7182SOL    HW122445   2.112   0.068   2.351 -0.6002 -2.4480  1.4946
 7182SOL    HW222446   2.091   0.090   2.512  0.2732  1.6229  1.1736
 7183SOL     OW22447   0.888   0.673   0.912  0.1614  0.0223 -0.0678
 7183SOL    HW122448   0.928   0.644   1.000 -0.7191  0.4842  0.4930
 7183SOL    HW222449   0.813   0.736   0.929 -0.4588 -0.4173 -1.1395
 7184SOL     OW22450   0.045   3.285   5.674 -0.1610 -0.0299 -1.0145
 7184SOL    HW122451   0.139   3.284   5.706 -0.1672  2.4751 -0.7215
 7184SOL    HW222452  -0.015   3.246   5.744  0.2630  1.9593  0.5504
 7185SOL     OW22453   3.802   0.095   2.906  0.2282  0.1778  0.2169
 7185SOL    HW122454   3.854   0.015   2.874 -0.0403  0.1364 -0.1237
 7185SOL    HW222455   3.729   0.115   2.841 -1.6569 -1.1655  1.8013
 7186SOL     OW22456   5.309   2.949   1.481 -0.4243  0.0798  0.0969
 7186SOL    HW122457   5.317   2.916   1.575 -0.2303  0.5754  0.2579
 7186SOL    HW222458   5.242   3.023   1.476  0.9381  1.3771  0.2190
 7187SOL     OW22459   3.464   4.183   4.227 -0.0294  0.4693  0.9502
 7187SOL    HW122460   3.519   4.194   4.310  1.4724  0.8170 -0.0421
 7187SOL    HW222461   3.384   4.127   4.247 -0.5527  1.8285  2.9857
 7188SOL     OW22462   4.344   6.254   6.400  0.3887  0.6117  0.0841
 7188SOL    HW122463   4.383   6.311   6.472 -0.9990  0.8814  0.6638
 7188SOL    HW222464   4.411   6.242   6.327  1.6653  0.7378  1.1809
 7189SOL     OW22465   5.973   1.240   0.702 -0.5627  0.9548  0.1195
 7189SOL    HW122466   5.943   1.325   0.659 -0.0670  0.7097 -0.7295
 7189SOL    HW222467   6.057   1.257   0.754  0.1151  0.7891 -0.8898
 7190SOL     OW22468   5.343   6.957   1.210 -0.0579  0.3687  0.1650
 7190SOL    HW122469   5.389   6.976   1.297 -3.8494  1.3255  2.1932
 7190SOL    HW222470   5.302   7.040   1.175 -2.0469 -0.7324 -0.2800
 7191SOL     OW22471   0.780   0.533   2.401  0.2817  0.0092 -0.5181
 7191SOL    HW122472   0.867   0.491   2.427  0.2482 -0.4601 -1.1486
 7191SOL    HW222473   0.748   0.494   2.315 -0.6392  0.0453 -0.2109
 7192SOL     OW22474   5.364   4.259   1.187  0.2127  0.3767 -0.6087
 7192SOL    HW122475   5.293   4.228   1.124 -0.0135 -0.3693 -0.0117
 7192SOL    HW222476   5.396   4.349   1.160 -0.1700  0.2448 -1.5418
 7193SOL     OW22477   5.090   2.149   5.634  0.1574 -0.6406  0.1644
 7193SOL    HW122478   5.058   2.086   5.704 -3.0277 -0.9975 -1.4321
 7193SOL    HW222479   5.099   2.101   5.547 -1.0655  0.8003 -0.7977
 7194SOL     OW22480   3.736   3.896   5.092  1.0730  0.0972  0.7665
 7194SOL    HW122481   3.747   3.945   5.006 -1.3230 -1.6348 -0.6309
 7194SOL    HW222482   3.641   3.901   5.123  1.6124 -0.3701  2.6851
 7195SOL     OW22483   4.923   3.915   5.053  0.0434 -0.2599 -0.1490
 7195SOL    HW122484   4.991   3.952   5.117 -2.9211  0.2126  3.0133
 7195SOL    HW222485   4.910   3.818   5.072  0.0993 -0.4359 -0.9989
 7196SOL     OW22486   3.756   5.319   1.888  0.1714 -0.0878 -0.2044
 7196SOL    HW122487   3.765   5.221   1.868 -0.9363 -0.2094 -0.1785
 7196SOL    HW222488   3.675   5.355   1.842 -0.6776  0.3161  1.5309
 7197SOL     OW22489   2.300   4.327   6.982 -0.1758  0.3981  0.1409
 7197SOL    HW122490   2.288   4.303   7.078  0.3739 -1.0371 -0.1115
 7197SOL    HW222491   2.298   4.243   6.927 -2.2550  1.3241 -1.3150
 7198SOL     OW22492   1.903   0.257   1.604  0.1316  0.1323  0.4803
 7198SOL    HW122493   1.966   0.325   1.642  0.0730  0.6892 -0.3858
 7198SOL    HW222494   1.871   0.288   1.514  1.4466 -1.8569 -0.7456
 7199SOL     OW22495   5.678   2.943   4.906  0.3688 -0.4464  0.7521
 7199SOL    HW122496   5.654   2.864   4.849 -3.5408  0.7823  0.3444
 7199SOL    HW222497   5.658   3.027   4.856 -0.5998  0.6931  2.9113
 7200SOL     OW22498   1.354   2.134   0.282 -0.2023  0.3430 -0.3534
 7200SOL    HW122499   1.400   2.047   0.302 -1.2640  0.1195  1.4374
 7200SOL    HW222500   1.368   2.197   0.358  0.7466  1.8757 -1.7377
 7201SOL     OW22501   4.721   6.530   4.904 -0.0194 -0.3557  0.3342
 7201SOL    HW122502   4.694   6.518   4.999 -0.6571 -2.1746 -0.0190
 7201SOL    HW222503   4.672   6.607   4.864 -1.1974 -0.7303  0.9955
 7202SOL     OW22504   5.573   3.849   4.898 -0.6263 -0.3832 -0.2140
 7202SOL    HW122505   5.598   3.844   4.995  1.5080 -0.3803 -0.7093
 7202SOL    HW222506   5.609   3.934   4.859 -1.3615 -0.4432 -1.0491
 7203SOL     OW22507   0.251   2.153   0.161 -1.0888 -0.3491 -0.6570
 7203SOL    HW122508   0.332   2.183   0.110  0.0348 -2.0610  0.0344
 7203SOL    HW222509   0.278   2.115   0.249 -2.4584 -2.4525 -1.0668
 7204SOL     OW22510   3.707   5.925   3.014 -0.2843 -0.0470  0.3315
 7204SOL    HW122511   3.775   5.998   3.000  0.0368 -0.7730 -2.3059
 7204SOL    HW222512   3.725   5.850   2.951 -2.1943 -1.3010  1.1846
 7205SOL     OW22513   3.443   1.812   5.223 -0.3292 -0.1272 -0.0371
 7205SOL    HW122514   3.462   1.846   5.131 -1.1386 -0.3164 -0.2784
 7205SOL    HW222515   3.400   1.722   5.217 -0.3243 -0.1724  0.5329
 7206SOL     OW22516   1.207   2.967   5.933 -0.4114  0.2746 -0.2555
 7206SOL    HW122517   1.303   2.939   5.939  0.0876  1.5832 -1.4848
 7206SOL    HW222518   1.156   2.927   6.009  0.8157 -1.5297 -0.3179
 7207SOL     OW22519   1.186   1.676   3.316 -0.1789  0.0228  0.1467
 7207SOL    HW122520   1.117   1.624   3.366 -1.3630  2.7718  1.5452
 7207SOL    HW222521   1.261   1.701   3.377  0.6992 -0.5320 -0.6696
 7208SOL     OW22522   2.879   6.625   4.215  0.1073 -0.4690  0.1846
 7208SOL    HW122523   2.816   6.599   4.142 -1.4673  0.9268  0.9769
 7208SOL    HW222524   2.960   6.670   4.175 -0.0685 -0.9600 -0.7585
 7209SOL     OW22525   5.545   1.571   1.945  0.0875 -0.2370  0.0908
 7209SOL    HW122526   5.535   1.638   1.872  0.4545 -1.0344 -0.7092
 7209SOL    HW222527   5.612   1.502   1.918  1.8079  0.5623  2.0117
 7210SOL     OW22528   5.140   2.028   6.330 -0.5912 -0.0635  0.1517
 7210SOL    HW122529   5.114   2.092   6.403  0.0637  1.0412 -0.5608
 7210SOL    HW222530   5.076   2.037   6.254  0.4676  0.9704 -0.6394
 7211SOL     OW22531   3.373   6.668   5.511 -0.5404  0.5239 -0.4291
 7211SOL    HW122532   3.348   6.630   5.422  0.1817 -1.2132  0.0617
 7211SOL    HW222533   3.473   6.678   5.515 -0.3954 -0.9277  0.6989
 7212SOL     OW22534   0.330   0.199   4.407  0.3416  0.4269  0.4113
 7212SOL    HW122535   0.357   0.185   4.312  1.7818 -2.2439  1.1265
 7212SOL    HW222536   0.252   0.140   4.429  1.0646 -0.2199  1.3019
 7213SOL     OW22537   4.303   3.124   6.670 -0.0839  0.2578 -0.0392
 7213SOL    HW122538   4.291   3.120   6.769  1.4544  0.1413  0.1688
 7213SOL    HW222539   4.277   3.037   6.629  2.8515 -1.1225  0.7501
 7214SOL     OW22540   5.580   1.371   5.154  0.0397  0.7336 -0.5730
 7214SOL    HW122541   5.618   1.293   5.104 -1.5591 -0.4181 -0.0567
 7214SOL    HW222542   5.632   1.384   5.238 -0.2675 -0.4049 -0.1878
 7215SOL     OW22543   1.022   2.856   4.148  0.0177  0.9489  0.3902
 7215SOL    HW122544   1.039   2.925   4.219 -1.3278  0.3010  1.3931
 7215SOL    HW222545   1.039   2.765   4.186  2.2320  0.6692 -1.0488
 7216SOL     OW22546   1.424   0.143   3.003 -0.0197 -0.5058  0.0469
 7216SOL    HW122547   1.487   0.143   3.081 -0.3541 -1.3299  0.3316
 7216SOL    HW222548   1.370   0.059   3.005 -1.5993  0.4778  0.1882
 7217SOL     OW22549   0.604   4.815   4.270  0.3590  1.1147  0.2399
 7217SOL    HW122550   0.532   4.867   4.317 -1.5278 -1.4136  0.3834
 7217SOL    HW222551   0.658   4.765   4.338 -0.3975 -0.1380 -0.0466
 7218SOL     OW22552   0.688   3.616   5.396  0.0183 -0.0403  0.7215
 7218SOL    HW122553   0.593   3.590   5.410 -0.2427  1.1453  1.2760
 7218SOL    HW222554   0.748   3.543   5.429 -0.6858 -1.2772 -0.6314
 7219SOL     OW22555   4.723   5.246   2.723  0.5269  0.0362 -0.3525
 7219SOL    HW122556   4.730   5.237   2.822  1.4027  0.5870 -0.3545
 7219SOL    HW222557   4.806   5.210   2.680  0.7743  1.0836 -0.7878
 7220SOL     OW22558   6.996   4.064   2.541  0.4457  0.4659 -0.4944
 7220SOL    HW122559   7.052   4.129   2.592 -1.1085  0.8537  0.7761
 7220SOL    HW222560   6.937   4.013   2.604  0.4725 -1.0442 -1.6336
 7221SOL     OW22561   5.299   5.037   4.469 -0.0190 -0.0452  0.7239
 7221SOL    HW122562   5.349   4.976   4.530 -0.4127 -0.5433  0.5533
 7221SOL    HW222563   5.222   5.078   4.519 -1.6082 -2.0553  0.0351
 7222SOL     OW22564   6.347   5.398   2.375  0.0860 -0.5806 -0.5305
 7222SOL    HW122565   6.313   5.313   2.414 -2.3006  0.1248 -0.8677
 7222SOL    HW222566   6.334   5.397   2.276  0.6804 -0.0998 -0.6217
 7223SOL     OW22567   6.112   5.087   1.779 -0.7985 -0.1536 -0.1408
 7223SOL    HW122568   6.080   5.168   1.829  1.2814  0.5229  0.1749
 7223SOL    HW222569   6.033   5.034   1.748 -2.1973  1.4230  0.5675
 7224SOL     OW22570   5.173   4.434   4.089  0.1941 -0.3934  0.5661
 7224SOL    HW122571   5.168   4.533   4.076  4.2234 -0.3715 -2.3829
 7224SOL    HW222572   5.183   4.414   4.187  2.1995  2.3721  1.0271
 7225SOL     OW22573   0.912   5.388   0.162 -0.1453 -0.2009  0.9303
 7225SOL    HW122574   0.878   5.295   0.144 -0.2948  0.3900 -2.6436
 7225SOL    HW222575   1.010   5.384   0.180  0.5257 -0.9853 -2.1783
 7226SOL     OW22576   6.631   6.300   0.305  0.1494  0.4371  0.4986
 7226SOL    HW122577   6.663   6.314   0.212  0.6693 -0.4658  0.5341
 7226SOL    HW222578   6.535   6.269   0.303  0.1243  0.5263  0.2749
 7227SOL     OW22579   2.071   0.744   0.998  0.4397  0.0598  0.2435
 7227SOL    HW122580   2.029   0.655   1.015 -0.8361  0.5669 -0.1054
 7227SOL    HW222581   2.153   0.753   1.054 -0.1341 -0.8147  1.2813
 7228SOL     OW22582   1.059   2.552   4.975 -0.3323  0.1000  0.6774
 7228SOL    HW122583   1.091   2.585   4.887 -0.6849 -0.1716  0.4428
 7228SOL    HW222584   1.001   2.622   5.017  1.4740  1.0764  1.6376
 7229SOL     OW22585   6.624   1.078   6.083 -0.1231  0.6788  0.0035
 7229SOL    HW122586   6.526   1.076   6.102 -0.1965  3.6031  0.4108
 7229SOL    HW222587   6.638   1.108   5.989  0.4253 -1.3217 -0.6026
 7230SOL     OW22588   1.714   5.523   5.200 -0.5906  0.5245 -0.4118
 7230SOL    HW122589   1.776   5.445   5.197 -0.7590  0.3631  0.0830
 7230SOL    HW222590   1.688   5.541   5.295 -2.8800 -0.6675 -0.7433
 7231SOL     OW22591   3.973   2.059   6.754  0.1267  0.2925  0.0437
 7231SOL    HW122592   4.046   2.078   6.689 -0.1490  0.7436 -0.1435
 7231SOL    HW222593   3.889   2.105   6.723 -0.9332 -2.2427 -1.1044
 7232SOL     OW22594   5.379   4.619   2.608  0.5103 -0.6330 -0.1768
 7232SOL    HW122595   5.293   4.669   2.594 -0.4900 -2.2850 -0.2506
 7232SOL    HW222596   5.428   4.611   2.521  0.7213  0.2826 -0.1437
 7233SOL     OW22597   6.881   1.559   1.036 -0.1238  0.5351  0.0724
 7233SOL    HW122598   6.799   1.515   1.002 -0.4356  1.0068  0.2082
 7233SOL    HW222599   6.958   1.496   1.029 -0.7704 -0.4322  1.2741
 7234SOL     OW22600   5.488   6.909   2.601 -0.1579 -0.5020  0.7892
 7234SOL    HW122601   5.476   6.997   2.555  0.5525 -0.0919  1.3646
 7234SOL    HW222602   5.398   6.867   2.615 -0.5719  0.4577  1.1241
 7235SOL     OW22603   5.748   6.059   6.898  0.3026 -0.2222  0.0390
 7235SOL    HW122604   5.681   6.118   6.853 -2.1049 -2.0889  0.9386
 7235SOL    HW222605   5.739   6.067   6.997 -0.6016 -2.5391  0.1989
 7236SOL     OW22606   1.010   2.416   3.044 -0.2304 -0.0598  0.1310
 7236SOL    HW122607   0.954   2.497   3.062 -1.3534 -0.9673  0.7898
 7236SOL    HW222608   1.084   2.411   3.111  0.7969  1.2178 -0.8303
 7237SOL     OW22609   4.665   2.445   6.535  0.0217 -0.2774 -0.3947
 7237SOL    HW122610   4.575   2.482   6.512  1.7958  4.2044 -1.0184
 7237SOL    HW222611   4.730   2.468   6.462  2.0699 -1.8966  0.8051
 7238SOL     OW22612   3.840   3.781   0.581 -0.4464  0.0804 -0.5601
 7238SOL    HW122613   3.755   3.731   0.592 -0.8041 -0.1276 -3.5833
 7238SOL    HW222614   3.907   3.748   0.648 -1.8277 -1.7832 -0.0286
 7239SOL     OW22615   6.098   1.641   3.945  0.2904  0.1971  0.3134
 7239SOL    HW122616   6.054   1.557   3.912 -0.5571  0.9789 -0.6487
 7239SOL    HW222617   6.165   1.671   3.877 -0.2446  0.9050  0.0863
 7240SOL     OW22618   0.221   4.015   6.871 -0.0634  0.3406 -0.8039
 7240SOL    HW122619   0.280   4.077   6.923 -1.2316  1.7046 -1.0615
 7240SOL    HW222620   0.174   3.953   6.934  1.5369 -0.7200 -0.5872
 7241SOL     OW22621   1.720   7.022   3.693  0.0891 -0.4195  0.0449
 7241SOL    HW122622   1.773   7.034   3.777  0.8302  1.4219 -0.6273
 7241SOL    HW222623   1.623   7.029   3.713  0.2145 -0.8854  0.8584
 7242SOL     OW22624   7.003   2.143   0.140  0.0646  0.2227  0.4035
 7242SOL    HW122625   6.959   2.161   0.052  0.2941  1.4506  0.5266
 7242SOL    HW222626   7.102   2.136   0.128  0.2556  1.8338  0.7327
 7243SOL     OW22627   5.372   5.165   5.617  0.4436  0.3088 -0.4606
 7243SOL    HW122628   5.434   5.206   5.683  0.5423  0.0079 -0.3630
 7243SOL    HW222629   5.364   5.224   5.537  1.8295 -0.2152 -1.0256
 7244SOL     OW22630   0.681   5.265   1.345 -0.4560 -0.2214  0.0227
 7244SOL    HW122631   0.756   5.274   1.411 -0.5497 -0.4500  0.1604
 7244SOL    HW222632   0.714   5.220   1.262 -0.0533  1.0727 -0.5545
 7245SOL     OW22633   2.838   0.583   6.670  0.3338  0.0914 -0.2419
 7245SOL    HW122634   2.762   0.631   6.715  1.3115  0.6062  0.9377
 7245SOL    HW222635   2.828   0.485   6.686  0.6161  0.2540  1.1040
 7246SOL     OW22636   4.734   6.758   3.545  0.4842 -0.3076 -0.5832
 7246SOL    HW122637   4.785   6.821   3.487  1.4225  0.1685  0.7110
 7246SOL    HW222638   4.769   6.763   3.638 -2.3777  0.5612  0.5619
 7247SOL     OW22639   2.953   3.536   4.041 -0.0634  0.5638 -0.4047
 7247SOL    HW122640   2.962   3.483   4.125 -1.5730  0.4952 -0.2646
 7247SOL    HW222641   2.956   3.475   3.962  0.9023  0.5811 -0.3925
 7248SOL     OW22642   1.992   2.548   4.910 -0.2860  0.2020 -0.3870
 7248SOL    HW122643   1.987   2.626   4.972  0.5598 -0.1625  0.1575
 7248SOL    HW222644   2.040   2.575   4.826  2.0231 -0.2511  0.6990
 7249SOL     OW22645   3.364   5.369   2.526 -0.3566 -0.4000  0.3714
 7249SOL    HW122646   3.300   5.346   2.453 -0.6240  0.7704  0.2168
 7249SOL    HW222647   3.318   5.428   2.593  0.3539 -0.1305  0.6260
 7250SOL     OW22648   4.406   0.062   4.937  0.0866 -0.4028 -0.2295
 7250SOL    HW122649   4.401   0.001   4.858 -0.8809 -0.3572 -0.2139
 7250SOL    HW222650   4.314   0.083   4.969  0.4573 -0.2965  0.8195
 7251SOL     OW22651   6.792   6.224   4.223 -0.0202 -0.6504 -0.2800
 7251SOL    HW122652   6.713   6.283   4.211 -0.4056 -1.1678 -0.3390
 7251SOL    HW222653   6.786   6.179   4.313 -0.5788 -1.8371 -0.8937
 7252SOL     OW22654   2.312   3.474   1.429  0.1650 -0.1339  0.0960
 7252SOL    HW122655   2.367   3.404   1.476  0.7690 -0.2197 -0.7085
 7252SOL    HW222656   2.374   3.543   1.390 -0.2702 -0.4143 -1.1213
 7253SOL     OW22657   0.875   5.091   5.913  0.3544  0.2760 -0.1458
 7253SOL    HW122658   0.960   5.042   5.897  0.3086 -0.3168  1.3291
 7253SOL    HW222659   0.888   5.160   5.984 -0.3062  0.4451 -0.1785
 7254SOL     OW22660   6.978   2.909   3.239  0.6349  0.3511 -0.1777
 7254SOL    HW122661   7.002   2.954   3.153 -0.3605 -1.1069 -1.2708
 7254SOL    HW222662   7.030   2.950   3.314  1.6814  1.5275 -1.4948
 7255SOL     OW22663   4.537   4.668   1.708  0.3600 -0.4699 -0.2111
 7255SOL    HW122664   4.452   4.622   1.683 -0.4368  0.2287  1.0712
 7255SOL    HW222665   4.592   4.607   1.765  0.0649 -0.4441  0.1092
 7256SOL     OW22666   3.073   0.360   5.311 -0.2773  0.1990 -0.0890
 7256SOL    HW122667   3.123   0.446   5.307  0.1853 -0.0517  0.1063
 7256SOL    HW222668   2.975   0.378   5.322 -0.0656  0.6910  1.1072
 7257SOL     OW22669   1.226   2.385   5.966  0.4847 -0.2531 -0.1493
 7257SOL    HW122670   1.130   2.391   5.994  0.2520 -0.1360 -0.9348
 7257SOL    HW222671   1.275   2.321   6.025 -0.2878 -0.9902 -0.3037
 7258SOL     OW22672   1.185   1.335   1.374  0.0064  0.3180 -0.0610
 7258SOL    HW122673   1.269   1.318   1.322  0.4054  1.8594  0.0293
 7258SOL    HW222674   1.192   1.424   1.420 -0.2939 -1.0084  2.7263
 7259SOL     OW22675   1.725   4.467   1.978  0.1627  0.1116  0.1920
 7259SOL    HW122676   1.819   4.481   2.009  1.0175  0.6151 -2.3838
 7259SOL    HW222677   1.722   4.388   1.917 -1.7228 -1.7541  2.5391
 7260SOL     OW22678   0.059   3.393   2.801 -0.0027  0.5191  0.3875
 7260SOL    HW122679   0.155   3.371   2.781 -0.4249 -1.7328  0.5440
 7260SOL    HW222680   0.026   3.333   2.875 -1.3107  1.8200  0.9030
 7261SOL     OW22681   0.496   5.427   0.063  0.2522  0.4511 -0.4125
 7261SOL    HW122682   0.503   5.343   0.009 -0.4930 -0.1901  0.4452
 7261SOL    HW222683   0.492   5.506   0.002 -0.7079 -0.2621 -1.3007
 7262SOL     OW22684   1.278   0.498   6.063 -0.2891 -0.0077  0.2794
 7262SOL    HW122685   1.273   0.511   6.162 -1.0623  1.6678  0.0595
 7262SOL    HW222686   1.283   0.587   6.018 -0.4311 -0.7262 -1.2195
 7263SOL     OW22687   5.837   6.712   4.281  0.6136 -0.3391  0.0275
 7263SOL    HW122688   5.827   6.780   4.354  0.2226 -0.6829  0.2952
 7263SOL    HW222689   5.747   6.685   4.248  0.6652 -2.1393  1.2310
 7264SOL     OW22690   4.600   2.355   2.065 -0.0287  0.4244  0.0798
 7264SOL    HW122691   4.654   2.380   1.985  0.8021 -2.7454 -0.5101
 7264SOL    HW222692   4.660   2.313   2.134 -1.2113  0.0936  0.9380
 7265SOL     OW22693   1.647   0.564   4.567 -0.4238  0.2979 -0.2169
 7265SOL    HW122694   1.614   0.571   4.661 -0.4141  0.5330 -0.2300
 7265SOL    HW222695   1.668   0.656   4.533  0.1399  0.1608 -0.2453
 7266SOL     OW22696   0.307   1.432   0.077  0.0625 -0.5377  0.3794
 7266SOL    HW122697   0.222   1.398   0.038  0.5480 -1.7422  0.3207
 7266SOL    HW222698   0.373   1.449   0.004  0.0001  0.0357  0.4536
 7267SOL     OW22699   0.666   2.847   4.265  0.4321 -0.6738 -0.2126
 7267SOL    HW122700   0.619   2.933   4.285  0.5952 -0.2100 -1.7180
 7267SOL    HW222701   0.598   2.776   4.245  0.2610  0.2031 -3.2396
 7268SOL     OW22702   4.605   6.450   5.164 -0.1321 -0.5740 -0.0767
 7268SOL    HW122703   4.551   6.381   5.213 -2.0432  1.6973  1.2258
 7268SOL    HW222704   4.674   6.489   5.225 -0.5696  0.2174 -0.0708
 7269SOL     OW22705   2.564   5.197   4.804  0.2630 -0.2946 -0.9858
 7269SOL    HW122706   2.476   5.218   4.846 -0.2827 -1.3411 -1.5666
 7269SOL    HW222707   2.612   5.129   4.859  0.5069 -0.0728 -0.9217
 7270SOL     OW22708   1.558   3.254   1.663 -0.1433 -0.2070 -0.4207
 7270SOL    HW122709   1.534   3.159   1.684 -0.0832 -0.3524 -0.9790
 7270SOL    HW222710   1.522   3.314   1.734 -0.8632 -0.5756 -0.4594
 7271SOL     OW22711   0.473   0.154   1.716 -0.0166  0.1359  0.2902
 7271SOL    HW122712   0.391   0.175   1.663  0.3009 -0.4037 -0.4248
 7271SOL    HW222713   0.548   0.133   1.654  0.9360  1.5849  0.9071
 7272SOL     OW22714   0.047   4.467   1.721  0.5161 -0.2316  0.1178
 7272SOL    HW122715   0.022   4.404   1.794  0.1649 -1.6546 -1.1981
 7272SOL    HW222716   0.122   4.429   1.667  0.4877  0.6044 -0.5424
 7273SOL     OW22717   0.716   2.864   1.946 -0.0019 -0.5624 -0.2165
 7273SOL    HW122718   0.755   2.921   2.019  0.0639  0.6635 -1.1699
 7273SOL    HW222719   0.630   2.825   1.976 -1.1197  1.7471 -0.2085
 7274SOL     OW22720   6.985   5.770   0.778  0.1693 -0.1713  0.1401
 7274SOL    HW122721   6.933   5.848   0.744 -0.9908 -1.7394 -1.8977
 7274SOL    HW222722   7.012   5.787   0.873 -2.7188  1.4029  0.7930
 7275SOL     OW22723   0.684   6.760   5.297  0.7458 -0.6518  0.6841
 7275SOL    HW122724   0.719   6.833   5.356 -0.2074 -0.7719  1.4220
 7275SOL    HW222725   0.713   6.777   5.202 -0.3487  1.3284  0.6385
 7276SOL     OW22726   6.476   5.995   2.759 -0.1682  0.8384 -0.6114
 7276SOL    HW122727   6.468   6.072   2.822  0.5189  0.6854 -0.3243
 7276SOL    HW222728   6.456   5.910   2.808  0.7173  0.6849 -0.4870
 7277SOL     OW22729   5.464   1.565   5.449  0.2583  0.3327  0.0639
 7277SOL    HW122730   5.476   1.492   5.517 -0.9031  0.9597  0.9623
 7277SOL    HW222731   5.414   1.529   5.370  1.6000 -0.3951 -0.4940
 7278SOL     OW22732   2.925   3.395   2.275 -0.3384 -0.0413  0.0877
 7278SOL    HW122733   2.902   3.333   2.200 -0.0057  0.1995 -0.2159
 7278SOL    HW222734   2.968   3.343   2.349  1.7610  0.0671 -0.9606
 7279SOL     OW22735   3.932   4.887   6.050  0.5847 -0.3801 -0.1283
 7279SOL    HW122736   3.855   4.899   5.988  1.9464  1.1426 -1.6090
 7279SOL    HW222737   4.017   4.887   5.998  1.7336  0.2635  1.6710
 7280SOL     OW22738   3.571   1.412   4.428  0.6070  0.4157 -0.0982
 7280SOL    HW122739   3.491   1.367   4.468 -0.2808  1.5076 -0.5898
 7280SOL    HW222740   3.599   1.364   4.345 -0.0180  0.4722 -0.3472
 7281SOL     OW22741   4.157   1.447   5.638 -0.2304 -0.1287  0.0798
 7281SOL    HW122742   4.219   1.453   5.716 -0.6992 -1.2422  0.5565
 7281SOL    HW222743   4.067   1.481   5.664 -0.2388  0.0246 -0.1451
 7282SOL     OW22744   0.971   0.151   3.936 -0.3575  0.2050  0.0928
 7282SOL    HW122745   1.028   0.202   3.872  1.2714 -0.6016  0.8279
 7282SOL    HW222746   0.989   0.183   4.029 -1.5444  0.3180  0.2938
 7283SOL     OW22747   1.601   1.381   2.195 -0.5933 -0.0957  0.1253
 7283SOL    HW122748   1.689   1.421   2.219 -1.3505  2.0021 -0.3378
 7283SOL    HW222749   1.591   1.378   2.096 -1.4564  0.7579  0.1664
 7284SOL     OW22750   0.765   5.847   4.167 -0.0493 -0.4112 -0.2216
 7284SOL    HW122751   0.768   5.748   4.171  0.9512 -0.3388  1.6489
 7284SOL    HW222752   0.710   5.883   4.243  1.6500  0.5115  0.6347
 7285SOL     OW22753   4.661   4.515   2.601  0.4277  0.1949 -0.4866
 7285SOL    HW122754   4.595   4.456   2.555  0.7687 -1.7425  1.3244
 7285SOL    HW222755   4.618   4.602   2.624 -1.6592 -1.0953  0.8509
 7286SOL     OW22756   2.450   3.721   0.510 -0.3146 -0.2768 -0.1399
 7286SOL    HW122757   2.367   3.677   0.477 -0.6703 -0.0893  0.4848
 7286SOL    HW222758   2.428   3.779   0.588  0.6864 -1.6541  1.2294
 7287SOL     OW22759   2.113   4.367   5.312  0.3685  0.0048  0.0855
 7287SOL    HW122760   2.102   4.430   5.235  1.9014 -0.1915 -0.3267
 7287SOL    HW222761   2.209   4.342   5.321  0.2138 -0.0293  2.0477
 7288SOL     OW22762   1.425   4.964   0.208  0.0574 -0.7604  0.1091
 7288SOL    HW122763   1.430   5.046   0.152  2.0172  0.5399  1.9970
 7288SOL    HW222764   1.336   4.960   0.254 -0.3189 -0.0904 -0.5380
 7289SOL     OW22765   5.596   6.217   3.472  0.1458 -0.4838  0.1171
 7289SOL    HW122766   5.644   6.129   3.481  1.9568  0.5699  1.6452
 7289SOL    HW222767   5.652   6.280   3.419 -0.1110  0.4113  0.8831
 7290SOL     OW22768   1.366   5.548   4.822 -0.1455  0.4846 -0.5365
 7290SOL    HW122769   1.464   5.547   4.838 -0.2714  0.2151  0.2614
 7290SOL    HW222770   1.346   5.604   4.741  0.6214  0.8758 -0.4661
 7291SOL     OW22771   4.108   4.881   0.465  0.0720 -0.5187 -0.4078
 7291SOL    HW122772   4.080   4.879   0.560 -0.2217 -2.0425 -0.4952
 7291SOL    HW222773   4.028   4.870   0.406  0.0562  1.8742 -0.9164
 7292SOL     OW22774   3.717   0.925   3.233 -0.9645  0.4352  0.0978
 7292SOL    HW122775   3.718   0.828   3.258 -2.9030  0.1432 -0.7750
 7292SOL    HW222776   3.696   0.934   3.136  1.1657  1.7050 -0.2950
 7293SOL     OW22777   0.886   1.669   0.422  0.4725  0.1054 -0.5114
 7293SOL    HW122778   0.890   1.767   0.406 -0.0965 -0.1705 -2.8413
 7293SOL    HW222779   0.872   1.622   0.334 -0.1495 -2.0013  0.6427
 7294SOL     OW22780   5.875   5.248   5.857 -0.1421 -0.1267  0.3488
 7294SOL    HW122781   5.859   5.176   5.924  0.1734 -0.5313 -0.0092
 7294SOL    HW222782   5.818   5.233   5.777 -0.3052  0.1955  0.4021
 7295SOL     OW22783   5.371   6.329   2.646  0.2102 -0.2905  0.1674
 7295SOL    HW122784   5.308   6.403   2.671  0.0971 -1.3329  3.4585
 7295SOL    HW222785   5.450   6.367   2.598 -1.3474  1.4693 -1.1438
 7296SOL     OW22786   5.549   3.724   6.733  0.0914 -0.1556 -0.2377
 7296SOL    HW122787   5.563   3.802   6.795  1.6829 -0.3704 -0.2780
 7296SOL    HW222788   5.629   3.715   6.673  1.2605 -3.4407  1.5665
 7297SOL     OW22789   4.537   5.616   3.228  0.0555  0.0042 -0.2788
 7297SOL    HW122790   4.561   5.593   3.322  0.8736 -0.0958 -0.5074
 7297SOL    HW222791   4.489   5.703   3.226  0.9140  0.4974  0.1363
 7298SOL     OW22792   3.552   1.739   4.545  0.4637  0.2969 -0.7957
 7298SOL    HW122793   3.602   1.802   4.604  0.8069 -0.1393 -0.6093
 7298SOL    HW222794   3.570   1.761   4.449  1.2583 -0.0341 -0.7305
 7299SOL     OW22795   5.007   3.252   0.219 -0.0677  0.1540 -0.0385
 7299SOL    HW122796   5.054   3.165   0.209  0.4258  0.4752 -0.5949
 7299SOL    HW222797   5.029   3.292   0.307  1.3812  0.6819 -0.6146
 7300SOL     OW22798   2.675   4.985   1.587 -0.0060  0.2608 -0.0079
 7300SOL    HW122799   2.648   4.897   1.627  0.7094 -0.4810 -1.0976
 7300SOL    HW222800   2.733   4.969   1.506  0.0023  1.7345 -0.3266
 7301SOL     OW22801   6.212   1.462   0.343 -0.5912 -0.7154 -0.0348
 7301SOL    HW122802   6.148   1.539   0.339  0.4963  0.3129  1.2288
 7301SOL    HW222803   6.226   1.426   0.252 -0.5073  1.1386 -0.8058
 7302SOL     OW22804   6.873   1.403   7.017  0.2480 -0.0601 -1.1382
 7302SOL    HW122805   6.854   1.333   7.086 -0.8591 -0.6378 -1.9831
 7302SOL    HW222806   6.812   1.481   7.032  0.2177 -0.0563 -1.2823
 7303SOL     OW22807   5.865   6.826   0.564 -0.0096  0.6177 -0.1448
 7303SOL    HW122808   5.935   6.856   0.499  0.7348 -1.1414 -0.2026
 7303SOL    HW222809   5.776   6.864   0.537  0.5208  0.9983 -1.4214
 7304SOL     OW22810   3.514   2.876   3.633  0.1649 -0.1441  0.0644
 7304SOL    HW122811   3.542   2.939   3.705  0.1590  0.1540 -0.1885
 7304SOL    HW222812   3.584   2.874   3.561  0.4073 -0.8204  0.3123
 7305SOL     OW22813   5.133   1.789   6.892  0.3239 -0.4039  0.4850
 7305SOL    HW122814   5.110   1.881   6.924 -0.4042 -0.5000  0.2495
 7305SOL    HW222815   5.093   1.774   6.802  3.4144  0.3567 -1.1716
 7306SOL     OW22816   2.366   6.259   0.952  0.0166  0.2145 -0.0973
 7306SOL    HW122817   2.304   6.318   1.003 -0.7842  0.0294 -0.8225
 7306SOL    HW222818   2.459   6.269   0.987 -0.6933 -1.0150  2.4160
 7307SOL     OW22819   2.592   1.497   1.103 -0.0473  0.3708 -0.0881
 7307SOL    HW122820   2.547   1.554   1.172 -0.0210 -0.5898  0.7571
 7307SOL    HW222821   2.532   1.485   1.025 -0.9645 -0.2624  0.6916
 7308SOL     OW22822   6.298   1.453   3.578  0.0939  0.3669  0.6306
 7308SOL    HW122823   6.348   1.439   3.663 -1.9452  0.6571  1.9638
 7308SOL    HW222824   6.325   1.383   3.511  0.8645 -0.6417  1.9495
 7309SOL     OW22825   3.704   5.071   6.889 -0.4383  0.2235  0.6576
 7309SOL    HW122826   3.742   5.113   6.807 -1.0169  0.0054  0.2717
 7309SOL    HW222827   3.764   5.090   6.967 -0.7916  1.9248  0.5385
 7310SOL     OW22828   2.113   5.744   3.010 -0.0558  0.2856 -0.2087
 7310SOL    HW122829   2.164   5.672   2.963  0.9405 -0.7097  2.2274
 7310SOL    HW222830   2.018   5.717   3.021 -0.6098  1.0568 -2.5829
 7311SOL     OW22831   2.764   0.969   2.771  0.2569  0.9821 -0.2609
 7311SOL    HW122832   2.821   1.042   2.733  2.3881  0.2349  1.2881
 7311SOL    HW222833   2.733   0.909   2.698  2.0014  1.0653 -1.1100
 7312SOL     OW22834   6.450   1.692   6.523 -0.0746 -0.0408 -0.2943
 7312SOL    HW122835   6.539   1.734   6.538 -0.3625  0.4588  0.0298
 7312SOL    HW222836   6.380   1.742   6.573 -0.4517 -0.8030 -0.0402
 7313SOL     OW22837   3.731   4.143   5.638 -0.1599 -0.5270  0.0434
 7313SOL    HW122838   3.632   4.143   5.649 -0.0493 -1.2553  1.2927
 7313SOL    HW222839   3.775   4.141   5.728  0.9793 -1.3449 -0.4996
 7314SOL     OW22840   1.020   1.681   1.657  0.3836  0.2005 -0.6022
 7314SOL    HW122841   1.006   1.759   1.718 -1.6501 -0.0611 -0.6664
 7314SOL    HW222842   1.024   1.597   1.711  2.2741  0.2688 -0.5614
 7315SOL     OW22843   0.163   0.628   5.297  0.2971  0.0311 -0.3364
 7315SOL    HW122844   0.100   0.706   5.300 -0.9926 -0.7229 -3.6552
 7315SOL    HW222845   0.152   0.574   5.381 -0.5879  2.0151  0.9081
 7316SOL     OW22846   4.043   3.255   2.677  0.5059 -0.4057  0.4097
 7316SOL    HW122847   4.064   3.241   2.774  4.3689 -3.8299 -0.6174
 7316SOL    HW222848   3.986   3.180   2.643  1.2942 -0.6458 -0.4370
 7317SOL     OW22849   1.399   6.592   5.456  0.3460 -0.2061 -0.3307
 7317SOL    HW122850   1.320   6.545   5.497  0.1330 -0.9600 -1.5443
 7317SOL    HW222851   1.445   6.647   5.526  0.1613 -1.6415  0.9815
 7318SOL     OW22852   3.114   1.320   2.937  0.2698  0.1268 -0.1970
 7318SOL    HW122853   3.204   1.288   2.965  0.1126  0.7115  1.0573
 7318SOL    HW222854   3.124   1.394   2.870  0.7614  0.6455  0.4268
 7319SOL     OW22855   6.578   4.290   6.515  0.0237 -0.3082 -0.2977
 7319SOL    HW122856   6.555   4.213   6.455 -0.1688 -0.3304 -0.1976
 7319SOL    HW222857   6.586   4.258   6.609 -0.9127 -0.0612 -0.1258
 7320SOL     OW22858   1.692   1.970   2.425  0.0193 -0.0396  0.2340
 7320SOL    HW122859   1.635   1.913   2.484  0.7961  1.4785  2.5790
 7320SOL    HW222860   1.785   1.934   2.423  0.2438  0.4891  0.8147
 7321SOL     OW22861   5.460   0.983   2.567 -0.0049 -0.2255  0.0428
 7321SOL    HW122862   5.370   0.964   2.529 -0.1081  0.3083  0.0247
 7321SOL    HW222863   5.462   1.074   2.608  0.8159  0.1787 -0.8501
 7322SOL     OW22864   2.408   2.750   1.439 -0.3044 -0.5489  0.0538
 7322SOL    HW122865   2.482   2.760   1.373 -2.0491  3.0461 -1.6370
 7322SOL    HW222866   2.403   2.832   1.496 -2.0131 -1.3820  1.2011
 7323SOL     OW22867   1.939   6.884   4.903 -0.5593  0.6369 -0.4261
 7323SOL    HW122868   1.964   6.967   4.953 -1.7176  1.3147 -0.9346
 7323SOL    HW222869   1.988   6.882   4.816 -1.1386  1.1992 -0.7676
 7324SOL     OW22870   6.592   5.433   2.501 -0.1271 -0.5679 -0.1314
 7324SOL    HW122871   6.529   5.459   2.428 -1.9921  0.3734  1.7029
 7324SOL    HW222872   6.555   5.354   2.550  0.0152  0.0934  1.0700
 7325SOL     OW22873   3.606   0.964   6.736 -0.3565 -0.0845  0.3564
 7325SOL    HW122874   3.615   0.886   6.798  1.1527 -0.3233 -0.1217
 7325SOL    HW222875   3.684   1.025   6.749 -1.5140  1.3716  0.7237
 7326SOL     OW22876   4.692   1.442   3.746  0.3197 -0.3679 -0.2581
 7326SOL    HW122877   4.635   1.368   3.781  1.1341 -0.7298  0.3315
 7326SOL    HW222878   4.782   1.406   3.721  0.1857  0.1297 -1.5100
 7327SOL     OW22879   2.501   1.178   6.243 -0.3918  0.2173 -0.3636
 7327SOL    HW122880   2.464   1.257   6.292  0.1601 -0.9894  2.1994
 7327SOL    HW222881   2.441   1.155   6.166 -2.2137  1.3157  0.6569
 7328SOL     OW22882   2.609   6.433   1.981 -0.1045 -0.3414 -0.4431
 7328SOL    HW122883   2.666   6.416   1.900 -1.0655 -1.1229 -0.9712
 7328SOL    HW222884   2.665   6.423   2.063  0.6558 -0.5336 -0.9720
 7329SOL     OW22885   5.229   3.029   2.900  0.6314  0.0640 -0.0262
 7329SOL    HW122886   5.254   2.937   2.930  0.0082 -0.1868 -0.2579
 7329SOL    HW222887   5.221   3.030   2.800  0.4340  0.3213 -0.0077
 7330SOL     OW22888   2.662   1.535   0.687 -0.2659 -0.4945 -0.7333
 7330SOL    HW122889   2.610   1.544   0.772  0.4048  1.3639 -0.4480
 7330SOL    HW222890   2.651   1.444   0.649 -2.1660 -0.7364  0.3109
 7331SOL     OW22891   5.616   6.078   5.626  0.8935 -0.7674  0.1083
 7331SOL    HW122892   5.613   6.150   5.695  2.1405 -0.5615 -0.0176
 7331SOL    HW222893   5.711   6.049   5.612  0.3116 -3.7532  1.4860
 7332SOL     OW22894   4.634   6.030   0.053  0.0533 -0.3148  0.4906
 7332SOL    HW122895   4.695   6.011  -0.024  0.0605  0.9913  0.1515
 7332SOL    HW222896   4.656   6.120   0.092 -0.2913 -0.7291  1.7002
 7333SOL     OW22897   5.504   4.071   1.844 -0.1489 -0.0650  0.4348
 7333SOL    HW122898   5.481   4.144   1.908 -0.3265  0.4650 -0.2266
 7333SOL    HW222899   5.424   4.049   1.788  0.4396  0.6256 -0.7257
 7334SOL     OW22900   3.813   6.470   2.444 -0.0506  0.2171  0.3844
 7334SOL    HW122901   3.776   6.473   2.351 -2.5522  1.2144  1.3274
 7334SOL    HW222902   3.826   6.563   2.478  1.5809 -0.1294  0.8165
 7335SOL     OW22903   6.912   2.461   1.375  0.2675  0.0429  0.2622
 7335SOL    HW122904   6.981   2.396   1.343  0.2104 -0.0777  0.3789
 7335SOL    HW222905   6.898   2.448   1.473  1.4992  1.3925  0.6451
 7336SOL     OW22906   0.772   5.781   4.867 -0.2250  0.8471  0.1284
 7336SOL    HW122907   0.703   5.805   4.936 -0.3329 -0.0512  0.3392
 7336SOL    HW222908   0.864   5.795   4.906 -0.2874  0.8901  0.2610
 7337SOL     OW22909   6.110   1.290   2.519 -0.3110 -0.2360 -0.1281
 7337SOL    HW122910   6.058   1.324   2.441 -2.3745 -1.3898  0.6639
 7337SOL    HW222911   6.139   1.196   2.501  0.5492  0.0191 -0.1036
 7338SOL     OW22912   1.107   5.618   1.594 -0.5700 -0.0318 -0.6573
 7338SOL    HW122913   1.082   5.572   1.680  0.0713 -0.5308 -0.7338
 7338SOL    HW222914   1.040   5.689   1.574 -1.4280 -0.7455 -0.3877
 7339SOL     OW22915   2.039   4.796   4.920  0.1682  0.3802 -0.1907
 7339SOL    HW122916   2.038   4.727   4.848  1.2699 -0.3438  0.4580
 7339SOL    HW222917   1.975   4.769   4.992 -0.3573  0.7107 -0.5238
 7340SOL     OW22918   2.474   6.408   6.357 -0.4021 -0.0893  0.2941
 7340SOL    HW122919   2.559   6.454   6.330 -0.7905  0.9058  0.7163
 7340SOL    HW222920   2.468   6.405   6.457  0.6142 -2.9874  0.3622
 7341SOL     OW22921   4.950   1.115   6.316  0.0085 -0.6869  0.3699
 7341SOL    HW122922   4.916   1.096   6.408  0.9431 -3.4463  0.2483
 7341SOL    HW222923   4.937   1.034   6.259 -1.3695  1.2386 -2.2546
 7342SOL     OW22924   2.164   3.995   2.315  0.2377 -0.2003  0.3405
 7342SOL    HW122925   2.189   3.994   2.219  0.2841 -1.5954  0.3586
 7342SOL    HW222926   2.138   3.904   2.345 -1.0164  0.4486  1.3401
 7343SOL     OW22927   0.157   2.184   6.772 -0.3839 -0.2996  0.0795
 7343SOL    HW122928   0.166   2.089   6.804  0.4647 -0.2424  0.0374
 7343SOL    HW222929   0.122   2.184   6.679  0.9528 -0.6584 -0.4536
 7344SOL     OW22930   0.880   1.040   0.110  0.1946 -0.0861  0.7174
 7344SOL    HW122931   0.791   1.022   0.153 -0.3010 -0.7656 -0.5480
 7344SOL    HW222932   0.915   0.956   0.068 -0.0036  0.8123 -1.3776
 7345SOL     OW22933   5.639   2.967   0.363 -0.0463 -0.1580  0.6997
 7345SOL    HW122934   5.687   2.975   0.450 -0.2348  0.4041  0.7552
 7345SOL    HW222935   5.554   2.915   0.377 -0.2547  0.2374  0.9264
 7346SOL     OW22936   5.004   5.769   1.889 -0.2815 -0.5134 -0.5400
 7346SOL    HW122937   5.056   5.719   1.819  1.7808  0.3253  0.2981
 7346SOL    HW222938   4.990   5.711   1.969 -0.9301 -0.8429 -0.8875
 7347SOL     OW22939   5.240   6.700   1.301  0.0268 -0.5243 -0.2935
 7347SOL    HW122940   5.306   6.770   1.271  1.1816 -1.7539 -0.7424
 7347SOL    HW222941   5.207   6.723   1.392  0.7827  0.3436 -0.2146
 7348SOL     OW22942   0.305   6.789   7.023 -0.7565  0.2265  0.0854
 7348SOL    HW122943   0.217   6.821   7.059 -0.3573  1.0790  0.3450
 7348SOL    HW222944   0.358   6.868   6.992 -0.9721 -0.4454 -2.1865
 7349SOL     OW22945   4.772   0.116   7.007 -0.0822  0.2408 -0.0323
 7349SOL    HW122946   4.765   0.043   7.075  0.1811  0.6232  0.4101
 7349SOL    HW222947   4.866   0.121   6.972  0.0564  0.7889  0.4133
 7350SOL     OW22948   3.821   1.696   4.157  0.5000  0.4180  0.2349
 7350SOL    HW122949   3.863   1.665   4.072  1.4078 -0.0433  0.8400
 7350SOL    HW222950   3.844   1.791   4.174 -0.9842  1.0162 -0.8131
 7351SOL     OW22951   1.540   5.074   4.052  1.2721  0.2690 -0.1354
 7351SOL    HW122952   1.516   4.994   3.998 -0.0039  0.2111  0.4598
 7351SOL    HW222953   1.595   5.137   3.997 -2.9751  1.9815 -2.9578
 7352SOL     OW22954   4.854   3.755   3.373 -0.0949  0.3330  0.6543
 7352SOL    HW122955   4.897   3.752   3.463 -0.0732 -1.2909  0.6280
 7352SOL    HW222956   4.868   3.667   3.327 -0.1715  1.1059 -0.9091
 7353SOL     OW22957   6.903   3.206   0.417 -0.2879 -0.5406  0.1944
 7353SOL    HW122958   6.990   3.230   0.461  0.0709 -1.2018 -0.1486
 7353SOL    HW222959   6.832   3.199   0.487 -0.2803  0.8717  0.3901
 7354SOL     OW22960   0.474   2.337   2.446  0.2993 -0.2422  0.0813
 7354SOL    HW122961   0.546   2.297   2.389 -1.1837 -1.1969 -1.2015
 7354SOL    HW222962   0.465   2.283   2.530  1.2409  0.0491  0.3790
 7355SOL     OW22963   4.167   2.733   0.411  0.6217 -0.1328 -0.0988
 7355SOL    HW122964   4.133   2.659   0.469  0.9722 -0.3407 -0.1538
 7355SOL    HW222965   4.238   2.783   0.460  0.3217  0.2287 -0.0267
 7356SOL     OW22966   4.439   3.487   0.451  0.1745  0.4589  0.0645
 7356SOL    HW122967   4.450   3.583   0.476  0.2628  1.2840 -2.7635
 7356SOL    HW222968   4.524   3.455   0.407 -1.0420  0.2794 -2.3363
 7357SOL     OW22969   4.115   5.949   2.065 -0.0786 -0.3353 -0.6228
 7357SOL    HW122970   4.086   6.024   2.124 -0.6694 -0.3357 -0.8979
 7357SOL    HW222971   4.130   5.867   2.120  1.1781  0.1334 -0.2393
 7358SOL     OW22972   6.028   1.498   3.521  0.1193  0.2365 -0.6782
 7358SOL    HW122973   5.995   1.451   3.439 -2.1871 -3.5481  2.0849
 7358SOL    HW222974   6.126   1.517   3.513  0.9652 -3.9845 -2.6840
 7359SOL     OW22975   2.382   2.224   1.850 -0.0214 -0.1879  0.4630
 7359SOL    HW122976   2.374   2.265   1.759  1.5643  0.0169  0.3865
 7359SOL    HW222977   2.315   2.151   1.859  0.1551 -0.5926 -1.0867
 7360SOL     OW22978   0.675   5.049   4.784  0.8785  0.0297 -0.1623
 7360SOL    HW122979   0.580   5.050   4.815  0.1452 -0.1663 -2.1991
 7360SOL    HW222980   0.727   5.120   4.832 -0.1179 -0.2800  1.4399
 7361SOL     OW22981   4.599   1.949   2.164  0.4749 -0.5874  0.8062
 7361SOL    HW122982   4.672   1.934   2.231 -0.4948  0.7619  2.2364
 7361SOL    HW222983   4.510   1.937   2.208 -0.2250 -2.2581 -0.9215
 7362SOL     OW22984   1.822   4.667   0.579 -0.4722 -0.3522 -0.0765
 7362SOL    HW122985   1.733   4.684   0.537 -1.8287 -0.8929  2.3789
 7362SOL    HW222986   1.841   4.738   0.647  0.8665 -0.4170 -0.3521
 7363SOL     OW22987   5.400   0.569   0.899 -0.0380  0.4140 -0.0567
 7363SOL    HW122988   5.489   0.526   0.916  0.5292 -0.3721 -4.0438
 7363SOL    HW222989   5.409   0.668   0.910  0.8922  0.2278  1.0882
 7364SOL     OW22990   4.358   4.808   0.861 -0.2024 -0.1214 -0.1836
 7364SOL    HW122991   4.323   4.900   0.880 -0.4459  0.0013 -1.1698
 7364SOL    HW222992   4.282   4.745   0.849 -0.0427 -0.3301 -0.1042
 7365SOL     OW22993   6.455   4.935   1.972 -0.2310 -0.1602  0.4731
 7365SOL    HW122994   6.542   4.981   1.988 -0.3388 -0.0370  0.7195
 7365SOL    HW222995   6.380   5.000   1.987 -0.3362  0.0781 -0.9536
 7366SOL     OW22996   1.306   0.349   3.307 -0.8974  0.2614  0.8172
 7366SOL    HW122997   1.369   0.272   3.302  1.7636  1.8835  4.7443
 7366SOL    HW222998   1.224   0.322   3.358  0.9861  0.3462  4.1758
 7367SOL     OW22999   5.279   2.373   1.922  0.4296 -0.5139  0.2606
 7367SOL    HW123000   5.216   2.407   1.992  1.6906  2.9528 -0.0855
 7367SOL    HW223001   5.373   2.395   1.949  0.9415  1.2762 -2.5643
 7368SOL     OW23002   3.584   3.259   3.371  0.6784 -0.0323 -0.1425
 7368SOL    HW123003   3.504   3.278   3.428 -1.1643  1.3391 -2.9519
 7368SOL    HW223004   3.651   3.333   3.382  0.6816 -0.1435  0.6985
 7369SOL     OW23005   4.604   3.620   6.061  0.1552 -0.1905  0.2071
 7369SOL    HW123006   4.573   3.567   6.140  0.8853  0.5817  1.0352
 7369SOL    HW223007   4.612   3.717   6.086 -1.3945  0.3958 -1.3436
 7370SOL     OW23008   2.976   6.704   3.796  0.2014  0.3820 -0.0847
 7370SOL    HW123009   2.892   6.650   3.783  0.6178  0.0534 -1.6710
 7370SOL    HW223010   3.048   6.668   3.737  0.7642  2.1420 -0.5324
 7371SOL     OW23011   4.276   0.851   2.191 -0.3712 -0.0578  0.9759
 7371SOL    HW123012   4.317   0.761   2.205  1.4247  0.6015  0.2267
 7371SOL    HW223013   4.319   0.917   2.253 -0.4484  0.6138  0.3236
 7372SOL     OW23014   2.952   3.176   5.840 -0.1117  0.8384  0.2284
 7372SOL    HW123015   3.050   3.168   5.858  0.0547  1.3004 -0.4363
 7372SOL    HW223016   2.936   3.183   5.741 -1.0939 -3.1484 -0.0423
 7373SOL     OW23017   6.664   5.329   4.948  0.7207  0.2520 -0.3116
 7373SOL    HW123018   6.645   5.237   4.915 -1.2980 -0.3797  2.2731
 7373SOL    HW223019   6.679   5.390   4.870 -2.1311 -1.3994 -2.3464
 7374SOL     OW23020   6.788   2.100   4.973 -0.6435 -0.3394 -0.6853
 7374SOL    HW123021   6.695   2.134   4.959 -0.4738 -0.1545 -1.4077
 7374SOL    HW223022   6.852   2.155   4.920  0.0543  0.3864  0.8253
 7375SOL     OW23023   0.934   2.692   0.870  0.7804 -0.3108 -0.2196
 7375SOL    HW123024   1.025   2.716   0.837  1.2347 -1.5327  0.0848
 7375SOL    HW223025   0.934   2.598   0.902  0.2941  0.6384  2.9386
 7376SOL     OW23026   4.677   5.825   2.487  0.1039 -0.0794  0.0153
 7376SOL    HW123027   4.704   5.874   2.404 -2.7868  1.4896 -0.1199
 7376SOL    HW223028   4.678   5.727   2.470 -0.8374  0.2210 -2.0650
 7377SOL     OW23029   3.514   4.753   1.327 -0.6434  0.3407 -0.0595
 7377SOL    HW123030   3.534   4.739   1.424 -1.2769 -0.3197 -0.0254
 7377SOL    HW223031   3.420   4.726   1.307 -0.5091  0.4390 -0.8668
 7378SOL     OW23032   3.407   3.002   6.667 -0.5165 -0.0290 -0.6397
 7378SOL    HW123033   3.334   3.016   6.734 -0.5766 -3.0905  0.0800
 7378SOL    HW223034   3.494   3.031   6.707 -0.4769 -2.2183  1.0898
 7379SOL     OW23035   4.343   1.498   4.050 -0.3352 -0.2077 -0.2795
 7379SOL    HW123036   4.433   1.495   4.095 -1.8013  0.7128  3.0487
 7379SOL    HW223037   4.315   1.405   4.028 -0.0568 -0.9215  2.0692
 7380SOL     OW23038   5.637   2.818   2.524 -0.5617  0.0259 -0.4572
 7380SOL    HW123039   5.720   2.869   2.501 -0.1819  0.2748  1.2691
 7380SOL    HW223040   5.660   2.746   2.591 -1.7677  0.3137  0.2992
 7381SOL     OW23041   3.782   6.131   0.281 -0.3315 -0.5523 -0.3430
 7381SOL    HW123042   3.798   6.096   0.374  0.6444  0.7135  0.0035
 7381SOL    HW223043   3.777   6.231   0.284 -1.0308 -0.5395 -1.5625
 7382SOL     OW23044   0.357   3.064   6.480  0.1661 -0.5795  0.0384
 7382SOL    HW123045   0.419   3.024   6.548  0.5630  0.2310  0.1587
 7382SOL    HW223046   0.282   3.111   6.526 -0.1975 -1.0080 -0.1038
 7383SOL     OW23047   3.502   5.982   0.782  0.4974 -0.5877 -0.8849
 7383SOL    HW123048   3.506   5.921   0.861 -1.5292  0.3491  0.0018
 7383SOL    HW223049   3.541   5.935   0.703 -1.2108 -3.1787 -0.3265
 7384SOL     OW23050   5.426   1.429   5.943 -0.5850  0.4486 -0.0276
 7384SOL    HW123051   5.415   1.427   6.042  0.1646 -3.8956  0.1654
 7384SOL    HW223052   5.478   1.349   5.913 -1.1406  1.3444 -3.9975
 7385SOL     OW23053   0.693   5.588   3.395  0.0826 -0.4897 -0.2517
 7385SOL    HW123054   0.770   5.635   3.438 -0.7461  0.5781  0.1208
 7385SOL    HW223055   0.699   5.598   3.295  0.8025 -1.0264 -0.2645
 7386SOL     OW23056   6.170   3.974   0.711  0.3691 -0.0167  0.6028
 7386SOL    HW123057   6.130   4.062   0.688  1.6969  1.0090  2.0242
 7386SOL    HW223058   6.220   3.939   0.631  0.0106  0.6042  0.0921
 7387SOL     OW23059   0.342   5.862   3.891 -0.0850  0.4302  0.2520
 7387SOL    HW123060   0.357   5.856   3.989 -1.5844 -1.1082  0.4317
 7387SOL    HW223061   0.417   5.817   3.843  0.4859  0.9040  0.6752
 7388SOL     OW23062   2.153   5.733   1.422 -0.7701 -0.1696  0.1042
 7388SOL    HW123063   2.155   5.712   1.325 -0.6754 -1.6747  0.4060
 7388SOL    HW223064   2.151   5.648   1.475  1.3910  0.5567  1.4856
 7389SOL     OW23065   6.009   3.440   1.913 -0.2400 -0.2992  0.3171
 7389SOL    HW123066   6.087   3.455   1.852 -0.0563  2.9266  1.1572
 7389SOL    HW223067   6.040   3.392   1.995  0.4646 -0.6395 -0.1357
 7390SOL     OW23068   4.570   1.965   3.393  0.0719 -0.2611  0.1881
 7390SOL    HW123069   4.629   1.953   3.473  0.0766  1.4068  0.4718
 7390SOL    HW223070   4.559   1.877   3.346  1.1450 -1.0016  1.2616
 7391SOL     OW23071   3.953   3.789   2.151  0.4937 -0.0740  0.1217
 7391SOL    HW123072   4.022   3.766   2.083  1.5855 -0.4697  1.3224
 7391SOL    HW223073   3.887   3.714   2.159 -0.2439  0.4022 -1.1915
 7392SOL     OW23074   4.397   5.637   0.714 -0.1662  1.1159 -0.0369
 7392SOL    HW123075   4.302   5.632   0.683 -0.1936 -0.4756  0.2255
 7392SOL    HW223076   4.455   5.584   0.652 -0.1050 -1.4505  2.0719
 7393SOL     OW23077   6.191   5.459   5.648  0.2172 -0.0626  0.0992
 7393SOL    HW123078   6.259   5.532   5.647  0.1751 -0.0196  0.3213
 7393SOL    HW223079   6.120   5.480   5.716  2.2672 -2.1490  3.1776
 7394SOL     OW23080   1.146   2.056   6.743  0.3124 -0.6489  0.2908
 7394SOL    HW123081   1.184   2.105   6.664  0.1020  0.6618  0.9781
 7394SOL    HW223082   1.111   2.122   6.809 -1.0981 -1.7717  0.7128
 7395SOL     OW23083   3.895   6.195   6.095 -0.1299  0.2258  0.0506
 7395SOL    HW123084   3.962   6.128   6.061  0.5616  0.4814  0.8774
 7395SOL    HW223085   3.803   6.163   6.073  0.2568 -0.0670 -1.2263
 7396SOL     OW23086   2.425   6.058   1.197  0.6136 -0.0233  0.2759
 7396SOL    HW123087   2.423   6.117   1.116  0.6074  0.9833  0.9800
 7396SOL    HW223088   2.349   5.994   1.194 -0.7317  1.4807  0.5378
 7397SOL     OW23089   6.935   4.832   4.763 -0.3515  0.5846  0.2127
 7397SOL    HW123090   6.988   4.751   4.790 -1.8408  0.4222  3.0767
 7397SOL    HW223091   6.996   4.901   4.725  1.9067  0.1417  2.6983
 7398SOL     OW23092   2.567   6.072   3.305 -0.0204 -0.6962  0.2127
 7398SOL    HW123093   2.623   6.072   3.222  2.5366  0.7215  1.7783
 7398SOL    HW223094   2.517   6.158   3.311 -0.1400 -0.7632  0.1662
 7399SOL     OW23095   6.231   3.281   4.248 -0.0674 -0.2539 -0.2130
 7399SOL    HW123096   6.312   3.340   4.252  0.1534 -0.4275 -1.6864
 7399SOL    HW223097   6.257   3.188   4.275 -0.2777  0.1424  1.4759
 7400SOL     OW23098   3.803   2.888   5.836  0.3470  0.1356 -0.8157
 7400SOL    HW123099   3.781   2.880   5.739 -0.9876 -1.4115 -0.4436
 7400SOL    HW223100   3.898   2.918   5.847  0.1671  1.5132 -2.5610
 7401SOL     OW23101   2.480   1.232   3.980  0.1403  0.2212 -0.5718
 7401SOL    HW123102   2.496   1.207   3.885 -1.0622  0.2190 -0.7833
 7401SOL    HW223103   2.384   1.257   3.993  0.4309  0.8748  0.4966
 7402SOL     OW23104   1.615   4.718   4.045  0.4221  0.2397  0.1558
 7402SOL    HW123105   1.661   4.644   4.094  1.2883 -0.4636 -1.6247
 7402SOL    HW223106   1.683   4.779   4.004 -0.2715  2.0650  1.5515
 7403SOL     OW23107   2.481   4.875   3.423 -0.1117  0.2526  0.2410
 7403SOL    HW123108   2.570   4.914   3.446  0.1046  0.0581 -0.2505
 7403SOL    HW223109   2.487   4.775   3.423 -0.1360  0.2430 -0.5129
 7404SOL     OW23110   2.009   0.014   0.986  0.1379 -0.1396  0.0780
 7404SOL    HW123111   1.976  -0.070   0.943 -0.0817 -0.7045  1.2913
 7404SOL    HW223112   1.933   0.060   1.031  0.4657  0.0933  0.3989
 7405SOL     OW23113   2.045   5.482   6.756 -0.2371 -0.0027  0.0834
 7405SOL    HW123114   2.051   5.449   6.850 -1.1771 -0.5405 -0.0310
 7405SOL    HW223115   1.978   5.555   6.751  0.8896  1.0608  0.0900
 7406SOL     OW23116   6.431   3.451   4.220  0.1839 -0.4828  0.3539
 7406SOL    HW123117   6.499   3.460   4.293  0.5525 -1.2825  0.1260
 7406SOL    HW223118   6.461   3.380   4.156 -0.6742 -0.5622  0.0260
 7407SOL     OW23119   1.385   0.739   3.615 -0.0815  0.1568 -0.3405
 7407SOL    HW123120   1.347   0.681   3.543  0.0085 -0.0185 -0.2455
 7407SOL    HW223121   1.314   0.801   3.648 -0.4906 -0.6592  0.3386
 7408SOL     OW23122   5.655   6.472   6.391 -0.0835 -0.2712  0.3748
 7408SOL    HW123123   5.656   6.546   6.323 -0.3854  0.7528  1.4533
 7408SOL    HW223124   5.684   6.508   6.479  0.8507 -1.7100  0.6860
 7409SOL     OW23125   6.832   5.486   0.780  0.6604  0.0290 -0.4291
 7409SOL    HW123126   6.838   5.525   0.872 -2.0756 -0.8304  0.2155
 7409SOL    HW223127   6.777   5.547   0.722  0.9756 -0.2429 -1.0184
 7410SOL     OW23128   0.221   1.775   5.358 -0.3520 -0.0423 -0.2038
 7410SOL    HW123129   0.306   1.820   5.331 -0.7269  0.9004  0.1438
 7410SOL    HW223130   0.241   1.683   5.391  0.6509  0.5292  0.8359
 7411SOL     OW23131   3.309   2.075   6.196 -0.2223  0.3715 -0.5936
 7411SOL    HW123132   3.228   2.022   6.171  0.1511 -0.6107  0.2218
 7411SOL    HW223133   3.323   2.148   6.129 -0.5039 -0.8155 -1.9894
 7412SOL     OW23134   4.392   5.291   6.056 -0.4342  0.0228  0.3482
 7412SOL    HW123135   4.403   5.264   5.960  2.0731  0.8044  0.3214
 7412SOL    HW223136   4.377   5.390   6.061 -1.2129 -0.1124  0.7411
 7413SOL     OW23137   5.212   1.269   6.060  0.5145  0.5232 -0.2252
 7413SOL    HW123138   5.188   1.292   6.154  2.2303 -0.8906  0.5936
 7413SOL    HW223139   5.235   1.353   6.010  0.7559  1.1678  0.9400
 7414SOL     OW23140   4.737   0.338   4.289 -0.4718  0.6000 -0.4169
 7414SOL    HW123141   4.732   0.281   4.371 -1.4677  0.0406 -0.8477
 7414SOL    HW223142   4.664   0.311   4.225 -0.5870  1.9606 -0.8858
 7415SOL     OW23143   2.644   6.089   6.084  0.1216  0.8651 -0.3742
 7415SOL    HW123144   2.631   6.185   6.110 -0.1305  0.6958  0.1297
 7415SOL    HW223145   2.733   6.079   6.039 -0.0412  1.4152 -0.8334
 7416SOL     OW23146   0.630   5.923   2.526 -0.2881  0.1398  0.1870
 7416SOL    HW123147   0.627   5.985   2.605  0.0476  1.8045 -1.0496
 7416SOL    HW223148   0.717   5.875   2.524  0.5277  1.5670 -0.1982
 7417SOL     OW23149   6.039   0.335   0.797  0.1854  0.0898 -0.3293
 7417SOL    HW123150   5.986   0.287   0.866  1.4779 -0.9885 -0.0552
 7417SOL    HW223151   6.096   0.405   0.841  0.0796  0.2612 -0.4601
 7418SOL     OW23152   2.348   3.876   6.370 -0.4921 -0.5917  0.6019
 7418SOL    HW123153   2.403   3.793   6.378 -1.5474 -1.3263  0.3799
 7418SOL    HW223154   2.402   3.948   6.326 -0.6128 -2.1984 -2.4212
 7419SOL     OW23155   6.705   0.649   5.305  0.9810 -0.2792 -0.2431
 7419SOL    HW123156   6.648   0.567   5.315  1.3536 -0.6393 -0.9908
 7419SOL    HW223157   6.750   0.648   5.216  2.1548 -0.0048  0.3225
 7420SOL     OW23158   6.689   6.628   2.237  0.0749 -0.7966  0.4438
 7420SOL    HW123159   6.725   6.679   2.158  0.1875 -1.7743 -0.1550
 7420SOL    HW223160   6.663   6.536   2.207  0.6572 -1.3763  1.6783
 7421SOL     OW23161   1.214   4.840   2.050  0.2620 -0.0718 -0.3952
 7421SOL    HW123162   1.292   4.865   2.106  0.2576  0.3533 -0.5782
 7421SOL    HW223163   1.169   4.760   2.090  0.8792 -0.4150 -0.3758
 7422SOL     OW23164   0.185   4.007   1.826  0.2213  0.2816 -0.1698
 7422SOL    HW123165   0.249   3.932   1.805  1.5645  1.5534 -0.8241
 7422SOL    HW223166   0.233   4.078   1.879 -1.1156  0.5454  0.7273
 7423SOL     OW23167   2.828   1.533   6.162  0.3433 -0.1973 -0.1586
 7423SOL    HW123168   2.748   1.558   6.106  0.1296  0.8409  0.5828
 7423SOL    HW223169   2.800   1.469   6.233 -0.2026  1.3576  1.0862
 7424SOL     OW23170   6.319   1.442   5.425  0.3835 -0.4185  0.2958
 7424SOL    HW123171   6.285   1.416   5.334  0.0517  1.0253 -0.0286
 7424SOL    HW223172   6.401   1.388   5.446  0.1791 -1.1347 -0.6411
 7425SOL     OW23173   5.723   6.480   6.810  0.5106  0.5502  0.2698
 7425SOL    HW123174   5.709   6.522   6.720  0.0284  1.8605  0.9336
 7425SOL    HW223175   5.819   6.490   6.837 -0.0912  3.8138  1.6119
 7426SOL     OW23176   3.928   3.460   5.226  0.2737 -0.2322  0.3986
 7426SOL    HW123177   3.871   3.536   5.260 -0.3304 -1.6609  2.8352
 7426SOL    HW223178   3.988   3.428   5.299 -1.1414 -3.5904  0.2774
 7427SOL     OW23179   4.563   6.156   1.006 -0.5426 -0.1579 -0.0461
 7427SOL    HW123180   4.662   6.170   1.016 -0.5340  0.8907 -1.4209
 7427SOL    HW223181   4.538   6.067   1.046  0.7892 -0.0280  1.1594
 7428SOL     OW23182   0.358   0.097   5.661 -0.0821 -0.0859 -0.0700
 7428SOL    HW123183   0.407   0.133   5.582  0.4930  0.5272  0.5505
 7428SOL    HW223184   0.269   0.142   5.668  0.7539  1.5646  0.8862
 7429SOL     OW23185   6.529   0.792   2.431  0.3340  0.0630 -1.0462
 7429SOL    HW123186   6.493   0.700   2.443 -1.3534  0.7521 -0.4975
 7429SOL    HW223187   6.542   0.835   2.520  1.8529  0.1085 -1.2657
 7430SOL     OW23188   0.036   3.172   3.004  0.6069  0.0796 -0.2121
 7430SOL    HW123189   0.049   3.215   3.093  0.8284 -0.6477  0.1173
 7430SOL    HW223190   0.117   3.117   2.981  0.5083  0.1768 -0.8108
 7431SOL     OW23191   1.058   1.838   2.698  0.0036 -0.5422 -0.3818
 7431SOL    HW123192   1.073   1.740   2.684  2.0426 -0.5518  1.2806
 7431SOL    HW223193   0.990   1.851   2.770 -0.1070 -0.7323 -0.4494
 7432SOL     OW23194   1.100   1.313   3.247  0.2084  0.5078  0.3114
 7432SOL    HW123195   1.139   1.222   3.235  1.1536  0.9088  0.2658
 7432SOL    HW223196   1.050   1.339   3.164  1.9130  0.9559 -0.6431
 7433SOL     OW23197   3.342   0.090   6.020  0.7139  0.6223  0.3672
 7433SOL    HW123198   3.339   0.064   5.923  0.6038  1.1873  0.2140
 7433SOL    HW223199   3.268   0.045   6.069  0.6093  0.5371  0.1337
 7434SOL     OW23200   3.460   5.825   3.116 -0.4170 -0.5157 -0.9460
 7434SOL    HW123201   3.547   5.872   3.100 -0.9982  1.2403  0.6567
 7434SOL    HW223202   3.395   5.850   3.045 -0.1307 -0.4995 -1.2067
 7435SOL     OW23203   4.699   5.267   3.504 -0.0895  0.1169 -0.2206
 7435SOL    HW123204   4.626   5.252   3.437 -0.4691 -0.6844  0.3529
 7435SOL    HW223205   4.760   5.338   3.471 -0.5270  0.0527 -1.2085
 7436SOL     OW23206   4.354   3.003   5.405  0.8748  0.3745 -0.2972
 7436SOL    HW123207   4.297   2.968   5.480  0.0854  0.9255 -0.6322
 7436SOL    HW223208   4.331   2.954   5.321  2.2330 -0.7170 -0.0657
 7437SOL     OW23209   4.414   1.114   1.695 -0.6647 -0.4092 -0.0108
 7437SOL    HW123210   4.438   1.047   1.625  2.0616 -0.6839  1.0501
 7437SOL    HW223211   4.410   1.069   1.784 -3.4464  0.0544  0.1856
 7438SOL     OW23212   1.668   6.830   0.042 -0.0869 -0.4733 -0.3061
 7438SOL    HW123213   1.695   6.761  -0.025 -2.0912 -0.6512 -0.9895
 7438SOL    HW223214   1.575   6.811   0.075  0.5239  0.0827  1.9228
 7439SOL     OW23215   1.298   5.313   0.522 -0.5624  0.1807  0.1635
 7439SOL    HW123216   1.332   5.329   0.429  0.1426 -0.8498  0.2283
 7439SOL    HW223217   1.244   5.229   0.523  2.0002 -1.5558  1.2622
 7440SOL     OW23218   6.785   3.338   3.203  0.5972 -0.1123 -0.0480
 7440SOL    HW123219   6.792   3.296   3.113  1.0001 -0.7154  0.2557
 7440SOL    HW223220   6.871   3.326   3.252  0.8192  1.3440 -0.0628
 7441SOL     OW23221   5.975   0.025   2.369 -0.7042 -0.2429  0.7055
 7441SOL    HW123222   6.073   0.009   2.369 -0.8012 -1.0102 -0.6160
 7441SOL    HW223223   5.957   0.121   2.386  0.2259 -0.2458  1.8337
 7442SOL     OW23224   0.375   1.665   6.017 -0.0657  0.2837  0.3199
 7442SOL    HW123225   0.305   1.721   6.062  0.8975  1.0488  0.8791
 7442SOL    HW223226   0.354   1.659   5.919 -1.5516 -0.4643  0.6435
 7443SOL     OW23227   6.369   6.468   6.312  0.4719  0.8864  0.8637
 7443SOL    HW123228   6.311   6.391   6.339 -0.0872  1.3073  0.8840
 7443SOL    HW223229   6.354   6.544   6.376  0.8922  1.0700  0.7423
 7444SOL     OW23230   5.263   5.822   6.644  0.1141 -0.2409 -0.7064
 7444SOL    HW123231   5.209   5.860   6.569  0.6072 -0.6152 -1.2513
 7444SOL    HW223232   5.205   5.764   6.701 -0.9424  2.0622  0.7460
 7445SOL     OW23233   2.957   5.213   3.849 -0.4650  0.1471 -0.2604
 7445SOL    HW123234   2.992   5.127   3.886 -2.1989 -1.5606 -2.3500
 7445SOL    HW223235   2.904   5.260   3.920 -0.0268 -0.8110  0.7318
 7446SOL     OW23236   6.151   4.956   0.903 -0.4229 -0.0485  0.3161
 7446SOL    HW123237   6.222   4.982   0.837 -0.6448 -1.1588 -0.3957
 7446SOL    HW223238   6.072   5.017   0.892 -1.2050 -1.3105 -1.7885
 7447SOL     OW23239   5.843   5.505   1.150 -0.4360  0.6469 -0.3637
 7447SOL    HW123240   5.776   5.438   1.119 -1.1137  0.4945  1.3210
 7447SOL    HW223241   5.928   5.494   1.098 -1.0095 -0.5448 -1.0876
 7448SOL     OW23242   4.371   3.498   6.864  0.3584 -0.0410 -0.8132
 7448SOL    HW123243   4.447   3.450   6.908  2.1164  1.8033 -1.6329
 7448SOL    HW223244   4.321   3.551   6.932 -0.4928 -1.5952 -0.1950
 7449SOL     OW23245   5.431   3.125   6.573  0.4541 -0.3011 -0.4130
 7449SOL    HW123246   5.346   3.169   6.600  0.9695  0.3700  0.1452
 7449SOL    HW223247   5.445   3.137   6.474 -0.8486 -1.7554 -0.8185
 7450SOL     OW23248   6.632   2.389   5.577  0.4353  0.4560  0.3260
 7450SOL    HW123249   6.695   2.319   5.545  1.1297  2.0104 -2.0033
 7450SOL    HW223250   6.558   2.401   5.511  0.2080  1.7359  0.7666
 7451SOL     OW23251   4.214   5.367   2.714  0.5319 -0.7727 -0.5510
 7451SOL    HW123252   4.267   5.284   2.696  0.8616 -0.2318 -2.2416
 7451SOL    HW223253   4.118   5.350   2.693  0.4625 -0.9543 -0.1018
 7452SOL     OW23254   5.171   5.681   5.886  0.2247  0.0733 -0.4569
 7452SOL    HW123255   5.146   5.687   5.789 -0.7557  0.2980 -0.1995
 7452SOL    HW223256   5.228   5.759   5.910 -0.4049  0.6012 -0.6165
 7453SOL     OW23257   4.893   2.363   6.022  0.3545  0.0277 -0.2406
 7453SOL    HW123258   4.845   2.442   6.059  1.5329  1.6816 -2.0492
 7453SOL    HW223259   4.991   2.384   6.015  0.5016 -1.0614 -2.0328
 7454SOL     OW23260   2.948   0.903   7.010  0.3957  0.2020 -0.1724
 7454SOL    HW123261   2.970   0.808   6.987 -0.1212 -0.1994  0.9315
 7454SOL    HW223262   2.985   0.964   6.940  0.4908 -0.8338 -1.0358
 7455SOL     OW23263   1.785   0.625   1.985 -0.6322  0.0033  0.4860
 7455SOL    HW123264   1.750   0.552   2.044 -2.4983  0.8264  0.4584
 7455SOL    HW223265   1.833   0.692   2.042 -1.1127  0.0324  0.8651
 7456SOL     OW23266   2.315   0.822   6.081 -0.4332 -0.1122 -0.2598
 7456SOL    HW123267   2.368   0.812   5.997 -0.3328 -2.6180  0.0239
 7456SOL    HW223268   2.219   0.835   6.058 -0.2979  0.0377 -0.7617
 7457SOL     OW23269   1.252   2.589   4.141 -0.1045 -0.2335 -0.1269
 7457SOL    HW123270   1.337   2.561   4.096 -0.9121 -1.6087 -0.8915
 7457SOL    HW223271   1.182   2.608   4.071 -0.5960  0.3093  0.4982
 7458SOL     OW23272   0.799   5.845   6.418 -0.5690 -0.1847  0.5041
 7458SOL    HW123273   0.833   5.893   6.336  0.5822 -2.4429 -0.4274
 7458SOL    HW223274   0.703   5.822   6.405 -0.6082  0.1629  0.1442
 7459SOL     OW23275   7.012   6.502   1.186 -0.2125 -0.1783  0.8490
 7459SOL    HW123276   7.005   6.428   1.119  1.9596  2.4666 -2.7107
 7459SOL    HW223277   6.934   6.563   1.177  0.2821  0.4002  0.3809
 7460SOL     OW23278   1.612   0.886   1.796  0.1947 -0.4929 -0.4444
 7460SOL    HW123279   1.676   0.955   1.761 -1.3622  0.6515 -1.1423
 7460SOL    HW223280   1.613   0.887   1.896  1.1638 -0.4319 -0.4400
 7461SOL     OW23281   1.615   3.779   4.738 -0.4452 -0.4999  0.1158
 7461SOL    HW123282   1.650   3.861   4.783  2.0250 -1.1381 -0.4694
 7461SOL    HW223283   1.588   3.802   4.644 -1.2449 -0.0720  0.4430
 7462SOL     OW23284   0.497   4.344   0.457 -0.1358  0.0958  0.6636
 7462SOL    HW123285   0.583   4.305   0.490 -0.6326 -1.5542  0.1234
 7462SOL    HW223286   0.447   4.274   0.405 -2.2077  0.7298  1.7134
 7463SOL     OW23287   2.703   4.386   1.431 -0.2231 -0.9664 -0.2187
 7463SOL    HW123288   2.760   4.360   1.352  0.2448 -0.3655 -0.0825
 7463SOL    HW223289   2.761   4.423   1.503 -0.4655 -2.7939  0.9860
 7464SOL     OW23290   4.772   0.365   5.421  0.8742  0.1821 -0.4915
 7464SOL    HW123291   4.813   0.418   5.495 -1.5644  0.8193  0.5116
 7464SOL    HW223292   4.836   0.357   5.345  2.9487  0.6767  1.1389
 7465SOL     OW23293   1.911   3.690   6.856  0.0638 -0.0300 -0.2653
 7465SOL    HW123294   1.937   3.689   6.759  0.1432 -0.6894 -0.2379
 7465SOL    HW223295   1.981   3.643   6.909  0.1108  0.4912  0.1416
 7466SOL     OW23296   2.635   0.689   6.347  0.2825  0.2661  0.3205
 7466SOL    HW123297   2.731   0.712   6.362  0.4152 -0.1249  0.1054
 7466SOL    HW223298   2.578   0.768   6.369  0.7201  0.7974 -0.4012
 7467SOL     OW23299   1.921   4.856   2.198 -0.2304 -0.6783 -0.0934
 7467SOL    HW123300   1.900   4.778   2.257  0.8637 -0.8418  0.0985
 7467SOL    HW223301   2.013   4.889   2.218  0.9631 -1.9301 -3.0157
 7468SOL     OW23302   5.652   4.273   3.393  0.5106 -0.1478  0.0746
 7468SOL    HW123303   5.573   4.213   3.402 -0.4732  0.8134 -1.4983
 7468SOL    HW223304   5.703   4.276   3.479 -0.8525 -1.2117  0.9516
 7469SOL     OW23305   6.915   1.182   1.328  0.1541 -0.0539 -0.3989
 7469SOL    HW123306   6.846   1.243   1.290  1.1314  0.1081 -2.0218
 7469SOL    HW223307   6.989   1.236   1.369  0.2154 -0.1851 -0.3356
 7470SOL     OW23308   4.104   2.176   3.142  0.2879 -0.3043  0.2250
 7470SOL    HW123309   4.018   2.133   3.169 -0.6477  1.6714  0.5517
 7470SOL    HW223310   4.136   2.237   3.215  0.6857  0.7947 -0.8229
 7471SOL     OW23311   1.910   6.659   0.203 -0.0510 -0.0664  0.1937
 7471SOL    HW123312   1.980   6.609   0.253  0.6869 -0.5591 -1.2739
 7471SOL    HW223313   1.835   6.597   0.179 -0.3482  0.1404  0.5773
 7472SOL     OW23314   1.699   5.921   3.592 -0.0506  0.0475 -0.8885
 7472SOL    HW123315   1.625   5.854   3.595  0.8244 -0.9487  1.3580
 7472SOL    HW223316   1.754   5.908   3.510 -0.9061 -0.8577 -1.3261
 7473SOL     OW23317   1.477   4.955   3.790  0.1718 -0.2067  0.6114
 7473SOL    HW123318   1.557   4.898   3.771  0.9506  0.7756  0.8718
 7473SOL    HW223319   1.471   5.028   3.722 -1.1504 -0.9133 -0.0627
 7474SOL     OW23320   0.714   2.345   0.851 -0.1912  0.4366 -0.1490
 7474SOL    HW123321   0.650   2.402   0.799 -0.5949 -0.3880 -0.5815
 7474SOL    HW223322   0.670   2.316   0.937 -0.2124  0.2782 -0.2135
 7475SOL     OW23323   5.213   1.742   1.635 -0.7436 -0.5960 -0.7382
 7475SOL    HW123324   5.242   1.832   1.600  1.2612 -0.7915  0.2430
 7475SOL    HW223325   5.172   1.754   1.725  0.8478 -0.7269  0.0528
 7476SOL     OW23326   3.579   0.341   2.359  0.1084 -0.1050  0.5088
 7476SOL    HW123327   3.658   0.283   2.381 -0.8443 -1.1431  1.3411
 7476SOL    HW223328   3.501   0.314   2.417 -2.1238 -1.9394 -3.0264
 7477SOL     OW23329   2.933   2.013   5.009 -0.4724 -0.0653  0.0715
 7477SOL    HW123330   2.936   1.926   4.960 -0.6714 -0.8080  1.3327
 7477SOL    HW223331   2.899   2.085   4.947  0.3894 -0.7099 -1.1964
 7478SOL     OW23332   0.147   2.226   6.103  0.2981  0.1376 -0.0007
 7478SOL    HW123333   0.073   2.267   6.156  0.1672  0.6548 -0.5662
 7478SOL    HW223334   0.235   2.266   6.131  0.4715 -1.0106  1.1940
 7479SOL     OW23335   4.789   1.598   2.334 -0.0225 -0.1579 -0.5671
 7479SOL    HW123336   4.828   1.532   2.271  0.2882 -0.0206 -0.5208
 7479SOL    HW223337   4.699   1.626   2.302 -1.2512 -2.4501  0.6780
 7480SOL     OW23338   4.395   6.226   1.891 -0.5369 -0.1901  0.2438
 7480SOL    HW123339   4.471   6.232   1.827 -1.9464 -2.3801 -1.8311
 7480SOL    HW223340   4.424   6.179   1.974  0.4882 -0.5606 -0.3124
 7481SOL     OW23341   1.093   4.235   0.996 -0.3659 -0.2091 -0.0601
 7481SOL    HW123342   1.003   4.242   0.953  1.0627 -0.7146 -3.3954
 7481SOL    HW223343   1.125   4.327   1.021 -2.1115 -0.0963  2.0943
 7482SOL     OW23344   3.969   0.682   5.591 -0.1825 -0.2221 -0.5465
 7482SOL    HW123345   3.877   0.719   5.584  0.2314  0.6804 -1.3887
 7482SOL    HW223346   3.970   0.588   5.558 -1.0256 -0.6634  0.6004
 7483SOL     OW23347   6.145   2.226   5.952  0.1970  0.0090  0.1326
 7483SOL    HW123348   6.103   2.136   5.943  1.3229 -0.5179 -0.0318
 7483SOL    HW223349   6.232   2.217   6.001 -0.2556  1.1874  1.1991
 7484SOL     OW23350   0.979   0.544   5.316 -0.1784 -0.7590 -0.4768
 7484SOL    HW123351   0.883   0.527   5.292 -0.1741  0.7832 -1.7268
 7484SOL    HW223352   1.004   0.638   5.291  0.6378  0.1698  3.2335
 7485SOL     OW23353   4.719   0.106   6.215  0.1128 -0.1627  1.0170
 7485SOL    HW123354   4.691   0.111   6.311  2.5723 -0.7488  1.8501
 7485SOL    HW223355   4.671   0.176   6.162 -0.3877  1.0082  2.9355
 7486SOL     OW23356   4.939   5.752   0.195 -0.3961  0.7139  0.5049
 7486SOL    HW123357   4.989   5.782   0.114 -2.4678  0.1320 -1.0580
 7486SOL    HW223358   4.876   5.823   0.224 -0.6365  0.3976  0.7729
 7487SOL     OW23359   2.841   5.334   4.443  0.4176  0.0161 -0.6034
 7487SOL    HW123360   2.923   5.290   4.408  1.1828  0.5474  0.4729
 7487SOL    HW223361   2.798   5.388   4.370  1.7400  0.7782 -0.8389
 7488SOL     OW23362   2.391   0.407   4.457  0.4290 -0.9664 -0.1476
 7488SOL    HW123363   2.294   0.380   4.458  0.5480 -1.4009  0.8673
 7488SOL    HW223364   2.442   0.351   4.522  1.4851 -1.1331 -1.0934
 7489SOL     OW23365   5.450   4.323   6.754  0.7855 -0.2748 -0.0473
 7489SOL    HW123366   5.542   4.286   6.748  0.6127 -0.8807  0.9295
 7489SOL    HW223367   5.454   4.417   6.787  1.0987 -0.0141 -0.8041
 7490SOL     OW23368   1.595   0.479   1.295 -0.2880 -0.5540  0.6122
 7490SOL    HW123369   1.551   0.471   1.206 -1.3475 -3.3523  1.2525
 7490SOL    HW223370   1.531   0.518   1.361 -0.4602 -0.9663  0.6947
 7491SOL     OW23371   4.452   4.981   5.794  0.3665  0.2232  0.6604
 7491SOL    HW123372   4.420   5.076   5.786 -1.0386 -0.3380 -0.9685
 7491SOL    HW223373   4.398   4.933   5.862  1.6958  0.7814  2.1837
 7492SOL     OW23374   1.269   1.137   0.491  0.3547  0.7561  0.4186
 7492SOL    HW123375   1.354   1.129   0.542  2.0540 -0.5834 -2.3823
 7492SOL    HW223376   1.262   1.062   0.425 -2.0248  1.9619 -0.8535
 7493SOL     OW23377   5.857   5.056   5.026  0.0166 -0.4061  0.1162
 7493SOL    HW123378   5.825   4.982   4.966 -0.9919  0.0228  0.1126
 7493SOL    HW223379   5.859   5.023   5.121  1.2814 -0.9753 -0.0742
 7494SOL     OW23380   6.084   2.261   1.202 -0.2939  0.5186 -0.2857
 7494SOL    HW123381   6.090   2.358   1.177  1.8442  0.3642 -0.6300
 7494SOL    HW223382   6.117   2.205   1.126 -1.2364 -0.4648  0.0130
 7495SOL     OW23383   2.338   2.266   4.781 -0.1208  0.0949 -0.0323
 7495SOL    HW123384   2.258   2.320   4.755 -1.6531 -2.5111 -1.2377
 7495SOL    HW223385   2.339   2.253   4.880 -2.1197 -0.9993 -0.0901
 7496SOL     OW23386   5.772   3.743   4.111 -0.2383  0.4503 -0.5050
 7496SOL    HW123387   5.778   3.712   4.016 -1.1302  1.0974 -0.7874
 7496SOL    HW223388   5.864   3.759   4.147  0.0849  0.8027 -1.4636
 7497SOL     OW23389   5.448   0.734   1.570  0.1256  0.0218 -0.2913
 7497SOL    HW123390   5.379   0.783   1.517  0.6542  1.9501  0.6943
 7497SOL    HW223391   5.537   0.778   1.558  0.4521 -0.1121  1.3428
 7498SOL     OW23392   1.504   6.747   2.337  0.3846  0.1040 -0.6622
 7498SOL    HW123393   1.552   6.746   2.425 -0.6771 -1.9315 -0.0225
 7498SOL    HW223394   1.569   6.764   2.263  1.9492 -1.4850  0.2714
 7499SOL     OW23395   1.143   1.277   2.211  0.1226 -0.3572  0.1012
 7499SOL    HW123396   1.106   1.370   2.220 -1.1469 -0.9253  1.1284
 7499SOL    HW223397   1.083   1.224   2.151  0.6171 -0.6347 -0.1535
 7500SOL     OW23398   2.827   2.199   0.149 -0.1357  0.1324 -0.2496
 7500SOL    HW123399   2.745   2.219   0.202  0.4151 -3.7253  2.5262
 7500SOL    HW223400   2.802   2.147   0.067 -0.5354 -0.8950  0.5041
 7501SOL     OW23401   6.059   1.951   4.616 -0.0593  0.1798 -0.1468
 7501SOL    HW123402   6.008   1.903   4.545 -0.6929  0.3924  0.1565
 7501SOL    HW223403   6.029   1.920   4.706  0.7888 -0.1408  0.0400
 7502SOL     OW23404   3.983   1.137   6.292 -0.2930 -0.3553  0.0683
 7502SOL    HW123405   4.062   1.193   6.314 -1.4919  1.8110 -0.7538
 7502SOL    HW223406   3.911   1.152   6.360 -0.7425 -0.6161 -0.3378
 7503SOL     OW23407   1.270   5.587   1.370 -0.7460 -0.1023  0.1540
 7503SOL    HW123408   1.211   5.618   1.444 -0.6060 -0.3736  0.3793
 7503SOL    HW223409   1.332   5.662   1.344 -0.0245 -0.3467  1.0824
 7504SOL     OW23410   6.646   6.331   6.276  0.1276  0.7861 -0.2175
 7504SOL    HW123411   6.605   6.293   6.193  1.1675  1.8531 -1.2605
 7504SOL    HW223412   6.581   6.393   6.320 -0.9679 -0.8587  0.6067
 7505SOL     OW23413   6.319   5.138   0.743  0.2595 -0.4904  0.2293
 7505SOL    HW123414   6.411   5.142   0.782  0.4268  1.2475 -0.2580
 7505SOL    HW223415   6.269   5.221   0.767 -0.5380 -0.5694 -1.0606
 7506SOL     OW23416   3.869   1.998   5.832 -0.4689  0.0529 -0.7482
 7506SOL    HW123417   3.955   1.960   5.798 -1.0367 -0.9012 -1.1548
 7506SOL    HW223418   3.828   2.056   5.762 -1.2479 -1.2791 -1.4186
 7507SOL     OW23419   0.692   2.581   5.767  0.1479  0.3182 -0.5778
 7507SOL    HW123420   0.711   2.586   5.865 -0.7503 -0.6696 -0.3331
 7507SOL    HW223421   0.778   2.576   5.716  0.6387  1.4743  0.1008
 7508SOL     OW23422   4.067   5.680   0.831  0.3380  0.1118 -0.2725
 7508SOL    HW123423   4.110   5.686   0.741 -1.0481  1.1697 -0.9060
 7508SOL    HW223424   3.981   5.730   0.830 -0.3833 -1.0180  1.2646
 7509SOL     OW23425   5.705   4.993   3.862  0.3993  0.6996 -0.6933
 7509SOL    HW123426   5.709   4.934   3.782 -3.0304  0.9640 -1.2193
 7509SOL    HW223427   5.690   4.938   3.944  0.5582  0.6369 -0.7058
 7510SOL     OW23428   3.760   3.014   1.597  0.2774  0.1940 -0.3097
 7510SOL    HW123429   3.840   3.015   1.537  0.0947  2.4250 -0.6292
 7510SOL    HW223430   3.788   3.035   1.690  0.0403  1.5019 -0.5166
 7511SOL     OW23431   4.853   6.470   3.320 -0.0386 -0.1667  0.3246
 7511SOL    HW123432   4.926   6.526   3.359 -0.2137  0.5945 -0.4102
 7511SOL    HW223433   4.878   6.374   3.327  1.7053  0.1081 -1.1241
 7512SOL     OW23434   2.420   6.260   1.392  0.2451 -0.1004  0.5874
 7512SOL    HW123435   2.325   6.286   1.411  0.1678 -0.2532  0.4105
 7512SOL    HW223436   2.422   6.192   1.319  0.4138 -0.9536  1.3681
 7513SOL     OW23437   0.770   2.651   1.593 -0.0367 -0.5592  0.0881
 7513SOL    HW123438   0.821   2.572   1.560 -0.1493 -0.4055 -0.4756
 7513SOL    HW223439   0.826   2.702   1.658  0.2553 -0.7878  0.0178
 7514SOL     OW23440   5.314   1.225   1.512  0.4957  0.4549 -0.5561
 7514SOL    HW123441   5.300   1.322   1.529 -0.3864  0.3328 -0.5138
 7514SOL    HW223442   5.237   1.173   1.551  1.3087 -0.3237  0.0656
 7515SOL     OW23443   0.119   4.543   4.218 -0.0185 -0.0843 -0.1373
 7515SOL    HW123444   0.077   4.559   4.128  0.8220  3.2829 -0.0443
 7515SOL    HW223445   0.218   4.553   4.211  0.0431  0.3487  1.1942
 7516SOL     OW23446   0.970   4.320   6.781  0.1111 -0.2422 -0.7628
 7516SOL    HW123447   1.025   4.357   6.856 -0.6660 -0.4472 -0.0803
 7516SOL    HW223448   1.029   4.303   6.702  0.7872  0.8308 -0.5151
 7517SOL     OW23449   0.206   1.429   0.743  0.2261  0.1510  0.4151
 7517SOL    HW123450   0.123   1.457   0.694 -0.7399  0.5427  2.1581
 7517SOL    HW223451   0.283   1.485   0.714 -0.3597  0.5222 -0.4621
 7518SOL     OW23452   2.667   3.554   5.634 -0.0099  0.1314 -0.1040
 7518SOL    HW123453   2.605   3.483   5.666 -0.6441 -0.1303 -1.8055
 7518SOL    HW223454   2.654   3.568   5.535  1.1336  1.5791 -0.0889
 7519SOL     OW23455   3.203   6.992   4.119  0.2831 -0.1656 -0.0559
 7519SOL    HW123456   3.170   6.899   4.102  1.7276 -0.6405 -0.3676
 7519SOL    HW223457   3.261   6.992   4.201  0.9523  0.3028 -0.5271
 7520SOL     OW23458   3.544   6.134   6.709 -0.5566 -0.4697  0.0400
 7520SOL    HW123459   3.456   6.087   6.712 -0.9732  0.1462 -1.5860
 7520SOL    HW223460   3.540   6.209   6.643  1.4643 -1.0290 -0.8238
 7521SOL     OW23461   4.804   0.661   4.474 -0.4066  0.2202 -0.1612
 7521SOL    HW123462   4.898   0.693   4.464 -1.0636  2.2465 -0.1296
 7521SOL    HW223463   4.802   0.586   4.541  1.2702 -0.4446 -0.7844
 7522SOL     OW23464   1.797   6.664   5.228 -0.1251 -0.0674 -0.6566
 7522SOL    HW123465   1.753   6.736   5.174  1.0222  1.7061  0.6353
 7522SOL    HW223466   1.895   6.663   5.208  0.2623  0.3790  1.0376
 7523SOL     OW23467   6.498   0.387   2.282  0.0906  0.0899  0.2975
 7523SOL    HW123468   6.527   0.444   2.359  1.5558 -0.6122  0.2891
 7523SOL    HW223469   6.487   0.443   2.201  0.5260  0.5289  0.5367
 7524SOL     OW23470   0.020   3.741   4.577 -0.1568 -0.7460 -0.2608
 7524SOL    HW123471   0.077   3.820   4.601 -1.8846  0.7644 -0.8775
 7524SOL    HW223472   0.078   3.667   4.544  1.4778  0.5834 -0.5192
 7525SOL     OW23473   1.858   4.055   5.545  0.8262 -0.6267 -0.4947
 7525SOL    HW123474   1.923   4.121   5.583 -1.1044  0.7482  0.5375
 7525SOL    HW223475   1.827   4.087   5.455 -0.3246  0.0594  0.1292
 7526SOL     OW23476   0.500   3.636   6.195 -0.2829  0.5056 -0.1279
 7526SOL    HW123477   0.567   3.678   6.134  2.4599 -0.4986  2.0110
 7526SOL    HW223478   0.448   3.567   6.145  1.8032 -0.2509 -1.3777
 7527SOL     OW23479   2.579   6.007   2.617 -0.3101 -0.5768  0.1066
 7527SOL    HW123480   2.648   6.075   2.591 -2.3123  0.9505 -1.5395
 7527SOL    HW223481   2.623   5.919   2.630  2.1693  0.6591  0.7346
 7528SOL     OW23482   6.388   3.155   1.280 -0.0789 -0.2209  0.2002
 7528SOL    HW123483   6.390   3.212   1.362  2.9473 -0.4224  0.3878
 7528SOL    HW223484   6.468   3.094   1.280 -1.2554 -1.8973 -1.7755
 7529SOL     OW23485   5.116   2.909   6.632 -0.3009 -0.0996  0.6700
 7529SOL    HW123486   5.125   2.886   6.535 -1.7512 -3.4419  1.1796
 7529SOL    HW223487   5.039   2.972   6.644 -0.0275  0.4478 -0.3445
 7530SOL     OW23488   0.576   0.811   3.321 -0.8349 -0.3381  0.2125
 7530SOL    HW123489   0.479   0.819   3.345 -2.0063 -0.0604 -3.8127
 7530SOL    HW223490   0.623   0.896   3.342 -1.5735 -0.2612  1.6576
 7531SOL     OW23491   5.548   0.375   3.511  0.3749 -0.0059  0.2624
 7531SOL    HW123492   5.601   0.446   3.464 -0.0182  0.9694  1.2501
 7531SOL    HW223493   5.500   0.319   3.443  2.5012 -0.8328 -0.6698
 7532SOL     OW23494   5.243   3.964   4.434 -0.2730  0.2866  0.6239
 7532SOL    HW123495   5.298   3.884   4.409 -0.5423 -0.1404  1.3509
 7532SOL    HW223496   5.224   3.961   4.532  0.0545  1.4737  0.7283
 7533SOL     OW23497   3.953   3.614   6.362  0.0401  0.2596  0.0848
 7533SOL    HW123498   3.916   3.608   6.455  0.5518 -2.6907  0.1861
 7533SOL    HW223499   3.884   3.651   6.301 -0.7713  0.9894  1.3928
 7534SOL     OW23500   4.804   6.335   4.706  0.3658  0.3244  0.2122
 7534SOL    HW123501   4.773   6.416   4.757  0.0836  0.6053 -0.3852
 7534SOL    HW223502   4.813   6.359   4.610  1.0763 -0.1488  0.1587
 7535SOL     OW23503   0.757   1.847   5.126  0.1951 -0.3121  0.2348
 7535SOL    HW123504   0.773   1.796   5.211 -2.3482 -0.2269  0.8529
 7535SOL    HW223505   0.842   1.890   5.097  1.6537 -2.1323  1.5234
 7536SOL     OW23506   6.235   1.657   3.266 -0.0355  0.4708  0.0069
 7536SOL    HW123507   6.225   1.732   3.330 -1.0186 -0.4079  0.9033
 7536SOL    HW223508   6.332   1.637   3.253  0.1975  1.2758  0.4722
 7537SOL     OW23509   3.659   0.956   2.398  0.1704  0.0051 -0.0165
 7537SOL    HW123510   3.636   0.868   2.356  0.4122 -0.7214  1.2936
 7537SOL    HW223511   3.703   1.015   2.331 -0.9839 -0.4553 -1.2127
 7538SOL     OW23512   0.512   2.929   6.688  0.2140 -0.0663 -0.0363
 7538SOL    HW123513   0.541   2.859   6.753  1.3707 -0.5581 -1.0539
 7538SOL    HW223514   0.587   2.952   6.627 -0.4350  1.3914 -0.3367
 7539SOL     OW23515   6.711   0.921   5.025 -0.0241 -0.6582 -0.6417
 7539SOL    HW123516   6.703   0.927   5.125  0.7168 -0.5425 -0.5844
 7539SOL    HW223517   6.620   0.931   4.984 -0.1416  0.9113 -0.0594
 7540SOL     OW23518   5.269   5.945   4.231  0.2663  0.2285 -0.3202
 7540SOL    HW123519   5.257   5.922   4.327 -3.8346 -0.9563 -0.9487
 7540SOL    HW223520   5.283   6.043   4.221 -0.2085  0.5023  1.4241
 7541SOL     OW23521   1.914   4.788   4.263 -0.1597 -0.7842 -0.1493
 7541SOL    HW123522   1.896   4.734   4.180 -0.8507 -0.0322 -0.5074
 7541SOL    HW223523   1.840   4.854   4.276 -0.6103 -1.5796  1.6476
 7542SOL     OW23524   0.551   4.588   6.483 -0.0921  0.1074 -0.1649
 7542SOL    HW123525   0.547   4.514   6.551  1.8901  1.2098  1.2475
 7542SOL    HW223526   0.636   4.581   6.431  0.0612  1.3036 -0.1024
 7543SOL     OW23527   0.780   1.714   1.244 -0.3100  0.5843 -0.3396
 7543SOL    HW123528   0.776   1.755   1.153  0.3658  0.3668 -0.4750
 7543SOL    HW223529   0.760   1.617   1.238  2.6707 -0.1184 -0.7569
 7544SOL     OW23530   6.947   1.631   5.350  0.5589  0.0530 -0.5849
 7544SOL    HW123531   6.882   1.706   5.334  1.0318  0.0564 -2.6993
 7544SOL    HW223532   7.039   1.668   5.361  0.5415 -0.1115  0.1663
 7545SOL     OW23533   1.136   5.858   2.337 -0.1899 -0.1667  0.3671
 7545SOL    HW123534   1.153   5.951   2.368 -1.1156  0.4330 -0.8534
 7545SOL    HW223535   1.173   5.793   2.404 -0.4762  1.0625  1.7591
 7546SOL     OW23536   1.180   3.366   1.693  0.0969 -0.2372  0.4086
 7546SOL    HW123537   1.209   3.413   1.610  2.0587  0.7303  1.5828
 7546SOL    HW223538   1.088   3.397   1.719 -0.1476  0.1516 -0.8488
 7547SOL     OW23539   5.337   1.687   0.408 -0.1287 -0.5896 -1.2554
 7547SOL    HW123540   5.370   1.751   0.477  2.2890 -0.8272 -2.0853
 7547SOL    HW223541   5.276   1.734   0.345 -1.0203  0.0413  0.0409
 7548SOL     OW23542   3.740   2.677   0.446 -0.0694  0.5930 -0.6987
 7548SOL    HW123543   3.742   2.673   0.346 -0.5227  1.4887 -0.7559
 7548SOL    HW223544   3.822   2.633   0.483 -1.0075 -1.8984 -1.3683
 7549SOL     OW23545   5.743   1.895   5.349 -0.0873  0.0875  0.2508
 7549SOL    HW123546   5.799   1.954   5.407 -1.0129 -0.8447  2.1748
 7549SOL    HW223547   5.797   1.816   5.320  0.0224 -0.0826  0.9057
 7550SOL     OW23548   2.391   4.369   5.074  0.3881 -0.3669  0.3368
 7550SOL    HW123549   2.401   4.345   5.171 -0.1213  0.7244  0.6817
 7550SOL    HW223550   2.312   4.321   5.036  1.1133 -1.4925  0.2048
 7551SOL     OW23551   5.255   2.735   6.318  0.5036  0.1349  0.3693
 7551SOL    HW123552   5.204   2.821   6.308 -0.1883 -0.4213 -1.3915
 7551SOL    HW223553   5.199   2.668   6.366  0.9098  0.5533  1.4387
 7552SOL     OW23554   1.651   5.593   5.478 -0.7264  0.2896  0.5137
 7552SOL    HW123555   1.671   5.557   5.569  0.1876 -0.6400 -0.0347
 7552SOL    HW223556   1.619   5.688   5.487 -1.7399 -0.1406  1.8650
 7553SOL     OW23557   6.536   6.836   5.464 -0.3170  0.5327 -0.5823
 7553SOL    HW123558   6.581   6.923   5.449 -1.2215  1.2508  0.7192
 7553SOL    HW223559   6.437   6.849   5.465 -0.4644 -0.4960 -0.2701
 7554SOL     OW23560   4.236   1.895   2.685  0.5520 -0.2173 -0.4711
 7554SOL    HW123561   4.184   1.854   2.760  1.5389 -0.1448  0.2744
 7554SOL    HW223562   4.174   1.925   2.613 -0.3505 -1.0437 -0.0530
 7555SOL     OW23563   3.783   5.471   3.141  0.0676  0.0819  0.4668
 7555SOL    HW123564   3.802   5.428   3.053 -0.6697  0.8046 -0.0744
 7555SOL    HW223565   3.859   5.456   3.204  0.1453 -1.3366  0.0562
 7556SOL     OW23566   0.275   6.462   6.083  0.7790 -0.1422  0.6898
 7556SOL    HW123567   0.212   6.447   6.159  0.4455 -1.0132  0.2461
 7556SOL    HW223568   0.286   6.378   6.031  1.2488  0.3629 -0.0499
 7557SOL     OW23569   6.041   6.027   6.439 -0.0802  0.2472 -0.3445
 7557SOL    HW123570   6.134   5.995   6.451  0.3640  1.3295 -0.7261
 7557SOL    HW223571   6.004   6.057   6.527  0.9413  2.3689 -0.5784
 7558SOL     OW23572   1.279   1.145   2.744  0.3074  0.2200  0.2333
 7558SOL    HW123573   1.353   1.189   2.694  0.1534  0.7493  0.4607
 7558SOL    HW223574   1.246   1.207   2.816  1.3377 -0.9816  1.8008
 7559SOL     OW23575   2.468   6.376   5.543  0.4248 -0.3420  0.1627
 7559SOL    HW123576   2.525   6.305   5.585  0.0640 -0.7006  0.0464
 7559SOL    HW223577   2.474   6.459   5.598 -1.1696 -1.2272  1.7637
 7560SOL     OW23578   0.725   1.662   4.438 -0.6876  0.3995 -0.0691
 7560SOL    HW123579   0.789   1.609   4.494 -1.6674 -0.0056  0.6960
 7560SOL    HW223580   0.632   1.630   4.453 -1.1692  1.4601 -0.6115
 7561SOL     OW23581   4.719   0.401   0.065 -0.1856 -0.3291  0.0899
 7561SOL    HW123582   4.677   0.442  -0.016  1.1259  0.3891 -0.2577
 7561SOL    HW223583   4.708   0.302   0.061 -0.7592 -0.2517 -0.6017
 7562SOL     OW23584   0.370   5.454   3.916  0.2668 -0.2032  0.0831
 7562SOL    HW123585   0.404   5.528   3.973 -0.7008  1.4358 -1.3470
 7562SOL    HW223586   0.274   5.438   3.936  0.5754 -1.4166  0.6866
 7563SOL     OW23587   2.214   6.455   3.669 -0.1041 -0.4542 -0.1597
 7563SOL    HW123588   2.213   6.369   3.721  0.4917 -0.6931 -0.5436
 7563SOL    HW223589   2.142   6.515   3.704  1.1764 -0.0295  1.9366
 7564SOL     OW23590   5.769   2.970   0.603  0.4673  0.4732  0.1846
 7564SOL    HW123591   5.830   2.938   0.676  2.7510  2.6639 -0.6229
 7564SOL    HW223592   5.711   3.043   0.638 -0.0057  0.0385  0.3262
 7565SOL     OW23593   4.872   3.693   4.543 -0.3815 -0.3532 -0.6033
 7565SOL    HW123594   4.855   3.751   4.623 -0.6191 -0.9304 -0.2257
 7565SOL    HW223595   4.891   3.750   4.464 -1.0733  0.2508 -0.3458
 7566SOL     OW23596   6.445   6.528   1.186  0.3459  0.2608 -0.0830
 7566SOL    HW123597   6.522   6.522   1.251  0.7361  1.3070 -0.4235
 7566SOL    HW223598   6.456   6.609   1.129  0.7816 -1.3670 -2.4678
 7567SOL     OW23599   1.024   0.613   3.505 -0.0184 -0.4659 -0.3819
 7567SOL    HW123600   1.004   0.707   3.475 -0.1648  0.5669  2.5996
 7567SOL    HW223601   1.115   0.587   3.474  0.6136  1.2426 -0.0504
 7568SOL     OW23602   6.348   2.719   2.455  0.4368 -0.3852  0.3209
 7568SOL    HW123603   6.411   2.648   2.423  0.5087 -0.4621  0.6266
 7568SOL    HW223604   6.391   2.808   2.443  1.2042 -0.5106  1.8160
 7569SOL     OW23605   4.945   3.882   1.169  0.1296  0.7580 -0.0393
 7569SOL    HW123606   4.861   3.907   1.121  0.0449 -0.2539 -0.4417
 7569SOL    HW223607   4.931   3.892   1.268 -0.0222  1.8725 -0.1581
 7570SOL     OW23608   0.100   1.413   1.007 -0.0862 -0.1035 -0.1782
 7570SOL    HW123609   0.142   1.422   0.916 -0.1372 -1.9592 -0.4205
 7570SOL    HW223610   0.143   1.337   1.056  0.7864  1.6116  1.8844
 7571SOL     OW23611   3.877   0.741   4.051  0.3490 -0.4541 -0.3554
 7571SOL    HW123612   3.807   0.794   4.002 -1.1374  1.6515  3.5712
 7571SOL    HW223613   3.928   0.803   4.111  1.9277 -2.8185  0.8603
 7572SOL     OW23614   4.270   6.948   3.548 -0.3001 -0.2740 -0.0890
 7572SOL    HW123615   4.367   6.941   3.569 -0.5268  2.6144  2.6645
 7572SOL    HW223616   4.217   6.908   3.623 -1.2839 -1.0492 -1.1609
 7573SOL     OW23617   1.322   6.300   0.656 -0.5715  0.2788 -0.4857
 7573SOL    HW123618   1.244   6.264   0.708 -0.0280 -0.2722 -0.0441
 7573SOL    HW223619   1.367   6.225   0.607 -1.3779  0.8586 -2.1799
 7574SOL     OW23620   6.512   3.151   2.668  0.5925  0.1446  0.2842
 7574SOL    HW123621   6.602   3.137   2.710  1.0061  0.9779 -0.3171
 7574SOL    HW223622   6.522   3.168   2.570 -0.1579  0.9941  0.3398
 7575SOL     OW23623   0.189   5.415   5.890  0.2060 -0.3896  0.7225
 7575SOL    HW123624   0.133   5.398   5.809 -1.1718 -0.2225  1.6003
 7575SOL    HW223625   0.232   5.330   5.919 -0.9325 -0.9075  0.9696
 7576SOL     OW23626   4.954   2.830   7.000  0.3198  0.3802 -0.4749
 7576SOL    HW123627   5.042   2.836   6.953  0.7796  0.0897  0.3384
 7576SOL    HW223628   4.917   2.738   6.991  1.8241 -0.5792  2.1791
 7577SOL     OW23629   5.336   0.818   0.671 -0.0668  0.1486  0.0326
 7577SOL    HW123630   5.350   0.872   0.588  0.3082  1.6336  1.0297
 7577SOL    HW223631   5.243   0.781   0.670 -0.7429  1.7456 -0.1776
 7578SOL     OW23632   5.760   6.380   3.322 -0.2724 -0.0012 -0.0976
 7578SOL    HW123633   5.764   6.424   3.233  1.2212  1.3504  0.5751
 7578SOL    HW223634   5.805   6.438   3.390 -0.0796 -1.6359  1.2603
 7579SOL     OW23635   2.612   1.709   6.732  0.3108  0.9420  0.0982
 7579SOL    HW123636   2.695   1.670   6.693  0.5535  1.1263  0.4280
 7579SOL    HW223637   2.623   1.807   6.744  1.0901  0.6243  2.6511
 7580SOL     OW23638   1.438   4.373   0.707  0.5128 -0.4996 -0.2616
 7580SOL    HW123639   1.396   4.424   0.632 -0.6051  0.1033  0.7343
 7580SOL    HW223640   1.380   4.295   0.730  0.2175 -0.0012  0.7364
 7581SOL     OW23641   5.378   1.806   0.743 -0.4559  0.1743 -0.0344
 7581SOL    HW123642   5.477   1.792   0.745 -0.4980 -0.1090  0.0112
 7581SOL    HW223643   5.339   1.772   0.829 -0.6368 -0.0336 -0.2005
 7582SOL     OW23644   2.291   5.445   6.475  0.2117  0.4450 -0.5971
 7582SOL    HW123645   2.197   5.455   6.442  0.6996  2.1662 -1.5811
 7582SOL    HW223646   2.292   5.447   6.575 -0.8348 -0.1999 -0.5545
 7583SOL     OW23647   6.862   3.519   2.635  0.1231  0.3247  0.0601
 7583SOL    HW123648   6.840   3.445   2.571  0.5898  0.5086 -0.3189
 7583SOL    HW223649   6.949   3.498   2.680  0.6896  1.0537 -0.6820
 7584SOL     OW23650   0.225   1.266   3.655  0.5920  0.1847  0.8304
 7584SOL    HW123651   0.281   1.316   3.588  0.5991 -0.0820  0.6373
 7584SOL    HW223652   0.136   1.310   3.662 -0.2395 -1.0985 -1.0357
 7585SOL     OW23653   0.227   0.655   4.465 -0.3891  0.4173  0.1526
 7585SOL    HW123654   0.206   0.585   4.396 -1.7105  0.7346  0.1977
 7585SOL    HW223655   0.146   0.669   4.523  0.1867  1.2882  0.7611
 7586SOL     OW23656   1.560   6.921   4.067 -0.1041  0.5227  0.3511
 7586SOL    HW123657   1.471   6.917   4.112  0.6390 -2.1201  1.7516
 7586SOL    HW223658   1.569   6.843   4.005  0.4814  1.9049 -1.3709
 7587SOL     OW23659   5.731   1.641   2.704 -1.0838 -0.4961 -0.3182
 7587SOL    HW123660   5.827   1.654   2.730 -0.9315  0.2943 -1.2189
 7587SOL    HW223661   5.711   1.543   2.703  0.5538 -0.9059 -2.8555
 7588SOL     OW23662   1.748   3.245   4.348 -0.2280  0.2956  0.0072
 7588SOL    HW123663   1.674   3.304   4.381 -1.9781 -1.3239 -0.7935
 7588SOL    HW223664   1.797   3.291   4.274 -1.0540  1.0520 -0.0836
 7589SOL     OW23665   5.743   1.724   2.076 -0.7450 -0.1805 -0.2110
 7589SOL    HW123666   5.662   1.683   2.035 -0.6810 -0.0078 -0.5137
 7589SOL    HW223667   5.720   1.762   2.166 -1.1350  0.3767 -0.5425
 7590SOL     OW23668   5.945   6.212   0.077  0.5453 -0.3209  0.1054
 7590SOL    HW123669   5.899   6.298   0.100  1.0418 -0.0602  0.1270
 7590SOL    HW223670   5.965   6.210  -0.021  1.9075  0.2714  0.3440
 7591SOL     OW23671   3.521   4.352   6.280 -0.7636  0.2123 -0.0481
 7591SOL    HW123672   3.561   4.303   6.203 -1.2360  1.8694 -1.4037
 7591SOL    HW223673   3.511   4.290   6.358 -1.9355 -2.0017 -1.8628
 7592SOL     OW23674   0.595   2.320   5.479 -0.0340 -0.2995  0.6042
 7592SOL    HW123675   0.670   2.271   5.525  1.3797  1.5905  0.4308
 7592SOL    HW223676   0.633   2.386   5.414 -1.8410  0.9942  0.7749
 7593SOL     OW23677   0.370   1.912   6.246 -0.0495  0.5256 -0.1034
 7593SOL    HW123678   0.282   1.889   6.203  0.8186 -1.6955 -0.8355
 7593SOL    HW223679   0.354   1.946   6.338 -1.6393 -2.8649  1.0398
 7594SOL     OW23680   1.641   4.090   4.672  0.4046 -0.3720  0.1572
 7594SOL    HW123681   1.556   4.078   4.621  0.2450 -2.2528  0.7681
 7594SOL    HW223682   1.625   4.148   4.751  0.0894  0.6001 -0.6036
 7595SOL     OW23683   5.983   2.668   0.386  0.1425 -0.2360  0.0983
 7595SOL    HW123684   5.917   2.731   0.344  1.0308  2.1382  2.0587
 7595SOL    HW223685   6.046   2.719   0.444  2.3268 -2.7181  0.0900
 7596SOL     OW23686   4.230   1.391   6.656 -0.8428 -0.6337  0.5561
 7596SOL    HW123687   4.207   1.349   6.744 -2.9334 -2.0554 -0.5887
 7596SOL    HW223688   4.146   1.417   6.608  0.2683  0.7325 -0.7721
 7597SOL     OW23689   1.838   5.099   6.661  0.0311 -0.0106  0.2389
 7597SOL    HW123690   1.866   5.017   6.611 -0.2122  0.0740 -0.0402
 7597SOL    HW223691   1.813   5.171   6.596 -0.4409  0.0498  0.4805
 7598SOL     OW23692   5.083   0.051   2.669 -0.8069  0.0777  0.0580
 7598SOL    HW123693   5.050  -0.039   2.698 -0.7556  0.2927  0.7995
 7598SOL    HW223694   5.057   0.067   2.573 -0.0322 -1.0935 -0.3712
 7599SOL     OW23695   2.805   3.055   6.988 -0.3861  0.3173 -0.4463
 7599SOL    HW123696   2.821   3.115   7.067 -1.3227  0.0858 -0.0663
 7599SOL    HW223697   2.832   3.102   6.904  1.6885  0.1567  0.0790
 7600SOL     OW23698   1.068   6.222   4.009  0.0256  0.1403  0.3362
 7600SOL    HW123699   1.044   6.162   3.933 -0.9869 -0.2062  0.9076
 7600SOL    HW223700   1.044   6.177   4.096  0.2417  0.9329  0.8161
 7601SOL     OW23701   3.333   6.344   0.787 -0.1156  0.1590  0.3043
 7601SOL    HW123702   3.425   6.318   0.816  0.2216 -0.6123 -1.3382
 7601SOL    HW223703   3.268   6.327   0.861  0.8658 -0.5871  1.0088
 7602SOL     OW23704   6.362   0.420   0.489  0.2292 -0.1540 -0.4808
 7602SOL    HW123705   6.451   0.463   0.480  0.0245 -0.2114 -4.4748
 7602SOL    HW223706   6.291   0.491   0.493  0.2769 -0.1421  0.5439
 7603SOL     OW23707   2.643   0.158   0.807 -0.4042  0.4641  0.0247
 7603SOL    HW123708   2.702   0.239   0.807 -0.0585  0.2238  0.8539
 7603SOL    HW223709   2.547   0.187   0.817 -0.2376  0.7540  0.9104
 7604SOL     OW23710   2.043   2.962   0.290 -0.3615 -0.5390  0.3197
 7604SOL    HW123711   1.948   2.975   0.262 -0.8945  0.1470  2.3483
 7604SOL    HW223712   2.052   2.976   0.388  1.6672 -1.6249  0.3492
 7605SOL     OW23713   2.414   5.857   4.788 -0.2556  0.2519  0.3697
 7605SOL    HW123714   2.406   5.951   4.754  0.2316 -0.1936 -1.0827
 7605SOL    HW223715   2.448   5.798   4.714  0.9873 -0.7738  1.7052
 7606SOL     OW23716   1.080   1.091   3.073  0.3751 -0.2324 -0.6483
 7606SOL    HW123717   1.166   1.051   3.041  0.9806 -0.0427  0.6661
 7606SOL    HW223718   1.004   1.034   3.045  1.0120 -0.9085 -1.0329
 7607SOL     OW23719   2.253   5.190   5.773 -0.0427  0.1977  0.5747
 7607SOL    HW123720   2.352   5.203   5.764  0.4363 -2.3990  1.1458
 7607SOL    HW223721   2.219   5.143   5.692 -1.1978  2.6304 -0.4245
 7608SOL     OW23722   1.894   4.361   5.497  0.3197  0.1850 -0.3047
 7608SOL    HW123723   1.937   4.324   5.579 -1.2009 -0.8003  0.0914
 7608SOL    HW223724   1.963   4.373   5.425  1.6453  0.9427  1.0486
 7609SOL     OW23725   2.116   0.442   4.192  0.7500 -0.5107  0.3902
 7609SOL    HW123726   2.109   0.343   4.206  1.0261 -0.6521 -0.4427
 7609SOL    HW223727   2.027   0.484   4.208 -0.0619 -1.2402 -1.9248
 7610SOL     OW23728   2.156   6.462   4.868  0.5566  0.3116  0.1415
 7610SOL    HW123729   2.125   6.378   4.823 -1.6567  0.5528  1.0962
 7610SOL    HW223730   2.182   6.442   4.963 -0.0133  0.6931  0.3834
 7611SOL     OW23731   2.368   4.058   6.646  0.0012  0.4255 -0.2302
 7611SOL    HW123732   2.347   3.962   6.627  1.0266  0.0373  0.4975
 7611SOL    HW223733   2.312   4.089   6.723  0.1068  0.2216 -0.0697
 7612SOL     OW23734   4.866   3.249   3.708  0.2395 -0.1369  0.0356
 7612SOL    HW123735   4.842   3.172   3.649  0.7186 -0.4116  0.1889
 7612SOL    HW223736   4.842   3.335   3.663  0.3252 -0.3539 -0.4331
 7613SOL     OW23737   0.761   0.155   6.945 -0.4034  0.0831 -0.0413
 7613SOL    HW123738   0.744   0.244   6.988 -1.0361 -0.7583  1.5379
 7613SOL    HW223739   0.690   0.136   6.877  0.8537  1.6284 -1.8792
 7614SOL     OW23740   4.785   6.793   5.910  0.1122  0.4582  0.2390
 7614SOL    HW123741   4.750   6.847   5.987  0.4903  0.6424  0.2817
 7614SOL    HW223742   4.814   6.703   5.943  0.4483  0.6046  0.3437
 7615SOL     OW23743   2.933   3.931   5.775 -0.7611 -0.5227 -0.2879
 7615SOL    HW123744   2.944   3.939   5.676  0.6447  2.9911 -0.0106
 7615SOL    HW223745   2.898   4.018   5.812 -1.2358 -1.7199  2.3073
 7616SOL     OW23746   1.961   6.668   2.816 -0.2896 -0.2073 -0.5100
 7616SOL    HW123747   2.026   6.605   2.860 -0.8193 -0.5435 -0.1935
 7616SOL    HW223748   1.968   6.758   2.857  1.0370  0.1731 -1.4993
 7617SOL     OW23749   4.929   4.551   3.660  0.0411 -0.2363  0.0640
 7617SOL    HW123750   4.895   4.458   3.674  1.0759 -0.4797  1.1366
 7617SOL    HW223751   4.968   4.558   3.568  0.6832 -1.1146  0.2494
 7618SOL     OW23752   3.129   1.470   6.461  0.8077 -0.7156 -0.1297
 7618SOL    HW123753   3.082   1.415   6.530  0.3783 -1.0720 -0.7057
 7618SOL    HW223754   3.092   1.563   6.461  0.4317 -0.8646 -0.2540
 7619SOL     OW23755   0.261   5.554   4.577  0.2627 -0.9422  0.0267
 7619SOL    HW123756   0.352   5.520   4.600  1.5552  1.0063 -1.8679
 7619SOL    HW223757   0.225   5.503   4.498  1.9929  1.4809 -2.4997
 7620SOL     OW23758   3.027   5.246   6.036 -0.0249  0.5751  0.2788
 7620SOL    HW123759   2.955   5.191   6.077  0.0202  0.2209 -0.1155
 7620SOL    HW223760   3.000   5.274   5.944  0.6905 -0.2591 -0.1934
 7621SOL     OW23761   5.457   3.077   0.910  1.0572 -0.4671 -0.1142
 7621SOL    HW123762   5.549   3.107   0.937  1.9202 -2.5334 -0.4986
 7621SOL    HW223763   5.465   3.006   0.840 -0.9090  0.2502 -1.1302
 7622SOL     OW23764   1.028   4.030   0.126 -0.4511  0.0106  0.0255
 7622SOL    HW123765   0.977   3.984   0.199 -1.0231  0.6549  0.0395
 7622SOL    HW223766   1.002   3.990   0.038 -0.4813 -0.1115  0.0883
 7623SOL     OW23767   6.147   5.981   4.650  0.1616 -0.4486  0.5455
 7623SOL    HW123768   6.120   5.996   4.555 -1.1065  1.2006  1.1187
 7623SOL    HW223769   6.100   5.901   4.686 -0.4406 -0.2611  0.1890
 7624SOL     OW23770   0.086   0.406   2.724  0.0527  0.0174 -0.0936
 7624SOL    HW123771   0.040   0.494   2.732  1.9492  0.8680  3.4599
 7624SOL    HW223772   0.183   0.417   2.747  0.8284 -2.6778 -1.5993
 7625SOL     OW23773   6.826   6.756   2.692 -0.0457  0.4993 -0.5564
 7625SOL    HW123774   6.906   6.743   2.633  0.7127  0.6524  0.3992
 7625SOL    HW223775   6.820   6.852   2.719 -1.6663  0.8790 -2.1218
 7626SOL     OW23776   4.970   6.416   0.453 -0.2633 -0.0716  0.0538
 7626SOL    HW123777   4.934   6.359   0.527 -0.4687 -1.1142 -0.8332
 7626SOL    HW223778   5.040   6.477   0.490  0.8404 -1.7204  0.8378
 7627SOL     OW23779   3.678   2.205   6.169 -0.0597 -0.5277 -0.1657
 7627SOL    HW123780   3.662   2.256   6.084  1.4602  1.7727  0.8118
 7627SOL    HW223781   3.602   2.221   6.233  0.3228  0.4173  0.0675
 7628SOL     OW23782   2.744   3.855   0.802  0.4890 -0.5666 -0.2252
 7628SOL    HW123783   2.658   3.882   0.759 -0.4672 -1.3661  1.1328
 7628SOL    HW223784   2.810   3.930   0.794 -1.6752  1.8555  2.3759
 7629SOL     OW23785   6.695   2.723   5.303 -0.7696  0.1728 -0.0218
 7629SOL    HW123786   6.620   2.774   5.261 -0.2881  0.3175 -0.7210
 7629SOL    HW223787   6.701   2.747   5.400 -0.4652  1.5812 -0.3627
 7630SOL     OW23788   1.916   5.095   3.952  0.5123  0.1809 -0.3358
 7630SOL    HW123789   1.984   5.045   3.898  1.0463  0.4539  0.0748
 7630SOL    HW223790   1.955   5.119   4.041 -0.0120  0.6294 -0.2238
 7631SOL     OW23791   0.045   3.095   5.479  0.1203  0.0196 -0.8035
 7631SOL    HW123792   0.059   3.169   5.545  0.1417 -0.2947 -0.4457
 7631SOL    HW223793   0.034   3.133   5.387 -1.7343  0.6031 -0.3872
 7632SOL     OW23794   5.425   6.065   2.772 -0.4603  0.3109  0.6951
 7632SOL    HW123795   5.340   6.012   2.765 -1.8214  2.4614  0.0261
 7632SOL    HW223796   5.405   6.162   2.758  1.9434  1.0430  1.8138
 7633SOL     OW23797   5.781   5.732   0.516 -0.3151 -0.4858  0.0092
 7633SOL    HW123798   5.852   5.747   0.447 -0.0963 -0.4203  0.2433
 7633SOL    HW223799   5.779   5.811   0.578 -0.4808 -0.5619  0.1006
 7634SOL     OW23800   1.083   3.904   6.184  0.3134  0.7979  0.2223
 7634SOL    HW123801   1.063   3.982   6.124  0.9716  2.2554  1.8426
 7634SOL    HW223802   1.021   3.829   6.161  0.2192  1.4495 -1.9507
 7635SOL     OW23803   1.701   2.170   6.855 -0.4422 -0.4347  0.0478
 7635SOL    HW123804   1.614   2.165   6.806 -1.1183  0.6081  1.0726
 7635SOL    HW223805   1.686   2.144   6.951  0.2459  0.3213  0.3726
 7636SOL     OW23806   0.543   1.473   3.280  0.5116 -0.1096 -0.3848
 7636SOL    HW123807   0.593   1.554   3.311  0.2071  0.0956 -0.4312
 7636SOL    HW223808   0.604   1.394   3.282  0.6631  0.0160  0.1723
 7637SOL     OW23809   1.607   2.901   4.009  0.1865  0.3198  0.7541
 7637SOL    HW123810   1.646   2.815   3.975 -2.4446 -1.1759  1.1846
 7637SOL    HW223811   1.652   2.926   4.095  0.6756 -0.9265  0.8863
 7638SOL     OW23812   0.487   6.016   1.386 -0.4134 -0.6519  0.0047
 7638SOL    HW123813   0.440   6.047   1.469  0.0335 -0.5326  0.2173
 7638SOL    HW223814   0.470   6.080   1.312 -0.6751 -0.6652  0.0544
 7639SOL     OW23815   2.261   6.148   2.311 -0.2867 -0.5344  0.2214
 7639SOL    HW123816   2.283   6.143   2.409  1.6002 -0.7618 -0.1647
 7639SOL    HW223817   2.324   6.213   2.267 -1.2774 -0.2534 -0.8149
 7640SOL     OW23818   4.333   4.668   0.453  0.6065 -0.0886 -0.0424
 7640SOL    HW123819   4.393   4.703   0.524  1.1926  0.1598 -0.6462
 7640SOL    HW223820   4.267   4.739   0.427  1.0034  0.1532 -0.4047
 7641SOL     OW23821   6.937   3.478   4.013 -0.0621 -0.6155  0.0457
 7641SOL    HW123822   6.852   3.452   3.968  0.9116 -0.5657 -1.9092
 7641SOL    HW223823   6.942   3.578   4.018  1.6507 -0.3756 -3.6563
 7642SOL     OW23824   4.461   0.467   2.858 -0.3700  0.0548  0.2071
 7642SOL    HW123825   4.490   0.512   2.942  2.0364  0.8948 -0.9630
 7642SOL    HW223826   4.384   0.516   2.818  0.5649  1.6569  0.2760
 7643SOL     OW23827   5.520   1.931   4.415 -0.2047  0.5500  0.3985
 7643SOL    HW123828   5.611   1.904   4.383 -0.2290  0.9775 -0.0393
 7643SOL    HW223829   5.466   1.964   4.338 -1.8053 -2.5076  0.0315
 7644SOL     OW23830   4.008   2.831   0.215 -0.4160 -0.4458  0.0763
 7644SOL    HW123831   4.003   2.931   0.220  1.5862 -0.2430 -0.9453
 7644SOL    HW223832   4.056   2.797   0.296  0.0738 -0.4533 -0.2156
 7645SOL     OW23833   5.318   3.460   6.261  0.1399 -0.2669  0.1948
 7645SOL    HW123834   5.231   3.414   6.244 -0.8995  1.2940  1.0981
 7645SOL    HW223835   5.331   3.533   6.195  0.5560 -0.2030  0.3414
 7646SOL     OW23836   0.507   1.413   5.644  0.4536  0.4737 -0.7184
 7646SOL    HW123837   0.595   1.368   5.632 -1.0306 -2.9232 -0.1173
 7646SOL    HW223838   0.449   1.394   5.565 -0.7130  0.0590  0.2068
 7647SOL     OW23839   5.168   2.825   5.218  0.4128  0.6969  0.4039
 7647SOL    HW123840   5.114   2.906   5.241 -0.4540 -0.3118  2.1744
 7647SOL    HW223841   5.219   2.841   5.134 -0.4692  2.7182  0.2035
 7648SOL     OW23842   3.486   2.987   0.939  0.2567 -0.4347 -0.1979
 7648SOL    HW123843   3.390   3.000   0.911  0.4376  1.2943 -0.1436
 7648SOL    HW223844   3.518   3.070   0.986  3.0155  0.8244 -3.7849
 7649SOL     OW23845   5.616   0.885   0.267  0.7892 -0.6566  0.4173
 7649SOL    HW123846   5.572   0.846   0.187  1.9213  0.1470 -0.6227
 7649SOL    HW223847   5.652   0.976   0.246 -0.0382  0.1518  2.2167
 7650SOL     OW23848   3.071   1.847   2.582  0.0793 -0.3720 -0.6976
 7650SOL    HW123849   3.023   1.880   2.663 -0.4910  1.2211 -1.6310
 7650SOL    HW223850   3.010   1.853   2.503  1.1613 -0.2647 -1.5414
 7651SOL     OW23851   3.060   5.983   6.346 -0.2965  0.3875 -0.0983
 7651SOL    HW123852   3.156   5.961   6.334 -0.4197 -0.2159 -0.0044
 7651SOL    HW223853   3.004   5.908   6.311 -0.7084  0.1598  1.0283
 7652SOL     OW23854   1.783   0.630   5.031  0.6762  0.0970 -0.7689
 7652SOL    HW123855   1.754   0.535   5.040 -1.3602  0.6828 -0.6747
 7652SOL    HW223856   1.727   0.676   4.962  1.1103  1.4288 -0.2738
 7653SOL     OW23857   1.108   0.345   5.438  0.3550 -0.0810  0.3728
 7653SOL    HW123858   1.208   0.342   5.445  0.6926  0.0961 -2.6943
 7653SOL    HW223859   1.080   0.433   5.400 -1.0541  0.0405  1.5993
 7654SOL     OW23860   0.497   2.424   4.742 -0.3692 -0.2820 -0.1127
 7654SOL    HW123861   0.530   2.454   4.652  1.9961  2.4893  1.5102
 7654SOL    HW223862   0.445   2.498   4.785 -0.4980 -1.1386  1.2624
 7655SOL     OW23863   2.921   0.462   6.343  0.1781 -0.3028 -0.0719
 7655SOL    HW123864   2.975   0.458   6.259  1.4286 -1.1658  0.7317
 7655SOL    HW223865   2.910   0.557   6.372  1.5207 -0.1088 -0.1246
 7656SOL     OW23866   4.445   4.344   0.986 -0.0290  0.1640 -0.7423
 7656SOL    HW123867   4.471   4.309   0.896  0.7091 -2.7740  0.5095
 7656SOL    HW223868   4.517   4.324   1.052 -1.8282 -0.6139  1.1198
 7657SOL     OW23869   1.354   2.853   4.268  0.0553 -0.0191  0.2447
 7657SOL    HW123870   1.315   2.763   4.252 -0.1740  0.1618 -0.2187
 7657SOL    HW223871   1.452   2.844   4.287  0.2741 -0.2734 -0.9578
 7658SOL     OW23872   3.316   6.858   1.851 -0.0482 -0.0588  0.6260
 7658SOL    HW123873   3.353   6.919   1.921 -0.5985 -0.2963  1.1272
 7658SOL    HW223874   3.360   6.769   1.858  0.0187 -0.0326  0.5533
 7659SOL     OW23875   6.939   4.889   5.331 -0.2418 -0.4083 -0.2359
 7659SOL    HW123876   6.844   4.869   5.310 -0.3564 -0.3753  0.2273
 7659SOL    HW223877   6.951   4.894   5.431  0.2649 -0.5256 -0.2840
 7660SOL     OW23878   1.456   5.554   4.538 -0.2692 -0.4943 -0.5993
 7660SOL    HW123879   1.409   5.467   4.522 -1.0601 -0.3337  0.6795
 7660SOL    HW223880   1.389   5.628   4.544  0.2516 -0.0490 -0.1111
 7661SOL     OW23881   2.198   0.098   5.356  0.1441  0.3583 -0.5778
 7661SOL    HW123882   2.284   0.069   5.314 -1.7407 -3.2171 -2.3660
 7661SOL    HW223883   2.184   0.196   5.339  3.3623  0.8376 -0.9851
 7662SOL     OW23884   1.538   0.529   2.227 -0.7817 -0.4507  0.6765
 7662SOL    HW123885   1.537   0.432   2.250  1.6916 -0.7636 -0.1687
 7662SOL    HW223886   1.606   0.576   2.283 -0.2167  0.2799 -0.5617
 7663SOL     OW23887   3.876   6.166   1.644 -0.0601  0.2433  0.0709
 7663SOL    HW123888   3.964   6.201   1.677 -0.6616  0.5527  1.4153
 7663SOL    HW223889   3.849   6.217   1.562 -1.1275  3.4642  2.2115
 7664SOL     OW23890   5.302   1.700   2.681 -0.2825 -0.4123  0.0685
 7664SOL    HW123891   5.229   1.703   2.749 -0.5259 -0.6347 -0.1839
 7664SOL    HW223892   5.286   1.770   2.611 -0.3831 -0.6193 -0.1168
 7665SOL     OW23893   3.893   0.102   4.739  0.1022  0.1265  0.5915
 7665SOL    HW123894   3.846   0.186   4.765  2.0083  1.3856  0.1601
 7665SOL    HW223895   3.915   0.049   4.821  2.6148  2.1601  1.3448
 7666SOL     OW23896   0.525   5.816   5.299 -0.1202 -0.0951  0.4934
 7666SOL    HW123897   0.475   5.738   5.335 -0.8792  0.4970  0.7344
 7666SOL    HW223898   0.605   5.834   5.357  1.1626 -1.8493 -0.6261
 7667SOL     OW23899   6.174   6.563   2.375  0.2369  0.0001  0.2613
 7667SOL    HW123900   6.151   6.479   2.426  0.1063 -0.1766 -0.0844
 7667SOL    HW223901   6.264   6.595   2.403  1.1312 -1.3190 -0.9510
 7668SOL     OW23902   1.638   5.744   0.452 -0.4783 -0.6001 -0.0995
 7668SOL    HW123903   1.652   5.800   0.370 -0.8630  0.7682  0.7363
 7668SOL    HW223904   1.716   5.684   0.464 -1.0655 -1.9278 -2.2819
 7669SOL     OW23905   2.868   3.148   6.764  0.0274 -0.2298  0.7640
 7669SOL    HW123906   2.883   3.056   6.729  4.0560  0.6972 -0.5783
 7669SOL    HW223907   2.809   3.198   6.700 -0.8271 -1.3569  0.6358
 7670SOL     OW23908   1.433   2.680   0.898 -0.0648 -0.2531 -0.5504
 7670SOL    HW123909   1.362   2.713   0.835  0.0879  1.0847 -0.0481
 7670SOL    HW223910   1.452   2.750   0.966 -1.1568 -2.1363  1.8263
 7671SOL     OW23911   3.306   2.102   1.890 -0.0442  0.1124  0.1462
 7671SOL    HW123912   3.383   2.095   1.952 -0.8468 -3.5285  0.9925
 7671SOL    HW223913   3.311   2.029   1.822 -3.0664 -0.7493  0.7016
 7672SOL     OW23914   4.212   2.263   2.124 -0.4458 -0.6569 -0.4198
 7672SOL    HW123915   4.117   2.237   2.105  0.0746 -2.2884 -0.9576
 7672SOL    HW223916   4.263   2.264   2.038  0.4435 -1.6166  0.0865
 7673SOL     OW23917   2.573   5.686   3.710  0.1807 -0.0777  0.0592
 7673SOL    HW123918   2.585   5.681   3.611  1.5090 -0.2825  0.2123
 7673SOL    HW223919   2.490   5.738   3.731 -2.0102 -2.8374 -1.1800
 7674SOL     OW23920   5.545   5.993   2.314 -0.2573 -0.5832  0.2451
 7674SOL    HW123921   5.634   6.012   2.355  1.1841 -2.5414 -1.7359
 7674SOL    HW223922   5.491   5.935   2.374  0.1209 -0.0909  1.0806
 7675SOL     OW23923   4.073   0.156   2.979 -0.6665 -0.8467 -0.0843
 7675SOL    HW123924   3.977   0.146   2.955 -0.7480 -3.3987  1.0081
 7675SOL    HW223925   4.111   0.067   3.005  1.4650  0.4164  1.5024
 7676SOL     OW23926   4.166   3.730   5.110 -0.4463 -0.5910 -0.0359
 7676SOL    HW123927   4.149   3.675   5.029 -1.5907  0.5002 -0.5717
 7676SOL    HW223928   4.264   3.750   5.117 -0.1106 -2.0298 -0.2307
 7677SOL     OW23929   0.431   0.205   1.225 -0.6730  0.1128  0.3022
 7677SOL    HW123930   0.391   0.291   1.256 -2.1816 -0.5730  0.3483
 7677SOL    HW223931   0.531   0.209   1.234 -0.7396  1.7423  0.5468
 7678SOL     OW23932   2.910   0.065   5.376  0.7129 -0.4791 -0.4394
 7678SOL    HW123933   2.825   0.100   5.339 -1.1948 -5.3946 -1.4243
 7678SOL    HW223934   2.893   0.020   5.464  2.2295 -1.5720 -0.6480
 7679SOL     OW23935   3.017   5.081   3.143 -0.2359 -0.0916 -0.5185
 7679SOL    HW123936   3.052   5.117   3.056  0.0112  0.4373 -0.2060
 7679SOL    HW223937   3.083   5.017   3.181 -0.5150 -0.6124 -0.9020
 7680SOL     OW23938   1.518   6.560   4.930  0.7170  0.4550  0.5367
 7680SOL    HW123939   1.531   6.558   5.030  1.8731 -0.1455  0.3946
 7680SOL    HW223940   1.603   6.591   4.887  0.8989 -1.1542 -0.3442
 7681SOL     OW23941   1.221   3.020   6.686  0.0890 -0.2274 -0.4591
 7681SOL    HW123942   1.219   2.966   6.602  3.3414  1.2700 -1.6936
 7681SOL    HW223943   1.177   3.109   6.670 -0.9176 -0.6159  0.0503
 7682SOL     OW23944   3.511   1.548   2.043 -0.7651  0.3662 -0.1004
 7682SOL    HW123945   3.452   1.487   1.989 -0.4539 -0.1631  0.1482
 7682SOL    HW223946   3.459   1.629   2.070 -2.3517 -1.3569  2.5513
 7683SOL     OW23947   1.394   4.660   3.868  0.2161  0.7991  0.3546
 7683SOL    HW123948   1.333   4.589   3.901 -0.9689  1.7221  0.2172
 7683SOL    HW223949   1.474   4.667   3.928 -0.4612  0.4702  1.3062
 7684SOL     OW23950   2.488   3.689   1.381 -0.7938  0.3897 -0.4440
 7684SOL    HW123951   2.544   3.760   1.339 -0.3922  0.5479  0.3337
 7684SOL    HW223952   2.529   3.662   1.469 -1.3577 -0.2534 -0.3683
 7685SOL     OW23953   2.050   5.374   7.023  0.3649  0.0454  0.4426
 7685SOL    HW123954   2.015   5.358   7.115  1.3260  0.0816  0.8240
 7685SOL    HW223955   2.137   5.325   7.011 -0.3248 -0.9366 -0.8437
 7686SOL     OW23956   6.841   2.265   6.981  0.4499  0.7346  0.2100
 7686SOL    HW123957   6.829   2.214   6.896 -0.0744  1.6010 -0.2583
 7686SOL    HW223958   6.752   2.274   7.026  0.3585  1.9884 -0.1804
 7687SOL     OW23959   5.476   2.644   4.204  0.3065  0.3279 -0.1589
 7687SOL    HW123960   5.394   2.621   4.152  1.1756 -1.6658 -0.7541
 7687SOL    HW223961   5.540   2.694   4.146 -0.2510  1.4766  0.1735
 7688SOL     OW23962   6.800   2.715   1.096 -0.0791  0.3366 -0.2713
 7688SOL    HW123963   6.828   2.775   1.171 -1.5088 -0.9095  1.3567
 7688SOL    HW223964   6.874   2.651   1.074 -0.1126 -0.2207  1.1148
 7689SOL     OW23965   5.773   5.452   2.950 -0.0490  0.0043  0.3593
 7689SOL    HW123966   5.801   5.435   3.045 -1.8226  2.1059  1.3280
 7689SOL    HW223967   5.831   5.523   2.910  1.9704 -2.1815 -0.9031
 7690SOL     OW23968   6.627   3.759   2.186  0.0285  0.3586  0.5190
 7690SOL    HW123969   6.542   3.786   2.140  1.0386  2.3807 -0.3110
 7690SOL    HW223970   6.625   3.790   2.281 -0.6332 -0.6996  0.8668
 7691SOL     OW23971   5.974   3.183   3.834 -0.4415 -0.1364  0.4475
 7691SOL    HW123972   6.011   3.268   3.797 -1.4537 -0.8106 -2.3675
 7691SOL    HW223973   5.916   3.203   3.913 -2.3740  2.0946 -1.4258
 7692SOL     OW23974   2.504   6.281   2.966  0.0563  0.0702  0.0849
 7692SOL    HW123975   2.478   6.347   2.896 -1.4054 -0.3495  0.2036
 7692SOL    HW223976   2.429   6.216   2.981  1.3283 -1.4197  0.2184
 7693SOL     OW23977   1.093   2.818   0.535  0.6253 -0.0226  0.2420
 7693SOL    HW123978   0.993   2.824   0.529  0.6474 -0.4655 -0.8742
 7693SOL    HW223979   1.130   2.796   0.445  1.6365 -1.2158  0.9112
 7694SOL     OW23980   4.904   2.984   2.447  0.2051 -0.1053  0.1027
 7694SOL    HW123981   4.882   3.031   2.361 -2.8106  0.7525  1.2492
 7694SOL    HW223982   4.916   3.051   2.520  0.2008 -0.9456  0.8949
 7695SOL     OW23983   5.248   5.207   5.892  0.1399  0.1012 -0.0427
 7695SOL    HW123984   5.186   5.280   5.865 -1.0422 -1.3255 -1.4191
 7695SOL    HW223985   5.245   5.134   5.823 -0.5692 -2.3260  2.3729
 7696SOL     OW23986   1.944   1.831   5.100  0.3205  0.0561  0.7857
 7696SOL    HW123987   1.864   1.775   5.121  0.8554 -0.8357  0.4907
 7696SOL    HW223988   1.923   1.927   5.119 -1.1137 -0.0539 -0.1222
 7697SOL     OW23989   5.652   6.136   3.773 -0.3827 -0.1091 -0.2049
 7697SOL    HW123990   5.666   6.082   3.690  2.0311 -0.2624  0.2264
 7697SOL    HW223991   5.693   6.227   3.760 -0.4768  0.0532  0.6264
 7698SOL     OW23992   6.749   2.183   2.983 -0.4457  0.0918  0.3638
 7698SOL    HW123993   6.801   2.218   2.905  2.0838 -0.7717  1.5357
 7698SOL    HW223994   6.673   2.245   3.004 -0.1397  1.2342 -1.6802
 7699SOL     OW23995   3.645   6.315   6.519 -0.1239  0.0287 -0.2325
 7699SOL    HW123996   3.675   6.351   6.607  2.3521  0.1001 -1.0298
 7699SOL    HW223997   3.620   6.391   6.459 -0.6484  0.0439 -0.0027
 7700SOL     OW23998   5.930   3.151   6.803 -0.7507  0.2799 -0.0909
 7700SOL    HW123999   5.854   3.091   6.829 -0.4196 -0.4616 -0.8228
 7700SOL    HW224000   5.928   3.166   6.704 -0.6098  1.1915  0.0338
 7701SOL     OW24001   3.297   1.591   5.173  0.1937 -0.8404  0.0527
 7701SOL    HW124002   3.234   1.549   5.239 -0.1452  1.5113  1.3437
 7701SOL    HW224003   3.244   1.636   5.101  0.2724  1.2402  1.2015
 7702SOL     OW24004   5.433   5.837   5.733 -0.4105 -0.2982  0.4668
 7702SOL    HW124005   5.406   5.837   5.829 -0.4816 -0.9293  0.4482
 7702SOL    HW224006   5.442   5.932   5.701 -1.0430 -0.0782  0.9077
 7703SOL     OW24007   0.971   5.626   6.431 -0.7111 -0.3356  0.6767
 7703SOL    HW124008   0.924   5.539   6.450  0.0757 -1.0041 -0.3491
 7703SOL    HW224009   0.903   5.699   6.427 -1.6518 -1.2126 -0.3794
 7704SOL     OW24010   1.817   1.025   4.965  0.4118 -0.2101 -0.1624
 7704SOL    HW124011   1.841   1.122   4.959 -3.3077  1.0212  1.5942
 7704SOL    HW224012   1.889   0.976   5.013  1.9663  1.9010 -0.2086
 7705SOL     OW24013   1.766   4.053   0.998 -0.3539 -0.8143 -0.1108
 7705SOL    HW124014   1.772   4.145   0.961  1.6930 -0.6385  0.5426
 7705SOL    HW224015   1.678   4.041   1.044 -0.6850  0.7569 -0.2914
 7706SOL     OW24016   3.611   3.035   1.926 -0.1890  0.0968  0.7066
 7706SOL    HW124017   3.633   3.122   1.970 -2.4687  0.8298  0.5498
 7706SOL    HW224018   3.512   3.027   1.917  0.0504 -1.7725 -0.8378
 7707SOL     OW24019   6.530   4.543   6.640 -0.4598 -0.0920  0.1052
 7707SOL    HW124020   6.524   4.523   6.738 -0.0326 -0.0747  0.1358
 7707SOL    HW224021   6.576   4.468   6.593  1.0905  0.7463  0.2096
 7708SOL     OW24022   0.530   1.321   4.215 -0.0346 -0.5605 -0.2357
 7708SOL    HW124023   0.621   1.282   4.199  0.2728  0.3516 -0.8157
 7708SOL    HW224024   0.498   1.295   4.306  1.2869 -0.0050  0.4131
 7709SOL     OW24025   6.422   3.858   0.569  0.5619  0.4444 -0.1849
 7709SOL    HW124026   6.379   3.815   0.489  1.6164 -1.3091  0.1311
 7709SOL    HW224027   6.476   3.937   0.539 -2.7542  2.7562 -0.5885
 7710SOL     OW24028   5.897   2.438   2.015  0.1727  0.1210 -0.0007
 7710SOL    HW124029   5.920   2.350   2.058  2.5981  1.2250  1.1540
 7710SOL    HW224030   5.882   2.506   2.086 -0.5799  0.9139 -0.9039
 7711SOL     OW24031   2.064   6.082   3.948 -0.0294  0.0098 -0.5339
 7711SOL    HW124032   2.014   6.071   4.034 -1.8416 -1.4958 -1.7148
 7711SOL    HW224033   2.001   6.077   3.871  1.5217  1.5103 -2.0063
 7712SOL     OW24034   1.021   4.283   5.300 -0.1552 -0.2322  0.1650
 7712SOL    HW124035   1.013   4.357   5.233 -2.3692  0.0902  0.7016
 7712SOL    HW224036   1.112   4.242   5.294  0.5014  1.3274 -1.3944
 7713SOL     OW24037   1.591   6.796   0.541 -0.5980 -0.5351 -0.4937
 7713SOL    HW124038   1.553   6.834   0.625  1.3325  0.7781 -0.1518
 7713SOL    HW224039   1.569   6.856   0.464  0.4506  0.0686 -0.3432
 7714SOL     OW24040   5.164   2.105   4.476  0.4618 -0.5270 -0.1707
 7714SOL    HW124041   5.104   2.181   4.500 -0.2116 -0.6229 -1.4603
 7714SOL    HW224042   5.243   2.104   4.537 -1.1858 -0.8483  2.0609
 7715SOL     OW24043   5.252   4.192   6.922 -0.9896  0.0013  0.5595
 7715SOL    HW124044   5.275   4.094   6.924  0.2052  0.2506  0.0560
 7715SOL    HW224045   5.328   4.243   6.881  0.2526  1.6760  4.4844
 7716SOL     OW24046   0.608   0.863   0.606 -0.4342 -0.8879  0.1947
 7716SOL    HW124047   0.587   0.769   0.633 -3.6425 -0.1326  0.7097
 7716SOL    HW224048   0.697   0.889   0.642 -0.1530 -3.2242  1.3535
 7717SOL     OW24049   6.981   2.891   6.097 -0.5063 -0.1243  0.0404
 7717SOL    HW124050   6.909   2.860   6.035 -2.7495 -0.5384  2.6844
 7717SOL    HW224051   7.047   2.817   6.111 -0.4181 -0.2971 -1.1256
 7718SOL     OW24052   1.220   3.020   3.529  0.1205 -0.3195 -0.1194
 7718SOL    HW124053   1.308   2.978   3.506  0.4192 -0.2588  0.8396
 7718SOL    HW224054   1.179   2.969   3.605 -0.1561  0.3023  0.1485
 7719SOL     OW24055   2.325   4.239   4.127  0.0318  0.5791 -0.5927
 7719SOL    HW124056   2.235   4.263   4.091 -1.3460  0.4174  2.3975
 7719SOL    HW224057   2.318   4.154   4.180  1.7921  0.9129  0.2473
 7720SOL     OW24058   5.269   0.868   5.925  0.1742 -0.4618 -0.5935
 7720SOL    HW124059   5.210   0.795   5.890  0.0007 -0.8400  0.4526
 7720SOL    HW224060   5.338   0.890   5.856 -0.1461 -1.1900 -1.1684
 7721SOL     OW24061   6.309   6.311   2.755  0.2821  0.1460  0.5814
 7721SOL    HW124062   6.224   6.296   2.806  0.1135  0.8868  0.5335
 7721SOL    HW224063   6.312   6.250   2.676  0.2380 -0.5471  1.1064
 7722SOL     OW24064   0.773   6.996   4.143  0.0819  0.8861  0.5309
 7722SOL    HW124065   0.747   7.022   4.236 -1.8680 -1.5549  0.7749
 7722SOL    HW224066   0.785   6.897   4.139 -0.7722  0.8310 -2.0165
 7723SOL     OW24067   4.564   4.783   0.569 -0.1515 -0.4595 -0.3228
 7723SOL    HW124068   4.630   4.735   0.511 -0.2584 -1.4239  0.3456
 7723SOL    HW224069   4.601   4.794   0.661 -0.2314  0.5247 -0.3977
 7724SOL     OW24070   0.945   3.620   5.223 -0.0961  0.6852  0.1995
 7724SOL    HW124071   0.954   3.651   5.318  0.4878 -0.7338  0.6284
 7724SOL    HW224072   0.869   3.555   5.217  1.2685 -0.9736  0.1915
 7725SOL     OW24073   0.327   5.188   2.538  0.1131 -0.3163  0.1430
 7725SOL    HW124074   0.390   5.132   2.593  2.2441  0.4447 -1.3970
 7725SOL    HW224075   0.372   5.273   2.512 -2.3628  1.2567  0.7307
 7726SOL     OW24076   1.113   3.668   1.549  0.1454 -0.0819 -0.1384
 7726SOL    HW124077   1.151   3.588   1.502 -0.6512 -1.1485  0.9672
 7726SOL    HW224078   1.080   3.641   1.639 -0.8230  1.3523 -0.0249
 7727SOL     OW24079   7.015   2.900   2.783  0.2930 -0.1186 -0.1226
 7727SOL    HW124080   7.103   2.948   2.783 -0.4974  1.3942  0.2650
 7727SOL    HW224081   6.955   2.942   2.715  0.0903 -1.6195 -0.9204
 7728SOL     OW24082   2.419   0.195   0.060  0.2342  0.0020  0.5047
 7728SOL    HW124083   2.477   0.244  -0.005 -2.2321  0.6729 -1.3518
 7728SOL    HW224084   2.429   0.235   0.151  3.6036 -0.7931  0.6052
 7729SOL     OW24085   1.224   0.924   2.030 -0.0505  0.0166  0.4244
 7729SOL    HW124086   1.268   0.908   1.942  0.4094  1.6603  0.3185
 7729SOL    HW224087   1.192   0.837   2.068 -0.9187 -0.6417 -1.6854
 7730SOL     OW24088   5.310   3.738   0.590 -0.3351 -0.3060  0.0244
 7730SOL    HW124089   5.213   3.715   0.597 -0.9624  2.4982  2.2157
 7730SOL    HW224090   5.361   3.696   0.665  0.4267 -2.5847 -1.6682
 7731SOL     OW24091   1.333   0.844   0.985 -0.7003  0.6745  0.1457
 7731SOL    HW124092   1.268   0.884   0.921 -0.2543 -0.6306 -1.1698
 7731SOL    HW224093   1.347   0.748   0.962  0.9401  0.6762  1.0297
 7732SOL     OW24094   6.221   6.774   0.667 -0.0784  0.3147 -0.1115
 7732SOL    HW124095   6.312   6.814   0.676  0.3010 -0.2439 -1.2488
 7732SOL    HW224096   6.169   6.827   0.600  0.6646 -1.4213 -2.1474
 7733SOL     OW24097   4.385   5.601   1.306 -0.2188  0.0222 -0.1041
 7733SOL    HW124098   4.396   5.541   1.386 -1.9822  1.2536  1.1365
 7733SOL    HW224099   4.457   5.581   1.240  0.2790 -2.2431  1.0116
 7734SOL     OW24100   3.884   3.059   2.534 -0.4674 -0.1021 -0.1951
 7734SOL    HW124101   3.960   3.072   2.470  0.3280 -1.0011  0.5392
 7734SOL    HW224102   3.807   3.117   2.506  1.0229  2.0523 -0.0544
 7735SOL     OW24103   0.394   4.749   0.133 -0.0412  0.2828  0.5011
 7735SOL    HW124104   0.307   4.798   0.135 -0.4300 -0.3835  0.3660
 7735SOL    HW224105   0.390   4.671   0.196  0.0965 -0.3277 -0.2257
 7736SOL     OW24106   1.542   2.561   6.742  0.0795 -0.2411  0.0077
 7736SOL    HW124107   1.508   2.479   6.697  1.1788 -1.0638  0.6355
 7736SOL    HW224108   1.591   2.618   6.675  0.9695 -1.0383 -0.0306
 7737SOL     OW24109   4.471   3.844   0.981  0.2032 -0.3890 -0.2862
 7737SOL    HW124110   4.433   3.857   1.073 -1.3803 -2.2730 -0.6208
 7737SOL    HW224111   4.567   3.819   0.988  1.3765  3.6683  0.6238
 7738SOL     OW24112   1.939   1.614   5.421 -0.2625 -0.4462  0.2565
 7738SOL    HW124113   1.918   1.690   5.483  0.5178 -0.2501  0.2937
 7738SOL    HW224114   2.001   1.647   5.349 -2.2062 -0.3155 -1.4374
 7739SOL     OW24115   5.742   5.640   6.484 -0.1529 -0.3814 -0.7121
 7739SOL    HW124116   5.651   5.641   6.524 -0.0903 -1.3645 -0.5157
 7739SOL    HW224117   5.805   5.692   6.542 -0.3844 -0.5038 -0.3523
 7740SOL     OW24118   1.014   1.136   1.475 -0.3283  0.0641  0.6735
 7740SOL    HW124119   1.053   1.175   1.391  0.1319  1.5685  1.5448
 7740SOL    HW224120   1.022   1.037   1.472 -1.8350 -0.0619 -1.7953
 7741SOL     OW24121   5.820   4.666   3.984 -0.4376 -0.3673 -0.7655
 7741SOL    HW124122   5.848   4.603   4.056  0.6514 -1.3124 -1.9600
 7741SOL    HW224123   5.900   4.692   3.930 -0.9609  1.5904 -0.6830
 7742SOL     OW24124   6.412   1.573   4.200 -0.1317 -0.2710 -0.5253
 7742SOL    HW124125   6.414   1.657   4.253 -1.8091 -0.2681 -0.4131
 7742SOL    HW224126   6.496   1.521   4.216 -0.5352 -0.2363  2.0713
 7743SOL     OW24127   3.445   6.704   5.894 -0.2477 -0.4858 -0.1700
 7743SOL    HW124128   3.541   6.708   5.921 -0.7199  0.6504  1.5369
 7743SOL    HW224129   3.393   6.659   5.967 -1.3119  0.9239 -0.0214
 7744SOL     OW24130   6.121   6.983   6.081  0.0504  0.1771  0.3420
 7744SOL    HW124131   6.166   7.071   6.098  1.1869 -0.4140  0.4944
 7744SOL    HW224132   6.183   6.923   6.030 -1.1727 -0.1096 -0.8794
 7745SOL     OW24133   2.174   0.261   6.437 -0.0876  0.6806  0.0463
 7745SOL    HW124134   2.176   0.199   6.515 -3.4513 -1.5589 -1.4362
 7745SOL    HW224135   2.082   0.297   6.425  0.7996  2.5717 -1.7736
 7746SOL     OW24136   0.281   5.695   2.113 -0.3707  0.2862  0.6325
 7746SOL    HW124137   0.322   5.686   2.204  1.2771  0.9632 -0.0075
 7746SOL    HW224138   0.300   5.612   2.060 -0.9639  0.0710  0.7443
 7747SOL     OW24139   0.658   5.757   1.014  0.3303 -0.3958 -0.2250
 7747SOL    HW124140   0.739   5.756   1.072 -0.2429 -0.9590  0.5833
 7747SOL    HW224141   0.678   5.807   0.929  1.6866 -1.0269 -0.2940
 7748SOL     OW24142   4.258   2.439   5.872  0.6002 -0.0073 -0.4756
 7748SOL    HW124143   4.169   2.481   5.856  2.2770  3.0816 -2.7014
 7748SOL    HW224144   4.294   2.403   5.786  1.6327 -0.9761  0.3294
 7749SOL     OW24145   4.032   3.702   2.439 -0.0886 -0.0613 -0.1200
 7749SOL    HW124146   4.039   3.755   2.354 -3.5998 -0.7528 -0.9812
 7749SOL    HW224147   3.964   3.744   2.499  1.0581 -0.5848  1.6232
 7750SOL     OW24148   5.505   4.017   5.948 -0.1915  0.0784 -0.5040
 7750SOL    HW124149   5.594   4.064   5.951  0.1107 -0.4645 -0.7928
 7750SOL    HW224150   5.437   4.073   5.995  0.5726 -0.0872  0.8567
 7751SOL     OW24151   6.698   1.964   6.358 -0.0534 -0.2247  0.0731
 7751SOL    HW124152   6.758   2.021   6.302 -0.9990 -0.9464 -1.7649
 7751SOL    HW224153   6.609   1.954   6.313 -0.2122 -2.4038  0.7188
 7752SOL     OW24154   4.914   3.881   6.066  0.2105  0.0325 -0.4344
 7752SOL    HW124155   4.980   3.893   5.991 -0.3804 -0.2375 -1.0088
 7752SOL    HW224156   4.931   3.949   6.137  1.6165 -0.5381 -0.2001
 7753SOL     OW24157   1.513   1.365   5.120 -0.1878  0.4454 -0.2241
 7753SOL    HW124158   1.549   1.416   5.042  0.2855  2.0947  1.0100
 7753SOL    HW224159   1.527   1.267   5.106  0.8656  0.7825 -1.7023
 7754SOL     OW24160   4.510   1.750   1.296  0.7149  0.2775 -0.0006
 7754SOL    HW124161   4.435   1.732   1.232 -0.4784 -2.4860  1.9721
 7754SOL    HW224162   4.590   1.781   1.246 -1.0537  1.2186 -2.4413
 7755SOL     OW24163   1.497   5.781   1.251  0.1134  0.1516  0.0285
 7755SOL    HW124164   1.492   5.828   1.163 -0.0074 -1.8256 -1.0679
 7755SOL    HW224165   1.565   5.707   1.246  1.0491  0.7958  2.0126
 7756SOL     OW24166   4.675   5.231   3.772 -0.0594 -0.0647  0.1995
 7756SOL    HW124167   4.704   5.264   3.682  0.9129  0.2696  0.6167
 7756SOL    HW224168   4.616   5.151   3.761 -0.8201  0.6029 -0.7657
 7757SOL     OW24169   3.299   1.125   6.113  0.4162  0.0761 -0.2009
 7757SOL    HW124170   3.213   1.110   6.064 -1.7547 -1.1972  3.6021
 7757SOL    HW224171   3.298   1.215   6.155  2.1760  1.0891 -2.1811
 7758SOL     OW24172   4.087   0.517   0.281  0.4304 -0.0901  0.2349
 7758SOL    HW124173   3.999   0.483   0.315  0.3501  0.4263  0.5515
 7758SOL    HW224174   4.119   0.592   0.339 -0.7847  2.3417 -1.9824
 7759SOL     OW24175   1.085   1.072   3.978 -0.1898  0.2124 -0.2798
 7759SOL    HW124176   1.119   1.164   3.998 -0.6133 -0.1313  2.3556
 7759SOL    HW224177   0.986   1.076   3.963 -0.1749  0.1979 -0.3856
 7760SOL     OW24178   4.182   2.513   1.745  0.0854 -0.7826 -0.0972
 7760SOL    HW124179   4.256   2.450   1.771 -0.6109 -1.9093 -0.7801
 7760SOL    HW224180   4.094   2.469   1.760 -0.6001  1.2490  2.5797
 7761SOL     OW24181   4.134   1.569   0.370  0.2504  0.8009 -0.2497
 7761SOL    HW124182   4.142   1.667   0.387  3.0648  1.2169 -2.9944
 7761SOL    HW224183   4.079   1.553   0.288  0.2214  0.1159 -0.1036
 7762SOL     OW24184   6.221   2.966   1.058 -0.8408  0.3575 -0.0731
 7762SOL    HW124185   6.284   3.030   1.102  1.4213 -1.6521 -0.1484
 7762SOL    HW224186   6.151   2.938   1.123 -1.5089  2.3831  0.1396
 7763SOL     OW24187   0.053   2.966   1.837 -0.5182  0.4444 -0.3211
 7763SOL    HW124188   0.050   3.046   1.898  0.3310 -0.1434  0.5271
 7763SOL    HW224189   0.148   2.945   1.814 -0.6254 -1.0192  0.4395
 7764SOL     OW24190   3.718   3.370   0.630 -0.3927 -0.5312  0.2660
 7764SOL    HW124191   3.809   3.331   0.617  0.4132  1.5307 -0.8724
 7764SOL    HW224192   3.678   3.389   0.541 -1.3759 -0.1704  0.7760
 7765SOL     OW24193   2.993   6.675   2.891  0.2527 -0.0597  0.5595
 7765SOL    HW124194   3.088   6.647   2.906  0.1222 -0.1566  1.2138
 7765SOL    HW224195   2.945   6.604   2.840  0.7842  0.4170 -0.6684
 7766SOL     OW24196   6.299   4.014   1.819  0.4725  0.1872  0.4671
 7766SOL    HW124197   6.360   4.049   1.748  1.4597 -1.7525  0.3000
 7766SOL    HW224198   6.231   3.953   1.777  1.0050 -0.9015  1.1583
 7767SOL     OW24199   5.772   5.262   3.930  0.0281  0.0755  0.5469
 7767SOL    HW124200   5.761   5.166   3.905  1.2897 -0.3149  1.4204
 7767SOL    HW224201   5.747   5.320   3.851  1.7939 -1.0544 -0.9393
 7768SOL     OW24202   4.943   5.040   0.248  0.0228 -0.3371  0.2260
 7768SOL    HW124203   4.928   5.042   0.347  2.1404 -1.2738  0.6226
 7768SOL    HW224204   4.884   4.971   0.207  0.2572 -1.0776  1.0840
 7769SOL     OW24205   6.045   1.065   3.274 -0.0149  0.8201  0.0732
 7769SOL    HW124206   6.068   1.067   3.177 -1.8849 -1.5255 -0.5035
 7769SOL    HW224207   6.104   1.000   3.321 -1.1980 -0.4744 -0.1742
 7770SOL     OW24208   0.899   7.015   0.873  0.2663  0.2495 -0.1043
 7770SOL    HW124209   0.961   7.015   0.952  0.4116 -1.3500 -0.1798
 7770SOL    HW224210   0.812   6.973   0.899  0.6260 -1.1006 -0.9993
 7771SOL     OW24211   1.359   0.424   5.749 -0.5038  0.3591  0.0735
 7771SOL    HW124212   1.432   0.459   5.809  0.0408 -1.5100  0.5689
 7771SOL    HW224213   1.313   0.501   5.705  2.0282  1.6084 -0.5904
 7772SOL     OW24214   6.271   6.465   0.167  0.1007  0.3648 -0.1011
 7772SOL    HW124215   6.173   6.457   0.187 -0.3231  0.4243 -1.9803
 7772SOL    HW224216   6.300   6.388   0.110  1.4603 -0.2893  1.3764
 7773SOL     OW24217   3.506   5.465   0.439 -0.4410 -0.2391  0.1685
 7773SOL    HW124218   3.424   5.488   0.490 -0.7987  0.2235 -0.5930
 7773SOL    HW224219   3.518   5.365   0.438 -1.2466 -0.3396 -0.1034
 7774SOL     OW24220   4.025   2.805   1.217  0.4778 -0.3975  0.4309
 7774SOL    HW124221   3.961   2.841   1.149 -0.0742 -1.3415  0.4367
 7774SOL    HW224222   4.119   2.816   1.184  0.2993  0.5812  0.2181
 7775SOL     OW24223   1.130   6.250   1.037 -0.3434  0.3818 -0.6238
 7775SOL    HW124224   1.187   6.172   1.013 -0.4255  0.3340 -0.6627
 7775SOL    HW224225   1.186   6.319   1.084 -0.2508  0.3407 -0.6727
 7776SOL     OW24226   1.112   3.643   1.868  0.1939 -0.0802 -0.5767
 7776SOL    HW124227   1.093   3.580   1.944  1.3274 -2.0761 -1.8449
 7776SOL    HW224228   1.191   3.700   1.892 -0.2602  0.2288  0.2308
 7777SOL     OW24229   6.062   6.555   6.095 -0.1170 -0.8694  0.2707
 7777SOL    HW124230   5.974   6.538   6.051  1.0627 -0.2007 -2.6134
 7777SOL    HW224231   6.135   6.544   6.027  1.8460  0.9230  1.9657
 7778SOL     OW24232   4.467   1.883   5.307  0.2536 -0.2214 -0.1417
 7778SOL    HW124233   4.428   1.898   5.217 -1.1405 -2.6789 -0.0252
 7778SOL    HW224234   4.551   1.830   5.299 -0.5171 -1.4950  0.0494
 7779SOL     OW24235   3.107   3.930   6.497  0.4075  0.2809 -0.4221
 7779SOL    HW124236   3.042   3.916   6.422 -0.2646  0.8814  0.0355
 7779SOL    HW224237   3.187   3.979   6.464  0.5581 -0.3180 -0.9583
 7780SOL     OW24238   1.948   0.487   4.815  0.2983  0.6023  0.0584
 7780SOL    HW124239   2.002   0.535   4.745 -2.0124  1.0828 -1.5155
 7780SOL    HW224240   1.916   0.552   4.883  1.0278  0.4583  0.5420
 7781SOL     OW24241   1.908   3.073   5.700  0.2898 -0.6034  0.5929
 7781SOL    HW124242   1.942   3.143   5.763  0.8190 -0.3662  0.0528
 7781SOL    HW224243   1.983   3.013   5.674 -0.0821 -1.1437  0.7573
 7782SOL     OW24244   4.977   3.123   6.460 -0.1251  0.6008  0.3809
 7782SOL    HW124245   5.038   3.185   6.509 -0.6696  1.7766 -0.3904
 7782SOL    HW224246   4.894   3.109   6.515  0.5661 -0.5912  1.1912
 7783SOL     OW24247   4.550   0.124   6.454  0.1400 -0.0012  0.2352
 7783SOL    HW124248   4.554   0.027   6.480  0.4622 -0.1739 -0.4239
 7783SOL    HW224249   4.492   0.135   6.374  1.5301  0.0766 -0.8104
 7784SOL     OW24250   5.301   2.440   1.668  0.2779 -1.2495  0.2706
 7784SOL    HW124251   5.362   2.369   1.631  0.3333 -1.5462  0.9266
 7784SOL    HW224252   5.289   2.426   1.766  0.9421  0.1404  0.5642
 7785SOL     OW24253   2.076   5.699   0.069 -0.1589  0.0027  0.1949
 7785SOL    HW124254   2.070   5.625   0.136 -1.1546  1.2347  1.5225
 7785SOL    HW224255   2.021   5.675  -0.011  1.1115 -1.5291 -0.2857
 7786SOL     OW24256   2.982   3.146   2.996  0.3599  0.1400 -0.0738
 7786SOL    HW124257   2.936   3.147   2.907  0.6517  3.4018 -0.3158
 7786SOL    HW224258   3.062   3.087   2.991  0.3154  0.1707 -1.9911
 7787SOL     OW24259   4.215   0.223   3.685 -0.0297  0.7719  0.6528
 7787SOL    HW124260   4.152   0.195   3.613  0.5286 -0.7073  0.6785
 7787SOL    HW224261   4.187   0.182   3.772  0.7661  0.3323  0.7203
 7788SOL     OW24262   6.160   3.144   1.509  0.4602 -0.3780 -0.0872
 7788SOL    HW124263   6.203   3.058   1.482  0.2411  0.4735 -3.6006
 7788SOL    HW224264   6.230   3.212   1.527  0.6247 -0.3386 -0.8603
 7789SOL     OW24265   1.093   0.314   2.769 -0.1626  0.2710  0.0544
 7789SOL    HW124266   1.003   0.337   2.805  0.1202 -1.0704  1.7770
 7789SOL    HW224267   1.157   0.388   2.791 -0.4345  0.3464  0.6176
 7790SOL     OW24268   0.378   5.810   2.553 -0.0363  0.1535 -0.6776
 7790SOL    HW124269   0.475   5.821   2.535  0.5233  2.1937  2.6239
 7790SOL    HW224270   0.332   5.898   2.544 -1.2622 -0.4575 -0.6341
 7791SOL     OW24271   5.924   4.637   6.856  0.1782  0.1887  0.7934
 7791SOL    HW124272   6.020   4.611   6.846  0.4291  0.7998  1.5006
 7791SOL    HW224273   5.892   4.681   6.772  0.3743 -0.4279  0.3899
 7792SOL     OW24274   0.698   0.232   1.319  0.2392 -0.1042 -0.7622
 7792SOL    HW124275   0.780   0.218   1.263  0.5509 -0.1108 -0.3095
 7792SOL    HW224276   0.690   0.158   1.385  1.9150  1.7021  1.6629
 7793SOL     OW24277   0.035   0.477   6.619 -0.5235  0.2052 -0.2877
 7793SOL    HW124278   0.134   0.493   6.620 -0.6054  0.8068 -0.8369
 7793SOL    HW224279   0.009   0.436   6.532 -0.6612 -0.6586  0.1537
 7794SOL     OW24280   4.891   5.639   2.567  0.2472  0.6263 -0.0201
 7794SOL    HW124281   4.797   5.610   2.588  0.3254  1.3063  1.3716
 7794SOL    HW224282   4.955   5.572   2.603  0.3268  0.8578  0.2764
 7795SOL     OW24283   3.563   4.111   6.940 -0.3851  0.2321  0.0393
 7795SOL    HW124284   3.553   4.012   6.954 -0.1857  0.1209 -0.5468
 7795SOL    HW224285   3.519   4.137   6.854 -0.8114  0.7302  0.4021
 7796SOL     OW24286   3.321   3.114   5.045 -0.2618 -0.0701 -0.4347
 7796SOL    HW124287   3.258   3.153   4.977 -0.5566  3.2210  1.4923
 7796SOL    HW224288   3.406   3.167   5.045  0.9277 -1.8912 -0.2029
 7797SOL     OW24289   1.051   0.023   3.627 -0.0770  0.5147  0.5507
 7797SOL    HW124290   1.088  -0.051   3.570  1.2077  0.0514  1.9207
 7797SOL    HW224291   0.972  -0.011   3.678 -0.6970  0.6810 -0.2759
 7798SOL     OW24292   6.256   6.575   5.557  0.6333  0.4485  0.2454
 7798SOL    HW124293   6.349   6.570   5.592  0.9657  1.4262 -0.4669
 7798SOL    HW224294   6.232   6.670   5.540 -0.4596  0.1986  0.3127
 7799SOL     OW24295   6.527   5.508   3.358  0.6106 -0.0028 -0.1968
 7799SOL    HW124296   6.512   5.606   3.346 -1.1185 -0.1493  0.3539
 7799SOL    HW224297   6.609   5.480   3.309 -0.6763  1.1131 -3.2590
 7800SOL     OW24298   1.518   6.302   1.692  0.2536  0.1771  0.2138
 7800SOL    HW124299   1.538   6.391   1.651  1.0064 -0.0811  0.0123
 7800SOL    HW224300   1.419   6.295   1.710 -0.2064  0.1228 -2.0221
 7801SOL     OW24301   5.021   2.679   5.009 -0.6829  0.7382 -0.0176
 7801SOL    HW124302   5.033   2.690   5.108  0.2539  2.1857 -0.2570
 7801SOL    HW224303   4.924   2.671   4.988 -0.9130  0.7397  0.9898
 7802SOL     OW24304   6.257   1.656   5.605  0.0195  0.4068  0.8972
 7802SOL    HW124305   6.292   1.575   5.557 -0.4309  1.9576 -2.3067
 7802SOL    HW224306   6.164   1.676   5.573 -0.2947  1.5825  2.4378
 7803SOL     OW24307   3.306   2.756   6.528  0.6407 -0.0823 -0.0829
 7803SOL    HW124308   3.372   2.682   6.532 -0.1640 -0.7396  1.4683
 7803SOL    HW224309   3.319   2.818   6.605 -1.0461 -0.6728  0.7197
 7804SOL     OW24310   4.049   0.959   6.071  0.3106  0.8837  0.1850
 7804SOL    HW124311   4.020   1.007   6.154 -0.7907  2.5861 -1.1123
 7804SOL    HW224312   4.031   1.017   5.992  1.7768 -0.5017 -1.2271
 7805SOL     OW24313   5.429   3.529   1.433  0.5420 -0.2067 -0.6946
 7805SOL    HW124314   5.429   3.479   1.520  0.1929  0.2528 -0.4263
 7805SOL    HW224315   5.384   3.618   1.445 -0.0208 -0.3684 -1.4745
 7806SOL     OW24316   5.671   1.766   0.799  0.0475  0.6527  0.5334
 7806SOL    HW124317   5.753   1.778   0.743  0.3735  0.2993  0.9290
 7806SOL    HW224318   5.685   1.691   0.863 -1.0314 -0.2191 -0.2152
 7807SOL     OW24319   0.775   3.937   5.123 -0.5746  0.5327  0.3185
 7807SOL    HW124320   0.803   3.842   5.134 -0.0565  0.6720  0.2180
 7807SOL    HW224321   0.724   3.947   5.038 -0.1289  0.4553  0.0419
 7808SOL     OW24322   6.663   2.778   3.996  0.1615 -0.3721 -0.3045
 7808SOL    HW124323   6.598   2.797   3.923 -0.8978  0.1400  0.7423
 7808SOL    HW224324   6.724   2.704   3.967 -2.2298 -2.4003 -0.5470
 7809SOL     OW24325   2.356   5.490   5.152 -0.1133 -0.5332 -0.3717
 7809SOL    HW124326   2.281   5.451   5.205  3.2454 -1.6527  4.2511
 7809SOL    HW224327   2.332   5.582   5.122 -3.0432 -0.5443  1.5567
 7810SOL     OW24328   3.418   0.651   5.949  0.3890 -0.0717 -0.2649
 7810SOL    HW124329   3.504   0.701   5.954  0.8632 -0.8817 -0.3030
 7810SOL    HW224330   3.373   0.654   6.038  0.3413  0.5361 -0.3017
 7811SOL     OW24331   5.182   6.420   6.170 -0.5925 -0.5310 -0.4372
 7811SOL    HW124332   5.153   6.492   6.232  0.5609 -1.0773  0.7906
 7811SOL    HW224333   5.164   6.331   6.211 -0.3767 -0.9196 -1.1586
 7812SOL     OW24334   6.906   2.335   2.807  0.0053  0.0260  0.3987
 7812SOL    HW124335   6.907   2.429   2.772  0.2752  0.2017  0.8655
 7812SOL    HW224336   6.975   2.326   2.879 -1.3466  0.0260  1.7548
 7813SOL     OW24337   4.318   2.442   1.395 -0.1066  0.0533  0.1070
 7813SOL    HW124338   4.373   2.475   1.317 -1.0711 -0.6706 -0.9102
 7813SOL    HW224339   4.379   2.400   1.462  0.6477 -0.4379 -0.8476
 7814SOL     OW24340   1.365   2.184   3.525 -0.1208 -1.0752 -0.2110
 7814SOL    HW124341   1.310   2.174   3.442 -1.0725  0.7720  0.1230
 7814SOL    HW224342   1.317   2.143   3.602 -1.6892  1.4465  0.2827
 7815SOL     OW24343   6.160   1.220   6.816 -0.0786 -0.1148 -0.0208
 7815SOL    HW124344   6.223   1.194   6.743 -1.0500  0.9444 -1.2660
 7815SOL    HW224345   6.135   1.316   6.807 -2.0756 -0.5548  0.2769
 7816SOL     OW24346   1.004   5.105   4.615  0.0103 -0.2171  0.2878
 7816SOL    HW124347   0.991   5.198   4.648  1.2997  0.7061 -1.6094
 7816SOL    HW224348   1.098   5.094   4.582 -0.3314 -1.9687 -0.2093
 7817SOL     OW24349   5.118   3.094   6.886  0.6627  0.0558  0.3334
 7817SOL    HW124350   5.201   3.112   6.939  0.9651 -3.7205  1.4179
 7817SOL    HW224351   5.044   3.064   6.947 -0.7262  0.8659 -0.8741
 7818SOL     OW24352   0.462   3.707   4.681  0.1752  0.6923  1.0912
 7818SOL    HW124353   0.427   3.617   4.652 -1.5091  1.7387 -0.3379
 7818SOL    HW224354   0.553   3.721   4.644  0.3585 -0.3381  1.1303
 7819SOL     OW24355   2.785   1.361   0.091 -0.2425  0.0903 -0.5197
 7819SOL    HW124356   2.717   1.345   0.020  0.4158 -0.7608 -0.9837
 7819SOL    HW224357   2.763   1.445   0.140 -1.2917  0.1346 -1.0377
 7820SOL     OW24358   2.646   1.733   4.847 -0.4796  0.1419 -0.7164
 7820SOL    HW124359   2.584   1.783   4.907 -0.5944 -0.4170 -0.3570
 7820SOL    HW224360   2.689   1.658   4.898  1.7490  1.4811 -0.5006
 7821SOL     OW24361   4.252   6.562   1.040  0.1552  0.5474  0.1640
 7821SOL    HW124362   4.322   6.514   1.092  2.9112  0.9441 -2.8777
 7821SOL    HW224363   4.175   6.500   1.022  0.3483 -0.3878  2.2675
 7822SOL     OW24364   0.355   5.611   5.833 -0.1388  0.2531  0.8585
 7822SOL    HW124365   0.291   5.537   5.855  1.6569 -2.1905 -1.3599
 7822SOL    HW224366   0.381   5.659   5.916 -3.1092 -0.0861  2.0862
 7823SOL     OW24367   1.681   4.528   5.827  0.2355  0.4000 -0.3868
 7823SOL    HW124368   1.581   4.527   5.838 -0.0462 -1.3022 -2.3894
 7823SOL    HW224369   1.716   4.618   5.854 -1.6723  0.7133  1.3665
 7824SOL     OW24370   1.986   2.470   5.729  0.6035 -0.0293  0.4453
 7824SOL    HW124371   1.948   2.400   5.669  3.6851  0.5128 -2.3839
 7824SOL    HW224372   2.025   2.426   5.810 -1.1617 -1.0781  0.7827
 7825SOL     OW24373   3.457   0.136   1.674 -0.6661  0.2265 -0.5905
 7825SOL    HW124374   3.358   0.135   1.662 -0.4572  0.1340 -2.9201
 7825SOL    HW224375   3.496   0.055   1.631  0.4213  0.2004  0.4064
 7826SOL     OW24376   6.433   3.573   6.347 -0.1353  0.2370 -0.5494
 7826SOL    HW124377   6.526   3.609   6.350 -0.3820  0.8507  1.0312
 7826SOL    HW224378   6.418   3.516   6.428 -1.0309 -0.1431 -0.9725
 7827SOL     OW24379   4.887   3.985   3.700 -0.1220 -0.0071 -0.1313
 7827SOL    HW124380   4.814   4.011   3.763  0.2665 -0.4688  0.5227
 7827SOL    HW224381   4.922   3.895   3.725  1.7097  0.8392  0.5306
 7828SOL     OW24382   1.752   6.105   5.792 -0.1252 -0.6633 -0.1543
 7828SOL    HW124383   1.656   6.075   5.790 -1.7946  3.6833  1.0772
 7828SOL    HW224384   1.792   6.083   5.880 -0.6681 -0.8067  0.0614
 7829SOL     OW24385   3.084   6.012   0.184 -0.8067 -0.3608 -0.0988
 7829SOL    HW124386   3.013   5.988   0.118 -1.4112 -0.3056  0.5270
 7829SOL    HW224387   3.076   6.109   0.208  0.4039  0.0288 -1.1330
 7830SOL     OW24388   1.047   5.583   4.720  0.0036 -0.0882  0.0893
 7830SOL    HW124389   1.134   5.632   4.709  1.6839 -2.8169  0.2933
 7830SOL    HW224390   1.008   5.603   4.809 -1.1304  3.3354 -1.0312
 7831SOL     OW24391   2.656   6.759   4.779 -0.0667 -0.4199 -0.3306
 7831SOL    HW124392   2.615   6.694   4.716 -0.0097  0.3675 -1.2107
 7831SOL    HW224393   2.681   6.713   4.864  0.1875 -1.5895 -1.0206
 7832SOL     OW24394   6.516   1.133   4.700  0.1392  0.5494  0.1827
 7832SOL    HW124395   6.604   1.086   4.693  0.7528  1.7504 -0.5051
 7832SOL    HW224396   6.510   1.203   4.628  0.2158  3.0476  2.4217
 7833SOL     OW24397   1.332   1.079   1.501  0.6039 -0.1654 -0.1037
 7833SOL    HW124398   1.310   1.087   1.599 -0.7146 -0.0766 -0.3847
 7833SOL    HW224399   1.285   1.152   1.451  2.4436  0.7075 -0.6582
 7834SOL     OW24400   6.294   2.767   3.191  0.0011  0.1588  0.0234
 7834SOL    HW124401   6.264   2.840   3.130 -1.5895 -0.7834 -0.3599
 7834SOL    HW224402   6.347   2.699   3.140  1.6645  1.1053  0.4214
 7835SOL     OW24403   3.489   4.019   5.380  0.2316  0.0965  0.4911
 7835SOL    HW124404   3.551   4.098   5.375  0.0951  0.2091  0.5563
 7835SOL    HW224405   3.537   3.942   5.423  0.3385  0.1709  0.5064
 7836SOL     OW24406   4.190   4.444   5.700  0.0834 -0.7746 -0.1548
 7836SOL    HW124407   4.124   4.480   5.633  0.9614 -0.8846 -1.1057
 7836SOL    HW224408   4.268   4.404   5.651  0.8462 -0.6657  0.9508
 7837SOL     OW24409   0.676   0.387   0.711  0.0051 -0.1628 -0.2169
 7837SOL    HW124410   0.608   0.382   0.784 -0.4940  1.6361 -0.4962
 7837SOL    HW224411   0.748   0.320   0.727 -1.7862 -2.1013  0.1005
 7838SOL     OW24412   2.732   2.656   1.552 -0.2145 -0.6388 -0.1734
 7838SOL    HW124413   2.831   2.663   1.563 -0.0818  2.5031 -2.1840
 7838SOL    HW224414   2.710   2.640   1.456 -1.6871 -2.9250  0.4740
 7839SOL     OW24415   4.701   4.316   5.238  0.0923  0.3403  0.1575
 7839SOL    HW124416   4.694   4.396   5.296 -0.7416 -0.2498  0.9109
 7839SOL    HW224417   4.625   4.254   5.258  0.1632 -0.1924 -1.0903
 7840SOL     OW24418   2.363   2.707   2.127  0.3165  0.3564 -0.7362
 7840SOL    HW124419   2.427   2.648   2.175  2.1147  2.0809 -0.8866
 7840SOL    HW224420   2.330   2.779   2.189  0.3072  0.8153 -1.2630
 7841SOL     OW24421   6.989   2.183   5.712  0.4568 -0.0247 -0.0369
 7841SOL    HW124422   7.071   2.164   5.658  1.0381  1.6049  0.2027
 7841SOL    HW224423   6.911   2.198   5.652  1.2100  2.3282 -0.5452
 7842SOL     OW24424   0.001   6.422   0.754 -0.5458 -0.3731 -0.4033
 7842SOL    HW124425  -0.046   6.369   0.684  0.0406 -0.8921 -0.4190
 7842SOL    HW224426   0.084   6.462   0.715  0.4111 -1.6284  0.2596
 7843SOL     OW24427   6.499   5.300   1.398  0.4342 -0.6844  0.9516
 7843SOL    HW124428   6.589   5.329   1.432  0.2974  0.4609  0.3533
 7843SOL    HW224429   6.428   5.356   1.440  0.1272 -0.4435  0.1220
 7844SOL     OW24430   4.045   0.065   2.555  0.1216  0.3202 -0.1527
 7844SOL    HW124431   4.118   0.087   2.491  1.3160  0.2498  1.1420
 7844SOL    HW224432   4.078  -0.001   2.623 -1.3683 -0.2958  0.0329
 7845SOL     OW24433   0.052   4.576   1.109 -0.3221  0.5147  0.6326
 7845SOL    HW124434  -0.041   4.565   1.074 -0.1844  0.3905  0.3060
 7845SOL    HW224435   0.118   4.547   1.040 -0.0936 -2.8222  2.0730
 7846SOL     OW24436   0.597   1.667   2.221 -0.9362  0.4953 -0.3559
 7846SOL    HW124437   0.591   1.568   2.204  1.8139  0.4956 -1.9902
 7846SOL    HW224438   0.613   1.683   2.318 -0.6221 -0.7356 -0.1850
 7847SOL     OW24439   5.879   3.777   4.460 -0.3272  0.1594  0.2343
 7847SOL    HW124440   5.939   3.776   4.380 -0.9901 -1.0698 -0.2699
 7847SOL    HW224441   5.934   3.791   4.542  0.2326  2.8138 -0.4996
 7848SOL     OW24442   5.198   4.314   0.146  0.0089  0.2127  0.1299
 7848SOL    HW124443   5.122   4.283   0.204 -0.4815  1.0221 -0.0613
 7848SOL    HW224444   5.209   4.250   0.069  1.1160 -1.2537  1.4522
 7849SOL     OW24445   5.217   4.104   0.936 -0.2295 -0.3183  0.1231
 7849SOL    HW124446   5.178   4.081   0.847 -0.6246  3.2883 -0.7982
 7849SOL    HW224447   5.315   4.122   0.927 -0.7438  2.6976 -0.2776
 7850SOL     OW24448   0.155   0.437   4.315 -0.2786  0.2745  0.4770
 7850SOL    HW124449   0.181   0.341   4.313  1.9849  0.8126  1.2556
 7850SOL    HW224450   0.130   0.466   4.222 -0.1460 -0.8381  0.0752
 7851SOL     OW24451   1.726   5.417   1.306 -0.4731  0.3657 -0.2512
 7851SOL    HW124452   1.788   5.351   1.264  0.0541  1.8676 -1.9520
 7851SOL    HW224453   1.713   5.494   1.244 -1.9357  1.3548  1.2188
 7852SOL     OW24454   1.860   2.689   3.187 -0.3537  0.1531  0.5246
 7852SOL    HW124455   1.797   2.699   3.110 -0.4598 -0.9320  0.4638
 7852SOL    HW224456   1.944   2.741   3.168 -1.1267  1.4426  0.5196
 7853SOL     OW24457   4.078   2.797   1.751  0.3342 -0.0809  0.1720
 7853SOL    HW124458   4.104   2.700   1.751  0.8660  0.0560 -0.2945
 7853SOL    HW224459   4.006   2.812   1.818 -2.1402 -1.4415 -1.9952
 7854SOL     OW24460   3.588   0.528   1.044  0.4195 -0.2605  0.4615
 7854SOL    HW124461   3.503   0.560   1.003  1.2306 -0.1324 -1.2359
 7854SOL    HW224462   3.637   0.606   1.084  1.0297  0.1745 -1.0737
 7855SOL     OW24463   6.305   5.240   5.759 -0.4936  0.1588  0.3402
 7855SOL    HW124464   6.275   5.312   5.696 -0.5560 -1.0250 -1.0349
 7855SOL    HW224465   6.402   5.251   5.777 -0.4544  0.4710 -0.0299
 7856SOL     OW24466   2.584   0.671   0.236  0.5462  0.0450 -0.2178
 7856SOL    HW124467   2.532   0.749   0.200  0.8431  0.8691  1.0892
 7856SOL    HW224468   2.651   0.642   0.167 -0.3142  0.2174 -1.1535
 7857SOL     OW24469   6.467   4.446   5.427  0.1761  0.1986  0.0315
 7857SOL    HW124470   6.559   4.464   5.462 -0.2759  1.0473  0.8578
 7857SOL    HW224471   6.456   4.348   5.411  1.1080  0.0430  0.2619
 7858SOL     OW24472   0.935   5.867   0.168 -0.0234 -0.5941  0.0357
 7858SOL    HW124473   0.946   5.790   0.231  0.6860  1.0017  1.9771
 7858SOL    HW224474   0.887   5.941   0.214  0.1015  0.4835 -1.4730
 7859SOL     OW24475   3.049   2.052   1.189 -0.4211 -0.2445  0.8887
 7859SOL    HW124476   3.035   1.979   1.123  1.2152 -0.4585  0.7623
 7859SOL    HW224477   3.072   2.013   1.278  0.2284  0.1141  0.8795
 7860SOL     OW24478   2.436   1.554   2.852 -0.2791 -0.0965 -0.4850
 7860SOL    HW124479   2.511   1.559   2.918 -0.7253  2.1674 -0.0823
 7860SOL    HW224480   2.443   1.630   2.788 -1.2590 -0.8693 -1.5430
 7861SOL     OW24481   2.615   3.300   1.602  0.0402  0.3010  0.0574
 7861SOL    HW124482   2.674   3.324   1.679 -0.1985 -0.1399  0.3776
 7861SOL    HW224483   2.534   3.253   1.635  0.2625 -0.5000 -0.5192
 7862SOL     OW24484   6.563   0.697   0.692 -0.0435 -0.4948 -0.0866
 7862SOL    HW124485   6.564   0.628   0.620  0.0088 -0.1580 -0.4123
 7862SOL    HW224486   6.657   0.727   0.711 -0.1101 -0.1555 -0.2940
 7863SOL     OW24487   2.352   5.837   3.941 -0.4833  0.5935  0.6265
 7863SOL    HW124488   2.400   5.783   4.010 -1.2792 -0.5024  0.3489
 7863SOL    HW224489   2.268   5.789   3.914 -0.4604  1.2655 -0.7051
 7864SOL     OW24490   1.986   6.943   5.815  0.0601 -0.4877  0.3557
 7864SOL    HW124491   2.059   6.883   5.847  0.6923 -0.5718 -1.1875
 7864SOL    HW224492   2.018   6.996   5.737 -1.1862  0.2859  0.3433
 7865SOL     OW24493   0.566   6.652   4.407  0.2962  0.8974  0.0423
 7865SOL    HW124494   0.559   6.751   4.423 -1.3264  0.8634 -0.2512
 7865SOL    HW224495   0.645   6.616   4.457 -0.2267  2.0169  1.7939
 7866SOL     OW24496   1.015   2.516   1.497  0.0671  0.1895 -0.2861
 7866SOL    HW124497   1.055   2.441   1.444 -0.9527 -0.5313 -0.0625
 7866SOL    HW224498   1.048   2.603   1.460  1.8158 -0.3486 -0.1139
 7867SOL     OW24499   6.625   6.501   1.363 -0.5554 -0.5811  0.0697
 7867SOL    HW124500   6.663   6.411   1.379 -2.4142 -1.3188  0.6448
 7867SOL    HW224501   6.586   6.536   1.448 -1.0635  0.1620 -0.4547
 7868SOL     OW24502   4.176   4.490   1.086 -0.9296  0.2744 -0.0964
 7868SOL    HW124503   4.094   4.546   1.098 -0.8552  0.4747 -0.4995
 7868SOL    HW224504   4.201   4.488   0.989 -0.1720  0.6198  0.0850
 7869SOL     OW24505   6.070   4.425   1.587 -0.7474 -0.0668 -0.5448
 7869SOL    HW124506   6.134   4.502   1.593 -1.3311  0.5612 -2.0175
 7869SOL    HW224507   5.996   4.439   1.653 -0.8944  0.6822 -0.8618
 7870SOL     OW24508   6.638   2.220   3.756 -0.0992 -0.5484 -0.2516
 7870SOL    HW124509   6.581   2.271   3.691  0.3469  0.1025 -0.1463
 7870SOL    HW224510   6.714   2.177   3.708  0.1693 -0.1561 -0.1918
 7871SOL     OW24511   3.902   6.456   6.068 -0.0810 -0.1609  0.1944
 7871SOL    HW124512   3.989   6.503   6.082  0.1084 -0.7752  1.1075
 7871SOL    HW224513   3.914   6.358   6.081 -0.1320 -0.7304 -3.1969
 7872SOL     OW24514   0.352   6.300   6.417 -0.5123 -0.4478  0.3164
 7872SOL    HW124515   0.357   6.389   6.462  1.4108 -1.0496  1.4401
 7872SOL    HW224516   0.263   6.288   6.374 -0.2314  2.7198 -1.3814
 7873SOL     OW24517   5.356   3.995   5.734 -0.4241  0.7118 -0.3935
 7873SOL    HW124518   5.420   3.980   5.809 -0.3545  1.2132 -0.3468
 7873SOL    HW224519   5.408   4.017   5.651 -0.4305 -1.1939 -0.9399
 7874SOL     OW24520   6.615   0.542   0.463  0.0350  0.1464  0.6235
 7874SOL    HW124521   6.573   0.612   0.405  0.6038  1.3917  1.6839
 7874SOL    HW224522   6.714   0.549   0.458  0.2528 -2.5642 -1.5969
 7875SOL     OW24523   6.599   5.434   1.125 -0.7514 -0.2024 -0.0764
 7875SOL    HW124524   6.599   5.337   1.098 -1.3096 -0.1446 -0.3063
 7875SOL    HW224525   6.681   5.478   1.091 -0.4164 -0.6338  0.1620
 7876SOL     OW24526   6.663   0.014   1.894 -0.6663  0.3627 -0.0662
 7876SOL    HW124527   6.654   0.015   1.795  1.1359 -0.5620 -0.2899
 7876SOL    HW224528   6.723   0.089   1.923 -1.3699  0.7707  0.3482
 7877SOL     OW24529   1.239   1.767   0.048 -0.2221  0.0378 -0.6527
 7877SOL    HW124530   1.278   1.823  -0.025 -2.0813  2.5101  0.1262
 7877SOL    HW224531   1.147   1.738   0.023 -2.0778  3.3108  1.6165
 7878SOL     OW24532   3.752   0.854   2.922  0.2660  0.2725  0.1115
 7878SOL    HW124533   3.740   0.759   2.950  0.2808  1.1009  3.2016
 7878SOL    HW224534   3.663   0.901   2.921  0.3524  0.4396 -0.6586
 7879SOL     OW24535   2.544   1.305   0.417 -0.5960  0.0825  0.1976
 7879SOL    HW124536   2.474   1.375   0.410 -0.3365  0.3037 -0.2123
 7879SOL    HW224537   2.614   1.320   0.347 -1.0349 -1.1512 -0.5333
 7880SOL     OW24538   2.556   0.251   2.339  0.6620 -0.0639  0.5599
 7880SOL    HW124539   2.565   0.281   2.434 -1.9868  1.0861  0.5400
 7880SOL    HW224540   2.564   0.151   2.334 -1.7638 -0.4635  2.4818
 7881SOL     OW24541   5.947   4.004   3.476  0.1500  0.3224  0.1151
 7881SOL    HW124542   5.997   3.917   3.481 -0.8418 -0.4851 -2.4160
 7881SOL    HW224543   6.006   4.079   3.505  0.9142 -1.1864  2.7713
 7882SOL     OW24544   1.014   1.690   6.954  0.0636 -0.0732  0.1162
 7882SOL    HW124545   0.976   1.745   6.879 -0.1025 -0.8745 -0.3989
 7882SOL    HW224546   1.037   1.599   6.920  5.0492  1.0915 -0.3228
 7883SOL     OW24547   4.798   6.025   4.601 -0.3650  0.1297  0.0294
 7883SOL    HW124548   4.733   6.080   4.653 -0.3294  0.6264 -0.4368
 7883SOL    HW224549   4.756   5.937   4.577 -0.5975  0.1484  0.3636
 7884SOL     OW24550   0.399   2.976   3.023 -0.1715 -0.9505 -0.3629
 7884SOL    HW124551   0.357   2.989   2.933  0.6434  1.1456 -0.4893
 7884SOL    HW224552   0.495   3.004   3.020 -0.0008 -1.3041  1.0539
 7885SOL     OW24553   5.160   0.103   6.473 -0.1982 -0.2251  0.3718
 7885SOL    HW124554   5.131   0.151   6.555 -1.1981 -1.4025  0.7501
 7885SOL    HW224555   5.171   0.168   6.398 -1.0258  0.6442  0.9814
 7886SOL     OW24556   5.205   3.240   1.093  0.7860 -0.2164  0.0849
 7886SOL    HW124557   5.114   3.202   1.074  0.2925  1.5730 -1.5066
 7886SOL    HW224558   5.271   3.203   1.028  0.2309  1.7204 -1.7153
 7887SOL     OW24559   4.655   2.031   6.743  0.2229  0.2267 -0.5398
 7887SOL    HW124560   4.644   1.952   6.803  0.0111  0.7102  0.0675
 7887SOL    HW224561   4.680   2.000   6.651 -3.7582 -0.8574 -1.4610
 7888SOL     OW24562   3.467   5.670   4.607  0.2299  0.0702 -0.7752
 7888SOL    HW124563   3.558   5.659   4.647 -0.0114  2.0341  0.5042
 7888SOL    HW224564   3.471   5.735   4.531  0.0431 -0.6270 -1.3917
 7889SOL     OW24565   7.022   5.599   5.875  0.6020  0.7276 -0.2167
 7889SOL    HW124566   7.102   5.546   5.902 -1.4242 -1.2703  2.2543
 7889SOL    HW224567   7.014   5.598   5.775  3.7483  1.2596 -0.5659
 7890SOL     OW24568   1.531   4.038   3.788 -0.0188 -0.3876 -0.3496
 7890SOL    HW124569   1.576   4.035   3.699  1.7342  0.5602  0.4639
 7890SOL    HW224570   1.484   4.125   3.799  0.7138 -0.0421  0.0827
 7891SOL     OW24571   5.524   4.582   2.380 -0.6712 -0.3037  0.3079
 7891SOL    HW124572   5.451   4.616   2.321 -0.5813 -0.0531  0.3378
 7891SOL    HW224573   5.526   4.482   2.377 -0.2196 -0.2817 -0.6600
 7892SOL     OW24574   3.696   1.785   5.368 -0.2573 -0.3953 -0.1918
 7892SOL    HW124575   3.726   1.870   5.412 -0.3134 -0.5554  0.1626
 7892SOL    HW224576   3.620   1.804   5.306 -0.3796 -0.2117  0.0146
 7893SOL     OW24577   6.100   5.484   2.987 -0.1132  0.4012  0.1537
 7893SOL    HW124578   6.156   5.547   3.041 -0.4925 -0.3965  1.5246
 7893SOL    HW224579   6.078   5.526   2.899  1.7641  1.1432 -0.0056
 7894SOL     OW24580   3.887   1.840   0.936 -0.6940 -0.3098 -0.4343
 7894SOL    HW124581   3.894   1.806   0.842 -1.3786 -0.1837 -0.5358
 7894SOL    HW224582   3.791   1.836   0.965 -0.1415 -3.3737  1.3801
 7895SOL     OW24583   6.914   0.891   4.854  0.1323 -0.0386  0.3007
 7895SOL    HW124584   6.823   0.907   4.893  0.2854  0.6104  0.4159
 7895SOL    HW224585   6.978   0.870   4.928  0.3095  0.6455  0.3472
 7896SOL     OW24586   3.534   2.641   5.312 -0.7036  0.1720  0.1104
 7896SOL    HW124587   3.482   2.667   5.231  0.1059 -2.8465 -1.5076
 7896SOL    HW224588   3.627   2.677   5.305 -1.1141  1.4048  0.6300
 7897SOL     OW24589   2.621   2.369   6.474 -0.6504 -0.4735  0.4569
 7897SOL    HW124590   2.711   2.412   6.471  0.3777 -2.3498  2.1413
 7897SOL    HW224591   2.607   2.315   6.392  0.4707 -1.4470  0.8848
 7898SOL     OW24592   5.896   0.659   6.123 -0.0035 -0.2579  0.4762
 7898SOL    HW124593   5.807   0.703   6.136  0.2286  1.3909 -2.6415
 7898SOL    HW224594   5.888   0.590   6.051  1.2471  0.0021  0.0623
 7899SOL     OW24595   4.598   5.814   0.719  0.0039  0.1123  0.4703
 7899SOL    HW124596   4.681   5.782   0.673 -0.0917  1.4024 -0.6624
 7899SOL    HW224597   4.531   5.741   0.721  0.5810 -0.4466 -0.0682
 7900SOL     OW24598   6.446   5.907   0.751  0.1792 -0.4642  0.3523
 7900SOL    HW124599   6.532   5.857   0.760 -0.1161 -0.8872  0.9500
 7900SOL    HW224600   6.411   5.929   0.842 -0.1833 -0.0180  0.1076
 7901SOL     OW24601   4.410   5.221   1.834  0.2972 -0.0053 -0.1143
 7901SOL    HW124602   4.489   5.168   1.867 -0.3721 -0.7947  0.2606
 7901SOL    HW224603   4.391   5.197   1.739  0.7024  0.4215 -0.3042
 7902SOL     OW24604   4.583   3.354   6.965 -0.7982 -0.0785  0.5709
 7902SOL    HW124605   4.553   3.276   7.021 -0.0693  1.0730  2.6578
 7902SOL    HW224606   4.671   3.387   6.998 -1.3607  2.0182  0.1010
 7903SOL     OW24607   6.921   2.392   0.521 -0.0299 -0.1869  0.0446
 7903SOL    HW124608   6.867   2.396   0.437 -0.6606  1.0345  0.4799
 7903SOL    HW224609   6.861   2.374   0.599  0.6978 -2.4487  0.1370
 7904SOL     OW24610   5.424   0.849   4.016 -0.1770 -0.1051  0.5652
 7904SOL    HW124611   5.461   0.824   4.105  0.6043  1.8279  0.8248
 7904SOL    HW224612   5.426   0.769   3.956  0.9595 -0.9914  1.7217
 7905SOL     OW24613   3.326   6.063   2.258  0.0996 -0.2800  0.2495
 7905SOL    HW124614   3.318   6.018   2.347 -2.3320  0.0647  0.2795
 7905SOL    HW224615   3.326   5.994   2.186 -2.1963 -0.4841  0.3660
 7906SOL     OW24616   1.575   4.576   4.394  0.0146  0.4573 -0.3360
 7906SOL    HW124617   1.500   4.554   4.456  1.6194 -2.2991  0.7785
 7906SOL    HW224618   1.633   4.645   4.436 -0.9682  1.4258 -0.5124
 7907SOL     OW24619   0.220   3.861   3.524  0.2286  0.5682  0.0565
 7907SOL    HW124620   0.261   3.855   3.615  0.0970  0.7716  0.1299
 7907SOL    HW224621   0.258   3.790   3.466 -1.1739 -0.9087  0.8607
 7908SOL     OW24622   0.559   1.727   1.427 -0.3358  0.3756 -0.1293
 7908SOL    HW124623   0.491   1.669   1.382  0.6935 -1.3929  0.4908
 7908SOL    HW224624   0.641   1.734   1.370  1.3288 -2.5899  1.6229
 7909SOL     OW24625   3.705   5.730   6.612  0.4381 -0.1373  0.1588
 7909SOL    HW124626   3.766   5.692   6.681 -0.7065  2.0296  2.5249
 7909SOL    HW224627   3.714   5.830   6.610 -1.1928  0.0346 -1.2439
 7910SOL     OW24628   4.795   3.480   5.908 -0.4870 -0.3552  0.6555
 7910SOL    HW124629   4.855   3.519   5.838 -1.3608 -2.6690 -1.5186
 7910SOL    HW224630   4.724   3.547   5.931  1.6231  1.6266  1.7471
 7911SOL     OW24631   0.089   0.387   4.592 -0.3903  0.1775 -0.3682
 7911SOL    HW124632   0.165   0.336   4.633  0.5221  0.8042 -1.2161
 7911SOL    HW224633   0.109   0.403   4.495 -2.2223 -0.7779 -0.9507
 7912SOL     OW24634   4.772   4.668   5.937  0.6147  0.4395 -0.0097
 7912SOL    HW124635   4.852   4.727   5.947  1.0573  0.0515 -1.1066
 7912SOL    HW224636   4.752   4.654   5.839  0.9785 -1.8073  0.1816
 7913SOL     OW24637   1.032   5.829   6.786 -0.0060 -0.2399 -0.4867
 7913SOL    HW124638   1.085   5.744   6.785  0.0275 -0.2404 -2.1847
 7913SOL    HW224639   0.948   5.816   6.839 -0.6988 -1.8148 -1.8892
 7914SOL     OW24640   5.321   3.226   0.039 -0.2613 -0.2486 -0.3193
 7914SOL    HW124641   5.359   3.156   0.098 -0.1446  0.3803  0.3694
 7914SOL    HW224642   5.389   3.253  -0.029 -0.0421 -0.2698 -0.1099
 7915SOL     OW24643   3.057   6.204   2.711 -0.0516 -0.3324  0.0541
 7915SOL    HW124644   3.148   6.175   2.739 -0.5009 -0.3782  1.5568
 7915SOL    HW224645   3.005   6.233   2.791 -1.7804 -1.4694 -0.6014
 7916SOL     OW24646   4.541   3.482   5.374 -0.2098 -0.3140 -0.0828
 7916SOL    HW124647   4.523   3.555   5.440  1.9388 -0.2573  0.5429
 7916SOL    HW224648   4.589   3.520   5.295  2.5424 -1.1755  1.0279
 7917SOL     OW24649   3.043   3.911   2.286 -0.3878 -0.4442 -0.4647
 7917SOL    HW124650   3.037   3.939   2.382 -0.6307 -0.4512 -0.4775
 7917SOL    HW224651   2.965   3.853   2.264 -1.7894  1.6561 -1.3600
 7918SOL     OW24652   0.600   1.531   2.652  0.0080  0.5300  0.1207
 7918SOL    HW124653   0.670   1.473   2.694  0.9385  0.1153 -1.8840
 7918SOL    HW224654   0.643   1.594   2.588 -1.3180  1.4164  0.0680
 7919SOL     OW24655   5.324   3.715   3.012  0.1506 -0.0073 -0.2285
 7919SOL    HW124656   5.325   3.809   2.979 -0.3524  0.1455  0.1821
 7919SOL    HW224657   5.237   3.696   3.057  0.7748 -0.2303  0.9337
 7920SOL     OW24658   6.827   5.600   1.036  0.7418  0.2465 -0.1068
 7920SOL    HW124659   6.799   5.682   1.086 -0.0027 -0.0976  0.0437
 7920SOL    HW224660   6.890   5.547   1.093 -1.6072 -1.1449  1.3075
 7921SOL     OW24661   4.554   4.850   2.235  0.3130  0.3409 -0.0748
 7921SOL    HW124662   4.601   4.762   2.241  0.6117  0.5813  1.7364
 7921SOL    HW224663   4.490   4.848   2.158 -1.4595 -2.3325  1.3038
 7922SOL     OW24664   2.122   2.455   3.749 -0.0932  0.2054  0.2474
 7922SOL    HW124665   2.147   2.510   3.670  0.8275 -1.0167 -0.3548
 7922SOL    HW224666   2.041   2.399   3.727  0.7747 -0.9087 -0.2435
 7923SOL     OW24667   2.162   3.589   3.442 -0.1095  0.0507  0.2829
 7923SOL    HW124668   2.175   3.687   3.455 -2.8112  0.9714 -2.6943
 7923SOL    HW224669   2.200   3.561   3.353 -0.3296 -1.3579  0.5966
 7924SOL     OW24670   2.694   1.445   4.506  0.0812 -0.1667  0.1952
 7924SOL    HW124671   2.619   1.380   4.499 -0.3506  0.4973 -2.7385
 7924SOL    HW224672   2.660   1.534   4.537  0.2750 -0.6616  1.9390
 7925SOL     OW24673   1.310   0.423   0.648 -0.4859 -0.0521 -0.3326
 7925SOL    HW124674   1.260   0.458   0.569  1.5574 -1.3216 -2.3170
 7925SOL    HW224675   1.361   0.342   0.621 -0.0235 -0.7749  2.4519
 7926SOL     OW24676   2.585   6.705   2.645 -0.1973  0.4069  0.0755
 7926SOL    HW124677   2.485   6.711   2.645 -0.3816 -1.9184  1.0928
 7926SOL    HW224678   2.614   6.626   2.698  2.2183  1.0825 -0.1350
 7927SOL     OW24679   4.654   6.465   2.938  0.0501  0.1685 -0.8553
 7927SOL    HW124680   4.752   6.457   2.960  0.1763  0.5536 -1.2657
 7927SOL    HW224681   4.626   6.387   2.883 -0.4892 -1.3034  1.4050
 7928SOL     OW24682   2.358   4.868   1.916 -0.0881 -0.6778  0.2210
 7928SOL    HW124683   2.429   4.936   1.936 -0.1672 -0.9134  1.4212
 7928SOL    HW224684   2.401   4.778   1.904  0.0306 -0.4164 -1.5028
 7929SOL     OW24685   3.179   3.619   4.421  0.4853 -0.7946 -0.0885
 7929SOL    HW124686   3.246   3.551   4.392 -0.5687 -2.5032  1.3349
 7929SOL    HW224687   3.087   3.581   4.414 -0.3163  1.1177 -0.9127
 7930SOL     OW24688   4.888   6.855   3.209 -0.7301 -0.2191  0.0177
 7930SOL    HW124689   4.838   6.896   3.285 -1.9427 -0.9163 -0.3756
 7930SOL    HW224690   4.823   6.820   3.142  0.3090 -0.6970 -0.7586
 7931SOL     OW24691   1.543   3.942   5.001  0.4862 -0.8567  0.3508
 7931SOL    HW124692   1.605   3.879   5.047  1.1864  0.5740  1.4607
 7931SOL    HW224693   1.556   4.034   5.038  0.6523  0.2813 -2.3177
 7932SOL     OW24694   1.797   2.692   1.118 -0.7194 -0.2709  0.0165
 7932SOL    HW124695   1.799   2.716   1.215 -0.3642  0.7438 -0.2328
 7932SOL    HW224696   1.857   2.614   1.102 -2.1455 -1.6060  0.8959
 7933SOL     OW24697   1.187   3.975   2.082  0.2226 -0.4020  0.0544
 7933SOL    HW124698   1.236   4.048   2.130  0.7425 -0.3261 -0.5785
 7933SOL    HW224699   1.194   3.890   2.135  0.9733 -0.3705  0.0167
 7934SOL     OW24700   3.754   2.818   5.213  0.4116  0.1904 -0.0048
 7934SOL    HW124701   3.740   2.793   5.117 -2.2833 -0.0487  0.3802
 7934SOL    HW224702   3.721   2.911   5.228  0.6783  0.1744  0.7382
 7935SOL     OW24703   6.827   6.590   3.341  0.3069 -0.1073 -0.3346
 7935SOL    HW124704   6.897   6.521   3.324 -1.0268 -1.3612 -0.8282
 7935SOL    HW224705   6.847   6.636   3.428  2.2624  0.2526 -0.9154
 7936SOL     OW24706   5.236   0.408   2.152  0.0049  0.1754  0.6167
 7936SOL    HW124707   5.327   0.375   2.126 -0.2041 -0.5328  0.7796
 7936SOL    HW224708   5.198   0.463   2.078  0.4306  0.2115  0.4206
 7937SOL     OW24709   4.704   4.367   0.342  0.3751 -0.3697 -0.2577
 7937SOL    HW124710   4.716   4.444   0.406 -0.9525 -0.2023 -0.1756
 7937SOL    HW224711   4.620   4.380   0.291 -1.1734 -2.9166  1.4062
 7938SOL     OW24712   0.232   4.512   6.390 -0.1640 -0.0690  0.6290
 7938SOL    HW124713   0.227   4.493   6.488 -1.8048 -1.3852  0.3475
 7938SOL    HW224714   0.318   4.477   6.353  0.2801  0.0690  1.5205
 7939SOL     OW24715   5.015   6.085   5.870 -0.2677  0.3405  0.0918
 7939SOL    HW124716   4.921   6.115   5.856 -0.2349  0.1961 -0.4448
 7939SOL    HW224717   5.045   6.029   5.793 -0.3324 -1.1042  1.0766
 7940SOL     OW24718   0.156   6.272   6.229  0.3336  0.2503 -0.3310
 7940SOL    HW124719   0.063   6.239   6.239  0.1313  0.6004 -0.9515
 7940SOL    HW224720   0.210   6.207   6.175  0.9510 -0.8085  1.4926
 7941SOL     OW24721   0.250   1.424   1.764  0.1533  0.0221 -0.4626
 7941SOL    HW124722   0.174   1.363   1.742 -0.1216  0.3305 -0.3689
 7941SOL    HW224723   0.326   1.370   1.800 -0.4505 -0.1636  0.5616
 7942SOL     OW24724   2.438   6.728   0.273  0.4285 -0.4675 -0.0799
 7942SOL    HW124725   2.382   6.804   0.305  1.7089  0.8643 -0.8659
 7942SOL    HW224726   2.480   6.682   0.351 -1.8008 -1.6172  0.5457
 7943SOL     OW24727   5.326   2.330   5.675 -0.1705 -0.1080  0.1573
 7943SOL    HW124728   5.244   2.286   5.636 -0.0534  0.1471 -0.3916
 7943SOL    HW224729   5.383   2.261   5.720 -0.8349 -0.2407  0.8105
 7944SOL     OW24730   6.741   2.657   0.476 -0.3657  0.3488  0.4108
 7944SOL    HW124731   6.804   2.734   0.489 -0.2531  0.4908 -0.8354
 7944SOL    HW224732   6.729   2.609   0.563 -0.1650  1.5575  1.1332
 7945SOL     OW24733   4.638   5.378   0.083  0.2988  0.3146  0.1697
 7945SOL    HW124734   4.734   5.349   0.084  0.6603  1.3870 -1.0813
 7945SOL    HW224735   4.581   5.303   0.053  0.5863 -0.6739  1.9166
 7946SOL     OW24736   2.037   2.489   4.414  0.8815  0.1683 -0.6833
 7946SOL    HW124737   1.955   2.435   4.394  0.5408 -0.1427  1.2641
 7946SOL    HW224738   2.109   2.468   4.348 -0.0927 -0.7637 -1.4701
 7947SOL     OW24739   4.823   5.545   4.586 -0.2637 -0.1883 -0.2037
 7947SOL    HW124740   4.804   5.492   4.503 -1.2092  1.7308 -1.3006
 7947SOL    HW224741   4.921   5.564   4.592  0.0660 -1.8876  0.1391
 7948SOL     OW24742   6.947   3.146   6.171  0.2639  0.2654  0.6300
 7948SOL    HW124743   6.936   3.213   6.097 -1.6130  0.5311  1.1040
 7948SOL    HW224744   6.974   3.058   6.132  3.7187  1.4241  0.0731
 7949SOL     OW24745   5.532   4.124   4.127 -0.0289 -0.3647 -0.3270
 7949SOL    HW124746   5.571   4.207   4.087 -3.7863  1.0043 -1.6576
 7949SOL    HW224747   5.480   4.147   4.209 -2.0886 -1.0485 -1.3435
 7950SOL     OW24748   2.389   6.553   3.457  0.4392  0.0109 -0.1575
 7950SOL    HW124749   2.432   6.471   3.418 -0.1581 -0.6326  0.5030
 7950SOL    HW224750   2.347   6.529   3.545 -2.8706  0.1763 -1.5875
 7951SOL     OW24751   0.890   4.708   1.391 -0.2600 -0.0928  0.7197
 7951SOL    HW124752   0.843   4.625   1.421  1.1034 -0.9272  0.6249
 7951SOL    HW224753   0.963   4.683   1.327  0.5714  1.1330  1.1749
 7952SOL     OW24754   6.805   3.155   2.702  0.3206  0.2249  0.0945
 7952SOL    HW124755   6.898   3.119   2.708  0.7876  1.4615  0.5830
 7952SOL    HW224756   6.804   3.237   2.643 -0.1561  1.1045  1.2817
 7953SOL     OW24757   1.014   3.747   2.440 -0.0418  0.3919  0.1434
 7953SOL    HW124758   0.987   3.841   2.417  1.8142  1.4830  2.0382
 7953SOL    HW224759   1.098   3.725   2.390 -1.2116 -0.8463 -1.3707
 7954SOL     OW24760   0.632   5.515   5.454  0.9945  0.8012 -0.4546
 7954SOL    HW124761   0.698   5.528   5.528  0.2152  0.6529  0.2735
 7954SOL    HW224762   0.677   5.532   5.366  2.3027 -0.4374 -0.0512
 7955SOL     OW24763   1.699   0.357   5.024 -0.0297  0.4111  0.3440
 7955SOL    HW124764   1.765   0.342   4.951  1.0753  2.0280  0.9530
 7955SOL    HW224765   1.679   0.270   5.070  0.3966 -0.3676 -0.9007
 7956SOL     OW24766   4.975   5.885   4.807  0.1955  0.3890  0.1057
 7956SOL    HW124767   4.941   5.945   4.735  1.3205 -0.6362 -1.3584
 7956SOL    HW224768   4.903   5.868   4.874 -1.1875  0.6848 -1.2476
 7957SOL     OW24769   1.010   4.315   1.817  0.4852 -0.0017 -0.2182
 7957SOL    HW124770   0.974   4.373   1.890 -0.9829  0.2604 -1.1235
 7957SOL    HW224771   1.101   4.282   1.843 -0.2720 -0.4843  2.0445
 7958SOL     OW24772   3.299   5.939   2.501  0.3959 -0.1050 -0.2228
 7958SOL    HW124773   3.215   5.897   2.468 -0.1347  0.1197  0.7831
 7958SOL    HW224774   3.327   5.895   2.587  1.6508 -0.5905 -0.8578
 7959SOL     OW24775   3.555   5.725   1.280  0.4698  1.0655 -0.2854
 7959SOL    HW124776   3.650   5.724   1.312  0.3818  0.2481 -0.0249
 7959SOL    HW224777   3.544   5.660   1.205 -0.0130  0.6855  0.1035
 7960SOL     OW24778   1.038   3.203   6.955 -0.3835 -0.1351  0.1136
 7960SOL    HW124779   1.102   3.126   6.955  0.2862  0.4195 -0.8264
 7960SOL    HW224780   0.945   3.168   6.938 -0.2653 -0.8650  0.8800
 7961SOL     OW24781   2.173   6.156   6.982 -0.1922 -0.3955  0.2490
 7961SOL    HW124782   2.149   6.251   7.002 -0.0542 -0.0943 -0.9111
 7961SOL    HW224783   2.089   6.102   6.972 -0.3785  0.1024 -1.2450
 7962SOL     OW24784   3.351   6.293   2.690 -0.2000 -0.5515 -0.3589
 7962SOL    HW124785   3.359   6.276   2.788  2.5482  1.0539 -0.1784
 7962SOL    HW224786   3.305   6.380   2.674  2.0612  0.7551 -0.2255
 7963SOL     OW24787   7.017   5.089   6.760 -0.7240 -0.3428  0.1150
 7963SOL    HW124788   7.003   5.133   6.671 -1.2163 -1.5616 -0.4269
 7963SOL    HW224789   7.091   5.022   6.753  0.0830  0.4120  0.9627
 7964SOL     OW24790   1.501   6.333   5.588  0.1476  0.0484  0.2418
 7964SOL    HW124791   1.486   6.419   5.539  1.6639 -1.4517 -3.1469
 7964SOL    HW224792   1.600   6.317   5.598 -0.1122 -1.0418  1.3930
 7965SOL     OW24793   3.283   2.577   1.097 -0.5792  0.1179 -0.4614
 7965SOL    HW124794   3.329   2.607   1.181  2.1248  1.4352 -2.2512
 7965SOL    HW224795   3.338   2.507   1.052 -2.1147 -0.7609 -1.0506
 7966SOL     OW24796   6.485   2.576   6.017  0.0656  0.3406  0.6510
 7966SOL    HW124797   6.404   2.517   6.022  0.8642 -0.8296  0.3640
 7966SOL    HW224798   6.549   2.550   6.089 -0.6316  2.5888  2.1576
 7967SOL     OW24799   0.957   0.084   4.953 -0.2304  0.3062 -0.5735
 7967SOL    HW124800   1.007   0.011   4.999  1.8488  1.3147 -1.1502
 7967SOL    HW224801   0.970   0.076   4.854 -2.7876 -0.4799 -0.9277
 7968SOL     OW24802   3.427   0.974   1.362 -0.2514 -0.0529 -0.4276
 7968SOL    HW124803   3.339   0.928   1.351 -0.2379  0.4651 -3.4251
 7968SOL    HW224804   3.484   0.922   1.427 -1.9628 -1.5625 -0.0617
 7969SOL     OW24805   2.595   1.979   3.267 -0.0756  0.4406  0.0021
 7969SOL    HW124806   2.600   1.904   3.332 -0.6364 -0.0890 -0.5570
 7969SOL    HW224807   2.536   1.954   3.190  1.5078  0.5978 -1.3194
 7970SOL     OW24808   5.986   6.903   4.006 -0.3445 -0.2275  0.0032
 7970SOL    HW124809   5.973   6.978   4.071 -0.3738  1.9177 -2.3452
 7970SOL    HW224810   5.927   6.916   3.927  1.3169 -1.4703 -1.5352
 7971SOL     OW24811   4.958   1.619   4.484  0.5962 -0.3793  0.3137
 7971SOL    HW124812   4.981   1.606   4.387 -1.1388  1.7411 -0.4794
 7971SOL    HW224813   5.026   1.680   4.526 -0.5198  1.5814 -0.5891
 7972SOL     OW24814   5.496   3.921   0.568  0.3308  0.6888 -0.4911
 7972SOL    HW124815   5.520   3.940   0.664  0.9544 -1.9706 -0.0452
 7972SOL    HW224816   5.421   3.855   0.565  2.1445 -1.4618 -1.7142
 7973SOL     OW24817   5.949   1.734   2.404  0.2672  0.4150 -0.0830
 7973SOL    HW124818   5.993   1.801   2.464 -2.4614  1.5373  0.7901
 7973SOL    HW224819   5.980   1.749   2.310  1.0568  1.7149  0.3504
 7974SOL     OW24820   3.277   5.786   4.134 -0.0999  0.0975 -0.0299
 7974SOL    HW124821   3.225   5.768   4.050 -1.8277 -0.0459  1.0091
 7974SOL    HW224822   3.345   5.856   4.117 -1.6925  1.4480 -1.1175
 7975SOL     OW24823   0.013   3.251   3.526  0.7566 -0.5492 -0.1451
 7975SOL    HW124824   0.107   3.279   3.543  0.3435  1.7450 -1.2271
 7975SOL    HW224825  -0.042   3.270   3.608  0.8788  0.0068 -0.1837
 7976SOL     OW24826   0.678   0.063   1.536 -0.1885  0.1805 -0.1610
 7976SOL    HW124827   0.778   0.061   1.538 -0.1598  0.5292 -1.0970
 7976SOL    HW224828   0.644  -0.028   1.512 -0.1779 -0.4509  1.9434
 7977SOL     OW24829   5.666   6.517   1.540 -0.2085  0.1012 -0.5381
 7977SOL    HW124830   5.693   6.525   1.444  1.2667 -1.3234 -0.2953
 7977SOL    HW224831   5.668   6.420   1.567 -2.4679  0.2547  0.4499
 7978SOL     OW24832   1.714   7.018   6.302 -0.0962 -0.0813 -0.1555
 7978SOL    HW124833   1.694   7.116   6.309 -0.4100 -0.2548  1.7877
 7978SOL    HW224834   1.754   6.999   6.212 -1.0948  1.6218 -1.0106
 7979SOL     OW24835   3.241   5.497   4.189  0.1697 -0.1278 -0.0662
 7979SOL    HW124836   3.263   5.464   4.281 -0.0615 -0.8109 -0.2475
 7979SOL    HW224837   3.248   5.597   4.187  0.1414 -0.1006  0.7024
 7980SOL     OW24838   2.877   0.818   2.069 -0.4293 -0.8290  0.0287
 7980SOL    HW124839   2.865   0.889   2.139  0.3898  0.0889 -0.7248
 7980SOL    HW224840   2.822   0.738   2.092 -0.4876 -0.3913  1.5058
 7981SOL     OW24841   6.726   1.824   5.326 -0.0297  0.4984  0.7890
 7981SOL    HW124842   6.682   1.760   5.264  1.9076 -0.7905  0.6307
 7981SOL    HW224843   6.681   1.913   5.321 -0.7301  0.0740 -1.4900
 7982SOL     OW24844   6.886   2.833   6.377 -0.0190  0.6119  0.5539
 7982SOL    HW124845   6.853   2.919   6.416 -0.2950  1.0756 -0.6498
 7982SOL    HW224846   6.899   2.844   6.279 -2.1296 -1.3243 -0.0335
 7983SOL     OW24847   4.731   0.430   0.585  0.2873  0.0550 -0.0341
 7983SOL    HW124848   4.755   0.429   0.488  0.4685 -0.3501  0.0140
 7983SOL    HW224849   4.807   0.391   0.638  0.6059  1.1837  0.3618
 7984SOL     OW24850   6.408   2.180   6.041 -0.0285 -0.8013  0.4102
 7984SOL    HW124851   6.481   2.213   5.982  0.9517 -0.1543  1.9361
 7984SOL    HW224852   6.428   2.086   6.070 -0.5673 -1.1610 -0.3481
 7985SOL     OW24853   1.163   0.314   0.061 -0.3126 -0.7805  0.6694
 7985SOL    HW124854   1.211   0.263  -0.010  0.4546 -1.4083  1.6165
 7985SOL    HW224855   1.170   0.412   0.042 -2.0083 -0.9796 -1.3009
 7986SOL     OW24856   5.179   4.005   0.679 -0.2215 -0.4326 -0.7027
 7986SOL    HW124857   5.200   3.911   0.649  2.2686 -0.1331 -0.1813
 7986SOL    HW224858   5.081   4.020   0.676 -0.8563 -3.5015  0.4187
 7987SOL     OW24859   1.786   4.533   4.182 -0.2420 -0.1810 -0.2517
 7987SOL    HW124860   1.882   4.544   4.209 -0.3263 -0.2321  0.0684
 7987SOL    HW224861   1.728   4.546   4.262 -0.5638  0.9336 -0.6536
 7988SOL     OW24862   3.750   1.772   5.746  0.1811 -0.2196 -0.6444
 7988SOL    HW124863   3.773   1.849   5.805  0.7838  0.0200 -1.1826
 7988SOL    HW224864   3.674   1.798   5.685  0.2712 -0.1049 -0.7085
 7989SOL     OW24865   2.068   4.000   0.391  0.1335 -0.7881 -0.0678
 7989SOL    HW124866   2.055   3.927   0.458 -1.5159 -0.3877  0.0778
 7989SOL    HW224867   2.166   4.019   0.382  0.4759 -1.8043  1.1873
 7990SOL     OW24868   3.263   1.350   4.492  0.6641  0.0802 -0.2889
 7990SOL    HW124869   3.191   1.408   4.454  0.0384  1.0674  2.2232
 7990SOL    HW224870   3.255   1.258   4.455 -1.0074  0.5096 -1.0856
 7991SOL     OW24871   2.631   2.784   6.632 -0.5114  0.4921  0.8541
 7991SOL    HW124872   2.625   2.689   6.664  0.8942  0.1896  0.2853
 7991SOL    HW224873   2.721   2.821   6.654 -0.4351  1.1279 -0.4315
 7992SOL     OW24874   1.735   0.358   0.910  0.0238  0.0960 -0.4150
 7992SOL    HW124875   1.693   0.449   0.906 -0.1080  0.0642  0.1816
 7992SOL    HW224876   1.671   0.291   0.872 -0.7384 -0.0369  1.0218
 7993SOL     OW24877   4.508   5.895   5.419  0.1800  0.1414  0.1133
 7993SOL    HW124878   4.456   5.951   5.484  1.1460  0.9825  0.1818
 7993SOL    HW224879   4.446   5.863   5.347 -0.4061  1.2947  0.0716
 7994SOL     OW24880   4.756   0.024   5.386 -0.3608 -0.4090  0.5689
 7994SOL    HW124881   4.661   0.055   5.390 -0.2354 -0.0651  0.9384
 7994SOL    HW224882   4.817   0.098   5.414 -0.1239 -1.3180  2.6440
 7995SOL     OW24883   4.632   6.810   3.123 -0.2202  0.4078 -1.0296
 7995SOL    HW124884   4.541   6.849   3.134  0.2770  1.6292 -1.0301
 7995SOL    HW224885   4.631   6.713   3.149 -0.9814  1.0022  1.4524
 7996SOL     OW24886   3.005   1.744   3.612  0.3370 -0.1699 -0.2431
 7996SOL    HW124887   2.945   1.785   3.681 -0.4530  0.9723 -1.5522
 7996SOL    HW224888   2.953   1.679   3.557  1.4444 -2.6348  1.4458
 7997SOL     OW24889   4.086   3.571   2.663  0.1609 -0.3803  0.6408
 7997SOL    HW124890   4.076   3.472   2.650  1.5817 -0.6060  1.0614
 7997SOL    HW224891   4.087   3.616   2.575  0.0279 -0.8047  0.4179
 7998SOL     OW24892   1.687   6.925   1.712  0.3577  0.2203  0.3578
 7998SOL    HW124893   1.607   6.894   1.763 -0.2273 -0.5866 -0.9813
 7998SOL    HW224894   1.746   6.846   1.693  1.0109  0.6607  0.5439
 7999SOL     OW24895   3.818   1.509   4.950 -0.3270 -0.7443  0.0981
 7999SOL    HW124896   3.719   1.522   4.956 -0.9991 -3.6293 -2.3858
 7999SOL    HW224897   3.856   1.575   4.886 -0.8950 -0.4728  0.0293
 8000SOL     OW24898   5.885   0.410   6.525 -0.1732  0.5908  0.5743
 8000SOL    HW124899   5.833   0.336   6.484  1.2155  0.1666 -0.4830
 8000SOL    HW224900   5.876   0.406   6.625 -2.4320  0.7774  0.4315
 8001SOL     OW24901   2.189   3.950   2.062  0.0183  0.0198 -0.0909
 8001SOL    HW124902   2.259   3.878   2.066  0.1953  0.1105 -1.3499
 8001SOL    HW224903   2.102   3.910   2.033  0.5121  0.5534 -2.4779
 8002SOL     OW24904   3.520   3.480   5.845 -0.5890  0.3215 -0.5606
 8002SOL    HW124905   3.457   3.463   5.769  1.1573 -4.4362 -1.2720
 8002SOL    HW224906   3.484   3.440   5.929  0.6234 -0.9848 -0.6179
 8003SOL     OW24907   4.748   5.403   4.355  0.3977 -0.7160 -0.1583
 8003SOL    HW124908   4.763   5.440   4.263 -0.7496  0.0634 -0.0630
 8003SOL    HW224909   4.670   5.341   4.354 -1.4479  1.4510  0.7568
 8004SOL     OW24910   1.885   3.936   2.921 -0.0339  0.2269  0.6460
 8004SOL    HW124911   1.884   3.885   3.007 -3.5123 -1.0264  0.0357
 8004SOL    HW224912   1.977   3.937   2.884  1.2390 -0.6904  3.5032
 8005SOL     OW24913   1.767   1.047   4.006  0.0858  0.0992  0.4085
 8005SOL    HW124914   1.742   0.958   4.042 -1.0144  1.4372  3.2519
 8005SOL    HW224915   1.850   1.080   4.051 -0.2235  1.0217  0.3363
 8006SOL     OW24916   4.694   5.350   5.609 -0.1034  0.7562 -0.0975
 8006SOL    HW124917   4.709   5.414   5.534 -1.3595  1.3925  0.1665
 8006SOL    HW224918   4.669   5.401   5.691 -0.2474 -0.0314  0.3532
 8007SOL     OW24919   6.186   3.045   4.701  0.1564 -0.1278 -0.8131
 8007SOL    HW124920   6.152   2.954   4.679  1.7215 -0.6078 -1.4193
 8007SOL    HW224921   6.110   3.109   4.706 -1.0130 -1.5432  0.0713
 8008SOL     OW24922   6.618   5.203   2.214 -0.2534 -0.0817  0.4432
 8008SOL    HW124923   6.648   5.221   2.308  1.5958 -0.7175 -0.0009
 8008SOL    HW224924   6.679   5.248   2.149 -1.3852  0.1675 -0.4982
 8009SOL     OW24925   6.701   6.081   3.757  0.2317  0.3425 -0.0861
 8009SOL    HW124926   6.674   6.177   3.766 -0.6107  0.1713 -0.6793
 8009SOL    HW224927   6.623   6.023   3.779  0.1410 -0.1693 -1.6559
 8010SOL     OW24928   1.287   6.491   1.092 -0.0918 -0.1385  0.0748
 8010SOL    HW124929   1.353   6.562   1.069  0.0433 -0.4435 -0.5006
 8010SOL    HW224930   1.327   6.429   1.160  0.1152 -0.1672 -0.0721
 8011SOL     OW24931   0.872   3.520   0.830  0.0671 -0.4574  0.7406
 8011SOL    HW124932   0.774   3.537   0.826 -0.0277 -0.9652  0.9349
 8011SOL    HW224933   0.904   3.484   0.742  0.2528  0.5905  0.3573
 8012SOL     OW24934   2.454   5.402   1.468  1.5431  0.1785 -0.0159
 8012SOL    HW124935   2.538   5.424   1.417  0.2406  1.1744 -1.8472
 8012SOL    HW224936   2.421   5.484   1.515  0.5244  0.3666 -1.0040
 8013SOL     OW24937   6.733   5.563   4.848  0.2660 -0.0604  0.0203
 8013SOL    HW124938   6.724   5.592   4.943  2.5080 -1.0714  0.5962
 8013SOL    HW224939   6.823   5.589   4.813  0.2200 -1.4018 -1.2038
 8014SOL     OW24940   1.750   6.686   4.823  0.1479  0.2949  0.0682
 8014SOL    HW124941   1.707   6.709   4.735 -0.3682  0.9451  0.4812
 8014SOL    HW224942   1.822   6.751   4.843  3.0554 -2.1100 -1.7412
 8015SOL     OW24943   1.752   6.269   0.920 -0.2762  0.1477 -0.4619
 8015SOL    HW124944   1.827   6.335   0.920 -0.0817 -0.0712 -0.5962
 8015SOL    HW224945   1.726   6.248   0.826  0.4991 -0.9012 -0.4627
 8016SOL     OW24946   4.304   4.228   0.331  0.0091  0.1974  0.3028
 8016SOL    HW124947   4.214   4.199   0.300  0.3992 -0.1573 -0.5542
 8016SOL    HW224948   4.329   4.179   0.415 -1.3705  1.6965  1.6378
 8017SOL     OW24949   5.331   3.721   4.847  0.0299 -0.4819 -0.0976
 8017SOL    HW124950   5.303   3.740   4.941 -1.7835  4.5352 -1.2969
 8017SOL    HW224951   5.427   3.746   4.834  0.5565 -2.0758  0.5313
 8018SOL     OW24952   3.216   1.666   3.754 -0.5849  0.2600 -0.0703
 8018SOL    HW124953   3.212   1.678   3.854 -1.4610  0.9526 -0.1756
 8018SOL    HW224954   3.132   1.702   3.713  1.0746  3.0482 -1.3338
 8019SOL     OW24955   3.845   5.691   0.605 -0.7284  0.3396 -0.2741
 8019SOL    HW124956   3.792   5.678   0.521 -0.9388 -0.1473 -0.0685
 8019SOL    HW224957   3.871   5.787   0.613 -1.3811  0.5404 -0.4957
 8020SOL     OW24958   5.137   0.593   5.868 -0.1301  0.6595 -0.2909
 8020SOL    HW124959   5.185   0.537   5.801 -0.3305  0.0733  0.0505
 8020SOL    HW224960   5.039   0.570   5.866  0.1207 -0.7520  1.5325
 8021SOL     OW24961   5.008   1.621   3.647  0.8397 -0.0489  0.1161
 8021SOL    HW124962   4.988   1.527   3.677  1.5146 -0.2520 -0.0427
 8021SOL    HW224963   5.099   1.647   3.678  0.8551  0.3735 -0.2727
 8022SOL     OW24964   6.428   5.519   3.669 -0.1689 -0.5018 -0.2085
 8022SOL    HW124965   6.354   5.537   3.734 -0.3139 -0.8249 -0.2846
 8022SOL    HW224966   6.404   5.559   3.580  0.3330  0.5530  0.1032
 8023SOL     OW24967   5.579   6.760   3.195  0.1238 -0.0961  0.0204
 8023SOL    HW124968   5.671   6.777   3.160  1.3156 -1.7476  2.1151
 8023SOL    HW224969   5.574   6.788   3.291 -1.5204 -0.2068  0.0021
 8024SOL     OW24970   3.851   5.958   3.741 -0.1309 -0.2260  0.5267
 8024SOL    HW124971   3.910   5.927   3.816 -0.4964 -2.6911 -0.1040
 8024SOL    HW224972   3.904   5.964   3.657 -0.6195 -2.1067  0.0330
 8025SOL     OW24973   3.244   5.628   5.575 -0.1658 -0.0796  0.0056
 8025SOL    HW124974   3.282   5.702   5.519  0.3277 -0.3963 -0.0843
 8025SOL    HW224975   3.151   5.609   5.545  0.0234 -0.1076 -0.5776
 8026SOL     OW24976   4.372   0.552   0.437  0.2470  0.1192  0.0389
 8026SOL    HW124977   4.344   0.481   0.501 -1.3215  0.3145 -0.3973
 8026SOL    HW224978   4.455   0.597   0.471 -0.4260  0.0759  1.8270
 8027SOL     OW24979   3.286   3.400   6.297 -0.9660 -0.1417 -0.7783
 8027SOL    HW124980   3.307   3.424   6.392 -0.1597  0.7448 -1.1665
 8027SOL    HW224981   3.206   3.340   6.295 -0.4109 -0.9773  0.5262
 8028SOL     OW24982   6.553   5.216   0.874  0.0468 -0.0713  0.0767
 8028SOL    HW124983   6.511   5.296   0.916  1.5253  1.3491 -0.9814
 8028SOL    HW224984   6.517   5.133   0.915 -2.8849  1.0540 -0.0147
 8029SOL     OW24985   3.022   4.229   6.349  0.3599  0.1765 -0.5347
 8029SOL    HW124986   3.113   4.187   6.344 -0.0161 -0.6390 -0.7798
 8029SOL    HW224987   2.961   4.183   6.284 -0.4081  0.2476  0.1172
 8030SOL     OW24988   6.726   4.597   3.216  0.0508  0.5028 -0.0361
 8030SOL    HW124989   6.635   4.567   3.187  0.4434  0.4036 -1.2249
 8030SOL    HW224990   6.795   4.535   3.178  0.6214  0.5722  0.8578
 8031SOL     OW24991   4.639   4.840   0.849 -0.0916 -0.4086  0.5173
 8031SOL    HW124992   4.540   4.845   0.836 -0.0686  1.4673  0.8786
 8031SOL    HW224993   4.661   4.760   0.905 -1.2170 -1.8348 -0.9830
 8032SOL     OW24994   5.304   2.907   5.600 -0.0293  0.8587 -0.2299
 8032SOL    HW124995   5.204   2.913   5.607 -0.0658  0.8594 -0.6629
 8032SOL    HW224996   5.328   2.882   5.506  0.2728 -1.6089  0.4525
 8033SOL     OW24997   5.099   2.220   3.543 -0.4877 -0.2671  0.6481
 8033SOL    HW124998   5.000   2.234   3.547 -0.7310 -2.0614  2.1894
 8033SOL    HW224999   5.119   2.139   3.488 -0.0121 -0.8424  1.6435
 8034SOL     OW25000   6.777   2.156   5.501 -0.1581 -0.2707  0.4254
 8034SOL    HW125001   6.705   2.146   5.432 -1.4006  1.6162  1.3551
 8034SOL    HW225002   6.843   2.081   5.492 -1.9107 -1.7465 -0.8323
 8035SOL     OW25003   0.622   4.283   6.935  0.1235  0.7845 -0.2646
 8035SOL    HW125004   0.673   4.354   6.985  1.8278 -0.4089 -0.2332
 8035SOL    HW225005   0.683   4.240   6.869 -0.9123 -0.6238 -0.3259
 8036SOL     OW25006   0.101   4.872   6.956 -0.1860 -0.4148 -0.1491
 8036SOL    HW125007   0.103   4.837   7.050  0.6570  2.8290  1.2129
 8036SOL    HW225008   0.006   4.893   6.931 -0.3904 -1.0577  0.0651
 8037SOL     OW25009   2.051   5.082   2.543  0.1962 -0.3838 -0.5033
 8037SOL    HW125010   2.127   5.058   2.603 -0.0361  1.4732  0.6100
 8037SOL    HW225011   1.984   5.136   2.593 -1.0234 -0.4873 -1.9259
 8038SOL     OW25012   0.387   1.422   3.512  0.2866  0.1676  0.0128
 8038SOL    HW125013   0.410   1.479   3.591  1.2489  1.1119 -0.9102
 8038SOL    HW225014   0.461   1.427   3.444 -0.1556 -1.2498 -0.6149
 8039SOL     OW25015   2.607   7.008   2.280  0.2805  0.5658 -0.0432
 8039SOL    HW125016   2.679   6.993   2.212  0.2049 -0.8207  0.1526
 8039SOL    HW225017   2.533   6.943   2.266  0.9882 -0.9023  2.3311
 8040SOL     OW25018   5.599   6.994   4.891  0.2138  0.0158  0.1059
 8040SOL    HW125019   5.662   6.938   4.946  0.6170 -0.0779 -0.4410
 8040SOL    HW225020   5.508   6.953   4.894  0.2006  0.0966  0.8272
 8041SOL     OW25021   1.884   1.597   1.308 -0.2224 -0.7353  0.0470
 8041SOL    HW125022   1.908   1.545   1.226 -1.2358  1.0592 -1.4472
 8041SOL    HW225023   1.960   1.657   1.333 -0.0069 -1.1090  0.3097
 8042SOL     OW25024   1.520   3.485   0.219  0.2862  0.4623 -0.0424
 8042SOL    HW125025   1.514   3.385   0.211 -2.2270  0.6370 -1.6626
 8042SOL    HW225026   1.527   3.525   0.127  0.9625  1.7895  0.5697
 8043SOL     OW25027   4.036   0.241   1.130  0.0678 -0.0079 -0.1493
 8043SOL    HW125028   4.120   0.187   1.128  0.5369  0.3433  3.7258
 8043SOL    HW225029   3.957   0.178   1.129  0.3477 -0.4000 -1.8700
 8044SOL     OW25030   1.950   1.468   1.075  0.7189 -0.3040  0.5046
 8044SOL    HW125031   1.997   1.495   0.991  0.8211  1.7930  1.1761
 8044SOL    HW225032   1.872   1.410   1.053  0.7958  0.1396 -1.0322
 8045SOL     OW25033   4.849   4.627   4.406  0.3026 -0.2472 -0.3047
 8045SOL    HW125034   4.814   4.548   4.355  0.0190  2.0022 -3.9883
 8045SOL    HW225035   4.772   4.677   4.445  0.2824 -0.5474  0.0422
 8046SOL     OW25036   6.734   4.529   4.821  0.1423  0.3029  0.8903
 8046SOL    HW125037   6.673   4.450   4.812 -0.7332  0.9870  0.7522
 8046SOL    HW225038   6.810   4.520   4.756 -0.9553  0.4824 -0.4568
 8047SOL     OW25039   2.735   0.707   3.935 -0.1602 -0.4075  0.5075
 8047SOL    HW125040   2.828   0.692   3.900 -0.0956 -1.3503  1.0457
 8047SOL    HW225041   2.672   0.643   3.892 -1.2151  2.2434 -2.2262
 8048SOL     OW25042   4.683   6.608   6.713 -0.1008  0.0036 -0.2030
 8048SOL    HW125043   4.658   6.584   6.619  2.9471  1.5920 -1.5840
 8048SOL    HW225044   4.627   6.685   6.744  1.0479  1.7421 -2.1412
 8049SOL     OW25045   4.927   6.445   6.362 -0.6042 -0.0004  0.1530
 8049SOL    HW125046   4.878   6.528   6.337 -0.1843  0.1326 -0.2155
 8049SOL    HW225047   5.008   6.468   6.416 -1.0427 -0.2338  0.9352
 8050SOL     OW25048   6.726   3.965   1.865 -0.5825 -0.0392  0.2957
 8050SOL    HW125049   6.643   4.007   1.902 -0.6378  1.1259 -1.0907
 8050SOL    HW225050   6.799   4.034   1.860  0.3257 -0.9168  0.9901
 8051SOL     OW25051   2.124   1.447   4.176 -0.3406  0.0039  0.2483
 8051SOL    HW125052   2.190   1.518   4.201  0.3359 -0.8704  0.9854
 8051SOL    HW225053   2.166   1.384   4.111 -0.4035 -0.6250  0.8141
 8052SOL     OW25054   5.755   0.535   2.676 -0.2097 -0.4551  0.1976
 8052SOL    HW125055   5.758   0.508   2.772 -3.5286  0.4561  0.6685
 8052SOL    HW225056   5.682   0.601   2.661 -0.0941 -0.8640 -3.0538
 8053SOL     OW25057   3.455   3.398   1.451  0.0891 -0.3249 -0.4600
 8053SOL    HW125058   3.427   3.310   1.413 -1.2410 -0.3910  0.5950
 8053SOL    HW225059   3.443   3.397   1.551 -0.0897  1.0882 -0.4379
 8054SOL     OW25060   5.119   6.541   4.525  0.0327  0.6577 -0.3434
 8054SOL    HW125061   5.082   6.631   4.546  0.7614  1.1230 -0.9765
 8054SOL    HW225062   5.181   6.548   4.446  1.6108 -0.0403  0.7756
 8055SOL     OW25063   3.769   6.890   4.082  0.3301  0.0216  0.2123
 8055SOL    HW125064   3.762   6.860   3.987  0.5196  1.6671 -0.3667
 8055SOL    HW225065   3.799   6.986   4.084 -0.0090  0.1244  1.9236
 8056SOL     OW25066   4.003   1.424   2.740  0.4039  0.3903  0.5682
 8056SOL    HW125067   3.914   1.469   2.731  0.4695  0.4679  0.3109
 8056SOL    HW225068   4.062   1.478   2.799  0.7184  1.0040 -0.2796
 8057SOL     OW25069   3.084   6.028   3.494  0.8162  0.1117  0.0670
 8057SOL    HW125070   3.030   5.998   3.415  0.1441 -0.3391  0.6915
 8057SOL    HW225071   3.097   5.952   3.557  3.1389 -0.0959 -0.5600
 8058SOL     OW25072   1.493   5.776   3.286 -0.2951 -0.2175  0.2279
 8058SOL    HW125073   1.526   5.856   3.235  0.3041  0.5992  1.8292
 8058SOL    HW225074   1.412   5.800   3.338 -0.8069 -0.9964 -0.1885
 8059SOL     OW25075   1.404   1.700   4.174 -0.4272  0.1209  0.5981
 8059SOL    HW125076   1.417   1.602   4.185 -0.0950  0.1961  0.9094
 8059SOL    HW225077   1.493   1.745   4.165 -0.5984  0.3404 -0.0231
 8060SOL     OW25078   7.010   2.835   3.802 -1.3986 -0.5518  0.0891
 8060SOL    HW125079   6.984   2.895   3.878  0.0053 -1.9356  1.7495
 8060SOL    HW225080   7.094   2.869   3.760 -0.4605 -1.4039  1.1943
 8061SOL     OW25081   3.604   6.942   2.742  0.1858 -0.6108  0.0917
 8061SOL    HW125082   3.519   6.995   2.731 -0.6618 -1.9700 -0.0579
 8061SOL    HW225083   3.610   6.909   2.836 -0.1592 -1.6831 -0.2550
 8062SOL     OW25084   0.020   2.280   0.925 -0.2718 -0.0140  0.1927
 8062SOL    HW125085  -0.073   2.256   0.953 -0.2092 -0.3689  0.1024
 8062SOL    HW225086   0.065   2.199   0.887 -0.1267  0.2938 -0.3051
 8063SOL     OW25087   3.902   1.560   5.668  0.4563  0.3438  0.3359
 8063SOL    HW125088   3.877   1.540   5.573 -0.5580  0.1717  0.6276
 8063SOL    HW225089   3.859   1.645   5.697  0.5091  0.2317  0.7444
 8064SOL     OW25090   3.864   2.248   0.427 -0.3888 -0.5942 -0.0070
 8064SOL    HW125091   3.869   2.204   0.338 -2.5141 -0.0057 -0.4606
 8064SOL    HW225092   3.795   2.203   0.483 -1.7667  1.3535 -0.0481
 8065SOL     OW25093   3.523   0.203   6.182  0.0629 -0.7198 -0.1313
 8065SOL    HW125094   3.464   0.179   6.104 -0.6106  1.0370 -0.2169
 8065SOL    HW225095   3.500   0.145   6.260 -1.3615 -0.4985 -0.3565
 8066SOL     OW25096   1.462   0.764   1.202  0.1681 -0.8121 -0.4142
 8066SOL    HW125097   1.399   0.797   1.132  1.6723 -0.9175 -1.8780
 8066SOL    HW225098   1.555   0.794   1.181  0.5505  0.0501  2.1430
 8067SOL     OW25099   4.950   1.316   3.706 -0.1136  0.6799  0.1738
 8067SOL    HW125100   4.944   1.253   3.628 -0.5214  1.4439 -0.4277
 8067SOL    HW225101   4.923   1.268   3.790 -0.9265  0.1928 -0.3523
 8068SOL     OW25102   6.070   3.273   1.288  0.4691  0.7929 -0.1545
 8068SOL    HW125103   6.091   3.216   1.367 -1.2173  0.8459  0.3757
 8068SOL    HW225104   6.122   3.358   1.293  1.1255  0.3708  0.3614
 8069SOL     OW25105   1.744   6.192   1.789 -0.1209  0.3070  0.5339
 8069SOL    HW125106   1.812   6.143   1.735 -0.0594 -0.2385  1.0908
 8069SOL    HW225107   1.662   6.208   1.734  1.1994  2.8796 -0.8680
 8070SOL     OW25108   3.706   0.286   2.663 -0.3604  0.3274 -0.3699
 8070SOL    HW125109   3.614   0.310   2.694 -0.0513  1.1707 -0.0545
 8070SOL    HW225110   3.767   0.364   2.680 -0.2111  0.9715 -3.3606
 8071SOL     OW25111   6.352   5.190   6.471  0.2398  0.1841 -0.3357
 8071SOL    HW125112   6.426   5.246   6.434  0.3477  0.6773  0.6033
 8071SOL    HW225113   6.291   5.162   6.397  0.5388  1.0219 -0.9075
 8072SOL     OW25114   2.690   6.481   2.916  0.0285 -0.0072 -0.2747
 8072SOL    HW125115   2.648   6.399   2.953  1.0206 -0.0815  0.7225
 8072SOL    HW225116   2.634   6.561   2.939 -1.2674 -0.4331 -1.7814
 8073SOL     OW25117   5.677   1.145   5.031 -0.5200 -0.0648 -0.6334
 8073SOL    HW125118   5.601   1.086   5.058  0.7811 -2.2607 -1.5328
 8073SOL    HW225119   5.701   1.129   4.936 -1.0948  3.1381 -1.4404
 8074SOL     OW25120   2.661   4.692   7.015 -0.5201  0.1142  0.3074
 8074SOL    HW125121   2.720   4.651   6.946 -0.7246 -0.2799  0.3639
 8074SOL    HW225122   2.584   4.630   7.035  0.1539 -0.3164  1.7196
 8075SOL     OW25123   5.790   4.209   3.166 -0.2369 -0.5119  0.1685
 8075SOL    HW125124   5.725   4.230   3.239 -0.3233  0.3488 -0.1383
 8075SOL    HW225125   5.751   4.238   3.078  0.6035  0.1010 -0.0065
 8076SOL     OW25126   6.737   1.651   6.793 -0.2856  0.1616 -0.1678
 8076SOL    HW125127   6.710   1.741   6.759  2.1171  0.6971 -0.8462
 8076SOL    HW225128   6.807   1.613   6.734  1.5371 -0.4395  2.2130
 8077SOL     OW25129   0.387   1.205   6.942 -0.1247  0.2293  0.5728
 8077SOL    HW125130   0.405   1.173   6.850  1.6651  1.2914  0.5059
 8077SOL    HW225131   0.330   1.138   6.991  0.7292 -1.3859 -0.5840
 8078SOL     OW25132   6.083   4.612   2.015 -0.3798 -0.3546  0.4685
 8078SOL    HW125133   6.155   4.553   1.980 -0.3395 -0.2992  0.4576
 8078SOL    HW225134   6.024   4.640   1.939 -0.2183 -0.1331  0.4245
 8079SOL     OW25135   0.292   2.873   1.048 -0.1166  0.4825 -0.7964
 8079SOL    HW125136   0.380   2.913   1.074  0.4953 -0.5955 -1.1391
 8079SOL    HW225137   0.257   2.817   1.124  0.2409 -0.3024 -1.1988
 8080SOL     OW25138   1.952   4.912   6.955 -0.3666 -0.2867 -0.3132
 8080SOL    HW125139   1.941   5.008   6.980 -0.2453 -0.1175 -0.8851
 8080SOL    HW225140   1.864   4.874   6.925 -0.7189 -0.7580  1.2407
 8081SOL     OW25141   4.382   2.450   3.583  0.1468  0.1589  0.1412
 8081SOL    HW125142   4.407   2.376   3.521  0.2341  1.1486 -1.0581
 8081SOL    HW225143   4.458   2.516   3.588 -0.3896  0.7800  0.2139
 8082SOL     OW25144   0.753   4.832   6.151  0.6767 -0.6341 -0.0727
 8082SOL    HW125145   0.851   4.817   6.135  0.6220 -1.0394 -0.0456
 8082SOL    HW225146   0.707   4.850   6.065  0.7096 -0.8533 -0.1368
 8083SOL     OW25147   0.671   3.832   4.456 -0.0859 -0.0815  0.2982
 8083SOL    HW125148   0.746   3.883   4.412  1.6768 -3.5773 -1.1001
 8083SOL    HW225149   0.595   3.894   4.471  1.9234  3.0018 -1.0507
 8084SOL     OW25150   6.260   5.642   5.162 -0.6086  0.3820  0.3028
 8084SOL    HW125151   6.329   5.689   5.218  0.2433 -0.0029 -0.4055
 8084SOL    HW225152   6.301   5.562   5.119 -2.1005 -1.2430  1.7225
 8085SOL     OW25153   6.037   3.341   3.058 -0.4450 -0.5262 -0.2169
 8085SOL    HW125154   6.083   3.350   2.970  0.4513 -1.1889  0.1647
 8085SOL    HW225155   6.083   3.401   3.125 -1.3833  0.2967 -0.2877
 8086SOL     OW25156   1.678   4.290   4.338  0.1934 -0.1452  0.3320
 8086SOL    HW125157   1.655   4.352   4.413 -0.5345 -0.5475  0.4539
 8086SOL    HW225158   1.777   4.276   4.334  0.3179  0.6482  0.5977
 8087SOL     OW25159   1.135   4.503   1.004  0.0217 -0.2862 -0.7194
 8087SOL    HW125160   1.051   4.549   0.976  0.9854  2.1119  0.0742
 8087SOL    HW225161   1.204   4.571   1.031  1.6609 -2.2041  0.2733
 8088SOL     OW25162   4.675   2.268   2.793 -0.3441  0.0481  0.2838
 8088SOL    HW125163   4.738   2.344   2.809 -1.8546  1.2253  0.8902
 8088SOL    HW225164   4.622   2.286   2.711 -0.8198 -0.2784  0.5172
 8089SOL     OW25165   6.373   1.855   0.547 -0.1550 -0.2113 -0.0358
 8089SOL    HW125166   6.316   1.932   0.516  1.1466  0.7932 -0.0187
 8089SOL    HW225167   6.316   1.791   0.599 -1.1248  1.1678  0.6725
 8090SOL     OW25168   4.328   5.213   5.770 -0.1566 -0.3641 -0.1744
 8090SOL    HW125169   4.336   5.265   5.685 -1.0550 -0.4180 -0.2968
 8090SOL    HW225170   4.235   5.178   5.780 -0.5959  1.1559  1.6921
 8091SOL     OW25171   0.189   4.335   4.928  0.0028 -0.0225 -0.5248
 8091SOL    HW125172   0.139   4.368   4.848  0.9551 -1.3408 -1.7193
 8091SOL    HW225173   0.269   4.393   4.943 -1.0198  1.2086  0.5155
 8092SOL     OW25174   7.007   1.544   4.974 -0.2046 -0.0630  0.8185
 8092SOL    HW125175   6.973   1.628   5.016 -1.5658 -0.7581  1.1628
 8092SOL    HW225176   6.930   1.491   4.939  0.7669 -0.0856 -1.5188
 8093SOL     OW25177   5.468   4.373   0.714  0.3936  0.1015  0.2639
 8093SOL    HW125178   5.545   4.428   0.683  0.4638 -1.2616 -2.2434
 8093SOL    HW225179   5.404   4.360   0.638 -0.2740 -2.1076  1.1206
 8094SOL     OW25180   0.459   2.249   3.488 -0.3706 -0.0891 -0.0163
 8094SOL    HW125181   0.393   2.251   3.563  0.7652 -1.3828  1.0661
 8094SOL    HW225182   0.427   2.188   3.416 -0.9836  0.3571 -0.1273
 8095SOL     OW25183   4.235   3.165   5.970  0.0295  0.4922 -0.0887
 8095SOL    HW125184   4.142   3.199   5.981 -0.3030 -0.2399 -0.5327
 8095SOL    HW225185   4.299   3.228   6.014 -0.7385  0.5665  0.9497
 8096SOL     OW25186   5.157   1.084   0.332  0.0615  0.3017 -0.0362
 8096SOL    HW125187   5.066   1.084   0.290  0.2163 -1.1643 -0.3934
 8096SOL    HW225188   5.168   1.169   0.385 -0.7676  1.4262 -1.5597
 8097SOL     OW25189   5.551   1.966   3.908  0.0738  0.1708 -0.0881
 8097SOL    HW125190   5.622   2.023   3.867 -0.4900 -0.1769 -1.5997
 8097SOL    HW225191   5.462   1.994   3.873 -0.2406 -1.4491 -0.6314
 8098SOL     OW25192   1.566   0.152   4.355  0.2683 -0.2215 -0.3944
 8098SOL    HW125193   1.550   0.155   4.257  0.2061  1.5227 -0.3744
 8098SOL    HW225194   1.547   0.242   4.394  0.8743 -0.7165  1.1289
 8099SOL     OW25195   5.397   5.353   3.678 -0.4442  0.1796 -0.6914
 8099SOL    HW125196   5.357   5.360   3.769  3.3982  0.0531  1.1913
 8099SOL    HW225197   5.399   5.257   3.650  1.0834 -0.2007  0.5561
 8100SOL     OW25198   6.848   6.490   0.008 -0.1840 -0.4580 -0.3725
 8100SOL    HW125199   6.773   6.552   0.031 -2.4451 -2.9241 -0.6026
 8100SOL    HW225200   6.835   6.455  -0.085  2.3616  0.4177 -1.1640
 8101SOL     OW25201   0.762   6.228   3.271 -0.0920 -1.0882  0.3519
 8101SOL    HW125202   0.720   6.295   3.331 -0.0098 -1.6234  1.0112
 8101SOL    HW225203   0.799   6.152   3.325  2.3510 -0.3109 -0.1126
 8102SOL     OW25204   5.197   0.201   5.653 -0.1915 -1.2316 -0.0618
 8102SOL    HW125205   5.282   0.152   5.671  0.5480  0.0255  0.0319
 8102SOL    HW225206   5.136   0.195   5.732 -0.3737 -2.4832 -0.2862
 8103SOL     OW25207   1.741   6.791   4.329 -0.0004 -0.2191  0.3147
 8103SOL    HW125208   1.735   6.695   4.304 -1.2591 -0.0302 -0.2438
 8103SOL    HW225209   1.662   6.840   4.291 -0.0167  0.8093  1.5850
 8104SOL     OW25210   1.750   0.301   5.975  0.1306  0.2727  0.3932
 8104SOL    HW125211   1.839   0.291   5.929 -1.0249 -1.2514 -1.6946
 8104SOL    HW225212   1.695   0.369   5.926 -2.2783 -3.4975 -2.8166
 8105SOL     OW25213   1.982   2.024   3.201  0.2956 -0.4272 -0.6250
 8105SOL    HW125214   1.965   1.950   3.267  0.2189 -0.0962 -0.2695
 8105SOL    HW225215   1.979   1.987   3.108 -1.0352 -0.6339 -0.5142
 8106SOL     OW25216   5.755   3.809   1.612  0.0924  0.3307  0.3390
 8106SOL    HW125217   5.767   3.864   1.530  0.4465  1.0782  0.8871
 8106SOL    HW225218   5.788   3.716   1.595  1.0557  0.7314 -0.0845
 8107SOL     OW25219   1.853   4.519   6.868  0.1699  0.1030 -0.1872
 8107SOL    HW125220   1.949   4.525   6.839  0.5191 -0.2670  0.8456
 8107SOL    HW225221   1.820   4.610   6.891  0.4160  0.1714 -0.1036
 8108SOL     OW25222   1.494   2.778   6.253  0.0731 -0.0264  0.5316
 8108SOL    HW125223   1.395   2.765   6.255 -0.0799  0.1832 -2.1962
 8108SOL    HW225224   1.515   2.875   6.257  0.2823 -0.1200  2.4783
 8109SOL     OW25225   6.662   5.999   4.115 -0.0820 -0.0650  0.4094
 8109SOL    HW125226   6.605   6.014   4.196 -1.1742  0.7826 -0.4812
 8109SOL    HW225227   6.752   6.042   4.129 -0.2377  0.0213  1.1918
 8110SOL     OW25228   0.009   4.005   6.667 -0.2490  0.6597  0.0285
 8110SOL    HW125229   0.093   4.007   6.721  0.7949  0.6649 -1.5317
 8110SOL    HW225230  -0.041   3.920   6.685  0.5402  0.2508  0.3261
 8111SOL     OW25231   4.546   0.125   3.199 -0.1847 -0.0895 -0.1371
 8111SOL    HW125232   4.478   0.165   3.138 -1.0471 -1.3985 -0.0740
 8111SOL    HW225233   4.635   0.126   3.154 -0.4551  0.5878 -0.6855
 8112SOL     OW25234   4.066   1.858   5.672  0.4131 -0.2806  0.6902
 8112SOL    HW125235   4.078   1.771   5.720 -1.1492  0.0212  1.7274
 8112SOL    HW225236   4.135   1.867   5.600  1.3836 -1.7997  1.3793
 8113SOL     OW25237   3.652   1.663   6.551  0.1750  0.2829 -0.6134
 8113SOL    HW125238   3.610   1.679   6.462  0.3082 -0.6636 -0.8647
 8113SOL    HW225239   3.734   1.606   6.540  0.8077  1.0514  0.0039
 8114SOL     OW25240   1.432   5.422   6.706 -0.3641  0.1893 -0.5266
 8114SOL    HW125241   1.350   5.475   6.682  0.0156  1.3711  0.6789
 8114SOL    HW225242   1.513   5.472   6.677 -0.0230 -0.3306 -0.4734
 8115SOL     OW25243   3.925   1.769   1.827  0.0010 -0.2022 -0.3926
 8115SOL    HW125244   4.006   1.785   1.883  0.5847 -2.4479 -0.4993
 8115SOL    HW225245   3.843   1.796   1.879  0.7317  1.2684  0.0490
 8116SOL     OW25246   5.454   0.297   0.022 -0.0249 -0.5700 -0.5697
 8116SOL    HW125247   5.554   0.295   0.025  0.0303  1.2782  0.0807
 8116SOL    HW225248   5.421   0.231  -0.046  1.6267 -1.1856 -0.8087
 8117SOL     OW25249   2.881   3.714   4.693 -0.0715 -0.3916 -0.2210
 8117SOL    HW125250   2.805   3.692   4.754 -1.3325  0.8027 -1.2963
 8117SOL    HW225251   2.892   3.640   4.626  0.2883 -0.9564  0.4432
 8118SOL     OW25252   0.218   2.245   1.659  0.2461 -0.0084  0.4665
 8118SOL    HW125253   0.225   2.150   1.627  0.0564 -0.1128  0.7292
 8118SOL    HW225254   0.180   2.246   1.752  0.4910  0.3093  0.5650
 8119SOL     OW25255   1.240   6.866   2.851  0.4908 -0.5957 -0.0347
 8119SOL    HW125256   1.273   6.777   2.822  0.7404 -0.9062  1.1395
 8119SOL    HW225257   1.301   6.937   2.815  0.0574 -0.8509 -1.3155
 8120SOL     OW25258   5.666   3.881   2.145  0.4366 -0.4447 -0.1572
 8120SOL    HW125259   5.698   3.863   2.052 -0.4577  1.2185 -0.8420
 8120SOL    HW225260   5.701   3.970   2.176  2.5555 -1.9226  2.0126
 8121SOL     OW25261   6.820   6.999   2.841 -0.0092 -0.3838 -0.1416
 8121SOL    HW125262   6.909   7.026   2.806 -1.4240  4.1066 -0.8413
 8121SOL    HW225263   6.818   7.012   2.941  0.6204 -2.5363  0.2183
 8122SOL     OW25264   0.434   5.857   1.942  0.6457  1.2042 -0.1545
 8122SOL    HW125265   0.367   5.800   1.989  0.6467  1.3156 -0.0169
 8122SOL    HW225266   0.496   5.799   1.889  1.6294  0.9505  1.2236
 8123SOL     OW25267   1.129   3.575   6.638 -0.0314  0.3419 -0.1070
 8123SOL    HW125268   1.067   3.578   6.717 -0.4101 -0.6793 -0.3506
 8123SOL    HW225269   1.096   3.638   6.567 -0.5240  0.1477 -0.0499
 8124SOL     OW25270   6.555   0.186   2.578 -0.5477  0.2820 -0.0313
 8124SOL    HW125271   6.628   0.251   2.597 -0.7432  1.1298 -1.9434
 8124SOL    HW225272   6.593   0.106   2.531 -0.8931  1.1172 -1.8368
 8125SOL     OW25273   5.388   3.995   3.697 -0.2932 -0.0680  0.1692
 8125SOL    HW125274   5.312   3.933   3.683 -1.2446  0.7086  1.7012
 8125SOL    HW225275   5.400   4.051   3.615 -1.1846 -0.3898 -0.1947
 8126SOL     OW25276   0.091   2.586   2.135 -0.5298 -0.1156 -0.2188
 8126SOL    HW125277   0.052   2.600   2.044  0.2196  1.5739 -0.3252
 8126SOL    HW225278   0.115   2.675   2.175 -0.7147 -0.8342  1.5789
 8127SOL     OW25279   3.620   4.645   6.266 -0.4767 -0.0214 -0.1723
 8127SOL    HW125280   3.572   4.583   6.327 -1.8001  2.1239  1.1050
 8127SOL    HW225281   3.700   4.683   6.312 -0.4079  0.1747 -0.4474
 8128SOL     OW25282   3.206   3.084   5.906 -0.4928 -0.8492  0.4218
 8128SOL    HW125283   3.286   3.065   5.963 -1.0159 -2.8005  0.5867
 8128SOL    HW225284   3.223   3.049   5.813 -0.7171 -0.2292  0.1470
 8129SOL     OW25285   4.214   3.681   5.667 -0.4124 -0.2095 -0.3918
 8129SOL    HW125286   4.175   3.594   5.699 -0.5552 -0.3154 -0.8409
 8129SOL    HW225287   4.314   3.673   5.663 -0.4250 -0.3614 -0.4402
 8130SOL     OW25288   0.049   6.548   5.443 -0.8605 -0.1138 -0.5173
 8130SOL    HW125289   0.036   6.605   5.362 -0.5710  0.3398 -0.2469
 8130SOL    HW225290  -0.037   6.503   5.466 -0.9851 -0.1173 -0.9776
 8131SOL     OW25291   0.419   1.601   0.671 -0.1420  0.0788 -0.3195
 8131SOL    HW125292   0.498   1.618   0.730 -0.6343  0.8678  0.1203
 8131SOL    HW225293   0.450   1.592   0.576  0.3952  1.2596 -0.2707
 8132SOL     OW25294   6.266   6.185   4.301 -0.6352  0.2581 -0.3002
 8132SOL    HW125295   6.262   6.244   4.381 -2.2036 -0.2809  0.0529
 8132SOL    HW225296   6.203   6.219   4.231 -0.3245 -0.0729 -0.7499
 8133SOL     OW25297   1.704   5.681   1.612 -0.3975  0.0486  0.5846
 8133SOL    HW125298   1.747   5.770   1.629 -1.2843  0.8247 -0.9851
 8133SOL    HW225299   1.612   5.681   1.650 -0.4303 -0.1603  0.5053
 8134SOL     OW25300   2.623   2.873   1.715 -0.1290  0.0331 -0.2704
 8134SOL    HW125301   2.631   2.800   1.647 -0.9686 -1.4105  1.1167
 8134SOL    HW225302   2.573   2.840   1.795  2.3271  1.0837  1.8661
 8135SOL     OW25303   4.516   6.587   1.849  0.2593 -0.3678  0.3935
 8135SOL    HW125304   4.538   6.684   1.840 -0.1431 -0.3895 -1.0601
 8135SOL    HW225305   4.599   6.533   1.842  0.2938 -0.2073 -0.6342
 8136SOL     OW25306   1.235   6.210   1.728  0.3293 -0.4095 -0.3141
 8136SOL    HW125307   1.240   6.111   1.743 -0.1287 -0.3500  0.2472
 8136SOL    HW225308   1.169   6.228   1.655  1.1996 -0.5769 -1.1659
 8137SOL     OW25309   3.453   5.048   5.970 -0.3671  0.5938  0.2348
 8137SOL    HW125310   3.354   5.035   5.979 -0.2208 -0.4361  0.4909
 8137SOL    HW225311   3.501   4.967   6.005  0.5411  0.7770 -0.5319
 8138SOL     OW25312   4.870   6.185   3.631 -0.1142 -0.3593 -0.2692
 8138SOL    HW125313   4.861   6.162   3.728 -0.2702  0.2843 -0.1299
 8138SOL    HW225314   4.846   6.281   3.617  0.3998 -0.3173 -0.8691
 8139SOL     OW25315   3.102   3.596   5.319 -0.3054 -0.2490  1.1463
 8139SOL    HW125316   3.047   3.679   5.320  0.0134  0.0040  3.0706
 8139SOL    HW225317   3.042   3.516   5.317 -0.6014 -0.0416 -1.7353
 8140SOL     OW25318   5.293   2.287   2.275 -0.3945 -0.1080 -0.4577
 8140SOL    HW125319   5.392   2.284   2.261 -0.4713 -1.2360 -0.8069
 8140SOL    HW225320   5.268   2.226   2.350 -1.1315 -2.2612 -2.3473
 8141SOL     OW25321   0.155   1.878   4.214 -0.5940 -0.3316 -0.0298
 8141SOL    HW125322   0.112   1.927   4.138 -0.0405 -1.2342 -0.9589
 8141SOL    HW225323   0.139   1.780   4.203  2.2947 -0.8022 -0.8777
 8142SOL     OW25324   4.188   6.375   5.881  0.0010 -0.6830  0.1448
 8142SOL    HW125325   4.238   6.288   5.885 -0.3544 -0.9389 -0.7110
 8142SOL    HW225326   4.092   6.357   5.862  0.1146 -0.0638 -1.1325
 8143SOL     OW25327   6.019   5.271   1.996 -0.1747  0.1808  0.3972
 8143SOL    HW125328   6.031   5.361   1.954  0.5969 -0.4364 -0.7618
 8143SOL    HW225329   5.992   5.282   2.092  0.5616  1.6456  0.4629
 8144SOL     OW25330   0.300   6.454   5.608  0.0778  0.1998 -0.4340
 8144SOL    HW125331   0.247   6.479   5.527 -0.4016  0.8558  0.0730
 8144SOL    HW225332   0.380   6.514   5.614  1.0182 -0.9149 -1.3060
 8145SOL     OW25333   5.145   0.086   3.598  0.0397  0.2639  0.1522
 8145SOL    HW125334   5.164  -0.012   3.586 -2.3846 -0.1331 -0.9467
 8145SOL    HW225335   5.075   0.099   3.667  0.3346  1.2525  0.2885
 8146SOL     OW25336   6.935   6.282   5.903 -0.6002 -0.3242  0.6072
 8146SOL    HW125337   6.921   6.193   5.859 -3.0175  0.5843 -0.6643
 8146SOL    HW225338   7.010   6.330   5.858 -1.8984 -0.1355 -1.5083
 8147SOL     OW25339   2.188   3.871   3.353  0.0834  0.0060 -0.5184
 8147SOL    HW125340   2.223   3.883   3.260  0.1969  0.6360 -0.4001
 8147SOL    HW225341   2.190   3.959   3.400 -1.3396 -0.0114 -0.3918
 8148SOL     OW25342   5.503   4.516   1.132 -0.3262  0.2641  0.5086
 8148SOL    HW125343   5.592   4.494   1.091 -0.4986  0.2688  0.1255
 8148SOL    HW225344   5.491   4.615   1.131  0.2805  0.3797  1.8756
 8149SOL     OW25345   6.623   4.588   5.719  0.0189  0.0768  0.0372
 8149SOL    HW125346   6.664   4.670   5.758 -1.0995  0.7364 -0.1236
 8149SOL    HW225347   6.523   4.597   5.718 -0.0941 -0.9658 -0.6863
 8150SOL     OW25348   3.314   4.784   6.751  0.5243 -0.1059  0.8982
 8150SOL    HW125349   3.295   4.747   6.660  0.0337 -0.2329  1.0438
 8150SOL    HW225350   3.289   4.881   6.753 -1.1970 -0.5084  1.3777
 8151SOL     OW25351   5.805   3.597   2.316  0.3113 -1.1693  0.3130
 8151SOL    HW125352   5.884   3.656   2.332  0.6707 -1.1498 -1.3520
 8151SOL    HW225353   5.779   3.602   2.220  0.3605 -3.7140  0.0981
 8152SOL     OW25354   4.587   6.949   4.556 -0.2626 -0.0918  0.4324
 8152SOL    HW125355   4.490   6.973   4.549 -0.2056  0.0470  0.0811
 8152SOL    HW225356   4.643   7.031   4.544 -0.0189 -0.5261 -2.0672
 8153SOL     OW25357   0.593   6.979   2.311  0.6550  0.0273 -0.1284
 8153SOL    HW125358   0.644   6.942   2.389  0.3871 -0.1871 -0.0510
 8153SOL    HW225359   0.552   6.904   2.260  1.5343  0.1051 -0.9788
 8154SOL     OW25360   6.579   0.713   5.599  0.1164 -0.0683 -0.1374
 8154SOL    HW125361   6.573   0.806   5.634  1.8735 -0.8244  2.4741
 8154SOL    HW225362   6.675   0.687   5.588 -0.3375 -1.2326 -1.9643
 8155SOL     OW25363   0.535   5.268   4.051 -0.6108 -0.0389 -0.7394
 8155SOL    HW125364   0.534   5.311   4.141  1.4995 -0.3058 -0.5383
 8155SOL    HW225365   0.479   5.321   3.988  1.6048  2.9644 -0.4326
 8156SOL     OW25366   6.330   3.593   0.271  0.1169  0.2498 -0.2491
 8156SOL    HW125367   6.398   3.576   0.342  0.9942  2.3571 -0.5133
 8156SOL    HW225368   6.250   3.535   0.287  2.3263 -3.1632 -0.5726
 8157SOL     OW25369   0.576   4.776   0.460 -0.0231 -0.8781 -0.2948
 8157SOL    HW125370   0.655   4.784   0.399 -0.7340 -0.4171 -1.1758
 8157SOL    HW225371   0.508   4.845   0.436 -0.7700 -1.3708  0.3417
 8158SOL     OW25372   6.175   4.478   5.985  0.1999  0.0764  0.0441
 8158SOL    HW125373   6.137   4.550   6.044  0.7447 -0.7474  1.4583
 8158SOL    HW225374   6.165   4.505   5.890 -0.6503  1.5012  0.4959
 8159SOL     OW25375   2.480   4.529   4.886  0.3110 -0.1875 -0.0145
 8159SOL    HW125376   2.446   4.459   4.950 -0.7174 -1.3439 -1.7538
 8159SOL    HW225377   2.405   4.558   4.827  1.4797  0.0769 -1.3978
 8160SOL     OW25378   3.656   1.299   5.105 -0.6333 -0.1694  0.2887
 8160SOL    HW125379   3.714   1.219   5.117 -1.3282 -0.4707  2.0089
 8160SOL    HW225380   3.701   1.365   5.044 -0.1716 -1.9393 -1.3744
 8161SOL     OW25381   6.711   0.797   1.836  0.3165 -0.1213  0.5073
 8161SOL    HW125382   6.632   0.779   1.776 -0.1540 -0.9673  1.3545
 8161SOL    HW225383   6.697   0.884   1.883  0.6061  0.4632 -0.4605
 8162SOL     OW25384   6.992   0.668   6.154  0.1854  0.4132  0.3125
 8162SOL    HW125385   6.955   0.741   6.096  0.4442  0.1231 -0.2179
 8162SOL    HW225386   7.089   0.685   6.170  0.1065  0.5134  0.6979
 8163SOL     OW25387   4.536   6.871   4.237 -0.2037 -0.2950 -0.4089
 8163SOL    HW125388   4.541   6.916   4.326  0.3058 -0.1415 -0.5067
 8163SOL    HW225389   4.553   6.773   4.248  0.9854 -0.1189 -0.4493
 8164SOL     OW25390   6.312   1.341   2.099 -0.2352 -0.4004 -0.2162
 8164SOL    HW125391   6.390   1.403   2.111  1.0660 -2.1696  1.0592
 8164SOL    HW225392   6.342   1.260   2.049 -1.2349 -1.1386  0.3552
 8165SOL     OW25393   0.907   1.425   4.517 -0.2220 -0.1115 -0.3527
 8165SOL    HW125394   0.924   1.427   4.615  0.5807 -0.7970 -0.4689
 8165SOL    HW225395   0.845   1.350   4.495  2.1634 -2.0842 -0.7145
 8166SOL     OW25396   2.558   2.434   3.076 -0.0490 -0.2192 -0.1141
 8166SOL    HW125397   2.565   2.455   2.979  0.8096  0.7183  0.1282
 8166SOL    HW225398   2.467   2.457   3.109 -0.1105  0.1775 -0.5457
 8167SOL     OW25399   1.685   4.151   1.331  0.1486  0.1663 -0.2257
 8167SOL    HW125400   1.772   4.109   1.356 -0.4002 -0.3987  0.8434
 8167SOL    HW225401   1.630   4.086   1.279  0.5069  0.6602 -1.2437
 8168SOL     OW25402   1.823   5.547   3.550  0.7495  0.1470  0.3068
 8168SOL    HW125403   1.736   5.590   3.574  0.6210 -0.0423  0.1832
 8168SOL    HW225404   1.834   5.462   3.601  0.8952  0.2059  0.3752
 8169SOL     OW25405   5.416   4.344   0.278 -0.3278 -0.1547 -0.0658
 8169SOL    HW125406   5.395   4.328   0.374  0.4783 -0.5669  0.0476
 8169SOL    HW225407   5.333   4.334   0.223 -0.6188 -0.7910  0.4836
 8170SOL     OW25408   0.286   5.169   2.930  0.1874  0.5023 -0.3427
 8170SOL    HW125409   0.367   5.228   2.928  0.0806  0.6364 -1.0964
 8170SOL    HW225410   0.312   5.077   2.959  0.5513  0.6303 -0.2573
 8171SOL     OW25411   0.974   1.566   2.283  0.3335 -0.2227  0.1338
 8171SOL    HW125412   1.049   1.626   2.311  1.1074 -0.8363 -0.5370
 8171SOL    HW225413   0.919   1.611   2.213 -0.5808  0.6446  1.3836
 8172SOL     OW25414   0.454   5.670   6.940 -0.1064  0.2471  0.2256
 8172SOL    HW125415   0.358   5.640   6.946  0.4284 -1.3245  1.6768
 8172SOL    HW225416   0.464   5.735   6.865 -1.8238 -1.4469 -1.5635
 8173SOL     OW25417   4.588   0.792   2.089  0.2020 -0.6775 -0.4642
 8173SOL    HW125418   4.658   0.854   2.055 -0.4162  0.0021 -0.5102
 8173SOL    HW225419   4.574   0.718   2.023 -0.3130  0.1122 -1.2694
 8174SOL     OW25420   3.119   5.714   3.921  0.6088 -0.3831  0.5832
 8174SOL    HW125421   3.118   5.616   3.904  2.0345 -0.1371 -1.3100
 8174SOL    HW225422   3.025   5.746   3.938 -0.4051 -1.6036 -2.1419
 8175SOL     OW25423   1.471   2.025   3.984 -0.7562  0.3096 -0.1586
 8175SOL    HW125424   1.427   2.103   4.026 -2.3920 -0.3870 -0.5207
 8175SOL    HW225425   1.409   1.947   3.983  0.2819 -0.5513 -1.2042
 8176SOL     OW25426   2.831   3.299   0.120  0.3220 -0.4956 -0.2952
 8176SOL    HW125427   2.748   3.354   0.115 -1.2649 -2.7996 -0.9066
 8176SOL    HW225428   2.858   3.288   0.216 -0.4140 -0.1778 -0.0449
 8177SOL     OW25429   3.162   1.473   1.213 -0.5236 -0.1192 -0.4977
 8177SOL    HW125430   3.129   1.395   1.266  1.0456  0.2237  1.0782
 8177SOL    HW225431   3.113   1.555   1.240 -0.6618 -0.1826 -0.5574
 8178SOL     OW25432   3.110   5.600   6.513  0.0100  0.1379  0.0009
 8178SOL    HW125433   3.073   5.537   6.446  0.8339  0.3064 -0.6218
 8178SOL    HW225434   3.045   5.675   6.528 -0.1941  0.0754 -0.5662
 8179SOL     OW25435   6.734   6.732   4.214 -0.3409 -0.0342  0.6097
 8179SOL    HW125436   6.643   6.746   4.176  0.5169  1.1938 -1.1219
 8179SOL    HW225437   6.727   6.689   4.304 -2.6009 -0.0280  0.4745
 8180SOL     OW25438   3.286   5.406   0.977 -0.6269  0.2413  0.6980
 8180SOL    HW125439   3.200   5.429   0.931 -0.5070  1.9389  1.2606
 8180SOL    HW225440   3.266   5.354   1.060 -1.0209 -0.3570  0.2381
 8181SOL     OW25441   6.587   0.356   6.525 -0.0492 -0.2581  0.4051
 8181SOL    HW125442   6.565   0.266   6.561  0.9934 -0.4889  0.4872
 8181SOL    HW225443   6.604   0.349   6.427 -3.4258  0.4564 -0.3546
 8182SOL     OW25444   3.010   3.278   2.514 -0.3780 -0.6984 -0.1382
 8182SOL    HW125445   3.011   3.195   2.570 -1.4174 -0.5304  0.1575
 8182SOL    HW225446   2.957   3.349   2.561 -0.1399 -0.1190 -0.7345
 8183SOL     OW25447   1.417   0.258   5.992  0.1081 -0.3921  0.1789
 8183SOL    HW125448   1.349   0.329   5.973  1.9511  1.0294 -1.4768
 8183SOL    HW225449   1.480   0.291   6.062 -0.4158 -1.3901  1.1422
 8184SOL     OW25450   0.125   4.805   5.930 -0.0504  0.3366  0.1907
 8184SOL    HW125451   0.078   4.840   5.849 -0.5797  0.4290  0.5335
 8184SOL    HW225452   0.220   4.784   5.907 -0.4439 -0.5446 -0.6985
 8185SOL     OW25453   6.365   0.491   5.907  0.0950 -0.2639 -0.1131
 8185SOL    HW125454   6.270   0.470   5.934  0.0953 -0.6046 -0.3737
 8185SOL    HW225455   6.413   0.531   5.985 -0.0057 -0.9321  0.3031
 8186SOL     OW25456   0.431   5.685   6.082 -0.3080  0.3694 -0.8201
 8186SOL    HW125457   0.524   5.657   6.101 -0.0634  0.6002 -1.6372
 8186SOL    HW225458   0.371   5.656   6.157  0.7038  1.8033  0.6061
 8187SOL     OW25459   0.857   5.808   5.403 -0.0312 -0.3504  0.3392
 8187SOL    HW125460   0.789   5.837   5.470  0.7239  5.4603 -0.8485
 8187SOL    HW225461   0.948   5.834   5.435  0.8799 -1.6649 -1.0408
 8188SOL     OW25462   0.620   1.835   0.625  0.2894 -0.0673 -0.5861
 8188SOL    HW125463   0.648   1.865   0.533 -2.1442 -2.4830 -2.2636
 8188SOL    HW225464   0.681   1.762   0.656  0.1147 -0.4329 -1.0803
 8189SOL     OW25465   6.997   6.382   2.737 -0.3780  0.2656 -0.0757
 8189SOL    HW125466   7.055   6.312   2.777 -4.7295 -2.3937  2.4517
 8189SOL    HW225467   7.003   6.466   2.793  0.3570 -0.2416  0.6302
 8190SOL     OW25468   4.304   4.117   1.676 -0.3213  0.2245  0.8667
 8190SOL    HW125469   4.219   4.080   1.713 -1.2204 -0.4580 -1.6609
 8190SOL    HW225470   4.366   4.140   1.751 -0.9528 -3.3910  2.7078
 8191SOL     OW25471   2.937   5.271   5.168 -0.8069 -0.5656  0.6556
 8191SOL    HW125472   2.859   5.250   5.110 -0.2760 -1.5459  0.2663
 8191SOL    HW225473   3.001   5.331   5.119  0.1050 -2.1568 -0.1865
 8192SOL     OW25474   0.285   4.417   1.609 -0.5413 -0.2081 -0.1410
 8192SOL    HW125475   0.310   4.451   1.518 -0.1708 -0.9775 -0.3364
 8192SOL    HW225476   0.296   4.491   1.676 -0.9730  0.4154 -0.7343
 8193SOL     OW25477   1.546   6.777   5.610 -0.0027 -0.0673 -0.3456
 8193SOL    HW125478   1.613   6.824   5.553  0.5105 -1.7027 -1.1618
 8193SOL    HW225479   1.532   6.828   5.694  2.2991  0.3107 -0.1333
 8194SOL     OW25480   6.734   0.686   3.946 -0.1439  0.4070  0.0020
 8194SOL    HW125481   6.684   0.752   3.890  0.6738  0.5134 -0.6105
 8194SOL    HW225482   6.689   0.597   3.942  0.1211  0.3160 -1.1343
 8195SOL     OW25483   4.978   5.509   4.910 -0.2923 -0.0252  0.0635
 8195SOL    HW125484   5.040   5.573   4.865 -0.8016 -0.3047 -1.0841
 8195SOL    HW225485   4.959   5.541   5.003  0.8593  0.5256  0.1321
 8196SOL     OW25486   6.679   0.685   0.131 -0.1041  0.1586  0.0307
 8196SOL    HW125487   6.658   0.725   0.041  1.1612 -1.4528 -1.0445
 8196SOL    HW225488   6.714   0.593   0.119 -2.1587 -1.0413  2.3829
 8197SOL     OW25489   2.915   1.174   3.269 -0.0777 -0.3856  0.0063
 8197SOL    HW125490   2.828   1.130   3.287 -1.6050  1.7200 -1.6348
 8197SOL    HW225491   2.899   1.265   3.229  2.8610  0.6543  0.9060
 8198SOL     OW25492   1.475   5.815   5.628 -0.4200 -0.4050 -0.4331
 8198SOL    HW125493   1.470   5.901   5.679 -1.9754 -1.6588  1.6854
 8198SOL    HW225494   1.474   5.835   5.530 -0.3337  1.9941 -0.0133
 8199SOL     OW25495   5.991   4.659   0.362 -0.1372  0.1081  0.4183
 8199SOL    HW125496   5.928   4.728   0.327 -1.6535 -0.8818  1.0873
 8199SOL    HW225497   6.030   4.690   0.449 -0.2995  0.3940  0.3878
 8200SOL     OW25498   6.239   4.004   6.835  0.4807  0.2998 -0.7510
 8200SOL    HW125499   6.314   3.952   6.877 -0.4016 -1.3767 -1.1420
 8200SOL    HW225500   6.228   3.974   6.740  0.7335  2.1468 -1.4139
 8201SOL     OW25501   5.149   2.443   5.988 -0.3597  0.1577 -0.1892
 8201SOL    HW125502   5.198   2.433   5.901  0.9667  0.3989  0.5061
 8201SOL    HW225503   5.176   2.529   6.032 -1.1125  0.0992  0.4112
 8202SOL     OW25504   1.432   5.632   1.671 -0.1488 -0.2037  0.4378
 8202SOL    HW125505   1.419   5.557   1.606  0.4163  0.4502 -0.4506
 8202SOL    HW225506   1.484   5.599   1.750 -2.1919 -1.4143  1.3685
 8203SOL     OW25507   6.934   3.071   0.165  0.2621 -0.1142 -0.8401
 8203SOL    HW125508   6.874   2.992   0.173 -0.2723  0.3861  0.3929
 8203SOL    HW225509   6.935   3.120   0.252  0.8054  1.0689 -1.4956
 8204SOL     OW25510   1.427   5.187   6.516  0.1754 -0.3601 -0.1941
 8204SOL    HW125511   1.330   5.199   6.540  0.0696 -0.3080 -0.6489
 8204SOL    HW225512   1.482   5.243   6.578 -0.0182 -1.0513  0.6347
 8205SOL     OW25513   6.634   3.488   4.830  0.0080 -0.1375 -0.2658
 8205SOL    HW125514   6.686   3.403   4.817 -0.3785 -0.8208  2.0745
 8205SOL    HW225515   6.684   3.565   4.791  0.1548 -1.4423 -2.8722
 8206SOL     OW25516   1.872   1.003   0.559 -0.1485 -0.0614  0.5165
 8206SOL    HW125517   1.825   1.091   0.547  1.7756  1.1089  1.0710
 8206SOL    HW225518   1.874   0.954   0.472  1.0599  1.6884 -0.5117
 8207SOL     OW25519   3.721   2.886   3.382 -0.4494 -0.2308  0.2424
 8207SOL    HW125520   3.765   2.959   3.329 -1.3133  1.5882  1.9059
 8207SOL    HW225521   3.637   2.857   3.337 -1.6002  1.8709  0.9315
 8208SOL     OW25522   5.519   1.022   5.234 -0.4111 -0.0066  0.2683
 8208SOL    HW125523   5.585   0.998   5.305 -0.2200  0.2938  0.1963
 8208SOL    HW225524   5.482   1.113   5.252 -2.1010 -0.8479  1.2576
 8209SOL     OW25525   4.970   5.241   4.366 -0.9801  0.1938  0.0555
 8209SOL    HW125526   4.877   5.273   4.351 -1.1728 -0.2230  0.3412
 8209SOL    HW225527   4.995   5.257   4.462 -1.4719 -1.4759  0.4994
 8210SOL     OW25528   6.833   6.837   0.197  0.3398  0.3333 -0.6024
 8210SOL    HW125529   6.824   6.935   0.181 -1.4063  0.1395 -1.0534
 8210SOL    HW225530   6.774   6.787   0.132  1.6689 -1.0477 -0.8092
 8211SOL     OW25531   4.032   4.275   1.185 -0.2041 -0.3556 -1.0805
 8211SOL    HW125532   3.954   4.255   1.126 -1.7123  1.0422  0.3745
 8211SOL    HW225533   4.057   4.371   1.177 -2.4732  0.7524  2.7211
 8212SOL     OW25534   2.523   2.109   2.156 -0.5400  0.1020 -0.4746
 8212SOL    HW125535   2.445   2.050   2.138 -0.6905 -0.2165  1.1124
 8212SOL    HW225536   2.493   2.190   2.207 -0.0715  0.7587 -1.2142
 8213SOL     OW25537   6.065   3.542   0.432  0.4028  0.1171 -0.0110
 8213SOL    HW125538   6.017   3.459   0.460  1.5347 -0.7858 -0.6319
 8213SOL    HW225539   6.001   3.618   0.427 -0.2632 -0.1319  2.8893
 8214SOL     OW25540   4.831   4.336   4.014 -0.3493 -0.1918 -0.1540
 8214SOL    HW125541   4.907   4.339   3.949 -1.4662  0.6232 -1.4796
 8214SOL    HW225542   4.755   4.392   3.980 -1.3246 -0.4702  1.4321
 8215SOL     OW25543   3.810   3.344   3.114  0.5350  0.2213  0.1735
 8215SOL    HW125544   3.789   3.414   3.184  1.3825  0.3721  0.2882
 8215SOL    HW225545   3.731   3.332   3.055 -0.1336  0.2393  1.0402
 8216SOL     OW25546   4.107   1.860   4.389  0.1943 -0.0515  0.0169
 8216SOL    HW125547   4.053   1.939   4.358  1.3266  0.4777 -0.6719
 8216SOL    HW225548   4.191   1.853   4.334  0.5001 -1.2670  0.6024
 8217SOL     OW25549   2.476   0.053   5.301 -0.1810 -0.0241 -0.4944
 8217SOL    HW125550   2.472  -0.023   5.366 -1.6180  0.9807  0.6578
 8217SOL    HW225551   2.511   0.020   5.213 -0.2022 -1.8640  0.1474
 8218SOL     OW25552   3.908   2.179   0.152 -0.3149  0.2787  0.1251
 8218SOL    HW125553   3.995   2.146   0.115 -0.7956 -1.0020  0.1054
 8218SOL    HW225554   3.860   2.232   0.082  0.4174  0.9658  0.1257
 8219SOL     OW25555   5.680   2.197   2.088  0.2840 -0.1326 -0.1953
 8219SOL    HW125556   5.651   2.272   2.028  1.4768  0.3664 -0.1719
 8219SOL    HW225557   5.739   2.134   2.038 -0.4084 -0.8754 -0.1101
 8220SOL     OW25558   4.778   4.425   1.502  0.1217 -0.0507  0.1824
 8220SOL    HW125559   4.740   4.460   1.417  1.3556  0.7304 -0.0708
 8220SOL    HW225560   4.712   4.363   1.545 -1.5506  1.4580 -0.0890
 8221SOL     OW25561   5.302   3.108   2.305  0.8464 -0.1506 -0.3305
 8221SOL    HW125562   5.218   3.123   2.356  2.1715  2.9537  1.1789
 8221SOL    HW225563   5.343   3.021   2.331  0.9989  0.8795  3.3988
 8222SOL     OW25564   5.510   3.367   3.144 -0.2981  0.5041  0.3325
 8222SOL    HW125565   5.462   3.407   3.066 -3.4363 -3.3549 -0.0220
 8222SOL    HW225566   5.590   3.317   3.112 -0.8434  0.0083 -0.2736
 8223SOL     OW25567   1.303   3.375   0.939 -0.5841  0.6587 -0.4584
 8223SOL    HW125568   1.372   3.442   0.966 -0.6223  0.0285  1.3811
 8223SOL    HW225569   1.219   3.391   0.991 -1.3859  0.5904 -1.6957
 8224SOL     OW25570   0.053   4.659   4.448 -0.2892 -0.2533 -0.0711
 8224SOL    HW125571   0.017   4.591   4.512 -0.7665  0.5407  0.5171
 8224SOL    HW225572   0.062   4.618   4.357  2.4092 -2.0909  0.8745
 8225SOL     OW25573   5.869   6.699   1.799  0.1489  0.1200  0.4198
 8225SOL    HW125574   5.926   6.705   1.717 -1.3417 -1.7899 -0.8308
 8225SOL    HW225575   5.850   6.603   1.820 -0.9218  0.6391  2.0114
 8226SOL     OW25576   4.946   0.246   5.104 -0.0095 -0.2957  0.2523
 8226SOL    HW125577   5.009   0.324   5.097  0.4938 -0.6109  1.1450
 8226SOL    HW225578   4.984   0.179   5.167 -0.0312 -1.6637 -1.1420
 8227SOL     OW25579   0.876   5.898   5.148  0.5584 -0.4918  0.1437
 8227SOL    HW125580   0.815   5.974   5.124 -1.0375 -1.7836 -0.0293
 8227SOL    HW225581   0.866   5.877   5.245  0.6681 -0.7730  0.0936
 8228SOL     OW25582   0.787   1.373   2.746  0.4831  0.8459  0.7353
 8228SOL    HW125583   0.755   1.283   2.716 -0.5665  1.4392 -0.0154
 8228SOL    HW225584   0.881   1.388   2.715  0.9727 -0.3078  1.5994
 8229SOL     OW25585   4.794   5.337   6.627  0.1589  0.0129  0.1344
 8229SOL    HW125586   4.821   5.264   6.565  3.3578  0.0554  1.3210
 8229SOL    HW225587   4.777   5.298   6.718 -0.0829  0.5141  0.3076
 8230SOL     OW25588   5.970   1.676   2.830 -0.0418  0.6037  0.8032
 8230SOL    HW125589   6.054   1.677   2.775  0.1077 -0.8445  0.9836
 8230SOL    HW225590   5.988   1.631   2.918 -0.9988  0.3201  0.8639
 8231SOL     OW25591   3.736   4.956   0.805  0.2599  0.0588 -0.2839
 8231SOL    HW125592   3.834   4.962   0.785  0.6067 -1.0936  0.9052
 8231SOL    HW225593   3.713   4.861   0.827 -0.4691  0.8185  2.5926
 8232SOL     OW25594   4.021   0.737   1.542 -0.3768  0.2025 -0.2145
 8232SOL    HW125595   4.110   0.729   1.497 -0.2286  0.1014  0.0933
 8232SOL    HW225596   4.014   0.827   1.585  0.7477 -0.7854  2.2096
 8233SOL     OW25597   1.726   5.310   6.518  0.1743  0.1204 -0.3216
 8233SOL    HW125598   1.686   5.397   6.545 -0.3766 -0.7737  2.0231
 8233SOL    HW225599   1.711   5.294   6.421 -1.4048  1.7530 -0.3870
 8234SOL     OW25600   1.678   2.421   0.159 -0.2076  0.3902 -0.2737
 8234SOL    HW125601   1.745   2.405   0.232 -1.9917 -1.1696  1.1277
 8234SOL    HW225602   1.651   2.333   0.119  0.3955  1.1847 -2.5707
 8235SOL     OW25603   2.382   2.890   6.709  0.4718 -0.4936 -0.1252
 8235SOL    HW125604   2.478   2.864   6.695  0.0543 -2.5158  0.5598
 8235SOL    HW225605   2.332   2.814   6.750 -1.0979  1.0689  0.9938
 8236SOL     OW25606   6.573   0.313   5.007  0.5375 -0.1013  0.0536
 8236SOL    HW125607   6.644   0.261   5.055  0.7826 -1.4243 -1.6606
 8236SOL    HW225608   6.616   0.383   4.950  0.4352 -0.5667 -0.5955
 8237SOL     OW25609   3.942   6.959   4.538 -0.1788  0.1721 -0.5111
 8237SOL    HW125610   3.945   7.016   4.620 -1.4035 -1.7279  0.9464
 8237SOL    HW225611   4.030   6.962   4.492  0.2746  1.9398  0.3945
 8238SOL     OW25612   0.655   1.271   4.852  0.2847 -0.0684 -0.0358
 8238SOL    HW125613   0.694   1.335   4.919 -2.6283  0.7378  1.0150
 8238SOL    HW225614   0.583   1.217   4.896 -0.0011 -1.3119 -1.9279
 8239SOL     OW25615   4.920   4.508   0.777 -0.2313 -0.7135 -0.3216
 8239SOL    HW125616   4.878   4.454   0.705  0.7550 -2.1546  0.1508
 8239SOL    HW225617   4.972   4.449   0.838  1.1770  0.7950  0.0225
 8240SOL     OW25618   2.903   3.701   2.564  0.4175 -0.8575  0.5520
 8240SOL    HW125619   2.900   3.605   2.592 -0.6689 -0.6069  1.3559
 8240SOL    HW225620   2.896   3.759   2.645  0.3996 -0.0908  0.0113
 8241SOL     OW25621   3.350   5.516   1.472 -0.3497 -0.1550 -0.4855
 8241SOL    HW125622   3.276   5.581   1.456 -0.3162 -0.1059 -0.4415
 8241SOL    HW225623   3.437   5.555   1.439  0.0242  0.6917  1.4231
 8242SOL     OW25624   0.808   2.743   4.815  0.1459 -0.3152  0.3959
 8242SOL    HW125625   0.863   2.664   4.787 -1.2695 -1.0042 -0.5720
 8242SOL    HW225626   0.859   2.827   4.797  0.9430 -0.9324 -0.3360
 8243SOL     OW25627   1.672   5.258   3.594 -0.3209  0.1501 -0.0636
 8243SOL    HW125628   1.681   5.262   3.693  0.5191  0.4871 -0.1368
 8243SOL    HW225629   1.591   5.205   3.569 -2.0236  2.1768  0.8388
 8244SOL     OW25630   2.284   5.744   5.034  0.4955  0.5109  0.6457
 8244SOL    HW125631   2.209   5.800   5.069  0.6940  0.0260  1.8884
 8244SOL    HW225632   2.307   5.774   4.941 -0.5694  1.3090  0.6177
 8245SOL     OW25633   5.245   4.695   0.288  0.7243  0.1210  0.1289
 8245SOL    HW125634   5.260   4.627   0.360 -2.8187 -0.7569  0.2319
 8245SOL    HW225635   5.251   4.651   0.199 -1.1418 -0.3045  0.1806
 8246SOL     OW25636   5.254   0.847   6.216 -0.8710 -0.2152  0.4778
 8246SOL    HW125637   5.339   0.800   6.240  0.0020  0.7613 -0.5448
 8246SOL    HW225638   5.255   0.869   6.119 -2.2774 -0.1151  0.4700
 8247SOL     OW25639   0.575   6.935   0.004  0.3313  0.5430 -0.6677
 8247SOL    HW125640   0.661   6.936  -0.048  0.2442 -0.0547 -0.8223
 8247SOL    HW225641   0.539   7.028   0.008 -1.0160  0.3121 -3.9677
 8248SOL     OW25642   0.072   2.101   3.320  0.0676 -0.3039  0.1141
 8248SOL    HW125643   0.073   2.010   3.280  0.2853  0.0117 -0.6134
 8248SOL    HW225644  -0.003   2.154   3.281 -0.4357 -0.3550  0.9760
 8249SOL     OW25645   1.190   6.551   2.937 -0.1704 -0.1510 -0.3071
 8249SOL    HW125646   1.262   6.548   2.867  0.3817 -0.4039  0.2688
 8249SOL    HW225647   1.110   6.501   2.904 -0.3672  0.7580 -1.2611
 8250SOL     OW25648   4.013   3.339   2.041 -0.3401 -0.3007 -0.1018
 8250SOL    HW125649   4.098   3.326   1.990 -0.0518 -0.6862  0.4660
 8250SOL    HW225650   4.025   3.412   2.109 -0.1239 -1.0412  0.6803
 8251SOL     OW25651   4.811   1.355   3.152  0.1510  0.0678 -0.0285
 8251SOL    HW125652   4.788   1.271   3.103  1.1493 -1.1382  1.4800
 8251SOL    HW225653   4.731   1.386   3.204  0.1821 -0.7384  0.5073
 8252SOL     OW25654   1.706   1.513   3.154 -0.1137 -0.0019  0.4906
 8252SOL    HW125655   1.804   1.491   3.158 -0.2341 -0.9346 -0.9372
 8252SOL    HW225656   1.656   1.450   3.213 -0.0095 -0.7407 -0.1815
 8253SOL     OW25657   3.790   1.104   0.469  0.2252  0.1464  0.3590
 8253SOL    HW125658   3.717   1.042   0.441 -0.2864  1.0401 -0.3472
 8253SOL    HW225659   3.750   1.188   0.506  0.8365  1.0816 -0.9867
 8254SOL     OW25660   5.115   6.694   3.947  0.1416  0.6326 -0.0617
 8254SOL    HW125661   5.209   6.717   3.920 -0.1735  1.4302 -0.5090
 8254SOL    HW225662   5.071   6.775   3.986 -0.7560  0.6127 -0.9810
 8255SOL     OW25663   5.050   5.088   5.645 -0.2762 -0.2648  0.1395
 8255SOL    HW125664   5.071   4.991   5.657  0.1535 -0.0659  1.1559
 8255SOL    HW225665   4.958   5.107   5.681 -0.4784 -0.3405 -0.3272
 8256SOL     OW25666   6.123   2.964   3.815 -0.4007  0.0062 -0.4366
 8256SOL    HW125667   6.081   3.044   3.859 -1.4077 -1.3431  1.1802
 8256SOL    HW225668   6.062   2.931   3.742 -0.9383 -0.4454  0.2117
 8257SOL     OW25669   1.112   4.629   2.193  0.0279  0.0912 -0.4302
 8257SOL    HW125670   1.058   4.545   2.192  0.2721 -0.0753 -1.5279
 8257SOL    HW225671   1.109   4.671   2.284  1.9382 -2.4045  0.9122
 8258SOL     OW25672   4.155   1.947   1.090  0.0591  0.2153 -0.0724
 8258SOL    HW125673   4.158   1.938   1.190 -0.6883  1.6105  0.1031
 8258SOL    HW225674   4.063   1.926   1.058  0.2478 -0.0325 -0.4485
 8259SOL     OW25675   4.995   0.282   1.645 -0.0255  0.8886 -0.0876
 8259SOL    HW125676   5.059   0.208   1.626  1.0985  1.4559  1.3096
 8259SOL    HW225677   4.938   0.299   1.564 -0.5948 -1.7208 -0.3279
 8260SOL     OW25678   3.772   4.127   6.633 -0.0527 -0.1346 -0.0432
 8260SOL    HW125679   3.800   4.189   6.706 -0.6412  1.1051 -0.8432
 8260SOL    HW225680   3.820   4.151   6.549  1.1362 -1.9753  0.0352
 8261SOL     OW25681   4.331   0.038   1.360 -0.0109 -0.5484 -0.3167
 8261SOL    HW125682   4.291  -0.023   1.428 -2.0547 -0.0456 -0.9718
 8261SOL    HW225683   4.337   0.131   1.398  1.3344 -0.7659  0.0441
 8262SOL     OW25684   1.117   0.988   0.880  0.1717 -0.1079 -0.5358
 8262SOL    HW125685   1.094   0.924   0.807 -2.1355  1.0457 -0.9162
 8262SOL    HW225686   1.084   0.952   0.968  0.3192 -0.1749 -0.5082
 8263SOL     OW25687   6.284   2.821   5.978 -0.3393  0.0486  0.4973
 8263SOL    HW125688   6.289   2.830   5.879 -0.0700  1.9470  0.6484
 8263SOL    HW225689   6.345   2.748   6.008  0.3601  0.1363 -0.6559
 8264SOL     OW25690   1.479   4.346   3.169  0.2953  0.0111  0.3199
 8264SOL    HW125691   1.544   4.335   3.244  0.1128 -0.5079  0.4078
 8264SOL    HW225692   1.392   4.381   3.205  0.5663  0.8530  0.1802
 8265SOL     OW25693   3.007   6.285   3.515  0.5668  0.4337 -0.3660
 8265SOL    HW125694   3.047   6.193   3.509  0.8392  0.6184 -1.6284
 8265SOL    HW225695   2.965   6.309   3.428 -0.4056  1.1147  0.2745
 8266SOL     OW25696   3.066   1.081   2.298 -0.0411  0.0600 -0.3830
 8266SOL    HW125697   3.135   1.135   2.251  1.6060 -0.0413  1.7700
 8266SOL    HW225698   3.108   0.998   2.335 -1.6757 -0.7925 -0.3475
 8267SOL     OW25699   6.289   1.371   0.573 -0.5320  0.2836  0.4804
 8267SOL    HW125700   6.286   1.395   0.476 -1.1116 -0.4008  0.3226
 8267SOL    HW225701   6.363   1.306   0.589 -1.0264 -0.3273  0.3224
 8268SOL     OW25702   0.489   4.606   6.933 -0.0238 -0.4275 -0.0963
 8268SOL    HW125703   0.434   4.652   7.003 -1.5664 -0.4194 -1.2615
 8268SOL    HW225704   0.584   4.601   6.963 -0.5696 -0.0849  1.8153
 8269SOL     OW25705   5.228   1.166   6.720  0.1781  0.4093 -0.0867
 8269SOL    HW125706   5.307   1.182   6.780 -0.5225 -2.5961  1.8563
 8269SOL    HW225707   5.260   1.132   6.631  1.1690 -1.2968  0.8583
 8270SOL     OW25708   1.281   5.841   3.468  0.3283 -0.6134 -0.6106
 8270SOL    HW125709   1.255   5.867   3.561  0.4244  0.7162 -0.9489
 8270SOL    HW225710   1.235   5.755   3.444  1.5936 -1.8817  1.2477
 8271SOL     OW25711   6.874   1.904   3.396 -0.4629 -0.1768  0.1565
 8271SOL    HW125712   6.948   1.885   3.460  1.0750  1.9832 -0.8559
 8271SOL    HW225713   6.873   1.834   3.325  1.5178  0.4060 -0.5253
 8272SOL     OW25714   3.864   6.570   3.818  0.2325 -0.2584 -0.6840
 8272SOL    HW125715   3.830   6.663   3.800  0.0079 -0.2146 -0.0645
 8272SOL    HW225716   3.788   6.505   3.809 -0.3062 -0.0434  1.7414
 8273SOL     OW25717   3.139   1.041   1.119 -0.2520 -0.6960  0.5318
 8273SOL    HW125718   3.056   1.006   1.163  0.7315 -1.5066  1.8078
 8273SOL    HW225719   3.158   0.987   1.037 -0.6682 -0.8668  0.5436
 8274SOL     OW25720   6.013   4.874   2.213 -0.9065  0.6238  0.0136
 8274SOL    HW125721   5.927   4.839   2.251 -0.2603 -0.7032  0.3050
 8274SOL    HW225722   6.022   4.843   2.119 -0.8144  0.8819 -0.0616
 8275SOL     OW25723   6.565   2.121   5.329 -0.4905  0.0639 -0.4079
 8275SOL    HW125724   6.544   2.160   5.240 -2.8847 -1.2769 -0.5131
 8275SOL    HW225725   6.512   2.167   5.400  0.2523  0.1168  0.1266
 8276SOL     OW25726   1.298   1.510   3.603 -0.0533 -0.5111 -0.1976
 8276SOL    HW125727   1.380   1.456   3.623 -0.3578 -1.3291 -1.0579
 8276SOL    HW225728   1.324   1.602   3.576  0.5113 -0.3820  0.7686
 8277SOL     OW25729   4.992   6.579   0.227  0.4555 -0.2704 -0.1922
 8277SOL    HW125730   4.961   6.502   0.283  1.8986 -0.4919  0.3366
 8277SOL    HW225731   4.937   6.660   0.249  0.5696 -0.5203  1.0801
 8278SOL     OW25732   6.395   3.463   6.610  0.0095  0.2023 -0.5070
 8278SOL    HW125733   6.390   3.398   6.686  0.0235  0.9911  0.1787
 8278SOL    HW225734   6.394   3.556   6.646  1.0357  0.5835 -1.4109
 8279SOL     OW25735   1.209   6.556   5.098  0.3693  0.0462 -0.2593
 8279SOL    HW125736   1.214   6.635   5.160  1.1940 -0.2617  0.0819
 8279SOL    HW225737   1.302   6.523   5.079  0.2696  1.0618 -2.8843
 8280SOL     OW25738   3.271   2.653   0.409 -0.4705  0.3441 -0.2332
 8280SOL    HW125739   3.198   2.623   0.470 -0.3183  0.2139 -0.1153
 8280SOL    HW225740   3.356   2.607   0.434 -0.4687  0.0767 -0.7245
 8281SOL     OW25741   3.270   3.916   1.456  0.1124  0.2205  0.9125
 8281SOL    HW125742   3.252   3.873   1.545 -0.6037  0.9936  1.1572
 8281SOL    HW225743   3.249   3.852   1.383 -1.9273  0.4438  1.2414
 8282SOL     OW25744   0.932   2.592   5.610  0.5832 -0.1637  0.0840
 8282SOL    HW125745   0.917   2.556   5.518 -4.7066 -2.6708  1.5636
 8282SOL    HW225746   0.986   2.526   5.663 -2.0497 -2.1808  0.4555
 8283SOL     OW25747   2.655   3.880   5.296  0.0866 -0.4925  0.6908
 8283SOL    HW125748   2.625   3.884   5.391 -0.9324 -0.6754  0.4004
 8283SOL    HW225749   2.592   3.933   5.239  0.9404 -0.0132  0.1735
 8284SOL     OW25750   5.682   3.862   1.871  0.1407 -0.4901  0.0991
 8284SOL    HW125751   5.606   3.924   1.855 -1.0442 -2.0440 -0.4968
 8284SOL    HW225752   5.701   3.809   1.788  2.7439  0.7395 -0.1991
 8285SOL     OW25753   3.541   3.629   3.939 -0.0172  0.1087  0.1174
 8285SOL    HW125754   3.469   3.576   3.894 -0.7693  0.7664  0.5218
 8285SOL    HW225755   3.603   3.567   3.986 -0.7581 -0.4289  0.4111
 8286SOL     OW25756   6.579   4.605   1.423 -0.0975  0.0619 -0.1371
 8286SOL    HW125757   6.513   4.530   1.422  0.1340 -0.1438 -0.4833
 8286SOL    HW225758   6.535   4.689   1.453 -0.6981  0.0962 -1.0936
 8287SOL     OW25759   2.297   6.163   5.010  0.0621  0.5467 -0.1112
 8287SOL    HW125760   2.388   6.148   5.047 -0.1408  0.3371  0.3084
 8287SOL    HW225761   2.295   6.136   4.914  0.6073  1.1513 -0.3019
 8288SOL     OW25762   2.726   1.799   3.031  0.3338  0.4698  0.3438
 8288SOL    HW125763   2.676   1.865   2.976  0.0153  0.0728  0.1571
 8288SOL    HW225764   2.722   1.709   2.988  1.8521  0.5813 -0.0844
 8289SOL     OW25765   0.903   0.515   1.271  0.2688 -0.1092  0.0762
 8289SOL    HW125766   0.835   0.493   1.342  1.3164  0.9699  1.4540
 8289SOL    HW225767   0.993   0.486   1.302  0.6406 -0.3852 -1.2130
 8290SOL     OW25768   5.408   1.987   4.149 -0.4204 -0.3471  0.1840
 8290SOL    HW125769   5.483   1.974   4.084 -1.1191  1.1220 -0.9784
 8290SOL    HW225770   5.382   2.083   4.152 -0.3125 -0.3380  2.8247
 8291SOL     OW25771   3.870   0.505   2.251 -0.2062  0.2109 -0.0238
 8291SOL    HW125772   3.855   0.407   2.264 -1.6344  0.2943 -0.8516
 8291SOL    HW225773   3.880   0.550   2.339 -1.9197 -0.3392  0.4805
 8292SOL     OW25774   3.067   1.248   4.881 -0.4088  0.7228 -0.2172
 8292SOL    HW125775   3.048   1.295   4.968  1.4447 -0.6163  0.9882
 8292SOL    HW225776   3.163   1.262   4.856 -0.6409  0.1556 -1.4733
 8293SOL     OW25777   4.813   6.465   4.470  0.0128  0.2145 -0.3167
 8293SOL    HW125778   4.860   6.535   4.523  1.1171  0.6287 -1.7609
 8293SOL    HW225779   4.719   6.494   4.452  1.0286  2.4687 -2.7046
 8294SOL     OW25780   5.761   2.481   0.782 -0.0033 -0.3892  0.0207
 8294SOL    HW125781   5.718   2.572   0.784 -2.0530 -1.3031 -0.3273
 8294SOL    HW225782   5.860   2.491   0.794 -0.3036  1.7922  1.1185
 8295SOL     OW25783   6.040   1.762   0.590 -0.3420 -0.1907  0.2798
 8295SOL    HW125784   6.041   1.732   0.495 -0.4422  1.3667 -0.2447
 8295SOL    HW225785   5.963   1.825   0.604 -1.0490 -1.3104  1.7070
 8296SOL     OW25786   0.886   5.685   4.435 -0.7607  0.4047  0.0962
 8296SOL    HW125787   0.836   5.635   4.505  0.1641 -0.8705 -0.1197
 8296SOL    HW225788   0.860   5.650   4.344  0.3327 -0.1361 -0.0280
 8297SOL     OW25789   2.336   2.827   4.378  0.4468 -0.0583 -0.2684
 8297SOL    HW125790   2.387   2.748   4.344  2.1392  0.8139  0.1569
 8297SOL    HW225791   2.314   2.887   4.301 -0.3460 -0.6361 -0.5108
 8298SOL     OW25792   4.435   2.466   4.539  0.0906  0.4492 -0.4094
 8298SOL    HW125793   4.352   2.421   4.573  1.0858 -1.3582 -0.2246
 8298SOL    HW225794   4.477   2.520   4.612  0.4564 -0.7613  0.2968
 8299SOL     OW25795   5.099   0.461   1.911 -0.0095 -0.1282  0.0524
 8299SOL    HW125796   5.014   0.429   1.951 -0.0484  0.9007  0.7985
 8299SOL    HW225797   5.087   0.473   1.812 -0.8524  0.4560  0.2258
 8300SOL     OW25798   1.706   6.471   2.197  0.0547 -0.5005 -0.2512
 8300SOL    HW125799   1.760   6.556   2.196 -0.5098 -0.1354 -0.3297
 8300SOL    HW225800   1.727   6.417   2.115  0.9506 -0.7813  0.1575
 8301SOL     OW25801   3.562   1.273   4.176  0.0517  0.1022  0.0004
 8301SOL    HW125802   3.470   1.273   4.137 -0.4606  1.9275  1.0529
 8301SOL    HW225803   3.616   1.347   4.134  0.3633  0.3491  0.8128
 8302SOL     OW25804   5.550   3.766   5.578  0.0324  0.2627 -0.0099
 8302SOL    HW125805   5.620   3.837   5.577  1.4330 -1.0655 -1.8175
 8302SOL    HW225806   5.494   3.773   5.495 -0.8311  0.1866  0.5504
 8303SOL     OW25807   4.271   6.249   0.449  0.9237  0.1897  0.8685
 8303SOL    HW125808   4.298   6.296   0.366  2.3405  1.3084  1.9136
 8303SOL    HW225809   4.320   6.162   0.455  0.9770  0.2038  0.6390
 8304SOL     OW25810   0.798   3.782   5.927  1.0476  0.3241 -0.3526
 8304SOL    HW125811   0.779   3.870   5.971  0.6652 -0.8409  1.9492
 8304SOL    HW225812   0.727   3.763   5.859  1.1609  1.7850 -0.9164
 8305SOL     OW25813   2.074   5.886   1.863  0.3094  0.0004  0.1961
 8305SOL    HW125814   2.145   5.956   1.856  0.5994 -0.3056  0.0987
 8305SOL    HW225815   2.083   5.838   1.950  0.4264 -0.2618  0.0398
 8306SOL     OW25816   1.756   1.612   3.983 -0.4241  0.3893  0.2761
 8306SOL    HW125817   1.778   1.531   4.037 -0.2795 -0.5766 -1.1576
 8306SOL    HW225818   1.700   1.674   4.037  0.1445 -0.2859  1.6848
 8307SOL     OW25819   4.698   5.707   1.997  0.1040 -0.0177 -0.0257
 8307SOL    HW125820   4.764   5.694   1.923 -0.7497  0.2858 -0.8657
 8307SOL    HW225821   4.679   5.619   2.041  0.7528 -0.1696 -0.0404
 8308SOL     OW25822   3.651   0.312   1.728  0.3830 -0.4637 -0.0034
 8308SOL    HW125823   3.602   0.226   1.747  1.9633 -1.5869 -0.8147
 8308SOL    HW225824   3.599   0.365   1.661 -1.7105  0.2984  2.0731
 8309SOL     OW25825   6.563   5.616   1.531 -0.0572  0.3273 -0.0764
 8309SOL    HW125826   6.539   5.651   1.440 -1.7788 -0.6082 -0.0355
 8309SOL    HW225827   6.609   5.527   1.521 -0.6557  0.0085 -0.0322
 8310SOL     OW25828   6.576   3.852   4.708 -0.2569  0.1869  0.3374
 8310SOL    HW125829   6.561   3.849   4.807 -1.1955 -1.8541  0.1952
 8310SOL    HW225830   6.502   3.802   4.662  0.5555  0.4690 -1.3387
 8311SOL     OW25831   0.605   1.982   4.615 -0.2134  0.0074  0.6042
 8311SOL    HW125832   0.677   2.045   4.587  0.4023 -1.6780 -1.9246
 8311SOL    HW225833   0.515   2.025   4.601  0.1540  0.0081 -2.1724
 8312SOL     OW25834   6.380   0.427   2.959 -0.6516  0.1613 -0.2859
 8312SOL    HW125835   6.446   0.352   2.956 -0.2615  0.5142 -0.5677
 8312SOL    HW225836   6.429   0.514   2.958 -1.1273  0.4242 -0.5759
 8313SOL     OW25837   3.992   2.135   0.867 -0.3687  0.3479  0.0721
 8313SOL    HW125838   4.054   2.060   0.845 -1.1675 -1.7901  4.0916
 8313SOL    HW225839   3.898   2.107   0.847 -0.5024  1.3730 -0.8062
 8314SOL     OW25840   1.109   6.398   4.761  0.1541  0.5737  0.0505
 8314SOL    HW125841   1.091   6.313   4.810 -2.8691  0.7259 -0.5825
 8314SOL    HW225842   1.102   6.475   4.824  2.4324  0.4627  0.5270
 8315SOL     OW25843   5.636   2.707   0.846  0.1183  0.1584  0.0623
 8315SOL    HW125844   5.676   2.770   0.912  0.2291 -0.1820  0.3252
 8315SOL    HW225845   5.580   2.639   0.894  0.4555 -0.2840 -0.1544
 8316SOL     OW25846   4.153   5.816   0.393  0.0542 -0.1222  0.2440
 8316SOL    HW125847   4.114   5.762   0.319 -0.2376  1.3996 -0.7602
 8316SOL    HW225848   4.180   5.906   0.358 -1.6780  1.3113  2.3084
 8317SOL     OW25849   1.702   4.014   1.701 -0.2108 -0.0656  0.6400
 8317SOL    HW125850   1.758   3.959   1.640 -1.3942  0.0938 -0.6438
 8317SOL    HW225851   1.605   3.996   1.683 -0.6379 -1.0200  3.4095
 8318SOL     OW25852   1.764   0.680   6.648  0.1724 -0.0910 -0.4408
 8318SOL    HW125853   1.756   0.635   6.560  1.4249  0.4183 -0.8467
 8318SOL    HW225854   1.675   0.685   6.692 -0.4889 -0.2497 -1.7275
 8319SOL     OW25855   2.662   0.255   4.571  0.1593 -0.1571 -0.0285
 8319SOL    HW125856   2.683   0.196   4.493  1.0893  1.2123 -0.8420
 8319SOL    HW225857   2.740   0.314   4.591 -0.2673 -0.0980  1.6119
 8320SOL     OW25858   5.762   4.316   1.078 -0.5756 -0.0296 -0.7192
 8320SOL    HW125859   5.791   4.391   1.018 -0.5029  1.0097  0.5417
 8320SOL    HW225860   5.676   4.279   1.045 -2.1801  2.5946  0.1592
 8321SOL     OW25861   6.691   2.662   0.052 -0.3271  0.8990  0.3065
 8321SOL    HW125862   6.619   2.597   0.075  1.9155 -2.1308 -0.6040
 8321SOL    HW225863   6.709   2.659  -0.046  1.6730  0.7874  0.6360
 8322SOL     OW25864   4.058   7.005   0.780 -0.2956  0.4255  0.3657
 8322SOL    HW125865   3.964   7.029   0.801 -0.0913  1.3173  0.3310
 8322SOL    HW225866   4.065   6.908   0.758 -1.3751  0.5564 -0.6399
 8323SOL     OW25867   2.384   6.137   0.094 -0.2760 -0.1458  0.0957
 8323SOL    HW125868   2.300   6.138   0.040 -1.1404  0.9159  1.3728
 8323SOL    HW225869   2.433   6.223   0.079 -0.1364 -0.1692  0.4195
 8324SOL     OW25870   6.604   0.222   0.847  0.0830 -0.0663 -0.0093
 8324SOL    HW125871   6.537   0.273   0.901 -0.6150 -0.1534 -0.7843
 8324SOL    HW225872   6.592   0.244   0.750  1.2344 -0.0187 -0.1513
 8325SOL     OW25873   3.246   3.991   4.620  0.3643  0.4638 -0.4107
 8325SOL    HW125874   3.173   4.017   4.557  0.7166  1.2173 -0.5253
 8325SOL    HW225875   3.233   3.897   4.650 -0.2755  0.3737 -0.9552
 8326SOL     OW25876   4.169   2.584   6.621  1.0498  0.0273  0.0701
 8326SOL    HW125877   4.215   2.543   6.700  0.6244 -0.6099 -0.0025
 8326SOL    HW225878   4.095   2.524   6.591  0.1665  1.0330  0.1789
 8327SOL     OW25879   3.041   2.056   0.772  0.0959  0.6955 -0.2398
 8327SOL    HW125880   2.994   2.033   0.686 -1.1881  1.3097  0.2645
 8327SOL    HW225881   2.978   2.107   0.831  0.0807 -1.8773  2.1569
 8328SOL     OW25882   2.741   1.691   3.287 -0.2491  0.6123  0.0157
 8328SOL    HW125883   2.685   1.740   3.354 -0.5573  0.5043 -0.1583
 8328SOL    HW225884   2.740   1.740   3.200  0.9283  1.2600  0.3470
 8329SOL     OW25885   0.761   4.323   6.585  0.0531 -0.1324  0.1821
 8329SOL    HW125886   0.665   4.328   6.612 -0.2185 -0.3624 -0.7052
 8329SOL    HW225887   0.819   4.342   6.664 -0.7192 -0.0580  0.7413
 8330SOL     OW25888   1.114   0.271   5.749 -0.6333 -0.3141  0.0061
 8330SOL    HW125889   1.199   0.286   5.699  0.4112 -0.5192  1.6492
 8330SOL    HW225890   1.070   0.187   5.717 -0.3854 -0.0540 -1.0509
 8331SOL     OW25891   3.869   5.360   1.134 -0.2440  0.0257 -0.5858
 8331SOL    HW125892   3.835   5.329   1.223 -0.0542 -1.2006 -0.9197
 8331SOL    HW225893   3.829   5.449   1.113  0.7215  0.9730  1.3038
 8332SOL     OW25894   0.059   5.357   3.235  0.1716 -0.6073 -0.4160
 8332SOL    HW125895   0.060   5.456   3.250 -1.4237 -0.6073 -0.1636
 8332SOL    HW225896   0.150   5.319   3.256  1.0064  0.8745 -1.1818
 8333SOL     OW25897   1.549   4.510   6.980 -0.2404  0.3673  0.0549
 8333SOL    HW125898   1.621   4.468   7.034 -0.1614 -0.2053 -0.4933
 8333SOL    HW225899   1.565   4.609   6.974  0.2838  0.2968  0.2483
 8334SOL     OW25900   0.429   0.410   2.437 -0.2109 -0.0366 -0.1015
 8334SOL    HW125901   0.441   0.330   2.379  0.3147  0.6513 -0.9730
 8334SOL    HW225902   0.470   0.393   2.527 -1.6276 -1.3614  0.3289
 8335SOL     OW25903   5.277   0.291   3.935 -0.5458  0.0219 -0.1986
 8335SOL    HW125904   5.208   0.336   3.878 -1.4903  2.3677  2.5585
 8335SOL    HW225905   5.365   0.292   3.888 -1.0588  2.6820 -1.2570
 8336SOL     OW25906   2.438   2.150   0.761  0.0698 -0.2063  0.2145
 8336SOL    HW125907   2.430   2.148   0.861 -0.0759  2.4521  0.3443
 8336SOL    HW225908   2.519   2.202   0.735 -0.0293 -0.6577 -1.0535
 8337SOL     OW25909   6.024   6.881   1.950 -0.1469 -0.1396  0.0209
 8337SOL    HW125910   6.101   6.898   1.889 -0.1493 -0.0143  0.0515
 8337SOL    HW225911   5.968   6.807   1.914 -0.5795  0.4436 -0.5352
 8338SOL     OW25912   2.769   7.012   0.991 -0.1851  0.3336 -0.2785
 8338SOL    HW125913   2.698   7.064   0.943 -0.4267 -0.6303 -1.0054
 8338SOL    HW225914   2.777   6.921   0.949  0.7815  0.0736  0.4455
 8339SOL     OW25915   5.858   0.454   3.712  0.4336 -0.2793 -0.0930
 8339SOL    HW125916   5.775   0.507   3.728  1.0910  0.1780  2.1349
 8339SOL    HW225917   5.921   0.467   3.789  3.6158  1.2921 -2.7145
 8340SOL     OW25918   6.603   5.586   2.228  0.4581 -0.0947 -0.1177
 8340SOL    HW125919   6.700   5.577   2.206  0.8614  0.7534  1.1774
 8340SOL    HW225920   6.551   5.512   2.185  2.0571 -2.1354  1.2980
 8341SOL     OW25921   2.382   0.033   6.855 -0.3811 -0.1826 -0.2264
 8341SOL    HW125922   2.422  -0.055   6.879 -0.2717 -0.5083 -1.5286
 8341SOL    HW225923   2.387   0.095   6.934  0.0970 -1.1304  0.5061
 8342SOL     OW25924   6.545   5.700   0.176 -0.2601  0.1724  0.0200
 8342SOL    HW125925   6.597   5.628   0.223  1.0553 -0.1160 -1.7705
 8342SOL    HW225926   6.467   5.659   0.128  0.0123  0.0568 -0.3260
 8343SOL     OW25927   0.669   6.476   3.883  0.0911 -0.5163 -0.1273
 8343SOL    HW125928   0.604   6.504   3.954 -0.6944 -1.2458 -0.5398
 8343SOL    HW225929   0.665   6.377   3.871  1.0966 -0.5414 -0.3504
 8344SOL     OW25930   4.510   6.559   3.684 -0.1864 -0.1562 -0.2589
 8344SOL    HW125931   4.443   6.488   3.703  0.3760 -0.3657  1.0476
 8344SOL    HW225932   4.493   6.598   3.593 -1.4927 -0.8268 -0.3197
 8345SOL     OW25933   5.656   2.279   1.742 -0.5311  0.5017 -0.1696
 8345SOL    HW125934   5.599   2.210   1.785 -0.7547  0.9525  0.2638
 8345SOL    HW225935   5.752   2.253   1.749 -0.5968  0.3701  0.2301
 8346SOL     OW25936   2.131   5.490   1.571  0.0545  0.1082  0.2990
 8346SOL    HW125937   2.189   5.416   1.603 -0.1609  0.3273  1.2366
 8346SOL    HW225938   2.037   5.457   1.558 -0.0250  0.1966  0.6433
 8347SOL     OW25939   2.944   6.745   3.438  0.7042  0.4730  0.4485
 8347SOL    HW125940   3.016   6.686   3.403  1.9575  0.9460  2.0820
 8347SOL    HW225941   2.980   6.801   3.513 -1.9222 -0.9665  2.9920
 8348SOL     OW25942   2.806   6.741   5.498  0.0461  0.0073 -0.1666
 8348SOL    HW125943   2.898   6.742   5.459 -0.4444 -0.4167 -1.3532
 8348SOL    HW225944   2.738   6.740   5.425 -0.8901 -1.5020  0.6859
 8349SOL     OW25945   6.776   4.862   3.578  0.0549 -0.0430 -0.1645
 8349SOL    HW125946   6.714   4.791   3.545 -1.1272  1.1477 -0.6051
 8349SOL    HW225947   6.783   4.935   3.509  0.0051  0.9974  0.8910
 8350SOL     OW25948   0.150   1.629   4.762 -0.6804  0.1402  0.0370
 8350SOL    HW125949   0.088   1.657   4.689 -0.6309  1.1319  0.3548
 8350SOL    HW225950   0.096   1.601   4.842 -0.7861 -2.7040 -0.9390
 8351SOL     OW25951   4.027   0.178   2.049  0.6273  0.5936 -0.2615
 8351SOL    HW125952   3.986   0.251   1.994  1.1224  1.4092  0.4356
 8351SOL    HW225953   3.958   0.107   2.066  0.1977  0.7821 -1.1125
 8352SOL     OW25954   1.010   5.782   0.893 -0.0177 -0.5483 -0.3706
 8352SOL    HW125955   1.043   5.696   0.855  0.8820 -0.6859  0.6686
 8352SOL    HW225956   1.040   5.858   0.834 -0.2036 -0.8820 -0.9047
 8353SOL     OW25957   1.791   3.692   2.366 -0.2539 -0.4243 -0.0545
 8353SOL    HW125958   1.737   3.775   2.380  1.0194  0.3135  0.6194
 8353SOL    HW225959   1.753   3.640   2.288 -1.6188  0.3006  0.0987
 8354SOL     OW25960   2.367   5.042   0.467  0.3161  0.3470  0.2251
 8354SOL    HW125961   2.350   4.958   0.415 -1.1958  0.9189 -0.2514
 8354SOL    HW225962   2.460   5.074   0.448  1.1693 -1.5588  0.9406
 8355SOL     OW25963   1.195   3.506   0.141  0.7537 -0.7504 -0.2724
 8355SOL    HW125964   1.128   3.500   0.068 -0.1017  1.3853  0.2566
 8355SOL    HW225965   1.263   3.576   0.118 -1.8280  3.0801  2.5333
 8356SOL     OW25966   1.288   4.160   0.774  0.3663 -0.2883 -0.2784
 8356SOL    HW125967   1.220   4.166   0.700  1.0737 -0.1260 -0.9316
 8356SOL    HW225968   1.248   4.194   0.859  0.0310  1.0162 -0.9304
 8357SOL     OW25969   4.208   5.557   1.845  0.4225  0.6941  0.5009
 8357SOL    HW125970   4.179   5.650   1.821  0.8228  1.2942  2.1944
 8357SOL    HW225971   4.130   5.505   1.878  0.2244  0.4549 -0.3200
 8358SOL     OW25972   2.669   6.712   5.755 -0.3011 -0.2260 -0.0875
 8358SOL    HW125973   2.685   6.750   5.664 -4.5391  3.0260  0.2487
 8358SOL    HW225974   2.711   6.771   5.824  1.8503 -2.0228  0.2594
 8359SOL     OW25975   4.727   6.949   4.967  0.1330 -0.6855 -0.3265
 8359SOL    HW125976   4.751   6.925   5.061  0.6384 -1.4538 -0.6459
 8359SOL    HW225977   4.674   7.035   4.968  1.7348  0.3543  0.5013
 8360SOL     OW25978   5.049   1.349   4.676 -0.2450 -0.3289  0.6638
 8360SOL    HW125979   4.967   1.311   4.634  2.1430  0.6013 -6.0115
 8360SOL    HW225980   5.028   1.438   4.716 -2.6189 -0.4982 -0.0633
 8361SOL     OW25981   1.598   1.689   2.045  0.4014 -0.0539  0.5033
 8361SOL    HW125982   1.657   1.651   2.115 -2.0291 -0.6834  2.3460
 8361SOL    HW225983   1.618   1.646   1.957  2.5424 -0.2871  1.0449
 8362SOL     OW25984   3.716   2.618   6.400 -0.7130 -0.5293  0.2090
 8362SOL    HW125985   3.791   2.584   6.344 -0.1990  1.0616 -0.1100
 8362SOL    HW225986   3.751   2.644   6.490 -0.9700 -0.1780  0.2062
 8363SOL     OW25987   1.841   2.897   6.340 -0.0894 -0.3232 -0.0598
 8363SOL    HW125988   1.818   2.956   6.417 -0.8881 -1.1663  0.3680
 8363SOL    HW225989   1.823   2.946   6.254  3.4080  1.6704  0.1576
 8364SOL     OW25990   1.019   5.765   4.976 -1.1721  0.5999  0.1614
 8364SOL    HW125991   0.964   5.814   5.044 -0.0431  0.4195  1.2326
 8364SOL    HW225992   1.092   5.715   5.022 -0.4428  0.3829 -1.1932
 8365SOL     OW25993   1.691   2.416   5.115 -0.3626 -0.1641  0.2457
 8365SOL    HW125994   1.739   2.447   5.198  0.3045  1.0408 -0.5621
 8365SOL    HW225995   1.605   2.466   5.106 -0.1120  0.1954 -0.1476
 8366SOL     OW25996   2.505   0.152   3.015  0.2155  0.6621 -0.3973
 8366SOL    HW125997   2.478   0.103   2.932  2.2230 -0.6497 -0.3436
 8366SOL    HW225998   2.605   0.154   3.022  0.1117  0.6983  2.0117
 8367SOL     OW25999   6.431   6.074   3.210 -0.1275  0.1797 -0.4706
 8367SOL    HW126000   6.508   6.035   3.159 -0.6035 -1.3672 -0.0559
 8367SOL    HW226001   6.351   6.014   3.200 -1.0582  1.3597 -0.2590
 8368SOL     OW26002   2.487   0.335   5.747 -0.9852  0.3586  0.0405
 8368SOL    HW126003   2.543   0.254   5.761 -1.3208  0.2892  1.1330
 8368SOL    HW226004   2.413   0.336   5.815  0.4488  2.8328  1.7217
 8369SOL     OW26005   2.950   1.935   1.750 -0.1625  0.0729 -0.0592
 8369SOL    HW126006   3.017   2.008   1.735 -0.6324  0.2428 -1.5421
 8369SOL    HW226007   2.860   1.975   1.764 -0.1226 -0.1873  1.0356
 8370SOL     OW26008   3.131   0.420   1.136  0.0289 -0.1067 -0.2719
 8370SOL    HW126009   3.146   0.356   1.211  0.4963 -0.5239 -0.7138
 8370SOL    HW226010   3.150   0.375   1.049 -0.7763  0.2881 -0.6682
 8371SOL     OW26011   0.762   2.281   3.769 -0.0826  0.5184  0.2199
 8371SOL    HW126012   0.673   2.293   3.814  0.1200  0.7189  0.5718
 8371SOL    HW226013   0.827   2.241   3.834 -0.4648 -1.6041 -0.6239
 8372SOL     OW26014   3.678   6.440   6.761 -0.0936  0.1140  0.2167
 8372SOL    HW126015   3.618   6.509   6.721  1.4828  1.3507 -0.1522
 8372SOL    HW226016   3.623   6.368   6.804 -1.8062  1.2917  0.1057
 8373SOL     OW26017   0.705   0.492   4.264 -0.0050  0.3271 -0.2337
 8373SOL    HW126018   0.747   0.467   4.176  2.0468  1.8728  0.2187
 8373SOL    HW226019   0.613   0.528   4.248  0.1310  0.0974 -1.6971
 8374SOL     OW26020   0.681   1.427   5.098  0.2517  0.1840  0.3694
 8374SOL    HW126021   0.684   1.327   5.100 -0.1852  0.0968 -1.2994
 8374SOL    HW226022   0.623   1.460   5.172  0.2175 -0.8062  0.8012
 8375SOL     OW26023   3.337   0.126   6.759  0.2679  0.4665 -0.0401
 8375SOL    HW126024   3.380   0.216   6.761  2.8658 -0.6347 -1.7670
 8375SOL    HW226025   3.388   0.063   6.817  0.1410 -0.5538 -1.0092
 8376SOL     OW26026   5.418   0.179   4.460  0.2835  0.2139 -0.3933
 8376SOL    HW126027   5.345   0.150   4.522  0.7563 -0.7577 -0.2842
 8376SOL    HW226028   5.380   0.197   4.369 -0.3386  1.2191  0.0535
 8377SOL     OW26029   5.543   4.721   5.818  0.3080 -0.3785 -0.2584
 8377SOL    HW126030   5.469   4.774   5.776 -0.3748 -1.5169 -0.5204
 8377SOL    HW226031   5.576   4.770   5.900  0.2264  0.8151 -0.9143
 8378SOL     OW26032   5.235   4.871   3.062  0.5128  0.1271  0.1858
 8378SOL    HW126033   5.161   4.896   3.124  1.2192 -2.4952  2.2514
 8378SOL    HW226034   5.210   4.790   3.010  1.9250 -0.8594  0.9870
 8379SOL     OW26035   5.987   3.004   3.166 -0.0488  0.1310 -0.4394
 8379SOL    HW126036   6.054   2.946   3.120  1.2998  2.3318 -1.4119
 8379SOL    HW226037   6.019   3.025   3.258  0.8247  1.4576 -1.0212
 8380SOL     OW26038   4.987   0.585   3.186 -0.9137 -0.3665  0.3024
 8380SOL    HW126039   5.043   0.503   3.194 -1.2996 -0.5774  0.8588
 8380SOL    HW226040   5.016   0.637   3.105  0.2048 -0.3677  0.6878
 8381SOL     OW26041   6.877   4.216   4.950 -0.3226 -0.4184 -0.1921
 8381SOL    HW126042   6.928   4.291   4.992 -0.1934  0.4832 -1.8813
 8381SOL    HW226043   6.936   4.167   4.887  0.2286 -3.3236  2.3373
 8382SOL     OW26044   1.438   4.101   3.431 -0.2634  0.1687 -0.6321
 8382SOL    HW126045   1.452   4.056   3.342  1.6738 -0.1076 -0.2364
 8382SOL    HW226046   1.526   4.134   3.465 -1.3881  2.8535 -0.1432
 8383SOL     OW26047   2.377   1.402   6.082 -0.2513 -0.1926  0.4478
 8383SOL    HW126048   2.373   1.307   6.053  0.5517  0.4520 -1.9437
 8383SOL    HW226049   2.287   1.445   6.070 -0.6240 -0.6070  1.5641
 8384SOL     OW26050   1.576   1.927   0.256 -0.3520 -0.3400  0.4865
 8384SOL    HW126051   1.530   1.865   0.320  1.4338 -2.0984  0.1558
 8384SOL    HW226052   1.645   1.980   0.304 -0.1004 -0.5066  0.3129
 8385SOL     OW26053   4.286   1.702   2.410 -0.1417 -0.3689 -0.3258
 8385SOL    HW126054   4.334   1.719   2.496 -0.1070  1.6601 -0.6964
 8385SOL    HW226055   4.328   1.625   2.363  2.3159  0.8341 -0.2802
 8386SOL     OW26056   6.990   3.100   1.566 -0.0144 -0.4143 -0.5364
 8386SOL    HW126057   7.077   3.067   1.530  1.3177 -0.5053  2.4205
 8386SOL    HW226058   6.984   3.077   1.663 -1.9947  2.2412  0.0903
 8387SOL     OW26059   0.592   4.192   2.942  0.1808  0.6467  0.6051
 8387SOL    HW126060   0.613   4.268   2.881 -0.5041  1.5544  1.4605
 8387SOL    HW226061   0.602   4.106   2.893 -1.7208  1.3849 -1.2456
 8388SOL     OW26062   6.921   0.939   2.097  0.0825 -0.3675  0.1299
 8388SOL    HW126063   6.938   0.848   2.060  0.5296  0.2568 -1.2962
 8388SOL    HW226064   6.827   0.967   2.077 -0.8015 -1.3645  2.5532
 8389SOL     OW26065   5.945   4.983   4.076  0.0474 -0.6224  0.4870
 8389SOL    HW126066   5.845   4.988   4.079 -0.1120 -2.6255 -0.4978
 8389SOL    HW226067   5.982   5.033   4.155 -1.5983  2.0460 -0.2905
 8390SOL     OW26068   4.176   4.244   6.432  0.1434 -0.0208 -0.2030
 8390SOL    HW126069   4.247   4.188   6.475 -0.4181 -0.9008 -0.3907
 8390SOL    HW226070   4.208   4.278   6.344  0.8177  0.7058  0.3134
 8391SOL     OW26071   4.958   2.094   0.397  0.2340  0.4069 -0.5843
 8391SOL    HW126072   4.979   2.169   0.335  0.8814  0.5056 -0.2428
 8391SOL    HW226073   5.039   2.038   0.411  0.4728  1.1486  1.2333
 8392SOL     OW26074   3.773   2.929   4.491 -0.0232  0.4714  0.5791
 8392SOL    HW126075   3.817   3.004   4.540 -1.1894  2.0141 -0.6116
 8392SOL    HW226076   3.794   2.936   4.393 -1.8951  0.5829  0.1318
 8393SOL     OW26077   6.545   0.132   0.591 -0.4087 -0.0684  0.3603
 8393SOL    HW126078   6.453   0.148   0.555 -0.8595  0.7280  1.8113
 8393SOL    HW226079   6.578   0.042   0.560 -0.8100  0.4948 -1.8754
 8394SOL     OW26080   4.775   4.059   2.035  0.0080 -0.0946  0.4453
 8394SOL    HW126081   4.714   4.136   2.018  0.6508  0.4945  0.7586
 8394SOL    HW226082   4.791   4.010   1.950  2.2802  2.1286 -0.5430
 8395SOL     OW26083   1.400   1.906   5.488 -0.4933 -0.1089  0.4681
 8395SOL    HW126084   1.327   1.884   5.554 -0.2431 -1.4627  0.3176
 8395SOL    HW226085   1.474   1.839   5.496  0.1205  0.4516 -0.3277
 8396SOL     OW26086   4.345   5.737   5.276  0.3943  0.2503  0.0988
 8396SOL    HW126087   4.256   5.695   5.293  0.0571  0.6959 -0.5046
 8396SOL    HW226088   4.385   5.698   5.192  0.7586  0.0711  0.3512
 8397SOL     OW26089   5.995   5.339   3.528  0.1410 -0.2138 -0.1990
 8397SOL    HW126090   5.918   5.276   3.518 -1.6575  1.5019  1.6912
 8397SOL    HW226091   6.058   5.303   3.596 -0.6688 -0.2160  0.5791
 8398SOL     OW26092   6.014   2.570   6.650  0.6851 -0.5376  0.3089
 8398SOL    HW126093   5.948   2.575   6.575  0.1773 -0.8346  0.7288
 8398SOL    HW226094   6.104   2.601   6.618 -0.0380  1.5561  0.1802
 8399SOL     OW26095   0.982   4.109   3.138  0.3538 -0.0807 -0.3991
 8399SOL    HW126096   0.892   4.151   3.129 -0.1867 -0.6868  1.6359
 8399SOL    HW226097   1.017   4.125   3.231  2.1849 -0.1991 -1.0204
 8400SOL     OW26098   0.450   0.786   4.785  0.2119  0.1391  0.4987
 8400SOL    HW126099   0.481   0.769   4.691  0.4162 -1.6406  0.8719
 8400SOL    HW226100   0.439   0.885   4.798  2.5039  0.6168 -0.6522
 8401SOL     OW26101   6.062   1.137   0.330 -0.0365 -0.0396 -0.0103
 8401SOL    HW126102   6.104   1.127   0.420 -0.6879 -0.9212  0.2115
 8401SOL    HW226103   6.063   1.049   0.283  1.6654  0.7248 -1.5088
 8402SOL     OW26104   2.461   1.172   4.255  0.0756 -0.0526  0.2569
 8402SOL    HW126105   2.398   1.095   4.254 -0.2811  0.2407 -0.6394
 8402SOL    HW226106   2.478   1.203   4.161  0.0981  1.0499  0.6049
 8403SOL     OW26107   1.103   4.325   5.757 -0.3936  0.4505  0.3463
 8403SOL    HW126108   1.030   4.342   5.691 -1.4037 -0.7016  1.1153
 8403SOL    HW226109   1.181   4.283   5.711 -1.3720 -1.0361 -0.0356
 8404SOL     OW26110   1.979   3.424   0.636  0.0484 -0.4075 -0.3552
 8404SOL    HW126111   1.939   3.333   0.651  0.5276 -0.8759 -1.7830
 8404SOL    HW226112   2.052   3.439   0.703  0.9799 -1.7183 -1.0320
 8405SOL     OW26113   2.717   5.891   0.381  0.2421 -0.0894 -0.1260
 8405SOL    HW126114   2.765   5.924   0.462  0.5508  0.6606 -0.6091
 8405SOL    HW226115   2.694   5.794   0.394 -0.1280  0.1387  1.0456
 8406SOL     OW26116   6.168   2.395   6.397 -0.7090  0.0013 -0.1458
 8406SOL    HW126117   6.143   2.452   6.319  0.5499 -0.0596 -0.6143
 8406SOL    HW226118   6.109   2.314   6.399 -0.8509  0.0750 -0.9549
 8407SOL     OW26119   4.876   0.815   6.254 -0.2490 -0.4182  0.1596
 8407SOL    HW126120   4.791   0.840   6.301 -0.6525 -1.6127  0.0812
 8407SOL    HW226121   4.867   0.725   6.212 -0.0038  0.7177 -2.5337
 8408SOL     OW26122   4.948   1.548   0.893 -0.3108 -0.6070 -0.5794
 8408SOL    HW126123   5.008   1.602   0.834 -1.4460  0.8327 -0.4603
 8408SOL    HW226124   4.997   1.525   0.977  0.5210 -0.6264 -1.0590
 8409SOL     OW26125   4.178   1.036   2.604  0.3903  0.4572 -0.3192
 8409SOL    HW126126   4.116   1.009   2.530 -1.3305  0.1263  1.1667
 8409SOL    HW226127   4.127   1.090   2.672  1.5082 -0.5365  1.3751
 8410SOL     OW26128   5.740   2.026   0.959  0.3615 -1.1300  0.2700
 8410SOL    HW126129   5.725   1.962   0.883 -0.9504 -1.9678  1.1789
 8410SOL    HW226130   5.804   2.097   0.931 -1.0849 -0.6452 -2.0648
 8411SOL     OW26131   3.011   6.917   2.349  0.0120 -0.1204 -0.0332
 8411SOL    HW126132   2.952   6.846   2.387  0.2417 -0.4908 -0.3717
 8411SOL    HW226133   3.006   6.999   2.407 -0.3752 -0.3530  0.2647
 8412SOL     OW26134   2.645   3.088   0.337  0.1787 -0.6243 -0.4279
 8412SOL    HW126135   2.646   3.007   0.279  0.0698 -0.5901 -0.4778
 8412SOL    HW226136   2.572   3.149   0.307  1.6972  0.5765 -1.9015
 8413SOL     OW26137   4.183   5.576   4.854 -0.2928 -0.1969 -0.0178
 8413SOL    HW126138   4.191   5.627   4.767 -1.8510  3.2895  1.6825
 8413SOL    HW226139   4.090   5.583   4.888  0.6222 -0.0551  2.6931
 8414SOL     OW26140   1.735   1.230   0.573  0.5566  0.5860 -0.4848
 8414SOL    HW126141   1.716   1.275   0.486 -1.4822  2.6828  0.9582
 8414SOL    HW226142   1.787   1.291   0.632 -2.3963  1.3342  1.5757
 8415SOL     OW26143   4.605   1.681   5.756  0.2684 -0.1260  0.0158
 8415SOL    HW126144   4.557   1.708   5.840  0.1976  0.8647 -0.3329
 8415SOL    HW226145   4.702   1.664   5.777  0.4820  1.1281  0.1327
 8416SOL     OW26146   2.267   2.323   5.413 -0.3812  0.3455 -0.2076
 8416SOL    HW126147   2.270   2.281   5.323 -0.0305 -0.5855  0.2218
 8416SOL    HW226148   2.345   2.292   5.468 -1.1390  0.0720  0.7563
 8417SOL     OW26149   1.499   2.512   5.518 -0.2734 -0.2226  0.4245
 8417SOL    HW126150   1.454   2.467   5.595 -0.2395  0.3623  0.7915
 8417SOL    HW226151   1.487   2.611   5.526  1.0913 -0.0433  0.5510
 8418SOL     OW26152   0.932   0.088   2.752  0.0654 -0.0051  0.0244
 8418SOL    HW126153   0.996   0.165   2.759 -0.2385  0.2570 -0.0304
 8418SOL    HW226154   0.902   0.079   2.657 -1.3224  0.9876  0.3393
 8419SOL     OW26155   2.325   2.757   4.902 -0.1607 -0.2515 -0.1094
 8419SOL    HW126156   2.295   2.766   4.807 -2.9060  0.0454  0.6968
 8419SOL    HW226157   2.346   2.848   4.939 -0.8312 -0.1567  0.0547
 8420SOL     OW26158   4.587   2.651   2.598  0.2032 -0.2959 -0.4816
 8420SOL    HW126159   4.613   2.708   2.520  0.6700 -1.1533 -0.9755
 8420SOL    HW226160   4.555   2.562   2.565 -0.1737 -0.4558  0.2852
 8421SOL     OW26161   5.467   6.835   6.793 -0.1345 -0.3853 -0.2675
 8421SOL    HW126162   5.382   6.884   6.813 -0.9845 -1.7948 -0.3285
 8421SOL    HW226163   5.544   6.886   6.833 -0.6672  2.2103 -2.2748
 8422SOL     OW26164   5.523   1.118   3.361  0.1606  0.4416  0.4560
 8422SOL    HW126165   5.530   1.079   3.269  1.7010  3.6235 -0.9202
 8422SOL    HW226166   5.437   1.168   3.369  0.0925  0.2844  0.7190
 8423SOL     OW26167   0.029   4.575   6.633  0.0833  0.2302  0.3508
 8423SOL    HW126168   0.027   4.477   6.614  0.7319  0.2241  0.2828
 8423SOL    HW226169   0.099   4.595   6.702  0.7727  0.7772 -0.4846
 8424SOL     OW26170   3.406   1.552   4.668 -0.6716 -0.2699 -0.3084
 8424SOL    HW126171   3.382   1.505   4.583 -1.4330  0.4204 -0.4881
 8424SOL    HW226172   3.474   1.623   4.648 -1.6665  0.6378 -0.5516
 8425SOL     OW26173   3.320   2.892   2.619  0.5190 -0.0856  0.7206
 8425SOL    HW126174   3.384   2.830   2.572  0.9438 -0.1281  1.3405
 8425SOL    HW226175   3.332   2.883   2.718 -0.1365  0.2445  0.8316
 8426SOL     OW26176   4.830   4.098   1.602  0.2080  0.1591  0.1747
 8426SOL    HW126177   4.759   4.164   1.626 -0.6475 -1.2931  1.8287
 8426SOL    HW226178   4.920   4.137   1.622 -0.2811  0.8239  1.1741
 8427SOL     OW26179   3.813   3.481   1.801  0.0720 -0.4407  0.3266
 8427SOL    HW126180   3.908   3.472   1.829 -0.0066  1.6296  1.4729
 8427SOL    HW226181   3.797   3.573   1.767 -1.6094 -0.6051  0.5837
 8428SOL     OW26182   4.889   6.854   1.316  0.2200 -0.5271  0.2932
 8428SOL    HW126183   4.819   6.922   1.338  0.4935  0.2596 -1.1276
 8428SOL    HW226184   4.870   6.816   1.226  1.6526 -0.2348 -0.1571
 8429SOL     OW26185   4.674   4.200   5.546 -0.3117 -0.3606 -0.1291
 8429SOL    HW126186   4.650   4.191   5.642  1.5898 -0.0667  0.4057
 8429SOL    HW226187   4.766   4.237   5.537 -0.2729 -0.7888 -2.0705
 8430SOL     OW26188   5.247   6.242   1.284 -0.1280  0.5846  0.7548
 8430SOL    HW126189   5.339   6.272   1.259 -0.7272  1.0091 -1.0451
 8430SOL    HW226190   5.188   6.242   1.204 -0.4721 -4.6675  0.6917
 8431SOL     OW26191   1.168   3.131   5.184 -0.1342  0.9263 -0.1559
 8431SOL    HW126192   1.073   3.125   5.213  0.2725 -0.6080  0.9448
 8431SOL    HW226193   1.177   3.202   5.113 -2.0066  1.3343 -0.0219
 8432SOL     OW26194   5.972   4.928   5.539 -0.0212  0.1307 -0.1690
 8432SOL    HW126195   5.981   5.014   5.589 -0.9652  0.9882 -1.4082
 8432SOL    HW226196   6.057   4.876   5.546  0.6165  1.2306  0.4759
 8433SOL     OW26197   5.527   2.075   6.760  0.2495  0.0598 -0.0184
 8433SOL    HW126198   5.598   2.111   6.699  1.6535  0.1257  1.5724
 8433SOL    HW226199   5.542   2.110   6.852 -1.2543 -0.7767  0.5699
 8434SOL     OW26200   2.588   5.416   3.329  0.5020 -0.3815  0.1123
 8434SOL    HW126201   2.592   5.393   3.232  1.3697  0.9103 -0.1792
 8434SOL    HW226202   2.633   5.344   3.382  0.6489 -0.7505 -0.5000
 8435SOL     OW26203   6.521   0.390   3.228  0.3444  0.1093  0.4464
 8435SOL    HW126204   6.574   0.385   3.313  0.3654  2.5709  0.6431
 8435SOL    HW226205   6.527   0.303   3.180  1.6664 -0.8110  2.1700
 8436SOL     OW26206   1.961   5.751   3.679  0.1617  0.1740  0.6080
 8436SOL    HW126207   1.938   5.694   3.600  1.8710  1.4881 -0.9112
 8436SOL    HW226208   1.925   5.843   3.665  2.1597  0.9619  0.3846
 8437SOL     OW26209   2.165   3.700   5.917 -0.6739  0.8909  0.0402
 8437SOL    HW126210   2.212   3.641   5.852  0.5886  1.0246  0.8000
 8437SOL    HW226211   2.078   3.658   5.943 -0.1473 -0.2818 -0.0063
 8438SOL     OW26212   2.378   4.379   2.973  0.8279 -0.4478 -0.4029
 8438SOL    HW126213   2.316   4.325   3.031 -2.3221 -0.5242 -3.5389
 8438SOL    HW226214   2.440   4.432   3.031 -1.7100 -0.8723  2.9882
 8439SOL     OW26215   5.222   3.603   3.511  0.4251 -0.4007 -0.0321
 8439SOL    HW126216   5.284   3.594   3.433 -0.6439 -0.6747 -0.8739
 8439SOL    HW226217   5.242   3.532   3.578  0.6237 -0.8656 -0.5771
 8440SOL     OW26218   2.683   1.921   2.375  0.3418  0.1524  0.3221
 8440SOL    HW126219   2.652   1.980   2.300 -0.5349 -0.9732 -0.2469
 8440SOL    HW226220   2.774   1.885   2.354  1.2185  1.8636  1.0339
 8441SOL     OW26221   1.602   1.631   4.600 -0.2049  0.2930 -0.0637
 8441SOL    HW126222   1.668   1.608   4.529  1.0826 -0.3246  1.2643
 8441SOL    HW226223   1.560   1.719   4.580  0.0592  0.0868 -1.6156
 8442SOL     OW26224   1.967   0.981   5.213 -0.2054 -0.1272 -0.4410
 8442SOL    HW126225   1.901   1.040   5.260 -1.7472 -0.1553 -2.4823
 8442SOL    HW226226   2.058   1.022   5.221 -1.2563  2.8461 -2.1288
 8443SOL     OW26227   1.323   4.454   1.804  0.1805 -0.2295  0.0026
 8443SOL    HW126228   1.301   4.420   1.895  1.5040 -1.1016  0.0223
 8443SOL    HW226229   1.358   4.548   1.811 -1.6840  0.5011  0.1417
 8444SOL     OW26230   5.333   0.173   4.192  0.9033  0.2170  0.2979
 8444SOL    HW126231   5.326   0.076   4.168  0.8113  0.8526 -2.6631
 8444SOL    HW226232   5.319   0.228   4.110  0.5492  2.7818  1.9708
 8445SOL     OW26233   5.913   6.476   0.832  0.2710 -0.2120 -0.1315
 8445SOL    HW126234   5.969   6.410   0.883  3.3057  1.0267 -1.6000
 8445SOL    HW226235   5.862   6.428   0.760  0.8366 -1.2049  0.1118
 8446SOL     OW26236   6.745   6.008   3.206  0.5983  0.1087 -0.0663
 8446SOL    HW126237   6.780   5.974   3.293 -0.2239 -2.0968 -0.5404
 8446SOL    HW226238   6.790   5.959   3.131  0.8663  1.5615 -0.9066
 8447SOL     OW26239   2.526   2.558   4.871  0.5768  0.3968  0.0472
 8447SOL    HW126240   2.470   2.637   4.894  1.4465  1.0403  0.0191
 8447SOL    HW226241   2.582   2.533   4.950  1.0247  0.4323 -0.2564
 8448SOL     OW26242   4.526   6.365   1.505 -0.2745 -1.3016  0.4856
 8448SOL    HW126243   4.428   6.345   1.511 -0.3696 -1.0997 -0.3460
 8448SOL    HW226244   4.569   6.345   1.593 -1.2425 -0.3642  1.1917
 8449SOL     OW26245   6.968   1.997   5.139  0.4206 -0.7538 -0.5856
 8449SOL    HW126246   7.038   2.067   5.150  0.7174 -0.8932 -1.4903
 8449SOL    HW226247   6.890   2.035   5.089 -0.4273 -0.4311  0.9190
 8450SOL     OW26248   5.725   2.215   6.631  0.1285  0.1727 -0.4838
 8450SOL    HW126249   5.726   2.314   6.648 -1.1464  0.0971  0.1719
 8450SOL    HW226250   5.805   2.173   6.673 -0.1568  0.7161  0.6540
 8451SOL     OW26251   5.614   3.159   1.720  0.7863 -0.2301  0.6306
 8451SOL    HW126252   5.585   3.064   1.707 -0.6979  0.4291 -1.5692
 8451SOL    HW226253   5.692   3.179   1.661  0.1670  0.2633 -0.0463
 8452SOL     OW26254   5.896   5.953   5.526 -0.0709 -0.2327 -0.2743
 8452SOL    HW126255   5.948   5.985   5.446  0.3632 -3.0305 -1.2461
 8452SOL    HW226256   5.880   5.854   5.517  0.3762 -0.7541  3.3288
 8453SOL     OW26257   6.040   0.296   6.966  0.0978  0.3644  0.1080
 8453SOL    HW126258   6.044   0.388   6.928  1.4174  0.5435  0.6388
 8453SOL    HW226259   6.125   0.247   6.945 -0.5710 -0.7261 -0.1299
 8454SOL     OW26260   4.459   5.942   6.307 -0.1093 -0.5282  0.1878
 8454SOL    HW126261   4.534   5.877   6.317 -0.1505 -0.8083 -1.1867
 8454SOL    HW226262   4.400   5.937   6.388  1.0759 -0.6267  1.0843
 8455SOL     OW26263   5.369   1.714   3.556 -0.2365 -0.0198  0.4160
 8455SOL    HW126264   5.294   1.716   3.621  0.4323  0.3702  1.1960
 8455SOL    HW226265   5.430   1.637   3.577 -0.3487 -0.2600 -0.1297
 8456SOL     OW26266   6.533   1.550   0.991 -0.6803  0.3032  0.3731
 8456SOL    HW126267   6.444   1.531   1.031 -0.2260  0.7383  1.6444
 8456SOL    HW226268   6.580   1.465   0.970 -1.6652  0.0555 -1.0109
 8457SOL     OW26269   4.464   6.786   5.445  0.8252  0.4180 -0.1503
 8457SOL    HW126270   4.471   6.796   5.345  1.2685  0.7498 -0.0905
 8457SOL    HW226271   4.515   6.705   5.473 -0.1485 -0.2561 -0.2987
 8458SOL     OW26272   3.656   1.197   2.820  0.4436  0.3255 -0.0295
 8458SOL    HW126273   3.687   1.216   2.727  0.6964 -1.2286 -0.2981
 8458SOL    HW226274   3.639   1.283   2.868 -1.3250  1.1752 -2.0248
 8459SOL     OW26275   0.407   6.108   2.757 -0.2258 -0.4733  0.2349
 8459SOL    HW126276   0.500   6.123   2.723  0.0404  1.0027  1.5051
 8459SOL    HW226277   0.346   6.087   2.681  0.5374  1.6801 -1.0477
 8460SOL     OW26278   3.499   3.887   3.574  0.8047  0.0513  0.5296
 8460SOL    HW126279   3.439   3.901   3.495  0.2115  1.7231  1.2134
 8460SOL    HW226280   3.448   3.843   3.647 -0.1077  2.6208  1.5806
 8461SOL     OW26281   0.157   5.427   4.365  0.2712  0.4624  0.4810
 8461SOL    HW126282   0.058   5.419   4.359  0.2100  0.5201  1.3534
 8461SOL    HW226283   0.199   5.339   4.341  0.0636  0.6860 -0.7897
 8462SOL     OW26284   3.025   1.689   2.273  0.2735 -0.2598  0.0004
 8462SOL    HW126285   2.932   1.691   2.234 -0.0025  0.3822  0.6797
 8462SOL    HW226286   3.051   1.781   2.303  1.3268 -0.3367 -0.6134
 8463SOL     OW26287   5.902   5.266   1.518  0.9012 -0.0030  0.2521
 8463SOL    HW126288   5.854   5.220   1.592  0.3320  0.5129  0.2073
 8463SOL    HW226289   5.841   5.273   1.438  1.4641 -0.4464 -0.2229
 8464SOL     OW26290   6.997   1.297   6.573 -0.2171  0.5049  0.4318
 8464SOL    HW126291   7.074   1.283   6.635 -1.2812  3.8385  2.7940
 8464SOL    HW226292   6.943   1.214   6.568  3.1694 -1.8491 -1.0388
 8465SOL     OW26293   1.989   0.686   0.052 -0.0572 -0.4040 -0.1537
 8465SOL    HW126294   1.983   0.587   0.048 -2.2217 -0.4488  2.2879
 8465SOL    HW226295   1.900   0.726   0.030  0.2648  0.8867  0.7718
 8466SOL     OW26296   1.779   0.973   2.326  0.3334  0.5571  0.4331
 8466SOL    HW126297   1.716   1.045   2.356  1.1378  0.9409  1.2119
 8466SOL    HW226298   1.873   1.005   2.336  0.6707  0.5523 -2.1101
 8467SOL     OW26299   4.632   5.537   2.371 -0.0825 -0.8122 -0.3436
 8467SOL    HW126300   4.692   5.485   2.310 -1.4872 -0.7403 -1.8610
 8467SOL    HW226301   4.641   5.502   2.464  2.8296 -0.3127 -0.3229
 8468SOL     OW26302   4.249   2.849   6.604 -0.2383 -0.0204 -0.2464
 8468SOL    HW126303   4.347   2.843   6.582  0.5883 -0.1172  2.9770
 8468SOL    HW226304   4.212   2.758   6.619 -0.2877  0.1211  0.5256
 8469SOL     OW26305   3.843   1.542   5.415 -0.3127 -0.1699  0.0129
 8469SOL    HW126306   3.772   1.613   5.403 -1.5680 -1.4932 -0.6713
 8469SOL    HW226307   3.799   1.455   5.438  1.2424 -0.6348  1.3930
 8470SOL     OW26308   6.260   2.538   0.533 -0.0900  0.0238  0.1856
 8470SOL    HW126309   6.164   2.515   0.515 -0.2513 -1.0249  2.0658
 8470SOL    HW226310   6.265   2.605   0.607  0.6130 -2.4413  2.5302
 8471SOL     OW26311   4.600   1.895   5.583 -0.3284 -0.0841  0.5597
 8471SOL    HW126312   4.584   1.813   5.637 -1.4551 -0.6916 -0.6352
 8471SOL    HW226313   4.548   1.890   5.498 -0.7119  2.0379  0.6124
 8472SOL     OW26314   1.719   6.552   3.520  0.0316 -0.4557  0.1078
 8472SOL    HW126315   1.645   6.565   3.454 -0.6462  0.1965  0.9799
 8472SOL    HW226316   1.691   6.486   3.589 -0.8829  1.7638  2.0135
 8473SOL     OW26317   6.578   4.701   0.401 -0.4455  0.0765  0.0480
 8473SOL    HW126318   6.556   4.677   0.307  1.1451 -0.9332 -0.1141
 8473SOL    HW226319   6.653   4.642   0.433 -0.3671  0.9987  1.6413
 8474SOL     OW26320   5.845   6.022   6.193 -0.2941  0.3469 -0.8211
 8474SOL    HW126321   5.942   6.032   6.171  0.6303  0.6189  2.7162
 8474SOL    HW226322   5.827   5.929   6.225 -0.5451  0.9568  0.9452
 8475SOL     OW26323   5.289   0.057   2.437 -0.1443 -0.9057  0.8707
 8475SOL    HW126324   5.271   0.077   2.341 -2.1840 -1.3502  1.1228
 8475SOL    HW226325   5.249   0.129   2.494  0.9783 -0.6864  1.4291
 8476SOL     OW26326   0.608   1.189   2.454 -0.0078  0.0005  0.0844
 8476SOL    HW126327   0.681   1.251   2.424 -1.0356  0.2426 -2.1211
 8476SOL    HW226328   0.628   1.096   2.421 -0.1483 -0.1571  0.4402
 8477SOL     OW26329   2.510   1.122   4.795  0.0200  0.5729 -0.2290
 8477SOL    HW126330   2.472   1.115   4.888 -0.0134 -0.2181 -0.2969
 8477SOL    HW226331   2.594   1.176   4.798  0.0886  0.4499  0.2879
 8478SOL     OW26332   0.963   1.493   5.214 -0.3511  0.6872 -0.0370
 8478SOL    HW126333   0.876   1.491   5.165  0.1116  0.0484 -0.8568
 8478SOL    HW226334   1.018   1.570   5.180  0.6854 -0.7772 -1.8361
 8479SOL     OW26335   6.182   6.387   0.963  0.4797 -0.0376 -0.3651
 8479SOL    HW126336   6.257   6.336   0.920  1.8631 -0.0527  1.8855
 8479SOL    HW226337   6.197   6.485   0.951  0.8784 -0.0419  0.0498
 8480SOL     OW26338   3.714   0.550   2.036 -0.1357  0.0981  0.5365
 8480SOL    HW126339   3.777   0.549   2.114  2.1853 -2.2782 -1.1534
 8480SOL    HW226340   3.732   0.631   1.980 -0.0832  0.5463  1.1944
 8481SOL     OW26341   2.847   1.648   5.854  0.0394 -0.5099  0.4060
 8481SOL    HW126342   2.906   1.714   5.899 -0.6175  0.4577 -0.1316
 8481SOL    HW226343   2.753   1.682   5.852  0.2655  0.2810 -3.1037
 8482SOL     OW26344   6.514   6.675   1.853 -0.2801 -0.4405  0.1701
 8482SOL    HW126345   6.437   6.613   1.835 -0.2695 -0.6039  0.6560
 8482SOL    HW226346   6.517   6.696   1.951  0.8040 -1.1204  0.2953
 8483SOL     OW26347   6.063   0.456   1.592  0.1816 -0.3935 -0.1156
 8483SOL    HW126348   6.033   0.550   1.605 -0.1205 -0.7076  1.7519
 8483SOL    HW226349   6.136   0.435   1.657  1.5166 -0.9433 -1.7101
 8484SOL     OW26350   6.109   5.173   0.491  0.5903  0.6599  0.0017
 8484SOL    HW126351   6.124   5.200   0.396 -0.6716 -2.1322 -1.0784
 8484SOL    HW226352   6.166   5.095   0.513  1.1327  1.4882  1.7080
 8485SOL     OW26353   3.248   5.059   0.321  0.2563 -0.4660 -0.2255
 8485SOL    HW126354   3.295   5.139   0.283  0.3880 -0.9122 -1.0210
 8485SOL    HW226355   3.172   5.089   0.378  0.7011  0.2376  0.0142
 8486SOL     OW26356   5.016   1.779   2.626  0.2019  0.3230  0.0543
 8486SOL    HW126357   4.927   1.772   2.670  0.2451  0.1827  0.1170
 8486SOL    HW226358   5.062   1.690   2.627 -0.5895 -0.1477 -1.9613
 8487SOL     OW26359   4.762   5.688   0.544 -0.8299  0.1478 -0.2691
 8487SOL    HW126360   4.774   5.774   0.495 -1.2168  0.5782  0.3874
 8487SOL    HW226361   4.692   5.632   0.499 -1.9221  0.9771  0.3548
 8488SOL     OW26362   6.119   3.478   0.037 -0.1571  0.4208 -0.5658
 8488SOL    HW126363   6.105   3.498  -0.060 -2.2277  0.4279 -0.3015
 8488SOL    HW226364   6.147   3.383   0.048  1.0665  0.6899 -1.2166
 8489SOL     OW26365   2.947   0.538   3.163 -0.2522 -0.2919  0.4007
 8489SOL    HW126366   2.908   0.630   3.175 -2.1309 -0.8932 -0.6126
 8489SOL    HW226367   2.906   0.476   3.230 -0.5406 -0.8090 -0.2503
 8490SOL     OW26368   3.130   5.341   2.893 -0.0551  0.2047 -0.0681
 8490SOL    HW126369   3.047   5.391   2.915 -0.5929 -0.0960 -1.3037
 8490SOL    HW226370   3.152   5.354   2.796  0.1730 -1.3469 -0.2604
 8491SOL     OW26371   0.171   6.976   0.645 -0.0212  0.1494 -0.4051
 8491SOL    HW126372   0.176   6.929   0.557 -0.7868  1.0668 -0.9703
 8491SOL    HW226373   0.079   6.966   0.683 -0.5726  2.0659 -1.0929
 8492SOL     OW26374   6.071   2.237   2.806 -0.2672 -0.0951 -0.1296
 8492SOL    HW126375   6.014   2.259   2.727  0.0281 -0.3597 -0.4215
 8492SOL    HW226376   6.034   2.155   2.851 -0.7787  0.3971  0.3616
 8493SOL     OW26377   4.458   3.095   1.098  0.4156 -0.0885  0.2372
 8493SOL    HW126378   4.380   3.101   1.036  0.4203 -1.8942  0.0017
 8493SOL    HW226379   4.429   3.116   1.191 -0.8497 -2.6426  0.4929
 8494SOL     OW26380   3.117   5.923   5.145  0.5121  0.3919  0.0563
 8494SOL    HW126381   3.055   5.988   5.189 -0.6791 -0.0618 -0.8821
 8494SOL    HW226382   3.188   5.972   5.096 -0.3226  0.9959 -0.5664
 8495SOL     OW26383   5.923   4.397   6.228  0.0132 -0.3060 -0.0382
 8495SOL    HW126384   5.950   4.414   6.323  0.6507 -0.7863 -0.1315
 8495SOL    HW226385   5.971   4.317   6.193 -1.2004 -0.9136 -0.3616
 8496SOL     OW26386   2.080   1.212   4.515  0.3268  0.3353  0.4168
 8496SOL    HW126387   2.078   1.295   4.458  1.0717 -0.9838 -1.6653
 8496SOL    HW226388   2.174   1.191   4.540  0.2673 -0.4595  0.0035
 8497SOL     OW26389   3.620   3.217   6.021  0.3118  0.7941  0.2626
 8497SOL    HW126390   3.628   3.188   5.926  0.0428 -2.0053  1.0040
 8497SOL    HW226391   3.524   3.241   6.040  0.5322  2.3074 -0.3515
 8498SOL     OW26392   4.804   0.903   3.110 -0.0792 -0.0334 -0.1405
 8498SOL    HW126393   4.787   0.983   3.054  0.2678 -0.0873 -0.3254
 8498SOL    HW226394   4.866   0.840   3.062  1.1364  0.4346  0.7493
 8499SOL     OW26395   6.143   2.634   1.815 -0.5134  0.3830  0.3491
 8499SOL    HW126396   6.062   2.693   1.809 -0.4557  0.4308 -0.0121
 8499SOL    HW226397   6.225   2.688   1.799 -0.3362  0.4978  1.5329
 8500SOL     OW26398   1.566   0.097   5.176 -0.0440 -0.2336  0.2201
 8500SOL    HW126399   1.590   0.001   5.193  0.0537 -0.4869 -1.2069
 8500SOL    HW226400   1.494   0.102   5.107 -0.9668  0.6965  1.2146
 8501SOL     OW26401   2.229   3.575   0.724 -0.4459  0.1433 -0.4237
 8501SOL    HW126402   2.319   3.591   0.765  0.2243 -0.8381 -1.4260
 8501SOL    HW226403   2.158   3.620   0.778  0.3421 -1.3481  1.9917
 8502SOL     OW26404   1.128   6.624   2.104  0.4471 -0.2227 -0.3765
 8502SOL    HW126405   1.161   6.707   2.060 -0.1614  0.0542 -0.3217
 8502SOL    HW226406   1.129   6.637   2.203 -1.0402  0.2888 -0.3938
 8503SOL     OW26407   4.303   5.809   3.178 -0.2415  0.4199  0.1181
 8503SOL    HW126408   4.230   5.745   3.154  0.6565 -1.1444  1.3705
 8503SOL    HW226409   4.358   5.829   3.096 -0.5885 -0.3531 -0.3142
 8504SOL     OW26410   1.329   6.580   1.773  0.0497  0.1758  0.2257
 8504SOL    HW126411   1.374   6.555   1.859 -1.7609  0.9564  1.4530
 8504SOL    HW226412   1.293   6.673   1.781  0.1871  0.4143 -1.5507
 8505SOL     OW26413   4.004   2.122   1.744 -0.0707 -0.1772  0.2779
 8505SOL    HW126414   3.925   2.061   1.752 -0.4979  0.2710 -0.3770
 8505SOL    HW226415   3.972   2.215   1.723  0.6715 -0.2373 -1.2999
 8506SOL     OW26416   1.274   5.544   0.656  0.1325  0.5065 -0.0534
 8506SOL    HW126417   1.182   5.566   0.688 -0.0936  0.6221 -0.7712
 8506SOL    HW226418   1.272   5.457   0.606  0.4139  0.5166 -0.0847
 8507SOL     OW26419   1.459   0.220   5.611 -0.0091 -0.2381 -0.2672
 8507SOL    HW126420   1.399   0.283   5.660 -2.1250 -0.7606 -2.0486
 8507SOL    HW226421   1.515   0.169   5.677 -0.2630  1.4823  1.3534
 8508SOL     OW26422   0.851   5.362   4.652  0.6289 -0.3513  0.0871
 8508SOL    HW126423   0.938   5.411   4.657  0.0405  0.8658 -0.9402
 8508SOL    HW226424   0.812   5.353   4.744  1.0587  0.5708  0.3671
 8509SOL     OW26425   4.990   2.451   4.220  0.3608  0.2503 -0.2809
 8509SOL    HW126426   4.928   2.419   4.149 -0.4887  1.3453 -0.0534
 8509SOL    HW226427   4.984   2.389   4.299 -0.9399  0.6968 -0.0078
 8510SOL     OW26428   6.331   0.406   4.467 -0.9456 -0.9834  0.1576
 8510SOL    HW126429   6.343   0.442   4.560 -1.4474 -0.2273 -0.0575
 8510SOL    HW226430   6.398   0.448   4.406 -1.5236 -0.4100 -0.0921
 8511SOL     OW26431   5.965   4.308   1.270 -0.1438 -0.1874  0.1124
 8511SOL    HW126432   5.977   4.226   1.326 -0.7744  0.2199  0.8617
 8511SOL    HW226433   5.885   4.298   1.211  0.7111 -0.7526 -0.9925
 8512SOL     OW26434   3.941   3.168   1.796  0.4465 -0.1348  0.5630
 8512SOL    HW126435   3.916   3.255   1.839  0.5559  0.0745  0.2071
 8512SOL    HW226436   4.032   3.140   1.828  1.1017  0.6810 -0.5076
 8513SOL     OW26437   6.922   2.832   0.589 -0.7361  0.1439  0.2845
 8513SOL    HW126438   7.021   2.835   0.578 -0.8621  0.8043 -0.8579
 8513SOL    HW226439   6.899   2.847   0.685  0.3381 -2.5135  1.0536
 8514SOL     OW26440   1.356   2.894   5.220 -0.4097  0.7187 -0.3504
 8514SOL    HW126441   1.275   2.838   5.236  1.0373 -1.1654  0.8677
 8514SOL    HW226442   1.330   2.990   5.211 -2.9130 -0.0087 -1.7587
 8515SOL     OW26443   2.520   1.857   0.269  0.1087  0.5709 -0.2098
 8515SOL    HW126444   2.615   1.842   0.241  0.5036 -1.7386  1.9876
 8515SOL    HW226445   2.459   1.805   0.209  0.4051  0.5750 -0.5143
 8516SOL     OW26446   0.162   5.428   5.351  0.2147 -0.1526  0.3413
 8516SOL    HW126447   0.183   5.331   5.336  2.4809  0.2087  0.8473
 8516SOL    HW226448   0.097   5.459   5.282  1.3051 -1.4353 -1.3357
 8517SOL     OW26449   1.221   2.599   3.789 -0.3554 -0.0723 -0.1349
 8517SOL    HW126450   1.183   2.507   3.781  1.5322 -0.8142 -1.1828
 8517SOL    HW226451   1.151   2.661   3.822 -1.5448 -1.9737  1.0991
 8518SOL     OW26452   5.685   6.105   0.932 -0.5430  0.5945  0.1399
 8518SOL    HW126453   5.687   6.078   1.029  1.1111  1.7395  0.4734
 8518SOL    HW226454   5.746   6.183   0.919  0.4895 -0.5187 -2.1260
 8519SOL     OW26455   1.153   5.068   0.246 -0.0819 -0.0644  0.0212
 8519SOL    HW126456   1.060   5.036   0.229 -0.1638 -0.3604  1.0028
 8519SOL    HW226457   1.184   5.123   0.168 -1.1197  0.1401 -0.2570
 8520SOL     OW26458   3.316   2.006   0.760 -1.0008 -0.0397  0.1966
 8520SOL    HW126459   3.289   1.993   0.665 -0.2225  0.9290 -0.1772
 8520SOL    HW226460   3.238   2.040   0.813 -1.2495  0.0956 -0.2496
 8521SOL     OW26461   1.532   5.887   5.370  0.2981 -0.4489 -0.2308
 8521SOL    HW126462   1.610   5.944   5.346 -1.0055  1.3178 -0.5085
 8521SOL    HW226463   1.457   5.904   5.307 -0.4397 -1.8517  0.2188
 8522SOL     OW26464   1.268   1.624   5.368 -0.0208  0.2046 -0.1485
 8522SOL    HW126465   1.357   1.578   5.368 -0.6171 -1.0306 -1.3501
 8522SOL    HW226466   1.214   1.592   5.446  0.3402  0.4528  0.2061
 8523SOL     OW26467   3.484   2.499   1.696  0.3478 -0.2436  0.1798
 8523SOL    HW126468   3.520   2.582   1.652  1.7109 -1.0209 -0.2517
 8523SOL    HW226469   3.560   2.447   1.734 -0.4440 -1.4778  0.1121
 8524SOL     OW26470   2.842   0.246   5.968  0.2194 -0.4905  0.1915
 8524SOL    HW126471   2.930   0.291   5.983  0.3571 -1.3291  2.3166
 8524SOL    HW226472   2.794   0.238   6.055 -2.3970  0.7079 -1.0415
 8525SOL     OW26473   5.564   5.175   3.264 -0.1560 -0.1843  0.7210
 8525SOL    HW126474   5.500   5.138   3.196 -0.7350  0.8592  0.6779
 8525SOL    HW226475   5.567   5.275   3.256 -0.9753  0.0723  2.8567
 8526SOL     OW26476   0.721   4.524   0.038 -0.1106  0.5308 -0.2588
 8526SOL    HW126477   0.733   4.518   0.137  0.1752  1.4292 -0.2228
 8526SOL    HW226478   0.807   4.552  -0.004 -0.6231  1.7253 -0.5786
 8527SOL     OW26479   5.992   0.923   6.194 -0.3515  0.1791 -0.4419
 8527SOL    HW126480   5.905   0.957   6.228  0.3519  0.0232  1.7527
 8527SOL    HW226481   5.987   0.823   6.185 -0.3222  0.1287  0.0362
 8528SOL     OW26482   6.041   6.430   0.326  0.4172 -0.3611  0.1226
 8528SOL    HW126483   6.104   6.449   0.402 -0.6010  0.2430  0.8365
 8528SOL    HW226484   5.974   6.362   0.354  0.4280 -0.6199 -0.4642
 8529SOL     OW26485   1.365   4.103   2.264 -0.2626  0.1858  0.0233
 8529SOL    HW126486   1.322   4.089   2.353 -1.2890  1.3552 -0.2580
 8529SOL    HW226487   1.382   4.200   2.250 -0.9750  0.1271 -1.4379
 8530SOL     OW26488   3.015   3.688   3.638  0.4145  0.4814 -0.4541
 8530SOL    HW126489   3.095   3.668   3.583  0.7445  1.8889 -0.5276
 8530SOL    HW226490   3.032   3.769   3.694 -0.6918  0.3680  0.0843
 8531SOL     OW26491   6.625   0.292   3.563  0.0347 -0.3045 -0.1643
 8531SOL    HW126492   6.537   0.336   3.547  0.4797  0.8808  0.4965
 8531SOL    HW226493   6.619   0.235   3.645 -0.2166 -0.5217 -0.3328
 8532SOL     OW26494   1.539   5.055   6.073 -0.5166  0.9600  0.2868
 8532SOL    HW126495   1.442   5.040   6.055 -0.4575  1.7930 -0.8163
 8532SOL    HW226496   1.560   5.026   6.167 -1.9265  1.2181  0.7078
 8533SOL     OW26497   3.230   4.685   1.294  0.0359 -0.4506 -0.1359
 8533SOL    HW126498   3.243   4.588   1.275 -3.1319 -0.8950 -0.5568
 8533SOL    HW226499   3.197   4.697   1.387 -0.5174  0.1332 -0.3991
 8534SOL     OW26500   1.403   1.770   1.610 -0.0924  0.1047 -0.1373
 8534SOL    HW126501   1.493   1.797   1.575 -1.3047  3.4527 -1.0477
 8534SOL    HW226502   1.360   1.706   1.546  0.6581  0.4234 -0.9858
 8535SOL     OW26503   0.480   0.013   1.956  0.2312 -0.5336  0.0833
 8535SOL    HW126504   0.577  -0.014   1.959  0.5558  0.6591  1.0724
 8535SOL    HW226505   0.465   0.075   1.880  1.1779  2.4929  2.2032
 8536SOL     OW26506   2.275   6.867   5.043  0.6241 -0.4779  0.0924
 8536SOL    HW126507   2.220   6.950   5.050  0.7480 -0.5573  3.2873
 8536SOL    HW226508   2.353   6.884   4.982 -0.3526  1.1316 -0.7789
 8537SOL     OW26509   5.576   1.070   1.854 -0.4555  0.7087  0.1383
 8537SOL    HW126510   5.629   1.076   1.938 -0.5036 -0.9744  0.3097
 8537SOL    HW226511   5.488   1.117   1.868 -1.0977 -0.8266  1.5598
 8538SOL     OW26512   0.656   1.841   6.284 -0.3731  0.0945  0.2298
 8538SOL    HW126513   0.687   1.760   6.334 -0.4511 -0.0303  0.0744
 8538SOL    HW226514   0.557   1.841   6.280 -0.3439 -0.2976 -0.5976
 8539SOL     OW26515   6.827   4.335   1.649  0.2938  0.3387  0.7118
 8539SOL    HW126516   6.897   4.265   1.665  0.7176 -0.0177 -2.2112
 8539SOL    HW226517   6.805   4.338   1.552 -1.7409  2.4097  1.1660
 8540SOL     OW26518   3.035   1.278   0.674 -0.0883  0.3946 -0.1991
 8540SOL    HW126519   3.104   1.236   0.733 -1.6056 -0.7663  0.8183
 8540SOL    HW226520   3.042   1.378   0.681 -0.8400  0.3219  2.7904
 8541SOL     OW26521   1.056   1.404   2.603 -0.6072  0.4506 -0.5628
 8541SOL    HW126522   1.087   1.361   2.518  0.1996 -0.9357  0.3836
 8541SOL    HW226523   1.122   1.475   2.630 -0.6772  0.6492 -0.9142
 8542SOL     OW26524   3.987   4.900   6.609 -0.2602  0.0576 -0.3484
 8542SOL    HW126525   3.892   4.916   6.580 -0.8341 -1.6062  0.4879
 8542SOL    HW226526   3.992   4.815   6.661  1.3629  1.1167  1.3455
 8543SOL     OW26527   2.709   0.866   6.019 -0.0995 -0.3161  0.0286
 8543SOL    HW126528   2.619   0.841   5.983  1.1409 -0.2254 -3.5206
 8543SOL    HW226529   2.766   0.783   6.026  0.1972 -0.0962  0.2714
 8544SOL     OW26530   6.827   3.280   4.812  0.0395  0.3070 -0.4306
 8544SOL    HW126531   6.780   3.192   4.807 -0.7166  0.7117 -0.5028
 8544SOL    HW226532   6.876   3.296   4.726  3.7313 -1.9547  0.9988
 8545SOL     OW26533   4.111   0.937   4.766  0.4609  0.2457 -0.1995
 8545SOL    HW126534   4.183   0.878   4.729 -0.5407 -1.3449  0.2635
 8545SOL    HW226535   4.036   0.943   4.699  0.6170  1.1530 -0.3052
 8546SOL     OW26536   4.872   1.136   3.974 -0.0737 -0.1689 -0.1584
 8546SOL    HW126537   4.891   1.052   4.026 -4.3394  0.2018  2.4163
 8546SOL    HW226538   4.798   1.119   3.909  1.0363  0.9716 -1.7960
 8547SOL     OW26539   1.691   7.015   3.098  0.5611  0.3206 -0.2602
 8547SOL    HW126540   1.670   7.067   3.181 -2.6646 -0.7732 -0.2798
 8547SOL    HW226541   1.759   6.945   3.119 -0.4450 -0.1565  1.5821
 8548SOL     OW26542   6.244   1.249   5.609 -0.0724 -0.5566 -0.2183
 8548SOL    HW126543   6.260   1.314   5.535  1.4278 -1.6113 -0.8765
 8548SOL    HW226544   6.222   1.159   5.570  0.1820 -0.9899  0.6132
 8549SOL     OW26545   5.872   5.538   4.861  0.1164  0.2460  0.1011
 8549SOL    HW126546   5.822   5.560   4.944 -1.1660 -0.0388 -0.5598
 8549SOL    HW226547   5.821   5.571   4.781  0.6098 -0.7080 -0.6396
 8550SOL     OW26548   6.757   3.751   0.441 -0.1329  0.3639 -0.6237
 8550SOL    HW126549   6.696   3.671   0.445  2.1599 -1.5416 -1.5184
 8550SOL    HW226550   6.800   3.764   0.530  0.0761  0.0971 -0.6835
 8551SOL     OW26551   2.687   6.026   6.473  1.0975  0.1251  0.0963
 8551SOL    HW126552   2.710   5.973   6.555 -0.0049 -1.7318 -0.7606
 8551SOL    HW226553   2.590   6.051   6.476  1.5478  2.0198  0.3943
 8552SOL     OW26554   4.027   6.451   2.252  0.7036 -0.3715  0.4963
 8552SOL    HW126555   4.049   6.480   2.345 -0.4570  0.8914  0.4130
 8552SOL    HW226556   4.052   6.524   2.187  1.7642 -1.3506 -0.2298
 8553SOL     OW26557   6.440   4.068   0.357 -0.1852  0.5030 -0.0932
 8553SOL    HW126558   6.445   4.163   0.327 -1.6653  0.7492  0.3431
 8553SOL    HW226559   6.349   4.032   0.340  0.6376 -1.1909 -1.1896
 8554SOL     OW26560   6.623   4.707   4.968 -0.2233  0.2539 -0.1178
 8554SOL    HW126561   6.670   4.642   4.908 -2.4005 -1.5782  0.0527
 8554SOL    HW226562   6.574   4.773   4.912 -0.8473 -0.4000 -0.3544
 8555SOL     OW26563   2.183   4.840   2.769 -0.1868  0.6517 -0.2458
 8555SOL    HW126564   2.178   4.752   2.722 -1.2741  0.9959 -0.8040
 8555SOL    HW226565   2.238   4.830   2.852 -1.4617 -0.9195  0.4762
 8556SOL     OW26566   4.365   6.581   6.355 -0.4336 -0.0040  0.0897
 8556SOL    HW126567   4.276   6.579   6.399 -0.5767  2.5707  0.0445
 8556SOL    HW226568   4.358   6.538   6.264 -1.9985  1.4084 -0.5008
 8557SOL     OW26569   5.846   1.484   0.857 -0.2353  0.0464  0.0364
 8557SOL    HW126570   5.862   1.543   0.936  2.2621 -1.5037  0.8102
 8557SOL    HW226571   5.802   1.399   0.887 -0.9688  0.2123 -0.5547
 8558SOL     OW26572   2.124   3.208   1.938  0.3136 -0.2597 -0.1293
 8558SOL    HW126573   2.141   3.305   1.954 -4.4576  0.8219  0.0279
 8558SOL    HW226574   2.113   3.191   1.840 -0.8125 -0.1411 -0.0393
 8559SOL     OW26575   1.737   1.628   5.152 -0.9778 -0.5542 -0.4573
 8559SOL    HW126576   1.719   1.573   5.071 -1.8688  0.3377 -0.8839
 8559SOL    HW226577   1.665   1.612   5.220 -1.5309  0.4344 -0.7867
 8560SOL     OW26578   0.188   1.869   6.777  0.1059 -0.3521 -0.2367
 8560SOL    HW126579   0.150   1.859   6.685  1.0830  0.0472 -0.7007
 8560SOL    HW226580   0.134   1.814   6.841  0.7556 -2.4996 -1.4145
 8561SOL     OW26581   5.590   0.523   5.171  0.0235  0.1645 -0.4820
 8561SOL    HW126582   5.525   0.558   5.239 -0.6243  0.5650 -1.2735
 8561SOL    HW226583   5.629   0.600   5.121  1.9204  0.0009  0.6587
 8562SOL     OW26584   4.088   0.657   3.275 -0.3310  0.2697 -0.8097
 8562SOL    HW126585   4.094   0.606   3.189  1.7406  1.0435 -1.1914
 8562SOL    HW226586   4.050   0.748   3.258 -0.1600  0.3315 -0.8607
 8563SOL     OW26587   1.167   4.156   0.528 -0.3378 -0.3630  0.0410
 8563SOL    HW126588   1.266   4.151   0.527 -0.2080  1.1298  1.2427
 8563SOL    HW226589   1.138   4.249   0.504 -1.4496 -0.7578 -0.2356
 8564SOL     OW26590   0.171   6.024   4.639  0.4109  0.3103  0.0897
 8564SOL    HW126591   0.132   5.934   4.656 -1.0444  1.1201  1.2637
 8564SOL    HW226592   0.270   6.021   4.657  0.8491 -1.5919 -2.2303
 8565SOL     OW26593   1.417   0.860   6.507  0.4052  0.3306 -0.2702
 8565SOL    HW126594   1.448   0.806   6.585  0.3242  0.7373  0.0434
 8565SOL    HW226595   1.384   0.798   6.435 -0.1629 -0.0196  0.2871
 8566SOL     OW26596   1.634   2.795   3.059 -0.0908 -0.0228 -0.0595
 8566SOL    HW126597   1.602   2.842   3.142 -0.5936  0.6354 -0.6141
 8566SOL    HW226598   1.560   2.795   2.991  0.8971  1.0406 -1.1743
 8567SOL     OW26599   5.848   6.796   5.513 -0.1497 -0.1526 -0.0546
 8567SOL    HW126600   5.844   6.709   5.464 -0.7267 -0.8108  1.1344
 8567SOL    HW226601   5.921   6.793   5.581 -1.2336 -0.3044  1.1105
 8568SOL     OW26602   5.750   6.023   0.144 -0.0197  0.0480 -0.2531
 8568SOL    HW126603   5.830   6.081   0.131  0.2448 -0.1073  0.6196
 8568SOL    HW226604   5.717   6.032   0.238 -0.6341 -0.3893 -0.4200
 8569SOL     OW26605   1.307   2.592   6.521  0.4183  0.2972 -0.0307
 8569SOL    HW126606   1.236   2.646   6.566 -2.0968 -1.4938 -1.5926
 8569SOL    HW226607   1.325   2.631   6.430  1.1876  0.4912  0.1912
 8570SOL     OW26608   6.887   3.310   1.435 -0.1717  0.0634  0.0652
 8570SOL    HW126609   6.923   3.224   1.471  0.2016  0.0548 -0.3125
 8570SOL    HW226610   6.883   3.378   1.508  0.7720  0.1104  0.0893
 8571SOL     OW26611   5.992   4.270   5.972  0.6968  0.3241 -0.2962
 8571SOL    HW126612   6.061   4.339   5.995  0.5547  0.3719 -0.0118
 8571SOL    HW226613   5.996   4.252   5.873  1.5346 -0.1271 -0.1947
 8572SOL     OW26614   1.311   4.574   6.290 -0.0910 -0.2476  0.3854
 8572SOL    HW126615   1.320   4.667   6.326 -2.2671 -0.2274  1.0279
 8572SOL    HW226616   1.278   4.578   6.195  0.3216 -0.3595  0.2364
 8573SOL     OW26617   2.682   4.857   3.114 -0.6440 -0.3995 -0.7031
 8573SOL    HW126618   2.619   4.906   3.175 -0.3760 -0.4606 -0.3727
 8573SOL    HW226619   2.766   4.835   3.164  0.5624  1.6017 -1.7268
 8574SOL     OW26620   1.375   2.983   3.869  0.2330  0.2838  0.3445
 8574SOL    HW126621   1.441   2.938   3.929 -0.4713  0.6912  1.4500
 8574SOL    HW226622   1.298   3.015   3.923 -0.8211 -0.0666 -0.9071
 8575SOL     OW26623   3.505   3.876   3.063  0.4608  0.4358  0.0009
 8575SOL    HW126624   3.599   3.863   3.031  1.0703  0.0925  1.8321
 8575SOL    HW226625   3.479   3.972   3.053  1.7555  0.9488  1.3767
 8576SOL     OW26626   1.388   1.004   6.824 -0.4738 -0.3101 -0.1963
 8576SOL    HW126627   1.313   0.998   6.757 -0.4766 -1.1981 -0.1240
 8576SOL    HW226628   1.475   1.003   6.776 -0.4944  0.9817 -0.2978
 8577SOL     OW26629   5.104   4.839   5.781 -0.1094 -0.1054 -0.7598
 8577SOL    HW126630   5.086   4.741   5.792 -1.3292  0.2552  0.7684
 8577SOL    HW226631   5.183   4.865   5.837 -1.6579  0.3115  1.3273
 8578SOL     OW26632   4.368   1.547   6.092  0.1541 -0.0138  0.4118
 8578SOL    HW126633   4.443   1.506   6.143  0.5186  1.2756  0.9600
 8578SOL    HW226634   4.386   1.644   6.078  0.0854 -0.3031 -2.2446
 8579SOL     OW26635   0.100   5.869   1.844  0.3121 -0.2888 -0.1612
 8579SOL    HW126636   0.091   5.965   1.871  0.9136  0.1556 -1.4746
 8579SOL    HW226637   0.037   5.813   1.898 -0.5811  0.9367  0.1043
 8580SOL     OW26638   1.668   4.115   5.259  0.2038  0.1982 -0.1159
 8580SOL    HW126639   1.742   4.178   5.237  0.1027  0.2055 -0.4413
 8580SOL    HW226640   1.678   4.031   5.206  1.1858 -0.6979  1.4105
 8581SOL     OW26641   3.541   1.680   6.312  0.3468 -0.2975 -0.0987
 8581SOL    HW126642   3.560   1.710   6.219  0.4347  0.7071  0.2248
 8581SOL    HW226643   3.518   1.583   6.313  1.5495 -0.6119 -1.0174
 8582SOL     OW26644   2.469   6.359   6.614 -0.8362 -0.3359 -0.1754
 8582SOL    HW126645   2.394   6.296   6.636 -0.1907 -1.2426 -0.4986
 8582SOL    HW226646   2.556   6.315   6.636 -0.3569  0.3102 -0.7607
 8583SOL     OW26647   5.566   0.457   4.856  0.0224  0.2339 -0.3585
 8583SOL    HW126648   5.581   0.377   4.914 -0.6584 -0.4707 -1.1323
 8583SOL    HW226649   5.560   0.429   4.760 -0.1179  1.2243 -0.6555
 8584SOL     OW26650   2.264   4.628   4.727 -0.4958  0.5482 -0.4127
 8584SOL    HW126651   2.261   4.624   4.627 -1.5167  1.8300 -0.4680
 8584SOL    HW226652   2.277   4.723   4.755 -0.9179  0.2912  0.6790
 8585SOL     OW26653   0.316   1.424   5.844 -0.2026 -0.7335  0.6625
 8585SOL    HW126654   0.312   1.324   5.846  0.2766 -0.9596 -2.9942
 8585SOL    HW226655   0.390   1.454   5.783 -0.8942  1.8296  0.9529
 8586SOL     OW26656   3.797   4.878   4.581  0.1703 -0.1545  0.2099
 8586SOL    HW126657   3.804   4.781   4.602 -1.0226 -0.1980  0.4547
 8586SOL    HW226658   3.702   4.902   4.561  0.0951  1.3323  2.0635
 8587SOL     OW26659   5.710   6.945   6.876 -0.3682  0.2269  0.2478
 8587SOL    HW126660   5.731   6.850   6.854  1.6134  0.6594  0.1433
 8587SOL    HW226661   5.746   6.968   6.966 -1.7063  0.6253  0.7032
 8588SOL     OW26662   3.754   2.744   0.200 -0.2526  0.5267 -0.4886
 8588SOL    HW126663   3.854   2.746   0.202 -0.1340 -1.0133 -2.0652
 8588SOL    HW226664   3.719   2.837   0.192  1.0188  1.1332  0.7198
 8589SOL     OW26665   3.150   5.939   4.794 -1.1168  0.2278  0.0636
 8589SOL    HW126666   3.108   5.861   4.840 -0.7865  0.3877  0.6495
 8589SOL    HW226667   3.218   5.981   4.854 -1.9877  1.5725  0.1543
 8590SOL     OW26668   0.182   4.069   6.435  0.4919 -0.0437 -0.9517
 8590SOL    HW126669   0.125   4.027   6.506  2.4274  1.3775  1.5940
 8590SOL    HW226670   0.128   4.137   6.385 -1.4185 -2.3012 -2.2089
 8591SOL     OW26671   0.751   3.604   6.620 -0.0240  0.3349  0.2418
 8591SOL    HW126672   0.776   3.602   6.717 -0.8762  1.2433  0.4996
 8591SOL    HW226673   0.833   3.621   6.565  0.9595 -2.7535  0.5480
 8592SOL     OW26674   5.214   5.624   0.633 -0.4204 -0.0803  0.3162
 8592SOL    HW126675   5.169   5.607   0.545 -0.1879 -1.5191  0.4494
 8592SOL    HW226676   5.152   5.675   0.693 -0.9927 -0.0249 -0.3115
 8593SOL     OW26677   2.201   4.481   3.485 -0.4639  0.4990  0.7661
 8593SOL    HW126678   2.183   4.551   3.554 -2.3887  0.0633  0.7414
 8593SOL    HW226679   2.115   4.443   3.452  0.2111  1.6609 -2.9017
 8594SOL     OW26680   2.910   3.794   2.821  0.1138 -0.4421 -0.6618
 8594SOL    HW126681   2.956   3.830   2.902  0.6008 -0.1822 -1.0496
 8594SOL    HW226682   2.824   3.843   2.806 -0.1924 -0.7845 -0.0582
 8595SOL     OW26683   1.519   4.215   2.747  0.8644  0.0607 -0.2337
 8595SOL    HW126684   1.574   4.243   2.826  2.3851  0.8417 -1.5069
 8595SOL    HW226685   1.562   4.136   2.703  0.7158  0.3655 -0.9456
 8596SOL     OW26686   0.057   5.879   2.540  0.3372 -0.0859  0.2580
 8596SOL    HW126687   0.025   5.902   2.632 -1.8927  0.9141 -0.6959
 8596SOL    HW226688   0.012   5.796   2.508 -2.6157  2.0124 -1.5805
 8597SOL     OW26689   2.017   2.628   0.316 -1.0985  0.2695 -0.1120
 8597SOL    HW126690   2.047   2.676   0.398  0.0473 -0.0107 -0.3542
 8597SOL    HW226691   2.094   2.616   0.254 -1.7789 -0.2298 -0.8799
 8598SOL     OW26692   0.330   1.542   1.532  0.3231  0.1486  0.2486
 8598SOL    HW126693   0.269   1.609   1.491 -0.0932 -1.5451 -2.1093
 8598SOL    HW226694   0.293   1.513   1.621 -0.9945  0.9015 -0.0354
 8599SOL     OW26695   0.574   2.088   1.494 -0.3590  0.0968  0.0641
 8599SOL    HW126696   0.620   2.101   1.582 -1.0883  2.0764  0.2096
 8599SOL    HW226697   0.556   1.991   1.479  2.0977 -0.5374  0.8800
 8600SOL     OW26698   0.472   2.017   5.556 -0.5588 -0.1261  0.0575
 8600SOL    HW126699   0.525   2.017   5.471 -1.5746 -0.6744 -0.5911
 8600SOL    HW226700   0.525   2.063   5.628 -0.6822  2.6356 -1.4825
 8601SOL     OW26701   2.182   0.213   4.440 -0.3805  0.6829 -0.2591
 8601SOL    HW126702   2.200   0.130   4.387  1.3506  0.0527  1.1957
 8601SOL    HW226703   2.084   0.221   4.459 -0.4929 -1.5192  0.3222
 8602SOL     OW26704   2.352   0.645   2.336 -0.9847  0.1778  0.6222
 8602SOL    HW126705   2.397   0.655   2.425 -1.8772  1.9710  0.9178
 8602SOL    HW226706   2.302   0.558   2.335  0.9481 -1.0040  0.9328
 8603SOL     OW26707   5.483   3.203   1.449 -0.0559  0.0246 -0.2282
 8603SOL    HW126708   5.389   3.216   1.419  0.4502 -0.1639 -1.9958
 8603SOL    HW226709   5.483   3.167   1.543 -1.6895  1.0078  0.1886
 8604SOL     OW26710   5.317   2.806   3.868 -0.0114 -0.0363  0.8197
 8604SOL    HW126711   5.248   2.737   3.845 -0.8930  0.7407  1.1110
 8604SOL    HW226712   5.279   2.870   3.934  0.2200  1.7475 -0.7135
 8605SOL     OW26713   1.256   5.894   1.527 -0.7622 -0.0397 -0.3235
 8605SOL    HW126714   1.178   5.939   1.484 -1.0378 -0.6063 -0.4394
 8605SOL    HW226715   1.341   5.939   1.500 -1.1010  1.1597  0.5209
 8606SOL     OW26716   3.836   5.838   4.537  0.4884  0.5641  0.2908
 8606SOL    HW126717   3.935   5.844   4.551  0.7270  1.4639 -1.4625
 8606SOL    HW226718   3.818   5.792   4.450 -0.7212 -1.0363  1.3268
 8607SOL     OW26719   2.086   5.590   5.297 -0.3697 -0.0309  0.0557
 8607SOL    HW126720   2.086   5.584   5.197 -0.1092 -0.4794  0.0801
 8607SOL    HW226721   2.062   5.683   5.325 -2.5440 -0.3888 -0.3951
 8608SOL     OW26722   0.423   0.181   3.743  0.3236 -0.1377 -0.3510
 8608SOL    HW126723   0.490   0.245   3.781 -1.1950  2.2588 -1.4742
 8608SOL    HW226724   0.446   0.162   3.647 -0.5819  0.7721 -0.7717
 8609SOL     OW26725   5.862   6.243   4.970 -0.3659 -0.0426  0.0033
 8609SOL    HW126726   5.837   6.155   4.929 -0.7814  0.1607 -0.1727
 8609SOL    HW226727   5.841   6.241   5.068 -0.1492 -0.2234  0.0489
 8610SOL     OW26728   0.392   5.730   4.413 -0.0141  0.3364 -0.3954
 8610SOL    HW126729   0.450   5.762   4.488  0.0053  1.3233 -0.8127
 8610SOL    HW226730   0.335   5.654   4.444 -0.9017  1.5219  0.9836
 8611SOL     OW26731   1.081   2.227   2.833  0.4206 -0.2342 -0.4680
 8611SOL    HW126732   1.157   2.250   2.773 -0.3408 -0.2191 -1.4620
 8611SOL    HW226733   1.045   2.310   2.875 -0.4254  0.0581 -1.7192
 8612SOL     OW26734   6.188   3.532   4.451 -0.0520  0.0329  0.3690
 8612SOL    HW126735   6.166   3.437   4.426 -1.5305  0.5008 -0.2056
 8612SOL    HW226736   6.151   3.594   4.381 -0.1106  1.1069  1.3330
 8613SOL     OW26737   2.736   0.454   0.364 -0.3144 -0.2841 -0.7728
 8613SOL    HW126738   2.731   0.354   0.361 -1.0719 -0.3072  0.3909
 8613SOL    HW226739   2.645   0.492   0.347  0.0120  0.2168 -1.4162
 8614SOL     OW26740   1.828   2.417   1.972  0.3278 -0.2205  0.1421
 8614SOL    HW126741   1.924   2.397   1.954 -0.0751 -0.3673 -2.0769
 8614SOL    HW226742   1.792   2.351   2.038  2.2021  1.0500  2.5979
 8615SOL     OW26743   3.066   4.225   5.160 -0.4896 -0.0805  0.0029
 8615SOL    HW126744   3.046   4.322   5.178 -0.7362 -0.2911  0.9114
 8615SOL    HW226745   3.093   4.214   5.065 -0.1050  0.9478 -0.0244
 8616SOL     OW26746   6.212   2.271   1.754  0.3279 -0.1065  0.4014
 8616SOL    HW126747   6.119   2.241   1.772 -0.3466  2.2266  1.0207
 8616SOL    HW226748   6.236   2.347   1.814  1.0223  2.2952 -2.6278
 8617SOL     OW26749   6.726   2.025   2.541 -0.0245 -0.2159  0.3339
 8617SOL    HW126750   6.773   1.937   2.542  1.0842  0.3544  0.1357
 8617SOL    HW226751   6.639   2.017   2.589 -0.2673 -1.5873 -0.2727
 8618SOL     OW26752   2.943   2.169   3.617  0.1437 -0.1381  0.0990
 8618SOL    HW126753   3.009   2.103   3.580  0.4937  0.7333 -0.8593
 8618SOL    HW226754   2.882   2.200   3.544 -0.3220  0.2623  0.6471
 8619SOL     OW26755   5.080   6.578   0.656  0.2466 -0.2731 -0.4784
 8619SOL    HW126756   5.155   6.526   0.697 -1.3592 -1.2097  1.4244
 8619SOL    HW226757   5.071   6.666   0.702 -1.7248 -1.4332  1.5264
 8620SOL     OW26758   5.877   0.072   2.955 -0.5419  0.2341 -0.0902
 8620SOL    HW126759   5.974   0.046   2.957 -0.6676 -0.2250  0.3243
 8620SOL    HW226760   5.869   0.170   2.970 -0.1617  0.2128  0.2806
 8621SOL     OW26761   4.019   0.327   4.976  0.7995 -0.0290 -0.2860
 8621SOL    HW126762   3.983   0.307   5.067  3.0775 -0.2181  0.6343
 8621SOL    HW226763   4.079   0.407   4.981  2.3688 -1.1015 -1.2452
 8622SOL     OW26764   5.654   5.651   6.046 -0.8492 -0.0283 -0.2504
 8622SOL    HW126765   5.701   5.684   5.963 -1.6289  1.2492 -0.2208
 8622SOL    HW226766   5.631   5.555   6.035  1.9055 -0.7725 -0.1878
 8623SOL     OW26767   0.323   2.040   5.170 -0.1778 -0.2272 -0.1277
 8623SOL    HW126768   0.247   2.018   5.108  0.0626 -0.9035 -0.1868
 8623SOL    HW226769   0.409   2.011   5.128 -0.0002 -0.5484  0.4529
 8624SOL     OW26770   6.509   2.845   5.135 -0.2206  0.1409 -0.1077
 8624SOL    HW126771   6.465   2.906   5.200 -3.0452 -2.0143  0.1980
 8624SOL    HW226772   6.521   2.892   5.047  1.9600  2.4843  1.2992
 8625SOL     OW26773   3.106   1.245   5.527  0.0199  0.6517 -0.3564
 8625SOL    HW126774   3.196   1.255   5.571  0.1197 -2.1730  0.2172
 8625SOL    HW226775   3.034   1.256   5.596  0.0534 -0.1929 -0.1783
 8626SOL     OW26776   3.678   3.609   2.437 -0.5814  0.0438 -0.0304
 8626SOL    HW126777   3.682   3.514   2.469 -1.5946 -0.2838 -0.7917
 8626SOL    HW226778   3.588   3.626   2.396  0.1416  0.8472 -1.3712
 8627SOL     OW26779   3.024   0.018   5.116 -0.2928  0.6144  0.5711
 8627SOL    HW126780   3.007  -0.033   5.199  0.1016  1.8032  1.4166
 8627SOL    HW226781   2.952   0.086   5.103 -1.4654 -0.8515 -1.1674
 8628SOL     OW26782   6.984   6.734   1.452  0.4184 -0.3177  0.0790
 8628SOL    HW126783   7.066   6.759   1.399 -0.9417 -0.8325 -2.4120
 8628SOL    HW226784   6.909   6.712   1.390 -0.5405 -3.7470  2.1777
 8629SOL     OW26785   0.224   0.269   4.850  0.1324  0.4592  0.1567
 8629SOL    HW126786   0.137   0.316   4.865 -0.8339 -0.8739 -0.9245
 8629SOL    HW226787   0.238   0.202   4.923  0.5642  1.0867  0.6582
 8630SOL     OW26788   4.748   5.773   5.299  0.0534 -0.1326  0.4382
 8630SOL    HW126789   4.755   5.794   5.201 -2.3472 -2.6608 -0.3932
 8630SOL    HW226790   4.688   5.840   5.343 -0.3451 -0.0527 -0.2207
 8631SOL     OW26791   3.225   6.893   3.284  0.1865 -0.1343  0.0720
 8631SOL    HW126792   3.137   6.933   3.256 -0.2382 -1.5669 -0.7183
 8631SOL    HW226793   3.209   6.825   3.356  0.9235  1.1713  1.5307
 8632SOL     OW26794   4.200   1.106   3.345  0.0248  0.4935 -0.3989
 8632SOL    HW126795   4.126   1.086   3.409  0.9258 -0.4720  0.3834
 8632SOL    HW226796   4.188   1.050   3.263  0.2151 -0.1278 -0.0105
 8633SOL     OW26797   6.448   5.897   2.509 -0.2367  0.0507 -0.5914
 8633SOL    HW126798   6.465   5.926   2.603  0.4798  1.9809 -1.2707
 8633SOL    HW226799   6.374   5.951   2.470  0.8338  0.7450 -1.7582
 8634SOL     OW26800   5.373   6.094   6.222 -0.2414 -0.1106 -0.0944
 8634SOL    HW126801   5.403   6.180   6.264  0.5542 -1.3051  1.8783
 8634SOL    HW226802   5.294   6.113   6.162 -0.3915  1.9099  0.6538
 8635SOL     OW26803   5.690   4.432   6.079 -0.0010  0.5342  0.2268
 8635SOL    HW126804   5.789   4.428   6.096 -0.0822 -0.9310  0.5216
 8635SOL    HW226805   5.674   4.431   5.980  0.2707 -1.6464  0.1457
 8636SOL     OW26806   6.472   6.289   1.030 -0.3643  0.3831  0.0845
 8636SOL    HW126807   6.402   6.260   0.963  0.5503  1.7882 -1.5525
 8636SOL    HW226808   6.462   6.387   1.048  1.3883  0.7109 -0.5017
 8637SOL     OW26809   0.142   0.608   1.471  0.7307  0.5583 -0.1593
 8637SOL    HW126810   0.094   0.532   1.516 -1.2002  1.5611 -0.4063
 8637SOL    HW226811   0.208   0.648   1.535  1.6587 -1.1666  0.0364
 8638SOL     OW26812   6.461   4.743   0.853 -0.3282  0.5809  0.0410
 8638SOL    HW126813   6.472   4.774   0.758 -0.1854  1.9644  0.4840
 8638SOL    HW226814   6.380   4.684   0.860 -1.8475  2.5140 -0.4997
 8639SOL     OW26815   6.075   4.045   4.314  0.0651 -0.5888 -0.7189
 8639SOL    HW126816   6.130   4.071   4.393  1.9535  0.3212 -2.2581
 8639SOL    HW226817   5.984   4.083   4.322  0.7082  0.7980  0.3008
 8640SOL     OW26818   6.145   5.541   3.402  0.6248 -0.0874  0.1411
 8640SOL    HW126819   6.172   5.618   3.460  0.3453  1.5280 -1.7507
 8640SOL    HW226820   6.078   5.485   3.450 -0.6391  1.9642  0.9076
 8641SOL     OW26821   6.199   4.484   4.124  0.1944 -0.0735  0.1429
 8641SOL    HW126822   6.110   4.438   4.132  0.2591 -0.1240  0.5727
 8641SOL    HW226823   6.259   4.452   4.197  0.1044  1.0125  0.7050
 8642SOL     OW26824   4.740   1.181   2.286 -0.3549 -0.6091 -0.2305
 8642SOL    HW126825   4.757   1.083   2.284 -0.1278 -0.5959 -2.7447
 8642SOL    HW226826   4.658   1.202   2.233 -0.0266  0.6093 -0.2969
 8643SOL     OW26827   5.120   6.574   1.086  0.2879  0.0080 -0.0120
 8643SOL    HW126828   5.184   6.588   1.161 -1.4770 -0.1845  1.6284
 8643SOL    HW226829   5.056   6.651   1.081  0.6602  0.2536 -1.6670
 8644SOL     OW26830   6.530   2.435   4.867  0.0786  0.4346 -0.1263
 8644SOL    HW126831   6.556   2.359   4.808  2.9613  1.3446 -0.1969
 8644SOL    HW226832   6.446   2.477   4.832 -0.6149 -1.6051 -1.0760
 8645SOL     OW26833   6.414   4.386   2.463 -0.1809 -0.1122 -0.6597
 8645SOL    HW126834   6.458   4.299   2.441 -0.0383  0.5104 -3.0718
 8645SOL    HW226835   6.316   4.371   2.477  0.3790 -1.2997  3.5272
 8646SOL     OW26836   4.120   6.798   5.946 -0.4128  0.0250 -0.1556
 8646SOL    HW126837   4.151   6.738   6.020 -2.1883  0.3654  0.9310
 8646SOL    HW226838   4.102   6.745   5.864 -0.3831 -0.6631  0.2822
 8647SOL     OW26839   5.015   5.778   2.348 -0.1476  0.2710 -0.1641
 8647SOL    HW126840   5.076   5.839   2.399  1.0785 -0.9217 -0.1625
 8647SOL    HW226841   4.987   5.702   2.406 -0.4769  0.0406 -0.6198
 8648SOL     OW26842   5.303   6.073   3.517 -0.1553 -0.1434  0.7686
 8648SOL    HW126843   5.357   6.104   3.595  1.6072  2.8215 -1.4070
 8648SOL    HW226844   5.363   6.044   3.443 -1.7785 -3.8343  0.6533
 8649SOL     OW26845   0.744   3.415   5.801 -0.2562  0.5106 -0.0028
 8649SOL    HW126846   0.729   3.422   5.900 -0.4250  0.1896 -0.0038
 8649SOL    HW226847   0.719   3.502   5.758  0.1891  0.7806  0.2800
 8650SOL     OW26848   0.379   4.856   1.131  0.3211 -0.2974 -0.3581
 8650SOL    HW126849   0.434   4.911   1.194  0.4872 -1.4432  0.5138
 8650SOL    HW226850   0.286   4.848   1.167  0.3610 -0.7821 -0.3601
 8651SOL     OW26851   4.506   3.132   0.104  0.3197  0.6934  0.4375
 8651SOL    HW126852   4.562   3.049   0.105  0.2315  0.6265  1.5854
 8651SOL    HW226853   4.489   3.161   0.198 -0.6419  1.3422  0.0750
 8652SOL     OW26854   1.800   2.437   4.270 -0.0652 -0.2099  0.1753
 8652SOL    HW126855   1.818   2.361   4.208 -0.5530 -1.2943  1.3316
 8652SOL    HW226856   1.791   2.522   4.217 -1.1093 -1.2039 -1.3099
 8653SOL     OW26857   5.130   1.793   5.687  0.5032  0.1315 -0.4935
 8653SOL    HW126858   5.092   1.801   5.594 -1.8638  1.5554  0.4967
 8653SOL    HW226859   5.226   1.820   5.686  0.7609 -0.6787 -2.6479
 8654SOL     OW26860   1.930   3.214   1.282 -0.1715 -0.5818 -0.2056
 8654SOL    HW126861   1.991   3.158   1.338  0.7466  1.0870  0.5158
 8654SOL    HW226862   1.977   3.241   1.198 -1.2765 -2.4242 -1.4989
 8655SOL     OW26863   5.617   5.972   4.586 -0.2476 -0.5337 -0.2545
 8655SOL    HW126864   5.622   5.873   4.578 -0.4722 -0.5146 -0.6340
 8655SOL    HW226865   5.693   6.014   4.536 -0.4940 -0.4922 -0.5952
 8656SOL     OW26866   0.130   3.334   2.430  0.7014 -0.6261  0.0467
 8656SOL    HW126867   0.070   3.319   2.509 -0.4107  0.9635 -0.4372
 8656SOL    HW226868   0.122   3.429   2.399  1.6579 -1.0123 -1.5376
 8657SOL     OW26869   5.565   6.658   2.115 -1.1653  0.2325  0.3692
 8657SOL    HW126870   5.532   6.596   2.186 -1.6766  0.0052 -0.0627
 8657SOL    HW226871   5.505   6.738   2.111  0.0961  1.2971  1.6577
 8658SOL     OW26872   0.849   0.432   5.910 -0.9135  0.2048 -0.1351
 8658SOL    HW126873   0.875   0.434   5.814  0.7495  2.1352  0.2899
 8658SOL    HW226874   0.920   0.385   5.963 -0.6912  1.1336  0.4138
 8659SOL     OW26875   3.614   0.349   4.386 -0.0837 -0.3121 -0.0879
 8659SOL    HW126876   3.648   0.257   4.404  0.9949 -0.2200 -1.4643
 8659SOL    HW226877   3.690   0.414   4.392 -0.4928  0.2435 -0.8582
 8660SOL     OW26878   6.616   3.554   0.968 -0.3665 -0.1164 -0.3441
 8660SOL    HW126879   6.713   3.555   0.994 -0.6431  0.5172  0.7124
 8660SOL    HW226880   6.575   3.468   0.998 -0.8417  0.8782  2.0354
 8661SOL     OW26881   5.537   1.514   3.619 -0.1914 -0.6116  0.6635
 8661SOL    HW126882   5.606   1.509   3.690 -0.6126  0.0547  1.1354
 8661SOL    HW226883   5.541   1.432   3.562 -0.3258 -1.5022  1.8975
 8662SOL     OW26884   6.668   1.528   5.764 -0.8173 -0.4007 -0.2849
 8662SOL    HW126885   6.600   1.601   5.750 -0.6109 -0.4120 -1.4329
 8662SOL    HW226886   6.754   1.554   5.720  0.3653  0.1744  2.2158
 8663SOL     OW26887   3.323   0.381   1.911 -0.3465  0.0738 -0.4680
 8663SOL    HW126888   3.417   0.350   1.895  0.3138  0.7266  1.8903
 8663SOL    HW226889   3.311   0.473   1.873  0.0253  0.0766 -0.5792
 8664SOL     OW26890   5.742   5.358   2.099  0.3734 -0.3470  0.1391
 8664SOL    HW126891   5.755   5.265   2.067  2.1660  0.3113 -1.1861
 8664SOL    HW226892   5.684   5.408   2.035 -1.1599 -0.7026  1.2036
 8665SOL     OW26893   6.032   4.374   2.428  0.3911 -0.3180 -0.2354
 8665SOL    HW126894   6.073   4.445   2.371 -0.1753  0.2514  0.0618
 8665SOL    HW226895   5.991   4.304   2.370 -0.8165  0.6195 -0.5522
 8666SOL     OW26896   1.299   4.875   6.287 -0.4413 -0.1223 -0.2078
 8666SOL    HW126897   1.287   4.933   6.207 -0.1442  1.5595  0.9223
 8666SOL    HW226898   1.215   4.875   6.341 -0.8941 -1.8264 -0.8187
 8667SOL     OW26899   4.649   4.775   4.505 -0.1021 -0.0146  0.0085
 8667SOL    HW126900   4.610   4.755   4.595 -0.7227  0.6046 -0.1115
 8667SOL    HW226901   4.577   4.805   4.443  0.5205  0.9190 -0.2928
 8668SOL     OW26902   2.642   0.295   4.083 -0.0789 -0.6854  0.6645
 8668SOL    HW126903   2.607   0.270   3.993  1.3827  0.4722 -0.2826
 8668SOL    HW226904   2.600   0.381   4.113 -0.2720 -0.8664  0.9225
 8669SOL     OW26905   2.413   6.677   6.155  0.9141  0.1443  0.1255
 8669SOL    HW126906   2.408   6.777   6.165 -1.3266 -0.1381  3.3267
 8669SOL    HW226907   2.497   6.644   6.198  1.1094  0.5644  0.0745
 8670SOL     OW26908   3.830   4.444   6.252  0.9053 -0.2074 -0.1159
 8670SOL    HW126909   3.891   4.488   6.186 -0.0241  0.7320 -0.3717
 8670SOL    HW226910   3.738   4.483   6.245  0.4371 -1.0806  0.7680
 8671SOL     OW26911   6.412   5.132   1.210 -0.5233 -0.0263  0.2917
 8671SOL    HW126912   6.336   5.157   1.150 -0.5160  0.8856  0.6459
 8671SOL    HW226913   6.429   5.206   1.274  1.0960  0.0389 -0.1869
 8672SOL     OW26914   3.699   5.130   4.324  0.6719  0.0687  0.2047
 8672SOL    HW126915   3.712   5.101   4.419 -0.0867  2.2719  1.0532
 8672SOL    HW226916   3.780   5.180   4.293  0.0802  1.2341  0.4786
 8673SOL     OW26917   4.289   0.535   1.128  0.0398  0.0415 -0.5428
 8673SOL    HW126918   4.202   0.545   1.079 -1.2319 -0.0642  1.5946
 8673SOL    HW226919   4.319   0.440   1.123 -1.4651 -0.5505  1.0569
 8674SOL     OW26920   6.964   0.956   2.681  0.2047 -0.2062  0.0408
 8674SOL    HW126921   6.990   1.015   2.758  0.5884 -0.7035  0.2937
 8674SOL    HW226922   6.880   0.992   2.639 -0.4130 -0.3278  1.1246
 8675SOL     OW26923   3.783   0.153   2.447 -0.1181  0.1257 -0.3112
 8675SOL    HW126924   3.861   0.095   2.470  2.4881  3.2848 -0.5379
 8675SOL    HW226925   3.747   0.195   2.530 -0.0618  0.4345 -0.4399
 8676SOL     OW26926   4.448   1.436   5.341  0.0345  0.2766 -0.0398
 8676SOL    HW126927   4.459   1.497   5.420  1.1283  0.8589 -0.6309
 8676SOL    HW226928   4.351   1.433   5.315  0.1943  3.9929 -1.7121
 8677SOL     OW26929   2.035   4.419   4.573  0.0133 -0.6376  0.8387
 8677SOL    HW126930   1.967   4.369   4.627  0.0867 -1.4745  0.1630
 8677SOL    HW226931   2.124   4.374   4.581 -0.2656 -1.6594 -1.1204
 8678SOL     OW26932   2.848   2.522   5.258 -0.1499 -0.1484  0.5714
 8678SOL    HW126933   2.862   2.616   5.289  0.9921 -0.2394  0.3556
 8678SOL    HW226934   2.874   2.458   5.331 -0.6549 -0.3053  0.6168
 8679SOL     OW26935   5.748   3.482   5.481 -0.1545  0.4038 -0.1794
 8679SOL    HW126936   5.846   3.485   5.463  0.2752  1.2358  1.9849
 8679SOL    HW226937   5.730   3.514   5.575 -2.4251 -0.4363 -0.2612
 8680SOL     OW26938   1.818   2.250   5.642 -0.5247  0.0753 -0.2987
 8680SOL    HW126939   1.901   2.204   5.612  0.6441  0.9520  1.3592
 8680SOL    HW226940   1.773   2.294   5.564  0.0147 -1.2376 -1.3771
 8681SOL     OW26941   4.836   3.862   1.429  0.0965 -0.4842 -0.5787
 8681SOL    HW126942   4.738   3.871   1.412  0.5517  1.9063 -2.3771
 8681SOL    HW226943   4.861   3.920   1.507  0.2631 -0.1330 -0.8926
 8682SOL     OW26944   1.978   5.018   1.547  0.2173 -0.1210 -0.3026
 8682SOL    HW126945   1.895   4.965   1.562  0.8838 -0.7295  1.6064
 8682SOL    HW226946   1.972   5.105   1.598 -0.0285  0.7355 -1.7463
 8683SOL     OW26947   4.896   3.604   1.110  0.0730  0.0011  0.4120
 8683SOL    HW126948   4.916   3.697   1.079  1.4380 -0.7384 -1.1033
 8683SOL    HW226949   4.944   3.587   1.196  1.2331  0.1913 -0.1724
 8684SOL     OW26950   5.546   3.598   5.307 -0.2118 -0.2420  0.1847
 8684SOL    HW126951   5.580   3.570   5.397  2.8905  2.1390 -0.0582
 8684SOL    HW226952   5.602   3.555   5.236  0.3947  1.3761 -0.3658
 8685SOL     OW26953   6.469   2.518   0.096 -0.3539  0.2698 -0.5533
 8685SOL    HW126954   6.389   2.544   0.041  0.0259 -1.4828 -2.0214
 8685SOL    HW226955   6.454   2.546   0.191 -2.1722  1.0884 -1.0316
 8686SOL     OW26956   5.867   1.274   5.954  0.5164  0.0118 -0.2336
 8686SOL    HW126957   5.905   1.337   5.887 -0.3634 -0.0923 -0.8398
 8686SOL    HW226958   5.938   1.207   5.980  0.6217 -0.4954 -1.7223
 8687SOL     OW26959   3.145   1.548   1.573 -0.1679  0.3398  0.0886
 8687SOL    HW126960   3.098   1.463   1.550  1.7821 -0.5703 -0.8534
 8687SOL    HW226961   3.207   1.531   1.650  1.8700  0.2309 -1.4851
 8688SOL     OW26962   0.304   6.017   2.982 -0.1868  0.0946 -0.0296
 8688SOL    HW126963   0.386   6.018   3.041 -0.0759 -0.1449 -0.1817
 8688SOL    HW226964   0.318   6.081   2.906  0.2984 -0.7307 -0.6526
 8689SOL     OW26965   5.244   4.172   2.271 -0.2873  0.0113 -0.2280
 8689SOL    HW126966   5.186   4.201   2.346 -0.6484  0.6228 -0.7279
 8689SOL    HW226967   5.187   4.139   2.195  0.0535 -0.2816 -0.3592
 8690SOL     OW26968   1.483   2.345   1.484 -0.0728 -0.2155  0.0625
 8690SOL    HW126969   1.433   2.312   1.404  0.2487 -0.6192  0.0255
 8690SOL    HW226970   1.437   2.314   1.567  1.0977 -2.1613  0.0422
 8691SOL     OW26971   3.701   0.116   1.168  0.1645  0.4549 -0.2686
 8691SOL    HW126972   3.677   0.125   1.264 -3.4292  0.3241 -1.0384
 8691SOL    HW226973   3.727   0.021   1.149  1.2930  0.5695  0.5733
 8692SOL     OW26974   2.817   6.844   2.721  0.0205  0.1477 -0.1540
 8692SOL    HW126975   2.730   6.794   2.727 -0.1729  0.5347  0.2660
 8692SOL    HW226976   2.889   6.791   2.765 -0.6015  1.1811  2.2848
 8693SOL     OW26977   4.298   2.176   0.403  0.2199 -0.2415 -0.4003
 8693SOL    HW126978   4.282   2.272   0.383  0.5038  0.0424  0.6682
 8693SOL    HW226979   4.225   2.121   0.363  0.2207  0.3852 -1.2744
 8694SOL     OW26980   3.922   6.624   0.909  0.3650 -0.2238  0.6321
 8694SOL    HW126981   3.953   6.529   0.911  0.9511 -0.0339  0.8154
 8694SOL    HW226982   3.886   6.649   0.999 -0.3527 -0.4514  0.4125
 8695SOL     OW26983   3.028   3.996   4.458 -0.3269 -0.5464  0.0641
 8695SOL    HW126984   2.954   3.993   4.525 -2.1273  2.9888 -1.5013
 8695SOL    HW226985   3.001   3.945   4.376 -0.5645 -0.1796 -0.0874
 8696SOL     OW26986   3.861   5.101   0.541  0.1484 -0.2644 -0.3902
 8696SOL    HW126987   3.907   5.079   0.627 -1.8705  0.8790  1.0756
 8696SOL    HW226988   3.864   5.200   0.527 -0.2232 -0.3674 -1.2596
 8697SOL     OW26989   0.072   5.843   5.636 -0.3967  0.4131  0.0975
 8697SOL    HW126990   0.005   5.769   5.630 -0.8703  0.7347  1.2352
 8697SOL    HW226991   0.164   5.806   5.623 -0.7023 -0.2109 -0.3397
 8698SOL     OW26992   6.720   6.015   5.044 -0.0816  0.0008  0.1161
 8698SOL    HW126993   6.633   6.000   5.091 -0.4324 -0.8209 -0.7639
 8698SOL    HW226994   6.773   6.083   5.094 -1.8104  1.5754 -0.0572
 8699SOL     OW26995   2.029   6.349   4.063  0.3344  0.1872  0.5859
 8699SOL    HW126996   1.939   6.309   4.081 -0.7113  1.6758 -0.9590
 8699SOL    HW226997   2.078   6.293   3.997 -1.1327  1.3293 -1.5906
 8700SOL     OW26998   1.689   1.107   5.691  0.2732 -0.5570 -0.0091
 8700SOL    HW126999   1.669   1.185   5.750  0.0227 -0.0456 -0.7580
 8700SOL    HW227000   1.616   1.097   5.623  1.1195 -0.4098 -0.9679
 8701SOL     OW27001   1.903   0.042   3.930 -0.3796  0.1647 -0.1129
 8701SOL    HW127002   1.904   0.128   3.982  1.1756 -0.1961  0.4888
 8701SOL    HW227003   1.873  -0.032   3.990  0.8070 -0.1443  0.1181
 8702SOL     OW27004   3.292   0.696   6.174  0.3713  0.4541  0.2421
 8702SOL    HW127005   3.248   0.774   6.217  2.1965  0.9721  1.2357
 8702SOL    HW227006   3.364   0.660   6.233  0.4811 -1.1495 -0.7843
 8703SOL     OW27007   0.893   4.517   2.614 -0.5139  0.1178  0.2941
 8703SOL    HW127008   0.972   4.504   2.674  3.4198 -3.0777 -4.7219
 8703SOL    HW227009   0.896   4.608   2.573 -0.4251  0.5647  1.2676
 8704SOL     OW27010   1.421   4.158   0.390  0.1691 -0.4453 -0.2779
 8704SOL    HW127011   1.398   4.100   0.312  0.7103 -0.7123 -0.2354
 8704SOL    HW227012   1.503   4.124   0.435  1.3121  1.1281 -1.0718
 8705SOL     OW27013   4.978   0.939   4.523 -0.7590 -0.0943  0.1301
 8705SOL    HW127014   4.967   1.019   4.464 -4.5351 -0.0727  0.6289
 8705SOL    HW227015   4.979   0.856   4.467 -2.5078  0.0320 -0.1284
 8706SOL     OW27016   4.796   5.346   0.394  0.1710 -0.2071 -0.1421
 8706SOL    HW127017   4.699   5.329   0.377 -0.6427  2.2653  1.5260
 8706SOL    HW227018   4.850   5.301   0.323 -2.2606 -0.2346 -2.1299
 8707SOL     OW27019   5.507   1.151   6.865 -0.2805  0.2758  0.0443
 8707SOL    HW127020   5.536   1.082   6.800 -0.2923  1.1327 -0.8904
 8707SOL    HW227021   5.467   1.107   6.946 -1.0884 -0.7727 -0.9087
 8708SOL     OW27022   3.525   2.851   2.456 -0.0114 -0.2015 -0.1497
 8708SOL    HW127023   3.498   2.898   2.372  0.5391 -0.1940 -0.3288
 8708SOL    HW227024   3.536   2.753   2.438 -1.3892 -0.4566  0.2775
 8709SOL     OW27025   0.032   1.484   0.301  0.4798  0.3825  0.1236
 8709SOL    HW127026  -0.067   1.495   0.308  0.2357 -1.0400 -0.6545
 8709SOL    HW227027   0.069   1.554   0.240 -0.3401 -0.1798 -1.0686
 8710SOL     OW27028   0.426   4.258   4.386 -0.5100  0.0457 -0.2215
 8710SOL    HW127029   0.480   4.301   4.459 -0.6847 -1.1721  0.6534
 8710SOL    HW227030   0.397   4.328   4.320  1.1085  0.8977 -0.0622
 8711SOL     OW27031   2.084   0.759   5.393 -0.1508  0.1152 -0.0163
 8711SOL    HW127032   2.007   0.737   5.334 -0.2809  1.5597 -0.4219
 8711SOL    HW227033   2.058   0.831   5.457  0.1685 -0.9943  1.4345
 8712SOL     OW27034   4.843   1.104   6.564  0.3567  0.0064  0.3159
 8712SOL    HW127035   4.897   1.046   6.626  1.6167  0.6123 -0.1674
 8712SOL    HW227036   4.776   1.156   6.617  1.2455  0.3322  1.1667
 8713SOL     OW27037   4.776   4.709   3.137 -0.3218 -0.1346 -0.2339
 8713SOL    HW127038   4.771   4.609   3.136  1.1076 -0.3307  2.6181
 8713SOL    HW227039   4.687   4.746   3.164  0.0028 -0.8915  2.1001
 8714SOL     OW27040   3.447   0.571   2.578 -0.7178  0.6528 -0.4611
 8714SOL    HW127041   3.367   0.591   2.522 -0.1436 -0.7125 -1.8304
 8714SOL    HW227042   3.481   0.656   2.618 -1.0753  1.7035 -2.2880
 8715SOL     OW27043   5.481   2.644   1.677  0.1727  0.0795  0.0601
 8715SOL    HW127044   5.554   2.639   1.745  0.7078 -0.8099 -0.5527
 8715SOL    HW227045   5.435   2.555   1.670  0.0078  0.2044 -0.6041
 8716SOL     OW27046   2.526   1.788   3.433  0.3217 -0.0492  0.2137
 8716SOL    HW127047   2.461   1.719   3.402  0.0454 -0.5359  1.7949
 8716SOL    HW227048   2.557   1.766   3.525  1.3508  1.1582  0.1869
 8717SOL     OW27049   5.703   5.646   5.765 -0.5262 -0.8996  0.3479
 8717SOL    HW127050   5.626   5.709   5.751  0.0874 -0.3247 -0.6140
 8717SOL    HW227051   5.674   5.552   5.748 -0.4462 -0.4654 -2.5622
 8718SOL     OW27052   1.860   3.904   5.827  0.2658  0.1072 -0.1275
 8718SOL    HW127053   1.899   3.816   5.853 -2.1151 -0.7036  0.9791
 8718SOL    HW227054   1.905   3.977   5.879  1.3338 -0.5808 -0.0534
 8719SOL     OW27055   6.416   2.734   6.332  0.3325  0.3982  0.3877
 8719SOL    HW127056   6.464   2.667   6.275  3.5703  1.6192  1.4926
 8719SOL    HW227057   6.389   2.812   6.276  1.2454  0.4840  0.0536
 8720SOL     OW27058   3.219   2.688   5.767  0.3893 -0.6411 -0.1307
 8720SOL    HW127059   3.263   2.622   5.705 -1.2403 -3.7341  1.7660
 8720SOL    HW227060   3.280   2.706   5.844  0.5412 -0.4882 -0.2846
 8721SOL     OW27061   0.534   0.980   5.065  0.1448 -0.0769  0.2776
 8721SOL    HW127062   0.469   0.972   5.141  0.8518  1.7646  1.1268
 8721SOL    HW227063   0.491   1.027   4.989 -0.0566 -0.4735  0.1409
 8722SOL     OW27064   5.673   2.870   1.084 -0.6617 -0.4365  0.5509
 8722SOL    HW127065   5.684   2.965   1.056 -2.7433 -0.7106 -1.4254
 8722SOL    HW227066   5.666   2.866   1.184  1.9816  1.1332  0.9083
 8723SOL     OW27067   6.990   6.305   0.500 -0.5480 -0.1105  0.1527
 8723SOL    HW127068   7.054   6.228   0.506  1.1284  1.3112  1.4061
 8723SOL    HW227069   7.000   6.349   0.411 -0.4295 -0.4136  0.0122
 8724SOL     OW27070   3.106   5.354   6.275 -0.8759  0.4589 -0.1254
 8724SOL    HW127071   3.087   5.310   6.187 -1.0291  1.4754 -0.6158
 8724SOL    HW227072   3.130   5.285   6.343  0.4581 -0.2600 -1.2741
 8725SOL     OW27073   2.586   4.007   6.268  0.2964 -0.2412  0.0417
 8725SOL    HW127074   2.629   3.917   6.268 -1.5690 -1.1646  0.4802
 8725SOL    HW227075   2.638   4.069   6.327  2.5124 -0.5230 -1.4987
 8726SOL     OW27076   2.556   5.550   2.184 -0.3555 -0.1261  0.1825
 8726SOL    HW127077   2.493   5.486   2.140 -0.5427  0.1659  0.0228
 8726SOL    HW227078   2.520   5.643   2.175 -1.0000 -0.1585  1.9352
 8727SOL     OW27079   5.569   6.447   0.969  0.3416  0.3854  0.1138
 8727SOL    HW127080   5.555   6.545   0.955 -0.2304  0.3453  0.3804
 8727SOL    HW227081   5.595   6.405   0.882  0.5627  0.7684 -0.0082
 8728SOL     OW27082   1.545   5.355   6.949 -0.1194 -0.3797 -0.1620
 8728SOL    HW127083   1.632   5.316   6.917 -0.1759  0.1584 -1.0073
 8728SOL    HW227084   1.489   5.381   6.870 -0.4149  0.6884  0.3796
 8729SOL     OW27085   3.364   6.083   3.705 -0.0577  0.2467 -1.1583
 8729SOL    HW127086   3.265   6.082   3.722 -0.2600  1.6416 -2.0388
 8729SOL    HW227087   3.382   6.045   3.614  0.2243 -0.0492 -0.9800
 8730SOL     OW27088   4.775   6.111   1.368 -0.2327  0.7495  0.1316
 8730SOL    HW127089   4.692   6.105   1.313  1.0359 -0.6158 -1.7715
 8730SOL    HW227090   4.785   6.205   1.402 -2.2147  1.0857 -0.0813
 8731SOL     OW27091   0.864   0.641   2.016  0.4515  0.2779 -0.1481
 8731SOL    HW127092   0.880   0.702   1.939 -0.6364 -0.0840 -0.6801
 8731SOL    HW227093   0.927   0.663   2.090  0.9271  1.1954 -0.8163
 8732SOL     OW27094   6.146   0.380   3.118 -0.4732  0.5251 -0.4494
 8732SOL    HW127095   6.177   0.326   3.196  0.8154  0.0095 -1.2873
 8732SOL    HW227096   6.225   0.403   3.060 -1.2224  1.9509 -0.9572
 8733SOL     OW27097   6.407   5.573   5.931  0.0927 -0.4818 -0.3915
 8733SOL    HW127098   6.469   5.634   5.980 -2.1190  1.6159  0.0458
 8733SOL    HW227099   6.447   5.481   5.925  2.0381  0.0844  2.1443
 8734SOL     OW27100   0.338   6.321   2.372 -0.2491  0.1305  0.1015
 8734SOL    HW127101   0.357   6.412   2.335  0.9061  0.3712  1.2031
 8734SOL    HW227102   0.397   6.254   2.328 -0.3157  0.0892  0.0746
 8735SOL     OW27103   0.185   4.207   5.680 -0.4249 -0.1528  0.2466
 8735SOL    HW127104   0.148   4.174   5.594  0.6369 -1.8258  0.3687
 8735SOL    HW227105   0.115   4.205   5.751 -1.1213  0.5943 -0.4079
 8736SOL     OW27106   2.545   6.816   6.847  1.1836  0.2090 -0.3858
 8736SOL    HW127107   2.595   6.802   6.932  1.5141 -1.2904 -0.7903
 8736SOL    HW227108   2.566   6.741   6.783 -1.1448 -0.1916 -0.7754
 8737SOL     OW27109   3.837   4.252   0.362  0.0038  0.2861  0.3732
 8737SOL    HW127110   3.753   4.306   0.354  0.4541  0.9706  0.0805
 8737SOL    HW227111   3.842   4.211   0.453 -0.7945 -0.0157  0.2847
 8738SOL     OW27112   1.057   3.280   6.406 -0.0014  0.1996  0.2004
 8738SOL    HW127113   1.065   3.252   6.501 -0.9051 -0.5172  0.0823
 8738SOL    HW227114   1.126   3.350   6.386 -2.1432  3.2847  2.4614
 8739SOL     OW27115   0.467   2.184   4.172  0.1367 -0.5426  0.7659
 8739SOL    HW127116   0.443   2.087   4.178  0.7957 -0.8314 -0.8087
 8739SOL    HW227117   0.384   2.237   4.150  0.0737 -0.9791 -0.1046
 8740SOL     OW27118   2.756   6.279   6.396  0.2203  0.2170  0.0637
 8740SOL    HW127119   2.677   6.310   6.343  0.4069  0.3632 -0.1285
 8740SOL    HW227120   2.750   6.180   6.410 -0.5181  0.3660  0.9096
 8741SOL     OW27121   0.897   3.617   2.814  0.2358  0.0648  0.2578
 8741SOL    HW127122   0.957   3.647   2.888 -1.0660  0.1153  1.3256
 8741SOL    HW227123   0.952   3.598   2.733  1.8907 -1.4506  1.6583
 8742SOL     OW27124   5.921   5.873   1.917 -0.3961  0.0135  0.6363
 8742SOL    HW127125   5.833   5.903   1.879 -0.7311 -4.4084 -2.9767
 8742SOL    HW227126   5.905   5.812   1.994 -0.4533 -0.0243  0.5947
 8743SOL     OW27127   3.249   5.257   1.584  0.2375  0.4604  0.1703
 8743SOL    HW127128   3.272   5.353   1.564  0.5168  1.0431  2.9199
 8743SOL    HW227129   3.151   5.249   1.600  0.3749  0.5459  1.1020
 8744SOL     OW27130   3.900   5.367   4.933  0.6167  0.4509  0.2237
 8744SOL    HW127131   3.828   5.297   4.937  0.7090  0.1979 -1.6780
 8744SOL    HW227132   3.971   5.339   4.868  0.3847  2.5001 -1.0225
 8745SOL     OW27133   5.209   1.453   0.126  0.6024 -0.0171  0.2789
 8745SOL    HW127134   5.293   1.401   0.143  0.7355  0.3121  0.6343
 8745SOL    HW227135   5.175   1.432   0.034 -0.3980 -2.2022  1.0754
 8746SOL     OW27136   5.195   3.650   4.152 -0.4959 -0.1911 -0.3553
 8746SOL    HW127137   5.164   3.570   4.102  0.6481 -0.5327 -0.5433
 8746SOL    HW227138   5.197   3.630   4.250 -1.4052  0.0300 -0.2795
 8747SOL     OW27139   0.750   0.527   5.190 -0.1675  0.4702  0.3536
 8747SOL    HW127140   0.693   0.575   5.123 -0.1379 -0.4191 -0.3398
 8747SOL    HW227141   0.768   0.434   5.157 -2.0058 -0.7755  2.6291
 8748SOL     OW27142   3.561   6.881   4.669 -0.0577  0.5132  0.6212
 8748SOL    HW127143   3.649   6.870   4.623 -0.7689 -0.6667 -0.5277
 8748SOL    HW227144   3.576   6.881   4.768  1.0705 -2.0717  0.5550
 8749SOL     OW27145   4.369   1.229   2.778  0.0512 -0.0721 -0.1157
 8749SOL    HW127146   4.275   1.195   2.777 -0.7937  2.0412  1.1657
 8749SOL    HW227147   4.383   1.287   2.858  2.7232 -0.9659  0.1692
 8750SOL     OW27148   2.066   6.653   5.166  0.5113 -0.6453  0.5881
 8750SOL    HW127149   2.117   6.568   5.158  3.3570  0.4489  4.0922
 8750SOL    HW227150   2.120   6.728   5.128  1.9564  0.5510  4.4695
 8751SOL     OW27151   1.105   5.602   3.441  0.2030  0.2497 -0.0442
 8751SOL    HW127152   1.028   5.657   3.472  0.6688  1.6892 -1.3220
 8751SOL    HW227153   1.070   5.522   3.391 -0.4664 -0.3178  1.2910
 8752SOL     OW27154   3.811   7.019   0.830  0.0069 -0.0842 -0.0815
 8752SOL    HW127155   3.825   6.975   0.919 -0.3429  0.2777  0.1571
 8752SOL    HW227156   3.730   7.077   0.834 -0.3646 -0.5382 -0.8230
 8753SOL     OW27157   5.691   1.465   5.728  0.0221  0.2622 -0.0542
 8753SOL    HW127158   5.773   1.485   5.781 -0.1563  1.2048 -0.1174
 8753SOL    HW227159   5.632   1.546   5.727  0.5256  0.6871 -2.5689
 8754SOL     OW27160   1.635   1.749   5.499 -0.0671 -0.5381 -0.6674
 8754SOL    HW127161   1.718   1.783   5.543  0.8948 -0.3585 -2.5349
 8754SOL    HW227162   1.647   1.653   5.476 -0.7895 -0.7854 -0.0394
 8755SOL     OW27163   2.175   4.403   6.586 -0.1681  0.4324 -0.2784
 8755SOL    HW127164   2.090   4.413   6.535 -0.0714  1.0926 -0.3151
 8755SOL    HW227165   2.234   4.337   6.539  0.0047  1.1801 -1.1375
 8756SOL     OW27166   3.156   5.076   5.016 -0.2238  0.1303  0.2736
 8756SOL    HW127167   3.240   5.112   4.975 -1.8644  1.6764 -1.9851
 8756SOL    HW227168   3.162   5.083   5.116  2.1684  0.4667  0.1668
 8757SOL     OW27169   2.164   5.364   4.618 -0.4384  0.4796 -0.2848
 8757SOL    HW127170   2.108   5.437   4.655  1.4547  2.1369 -0.5665
 8757SOL    HW227171   2.120   5.328   4.535 -2.0711  0.3030  0.6211
 8758SOL     OW27172   4.827   7.001   3.433  0.2711  0.6236 -1.5302
 8758SOL    HW127173   4.920   7.038   3.421  1.1879 -0.6323  0.9167
 8758SOL    HW227174   4.762   7.077   3.439  1.6370  1.7747  0.0130
 8759SOL     OW27175   6.159   5.537   6.013  1.0241  0.3994 -0.5953
 8759SOL    HW127176   6.095   5.523   5.938  1.5689  0.9342 -1.1689
 8759SOL    HW227177   6.250   5.557   5.976  1.6809 -0.9674  0.1902
 8760SOL     OW27178   6.916   1.790   2.456  0.0004  0.4195  0.4200
 8760SOL    HW127179   6.910   1.701   2.410 -0.2841 -0.0611  1.3660
 8760SOL    HW227180   6.926   1.862   2.387  0.1450 -0.3295 -0.3657
 8761SOL     OW27181   5.782   5.929   0.692  0.1107 -0.1619 -0.2393
 8761SOL    HW127182   5.700   5.986   0.697  1.6650  2.0999  1.0998
 8761SOL    HW227183   5.790   5.874   0.775 -0.5920 -1.2488 -0.8665
 8762SOL     OW27184   2.911   6.051   1.901 -0.1004 -0.1574  0.0809
 8762SOL    HW127185   2.955   6.138   1.923 -0.7541  0.2102 -0.0304
 8762SOL    HW227186   2.886   6.004   1.986 -0.4352  0.1216  0.1381
 8763SOL     OW27187   0.762   5.537   0.691 -0.2630 -0.2180 -0.3095
 8763SOL    HW127188   0.789   5.493   0.605  0.5075 -0.4741  0.0563
 8763SOL    HW227189   0.664   5.525   0.706 -0.6625  0.9080 -1.7802
 8764SOL     OW27190   3.149   2.634   6.292  0.1984 -0.4281 -0.2572
 8764SOL    HW127191   3.058   2.674   6.277 -0.0728 -0.9834 -0.1092
 8764SOL    HW227192   3.199   2.691   6.358 -0.1394 -0.2607 -0.1416
 8765SOL     OW27193   5.056   6.966   4.103 -0.4070 -0.2438 -0.5347
 8765SOL    HW127194   4.992   6.967   4.026 -1.4494  0.2338  0.3022
 8765SOL    HW227195   5.026   7.033   4.171  0.2153 -0.9873  0.4950
 8766SOL     OW27196   2.715   5.421   2.371 -0.7322 -0.1041  0.3399
 8766SOL    HW127197   2.696   5.469   2.285 -0.9410 -1.2227 -0.2521
 8766SOL    HW227198   2.661   5.337   2.375 -0.3593 -0.3136  1.3567
 8767SOL     OW27199   4.092   6.628   5.721 -0.2903  0.3271 -0.2685
 8767SOL    HW127200   4.067   6.549   5.777 -1.1217  1.2264  0.6892
 8767SOL    HW227201   4.173   6.607   5.666 -0.8724 -1.3844 -0.5161
 8768SOL     OW27202   1.732   3.470   0.908  0.5653  0.0195  0.5018
 8768SOL    HW127203   1.729   3.370   0.902  0.2323  0.0350  0.4077
 8768SOL    HW227204   1.812   3.497   0.962  0.3351 -0.3214  1.0338
 8769SOL     OW27205   0.109   1.155   0.681 -0.6079  0.2445  1.1689
 8769SOL    HW127206   0.012   1.180   0.682 -0.3823  1.1250  1.7004
 8769SOL    HW227207   0.162   1.224   0.729  0.0657 -1.1649  2.5589
 8770SOL     OW27208   5.183   0.824   3.426  0.6405 -0.1361 -0.3258
 8770SOL    HW127209   5.200   0.894   3.495 -1.1059  0.3909 -0.3801
 8770SOL    HW227210   5.190   0.734   3.468  1.0040  0.1345  0.2029
 8771SOL     OW27211   3.621   3.430   5.241 -0.1011 -0.2318 -0.1453
 8771SOL    HW127212   3.640   3.527   5.230 -1.3434 -0.0971 -1.3789
 8771SOL    HW227213   3.553   3.401   5.173 -1.0960 -1.5638  1.3323
 8772SOL     OW27214   0.915   0.154   6.150  0.1749  0.5674 -0.0288
 8772SOL    HW127215   0.947   0.158   6.245  0.4057  0.1683 -0.0895
 8772SOL    HW227216   0.979   0.201   6.091  0.0170  0.8402  0.0160
 8773SOL     OW27217   2.623   1.418   2.498 -0.6173  0.0015 -0.6378
 8773SOL    HW127218   2.693   1.398   2.429 -0.9509  0.1519 -1.0232
 8773SOL    HW227219   2.616   1.517   2.512  0.6990 -0.0792  0.9251
 8774SOL     OW27220   3.053   0.672   5.004  0.0119  0.4434 -0.2444
 8774SOL    HW127221   3.077   0.627   5.090  0.5972 -0.2666 -0.7611
 8774SOL    HW227222   3.074   0.769   5.009  0.3091  0.3507  0.3157
 8775SOL     OW27223   6.693   0.213   6.062  0.0017  0.5829  0.0082
 8775SOL    HW127224   6.780   0.164   6.052 -0.0177  0.6511 -0.5198
 8775SOL    HW227225   6.671   0.260   5.976 -0.1872  1.1726  0.3697
 8776SOL     OW27226   2.423   3.488   5.869  0.0381 -0.7518 -0.6205
 8776SOL    HW127227   2.372   3.448   5.945  0.2433  1.8787  1.0318
 8776SOL    HW227228   2.471   3.416   5.820 -0.3605 -2.6160  1.5447
 8777SOL     OW27229   5.918   5.036   2.869  0.0937  0.5596  0.0374
 8777SOL    HW127230   5.960   5.086   2.945 -0.5102 -0.4260  1.0542
 8777SOL    HW227231   5.860   4.963   2.906 -0.4055  0.2202 -1.3811
 8778SOL     OW27232   0.365   2.685   2.564 -0.3092  0.1045  0.3716
 8778SOL    HW127233   0.273   2.692   2.526 -0.1493 -0.7817 -0.1974
 8778SOL    HW227234   0.433   2.690   2.490  0.0880  0.3891  0.7486
 8779SOL     OW27235   0.006   5.443   0.420 -0.3033 -0.0693  0.6244
 8779SOL    HW127236  -0.046   5.493   0.351 -0.3962 -0.8302  0.1336
 8779SOL    HW227237   0.054   5.508   0.479 -0.6455  0.6003  0.1798
 8780SOL     OW27238   1.873   5.051   4.852  0.2487  0.3569 -0.1594
 8780SOL    HW127239   1.816   5.053   4.935  2.1535  2.5100  1.2287
 8780SOL    HW227240   1.908   4.958   4.838 -2.8144 -0.8405 -0.5948
 8781SOL     OW27241   0.236   2.672   3.362  0.1557 -0.1859 -0.2724
 8781SOL    HW127242   0.258   2.766   3.336  0.0356  0.1090  0.6531
 8781SOL    HW227243   0.145   2.648   3.329 -1.2369  1.1825  2.2347
 8782SOL     OW27244   5.311   1.110   4.020  0.2120  0.0130  0.0837
 8782SOL    HW127245   5.325   1.011   4.025  1.3958  0.1827  0.4311
 8782SOL    HW227246   5.340   1.143   3.931  0.7310  0.1688  0.3045
 8783SOL     OW27247   5.791   0.979   6.851  0.6554 -0.3772 -0.4824
 8783SOL    HW127248   5.877   0.955   6.804  0.5956 -0.3488 -0.6085
 8783SOL    HW227249   5.794   1.076   6.878  0.7463 -0.4295 -0.3045
 8784SOL     OW27250   5.903   2.818   6.188 -0.2139 -0.4319  0.0269
 8784SOL    HW127251   5.939   2.842   6.098  0.1105 -1.3125 -0.0850
 8784SOL    HW227252   5.805   2.839   6.190 -0.4362 -1.2655 -0.8688
 8785SOL     OW27253   3.439   4.135   5.701 -0.1775  0.2871 -0.3380
 8785SOL    HW127254   3.382   4.128   5.619 -0.8711 -2.1430  0.2547
 8785SOL    HW227255   3.386   4.178   5.775 -0.9808 -1.0622 -0.0819
 8786SOL     OW27256   1.493   6.434   5.868 -0.1471 -0.2298 -0.5418
 8786SOL    HW127257   1.478   6.389   5.956 -2.1331  0.0133 -0.7216
 8786SOL    HW227258   1.448   6.381   5.796 -0.4389  0.7516 -1.0966
 8787SOL     OW27259   2.468   2.496   5.747  0.4979  0.4557  0.0018
 8787SOL    HW127260   2.431   2.588   5.732 -0.2813  0.2926  0.8643
 8787SOL    HW227261   2.556   2.487   5.699 -0.4587  0.9177 -1.9415
 8788SOL     OW27262   1.713   3.013   3.711  0.3474 -0.5603 -0.0562
 8788SOL    HW127263   1.670   2.967   3.788  0.2909  0.5562  0.6004
 8788SOL    HW227264   1.740   3.106   3.738 -0.8486  0.3262 -1.7424
 8789SOL     OW27265   5.907   2.747   1.014 -0.0021 -0.3764  0.0908
 8789SOL    HW127266   5.976   2.790   1.073 -0.0252 -0.2989  0.0615
 8789SOL    HW227267   5.816   2.772   1.046 -0.0162 -0.4363  0.0979
 8790SOL     OW27268   3.706   2.064   0.791 -0.0499 -0.7005 -0.3998
 8790SOL    HW127269   3.665   2.114   0.715 -1.0780  2.8340  2.2042
 8790SOL    HW227270   3.634   2.013   0.840 -0.5164  1.2482  1.0901
 8791SOL     OW27271   6.093   6.712   4.180  0.2036  0.2493 -0.2602
 8791SOL    HW127272   6.056   6.770   4.108 -1.3914 -0.1202  0.2241
 8791SOL    HW227273   6.052   6.737   4.268  1.7850  0.3970  0.4617
 8792SOL     OW27274   6.898   1.292   2.551  0.2060  0.2183 -0.7436
 8792SOL    HW127275   6.848   1.224   2.604  0.2629  0.2651 -0.6313
 8792SOL    HW227276   6.943   1.248   2.473  0.4818  0.0836 -0.5072
 8793SOL     OW27277   0.921   6.812   3.186 -0.4088  0.0386 -0.2120
 8793SOL    HW127278   0.955   6.854   3.102 -0.3399 -1.8844 -1.1864
 8793SOL    HW227279   0.827   6.782   3.173 -0.9198  1.0495  0.9201
 8794SOL     OW27280   2.510   6.989   2.764 -0.1531 -0.4498  0.3319
 8794SOL    HW127281   2.495   7.075   2.716 -0.0445 -1.6335 -1.9706
 8794SOL    HW227282   2.560   6.926   2.705 -2.4621 -2.9949  0.8782
 8795SOL     OW27283   2.874   1.086   3.636  0.0272 -0.0999 -0.4201
 8795SOL    HW127284   2.965   1.125   3.628  0.1632 -0.5358 -1.1006
 8795SOL    HW227285   2.838   1.103   3.727  0.7286  0.2074 -0.1963
 8796SOL     OW27286   6.665   2.842   6.054  0.1440 -0.4165  0.4690
 8796SOL    HW127287   6.695   2.828   5.960  1.8748  0.0029  0.9184
 8796SOL    HW227288   6.682   2.759   6.107 -1.4479 -0.8887  0.3001
 8797SOL     OW27289   6.407   5.643   0.555 -0.3343  0.3893  0.1912
 8797SOL    HW127290   6.318   5.637   0.601  0.2107 -0.7672  1.1406
 8797SOL    HW227291   6.418   5.735   0.517 -1.8329  0.6241  0.2500
 8798SOL     OW27292   2.694   3.284   5.282 -0.2215  0.1466  0.4696
 8798SOL    HW127293   2.678   3.218   5.355  1.0463  0.6763  1.2680
 8798SOL    HW227294   2.690   3.238   5.193 -1.1031 -0.6413  0.9030
 8799SOL     OW27295   3.675   1.512   1.026 -0.3327 -0.0355  0.0377
 8799SOL    HW127296   3.677   1.512   1.126 -0.5838  2.2551  0.0912
 8799SOL    HW227297   3.619   1.435   0.994  1.0881 -1.8085  1.5546
 8800SOL     OW27298   3.588   4.028   0.704 -0.1759  0.2668  0.3143
 8800SOL    HW127299   3.594   4.081   0.789 -0.9186  0.8779 -0.0032
 8800SOL    HW227300   3.506   3.971   0.706  0.1673 -0.2271  0.2942
 8801SOL     OW27301   3.375   0.162   4.629  0.0733  0.4222 -0.7186
 8801SOL    HW127302   3.454   0.152   4.690  0.0820 -0.2295 -0.8271
 8801SOL    HW227303   3.301   0.208   4.678 -0.9976 -2.6677  0.8409
 8802SOL     OW27304   2.398   5.776   1.281  0.0600  0.2515 -0.0316
 8802SOL    HW127305   2.382   5.756   1.377  1.4854  0.2661  0.2305
 8802SOL    HW227306   2.480   5.833   1.272 -2.0507  3.3668 -0.9971
 8803SOL     OW27307   5.453   1.318   2.164 -0.1924 -0.0491  0.3221
 8803SOL    HW127308   5.541   1.275   2.184  0.4088  0.6884 -0.6763
 8803SOL    HW227309   5.464   1.385   2.090 -1.9635 -1.3034 -1.1552
 8804SOL     OW27310   2.543   1.717   1.287  0.4660  0.4086 -0.4218
 8804SOL    HW127311   2.571   1.787   1.221  2.7984  0.9912  1.0309
 8804SOL    HW227312   2.521   1.761   1.374 -2.1888 -0.3714 -0.6334
 8805SOL     OW27313   5.986   0.192   4.694  0.3084 -0.0016  0.4830
 8805SOL    HW127314   6.046   0.170   4.618 -0.9836 -0.0375 -0.5711
 8805SOL    HW227315   6.026   0.266   4.749  1.6377 -0.5386  0.2700
 8806SOL     OW27316   2.239   5.726   1.068  0.5838 -0.1962  0.0104
 8806SOL    HW127317   2.149   5.687   1.091 -0.3379  1.9557  0.3630
 8806SOL    HW227318   2.301   5.715   1.146 -0.3735  0.9665  0.9864
 8807SOL     OW27319   1.576   4.648   0.451  0.1424 -0.3508 -0.2194
 8807SOL    HW127320   1.503   4.581   0.460 -0.2708  0.1749  0.4673
 8807SOL    HW227321   1.539   4.739   0.470  0.5171  0.1754 -1.8618
 8808SOL     OW27322   5.757   1.369   1.116  0.4278  0.0178  0.4509
 8808SOL    HW127323   5.706   1.434   1.058 -2.2936  0.2100  2.8408
 8808SOL    HW227324   5.778   1.412   1.204  0.0548 -1.7746  1.4637
 8809SOL     OW27325   6.404   4.009   6.523  0.5155  0.3941 -0.0320
 8809SOL    HW127326   6.408   4.027   6.425 -1.5318  1.0762 -0.0470
 8809SOL    HW227327   6.308   4.008   6.552  0.8484 -3.0432  1.4000
 8810SOL     OW27328   4.888   1.835   3.818  0.6449  0.0948  0.1304
 8810SOL    HW127329   4.845   1.748   3.792  0.4469 -0.0271  0.8447
 8810SOL    HW227330   4.986   1.831   3.797  0.1128  0.9605 -3.0055
 8811SOL     OW27331   0.828   0.718   5.547 -0.2035  0.1835 -0.2505
 8811SOL    HW127332   0.836   0.619   5.538 -3.0687 -0.0663 -1.0480
 8811SOL    HW227333   0.906   0.762   5.503  1.2176 -1.6684  0.2772
 8812SOL     OW27334   2.111   1.366   6.883 -0.0732  0.0338 -0.5288
 8812SOL    HW127335   2.105   1.267   6.895  2.0894 -0.1922 -0.8198
 8812SOL    HW227336   2.165   1.386   6.801  1.8871  1.3748  0.9877
 8813SOL     OW27337   0.407   6.174   7.009  0.1710 -0.6845 -0.3148
 8813SOL    HW127338   0.344   6.105   7.046 -1.5403  0.6243 -0.6626
 8813SOL    HW227339   0.412   6.164   6.910  0.9509 -1.1201 -0.2366
 8814SOL     OW27340   5.603   6.676   4.806  0.7329  0.0469 -0.5149
 8814SOL    HW127341   5.666   6.605   4.837  3.5190  2.5571  0.0253
 8814SOL    HW227342   5.617   6.760   4.860 -0.9219  1.6849 -2.4423
 8815SOL     OW27343   6.969   5.211   3.037 -0.2477 -0.0680  0.4172
 8815SOL    HW127344   7.006   5.259   3.117  2.5047 -1.0721 -0.1212
 8815SOL    HW227345   6.873   5.190   3.052  0.4604 -1.4834  4.1411
 8816SOL     OW27346   6.349   6.767   3.468  0.5933  0.1175 -0.2935
 8816SOL    HW127347   6.355   6.669   3.483  0.1353  0.3529  1.7647
 8816SOL    HW227348   6.273   6.787   3.407  0.5337 -0.7799 -0.5253
 8817SOL     OW27349   1.681   3.533   4.587  0.5346  0.0781  0.1438
 8817SOL    HW127350   1.657   3.603   4.654  0.1579 -0.1213  0.2201
 8817SOL    HW227351   1.735   3.462   4.632  1.5550  0.6771 -0.0937
 8818SOL     OW27352   0.600   4.342   4.662 -0.0895 -0.0756  0.0707
 8818SOL    HW127353   0.589   4.266   4.725  2.0675 -0.1391  0.4322
 8818SOL    HW227354   0.680   4.327   4.604 -0.0516  1.5688 -0.3603
 8819SOL     OW27355   6.242   1.829   3.510  0.0979  0.2218 -0.0543
 8819SOL    HW127356   6.213   1.769   3.585  1.5481  0.2170  0.5395
 8819SOL    HW227357   6.335   1.862   3.528 -0.2952  1.8612 -0.8627
 8820SOL     OW27358   1.602   2.780   5.233  0.2151  0.2479  0.2052
 8820SOL    HW127359   1.672   2.798   5.301  0.2865  0.8554 -0.0216
 8820SOL    HW227360   1.520   2.832   5.255 -0.6181 -1.4161  1.1603
 8821SOL     OW27361   0.479   6.197   0.485 -0.1800  0.2047  0.4475
 8821SOL    HW127362   0.501   6.100   0.498 -1.7167 -0.5131 -1.6584
 8821SOL    HW227363   0.562   6.252   0.494  1.0904 -1.5237 -0.0955
 8822SOL     OW27364   2.140   2.107   1.466  0.0975  0.2364  0.3663
 8822SOL    HW127365   2.237   2.123   1.447 -0.2548  1.4304 -0.5700
 8822SOL    HW227366   2.130   2.026   1.524  1.5268 -1.0725 -1.0984
 8823SOL     OW27367   3.954   6.250   6.693  0.2682  0.5379 -0.3546
 8823SOL    HW127368   3.943   6.303   6.777  1.0462 -0.0855  0.1515
 8823SOL    HW227369   3.951   6.311   6.614  0.4581  1.2464  0.1805
 8824SOL     OW27370   5.438   5.554   1.575 -0.1263  0.6487  0.1205
 8824SOL    HW127371   5.509   5.576   1.643 -1.1600  1.4308  0.9732
 8824SOL    HW227372   5.388   5.637   1.551  0.6491  0.5286 -2.1605
 8825SOL     OW27373   1.939   3.269   0.201 -0.4298 -0.0660 -0.0470
 8825SOL    HW127374   1.894   3.351   0.237  0.0369 -0.2840  1.0521
 8825SOL    HW227375   1.882   3.189   0.217 -0.6236 -0.0461 -0.6065
 8826SOL     OW27376   6.523   5.222   2.616 -0.6551  0.7510 -0.0916
 8826SOL    HW127377   6.500   5.167   2.697  2.6493 -0.6307  0.0252
 8826SOL    HW227378   6.500   5.171   2.533  0.7839 -0.1001  0.0163
 8827SOL     OW27379   0.760   1.204   4.160  0.2019  0.2587 -0.5418
 8827SOL    HW127380   0.829   1.276   4.154 -0.8351  1.3042 -0.2344
 8827SOL    HW227381   0.784   1.130   4.098  1.1091  1.0089 -1.1157
 8828SOL     OW27382   1.005   0.209   1.267  0.2166  0.6825 -0.6670
 8828SOL    HW127383   0.969   0.264   1.192  1.5388  0.9901 -1.1002
 8828SOL    HW227384   1.087   0.160   1.236  0.0399 -0.1837  0.2107
 8829SOL     OW27385   0.117   6.390   1.731  0.4379 -0.6376 -0.4460
 8829SOL    HW127386   0.031   6.432   1.700 -0.0277 -2.3761 -1.6894
 8829SOL    HW227387   0.112   6.373   1.830 -0.5055 -0.4015 -0.4433
 8830SOL     OW27388   0.124   2.196   2.266  0.2489  0.4326  0.3186
 8830SOL    HW127389   0.155   2.242   2.182  3.2804 -0.5745  0.7695
 8830SOL    HW227390   0.141   2.256   2.344 -0.5335  0.5090  0.4335
 8831SOL     OW27391   0.849   0.787   0.002  0.5424  0.0257 -0.1242
 8831SOL    HW127392   0.882   0.710  -0.053  0.2278 -0.0807 -0.1690
 8831SOL    HW227393   0.752   0.803  -0.020  0.6800  0.6077 -0.3161
 8832SOL     OW27394   6.294   6.847   1.526 -0.1633 -0.2453 -0.5601
 8832SOL    HW127395   6.391   6.841   1.547 -0.6955 -0.7486  2.2634
 8832SOL    HW227396   6.281   6.886   1.435  2.6245  0.4710 -0.7342
 8833SOL     OW27397   6.359   5.216   1.684 -0.5101  0.2960  0.1962
 8833SOL    HW127398   6.354   5.303   1.635 -0.5835  1.4070  2.0984
 8833SOL    HW227399   6.268   5.174   1.688 -0.5376  0.2939 -0.4359
 8834SOL     OW27400   6.334   2.714   4.857 -0.3293 -0.6363  0.6690
 8834SOL    HW127401   6.282   2.754   4.782 -0.8297 -1.5449  0.5196
 8834SOL    HW227402   6.331   2.775   4.937 -2.0675 -0.8969  0.8412
 8835SOL     OW27403   1.666   2.042   0.749 -0.4556  0.6867  0.0494
 8835SOL    HW127404   1.604   1.964   0.755 -2.0076  1.9482  2.8763
 8835SOL    HW227405   1.613   2.126   0.738  0.9682  1.6108 -0.1165
 8836SOL     OW27406   6.088   2.603   2.934  0.9402 -0.0485 -0.0491
 8836SOL    HW127407   6.122   2.592   2.840  1.0394 -1.3218  0.1160
 8836SOL    HW227408   6.091   2.514   2.981 -1.9125 -0.1135  0.2007
 8837SOL     OW27409   0.850   3.992   0.764  0.5924 -0.0825  0.3997
 8837SOL    HW127410   0.867   3.923   0.834  1.0380  1.0208  1.4032
 8837SOL    HW227411   0.751   4.002   0.750  0.4263  0.7828  2.0112
 8838SOL     OW27412   1.096   0.208   4.177 -0.6466  0.0988 -0.0447
 8838SOL    HW127413   1.085   0.281   4.244 -0.6271 -0.1400  0.2168
 8838SOL    HW227414   1.082   0.120   4.221 -2.4299  0.0087 -0.7191
 8839SOL     OW27415   4.807   5.218   4.014  0.1479  0.5311 -1.0352
 8839SOL    HW127416   4.891   5.166   3.997 -0.9933 -1.2044 -1.6524
 8839SOL    HW227417   4.756   5.226   3.928 -1.3198 -0.3133 -0.2765
 8840SOL     OW27418   6.354   1.285   3.381 -0.6241  0.0278 -0.1102
 8840SOL    HW127419   6.290   1.209   3.386  0.2648 -0.6706  2.7397
 8840SOL    HW227420   6.439   1.254   3.337 -1.3897  0.3654 -1.9314
 8841SOL     OW27421   4.613   5.761   4.596  0.5392  0.1340 -0.6408
 8841SOL    HW127422   4.580   5.733   4.506  0.3725  0.5455 -0.7069
 8841SOL    HW227423   4.642   5.679   4.647  1.3465 -0.0336 -1.3399
 8842SOL     OW27424   1.940   0.797   0.749  0.1034  0.5735  0.3977
 8842SOL    HW127425   1.983   0.814   0.838  0.0545  2.4609  0.1098
 8842SOL    HW227426   1.926   0.884   0.702 -1.9753 -0.1961 -0.4983
 8843SOL     OW27427   0.955   3.321   3.496 -0.0677 -0.0798 -0.7662
 8843SOL    HW127428   1.051   3.326   3.467  0.0159  2.8452 -0.3649
 8843SOL    HW227429   0.900   3.380   3.437 -1.2232 -0.0191  0.3327
 8844SOL     OW27430   6.807   3.403   6.925  0.7969  0.0661  0.2448
 8844SOL    HW127431   6.865   3.325   6.901  0.7072  0.2492 -0.6062
 8844SOL    HW227432   6.736   3.415   6.855  0.5588  0.6548  0.5787
 8845SOL     OW27433   4.339   4.254   1.446 -0.0549  0.1448  0.6980
 8845SOL    HW127434   4.352   4.195   1.367 -0.5756 -1.0066  1.4578
 8845SOL    HW227435   4.302   4.202   1.522  0.6174  1.1834  1.7850
 8846SOL     OW27436   3.734   5.776   5.084  0.6969 -0.4779 -0.0816
 8846SOL    HW127437   3.732   5.679   5.060 -1.3482 -0.4720 -0.0839
 8846SOL    HW227438   3.734   5.831   5.000 -0.1267 -0.4722 -0.0784
 8847SOL     OW27439   2.015   2.116   4.487  0.3505  0.5636 -0.0492
 8847SOL    HW127440   1.957   2.035   4.483 -1.1441  1.6330 -1.5977
 8847SOL    HW227441   2.099   2.100   4.435 -0.4292  0.3543 -1.2816
 8848SOL     OW27442   0.317   0.855   3.985  0.5582 -0.2375  0.0760
 8848SOL    HW127443   0.237   0.847   3.924  0.8662  2.6890 -0.8499
 8848SOL    HW227444   0.331   0.951   4.009  3.6979 -0.6829  0.3790
 8849SOL     OW27445   2.211   6.440   1.076 -0.6721 -0.0724  0.0462
 8849SOL    HW127446   2.112   6.444   1.062 -0.7003  0.9789  0.4910
 8849SOL    HW227447   2.233   6.466   1.170  0.1212  0.9906 -0.4174
 8850SOL     OW27448   2.155   1.307   1.431 -0.0982 -0.3642  0.2366
 8850SOL    HW127449   2.094   1.299   1.352  0.6210 -0.1595 -0.3505
 8850SOL    HW227450   2.197   1.219   1.449  0.9590 -0.0565 -0.6227
 8851SOL     OW27451   2.079   3.135   1.671 -0.1349  0.2456 -0.1801
 8851SOL    HW127452   2.112   3.041   1.675  0.5936  0.5381  1.9747
 8851SOL    HW227453   1.980   3.135   1.656 -0.3819 -0.9297  1.2430
 8852SOL     OW27454   1.586   1.981   6.464  0.0833 -0.2759 -0.0687
 8852SOL    HW127455   1.609   2.076   6.443  0.4699 -0.6758 -1.6050
 8852SOL    HW227456   1.655   1.921   6.425  0.0807 -1.1889  1.2784
 8853SOL     OW27457   2.682   1.807   1.676 -0.1686 -0.6454  0.0691
 8853SOL    HW127458   2.778   1.817   1.700 -0.1573  2.4204 -0.8228
 8853SOL    HW227459   2.630   1.777   1.756  1.3763 -1.4252  0.8066
 8854SOL     OW27460   6.400   3.689   4.536  0.0979  0.2189 -0.1956
 8854SOL    HW127461   6.331   3.626   4.500 -0.8841  0.2924  1.4452
 8854SOL    HW227462   6.460   3.718   4.462 -0.7789 -0.9241 -1.4146
 8855SOL     OW27463   5.942   6.730   2.264  0.0989  0.4078  0.0561
 8855SOL    HW127464   5.887   6.647   2.269  0.3499  0.2278 -0.2041
 8855SOL    HW227465   6.028   6.717   2.314  0.2182  0.4485 -0.1373
 8856SOL     OW27466   6.368   1.117   6.137 -0.0375 -0.6955 -0.0233
 8856SOL    HW127467   6.344   1.038   6.081  0.9327  0.0455 -1.5526
 8856SOL    HW227468   6.362   1.200   6.082 -1.3880  0.3866  1.6378
 8857SOL     OW27469   6.690   3.558   5.553 -0.4902 -0.4032  0.0087
 8857SOL    HW127470   6.708   3.607   5.638  0.3783  1.1139 -0.9839
 8857SOL    HW227471   6.771   3.504   5.528 -0.4451 -0.2345 -0.2211
 8858SOL     OW27472   6.433   3.840   6.940 -0.8580  0.1311 -0.6126
 8858SOL    HW127473   6.397   3.779   7.011 -0.3715  0.5183 -0.0228
 8858SOL    HW227474   6.532   3.849   6.951 -1.1412  2.6342  0.6176
 8859SOL     OW27475   6.640   6.993   4.037  0.2101  0.5227  0.1665
 8859SOL    HW127476   6.580   6.914   4.050 -2.3921  2.2653 -0.5806
 8859SOL    HW227477   6.658   7.036   4.125  1.1176 -0.4795  0.4958
 8860SOL     OW27478   5.875   1.993   1.996 -0.4968 -0.2211  0.5815
 8860SOL    HW127479   5.936   1.967   1.921  0.1547  1.3281  0.5403
 8860SOL    HW227480   5.827   1.912   2.029 -1.1351 -0.8944 -1.7852
 8861SOL     OW27481   3.083   2.475   0.572  0.2620  0.1523  0.7724
 8861SOL    HW127482   3.160   2.411   0.570  0.7702  0.7616  0.5292
 8861SOL    HW227483   3.010   2.441   0.512  0.2936 -0.4837  1.0912
 8862SOL     OW27484   4.804   5.797   3.899  0.1792  0.3533  0.8017
 8862SOL    HW127485   4.753   5.721   3.858  1.8247  0.4808 -1.6822
 8862SOL    HW227486   4.750   5.881   3.893 -0.4735 -0.0467  0.9127
 8863SOL     OW27487   0.649   3.043   2.553  0.3713 -0.4273 -0.6973
 8863SOL    HW127488   0.594   2.985   2.614  1.4540 -0.6366  0.1151
 8863SOL    HW227489   0.588   3.103   2.501 -0.6126 -0.5193  0.2959
 8864SOL     OW27490   6.068   3.059   3.426  0.1450 -0.1806  0.5523
 8864SOL    HW127491   6.154   3.017   3.452  0.6688  1.2759  1.2635
 8864SOL    HW227492   5.994   3.021   3.482  0.6558  0.0868  1.4227
 8865SOL     OW27493   3.125   2.690   0.720  0.0161 -0.6798 -0.2573
 8865SOL    HW127494   3.112   2.654   0.812 -1.9164  0.6546  0.0490
 8865SOL    HW227495   3.105   2.619   0.653 -0.5902 -1.0817  0.3441
 8866SOL     OW27496   5.844   1.017   1.888 -0.2493  0.3320  0.6258
 8866SOL    HW127497   5.819   0.962   1.808  1.1392 -0.0771  0.4363
 8866SOL    HW227498   5.934   1.057   1.874 -0.8238  1.8792  1.1911
 8867SOL     OW27499   6.533   4.297   4.303  0.1953  0.1093  0.2657
 8867SOL    HW127500   6.495   4.208   4.278 -0.2221 -0.0244  1.3060
 8867SOL    HW227501   6.619   4.311   4.255  0.1192 -0.7245 -0.1393
 8868SOL     OW27502   0.257   1.883   2.891 -0.1515 -0.0910 -0.1914
 8868SOL    HW127503   0.251   1.784   2.904 -1.3004 -0.3251 -2.1527
 8868SOL    HW227504   0.244   1.905   2.794  0.8579  1.9358  0.0861
 8869SOL     OW27505   3.989   6.078   2.489  0.0987  0.4550  0.2701
 8869SOL    HW127506   3.912   6.051   2.546 -0.5839 -0.6600 -1.1187
 8869SOL    HW227507   4.060   6.007   2.494  0.3646  0.7272  0.3388
 8870SOL     OW27508   1.472   1.285   1.285  0.6808 -0.1562 -0.1329
 8870SOL    HW127509   1.470   1.370   1.232  0.3074 -0.2725 -0.3071
 8870SOL    HW227510   1.546   1.290   1.353 -1.3950  1.7577  2.1961
 8871SOL     OW27511   6.826   0.413   0.121  0.4549 -0.3895 -0.0843
 8871SOL    HW127512   6.914   0.377   0.152  0.5792  0.1278  0.1608
 8871SOL    HW227513   6.814   0.391   0.024  2.8357  3.2425 -1.4118
 8872SOL     OW27514   5.253   5.621   5.088  0.3490  0.2569 -0.6479
 8872SOL    HW127515   5.185   5.693   5.103  1.1589  1.0366 -0.6719
 8872SOL    HW227516   5.298   5.636   4.999 -1.6639 -2.0741 -2.2061
 8873SOL     OW27517   1.223   2.081   3.323 -0.1137  0.3936 -0.4325
 8873SOL    HW127518   1.218   2.153   3.253 -0.0730  1.5621  0.7351
 8873SOL    HW227519   1.132   2.066   3.361  0.3198  1.9092  1.3347
 8874SOL     OW27520   6.396   4.367   1.459 -0.2046 -0.0694 -0.2085
 8874SOL    HW127521   6.405   4.276   1.498  1.7716 -0.1063 -0.6866
 8874SOL    HW227522   6.333   4.364   1.381 -0.9215 -0.8109  0.3842
 8875SOL     OW27523   4.895   3.245   5.801 -0.0728  0.0659  1.1214
 8875SOL    HW127524   4.887   3.273   5.706  0.1554  0.2834  1.1648
 8875SOL    HW227525   4.857   3.316   5.860 -1.5243 -0.6794  1.1332
 8876SOL     OW27526   6.238   0.660   0.390  0.2341 -0.3227 -0.1288
 8876SOL    HW127527   6.330   0.666   0.351  0.0486 -1.3400 -0.7544
 8876SOL    HW227528   6.199   0.752   0.398  0.4339 -0.0229 -1.9967
 8877SOL     OW27529   1.361   4.771   1.834 -0.2699  0.2970  0.1955
 8877SOL    HW127530   1.441   4.752   1.890 -0.7730 -0.6044  0.6337
 8877SOL    HW227531   1.285   4.800   1.893  0.0244  2.2592 -0.3116
 8878SOL     OW27532   4.474   2.928   0.766 -1.1251 -0.3342 -0.3268
 8878SOL    HW127533   4.485   2.929   0.667  0.5904  1.6053 -0.1647
 8878SOL    HW227534   4.545   2.872   0.807 -1.0920 -0.1353 -0.1131
 8879SOL     OW27535   6.853   4.860   4.393  0.5450  0.3286  0.8313
 8879SOL    HW127536   6.922   4.790   4.406 -0.3672 -0.6608  0.4888
 8879SOL    HW227537   6.791   4.861   4.471  0.9220  1.2082  1.1367
 8880SOL     OW27538   4.931   1.520   2.809 -0.1363 -0.0259 -0.1387
 8880SOL    HW127539   4.955   1.592   2.875 -1.0177  0.4402 -0.3141
 8880SOL    HW227540   5.015   1.484   2.768  0.3283  0.9602 -0.1061
 8881SOL     OW27541   4.603   0.315   1.858 -0.2638 -0.5976 -0.5234
 8881SOL    HW127542   4.588   0.401   1.810 -0.9174  0.9492  2.2431
 8881SOL    HW227543   4.514   0.275   1.883 -0.0239  0.1591  1.7910
 8882SOL     OW27544   5.157   5.942   2.500 -0.0692 -0.2755 -0.4789
 8882SOL    HW127545   5.179   6.037   2.476 -0.8301 -0.0136 -0.1873
 8882SOL    HW227546   5.129   5.938   2.596  1.1476 -1.0063 -0.1305
 8883SOL     OW27547   6.423   0.061   2.772 -0.0603 -0.0326 -0.2403
 8883SOL    HW127548   6.459   0.087   2.682  0.4246 -1.6807 -0.5519
 8883SOL    HW227549   6.412  -0.038   2.776  0.0876 -0.0038  1.5870
 8884SOL     OW27550   4.734   2.135   0.119 -0.0096 -0.1364 -0.3687
 8884SOL    HW127551   4.751   2.186   0.034 -0.7635  0.6070 -0.0923
 8884SOL    HW227552   4.695   2.197   0.187 -2.0330 -1.3189 -0.3836
 8885SOL     OW27553   3.889   5.420   0.532  0.2436  0.1417  0.0631
 8885SOL    HW127554   3.909   5.509   0.572  2.6171  0.2388 -1.1441
 8885SOL    HW227555   3.837   5.433   0.447  0.6653  0.3786 -0.1590
 8886SOL     OW27556   4.296   6.859   1.176 -0.0450  0.1973 -0.4102
 8886SOL    HW127557   4.323   6.938   1.232  1.1605  1.8663 -3.1720
 8886SOL    HW227558   4.326   6.775   1.222 -1.0551  1.2639  2.4547
 8887SOL     OW27559   4.051   0.830   1.281  0.3711 -0.4397  0.3438
 8887SOL    HW127560   4.015   0.798   1.194 -0.9750  1.7348  0.0291
 8887SOL    HW227561   4.128   0.771   1.309 -0.6350 -2.5898 -1.1099
 8888SOL     OW27562   4.890   2.070   3.221  0.0599  0.1168  0.0139
 8888SOL    HW127563   4.794   2.049   3.201  0.0628  0.0169  0.1047
 8888SOL    HW227564   4.900   2.168   3.235  0.4086  0.4700 -2.4393
 8889SOL     OW27565   1.205   4.989   6.951  0.2667 -0.0422  0.0309
 8889SOL    HW127566   1.228   5.087   6.953  1.6742 -0.3056 -1.4691
 8889SOL    HW227567   1.205   4.957   6.857 -1.2002 -1.2859  0.4253
 8890SOL     OW27568   3.153   5.468   0.234  0.1987 -0.2664 -0.2941
 8890SOL    HW127569   3.217   5.417   0.177  0.5556  1.8156 -1.9231
 8890SOL    HW227570   3.160   5.566   0.212 -2.6579  0.1867  0.3300
 8891SOL     OW27571   4.280   1.502   4.904 -0.0261 -0.2954 -0.0267
 8891SOL    HW127572   4.323   1.484   4.992  3.1606 -0.2622 -1.4285
 8891SOL    HW227573   4.278   1.601   4.888 -1.4061 -0.2436  0.3106
 8892SOL     OW27574   0.533   4.926   6.677 -0.2618 -0.0615 -0.1373
 8892SOL    HW127575   0.566   5.010   6.721 -0.6466 -0.2749  0.5742
 8892SOL    HW227576   0.607   4.859   6.672 -0.4273 -0.3399  0.9513
 8893SOL     OW27577   5.706   5.178   5.624 -0.2282 -0.1673  0.0694
 8893SOL    HW127578   5.726   5.192   5.528 -1.8186  1.4059 -0.0799
 8893SOL    HW227579   5.700   5.080   5.643  2.5756 -0.5967 -0.8263
 8894SOL     OW27580   4.347   1.951   1.428  0.3394  0.3227  0.4151
 8894SOL    HW127581   4.327   1.915   1.519  0.1706  1.6740  0.9315
 8894SOL    HW227582   4.413   1.891   1.382  0.3979 -0.3909  1.4129
 8895SOL     OW27583   0.871   4.091   2.102 -0.0556 -0.2866 -0.4589
 8895SOL    HW127584   0.873   3.994   2.079  1.0470 -0.3698 -0.0622
 8895SOL    HW227585   0.792   4.110   2.161 -0.1310 -0.9839 -0.3317
 8896SOL     OW27586   0.839   0.408   3.430  0.6200  0.3471  0.6471
 8896SOL    HW127587   0.891   0.492   3.448  2.9982 -0.8259 -0.3412
 8896SOL    HW227588   0.902   0.332   3.413 -1.4580 -1.5823  1.0751
 8897SOL     OW27589   0.288   2.356   4.077  0.2560 -0.4834 -0.3049
 8897SOL    HW127590   0.331   2.426   4.020  0.4517 -1.3957 -1.3216
 8897SOL    HW227591   0.220   2.398   4.137  0.7526  0.6380 -0.5010
 8898SOL     OW27592   6.134   6.075   5.064 -0.7936  0.2530  0.2308
 8898SOL    HW127593   6.176   5.990   5.034  0.1327  0.9121 -0.3880
 8898SOL    HW227594   6.153   6.148   4.998 -1.5492  0.9599  0.7542
 8899SOL     OW27595   2.043   3.463   3.946 -0.6893  0.2761  0.1308
 8899SOL    HW127596   2.001   3.551   3.968  0.8016  1.2304 -0.6892
 8899SOL    HW227597   2.059   3.457   3.848 -1.1566 -1.1090  0.1190
 8900SOL     OW27598   4.021   0.919   4.200 -0.0403 -0.3711 -0.9659
 8900SOL    HW127599   4.088   0.992   4.213 -0.3562 -0.1511 -0.5569
 8900SOL    HW227600   4.056   0.834   4.238  0.0587 -0.2858 -0.8668
 8901SOL     OW27601   3.167   4.520   6.905 -0.3077 -0.0084 -0.2844
 8901SOL    HW127602   3.122   4.554   6.823 -0.2965  0.6882 -0.0092
 8901SOL    HW227603   3.244   4.580   6.928 -0.5711  0.0485  0.4719
 8902SOL     OW27604   1.166   4.652   5.664  0.4497  0.1423 -0.5614
 8902SOL    HW127605   1.187   4.591   5.740 -0.9062  0.6082  0.2154
 8902SOL    HW227606   1.075   4.693   5.678  1.0217  1.7773 -1.4227
 8903SOL     OW27607   6.292   2.540   5.707  0.3456 -0.0159 -0.1733
 8903SOL    HW127608   6.297   2.612   5.777  0.0307 -0.2452  0.0948
 8903SOL    HW227609   6.299   2.581   5.616 -1.9068  0.6341 -0.1255
 8904SOL     OW27610   5.658   2.169   3.705  0.4807 -0.3049 -0.2536
 8904SOL    HW127611   5.614   2.258   3.715 -0.7019 -1.0422  1.5819
 8904SOL    HW227612   5.757   2.180   3.710  0.3192  0.8077  0.9896
 8905SOL     OW27613   0.734   4.687   6.671 -0.2078  0.1700  0.2691
 8905SOL    HW127614   0.646   4.690   6.625  1.3408  0.4203 -2.8952
 8905SOL    HW227615   0.797   4.628   6.621  1.8837  1.1395  1.5835
 8906SOL     OW27616   4.884   2.541   5.229 -0.6719  0.4011 -0.4823
 8906SOL    HW127617   4.823   2.501   5.161 -1.3263  0.6578 -0.0513
 8906SOL    HW227618   4.833   2.603   5.288  0.1138  1.0364 -0.4548
 8907SOL     OW27619   3.377   4.190   3.832 -0.3874 -0.0693 -0.6535
 8907SOL    HW127620   3.341   4.140   3.910 -0.1585  0.9496  0.1277
 8907SOL    HW227621   3.309   4.191   3.759 -0.2791 -1.7444 -0.8047
 8908SOL     OW27622   2.303   0.494   3.966  0.5613  0.4858 -0.5021
 8908SOL    HW127623   2.372   0.507   4.037 -0.0386  0.3552  0.1096
 8908SOL    HW227624   2.216   0.467   4.007 -0.2505  2.0237 -1.1202
 8909SOL     OW27625   4.039   4.903   0.729 -0.0607 -0.3040 -0.1058
 8909SOL    HW127626   4.023   4.831   0.797  1.2747 -0.0985  0.4616
 8909SOL    HW227627   4.068   4.986   0.776  0.4925 -0.0397 -0.9066
 8910SOL     OW27628   2.417   1.814   2.743 -0.3519 -0.1510  0.1763
 8910SOL    HW127629   2.504   1.852   2.775  0.9825  1.1352 -4.2608
 8910SOL    HW227630   2.346   1.833   2.810  2.3863  0.3753  3.1662
 8911SOL     OW27631   5.338   2.435   5.386 -0.0819  0.5022  0.9102
 8911SOL    HW127632   5.326   2.387   5.474 -1.3066  0.6105  0.8287
 8911SOL    HW227633   5.281   2.517   5.386  0.1285  0.6485  0.1168
 8912SOL     OW27634   4.323   3.281   5.397  0.1844  0.4549  0.1948
 8912SOL    HW127635   4.415   3.318   5.386 -0.3383  1.5529 -0.6823
 8912SOL    HW227636   4.326   3.181   5.401  1.4219  0.4942  0.4094
 8913SOL     OW27637   6.377   5.988   0.129  0.3524 -0.1072  0.0268
 8913SOL    HW127638   6.427   5.918   0.078 -0.2359 -1.9691  1.8518
 8913SOL    HW227639   6.386   5.970   0.227 -2.2722  0.6320  0.4618
 8914SOL     OW27640   6.032   4.817   3.875  0.6432  0.1690 -0.1948
 8914SOL    HW127641   6.018   4.892   3.941  1.8631  1.5694 -1.4489
 8914SOL    HW227642   6.056   4.856   3.786 -0.4661 -1.6889 -1.3768
 8915SOL     OW27643   2.337   1.573   3.413 -0.6535 -0.0099 -0.1682
 8915SOL    HW127644   2.274   1.622   3.472  1.3545  1.9124  0.5424
 8915SOL    HW227645   2.370   1.490   3.459  2.5243  2.5019  2.6405
 8916SOL     OW27646   5.343   0.767   3.060 -0.2307 -0.2651  0.3102
 8916SOL    HW127647   5.359   0.741   2.965  0.0974 -1.2017  0.6090
 8916SOL    HW227648   5.276   0.842   3.063 -0.7445 -0.6608 -0.6236
 8917SOL     OW27649   5.439   4.270   2.001  0.1016  0.4994  0.4491
 8917SOL    HW127650   5.460   4.287   2.097 -2.8313  0.7068  1.1313
 8917SOL    HW227651   5.355   4.317   1.976  0.0198 -0.7131 -1.8432
 8918SOL     OW27652   1.573   2.498   1.886 -0.5627  0.5568 -0.5577
 8918SOL    HW127653   1.537   2.453   1.968 -2.0964  0.8272 -1.0427
 8918SOL    HW227654   1.669   2.473   1.874 -0.2784  0.5766  1.3434
 8919SOL     OW27655   5.750   1.554   3.792 -0.5873 -0.1273  0.5782
 8919SOL    HW127656   5.702   1.623   3.845 -0.3270 -0.5627  1.3971
 8919SOL    HW227657   5.828   1.520   3.844 -0.1149 -0.3170 -0.2261
 8920SOL     OW27658   1.728   2.869   5.784  0.5098 -0.1777 -0.3118
 8920SOL    HW127659   1.748   2.958   5.743  0.1604 -1.1777 -2.8242
 8920SOL    HW227660   1.813   2.825   5.811  0.6567  1.0798  1.4192
 8921SOL     OW27661   1.799   1.579   1.575  0.2748 -0.5626  0.8147
 8921SOL    HW127662   1.701   1.597   1.572  0.2875 -0.6789 -0.9850
 8921SOL    HW227663   1.835   1.568   1.482  1.7304 -1.9655  1.4842
 8922SOL     OW27664   3.350   4.159   1.379 -0.7894  0.6108 -0.1191
 8922SOL    HW127665   3.449   4.168   1.388 -1.0591  1.9748  2.5117
 8922SOL    HW227666   3.321   4.074   1.422 -0.8830  1.0616  0.7438
 8923SOL     OW27667   2.274   2.417   3.125 -0.7994  0.4175 -0.6269
 8923SOL    HW127668   2.218   2.442   3.047 -2.1441 -0.4415  0.0321
 8923SOL    HW227669   2.216   2.396   3.204  0.5124  1.3065  0.6410
 8924SOL     OW27670   0.086   6.697   4.673  0.0408  0.2699  0.2067
 8924SOL    HW127671   0.140   6.761   4.728  2.6583 -0.3497 -1.4512
 8924SOL    HW227672   0.050   6.744   4.592  0.9424 -0.0504 -0.3916
 8925SOL     OW27673   6.223   1.062   4.285 -0.2114 -0.5595  0.3635
 8925SOL    HW127674   6.310   1.101   4.257 -0.8019  0.2903 -0.3114
 8925SOL    HW227675   6.221   0.965   4.260  0.4507 -0.5335  0.1880
 8926SOL     OW27676   5.746   3.555   6.046 -0.1617 -0.3780 -0.1665
 8926SOL    HW127677   5.683   3.481   6.069 -0.2754  0.4992  2.6778
 8926SOL    HW227678   5.728   3.633   6.105  2.9770  0.2520  0.0931
 8927SOL     OW27679   2.564   1.890   5.620  0.3585  0.0820  0.0936
 8927SOL    HW127680   2.579   1.878   5.718  0.5376  1.5951  0.2873
 8927SOL    HW227681   2.642   1.941   5.581 -0.8304  1.6727 -0.3203
 8928SOL     OW27682   6.374   0.241   5.754  0.2167  0.0607  0.4290
 8928SOL    HW127683   6.377   0.330   5.798 -1.4567  0.0488  0.6542
 8928SOL    HW227684   6.462   0.195   5.764  0.8953  1.4214  0.8624
 8929SOL     OW27685   6.025   1.930   3.371 -0.4405 -0.1011  0.1277
 8929SOL    HW127686   6.034   1.980   3.284  0.2183  1.1239  0.8736
 8929SOL    HW227687   6.115   1.918   3.412 -0.6480 -1.5226  0.1985
 8930SOL     OW27688   2.799   6.743   2.379  0.0568 -0.5710 -0.3467
 8930SOL    HW127689   2.713   6.781   2.413  0.9713  0.7023  0.6552
 8930SOL    HW227690   2.827   6.667   2.439  1.1022  0.9581  1.2256
 8931SOL     OW27691   3.711   3.278   5.469 -0.7585 -0.4474 -0.3800
 8931SOL    HW127692   3.690   3.338   5.392 -0.2059  0.1988 -0.0320
 8931SOL    HW227693   3.757   3.196   5.435 -1.1862 -0.5159 -0.8125
 8932SOL     OW27694   1.105   4.543   2.788 -0.5034  0.7344 -0.2695
 8932SOL    HW127695   1.168   4.602   2.737 -0.8247  0.4024 -1.0638
 8932SOL    HW227696   1.140   4.529   2.881 -0.3400  2.0318 -0.1258
 8933SOL     OW27697   4.703   1.245   0.180 -0.1830  0.4009 -0.0588
 8933SOL    HW127698   4.646   1.164   0.196  1.5832 -1.0213 -0.7290
 8933SOL    HW227699   4.643   1.325   0.170 -2.0946 -1.0816 -1.1841
 8934SOL     OW27700   3.179   4.896   2.801 -0.4433  0.5547 -0.7127
 8934SOL    HW127701   3.143   4.808   2.831  0.3500  0.2857 -0.5320
 8934SOL    HW227702   3.224   4.885   2.713 -0.8458  0.9054 -0.9711
 8935SOL     OW27703   1.892   5.798   5.791 -0.2646 -0.1593  0.1638
 8935SOL    HW127704   1.927   5.770   5.702 -1.2583 -1.9727  0.2957
 8935SOL    HW227705   1.968   5.829   5.848  0.6048 -0.4788 -0.7854
 8936SOL     OW27706   2.129   3.123   6.993 -0.6176  0.1152  0.6639
 8936SOL    HW127707   2.107   3.165   7.081 -1.0754 -0.2837  0.7436
 8936SOL    HW227708   2.149   3.026   7.006  1.7991  0.5586  0.6813
 8937SOL     OW27709   0.032   1.189   0.324 -0.2403 -0.0184 -0.5009
 8937SOL    HW127710  -0.016   1.181   0.411 -0.3424 -0.6636 -0.6155
 8937SOL    HW227711   0.046   1.286   0.302  0.5249  0.1457  0.6298
 8938SOL     OW27712   2.870   4.785   0.238  0.1651 -0.0582 -0.0306
 8938SOL    HW127713   2.873   4.851   0.313  1.3135  1.8273 -1.6129
 8938SOL    HW227714   2.783   4.795   0.189 -1.8761 -3.2361  2.5281
 8939SOL     OW27715   6.251   2.560   3.740  0.4210 -0.4132  0.2270
 8939SOL    HW127716   6.201   2.527   3.659  0.6745 -1.8085  0.6098
 8939SOL    HW227717   6.279   2.481   3.795  0.2084  0.5249  1.7095
 8940SOL     OW27718   5.191   5.716   4.818 -0.0070 -0.2705 -0.4834
 8940SOL    HW127719   5.269   5.774   4.794  1.2410 -1.8581 -0.4352
 8940SOL    HW227720   5.107   5.770   4.815  1.0336  1.3925 -0.9365
 8941SOL     OW27721   3.861   0.010   0.063 -0.0727  0.4148  0.1186
 8941SOL    HW127722   3.914  -0.020   0.142 -0.0424 -0.1993 -0.1347
 8941SOL    HW227723   3.804   0.088   0.089 -2.1656 -1.4599  1.5304
 8942SOL     OW27724   3.203   0.826   6.518 -0.2608 -0.7082  0.4186
 8942SOL    HW127725   3.151   0.908   6.543 -0.8959 -1.2000  0.7269
 8942SOL    HW227726   3.252   0.843   6.432 -1.0547 -0.2884  0.0372
 8943SOL     OW27727   3.841   4.437   7.010  0.1288 -0.8229  0.5043
 8943SOL    HW127728   3.795   4.481   6.933 -1.0361 -2.3280  0.2992
 8943SOL    HW227729   3.789   4.453   7.094 -0.1695 -1.5623  0.4697
 8944SOL     OW27730   3.595   5.175   0.473  0.2180  0.1972 -0.0188
 8944SOL    HW127731   3.682   5.152   0.517  0.8861  2.4113 -0.0933
 8944SOL    HW227732   3.520   5.138   0.528  1.1580 -1.5101  0.1884
 8945SOL     OW27733   0.784   0.960   4.305 -0.1718 -0.7017 -0.0225
 8945SOL    HW127734   0.749   1.048   4.273 -0.3439 -0.9461 -0.5077
 8945SOL    HW227735   0.859   0.976   4.370 -1.3961 -0.1749  1.3105
 8946SOL     OW27736   2.705   7.016   4.404 -0.4121  0.0510 -0.0679
 8946SOL    HW127737   2.758   6.985   4.483  1.0755  0.3463 -0.9178
 8946SOL    HW227738   2.715   6.951   4.329 -1.0347  0.2547 -0.3345
 8947SOL     OW27739   3.045   3.413   5.598  0.0791 -0.0705  0.0084
 8947SOL    HW127740   3.008   3.487   5.653 -1.6793 -2.5226  2.3775
 8947SOL    HW227741   3.024   3.429   5.501 -1.7342  1.6876  0.6284
 8948SOL     OW27742   5.554   6.378   4.311  0.9554 -0.2268 -0.6556
 8948SOL    HW127743   5.595   6.327   4.236  1.7308 -0.4441 -0.0892
 8948SOL    HW227744   5.624   6.401   4.378  0.1992 -0.3972  0.2085
 8949SOL     OW27745   1.823   5.772   5.159  0.3489 -0.3825  0.2592
 8949SOL    HW127746   1.809   5.843   5.228 -2.0909 -0.4899 -0.0160
 8949SOL    HW227747   1.795   5.684   5.196  1.6482 -0.9132  0.0101
 8950SOL     OW27748   5.967   1.284   5.193  0.0976  0.0423  0.0189
 8950SOL    HW127749   5.938   1.189   5.206  0.3863  0.1133  1.2735
 8950SOL    HW227750   5.895   1.346   5.226  0.1202  0.2616 -0.3300
 8951SOL     OW27751   2.841   2.012   5.644 -0.0499  0.3197 -0.0345
 8951SOL    HW127752   2.894   2.096   5.634  0.9925 -0.3723 -0.5468
 8951SOL    HW227753   2.904   1.935   5.658 -0.9789 -0.3936  0.2667
 8952SOL     OW27754   6.468   6.325   2.243 -0.2251 -0.0245 -0.3062
 8952SOL    HW127755   6.544   6.301   2.182  0.2781 -0.4183  0.4635
 8952SOL    HW227756   6.495   6.310   2.338 -0.6010  1.6653  0.1043
 8953SOL     OW27757   2.949   6.311   0.515  0.0500 -0.3126 -0.0980
 8953SOL    HW127758   2.967   6.312   0.614 -0.5206  1.3378  0.0351
 8953SOL    HW227759   2.863   6.264   0.498 -0.1000 -0.1754  0.2612
 8954SOL     OW27760   2.414   6.602   5.692  0.0841  0.8361 -0.2518
 8954SOL    HW127761   2.497   6.655   5.706  0.6324 -0.3583  1.3725
 8954SOL    HW227762   2.334   6.662   5.701  0.6872  1.4711  1.1207
 8955SOL     OW27763   6.735   4.081   5.961 -0.4287 -0.1945  0.0891
 8955SOL    HW127764   6.675   4.004   5.939 -2.0071  0.6954  1.0657
 8955SOL    HW227765   6.755   4.081   6.059  1.2980 -0.5217 -0.2280
 8956SOL     OW27766   3.418   0.061   3.897 -0.4244 -0.2873  0.3525
 8956SOL    HW127767   3.347   0.032   3.962 -0.9658  1.2431  0.4705
 8956SOL    HW227768   3.456   0.149   3.926  1.1709 -0.8301  0.0007
 8957SOL     OW27769   5.331   0.094   2.173  0.4037 -0.2978  0.2209
 8957SOL    HW127770   5.315   0.010   2.122  0.3051 -0.1062 -0.0629
 8957SOL    HW227771   5.384   0.158   2.117 -0.5230  0.2878  0.0049
 8958SOL     OW27772   2.452   0.939   3.826  0.1166  0.1497 -0.5479
 8958SOL    HW127773   2.398   0.857   3.845  0.6951 -0.1338 -0.1076
 8958SOL    HW227774   2.516   0.955   3.901  1.1162  0.0843 -1.3644
 8959SOL     OW27775   4.155   5.355   0.473  0.4060 -0.2587 -0.2951
 8959SOL    HW127776   4.188   5.262   0.490  0.1589 -1.2085 -4.1980
 8959SOL    HW227777   4.057   5.360   0.493  0.5715 -0.5589  0.6698
 8960SOL     OW27778   4.254   6.087   5.836 -0.1484  0.2381  0.4649
 8960SOL    HW127779   4.172   6.032   5.855  0.2665 -0.9194 -0.8655
 8960SOL    HW227780   4.323   6.069   5.906 -0.2957 -0.3866  0.4591
 8961SOL     OW27781   0.132   2.552   4.530 -0.5129 -0.8128  0.4440
 8961SOL    HW127782   0.217   2.601   4.509 -0.6599 -0.6093  0.3231
 8961SOL    HW227783   0.117   2.553   4.629 -1.7732  1.5291  0.3054
 8962SOL     OW27784   2.777   1.167   5.124  0.1824 -0.2564 -0.6457
 8962SOL    HW127785   2.692   1.128   5.160  0.6973 -0.0289  0.9170
 8962SOL    HW227786   2.843   1.094   5.108  0.0618 -0.3282 -0.8172
 8963SOL     OW27787   1.290   0.516   5.163  0.1335 -0.1150 -0.6535
 8963SOL    HW127788   1.321   0.506   5.257  2.0061 -0.2150 -1.2505
 8963SOL    HW227789   1.209   0.458   5.148  0.4376 -0.9004  0.5993
 8964SOL     OW27790   0.521   2.010   2.460  0.2751  0.0995  0.5875
 8964SOL    HW127791   0.454   1.997   2.387  0.5396 -0.2509  0.4011
 8964SOL    HW227792   0.477   2.054   2.538 -0.3362 -0.7269  0.7247
 8965SOL     OW27793   1.348   5.213   0.051  0.0432 -0.6182 -0.1372
 8965SOL    HW127794   1.424   5.254   0.000 -0.3626 -0.5230 -0.6818
 8965SOL    HW227795   1.303   5.284   0.105 -1.1784 -0.1035 -1.7211
 8966SOL     OW27796   3.441   2.160   5.183  0.1196  0.1256 -0.3245
 8966SOL    HW127797   3.493   2.197   5.260  0.5586 -0.9428 -0.0862
 8966SOL    HW227798   3.357   2.213   5.171  1.3647  2.0677 -0.9025
 8967SOL     OW27799   4.114   6.623   6.160 -0.3455 -0.2873 -0.3318
 8967SOL    HW127800   4.208   6.592   6.145  0.5110  1.7639  0.5331
 8967SOL    HW227801   4.085   6.597   6.252 -0.8023 -1.2816 -0.7430
 8968SOL     OW27802   0.071   5.330   2.829 -0.4011  0.2616 -0.6195
 8968SOL    HW127803   0.011   5.291   2.897  1.1486  1.3042  1.4552
 8968SOL    HW227804   0.167   5.313   2.854  0.2727  2.9442 -1.0479
 8969SOL     OW27805   6.220   0.699   3.101 -0.1544  0.8302 -0.3440
 8969SOL    HW127806   6.215   0.600   3.113  0.3005  0.8838  0.4400
 8969SOL    HW227807   6.152   0.729   3.034 -0.5742  0.0391 -0.2846
 8970SOL     OW27808   2.398   2.394   1.340  0.2411 -0.1410 -0.2904
 8970SOL    HW127809   2.458   2.474   1.338  1.4081 -0.9899 -0.4456
 8970SOL    HW227810   2.312   2.416   1.295  0.4575  1.0806 -0.1541
 8971SOL     OW27811   2.473   5.976   2.876 -0.1100 -0.0170  0.0192
 8971SOL    HW127812   2.432   5.887   2.857 -2.0364  0.8832 -0.1602
 8971SOL    HW227813   2.511   6.014   2.792 -1.3448  0.3507 -0.3768
 8972SOL     OW27814   6.222   6.194   4.840 -0.0010 -0.0305  0.4082
 8972SOL    HW127815   6.202   6.133   4.763  0.2645  1.1724 -0.6419
 8972SOL    HW227816   6.170   6.279   4.829 -0.9504 -0.3200  2.2440
 8973SOL     OW27817   1.715   4.613   4.732 -0.1155 -0.5231 -0.4051
 8973SOL    HW127818   1.637   4.675   4.744 -0.1724 -0.6356 -0.1877
 8973SOL    HW227819   1.760   4.633   4.645  1.2877  1.3916  0.7006
 8974SOL     OW27820   6.621   3.793   3.859  0.0484  0.4463 -0.1884
 8974SOL    HW127821   6.553   3.764   3.791  1.1786  0.5096 -1.3921
 8974SOL    HW227822   6.713   3.784   3.820  0.7536  0.2726  1.4319
 8975SOL     OW27823   5.154   0.742   5.377 -0.5295  0.4069 -0.4719
 8975SOL    HW127824   5.087   0.816   5.385 -1.1872 -0.1644 -0.6971
 8975SOL    HW227825   5.108   0.654   5.377  0.3156 -0.0746  0.7692
 8976SOL     OW27826   1.066   5.186   5.554  0.3946 -0.3026 -0.2219
 8976SOL    HW127827   1.144   5.123   5.548 -0.3130 -1.1489 -0.7598
 8976SOL    HW227828   0.997   5.160   5.486  0.2700  1.3158 -0.7567
 8977SOL     OW27829   5.096   3.153   0.802 -0.0946  0.2047 -0.4844
 8977SOL    HW127830   5.036   3.073   0.816  0.3074  0.1133  0.8497
 8977SOL    HW227831   5.148   3.141   0.718 -0.4978 -0.6487 -0.6278
 8978SOL     OW27832   5.780   3.054   2.108 -0.4723  0.7120  0.0881
 8978SOL    HW127833   5.722   3.048   2.190 -2.1756  0.8502 -1.0532
 8978SOL    HW227834   5.791   3.150   2.082  2.2097  0.8974  1.5469
 8979SOL     OW27835   0.043   5.335   5.600  0.0285 -0.4856  0.0676
 8979SOL    HW127836   0.097   5.362   5.520  0.7985 -0.5530  0.5618
 8979SOL    HW227837   0.070   5.243   5.628 -0.3918 -0.5445  0.2798
 8980SOL     OW27838   2.909   3.663   2.300 -0.4938 -0.2212  0.0196
 8980SOL    HW127839   2.903   3.687   2.397  0.7155 -0.4000  0.1548
 8980SOL    HW227840   2.901   3.563   2.290  0.3052 -0.2894  0.0305
 8981SOL     OW27841   4.665   1.187   5.715 -0.0605 -1.0643  0.2611
 8981SOL    HW127842   4.574   1.192   5.755 -0.6373 -0.5261 -1.0640
 8981SOL    HW227843   4.662   1.218   5.620  1.2093 -2.5105 -0.3005
 8982SOL     OW27844   4.016   6.891   6.269 -0.0280  0.0844 -0.0842
 8982SOL    HW127845   4.034   6.815   6.207 -3.7581 -2.2214  1.3396
 8982SOL    HW227846   4.074   6.884   6.350  0.6714 -0.3518 -0.6177
 8983SOL     OW27847   5.406   3.228   2.533  0.3516  0.1505  0.3261
 8983SOL    HW127848   5.460   3.287   2.592 -1.6794  3.0443 -0.5092
 8983SOL    HW227849   5.454   3.213   2.447  0.6523  1.1226  0.3160
 8984SOL     OW27850   1.193   0.501   4.087  0.7419 -0.1103  0.2575
 8984SOL    HW127851   1.149   0.411   4.084  1.6039 -0.7848  3.4045
 8984SOL    HW227852   1.199   0.539   3.995 -2.3436 -1.9189 -0.8431
 8985SOL     OW27853   3.105   2.962   6.201 -0.0001  0.2741 -0.2375
 8985SOL    HW127854   3.063   2.920   6.121  0.4346 -0.1897 -0.2223
 8985SOL    HW227855   3.201   2.980   6.182 -0.0654  0.8170 -0.0693
 8986SOL     OW27856   4.189   6.923   3.002 -0.5117  0.5490 -0.4439
 8986SOL    HW127857   4.238   6.968   2.928  0.2749  0.2331 -0.1191
 8986SOL    HW227858   4.245   6.923   3.085 -0.0160 -1.9426 -0.6902
 8987SOL     OW27859   6.212   0.581   1.990  0.9448 -0.7636 -0.2658
 8987SOL    HW127860   6.168   0.670   2.008  0.7885 -0.5337 -1.6451
 8987SOL    HW227861   6.171   0.511   2.049  0.5480 -0.0601  0.3127
 8988SOL     OW27862   1.842   5.324   5.666  0.5778  0.1674 -0.1034
 8988SOL    HW127863   1.843   5.304   5.568 -0.4609 -0.5446  0.0201
 8988SOL    HW227864   1.811   5.418   5.680 -0.8000 -0.2315 -0.3890
 8989SOL     OW27865   2.136   3.359   5.757 -0.1693  0.2637 -0.1663
 8989SOL    HW127866   2.134   3.429   5.686  2.0040  0.4167 -0.1245
 8989SOL    HW227867   2.093   3.395   5.840  0.9454  1.5808 -0.1382
 8990SOL     OW27868   6.942   3.747   4.002  0.3947  0.2882  0.1255
 8990SOL    HW127869   6.959   3.807   3.924 -2.3837 -0.0690 -0.8697
 8990SOL    HW227870   6.887   3.795   4.071 -1.6914 -0.9173 -0.5941
 8991SOL     OW27871   1.109   2.434   5.711  0.3212 -0.2045 -0.4930
 8991SOL    HW127872   1.207   2.453   5.709 -0.0204  1.7281 -2.1105
 8991SOL    HW227873   1.094   2.335   5.714  2.2966 -0.5410 -0.5796
 8992SOL     OW27874   6.938   0.644   1.799  0.4421  0.5107  0.2494
 8992SOL    HW127875   6.848   0.688   1.797  0.5442  0.7147  0.0508
 8992SOL    HW227876   6.978   0.654   1.890  0.7855  1.5056  0.0101
 8993SOL     OW27877   4.200   1.971   0.815  0.3077  0.2871 -0.2261
 8993SOL    HW127878   4.202   1.875   0.787  2.1120 -0.3293  1.7304
 8993SOL    HW227879   4.222   1.978   0.912 -0.3912  2.6679 -0.1646
 8994SOL     OW27880   1.734   6.356   3.181  0.3144  0.0557  0.4974
 8994SOL    HW127881   1.718   6.430   3.117 -1.9209  0.2224  1.1372
 8994SOL    HW227882   1.659   6.353   3.248  0.6343 -2.3732  0.8654
 8995SOL     OW27883   6.031   0.888   0.951  0.1289  0.3636  0.3038
 8995SOL    HW127884   5.945   0.923   0.989  0.5569  0.7476  0.9317
 8995SOL    HW227885   6.099   0.882   1.024  1.0459  1.3384 -0.4538
 8996SOL     OW27886   5.029   6.145   4.119  0.0433 -0.5703 -0.0410
 8996SOL    HW127887   5.024   6.084   4.198  0.0542  0.0361  0.4364
 8996SOL    HW227888   4.969   6.224   4.133 -0.2664 -0.6561 -0.8194
 8997SOL     OW27889   3.811   6.723   5.078  0.3892  0.2134 -0.2254
 8997SOL    HW127890   3.870   6.715   5.158  1.0483 -3.9888 -0.9330
 8997SOL    HW227891   3.716   6.708   5.104  0.4524  0.0602 -0.0847
 8998SOL     OW27892   5.874   3.407   4.874 -0.3416 -0.3823  0.2391
 8998SOL    HW127893   5.822   3.337   4.824  0.2555 -1.9925  1.7553
 8998SOL    HW227894   5.967   3.412   4.836 -1.2665  2.0071 -2.0165
 8999SOL     OW27895   4.266   5.277   4.855 -0.3666 -0.8618  0.0699
 8999SOL    HW127896   4.227   5.369   4.850  1.2430 -0.0581  1.1092
 8999SOL    HW227897   4.355   5.276   4.810  0.2664 -1.5234  1.2648
 9000SOL     OW27898   1.534   5.358   2.127 -0.1785  0.4703 -0.3484
 9000SOL    HW127899   1.627   5.345   2.162 -0.8795 -2.6584  0.6624
 9000SOL    HW227900   1.480   5.410   2.193  0.3466  0.6810 -0.0791
 9001SOL     OW27901   2.865   0.548   2.234 -0.2217 -0.0882  0.2168
 9001SOL    HW127902   2.766   0.548   2.215 -0.2187  0.7248  0.1385
 9001SOL    HW227903   2.887   0.626   2.293  0.3310 -0.4409  0.4786
 9002SOL     OW27904   0.144   4.223   0.965 -0.3052 -0.4663  0.1724
 9002SOL    HW127905   0.194   4.224   1.052 -0.8468 -2.7346  0.5735
 9002SOL    HW227906   0.195   4.169   0.898 -0.2652  0.6283 -0.6981
 9003SOL     OW27907   5.480   6.311   1.190  0.1595 -0.8019  0.0346
 9003SOL    HW127908   5.573   6.327   1.222  0.3317 -2.0655  0.2140
 9003SOL    HW227909   5.463   6.364   1.107 -0.1436  2.2041  1.8699
 9004SOL     OW27910   6.194   6.441   3.045 -0.1209  0.0998  0.7046
 9004SOL    HW127911   6.259   6.407   3.113  0.7843 -0.2160 -0.2730
 9004SOL    HW227912   6.165   6.534   3.069  2.0808  0.9658  0.2687
 9005SOL     OW27913   6.455   0.980   6.716 -1.0110  0.2391 -0.1367
 9005SOL    HW127914   6.528   1.041   6.749 -0.2376 -0.4608 -0.4994
 9005SOL    HW227915   6.403   1.027   6.645  0.5007  0.0162 -1.4640
 9006SOL     OW27916   4.473   6.442   6.874 -0.0043  0.4478 -0.1914
 9006SOL    HW127917   4.557   6.389   6.870 -1.1369 -1.3718 -1.2038
 9006SOL    HW227918   4.397   6.387   6.839 -1.5542  2.1733  0.3011
 9007SOL     OW27919   1.514   6.081   2.216 -0.2641 -0.0686  0.1470
 9007SOL    HW127920   1.575   6.076   2.138 -0.8682 -1.0620 -0.2805
 9007SOL    HW227921   1.420   6.059   2.187 -1.2025  3.0518  0.4299
 9008SOL     OW27922   6.785   4.301   1.394 -0.2092  0.2237  0.0691
 9008SOL    HW127923   6.723   4.305   1.315 -1.4896 -0.2635  1.0135
 9008SOL    HW227924   6.822   4.209   1.402  1.4997  0.7641 -1.0929
 9009SOL     OW27925   5.644   5.664   1.748 -0.1237  0.5609  0.2077
 9009SOL    HW127926   5.741   5.669   1.720 -0.6864  0.5747 -1.9447
 9009SOL    HW227927   5.599   5.750   1.725 -1.3288 -0.5401 -1.8186
 9010SOL     OW27928   2.688   4.696   4.813 -0.0276 -0.4981 -0.2319
 9010SOL    HW127929   2.617   4.635   4.848 -0.1644 -0.3721 -0.2883
 9010SOL    HW227930   2.775   4.675   4.857 -0.0056 -0.9493 -0.4808
 9011SOL     OW27931   3.746   1.512   2.698  0.7617  0.0097  0.1128
 9011SOL    HW127932   3.703   1.519   2.788 -0.3540  1.1535 -0.4776
 9011SOL    HW227933   3.684   1.463   2.636 -0.4549  2.8594 -1.1206
 9012SOL     OW27934   2.367   4.225   6.410 -0.4207 -0.2997 -0.3146
 9012SOL    HW127935   2.364   4.166   6.490  1.6248 -0.2005 -0.1061
 9012SOL    HW227936   2.422   4.182   6.338  0.2140  0.8583 -0.5584
 9013SOL     OW27937   2.758   1.069   6.233 -0.3266  0.0552  0.5569
 9013SOL    HW127938   2.680   1.130   6.244 -1.6238 -1.6106  0.9520
 9013SOL    HW227939   2.738   1.001   6.162  0.7662 -0.3919  0.6575
 9014SOL     OW27940   5.206   2.390   3.011 -0.5625  0.2453 -0.6775
 9014SOL    HW127941   5.189   2.295   2.986  0.2780 -0.3619  0.8823
 9014SOL    HW227942   5.293   2.420   2.972 -0.5188  0.1641 -0.6426
 9015SOL     OW27943   3.219   5.568   6.905 -0.0039 -0.0223  0.1530
 9015SOL    HW127944   3.200   5.620   6.989  1.2756 -0.3844  0.6841
 9015SOL    HW227945   3.133   5.535   6.867 -0.5276 -0.9450  2.0320
 9016SOL     OW27946   3.829   3.003   6.318 -0.4569  0.7161  0.4608
 9016SOL    HW127947   3.824   2.939   6.242 -0.5236 -1.1207  1.9394
 9016SOL    HW227948   3.851   3.094   6.284  0.9757 -0.3386 -1.5931
 9017SOL     OW27949   2.148   6.695   0.576  0.3660 -0.3744 -0.0364
 9017SOL    HW127950   2.091   6.669   0.654  0.1195 -3.5092 -1.1347
 9017SOL    HW227951   2.231   6.739   0.609 -0.6260  0.1983  1.8418
 9018SOL     OW27952   2.642   2.906   0.117 -0.1960 -1.0001 -0.1001
 9018SOL    HW127953   2.694   2.956   0.047  0.7418 -1.2922  0.3750
 9018SOL    HW227954   2.548   2.893   0.085  0.4919 -2.1271 -1.8178
 9019SOL     OW27955   0.369   2.916   4.939  0.1284 -0.1894 -0.0314
 9019SOL    HW127956   0.323   2.971   5.009  1.2613 -0.5462  1.0248
 9019SOL    HW227957   0.440   2.861   4.982 -0.3892 -1.8442 -1.1946
 9020SOL     OW27958   5.688   0.525   3.295  0.1441  0.3745 -0.0900
 9020SOL    HW127959   5.728   0.535   3.204 -1.1220 -1.0461 -0.8530
 9020SOL    HW227960   5.598   0.570   3.297 -0.5760 -1.0078 -0.0940
 9021SOL     OW27961   0.309   2.154   4.831 -0.8860 -0.4198 -0.0084
 9021SOL    HW127962   0.393   2.204   4.853 -1.2853  0.2165  0.0576
 9021SOL    HW227963   0.333   2.060   4.805 -0.0514  0.0687 -1.0766
 9022SOL     OW27964   5.192   3.510   0.105 -0.1214 -0.1926  0.3160
 9022SOL    HW127965   5.162   3.415   0.110 -0.2398 -0.0967  1.6246
 9022SOL    HW227966   5.288   3.516   0.133 -0.4583  0.2282  1.4165
 9023SOL     OW27967   6.637   3.863   2.444  0.5370  0.2217  0.2372
 9023SOL    HW127968   6.617   3.961   2.439 -1.3090 -0.1747 -0.7809
 9023SOL    HW227969   6.554   3.813   2.466  1.5485 -1.1128  1.2104
 9024SOL     OW27970   0.792   4.912   6.469  0.5388 -0.0742  0.1241
 9024SOL    HW127971   0.783   4.867   6.381 -1.8317 -0.4000  0.4600
 9024SOL    HW227972   0.745   5.001   6.466  0.5778 -0.0159  0.9945
 9025SOL     OW27973   0.464   6.703   1.007  0.1402  0.4133 -0.5189
 9025SOL    HW127974   0.412   6.739   0.929  1.9835  1.5812 -1.2690
 9025SOL    HW227975   0.448   6.604   1.014 -2.3825  0.7480 -0.5080
 9026SOL     OW27976   6.654   1.002   2.014 -0.0314  0.2222  0.0462
 9026SOL    HW127977   6.596   0.970   2.089 -0.7711 -1.1343 -1.0658
 9026SOL    HW227978   6.640   1.100   2.000  0.5123  0.6170  1.9885
 9027SOL     OW27979   0.524   4.838   4.007  0.0617  0.3185  0.1346
 9027SOL    HW127980   0.534   4.817   4.104  0.8699  0.9698  0.1955
 9027SOL    HW227981   0.570   4.924   3.986 -0.5217  0.4302 -0.7335
 9028SOL     OW27982   2.234   4.175   6.117 -0.1976  0.1311 -0.5800
 9028SOL    HW127983   2.187   4.093   6.085  1.8428 -1.6729  0.7146
 9028SOL    HW227984   2.190   4.209   6.200 -0.2504 -0.5028 -0.3445
 9029SOL     OW27985   3.213   0.754   3.319  0.1263 -0.6483  0.4471
 9029SOL    HW127986   3.308   0.747   3.289 -0.0140 -1.4095  0.1595
 9029SOL    HW227987   3.192   0.679   3.382  0.3804  0.8589  2.4177
 9030SOL     OW27988   2.563   1.401   1.801  0.2129 -0.0834  0.1966
 9030SOL    HW127989   2.520   1.428   1.715 -0.3232 -1.1453  0.1239
 9030SOL    HW227990   2.507   1.432   1.877 -1.5136 -2.7016  0.0887
 9031SOL     OW27991   6.247   6.948   4.753 -0.4120 -0.0730 -0.2734
 9031SOL    HW127992   6.171   6.883   4.744  0.5600 -1.7496  2.3847
 9031SOL    HW227993   6.219   7.025   4.810 -0.7852  0.5376 -1.2612
 9032SOL     OW27994   5.100   1.334   6.906 -0.6090  1.0515  0.4299
 9032SOL    HW127995   5.040   1.408   6.876  1.1049  2.6540  0.7363
 9032SOL    HW227996   5.123   1.276   6.827 -0.1814  2.2179 -0.3345
 9033SOL     OW27997   1.452   6.848   1.851  0.2151  0.4738 -0.2279
 9033SOL    HW127998   1.438   6.925   1.913 -0.5687  1.5914 -1.7348
 9033SOL    HW227999   1.422   6.764   1.896  0.9622  1.0354  1.3967
 9034SOL     OW28000   2.545   6.120   5.099 -0.2777 -0.2957 -0.0844
 9034SOL    HW128001   2.546   6.057   5.177  1.6445 -0.2156 -0.0174
 9034SOL    HW228002   2.618   6.096   5.035 -1.9180 -0.4684 -2.0064
 9035SOL     OW28003   2.805   6.709   4.452 -0.3901  0.2526 -0.6913
 9035SOL    HW128004   2.715   6.686   4.490 -0.3467 -0.0025 -0.7411
 9035SOL    HW228005   2.813   6.671   4.360 -0.6311  1.1804 -1.1103
 9036SOL     OW28006   6.980   5.506   5.171  0.1086 -0.2633 -0.1355
 9036SOL    HW128007   6.978   5.569   5.093 -2.4874 -1.4474 -1.1325
 9036SOL    HW228008   6.916   5.538   5.241  0.8365 -0.3476  0.5783
 9037SOL     OW28009   5.832   0.985   2.931 -0.2739 -0.4268  0.1869
 9037SOL    HW128010   5.738   0.982   2.967 -1.0225  0.1222 -1.6137
 9037SOL    HW228011   5.831   0.957   2.835  1.6770 -2.0209  0.5720
 9038SOL     OW28012   2.067   3.948   6.006  0.3558 -0.2541  0.4534
 9038SOL    HW128013   1.987   3.971   6.060  0.2522  1.0697 -0.2194
 9038SOL    HW228014   2.121   3.879   6.054 -0.4429 -0.1288  1.5755
 9039SOL     OW28015   6.966   7.019   5.496  0.3062 -0.2508 -0.2895
 9039SOL    HW128016   6.982   7.107   5.542  1.4645 -0.9630  0.7491
 9039SOL    HW228017   7.037   6.954   5.525  1.7208 -0.4945 -3.7971
 9040SOL     OW28018   1.467   2.907   1.075 -0.1141  0.0656  0.0254
 9040SOL    HW128019   1.432   2.899   1.168 -1.7049  0.2020 -0.5226
 9040SOL    HW228020   1.395   2.942   1.015  1.4885  1.9741 -0.8871
 9041SOL     OW28021   0.694   5.073   2.240 -0.1561 -0.0619  0.9210
 9041SOL    HW128022   0.637   5.000   2.200  0.7870  0.2262 -1.0475
 9041SOL    HW228023   0.636   5.152   2.261 -0.5701  0.1590 -0.8658
 9042SOL     OW28024   6.547   4.876   0.606 -0.1550 -0.3377 -0.3591
 9042SOL    HW128025   6.633   4.927   0.600  0.2472 -0.8877  0.6178
 9042SOL    HW228026   6.548   4.801   0.540  0.3826 -0.7249  0.0819
 9043SOL     OW28027   2.447   3.576   0.895 -0.3085 -0.1255 -0.6054
 9043SOL    HW128028   2.478   3.524   0.975  0.1626  0.8901 -0.1138
 9043SOL    HW228029   2.478   3.530   0.812  0.3223 -0.4981 -0.1731
 9044SOL     OW28030   1.941   0.415   7.007  0.1881 -1.0316  0.5193
 9044SOL    HW128031   2.004   0.355   7.057 -0.6801 -1.1476  1.5103
 9044SOL    HW228032   1.851   0.413   7.052 -0.2923 -0.2311 -0.3847
 9045SOL     OW28033   2.738   6.335   3.597  0.1043  0.0305  0.0162
 9045SOL    HW128034   2.709   6.325   3.502  0.1561 -0.3197  0.0349
 9045SOL    HW228035   2.838   6.337   3.602  0.1009  1.2410 -0.0481
 9046SOL     OW28036   3.607   4.307   1.769  0.3301  0.8417  0.0832
 9046SOL    HW128037   3.540   4.243   1.805  0.6866  0.2168 -0.3428
 9046SOL    HW228038   3.592   4.398   1.809 -2.3904  1.3710 -1.8467
 9047SOL     OW28039   0.333   4.285   6.523  0.4662  0.1126 -0.0085
 9047SOL    HW128040   0.397   4.264   6.449  0.2456 -0.8232  0.0478
 9047SOL    HW228041   0.249   4.233   6.510 -1.0899  2.7097 -1.1142
 9048SOL     OW28042   0.505   3.689   6.511  0.0399 -0.0556 -0.8364
 9048SOL    HW128043   0.502   3.680   6.411  1.1601 -4.3223 -0.6777
 9048SOL    HW228044   0.600   3.689   6.541 -0.2008  2.9979  0.2883
 9049SOL     OW28045   1.437   6.824   4.881  0.2527 -0.1689  0.0131
 9049SOL    HW128046   1.435   6.724   4.886 -1.4104 -0.1695 -0.0057
 9049SOL    HW228047   1.359   6.856   4.827  0.2473  1.1747  0.7649
 9050SOL     OW28048   6.786   3.268   5.928  0.0013 -0.1309  0.2840
 9050SOL    HW128049   6.762   3.323   6.008  0.2593 -1.8581  1.6238
 9050SOL    HW228050   6.716   3.198   5.914  2.0275 -2.6803  1.8048
 9051SOL     OW28051   0.090   1.887   1.324  0.0385 -0.0726  0.4831
 9051SOL    HW128052   0.125   1.954   1.389 -1.0283  1.5955 -0.5977
 9051SOL    HW228053   0.121   1.911   1.231 -1.2702 -0.4248 -0.0600
 9052SOL     OW28054   2.592   1.779   5.870 -0.3957  0.4503  0.0975
 9052SOL    HW128055   2.543   1.702   5.912  1.1263 -0.4028  0.3959
 9052SOL    HW228056   2.640   1.831   5.942 -0.4697  0.9780 -0.2312
 9053SOL     OW28057   1.039   2.968   1.531 -0.0899  0.3150  0.4062
 9053SOL    HW128058   1.002   2.933   1.445 -0.5866  0.0968  0.7083
 9053SOL    HW228059   1.028   2.900   1.602  0.6292  0.3644  0.5708
 9054SOL     OW28060   1.068   6.840   3.449 -0.0747 -0.5661 -0.3680
 9054SOL    HW128061   1.023   6.772   3.506 -0.5209 -1.4196 -1.7026
 9054SOL    HW228062   1.049   6.822   3.353 -0.5559  1.6897 -0.7665
 9055SOL     OW28063   1.490   2.778   5.565 -0.5655 -0.4486  0.1148
 9055SOL    HW128064   1.568   2.822   5.521 -0.4314 -1.5096 -0.7497
 9055SOL    HW228065   1.411   2.840   5.562  0.1658  0.5423  0.8041
 9056SOL     OW28066   6.552   0.052   4.852  0.4564 -0.0236  0.4248
 9056SOL    HW128067   6.554  -0.011   4.930  0.4738  0.2160  0.6175
 9056SOL    HW228068   6.477   0.117   4.864 -0.4004 -0.8068 -0.4061
 9057SOL     OW28069   4.879   5.184   5.243  0.0035  0.0826 -0.0808
 9057SOL    HW128070   4.882   5.097   5.193 -0.5480  0.6003 -1.0266
 9057SOL    HW228071   4.789   5.196   5.284  0.6279 -0.6281  1.6181
 9058SOL     OW28072   2.082   5.878   5.119  0.1177  0.4482 -0.0769
 9058SOL    HW128073   2.073   5.964   5.068  0.0044  0.6784  0.3201
 9058SOL    HW228074   1.993   5.835   5.127 -0.0695  0.9649  0.8524
 9059SOL     OW28075   1.726   2.399   2.928  0.0272  0.1068  0.3331
 9059SOL    HW128076   1.735   2.469   2.857 -0.6264 -0.2107 -0.0829
 9059SOL    HW228077   1.816   2.367   2.956  0.2883 -0.8444 -1.4630
 9060SOL     OW28078   6.111   0.128   5.483  0.5236  0.7350  0.1328
 9060SOL    HW128079   6.149   0.220   5.478  1.5920  0.2448 -1.6495
 9060SOL    HW228080   6.042   0.125   5.555  0.4995  2.9058  0.2844
 9061SOL     OW28081   2.633   5.145   2.323  0.1508  0.0404  0.1568
 9061SOL    HW128082   2.634   5.135   2.223  1.3975  0.3545  0.1197
 9061SOL    HW228083   2.584   5.069   2.364 -0.5567  0.0193 -0.7084
 9062SOL     OW28084   2.827   0.372   0.725 -0.3135 -0.8863 -0.1071
 9062SOL    HW128085   2.844   0.283   0.682 -0.7609 -1.4642  0.8770
 9062SOL    HW228086   2.885   0.441   0.682 -1.0575 -1.3289 -1.9328
 9063SOL     OW28087   2.719   1.581   1.455  0.5001 -0.1577  1.2911
 9063SOL    HW128088   2.725   1.657   1.520  0.0122  0.7341  0.3220
 9063SOL    HW228089   2.657   1.606   1.381  1.5994 -0.8615  0.1040
 9064SOL     OW28090   2.903   3.975   0.056  0.2238 -0.0764 -0.2052
 9064SOL    HW128091   2.826   3.970  -0.008  0.0762 -0.5333  0.0069
 9064SOL    HW228092   2.933   3.883   0.080  0.5444  0.0973  0.0649
 9065SOL     OW28093   2.214   1.355   6.636  0.1834  0.0750 -0.1172
 9065SOL    HW128094   2.132   1.298   6.629  1.0872 -1.4012  0.9434
 9065SOL    HW228095   2.260   1.358   6.547 -1.9294  2.4747 -1.2813
 9066SOL     OW28096   5.004   0.425   6.344 -0.1133  0.0154 -0.0735
 9066SOL    HW128097   4.954   0.427   6.430 -1.4411 -0.3948 -0.8129
 9066SOL    HW228098   5.075   0.496   6.345 -2.1554  2.1963  0.1726
 9067SOL     OW28099   0.602   1.573   1.716  1.0264 -0.1503  0.0671
 9067SOL    HW128100   0.541   1.640   1.758  1.9364  1.0905 -0.5193
 9067SOL    HW228101   0.571   1.553   1.624 -0.2673 -1.9417  0.8403
 9068SOL     OW28102   0.731   6.217   4.489  0.5453  0.2437  0.2947
 9068SOL    HW128103   0.776   6.128   4.503 -0.7211 -0.4050  0.4206
 9068SOL    HW228104   0.643   6.217   4.537  0.4786  1.5363  0.1943
 9069SOL     OW28105   6.085   3.142   6.200 -0.1207 -0.7849 -0.2416
 9069SOL    HW128106   5.988   3.158   6.216  0.0098 -1.0920  0.9275
 9069SOL    HW228107   6.138   3.218   6.237  0.0294  0.1667 -2.2616
 9070SOL     OW28108   1.180   4.364   3.702 -0.6470 -0.0445 -0.0301
 9070SOL    HW128109   1.123   4.424   3.758 -0.7378 -0.5840  0.4624
 9070SOL    HW228110   1.121   4.298   3.655 -0.2855 -2.3084  2.5031
 9071SOL     OW28111   4.336   6.473   6.120  0.1590 -0.2165  0.0764
 9071SOL    HW128112   4.280   6.457   6.039 -0.9027  0.2945  0.7030
 9071SOL    HW228113   4.382   6.387   6.145  0.1341 -0.4945 -0.7790
 9072SOL     OW28114   4.593   4.250   1.598  0.0766  0.0250 -0.1454
 9072SOL    HW128115   4.543   4.211   1.520 -0.7902  0.5817  0.1215
 9072SOL    HW228116   4.540   4.235   1.682  1.2362 -1.0154  0.4315
 9073SOL     OW28117   2.587   6.925   1.353 -0.0219  0.2420 -0.2623
 9073SOL    HW128118   2.637   6.984   1.416 -0.2200 -0.1832  0.3012
 9073SOL    HW228119   2.599   6.958   1.260  1.2891  0.1470 -0.1376
 9074SOL     OW28120   1.129   2.413   6.672 -0.4124 -0.4159  0.7297
 9074SOL    HW128121   1.121   2.368   6.761 -2.9774  0.0798  0.8275
 9074SOL    HW228122   1.159   2.507   6.684  0.5391 -0.7250  0.9105
 9075SOL     OW28123   4.777   1.024   1.446  0.1092  0.5595 -0.4013
 9075SOL    HW128124   4.699   1.081   1.472 -0.5265 -0.6296  0.4177
 9075SOL    HW228125   4.784   1.020   1.347 -0.2480  1.5066 -0.4739
 9076SOL     OW28126   1.757   2.998   4.214  0.4913  0.0300 -0.5142
 9076SOL    HW128127   1.841   2.949   4.236  0.6677 -0.0029 -1.2311
 9076SOL    HW228128   1.765   3.093   4.243 -0.0846 -0.4820  1.4412
 9077SOL     OW28129   6.220   6.207   2.260 -0.3542  0.0209 -0.6071
 9077SOL    HW128130   6.240   6.125   2.207 -0.0602  0.1363 -0.6792
 9077SOL    HW228131   6.300   6.268   2.259 -0.0163 -0.3735  0.7326
 9078SOL     OW28132   0.772   4.520   5.231  0.5713  0.3924  0.1254
 9078SOL    HW128133   0.715   4.457   5.180  1.2838 -1.3377  1.3601
 9078SOL    HW228134   0.868   4.509   5.203  0.8191  0.2622  0.9972
 9079SOL     OW28135   0.935   1.403   4.786  0.8507  0.1193 -0.4717
 9079SOL    HW128136   0.973   1.342   4.855 -0.4767 -0.3792 -0.1472
 9079SOL    HW228137   0.923   1.494   4.824 -1.1655 -0.4776  0.4562
 9080SOL     OW28138   3.804   6.010   6.672 -0.2226 -0.4063  0.3959
 9080SOL    HW128139   3.710   6.045   6.675 -0.1745 -0.0041 -1.4900
 9080SOL    HW228140   3.868   6.086   6.681 -0.0428 -0.6835  1.6996
 9081SOL     OW28141   5.031   0.117   4.345 -0.4328  0.3036  0.1262
 9081SOL    HW128142   5.062   0.091   4.436 -2.1778  2.5778  1.4919
 9081SOL    HW228143   5.073   0.203   4.319  0.1633 -0.4007 -1.3259
 9082SOL     OW28144   2.782   6.274   2.139 -0.4296  0.1564 -0.5167
 9082SOL    HW128145   2.750   6.232   2.054 -0.2086 -0.5914 -0.2381
 9082SOL    HW228146   2.880   6.292   2.133 -0.5918  1.0106 -0.7809
 9083SOL     OW28147   4.600   5.054   4.633  0.3638  0.1823  0.4124
 9083SOL    HW128148   4.517   4.999   4.644  0.4059  0.3186  1.5847
 9083SOL    HW228149   4.674   4.995   4.601  0.0660 -0.1601  0.3409
 9084SOL     OW28150   3.762   3.594   2.124  0.9102  0.2245  0.2452
 9084SOL    HW128151   3.732   3.589   2.029  3.3292  2.2534 -0.7318
 9084SOL    HW228152   3.682   3.603   2.184 -0.6163 -0.0448 -1.6612
 9085SOL     OW28153   0.490   3.058   1.851 -0.1797  0.6556  0.2475
 9085SOL    HW128154   0.487   3.067   1.951  0.0451 -0.3762  0.3577
 9085SOL    HW228155   0.581   3.083   1.818  0.0789 -0.0339  0.4227
 9086SOL     OW28156   0.863   5.215   1.707 -0.2131 -0.3594 -0.3930
 9086SOL    HW128157   0.852   5.269   1.624 -0.6465 -1.3471 -0.9955
 9086SOL    HW228158   0.923   5.137   1.688 -2.3703 -2.0773 -0.5359
 9087SOL     OW28159   4.705   3.132   1.660 -0.1264 -0.4365 -0.2092
 9087SOL    HW128160   4.777   3.196   1.688 -3.1123  3.0405  0.2180
 9087SOL    HW228161   4.659   3.097   1.742 -2.1735  1.5249 -0.4410
 9088SOL     OW28162   4.642   3.103   1.394  0.0634  0.3341  0.1628
 9088SOL    HW128163   4.725   3.079   1.344  1.4480  3.8153  0.5111
 9088SOL    HW228164   4.661   3.104   1.492 -0.3338  1.2871  0.2388
 9089SOL     OW28165   4.188   0.562   4.925 -0.0719  0.2064 -0.0674
 9089SOL    HW128166   4.251   0.538   4.851  2.0227  1.2484  1.2776
 9089SOL    HW228167   4.182   0.662   4.932 -1.5009  0.1220  0.1889
 9090SOL     OW28168   6.825   1.917   3.061  0.0124 -0.2724  0.4758
 9090SOL    HW128169   6.804   2.004   3.016 -1.2757  0.3621  2.1889
 9090SOL    HW228170   6.924   1.911   3.077  0.2254  0.4338 -0.5033
 9091SOL     OW28171   3.520   3.115   5.767  0.4176  0.6076 -0.3485
 9091SOL    HW128172   3.473   3.109   5.679 -0.8627 -0.7057  0.3927
 9091SOL    HW228173   3.570   3.031   5.784  1.2375  1.1311 -0.1111
 9092SOL     OW28174   6.841   2.394   5.137  0.1099  0.4240 -0.0871
 9092SOL    HW128175   6.802   2.341   5.061  1.6513 -0.7148 -0.1258
 9092SOL    HW228176   6.797   2.484   5.140  1.2643  1.2892 -3.5654
 9093SOL     OW28177   1.973   6.093   4.977  0.3291  0.2680  0.4757
 9093SOL    HW128178   1.888   6.137   5.006  0.3971 -0.2689  1.5402
 9093SOL    HW228179   1.952   6.019   4.913  0.1220  1.0643 -0.3936
 9094SOL     OW28180   2.742   4.538   5.754  0.5407 -0.1161  0.1920
 9094SOL    HW128181   2.679   4.576   5.822  0.7010  0.3629  0.0794
 9094SOL    HW228182   2.721   4.441   5.740 -0.6564  0.1989 -0.3741
 9095SOL     OW28183   0.591   6.344   3.462  0.1174  0.1316 -0.3978
 9095SOL    HW128184   0.566   6.434   3.499  0.8923  0.3417 -0.3582
 9095SOL    HW228185   0.539   6.273   3.508 -1.6993  0.6561 -1.5294
 9096SOL     OW28186   0.626   5.929   5.895  0.2792  0.2038 -0.2922
 9096SOL    HW128187   0.687   5.968   5.826  0.9413 -0.5583 -0.1549
 9096SOL    HW228188   0.538   5.907   5.853  0.9338 -0.9739 -1.0968
 9097SOL     OW28189   6.661   1.901   0.152  0.1715  0.4921  0.5833
 9097SOL    HW128190   6.572   1.945   0.138 -1.4058 -2.9397 -1.4376
 9097SOL    HW228191   6.722   1.925   0.077 -0.5315 -0.3467 -0.2793
 9098SOL     OW28192   2.691   4.692   4.513 -0.0660 -0.5061  0.2977
 9098SOL    HW128193   2.728   4.780   4.483 -0.4593 -0.3164  0.3636
 9098SOL    HW228194   2.696   4.687   4.613  0.2403 -0.6884  0.2750
 9099SOL     OW28195   1.791   6.904   0.309 -0.3333  0.3320  0.2412
 9099SOL    HW128196   1.859   6.976   0.296  0.7790 -0.6896  0.2422
 9099SOL    HW228197   1.810   6.828   0.248 -0.7101 -0.5141  1.1448
 9100SOL     OW28198   2.221   3.914   3.060  0.0023 -0.3344 -0.0773
 9100SOL    HW128199   2.235   3.963   2.974  2.5674 -1.0632 -0.1543
 9100SOL    HW228200   2.153   3.842   3.047 -0.4532  0.2712 -1.1743
 9101SOL     OW28201   6.492   2.019   1.200 -0.5895 -0.8707  0.7056
 9101SOL    HW128202   6.397   2.049   1.199 -0.7263 -1.0785  2.8371
 9101SOL    HW228203   6.504   1.941   1.138 -0.6763  2.0411 -3.3807
 9102SOL     OW28204   4.872   6.937   3.906 -0.2474 -0.2884  0.1371
 9102SOL    HW128205   4.863   6.850   3.857 -1.2461  0.7577 -1.6129
 9102SOL    HW228206   4.783   6.964   3.941 -0.1868  0.6344 -0.4087
 9103SOL     OW28207   5.774   1.234   6.942 -0.1075 -0.0110 -0.4545
 9103SOL    HW128208   5.840   1.297   6.983 -1.0867 -0.5181  2.1122
 9103SOL    HW228209   5.685   1.278   6.936 -0.3756 -0.5343 -0.3923
 9104SOL     OW28210   5.672   6.665   6.607  0.5070  0.4625 -0.5040
 9104SOL    HW128211   5.727   6.724   6.548  0.1004  0.8924 -0.4620
 9104SOL    HW228212   5.593   6.716   6.640  0.3600  0.0094 -0.1470
 9105SOL     OW28213   3.386   6.040   5.680 -0.5582  0.0595  0.2565
 9105SOL    HW128214   3.372   6.121   5.737 -0.8623  1.4895 -1.7713
 9105SOL    HW228215   3.463   5.987   5.716 -0.5795  1.0293  1.8274
 9106SOL     OW28216   3.714   3.596   4.975 -0.3464 -0.3729  0.3444
 9106SOL    HW128217   3.754   3.682   4.942  0.2448 -0.9303 -0.4250
 9106SOL    HW228218   3.617   3.595   4.952 -0.0060 -0.6221 -1.1677
 9107SOL     OW28219   5.581   6.718   0.909 -0.4438  0.6401 -0.0416
 9107SOL    HW128220   5.559   6.814   0.926  1.0980  0.9606  0.3370
 9107SOL    HW228221   5.676   6.711   0.878 -0.6715 -0.7291 -0.4932
 9108SOL     OW28222   3.684   6.990   4.951  0.5986 -0.3280 -0.1555
 9108SOL    HW128223   3.624   7.006   5.029 -1.1863 -1.2331 -1.2665
 9108SOL    HW228224   3.659   7.051   4.877  1.0427 -0.7138 -0.6277
 9109SOL     OW28225   5.793   2.798   3.227 -0.3046 -0.1790  0.1537
 9109SOL    HW128226   5.859   2.870   3.248 -1.5239  0.6689  1.2782
 9109SOL    HW228227   5.840   2.722   3.182  1.6864 -0.1202  1.9180
 9110SOL     OW28228   0.801   1.226   0.919 -0.7638  0.3201  0.4227
 9110SOL    HW128229   0.750   1.149   0.956  0.5215  0.2494  2.1628
 9110SOL    HW228230   0.830   1.286   0.993  0.7249  0.9422 -0.6079
 9111SOL     OW28231   5.179   3.754   6.150  0.2409 -0.4490  0.4948
 9111SOL    HW128232   5.278   3.761   6.132 -0.0254 -1.2052 -1.4804
 9111SOL    HW228233   5.131   3.825   6.098 -0.3663 -1.0297  0.2522
 9112SOL     OW28234   1.101   2.858   2.504  0.5365  0.1058  0.0772
 9112SOL    HW128235   1.198   2.881   2.507 -0.0244  2.8500 -0.1356
 9112SOL    HW228236   1.070   2.858   2.409 -0.7845  5.2950  0.2247
 9113SOL     OW28237   4.491   1.075   5.049 -0.1471  0.5941  0.3875
 9113SOL    HW128238   4.535   1.151   5.002  0.9171  0.4574  1.1132
 9113SOL    HW228239   4.411   1.108   5.099 -0.8811  0.8572 -0.9229
 9114SOL     OW28240   6.297   1.137   0.013  0.0145  0.1730 -0.3264
 9114SOL    HW128241   6.362   1.212   0.026 -0.5555  0.6193 -0.0070
 9114SOL    HW228242   6.226   1.165  -0.052 -1.4556  0.7572  1.4377
 9115SOL     OW28243   6.130   3.633   5.668 -0.0414  0.4060 -0.1190
 9115SOL    HW128244   6.071   3.600   5.742 -1.9738  0.8627 -1.3760
 9115SOL    HW228245   6.158   3.728   5.688 -1.7614  1.0499 -0.6129
 9116SOL     OW28246   0.174   4.234   3.316 -0.2272 -0.2118  0.6326
 9116SOL    HW128247   0.258   4.181   3.323 -0.3257 -1.0151 -2.8225
 9116SOL    HW228248   0.196   4.326   3.284 -0.6330 -0.3377 -0.0082
 9117SOL     OW28249   2.204   6.419   5.114  0.3642 -0.7754  0.5188
 9117SOL    HW128250   2.191   6.320   5.106 -1.9604 -0.5816  1.0468
 9117SOL    HW228251   2.292   6.437   5.159  0.7490 -2.5976  0.5975
 9118SOL     OW28252   1.071   5.372   1.983 -0.3030 -0.4691 -0.2003
 9118SOL    HW128253   1.103   5.326   1.901  0.1310  1.3254 -1.0976
 9118SOL    HW228254   0.973   5.358   1.994 -0.0855 -2.0304 -0.1207
 9119SOL     OW28255   4.498   0.931   1.527 -0.4084 -0.7657 -0.6604
 9119SOL    HW128256   4.485   0.832   1.518 -0.3198 -0.8952  0.4577
 9119SOL    HW228257   4.504   0.973   1.436  0.5960 -1.9130 -1.1424
 9120SOL     OW28258   0.137   6.481   4.038  0.0230  1.0918  0.1554
 9120SOL    HW128259   0.113   6.545   3.965  0.1844  1.7140  0.6454
 9120SOL    HW228260   0.099   6.391   4.016 -1.1821  1.6123  0.0186
 9121SOL     OW28261   4.986   6.912   5.730 -0.3150 -0.6486 -0.1930
 9121SOL    HW128262   4.903   6.904   5.784 -0.9565 -1.8913 -1.2925
 9121SOL    HW228263   4.964   6.951   5.640  0.0681 -1.9237 -0.8766
 9122SOL     OW28264   1.163   2.480   1.829 -0.0139 -0.1354  0.1379
 9122SOL    HW128265   1.234   2.478   1.759 -1.2442 -0.2523 -1.1551
 9122SOL    HW228266   1.074   2.491   1.786 -0.7846  0.2114  1.7327
 9123SOL     OW28267   1.017   0.018   5.714 -0.0536 -0.3036 -0.3970
 9123SOL    HW128268   1.099  -0.037   5.698  0.4442 -0.3143  1.8567
 9123SOL    HW228269   0.943  -0.041   5.746 -0.2225  0.0206 -0.1786
 9124SOL     OW28270   3.134   0.269   6.274 -0.6668 -0.7728 -0.5244
 9124SOL    HW128271   3.207   0.296   6.337 -1.3084 -1.4481  0.5384
 9124SOL    HW228272   3.147   0.315   6.186  1.8100 -1.8827 -0.8326
 9125SOL     OW28273   5.744   6.821   2.003  0.2962  0.1245 -0.0480
 9125SOL    HW128274   5.684   6.748   2.035 -0.9664  1.1892  0.1081
 9125SOL    HW228275   5.804   6.785   1.931 -0.5131 -0.9908 -0.2016
 9126SOL     OW28276   4.228   4.527   6.238  0.3213  0.5584 -0.1204
 9126SOL    HW128277   4.136   4.531   6.198  0.7146  0.0104 -1.1223
 9126SOL    HW228278   4.224   4.554   6.334 -1.1215 -0.8886  0.2703
 9127SOL     OW28279   6.299   4.427   6.363 -0.0320 -0.0104 -0.0459
 9127SOL    HW128280   6.357   4.414   6.283  0.9886 -0.4484  0.7488
 9127SOL    HW228281   6.346   4.394   6.445 -0.8073  0.9646  0.8271
 9128SOL     OW28282   6.027   2.330   6.776  0.7615  0.3542 -0.4655
 9128SOL    HW128283   5.943   2.301   6.822  1.6190 -0.0115  0.9333
 9128SOL    HW228284   6.008   2.408   6.716 -0.4922  0.5451  0.1636
 9129SOL     OW28285   0.852   4.271   0.822  0.5367  0.1417 -0.2647
 9129SOL    HW128286   0.863   4.180   0.782  0.1147  0.0833 -0.2500
 9129SOL    HW228287   0.755   4.291   0.834  0.6479 -0.0951  1.2933
 9130SOL     OW28288   1.848   4.159   0.348  0.5712 -0.0388 -0.2663
 9130SOL    HW128289   1.857   4.157   0.248 -0.1537 -0.3255 -0.3352
 9130SOL    HW228290   1.894   4.079   0.387  0.7740  0.0218 -0.3798
 9131SOL     OW28291   6.724   5.963   2.077  0.2425  0.1913  0.0477
 9131SOL    HW128292   6.803   5.904   2.058 -0.6368 -1.1744  0.5016
 9131SOL    HW228293   6.687   5.941   2.168 -0.4923  1.0039 -0.0436
 9132SOL     OW28294   6.794   3.184   4.124 -0.3328 -0.5271 -0.4710
 9132SOL    HW128295   6.706   3.162   4.168 -0.3441 -2.2766 -1.3022
 9132SOL    HW228296   6.777   3.223   4.034 -0.2457 -0.9810 -0.6815
 9133SOL     OW28297   4.712   0.264   3.790 -0.2570  0.2128  0.2697
 9133SOL    HW128298   4.643   0.202   3.755 -0.9880  1.2249 -0.1384
 9133SOL    HW228299   4.689   0.358   3.764  0.9361  0.6403  0.6657
 9134SOL     OW28300   4.936   3.221   6.211  0.2412  0.3831  0.6085
 9134SOL    HW128301   4.961   3.203   6.305  0.8847 -0.8026  0.2279
 9134SOL    HW228302   5.005   3.280   6.168  0.4984  0.0607  0.5801
 9135SOL     OW28303   0.479   4.973   0.905  0.2604 -0.0192 -0.3558
 9135SOL    HW128304   0.460   4.911   0.981  2.2420 -0.3087 -0.0186
 9135SOL    HW228305   0.483   4.922   0.820  1.8145 -0.4113 -0.0890
 9136SOL     OW28306   6.891   3.569   1.349  0.6641 -0.2347  0.2590
 9136SOL    HW128307   6.972   3.627   1.358  0.1525  1.3136 -3.1418
 9136SOL    HW228308   6.809   3.625   1.362  0.1729 -0.7276 -0.5739
 9137SOL     OW28309   0.581   5.489   1.086  0.2488 -0.1991  0.2678
 9137SOL    HW128310   0.608   5.585   1.072  0.0377 -0.2595 -0.5928
 9137SOL    HW228311   0.598   5.437   1.003 -0.9821 -0.5931  0.2368
 9138SOL     OW28312   2.347   4.416   4.344 -0.5330  0.4429  0.1363
 9138SOL    HW128313   2.365   4.345   4.412  2.0676 -0.3878 -1.2730
 9138SOL    HW228314   2.321   4.374   4.258 -0.5861  1.2965 -0.2724
 9139SOL     OW28315   0.283   5.813   0.361  0.7058  0.0305  0.4502
 9139SOL    HW128316   0.325   5.723   0.369  0.5091 -0.0896  0.1595
 9139SOL    HW228317   0.198   5.806   0.309 -0.0357  0.1556  1.6135
 9140SOL     OW28318   6.069   3.076   2.416 -0.1230 -0.1340 -0.1382
 9140SOL    HW128319   5.984   3.127   2.430 -1.0529 -1.7933  0.5612
 9140SOL    HW228320   6.100   3.039   2.504  0.4082 -0.9000 -0.6371
 9141SOL     OW28321   6.683   6.354   4.585  0.0798  0.9599 -0.1676
 9141SOL    HW128322   6.730   6.399   4.661  0.5240 -0.6356  0.5323
 9141SOL    HW228323   6.585   6.370   4.592  0.0720  0.4746  1.0071
 9142SOL     OW28324   2.344   6.547   3.141 -0.3208  0.1774 -0.1507
 9142SOL    HW128325   2.390   6.470   3.185  1.1332  1.5313  0.7677
 9142SOL    HW228326   2.405   6.626   3.139 -0.3538  0.3262 -4.4221
 9143SOL     OW28327   5.145   3.425   3.066 -0.3131  0.0833 -1.0332
 9143SOL    HW128328   5.086   3.353   3.030 -1.8010 -0.0048  1.3471
 9143SOL    HW228329   5.212   3.384   3.128  0.1823  0.5373 -1.2622
 9144SOL     OW28330   3.157   5.568   5.859  0.3824  0.4718  0.3646
 9144SOL    HW128331   3.058   5.579   5.856  0.2587 -0.4983  0.4433
 9144SOL    HW228332   3.189   5.529   5.772  0.3291 -1.6906  1.2427
 9145SOL     OW28333   4.025   5.843   6.462 -0.3740  0.0747  0.2630
 9145SOL    HW128334   4.027   5.900   6.544 -3.1962  0.4319  0.1865
 9145SOL    HW228335   3.938   5.856   6.414 -0.0405 -2.3539 -1.1800
 9146SOL     OW28336   6.402   6.397   4.625 -0.4156  0.1249  0.5429
 9146SOL    HW128337   6.419   6.469   4.557 -1.4389  0.6229  0.7965
 9146SOL    HW228338   6.326   6.340   4.595 -0.7243  0.2036  1.1634
 9147SOL     OW28339   3.820   5.820   6.899  0.2205 -0.0468  0.4262
 9147SOL    HW128340   3.902   5.767   6.878  0.6818  0.4683  0.8816
 9147SOL    HW228341   3.813   5.898   6.836  0.3950  0.2278  0.7382
 9148SOL     OW28342   2.573   5.157   1.237  0.5265 -0.5891 -0.6872
 9148SOL    HW128343   2.608   5.065   1.255  1.1028 -0.1901  0.3114
 9148SOL    HW228344   2.621   5.223   1.294 -0.1517  0.2945 -1.1064
 9149SOL     OW28345   6.833   3.889   2.656  0.1118 -0.1822 -0.0445
 9149SOL    HW128346   6.778   3.863   2.735 -1.5558  1.6995 -0.4809
 9149SOL    HW228347   6.782   3.868   2.572  0.4979  0.6688 -0.5039
 9150SOL     OW28348   4.254   4.025   0.895 -0.1191 -0.2574  0.5689
 9150SOL    HW128349   4.326   3.955   0.887 -0.0655 -0.1092 -0.4068
 9150SOL    HW228350   4.244   4.052   0.990 -0.9568 -2.4506  1.1660
 9151SOL     OW28351   2.708   5.265   3.620 -0.5923 -0.1199 -0.3627
 9151SOL    HW128352   2.679   5.360   3.628 -0.4078  0.2983 -3.5364
 9151SOL    HW228353   2.795   5.252   3.667 -0.1219  1.5317 -0.7299
 9152SOL     OW28354   0.819   5.802   6.974 -0.3390 -0.1874 -0.1122
 9152SOL    HW128355   0.882   5.841   7.041  0.5231 -0.6519 -0.6340
 9152SOL    HW228356   0.742   5.863   6.961 -0.9209 -0.4380  1.8653
 9153SOL     OW28357   1.442   2.978   2.424 -0.7314 -0.1611 -0.9528
 9153SOL    HW128358   1.505   2.931   2.486  0.1191  0.9168 -0.9777
 9153SOL    HW228359   1.416   2.916   2.351  1.1280 -0.3439 -1.5223
 9154SOL     OW28360   6.778   6.225   2.657  0.2887 -0.2005  0.1693
 9154SOL    HW128361   6.858   6.284   2.655  0.0551  0.1575  0.9352
 9154SOL    HW228362   6.787   6.154   2.588  0.6528  0.6355 -0.6662
 9155SOL     OW28363   6.334   0.187   2.214  0.3509 -0.1098  0.2770
 9155SOL    HW128364   6.373   0.270   2.253 -0.6588  0.7820 -0.5525
 9155SOL    HW228365   6.288   0.135   2.286  0.4143  0.3738  0.6734
 9156SOL     OW28366   6.218   5.845   4.977  0.4289 -0.0632  0.0041
 9156SOL    HW128367   6.184   5.802   4.893  1.3478  1.4397 -1.1870
 9156SOL    HW228368   6.215   5.778   5.051 -0.6936 -1.3516 -1.1308
 9157SOL     OW28369   2.539   5.140   6.223  0.1001  0.2718  0.0586
 9157SOL    HW128370   2.543   5.222   6.165  0.3191  1.2083  1.3486
 9157SOL    HW228371   2.462   5.083   6.195  1.2814 -0.2904 -2.3757
 9158SOL     OW28372   6.352   3.089   3.957 -0.4755 -0.1868 -0.3482
 9158SOL    HW128373   6.268   3.069   3.908 -0.2951 -1.1882 -0.2570
 9158SOL    HW228374   6.424   3.027   3.926  0.4640  1.1875 -1.0254
 9159SOL     OW28375   2.487   0.428   1.887 -0.0346  0.3632 -0.3820
 9159SOL    HW128376   2.423   0.393   1.818 -1.0263  1.7049 -0.1871
 9159SOL    HW228377   2.547   0.496   1.844 -0.4099  0.9282 -0.0359
 9160SOL     OW28378   5.936   4.393   6.996  0.2113 -0.2485 -0.2954
 9160SOL    HW128379   5.850   4.374   7.042  0.4435 -0.1503  0.1907
 9160SOL    HW228380   5.924   4.469   6.932 -0.4823 -1.3704 -1.5382
 9161SOL     OW28381   5.926   3.558   3.645  0.4787  0.1394  0.1071
 9161SOL    HW128382   5.989   3.636   3.639  0.2966  0.2324 -0.5939
 9161SOL    HW228383   5.940   3.497   3.567  1.0492 -0.8641  0.9709
 9162SOL     OW28384   5.188   1.268   2.072 -0.1170  0.0351  0.1061
 9162SOL    HW128385   5.126   1.336   2.111 -2.2967 -0.8409 -1.6284
 9162SOL    HW228386   5.281   1.286   2.104 -0.8023  3.0097  0.7325
 9163SOL     OW28387   0.840   4.498   3.124  0.0352 -0.0284 -0.4366
 9163SOL    HW128388   0.929   4.459   3.103  0.2293 -0.1758  0.5968
 9163SOL    HW228389   0.775   4.424   3.144 -0.4513  0.0568 -1.6631
 9164SOL     OW28390   4.080   0.404   1.401 -0.1830  0.2257  0.0058
 9164SOL    HW128391   3.985   0.434   1.409  0.1131  2.0182 -2.2627
 9164SOL    HW228392   4.092   0.352   1.317  0.5422 -1.4903  1.1100
 9165SOL     OW28393   0.591   0.895   6.055  0.0427 -0.4099 -0.1484
 9165SOL    HW128394   0.665   0.829   6.065 -2.0924 -2.6486  2.9358
 9165SOL    HW228395   0.613   0.979   6.106  0.1711 -1.4137  1.5197
 9166SOL     OW28396   4.533   5.930   1.997  0.5335 -0.3083 -0.0048
 9166SOL    HW128397   4.602   5.858   2.005 -1.0561 -1.9254  0.0703
 9166SOL    HW228398   4.443   5.887   1.985 -0.6019  1.6856  0.9486
 9167SOL     OW28399   1.905   2.551   5.328 -0.6983  0.1648  0.0269
 9167SOL    HW128400   1.907   2.611   5.248 -0.4738 -1.2841 -1.0829
 9167SOL    HW228401   1.893   2.607   5.410  1.5551  1.9435 -0.7370
 9168SOL     OW28402   5.387   6.498   4.803 -0.2568  0.0856 -0.2029
 9168SOL    HW128403   5.434   6.584   4.785  0.0032 -0.0372 -0.1145
 9168SOL    HW228404   5.447   6.421   4.780 -0.3229 -0.0709  0.1450
 9169SOL     OW28405   6.300   6.024   1.423 -0.6483 -0.6768 -0.0910
 9169SOL    HW128406   6.311   6.112   1.377 -1.3124 -0.5405  0.0146
 9169SOL    HW228407   6.300   6.038   1.522  0.6718 -0.9576 -0.0320
 9170SOL     OW28408   1.770   0.010   6.942 -0.1936 -0.3451 -0.0395
 9170SOL    HW128409   1.870   0.009   6.945 -0.2148 -0.1652  0.8324
 9170SOL    HW228410   1.734  -0.054   7.010 -0.6884  0.7986  0.7862
 9171SOL     OW28411   3.147   5.731   0.127  0.0514  0.5240  1.1335
 9171SOL    HW128412   3.065   5.740   0.070  0.5731  2.6350  0.6543
 9171SOL    HW228413   3.151   5.805   0.194  1.3097  0.1604  1.4982
 9172SOL     OW28414   5.113   1.330   6.437 -0.1560  0.2204 -0.3573
 9172SOL    HW128415   5.075   1.265   6.371  0.8225 -0.0450 -0.6798
 9172SOL    HW228416   5.047   1.345   6.511 -0.4614 -1.0159 -0.3589
 9173SOL     OW28417   4.412   5.644   6.594  0.0962 -0.4934  0.0660
 9173SOL    HW128418   4.326   5.594   6.591 -0.0550 -0.2715  0.5345
 9173SOL    HW228419   4.399   5.736   6.556  0.3285 -0.7397 -0.6260
 9174SOL     OW28420   5.035   3.633   0.600 -0.0263  0.1659  0.2797
 9174SOL    HW128421   4.960   3.578   0.564  0.4280 -0.4275  0.2242
 9174SOL    HW228422   5.055   3.604   0.694  0.4208  0.0185  0.1419
 9175SOL     OW28423   3.245   6.407   1.820 -0.4102 -0.0288 -0.2296
 9175SOL    HW128424   3.229   6.328   1.880  0.0557 -0.0800 -0.1690
 9175SOL    HW228425   3.172   6.474   1.834 -1.6652 -1.0887 -1.3809
 9176SOL     OW28426   2.275   6.549   4.646  0.0436  0.6697 -0.1533
 9176SOL    HW128427   2.247   6.639   4.613 -0.5422  0.3105 -0.6662
 9176SOL    HW228428   2.215   6.521   4.721 -1.7892 -0.5747 -1.9679
 9177SOL     OW28429   0.841   6.208   2.496 -0.5110  1.0138  0.0219
 9177SOL    HW128430   0.794   6.172   2.415 -0.9838  1.3323  0.1498
 9177SOL    HW228431   0.812   6.303   2.512  0.6351  1.4204 -0.2455
 9178SOL     OW28432   6.719   1.874   0.405  0.3170 -0.3846 -0.6320
 9178SOL    HW128433   6.682   1.881   0.312 -2.0297 -0.7426  0.2187
 9178SOL    HW228434   6.806   1.925   0.409 -0.4699  1.2812 -2.5258
 9179SOL     OW28435   5.422   5.587   3.502 -0.6290  0.1859 -0.7516
 9179SOL    HW128436   5.412   5.493   3.534 -1.5872  0.1298 -1.2010
 9179SOL    HW228437   5.411   5.650   3.579  0.2068 -0.0635 -0.4132
 9180SOL     OW28438   0.020   1.354   5.800  0.0669  0.4610 -0.1821
 9180SOL    HW128439  -0.036   1.428   5.763 -0.2221  0.0909 -0.4810
 9180SOL    HW228440   0.078   1.315   5.728 -0.3552 -0.1274 -0.2093
 9181SOL     OW28441   1.668   1.336   0.356  0.4569 -0.0383  0.7327
 9181SOL    HW128442   1.587   1.392   0.372  0.3848  0.0302  0.1667
 9181SOL    HW228443   1.718   1.372   0.277 -0.2432 -1.4654 -0.3949
 9182SOL     OW28444   0.632   3.074   5.459  0.8688 -0.4254  0.5269
 9182SOL    HW128445   0.695   3.099   5.533  0.0481  0.5567  0.9172
 9182SOL    HW228446   0.544   3.047   5.499  0.6491 -0.6017 -0.0670
 9183SOL     OW28447   2.620   1.455   5.728  0.3850 -0.5302 -0.0260
 9183SOL    HW128448   2.656   1.393   5.658 -0.7487 -0.0578 -1.0525
 9183SOL    HW228449   2.696   1.493   5.781  1.2389 -1.1394 -0.7840
 9184SOL     OW28450   3.129   5.361   6.660 -0.1267  0.0628 -0.3281
 9184SOL    HW128451   3.116   5.457   6.633 -2.3484 -0.0605  0.1282
 9184SOL    HW228452   3.185   5.314   6.592  0.0740  1.4067 -1.1266
 9185SOL     OW28453   0.715   1.275   5.389  0.5642  0.2067  0.2972
 9185SOL    HW128454   0.758   1.221   5.461 -1.4255  0.2452  1.6213
 9185SOL    HW228455   0.726   1.229   5.301 -0.5909 -2.1288  1.2848
 9186SOL     OW28456   6.465   4.990   5.646  0.3601 -0.5282  0.3963
 9186SOL    HW128457   6.407   5.063   5.611  1.1668  0.6045  1.3662
 9186SOL    HW228458   6.485   4.925   5.572 -1.3266 -0.4250 -0.1868
 9187SOL     OW28459   3.050   3.163   1.460  0.1642 -0.2973 -0.5680
 9187SOL    HW128460   3.033   3.070   1.494 -1.0958  0.2490  0.3918
 9187SOL    HW228461   3.141   3.193   1.490  0.1744 -0.8577 -0.0097
 9188SOL     OW28462   1.078   1.476   0.898 -0.3855  0.3548  0.3715
 9188SOL    HW128463   1.120   1.416   0.830 -0.4025  0.6559  0.0929
 9188SOL    HW228464   0.998   1.432   0.937 -1.1340  0.6979 -0.7412
 9189SOL     OW28465   2.408   0.522   5.964  0.0256 -0.2720 -0.6012
 9189SOL    HW128466   2.491   0.546   6.015 -0.0903  1.4229 -1.1209
 9189SOL    HW228467   2.341   0.481   6.025  0.7251 -0.3573  0.1200
 9190SOL     OW28468   3.724   1.176   1.678 -0.3758  0.2465  0.3247
 9190SOL    HW128469   3.781   1.242   1.628 -1.0422  2.3796  2.2133
 9190SOL    HW228470   3.631   1.179   1.642 -0.0825 -0.8628 -0.6019
 9191SOL     OW28471   6.958   6.943   2.436 -0.4528 -0.2423 -0.1303
 9191SOL    HW128472   7.019   6.978   2.365  2.9323  0.6470  2.8837
 9191SOL    HW228473   6.975   6.846   2.450 -0.3087 -0.1841  0.1231
 9192SOL     OW28474   5.050   0.092   1.345 -0.0173  0.4419  0.3142
 9192SOL    HW128475   5.122   0.089   1.414 -0.4069  1.2548  0.7736
 9192SOL    HW228476   5.017  -0.001   1.327  1.3223  0.0352 -0.1152
 9193SOL     OW28477   3.241   3.047   2.432 -0.0107 -0.5110  0.7889
 9193SOL    HW128478   3.278   2.999   2.512 -0.2267 -0.7565  0.7421
 9193SOL    HW228479   3.219   3.141   2.458  0.4322 -0.4266  0.8757
 9194SOL     OW28480   2.043   5.998   3.216 -0.3761  0.1739 -0.2123
 9194SOL    HW128481   2.063   5.934   3.290  0.0167  1.2151  0.5945
 9194SOL    HW228482   2.117   5.996   3.149 -0.2118  0.0270 -0.0284
 9195SOL     OW28483   4.894   3.787   2.011  0.3357 -0.1963 -1.0232
 9195SOL    HW128484   4.825   3.793   1.939  1.4688  2.2207 -2.0273
 9195SOL    HW228485   4.984   3.810   1.972  1.0314  0.8704  1.0759
 9196SOL     OW28486   6.484   6.002   4.316 -0.0411 -0.2618 -0.1501
 9196SOL    HW128487   6.413   6.065   4.284 -1.3301 -2.4877 -1.9766
 9196SOL    HW228488   6.458   5.964   4.405 -0.0494  0.5401  0.1936
 9197SOL     OW28489   3.712   3.670   5.821 -0.2033  0.8080 -0.0904
 9197SOL    HW128490   3.635   3.608   5.838  0.9645 -1.1881 -1.6151
 9197SOL    HW228491   3.690   3.761   5.857 -2.5712 -0.0965  0.9840
 9198SOL     OW28492   6.645   4.278   4.749 -0.0507 -0.5630 -0.1008
 9198SOL    HW128493   6.646   4.229   4.662 -1.5084 -0.4483 -0.2036
 9198SOL    HW228494   6.709   4.233   4.812  0.4191 -1.1384 -0.9535
 9199SOL     OW28495   5.586   4.112   0.168  0.3751  0.3476  0.0221
 9199SOL    HW128496   5.536   4.193   0.198  3.1993  2.0531  0.4583
 9199SOL    HW228497   5.572   4.098   0.070 -0.2519  1.2755 -0.0327
 9200SOL     OW28498   4.031   6.867   1.960  0.0948 -0.0224 -0.5716
 9200SOL    HW128499   4.007   6.873   1.864 -1.4560 -0.3601 -0.2333
 9200SOL    HW228500   3.970   6.925   2.014  1.2305  0.5170  0.1764
 9201SOL     OW28501   1.768   4.478   3.216  0.3805  0.2516  0.1108
 9201SOL    HW128502   1.751   4.447   3.310  0.7180 -0.5520 -0.0878
 9201SOL    HW228503   1.693   4.538   3.187 -0.1464 -0.1455  0.6124
 9202SOL     OW28504   1.391   6.365   4.756  0.3348  0.3419  0.0597
 9202SOL    HW128505   1.297   6.392   4.736 -1.6348 -2.7871  3.6711
 9202SOL    HW228506   1.425   6.417   4.834  0.6616 -0.1936  0.2791
 9203SOL     OW28507   0.400   1.250   0.245 -0.1230  0.1966  0.0567
 9203SOL    HW128508   0.357   1.317   0.184 -0.9919  0.8271  1.3067
 9203SOL    HW228509   0.336   1.175   0.262 -0.1643  0.3787  0.7312
 9204SOL     OW28510   4.952   3.667   2.743  0.1561 -0.1713  0.0078
 9204SOL    HW128511   4.923   3.733   2.674 -0.0124 -0.1948  0.0579
 9204SOL    HW228512   4.953   3.575   2.703 -0.3712 -0.2462  0.1619
 9205SOL     OW28513   5.290   1.989   0.123 -0.1798  0.2954  0.0192
 9205SOL    HW128514   5.323   1.894   0.123  0.2690  0.4074  2.1028
 9205SOL    HW228515   5.207   1.995   0.068  0.1879 -1.1381 -0.7604
 9206SOL     OW28516   0.505   2.057   3.730  0.6595 -0.7189 -0.0824
 9206SOL    HW128517   0.561   2.022   3.655 -1.2931  1.7091 -2.8937
 9206SOL    HW228518   0.516   2.156   3.737 -2.6257 -0.2375 -0.2778
 9207SOL     OW28519   0.237   6.983   0.302 -0.2424  0.3031  0.2191
 9207SOL    HW128520   0.317   7.035   0.332  0.4824 -0.3921 -0.4591
 9207SOL    HW228521   0.236   6.894   0.348  0.3285 -0.3701 -1.0280
 9208SOL     OW28522   0.052   3.760   2.683 -0.1250 -0.7958  0.0255
 9208SOL    HW128523   0.112   3.772   2.603 -1.3930  0.4039 -0.8006
 9208SOL    HW228524  -0.042   3.781   2.657 -0.6490 -0.8951  1.7320
 9209SOL     OW28525   6.129   0.847   3.745 -0.2649  0.2147 -0.0265
 9209SOL    HW128526   6.113   0.894   3.832  0.9404  0.5598  0.0198
 9209SOL    HW228527   6.106   0.750   3.755 -1.8925  0.5907  0.1365
 9210SOL     OW28528   1.129   6.995   1.061  0.4119 -0.4931  0.0324
 9210SOL    HW128529   1.169   7.016   0.971 -1.1321  0.0640 -0.5483
 9210SOL    HW228530   1.189   7.031   1.132  0.8839  0.4684 -0.8185
 9211SOL     OW28531   4.574   0.334   5.251  0.1123  0.0221 -0.3158
 9211SOL    HW128532   4.554   0.238   5.231  0.3399 -0.0917 -0.0137
 9211SOL    HW228533   4.651   0.339   5.315  0.0408  0.4025 -0.2579
 9212SOL     OW28534   5.689   2.643   5.887  0.5442  0.0460  0.0376
 9212SOL    HW128535   5.600   2.655   5.844  1.0768  2.0354 -0.6580
 9212SOL    HW228536   5.760   2.680   5.827  2.0811 -2.9036 -0.1560
 9213SOL     OW28537   0.960   0.502   3.760  0.6430  0.0508 -0.6182
 9213SOL    HW128538   0.964   0.541   3.667 -0.1833  2.4997  0.2833
 9213SOL    HW228539   1.051   0.469   3.785  1.4905  1.5843 -1.4504
 9214SOL     OW28540   2.065   2.089   3.596 -0.0124 -0.2033 -0.0117
 9214SOL    HW128541   1.987   2.136   3.554 -0.4743  0.1376  1.1877
 9214SOL    HW228542   2.068   2.111   3.694  1.1440 -0.8251  0.1038
 9215SOL     OW28543   0.894   3.199   2.787  0.2850  0.5464 -0.4091
 9215SOL    HW128544   0.873   3.115   2.737  0.8768  1.5108 -2.3919
 9215SOL    HW228545   0.989   3.224   2.771 -0.3105  2.4584 -1.2631
 9216SOL     OW28546   2.324   5.999   4.282 -0.2304  0.1980 -0.6652
 9216SOL    HW128547   2.269   6.058   4.341  0.2829 -0.1373  0.1784
 9216SOL    HW228548   2.356   6.050   4.203  0.6564  1.2242  0.3274
 9217SOL     OW28549   4.153   1.631   0.848 -0.1951  0.1743 -0.2893
 9217SOL    HW128550   4.070   1.660   0.799 -0.1288  0.7676 -0.0587
 9217SOL    HW228551   4.195   1.555   0.799 -0.3026  0.5517 -0.9873
 9218SOL     OW28552   5.601   4.458   5.800 -0.0777 -0.3248 -0.2855
 9218SOL    HW128553   5.579   4.555   5.791  0.4988 -0.2450 -0.9595
 9218SOL    HW228554   5.686   4.438   5.751 -0.0628 -1.1262  0.0415
 9219SOL     OW28555   2.505   3.470   0.613 -0.1449  0.1770 -0.4632
 9219SOL    HW128556   2.436   3.409   0.574 -0.0685  0.5887 -1.2577
 9219SOL    HW228557   2.520   3.548   0.552  1.6880 -0.3635 -0.7885
 9220SOL     OW28558   0.309   6.619   1.961 -0.6468 -0.0425 -0.3327
 9220SOL    HW128559   0.210   6.610   1.957 -0.9059  2.5479 -2.3819
 9220SOL    HW228560   0.344   6.640   1.869  1.3356  2.5377  0.9032
 9221SOL     OW28561   2.599   0.554   3.326  0.3765 -0.3851 -0.0503
 9221SOL    HW128562   2.526   0.545   3.394 -0.2837  0.0130 -0.6843
 9221SOL    HW228563   2.615   0.651   3.307 -0.5171 -0.4846 -1.5426
 9222SOL     OW28564   5.397   6.215   2.234 -0.0120  0.2809  0.6426
 9222SOL    HW128565   5.452   6.133   2.251 -0.4300  0.0363  0.8351
 9222SOL    HW228566   5.407   6.242   2.138  1.2983  0.8798  0.9210
 9223SOL     OW28567   6.492   3.353   5.272 -0.5669 -0.2124  0.0517
 9223SOL    HW128568   6.527   3.259   5.270  1.4397  0.3990  2.1909
 9223SOL    HW228569   6.427   3.363   5.347 -1.2977 -0.0173 -0.5893
 9224SOL     OW28570   2.516   4.552   1.956 -0.1329 -0.3092 -0.2817
 9224SOL    HW128571   2.490   4.486   1.886  0.1677 -1.2969  0.5188
 9224SOL    HW228572   2.615   4.559   1.961  0.1416 -3.3986  2.7603
 9225SOL     OW28573   2.389   5.235   5.458 -0.0900  0.4514 -0.7168
 9225SOL    HW128574   2.372   5.158   5.398  0.0309  0.0776 -0.2779
 9225SOL    HW228575   2.304   5.286   5.472 -0.2770  0.1169 -0.6248
 9226SOL     OW28576   7.003   6.399   4.499 -0.2833 -0.1432 -0.3464
 9226SOL    HW128577   7.041   6.381   4.589  0.3788  2.1160 -0.1133
 9226SOL    HW228578   7.056   6.470   4.454 -2.6133  1.2343 -1.1065
 9227SOL     OW28579   5.617   3.238   0.230  0.1887 -0.0804 -0.5293
 9227SOL    HW128580   5.704   3.236   0.181  0.2116 -1.2899 -0.4696
 9227SOL    HW228581   5.607   3.154   0.284 -0.1025  0.9345  1.0872
 9228SOL     OW28582   3.150   4.019   3.947 -0.1196 -0.1872 -0.4732
 9228SOL    HW128583   3.128   4.026   3.850  0.9158  0.6013 -0.6656
 9228SOL    HW228584   3.169   3.924   3.970 -0.4168 -0.3878 -1.0202
 9229SOL     OW28585   0.214   5.610   1.774  0.3188 -0.3103  0.2963
 9229SOL    HW128586   0.121   5.590   1.805  0.0760  0.6811  0.2641
 9229SOL    HW228587   0.220   5.707   1.751  1.1791 -0.5104 -0.3617
 9230SOL     OW28588   2.252   6.316   5.704  0.0004  0.2723  0.1557
 9230SOL    HW128589   2.181   6.292   5.638  0.6651  0.0276 -0.4841
 9230SOL    HW228590   2.336   6.342   5.655  1.3607 -2.4346  0.8633
 9231SOL     OW28591   2.307   6.639   2.676 -0.3180  0.2284  0.1425
 9231SOL    HW128592   2.272   6.709   2.737 -0.4057  0.4543 -0.1644
 9231SOL    HW228593   2.239   6.617   2.606  0.6569  1.7712 -1.3952
 9232SOL     OW28594   5.689   4.377   0.472  0.5906 -0.2437  0.1001
 9232SOL    HW128595   5.788   4.393   0.478  0.7664  0.0657 -2.4635
 9232SOL    HW228596   5.672   4.278   0.466  0.6757 -0.3313  1.1524
 9233SOL     OW28597   1.363   0.750   5.598  0.9217 -0.5338 -0.0557
 9233SOL    HW128598   1.316   0.822   5.548  0.0022 -0.1017  1.3557
 9233SOL    HW228599   1.456   0.739   5.563  0.5218  0.1783 -1.3875
 9234SOL     OW28600   1.697   3.882   6.444  0.3163  0.0999  0.0559
 9234SOL    HW128601   1.780   3.901   6.496 -0.3097  1.2679  0.6724
 9234SOL    HW228602   1.685   3.784   6.433 -1.0053 -0.4450  4.6161
 9235SOL     OW28603   1.205   1.696   2.374 -0.3931 -0.1878  0.4277
 9235SOL    HW128604   1.288   1.641   2.379 -1.3280 -1.8480 -1.1787
 9235SOL    HW228605   1.228   1.787   2.338  0.7380 -0.5746  0.1361
 9236SOL     OW28606   1.206   5.543   6.515  0.2015  0.2517 -0.1356
 9236SOL    HW128607   1.122   5.570   6.468  0.8907  1.0482 -0.9428
 9236SOL    HW228608   1.211   5.443   6.519  1.0567  0.0697 -3.5551
 9237SOL     OW28609   1.123   5.793   4.388 -0.5788  0.2658 -0.0573
 9237SOL    HW128610   1.139   5.808   4.290 -0.5932 -1.1793 -0.2957
 9237SOL    HW228611   1.029   5.763   4.402 -0.3157 -0.3941  0.3009
 9238SOL     OW28612   4.202   2.239   6.301  0.0811 -0.4837  0.2768
 9238SOL    HW128613   4.118   2.188   6.282 -2.0402  2.7335  0.1519
 9238SOL    HW228614   4.257   2.245   6.218 -1.3566  0.2584 -0.6683
 9239SOL     OW28615   3.382   6.513   6.689 -0.4693 -0.5976 -0.1749
 9239SOL    HW128616   3.320   6.465   6.749 -0.7387 -0.7451 -0.5675
 9239SOL    HW228617   3.374   6.477   6.596  3.1356 -3.5139  0.4401
 9240SOL     OW28618   4.906   1.763   0.350  0.2453  0.3259 -0.3103
 9240SOL    HW128619   4.983   1.822   0.374  1.2838 -0.6405 -1.1621
 9240SOL    HW228620   4.870   1.720   0.432 -0.4497  2.0071  0.3145
 9241SOL     OW28621   5.422   4.890   5.615  0.3524  0.0688 -0.3517
 9241SOL    HW128622   5.390   4.983   5.633 -1.1964 -0.8933  2.3506
 9241SOL    HW228623   5.522   4.886   5.625  0.6580  1.7109 -2.1520
 9242SOL     OW28624   1.662   1.938   4.657  1.2885  0.5860  0.7239
 9242SOL    HW128625   1.607   1.992   4.593  0.3389 -1.0138  0.1381
 9242SOL    HW228626   1.645   1.970   4.750 -1.5446 -0.5345  0.6751
 9243SOL     OW28627   2.591   5.565   6.707 -0.3374  0.5281  0.5395
 9243SOL    HW128628   2.611   5.592   6.613  0.3061 -0.7137  0.3022
 9243SOL    HW228629   2.494   5.542   6.715 -0.3906  0.6191  0.1740
 9244SOL     OW28630   5.742   4.058   6.306  0.1520  0.5000 -0.2543
 9244SOL    HW128631   5.687   4.141   6.317 -1.0294 -0.0485 -1.6825
 9244SOL    HW228632   5.767   4.048   6.210  2.4715  0.5143  0.2911
 9245SOL     OW28633   0.352   3.666   4.272 -0.3005  0.6385  0.3722
 9245SOL    HW128634   0.283   3.640   4.339 -1.2907 -0.3266 -0.9568
 9245SOL    HW228635   0.420   3.592   4.263  0.1441  1.0042  0.7114
 9246SOL     OW28636   3.204   1.679   0.547 -0.2281 -0.3545  0.3223
 9246SOL    HW128637   3.246   1.769   0.538  2.0114 -1.2483  1.1526
 9246SOL    HW228638   3.200   1.635   0.457 -1.9733  0.7833 -0.2061
 9247SOL     OW28639   4.893   5.442   4.123 -0.1306 -0.1572  0.3045
 9247SOL    HW128640   4.985   5.420   4.155 -0.6040  0.5333  2.2152
 9247SOL    HW228641   4.849   5.358   4.090  1.5073 -0.3341 -1.6374
 9248SOL     OW28642   1.837   6.900   6.060 -0.1882 -0.2111 -0.3793
 9248SOL    HW128643   1.800   6.807   6.066 -1.2375  0.1747 -0.6164
 9248SOL    HW228644   1.870   6.916   5.967  1.4777 -0.8686  0.0679
 9249SOL     OW28645   2.117   0.214   0.068  0.2419 -0.4777  0.0267
 9249SOL    HW128646   2.091   0.127   0.027 -1.0911  0.4884 -1.2592
 9249SOL    HW228647   2.217   0.225   0.061  0.2585 -1.2044 -1.2505
 9250SOL     OW28648   6.041   3.819   1.224 -0.1685 -0.3092 -0.0041
 9250SOL    HW128649   5.987   3.737   1.205  0.0705 -0.6177  0.6456
 9250SOL    HW228650   6.025   3.886   1.151 -1.3738 -0.4233  0.1216
 9251SOL     OW28651   3.932   1.396   6.841 -0.0197  0.1497  0.2987
 9251SOL    HW128652   4.013   1.455   6.846  0.3285 -0.3424  0.5415
 9251SOL    HW228653   3.851   1.452   6.825  0.4087  0.6221 -0.2776
 9252SOL     OW28654   1.384   2.481   5.756  0.2875 -0.5445  0.0564
 9252SOL    HW128655   1.331   2.465   5.839 -0.6950 -2.0440 -0.8256
 9252SOL    HW228656   1.449   2.556   5.772  0.0884 -0.7605  2.1460
 9253SOL     OW28657   1.840   4.335   3.973 -0.4305  0.2752  0.4305
 9253SOL    HW128658   1.779   4.322   3.895  1.8880  2.5088 -1.9380
 9253SOL    HW228659   1.804   4.409   4.031 -0.1478  1.4390 -0.8318
 9254SOL     OW28660   6.493   0.807   1.671  0.0604  0.3427  0.1213
 9254SOL    HW128661   6.429   0.871   1.630 -0.3087 -0.4608 -0.5573
 9254SOL    HW228662   6.494   0.722   1.620 -0.2074 -0.5906  1.5943
 9255SOL     OW28663   6.532   4.686   2.021 -0.2774 -0.2062  0.3542
 9255SOL    HW128664   6.515   4.782   1.999 -0.7116 -0.4809 -0.5714
 9255SOL    HW228665   6.481   4.661   2.103  1.1651  0.7792  1.5952
 9256SOL     OW28666   2.785   6.492   5.589  0.0210 -0.1356  0.1639
 9256SOL    HW128667   2.794   6.580   5.543 -0.1457  0.0386  0.4568
 9256SOL    HW228668   2.817   6.501   5.683 -1.6531  0.0976  0.7534
 9257SOL     OW28669   0.313   5.548   0.484 -0.4406 -1.2627  0.4498
 9257SOL    HW128670   0.253   5.561   0.563  1.4517  3.1483  1.4647
 9257SOL    HW228671   0.409   5.554   0.513  0.3401 -0.3851 -2.0341
 9258SOL     OW28672   5.786   3.470   4.234  0.2606 -0.5112  0.0791
 9258SOL    HW128673   5.848   3.434   4.164 -0.4936 -1.7516  0.0277
 9258SOL    HW228674   5.773   3.568   4.218  0.6911 -0.6185 -1.0775
 9259SOL     OW28675   1.043   2.340   3.680 -0.0148  0.3043  0.3952
 9259SOL    HW128676   0.948   2.353   3.708 -0.2054  0.8640 -0.4753
 9259SOL    HW228677   1.049   2.342   3.581  0.9595  0.6533  0.4461
 9260SOL     OW28678   6.974   3.737   2.945 -0.0961  0.5746  0.4260
 9260SOL    HW128679   7.010   3.748   2.852  2.2170 -1.4420  0.9840
 9260SOL    HW228680   6.926   3.650   2.952 -0.2869  0.7289  1.1171
 9261SOL     OW28681   6.395   3.421   1.964  0.0123 -0.0938 -0.3500
 9261SOL    HW128682   6.494   3.433   1.955 -0.0587 -0.2835 -1.6473
 9261SOL    HW228683   6.359   3.491   2.025  0.8975  0.1980 -0.1378
 9262SOL     OW28684   0.032   5.995   6.180  0.0346  0.3824 -0.3774
 9262SOL    HW128685   0.056   5.975   6.275 -0.5915  0.8347 -0.1171
 9262SOL    HW228686  -0.023   6.079   6.176  0.1738  0.4487 -1.1533
 9263SOL     OW28687   2.130   3.425   3.683 -0.1586 -0.1363  0.0247
 9263SOL    HW128688   2.137   3.480   3.599 -2.2893 -1.1318 -0.8922
 9263SOL    HW228689   2.174   3.336   3.668 -1.0269 -0.5298 -0.2786
 9264SOL     OW28690   6.991   3.139   5.195 -0.3849  0.4348 -0.2563
 9264SOL    HW128691   6.933   3.068   5.154  3.5830 -2.4429 -1.4255
 9264SOL    HW228692   6.984   3.223   5.140 -2.6848 -0.0468 -0.8067
 9265SOL     OW28693   5.115   2.014   2.584  0.0726 -0.0939 -0.6073
 9265SOL    HW128694   5.065   1.931   2.609 -0.1286 -0.2478 -1.4672
 9265SOL    HW228695   5.187   1.991   2.518 -1.0896  0.6260 -2.2004
 9266SOL     OW28696   0.034   5.889   1.004  0.1365  0.6743  0.6162
 9266SOL    HW128697   0.120   5.838   0.998 -1.6125 -2.4999  0.0801
 9266SOL    HW228698  -0.008   5.873   1.093 -1.6915 -1.1569 -0.4958
 9267SOL     OW28699   6.664   3.054   3.184 -0.1117  0.1973 -0.2698
 9267SOL    HW128700   6.669   2.954   3.190 -1.6838  0.1514  0.8653
 9267SOL    HW228701   6.721   3.085   3.108  0.8497 -1.5064 -0.3120
 9268SOL     OW28702   1.784   6.192   6.773 -0.0185  0.3232 -0.0759
 9268SOL    HW128703   1.858   6.202   6.706  1.6387  1.2795  1.7976
 9268SOL    HW228704   1.762   6.281   6.811 -2.3355  0.0828 -0.7121
 9269SOL     OW28705   5.576   0.499   1.897 -0.2426  0.7195  0.0545
 9269SOL    HW128706   5.602   0.584   1.942 -0.1797  0.5958  0.2532
 9269SOL    HW228707   5.651   0.468   1.838  0.5961 -0.3172  1.6165
 9270SOL     OW28708   2.550   1.658   4.605 -0.1516  0.0641 -0.2367
 9270SOL    HW128709   2.464   1.708   4.599  0.0740  0.6219  0.9899
 9270SOL    HW228710   2.591   1.671   4.695  0.9070 -0.7155 -0.5782
 9271SOL     OW28711   0.669   0.314   4.512  0.5946 -0.0836  0.2020
 9271SOL    HW128712   0.590   0.297   4.572  1.0873 -1.5533  0.4741
 9271SOL    HW228713   0.653   0.397   4.459  0.0971  1.2284  2.2898
 9272SOL     OW28714   6.177   5.492   6.311  0.1363 -0.3555  0.0313
 9272SOL    HW128715   6.134   5.553   6.378  0.1949  0.2159 -0.4494
 9272SOL    HW228716   6.162   5.527   6.219  0.1561 -1.0819 -0.2508
 9273SOL     OW28717   4.438   4.840   4.352 -0.3185 -0.4471 -0.2295
 9273SOL    HW128718   4.428   4.743   4.332 -2.3455 -0.0761 -1.1930
 9273SOL    HW228719   4.407   4.858   4.446  0.6311 -0.7904  0.1664
 9274SOL     OW28720   6.470   2.016   1.887 -0.1180  0.1838 -1.0115
 9274SOL    HW128721   6.458   2.113   1.911  1.0962  0.5100 -1.6108
 9274SOL    HW228722   6.486   2.008   1.789 -1.5490 -0.7786 -1.1792
 9275SOL     OW28723   5.298   1.746   0.999  0.2670  0.3921  0.8205
 9275SOL    HW128724   5.310   1.692   1.082 -0.3403  1.6584  1.7607
 9275SOL    HW228725   5.260   1.835   1.022  0.4315  0.9142 -0.7901
 9276SOL     OW28726   6.705   4.023   0.755  0.3194  0.0720  0.1057
 9276SOL    HW128727   6.653   3.939   0.769 -0.8553  1.1889  3.3028
 9276SOL    HW228728   6.724   4.066   0.843  2.1147  2.4754 -1.3165
 9277SOL     OW28729   5.367   6.834   2.082 -0.1335  0.4944 -0.0167
 9277SOL    HW128730   5.372   6.839   2.182  0.3714 -1.3385  0.0758
 9277SOL    HW228731   5.293   6.774   2.055  1.9303 -1.9517 -0.6076
 9278SOL     OW28732   1.712   6.437   6.906  0.0855  0.2595 -0.1027
 9278SOL    HW128733   1.736   6.446   7.003  1.0512 -1.5328 -0.1473
 9278SOL    HW228734   1.722   6.526   6.862  1.6914  0.6797  1.0007
 9279SOL     OW28735   5.748   6.164   2.932 -0.3267 -0.0605  0.0162
 9279SOL    HW128736   5.703   6.252   2.917  0.8129  0.5853  0.2418
 9279SOL    HW228737   5.685   6.101   2.975 -0.8079  1.0410  0.9872
 9280SOL     OW28738   1.115   3.794   2.872 -0.7579 -0.0968 -0.3148
 9280SOL    HW128739   1.180   3.869   2.881  1.8762 -2.0501 -1.6650
 9280SOL    HW228740   1.154   3.722   2.814 -2.3524 -3.3213  2.2149
 9281SOL     OW28741   2.201   4.281   0.204 -0.2792  0.3232  0.0894
 9281SOL    HW128742   2.227   4.185   0.197  1.7486  0.9770 -2.4641
 9281SOL    HW228743   2.249   4.323   0.281 -0.5805 -0.4852  0.7354
 9282SOL     OW28744   1.843   6.236   2.310  0.0973  0.5549  0.7950
 9282SOL    HW128745   1.818   6.223   2.406 -0.7221  1.7389  0.7645
 9282SOL    HW228746   1.806   6.323   2.278  0.8026  0.4102 -0.4570
 9283SOL     OW28747   6.211   3.717   6.476  0.5091 -0.6546  0.0788
 9283SOL    HW128748   6.254   3.681   6.559  2.1020 -0.4003 -0.5945
 9283SOL    HW228749   6.268   3.695   6.397 -0.3433  0.1871 -0.7981
 9284SOL     OW28750   5.052   5.780   3.126 -0.2537 -0.6629 -0.2993
 9284SOL    HW128751   5.064   5.739   3.216  1.1706 -0.8224 -0.5409
 9284SOL    HW228752   5.128   5.842   3.107  0.1005 -1.5221 -1.8486
 9285SOL     OW28753   5.731   0.107   3.255  0.0913 -0.1107 -0.4691
 9285SOL    HW128754   5.711   0.133   3.161 -0.8596  0.7428 -0.0519
 9285SOL    HW228755   5.645   0.083   3.301  0.6924 -1.8907 -0.2044
 9286SOL     OW28756   5.875   6.352   2.636 -0.3105 -0.1973  0.2698
 9286SOL    HW128757   5.947   6.317   2.575 -2.6279 -3.0686 -1.0580
 9286SOL    HW228758   5.898   6.330   2.731 -0.1332 -2.5938 -0.2723
 9287SOL     OW28759   5.950   3.777   0.353  0.1439  0.3307  0.8819
 9287SOL    HW128760   5.948   3.864   0.304 -0.7749 -0.5592 -0.7655
 9287SOL    HW228761   5.864   3.729   0.337  2.0955 -2.6958 -1.7834
 9288SOL     OW28762   3.905   0.298   5.224  0.0150  0.2174 -0.1963
 9288SOL    HW128763   3.829   0.354   5.191 -0.8020  0.0616  1.3132
 9288SOL    HW228764   3.928   0.326   5.318  1.3436 -0.2275 -0.3708
 9289SOL     OW28765   3.775   5.723   2.837 -0.7081 -0.0630 -0.5153
 9289SOL    HW128766   3.848   5.663   2.872  0.0504 -0.3605 -2.5186
 9289SOL    HW228767   3.686   5.684   2.862 -0.2183 -0.4845  0.6732
 9290SOL     OW28768   4.148   5.964   4.241  0.2111  0.3345  0.2463
 9290SOL    HW128769   4.058   5.922   4.234  0.0753  0.5995  0.3764
 9290SOL    HW228770   4.151   6.045   4.183  1.1086 -0.9320 -1.5531
 9291SOL     OW28771   1.673   5.591   6.234 -0.2308  0.1250 -0.4437
 9291SOL    HW128772   1.751   5.579   6.296 -0.4457  0.3547 -0.1236
 9291SOL    HW228773   1.668   5.686   6.205  0.3196 -0.1374 -1.4270
 9292SOL     OW28774   3.785   2.246   6.656  0.8008  0.3662 -0.1706
 9292SOL    HW128775   3.821   2.309   6.588  1.2705 -0.0232 -0.2933
 9292SOL    HW228776   3.774   2.293   6.744 -2.2419  1.5706 -1.0846
 9293SOL     OW28777   3.522   1.879   0.321 -0.5937 -0.7071 -0.5693
 9293SOL    HW128778   3.611   1.839   0.344 -0.1748  0.8867  0.7440
 9293SOL    HW228779   3.529   1.928   0.234  0.9782  2.6647  1.2777
 9294SOL     OW28780   6.498   5.378   0.040  0.0821 -0.3987 -0.0407
 9294SOL    HW128781   6.437   5.418   0.109 -1.0220 -0.9340 -0.6747
 9294SOL    HW228782   6.546   5.300   0.079  1.1733  0.6318  0.7736
 9295SOL     OW28783   6.966   1.130   2.329  0.0662  1.0242 -0.2721
 9295SOL    HW128784   7.062   1.158   2.320 -0.3300  1.6326 -3.7768
 9295SOL    HW228785   6.955   1.037   2.292 -1.0279  1.8593 -2.1797
 9296SOL     OW28786   2.182   0.914   4.657 -0.3431 -0.4310  0.4344
 9296SOL    HW128787   2.115   0.969   4.708 -1.8585 -1.2051 -0.6264
 9296SOL    HW228788   2.272   0.924   4.698 -0.4985  2.9547  0.2341
 9297SOL     OW28789   6.691   5.793   0.873 -0.5175  0.1589 -0.2042
 9297SOL    HW128790   6.726   5.884   0.896  0.4842  0.1775 -1.6216
 9297SOL    HW228791   6.767   5.728   0.871 -0.4539  0.1807 -3.3268
 9298SOL     OW28792   5.845   4.976   5.295 -0.1732 -0.3846  0.2288
 9298SOL    HW128793   5.764   4.918   5.295 -0.0078 -0.6439 -0.9422
 9298SOL    HW228794   5.901   4.955   5.375 -0.8935 -0.7257  0.6527
 9299SOL     OW28795   4.536   2.656   2.873  0.2512 -0.4819  0.4491
 9299SOL    HW128796   4.548   2.677   2.775 -0.8274  1.2824  0.6505
 9299SOL    HW228797   4.482   2.573   2.883  0.0318 -0.4580 -0.4573
 9300SOL     OW28798   3.408   0.386   5.077  0.3836 -0.2245  0.0835
 9300SOL    HW128799   3.402   0.467   5.135  2.1855 -0.5132  0.7272
 9300SOL    HW228800   3.316   0.353   5.056 -0.3930  1.9317 -0.1463
 9301SOL     OW28801   0.034   2.203   3.788  0.0237  0.7626 -0.0106
 9301SOL    HW128802  -0.032   2.225   3.860 -0.6357 -1.6818  0.2369
 9301SOL    HW228803  -0.010   2.214   3.699 -1.1537 -1.7236  0.1695
 9302SOL     OW28804   1.176   6.767   4.771  0.0036  0.3142  0.7181
 9302SOL    HW128805   1.147   6.798   4.680 -0.1925 -1.1536  0.2538
 9302SOL    HW228806   1.126   6.684   4.795  1.1790 -0.1869  1.5128
 9303SOL     OW28807   0.131   6.203   6.673 -0.4068 -0.3098  0.2322
 9303SOL    HW128808   0.055   6.189   6.609 -0.6904  2.7925 -0.2390
 9303SOL    HW228809   0.123   6.293   6.715  3.2270  0.3548 -0.1880
 9304SOL     OW28810   5.818   5.733   6.244 -0.0892 -0.3179 -0.2990
 9304SOL    HW128811   5.776   5.698   6.327  0.4442  0.7656  0.4575
 9304SOL    HW228812   5.769   5.699   6.164 -0.7398 -1.2020  0.4682
 9305SOL     OW28813   2.412   2.098   0.181  0.2744  0.3812  0.5029
 9305SOL    HW128814   2.437   2.023   0.243 -1.6754  0.8372  1.9560
 9305SOL    HW228815   2.313   2.096   0.166  0.5337  1.1230 -1.5563
 9306SOL     OW28816   0.246   0.390   3.502  0.0197 -0.4708 -0.4327
 9306SOL    HW128817   0.265   0.488   3.508 -1.0867 -0.2258 -0.6924
 9306SOL    HW228818   0.239   0.352   3.594  2.1054 -0.6706 -0.3111
 9307SOL     OW28819   0.924   3.457   1.687 -0.1235  0.0330 -0.1517
 9307SOL    HW128820   0.855   3.413   1.745 -0.8664 -1.9568 -2.4080
 9307SOL    HW228821   0.898   3.552   1.671 -0.5142  0.2902  1.7434
 9308SOL     OW28822   3.191   3.785   1.190  0.4394  0.2418  0.9921
 9308SOL    HW128823   3.104   3.836   1.191  0.1918 -0.1108  2.9620
 9308SOL    HW228824   3.177   3.696   1.233  1.9012  0.4337  1.9324
 9309SOL     OW28825   3.665   5.508   5.219 -0.3839 -0.1376 -0.0235
 9309SOL    HW128826   3.627   5.538   5.306 -1.1345 -0.2480 -0.3035
 9309SOL    HW228827   3.630   5.416   5.197  1.0886 -0.8211  0.3481
 9310SOL     OW28828   6.325   0.731   6.712  0.2067  0.3281 -0.4773
 9310SOL    HW128829   6.398   0.666   6.733 -0.2999  0.3142  1.4607
 9310SOL    HW228830   6.355   0.824   6.736 -0.8526  0.1575  1.8237
 9311SOL     OW28831   5.503   3.528   6.447 -0.1683 -0.7571 -0.0298
 9311SOL    HW128832   5.473   3.623   6.447  1.0988 -0.3344  1.0191
 9311SOL    HW228833   5.435   3.472   6.400 -0.4727  0.7967 -1.5305
 9312SOL     OW28834   0.051   2.257   5.203  0.1219 -0.3894  0.2079
 9312SOL    HW128835   0.100   2.310   5.272  0.4477  2.4406 -1.9733
 9312SOL    HW228836  -0.035   2.303   5.181 -0.4997 -1.8338 -0.5078
 9313SOL     OW28837   0.067   0.203   2.029 -0.4468 -0.3893  0.1778
 9313SOL    HW128838   0.087   0.290   1.985 -3.2795  1.2732  1.8373
 9313SOL    HW228839   0.142   0.179   2.091 -0.2744  1.8071  0.9187
 9314SOL     OW28840   0.912   4.930   0.861  0.3861  0.1496 -0.4666
 9314SOL    HW128841   0.865   5.004   0.813 -1.2246  0.0186  0.8099
 9314SOL    HW228842   0.938   4.960   0.952  1.6841 -0.2117 -0.6863
 9315SOL     OW28843   4.412   6.046   5.112  0.2411  0.1516  0.0599
 9315SOL    HW128844   4.410   6.073   5.016 -0.9166  0.6338  0.2133
 9315SOL    HW228845   4.373   5.954   5.121 -0.3729  0.4183  0.1608
 9316SOL     OW28846   0.026   6.139   2.340 -0.3845 -0.4755  0.2225
 9316SOL    HW128847  -0.042   6.085   2.390 -0.3423 -0.7733 -0.0341
 9316SOL    HW228848   0.086   6.077   2.289 -1.0770 -0.1583 -1.0388
 9317SOL     OW28849   2.760   6.119   4.908  0.2208 -0.5623 -0.0432
 9317SOL    HW128850   2.777   6.030   4.868 -0.1645 -0.1281 -1.2162
 9317SOL    HW228851   2.846   6.162   4.935  0.3988 -1.3067  0.6057
 9318SOL     OW28852   2.749   6.351   3.316  0.1882  0.8710 -0.3704
 9318SOL    HW128853   2.815   6.404   3.262 -0.6674  1.0406 -1.2787
 9318SOL    HW228854   2.660   6.353   3.270 -0.2432 -0.0532  0.4062
 9319SOL     OW28855   3.616   2.140   0.511  0.5211 -0.6247 -0.7153
 9319SOL    HW128856   3.609   2.090   0.424  0.3307 -4.2919  1.2185
 9319SOL    HW228857   3.526   2.176   0.536  0.3546 -0.4891 -1.4793
 9320SOL     OW28858   6.876   6.718   6.811  0.0379  0.1609  0.5393
 9320SOL    HW128859   6.956   6.735   6.868  1.0516 -2.5163  0.0714
 9320SOL    HW228860   6.867   6.790   6.742  2.1060  0.4721  0.5409
 9321SOL     OW28861   0.303   3.671   3.322  0.3734  0.2419 -0.4488
 9321SOL    HW128862   0.272   3.669   3.227 -0.9184 -0.2842 -0.0445
 9321SOL    HW228863   0.374   3.602   3.336  0.6692  0.4150 -1.0492
 9322SOL     OW28864   5.477   2.507   0.948  0.2940 -0.3320 -0.1407
 9322SOL    HW128865   5.449   2.430   0.890  0.0486 -0.1174 -0.3082
 9322SOL    HW228866   5.403   2.530   1.010  0.8844 -1.1649  0.9160
 9323SOL     OW28867   0.260   1.431   3.194  0.3818 -0.3828  0.9700
 9323SOL    HW128868   0.333   1.464   3.253 -0.5441  1.4001  1.1916
 9323SOL    HW228869   0.298   1.402   3.106  1.5245 -1.1441  1.6900
 9324SOL     OW28870   0.753   2.443   6.987 -0.4162  0.2502  0.3591
 9324SOL    HW128871   0.749   2.402   7.078  0.0732 -0.3746  0.1070
 9324SOL    HW228872   0.674   2.503   6.974 -0.0939  0.9445  1.4744
 9325SOL     OW28873   0.860   2.605   3.501 -0.3887  0.0325  0.3418
 9325SOL    HW128874   0.915   2.538   3.452 -0.7020  0.6475 -0.8821
 9325SOL    HW228875   0.767   2.570   3.512 -0.8644  0.7047 -1.3118
 9326SOL     OW28876   3.211   6.541   0.991 -0.2758  0.4344  0.1068
 9326SOL    HW128877   3.191   6.443   0.982  1.5024 -0.1848  1.9888
 9326SOL    HW228878   3.170   6.575   1.076 -1.2354  1.4803 -0.7373
 9327SOL     OW28879   0.787   2.575   2.550 -0.0891 -0.1238 -0.3408
 9327SOL    HW128880   0.785   2.672   2.575 -1.3686 -0.0278 -0.7185
 9327SOL    HW228881   0.701   2.532   2.579  0.4660 -1.1548 -0.1677
 9328SOL     OW28882   6.973   1.308   3.949 -0.3985 -0.3113 -0.9924
 9328SOL    HW128883   6.920   1.223   3.950  0.1425 -0.6994  1.6844
 9328SOL    HW228884   6.943   1.366   4.024  1.8029  0.1878 -0.4483
 9329SOL     OW28885   2.219   5.757   0.395  0.2582 -0.2881 -0.6785
 9329SOL    HW128886   2.202   5.844   0.442 -3.0080 -0.0408 -2.0083
 9329SOL    HW228887   2.305   5.764   0.344  0.2010  2.1114 -0.5897
 9330SOL     OW28888   0.564   6.846   1.472  0.2886  0.0186  0.2062
 9330SOL    HW128889   0.467   6.834   1.450  0.4007 -0.4997 -0.0244
 9330SOL    HW228890   0.620   6.800   1.403  0.6839 -0.4426  0.8273
 9331SOL     OW28891   1.630   6.755   4.585  0.5254  0.2603 -0.1304
 9331SOL    HW128892   1.678   6.764   4.497 -0.1182 -0.0340 -0.5152
 9331SOL    HW228893   1.558   6.824   4.591 -0.7451 -0.9740 -0.7004
 9332SOL     OW28894   6.889   6.913   1.642 -0.1410  0.3839  0.7660
 9332SOL    HW128895   6.943   6.995   1.663 -0.6405  0.8580  0.2123
 9332SOL    HW228896   6.936   6.859   1.573 -0.2473  0.6619  0.4766
 9333SOL     OW28897   1.257   6.917   1.499 -0.0025 -0.1439 -0.6752
 9333SOL    HW128898   1.319   6.971   1.556 -1.6220  1.0670  0.0237
 9333SOL    HW228899   1.193   6.867   1.557 -1.5356  0.9214 -1.3820
 9334SOL     OW28900   6.513   4.977   0.964 -0.0555 -0.0100 -0.5175
 9334SOL    HW128901   6.496   4.886   0.925  0.6918  0.0689 -1.0370
 9334SOL    HW228902   6.579   4.970   1.039  1.9293  0.3823 -2.1384
 9335SOL     OW28903   6.307   2.953   0.200  0.4428 -0.2118  0.6678
 9335SOL    HW128904   6.301   2.943   0.101 -0.6351 -0.0407  0.7093
 9335SOL    HW228905   6.398   2.987   0.225  0.4570  0.4922 -0.3117
 9336SOL     OW28906   4.744   5.935   4.958 -0.3410  0.2112 -0.3819
 9336SOL    HW128907   4.655   5.892   4.965 -0.9735  1.4133 -0.7112
 9336SOL    HW228908   4.734   6.034   4.964  0.9545  0.3773 -0.5850
 9337SOL     OW28909   3.328   0.335   6.448  0.6136  0.5744 -0.4007
 9337SOL    HW128910   3.351   0.427   6.481  0.8985  0.6046 -0.6748
 9337SOL    HW228911   3.411   0.279   6.447  0.1283 -0.2391  1.4900
 9338SOL     OW28912   5.760   0.185   3.650  0.9735  0.2924 -0.1575
 9338SOL    HW128913   5.662   0.200   3.634  0.8308  0.6413  0.8986
 9338SOL    HW228914   5.803   0.272   3.674  0.8048 -0.3364  2.8274
 9339SOL     OW28915   0.455   1.338   3.000 -1.0245 -0.7316 -0.2420
 9339SOL    HW128916   0.515   1.352   3.079 -0.4444 -0.3782 -0.7451
 9339SOL    HW228917   0.481   1.254   2.953 -0.9945 -0.6374 -0.3940
 9340SOL     OW28918   2.941   5.650   0.838  0.0188 -0.1703 -0.3787
 9340SOL    HW128919   2.842   5.664   0.840  0.0267 -0.0540  1.4506
 9340SOL    HW228920   2.965   5.581   0.771 -1.6813 -2.7250  1.4824
 9341SOL     OW28921   4.595   6.224   2.814 -0.1097 -0.1887 -0.3066
 9341SOL    HW128922   4.577   6.174   2.899  0.4524  0.2523  0.0783
 9341SOL    HW228923   4.624   6.159   2.743  0.6016 -0.4237  0.1821
 9342SOL     OW28924   3.775   1.270   3.474  0.3206  0.0465  0.0384
 9342SOL    HW128925   3.702   1.283   3.540 -0.0937 -0.8353 -0.2229
 9342SOL    HW228926   3.738   1.228   3.391  1.0015  0.2215 -0.3657
 9343SOL     OW28927   4.790   3.483   1.580 -0.0227 -0.3121 -0.4941
 9343SOL    HW128928   4.843   3.531   1.510 -0.0086  0.9088  0.3177
 9343SOL    HW228929   4.697   3.519   1.581  0.3447  0.6984  1.0213
 9344SOL     OW28930   5.803   6.921   2.546  0.4753 -0.3479  0.2423
 9344SOL    HW128931   5.874   6.980   2.507  0.3528  1.4707  2.5444
 9344SOL    HW228932   5.839   6.830   2.561  1.8588  0.1333 -0.0246
 9345SOL     OW28933   4.974   5.754   6.243  0.3424  0.0979 -0.1105
 9345SOL    HW128934   5.063   5.796   6.223  0.3212 -0.4665 -1.4932
 9345SOL    HW228935   4.985   5.655   6.249 -0.0986  0.0726  0.3379
 9346SOL     OW28936   6.145   6.743   3.271 -0.5047 -0.3715  0.0387
 9346SOL    HW128937   6.200   6.727   3.189 -0.6428  0.2304 -0.1734
 9346SOL    HW228938   6.092   6.827   3.260  0.5418  0.5009  1.3075
 9347SOL     OW28939   6.028   5.841   3.406  0.6696 -0.7025 -0.1718
 9347SOL    HW128940   6.003   5.745   3.419 -1.1121 -0.2675 -0.1713
 9347SOL    HW228941   6.067   5.877   3.491 -2.8872 -0.2428  1.4463
 9348SOL     OW28942   2.682   6.088   3.053  0.9422  0.1836 -0.1253
 9348SOL    HW128943   2.747   6.072   2.980  1.6102  1.4981  0.1390
 9348SOL    HW228944   2.602   6.137   3.017 -0.2593 -2.0035 -0.5814
 9349SOL     OW28945   1.005   4.836   0.635 -0.0857  0.2532 -0.1679
 9349SOL    HW128946   0.949   4.754   0.624  0.6410 -0.2572 -0.1367
 9349SOL    HW228947   0.978   4.883   0.719 -2.7611  1.8782 -1.8102
 9350SOL     OW28948   6.556   6.653   5.136  0.1106 -1.0001  0.4218
 9350SOL    HW128949   6.504   6.682   5.056  0.6667  0.0692  0.4340
 9350SOL    HW228950   6.493   6.632   5.211 -0.3159  0.7519  0.5987
 9351SOL     OW28951   1.835   4.480   4.956  0.3784  0.1868  0.1379
 9351SOL    HW128952   1.932   4.501   4.948  0.6134 -1.3714 -2.2171
 9351SOL    HW228953   1.784   4.529   4.885 -0.3177 -0.1935  0.3618
 9352SOL     OW28954   3.005   1.422   5.796 -0.8974  0.2266 -0.2162
 9352SOL    HW128955   2.950   1.506   5.793 -0.9525  0.2060  0.2476
 9352SOL    HW228956   2.947   1.343   5.777 -1.0633  0.1883  0.4464
 9353SOL     OW28957   0.513   4.306   0.981  0.2908 -0.5317  0.3099
 9353SOL    HW128958   0.517   4.284   0.883  0.3284  1.1142 -0.0916
 9353SOL    HW228959   0.436   4.366   0.998  2.7894  2.9881  0.4061
 9354SOL     OW28960   6.139   1.744   2.186 -0.3384  0.2349  0.4393
 9354SOL    HW128961   6.193   1.803   2.126  0.6491 -1.0446  0.0235
 9354SOL    HW228962   6.200   1.689   2.243 -1.1254 -2.0248 -0.7868
 9355SOL     OW28963   0.004   3.573   3.232  0.1677  0.0972 -0.0919
 9355SOL    HW128964   0.053   3.508   3.290  1.0653  2.8224  2.4881
 9355SOL    HW228965   0.068   3.613   3.166  0.3042  0.3015  0.1603
 9356SOL     OW28966   6.293   2.175   3.286 -0.1279  0.5129  0.2440
 9356SOL    HW128967   6.374   2.120   3.265 -0.0656  0.6433  0.1399
 9356SOL    HW228968   6.229   2.168   3.210  1.2938  3.2507 -1.3644
 9357SOL     OW28969   2.344   4.945   5.868  0.1741 -0.2730  0.3034
 9357SOL    HW128970   2.426   4.940   5.810 -0.2969 -0.9658 -0.3237
 9357SOL    HW228971   2.281   5.013   5.830  0.7126  0.7199  1.1396
 9358SOL     OW28972   4.894   4.666   3.921  0.3183 -0.3928  0.0247
 9358SOL    HW128973   4.809   4.663   3.974  0.0797  1.0542 -0.2408
 9358SOL    HW228974   4.882   4.613   3.837 -0.1883 -0.5083  0.1673
 9359SOL     OW28975   4.571   5.612   6.899  0.4079  0.4179  0.0041
 9359SOL    HW128976   4.574   5.515   6.873  1.2393  0.4124  0.1106
 9359SOL    HW228977   4.515   5.622   6.981 -0.2459  0.1213 -0.3955
 9360SOL     OW28978   0.718   5.936   3.895  0.4312 -0.4125  0.2565
 9360SOL    HW128979   0.754   5.888   3.975 -0.2887 -0.4127  0.5816
 9360SOL    HW228980   0.655   5.877   3.846  1.6189 -0.7796 -0.8905
 9361SOL     OW28981   1.551   1.811   2.583  0.0174  0.4789 -0.0783
 9361SOL    HW128982   1.614   1.826   2.660 -2.2634 -0.0311  1.9860
 9361SOL    HW228983   1.497   1.729   2.599 -2.2084  1.6805 -1.0171
 9362SOL     OW28984   2.222   2.905   2.817  0.0466  0.2097 -0.2616
 9362SOL    HW128985   2.192   2.959   2.896  0.2802 -0.6846  0.4570
 9362SOL    HW228986   2.181   2.942   2.734 -0.4426  0.9938  0.3148
 9363SOL     OW28987   0.493   2.052   1.879  0.7190  0.2348 -0.3739
 9363SOL    HW128988   0.475   1.993   1.957  0.2259 -1.0342 -1.4056
 9363SOL    HW228989   0.497   1.996   1.796 -0.0980  1.7043 -1.4348
 9364SOL     OW28990   6.548   2.832   1.503  0.0658 -0.5804 -0.5816
 9364SOL    HW128991   6.601   2.750   1.477  0.6750 -0.2477 -0.4160
 9364SOL    HW228992   6.582   2.911   1.452  0.9328 -0.0161  0.7872
 9365SOL     OW28993   3.053   2.217   5.669  0.6415  0.2396 -0.3198
 9365SOL    HW128994   3.036   2.271   5.587  0.6694  0.2503 -0.3188
 9365SOL    HW228995   3.060   2.279   5.748  1.7769  0.3356 -0.4810
 9366SOL     OW28996   1.400   2.221   1.695  0.2002 -0.5413 -0.2588
 9366SOL    HW128997   1.354   2.143   1.652  0.1303 -0.7966  0.2715
 9366SOL    HW228998   1.445   2.190   1.778 -0.8842  0.2406  0.6373
 9367SOL     OW28999   5.007   6.247   3.332  0.0592  0.0909  0.5986
 9367SOL    HW129000   5.094   6.295   3.315  0.3603 -0.0178  1.7432
 9367SOL    HW229001   5.026   6.150   3.348 -0.5284 -0.4234 -1.4963
 9368SOL     OW29002   5.612   1.679   0.349 -0.0484  0.3015  0.1442
 9368SOL    HW129003   5.513   1.667   0.360 -0.1093 -0.6769 -1.2519
 9368SOL    HW229004   5.658   1.648   0.432 -0.7848 -1.6084 -0.1048
 9369SOL     OW29005   2.142   2.487   4.678 -0.2161  0.2950 -0.1513
 9369SOL    HW129006   2.080   2.497   4.600  0.8373  0.3650 -1.0106
 9369SOL    HW229007   2.231   2.528   4.655  0.7288 -1.3610  0.3508
 9370SOL     OW29008   6.099   5.366   2.596 -0.3934  0.3030  0.2011
 9370SOL    HW129009   6.131   5.460   2.607  2.0766 -0.7222  2.9561
 9370SOL    HW229010   6.019   5.351   2.654 -1.9983  1.1201 -1.6956
 9371SOL     OW29011   3.172   0.690   1.121  0.1929 -0.2298 -0.0700
 9371SOL    HW129012   3.196   0.595   1.142 -0.3529 -0.3724 -0.0962
 9371SOL    HW229013   3.190   0.746   1.202 -0.8916 -0.6025  0.4434
 9372SOL     OW29014   4.992   4.310   0.951 -0.1506 -0.4282  0.3569
 9372SOL    HW129015   5.058   4.235   0.952  0.4084 -0.0132 -1.7016
 9372SOL    HW229016   5.013   4.374   1.025  0.8134 -1.0968  0.6742
 9373SOL     OW29017   4.577   2.146   4.814  0.5384 -0.4386  0.3004
 9373SOL    HW129018   4.539   2.054   4.800  0.8376 -0.3124 -1.5152
 9373SOL    HW229019   4.502   2.211   4.828  0.3433 -1.0515  2.6418
 9374SOL     OW29020   0.386   6.041   6.384 -0.2607 -0.0040  0.1519
 9374SOL    HW129021   0.368   6.139   6.397  0.1315 -0.0639  1.2835
 9374SOL    HW229022   0.390   6.021   6.286  0.6458  1.3031 -0.1057
 9375SOL     OW29023   5.864   1.558   4.233  0.0894  0.4906  0.4609
 9375SOL    HW129024   5.850   1.638   4.175  1.9513  1.5878  1.4135
 9375SOL    HW229025   5.785   1.497   4.226  0.4793  0.1532 -3.7768
 9376SOL     OW29026   2.688   2.750   0.526  0.1573  0.1762  0.5010
 9376SOL    HW129027   2.613   2.773   0.588  0.0085 -1.0027  0.7816
 9376SOL    HW229028   2.773   2.793   0.559  0.3976 -1.5747  2.3862
 9377SOL     OW29029   0.009   4.444   1.435 -0.5426  0.2417 -0.4101
 9377SOL    HW129030  -0.022   4.465   1.528 -0.7373  1.1222 -0.6655
 9377SOL    HW229031  -0.017   4.350   1.411  0.4741 -0.3867  0.8256
 9378SOL     OW29032   4.331   6.381   2.752  0.2556  0.2222 -0.2557
 9378SOL    HW129033   4.420   6.336   2.749 -0.6661 -1.6760 -0.7196
 9378SOL    HW229034   4.319   6.426   2.840  1.4610  0.0770  0.0003
 9379SOL     OW29035   4.101   4.335   5.336  0.4598  0.8443  0.4280
 9379SOL    HW129036   4.130   4.241   5.316 -0.4180  0.8202 -0.8875
 9379SOL    HW229037   4.152   4.399   5.280  1.0132  1.1640  1.2807
 9380SOL     OW29038   0.593   6.315   5.222  0.1512  0.1568  0.3481
 9380SOL    HW129039   0.569   6.396   5.275 -0.5523 -1.1485  2.0940
 9380SOL    HW229040   0.537   6.238   5.250  0.4350 -0.8539 -1.6445
 9381SOL     OW29041   5.557   2.888   1.347  0.3254 -0.3139 -0.4965
 9381SOL    HW129042   5.474   2.931   1.382  1.3388  0.2735  1.2920
 9381SOL    HW229043   5.568   2.798   1.388 -0.7253 -1.5490 -2.7071
 9382SOL     OW29044   0.428   2.138   2.664 -0.2519 -0.3175  0.0424
 9382SOL    HW129045   0.341   2.092   2.683  0.3179 -0.8504  1.6012
 9382SOL    HW229046   0.483   2.139   2.747  1.6780 -0.9623 -1.1609
 9383SOL     OW29047   6.061   5.698   6.440 -0.4040 -0.4259  0.7432
 9383SOL    HW129048   6.054   5.735   6.533 -0.6856  3.0779 -0.5010
 9383SOL    HW229049   5.981   5.727   6.387  0.7234 -0.5792 -1.1157
 9384SOL     OW29050   5.462   0.687   3.771  0.0619  0.3412  0.3567
 9384SOL    HW129051   5.362   0.683   3.760  0.0787 -0.3758  0.4155
 9384SOL    HW229052   5.504   0.703   3.682  0.0050 -1.6936 -0.0680
 9385SOL     OW29053   4.660   0.517   3.059  0.5262  0.3513 -0.0241
 9385SOL    HW129054   4.734   0.530   3.124  1.8615 -1.6094 -1.0427
 9385SOL    HW229055   4.689   0.547   2.968 -0.0226 -0.1672 -0.3846
 9386SOL     OW29056   4.223   2.268   3.767 -0.2720 -0.4358  0.0603
 9386SOL    HW129057   4.252   2.276   3.863 -0.4965  0.4332  0.0686
 9386SOL    HW229058   4.278   2.330   3.711 -1.5833  0.6895 -0.0337
 9387SOL     OW29059   4.340   5.200   1.570  0.4602 -0.0345  0.6123
 9387SOL    HW129060   4.316   5.107   1.543  0.3454 -0.0133  0.6394
 9387SOL    HW229061   4.429   5.224   1.532 -0.1499  0.3680 -0.6183
 9388SOL     OW29062   6.759   5.100   0.742  0.1746 -0.3469 -0.8097
 9388SOL    HW129063   6.819   5.180   0.733 -0.3040 -0.1063 -2.0140
 9388SOL    HW229064   6.671   5.129   0.780  0.2851 -0.4431 -0.4785
 9389SOL     OW29065   3.731   0.934   0.035 -0.3213 -0.0733 -0.4217
 9389SOL    HW129066   3.714   1.031   0.017 -0.7020 -0.2820 -1.2442
 9389SOL    HW229067   3.807   0.925   0.098  0.5568  0.7323 -1.3232
 9390SOL     OW29068   3.368   1.157   2.794  0.3528  0.1165  0.1531
 9390SOL    HW129069   3.332   1.087   2.855  1.9604  0.9163  2.1238
 9390SOL    HW229070   3.467   1.161   2.801  0.5699  0.5432 -2.2443
 9391SOL     OW29071   5.622   1.909   2.826 -0.7373 -0.1697 -0.2857
 9391SOL    HW129072   5.677   1.843   2.774 -0.7331 -0.4787  0.1126
 9391SOL    HW229073   5.574   1.862   2.899 -0.8610  0.2453 -0.0986
 9392SOL     OW29074   2.200   1.293   3.927 -0.5406 -0.4377  0.2454
 9392SOL    HW129075   2.192   1.204   3.882  0.3769  0.1735 -1.2003
 9392SOL    HW229076   2.164   1.364   3.866  1.2072  0.4767  0.2223
 9393SOL     OW29077   3.720   1.263   3.785  0.1297 -0.7005 -0.4506
 9393SOL    HW129078   3.766   1.208   3.855 -1.6563 -0.5087  0.9387
 9393SOL    HW229079   3.739   1.360   3.802  0.8959 -0.7126 -1.1567
 9394SOL     OW29080   0.007   0.796   2.446  0.5259 -0.0216 -0.4030
 9394SOL    HW129081  -0.001   0.863   2.520 -0.8751  1.5064 -1.8530
 9394SOL    HW229082   0.087   0.738   2.461  1.5832  1.7403  1.1004
 9395SOL     OW29083   2.121   2.276   5.874  0.0842  0.3743 -0.4100
 9395SOL    HW129084   2.100   2.331   5.955 -1.0035  1.2394 -1.2559
 9395SOL    HW229085   2.171   2.194   5.902 -0.5987  0.4618  1.1769
 9396SOL     OW29086   6.081   0.388   4.868 -0.0692  0.2942  0.1638
 9396SOL    HW129087   6.113   0.473   4.828  0.4427 -0.1394 -0.3585
 9396SOL    HW229088   6.013   0.408   4.938 -1.0720  1.0591 -0.9891
 9397SOL     OW29089   2.338   1.845   0.485 -0.6595 -0.8909  0.2133
 9397SOL    HW129090   2.266   1.777   0.468  0.6408 -2.3804  0.4471
 9397SOL    HW229091   2.409   1.836   0.415 -0.4253  0.1899  0.2971
 9398SOL     OW29092   3.022   2.182   1.773  0.4202 -0.3803  0.7032
 9398SOL    HW129093   2.994   2.233   1.691 -0.6017 -1.4270  0.3743
 9398SOL    HW229094   2.972   2.216   1.852 -1.3518 -1.7318  0.2463
 9399SOL     OW29095   0.717   1.015   3.454 -0.2555  0.1460  0.7717
 9399SOL    HW129096   0.805   0.969   3.460 -0.4239 -0.3370 -0.2880
 9399SOL    HW229097   0.728   1.102   3.406 -0.5002 -0.3306 -0.1642
 9400SOL     OW29098   5.466   2.297   5.164  0.1226  0.5832  0.3682
 9400SOL    HW129099   5.438   2.373   5.222 -3.5118 -0.4821  0.2813
 9400SOL    HW229100   5.459   2.212   5.216  0.0550 -0.0672 -0.6758
 9401SOL     OW29101   5.597   1.288   4.450 -0.4532  0.0526  0.4336
 9401SOL    HW129102   5.500   1.267   4.457 -0.1970 -0.9044  1.5325
 9401SOL    HW229103   5.644   1.213   4.402 -0.3682  0.9164 -0.8749
 9402SOL     OW29104   4.448   3.966   6.691 -0.3582  0.3872  0.0598
 9402SOL    HW129105   4.455   3.867   6.679 -0.4463  0.3736  0.1185
 9402SOL    HW229106   4.535   4.001   6.726 -0.2677  0.3564 -0.1324
 9403SOL     OW29107   1.461   0.497   2.639  0.6303 -0.5016 -0.4107
 9403SOL    HW129108   1.378   0.544   2.607  0.6768 -0.6692 -0.7876
 9403SOL    HW229109   1.476   0.416   2.582 -0.2564 -1.8017  1.1146
 9404SOL     OW29110   1.929   4.296   5.777  0.4653  0.2863  0.0004
 9404SOL    HW129111   1.932   4.388   5.816  0.7701  0.6157 -0.7858
 9404SOL    HW229112   1.908   4.230   5.849 -2.4165  1.2314  0.1272
 9405SOL     OW29113   0.579   6.613   0.449 -0.9152 -0.3544  0.3174
 9405SOL    HW129114   0.581   6.683   0.378 -1.7924 -0.4939  0.1419
 9405SOL    HW229115   0.578   6.523   0.406 -0.6290 -0.4641  0.5308
 9406SOL     OW29116   6.410   4.164   4.951  0.5595  0.3687  0.4098
 9406SOL    HW129117   6.399   4.221   4.870  1.8390  0.0222 -0.0248
 9406SOL    HW229118   6.417   4.068   4.924  4.5804  0.4846  0.5066
 9407SOL     OW29119   3.521   6.917   1.603  0.0810 -0.1781  0.5603
 9407SOL    HW129120   3.561   6.841   1.655  1.1594  0.1667  0.2609
 9407SOL    HW229121   3.506   6.887   1.509 -0.3547 -0.2991  0.6663
 9408SOL     OW29122   4.688   6.128   6.676 -0.2233 -0.2376 -0.5183
 9408SOL    HW129123   4.724   6.210   6.632  0.5425 -1.2080 -1.7681
 9408SOL    HW229124   4.743   6.107   6.757 -1.3043  1.2473  0.6654
 9409SOL     OW29125   6.819   5.432   3.752 -0.1270  0.3881  0.4921
 9409SOL    HW129126   6.780   5.524   3.754 -0.8965  0.1911 -1.7208
 9409SOL    HW229127   6.745   5.365   3.741  0.5330 -0.3555  0.4988
 9410SOL     OW29128   5.730   6.228   1.356  0.5882 -0.8866 -0.0383
 9410SOL    HW129129   5.814   6.271   1.388  0.1850  1.9174 -2.2892
 9410SOL    HW229130   5.750   6.169   1.277  0.5838 -1.0928  0.1153
 9411SOL     OW29131   5.776   4.659   2.695  0.4171 -0.5986  0.3576
 9411SOL    HW129132   5.813   4.727   2.632 -3.0764 -0.0485 -1.3485
 9411SOL    HW229133   5.797   4.567   2.660  0.3444 -0.3047 -0.4903
 9412SOL     OW29134   5.929   2.417   5.060 -0.3642 -0.1832  0.6137
 9412SOL    HW129135   5.839   2.449   5.030 -0.2259 -1.9535 -2.0333
 9412SOL    HW229136   5.919   2.330   5.108 -0.0655 -0.7418 -0.3023
 9413SOL     OW29137   4.214   5.023   3.880 -0.6217  0.4346  0.6464
 9413SOL    HW129138   4.254   4.980   3.961 -1.1776 -0.6626  0.3532
 9413SOL    HW229139   4.155   5.098   3.908 -1.0555 -0.1388  1.2837
 9414SOL     OW29140   3.966   0.497   0.719 -0.2927 -0.2946 -0.1370
 9414SOL    HW129141   3.985   0.409   0.677  1.0036 -0.4856  0.7461
 9414SOL    HW229142   3.881   0.535   0.684 -0.4495 -1.5226 -1.1187
 9415SOL     OW29143   1.275   5.719   1.016 -0.2089 -0.5058 -0.4394
 9415SOL    HW129144   1.183   5.735   1.052 -0.0550 -1.1902  0.2981
 9415SOL    HW229145   1.309   5.631   1.050  0.1447 -0.9518 -1.8961
 9416SOL     OW29146   6.789   3.303   1.987  0.6174 -0.3409  0.4905
 9416SOL    HW129147   6.743   3.228   1.939 -0.0899  1.0760 -1.1398
 9416SOL    HW229148   6.767   3.390   1.943  1.3392  0.8730  2.3830
 9417SOL     OW29149   1.470   6.991   2.754  0.5120  0.3090  0.3063
 9417SOL    HW129150   1.495   7.083   2.783 -1.3889  0.4869  1.5142
 9417SOL    HW229151   1.447   6.991   2.657  1.9520  0.7719 -0.0594
 9418SOL     OW29152   3.359   4.527   0.198  0.4610 -0.3321  0.8290
 9418SOL    HW129153   3.389   4.572   0.113  4.0719  0.1556  2.1842
 9418SOL    HW229154   3.354   4.594   0.271  0.8202 -1.2715  1.7427
 9419SOL     OW29155   1.287   3.736   3.535  0.0478 -0.3798  0.5981
 9419SOL    HW129156   1.360   3.713   3.470 -0.7183 -0.7586 -0.1641
 9419SOL    HW229157   1.326   3.761   3.623  1.1140 -0.0312  0.0384
 9420SOL     OW29158   1.639   0.903   0.700 -0.1323  0.3081  0.1022
 9420SOL    HW129159   1.565   0.961   0.732  0.0025  0.2574  0.5120
 9420SOL    HW229160   1.705   0.958   0.649 -1.5807 -0.0105 -2.2815
 9421SOL     OW29161   2.273   5.109   4.659 -0.4305  0.3787 -0.4470
 9421SOL    HW129162   2.367   5.105   4.624  0.1790 -0.5779  1.2156
 9421SOL    HW229163   2.243   5.204   4.661  0.3772  0.6726 -1.2745
 9422SOL     OW29164   3.073   0.252   2.557  0.6425  0.2369  0.0899
 9422SOL    HW129165   3.039   0.282   2.468  0.4445  0.8408  0.3606
 9422SOL    HW229166   3.022   0.173   2.589  0.8908 -0.1445 -0.4533
 9423SOL     OW29167   4.689   0.717   5.353 -0.0965 -0.3447 -0.3818
 9423SOL    HW129168   4.770   0.674   5.392 -0.5708  0.2740  1.3826
 9423SOL    HW229169   4.658   0.665   5.274  0.2622 -2.3153  0.7194
 9424SOL     OW29170   4.570   5.639   3.895  0.1306  0.4547  0.0794
 9424SOL    HW129171   4.512   5.713   3.862 -1.7233 -0.7491  0.5368
 9424SOL    HW229172   4.524   5.551   3.883  1.9897 -0.5985  0.1811
 9425SOL     OW29173   1.048   0.788   2.194  0.4319 -0.7945  0.4469
 9425SOL    HW129174   1.131   0.736   2.213  2.3545  2.5656  2.1053
 9425SOL    HW229175   0.996   0.800   2.278 -0.5298 -0.8388 -0.1241
 9426SOL     OW29176   4.817   5.699   6.856  0.1106 -0.2513  0.2679
 9426SOL    HW129177   4.729   5.662   6.885 -0.2180 -0.8346 -1.3616
 9426SOL    HW229178   4.836   5.671   6.762  1.1540  1.4381 -0.0802
 9427SOL     OW29179   3.383   4.971   3.611 -0.1064  0.3659 -0.8093
 9427SOL    HW129180   3.450   4.974   3.537  0.1523 -0.4903 -0.6185
 9427SOL    HW229181   3.295   4.941   3.576 -0.3180  1.1746 -0.9972
 9428SOL     OW29182   3.274   1.501   0.964 -0.1453 -0.5423  0.1985
 9428SOL    HW129183   3.214   1.511   0.885  0.4347 -0.0105 -0.1854
 9428SOL    HW229184   3.219   1.496   1.048 -0.7110  0.2933 -0.1169
 9429SOL     OW29185   0.898   4.557   3.394 -0.3621  0.2687 -0.3327
 9429SOL    HW129186   0.894   4.474   3.449 -1.6194  0.9519  0.6520
 9429SOL    HW229187   0.882   4.534   3.298  2.1541 -0.9778 -0.5384
 9430SOL     OW29188   5.389   6.825   2.343 -0.3748 -0.2078  0.1901
 9430SOL    HW129189   5.374   6.913   2.388  1.7262 -0.7032  2.0223
 9430SOL    HW229190   5.378   6.751   2.410 -1.8952 -1.3707 -1.2672
 9431SOL     OW29191   4.220   4.954   1.900 -0.2598 -0.9051 -0.1641
 9431SOL    HW129192   4.212   5.050   1.926  1.8675 -0.5252 -0.7422
 9431SOL    HW229193   4.151   4.932   1.831 -0.4345  0.3370 -0.4113
 9432SOL     OW29194   6.075   0.801   2.920  0.1625  1.0408 -0.2898
 9432SOL    HW129195   6.051   0.732   2.851 -1.3329  1.6233 -0.3836
 9432SOL    HW229196   5.995   0.857   2.940  0.9412  1.7440  0.9523
 9433SOL     OW29197   4.950   6.019   4.360 -0.3207 -0.1701  0.2000
 9433SOL    HW129198   4.897   6.054   4.438 -0.7605  1.3811 -0.7578
 9433SOL    HW229199   4.933   5.921   4.350 -0.1945 -0.4165  2.0841
 9434SOL     OW29200   6.938   5.316   4.779  0.3825 -0.2909  0.4454
 9434SOL    HW129201   6.964   5.292   4.872  1.4659 -3.7812 -0.6219
 9434SOL    HW229202   6.998   5.389   4.746  1.3946 -0.4797  1.7649
 9435SOL     OW29203   2.800   0.282   6.742  0.3314 -0.2754 -0.1000
 9435SOL    HW129204   2.814   0.198   6.795  0.3504 -1.4004 -1.8126
 9435SOL    HW229205   2.827   0.267   6.647  0.0874  1.6120 -0.5202
 9436SOL     OW29206   3.588   3.293   6.496  0.1238 -0.0457 -0.3515
 9436SOL    HW129207   3.602   3.242   6.581 -1.0882  0.8602  0.4429
 9436SOL    HW229208   3.603   3.391   6.514 -0.2509  0.1687 -1.1587
 9437SOL     OW29209   5.197   6.178   5.320 -0.2337 -0.7987  0.3333
 9437SOL    HW129210   5.154   6.129   5.396 -2.2566 -0.9543 -0.8254
 9437SOL    HW229211   5.245   6.114   5.261 -0.8973 -1.0880  0.0910
 9438SOL     OW29212   1.129   4.345   1.385 -0.4474 -0.2867  0.8694
 9438SOL    HW129213   1.219   4.376   1.355 -0.1889 -1.0110  0.8778
 9438SOL    HW229214   1.137   4.302   1.475 -0.5672 -1.5449  0.2890
 9439SOL     OW29215   6.831   3.704   1.842  0.2607 -0.6618 -0.1646
 9439SOL    HW129216   6.789   3.794   1.842 -1.4936 -1.4337 -0.5067
 9439SOL    HW229217   6.925   3.710   1.876  0.9610  1.6103 -2.2307
 9440SOL     OW29218   1.763   5.368   2.244 -0.7248  0.6461 -0.3633
 9440SOL    HW129219   1.810   5.427   2.310 -0.2924  1.4929 -1.3903
 9440SOL    HW229220   1.816   5.284   2.233 -0.4732  0.7610 -0.0812
 9441SOL     OW29221   0.561   2.762   6.890  0.3270  0.1743 -1.2149
 9441SOL    HW129222   0.499   2.684   6.897 -1.0277  1.2398 -0.7261
 9441SOL    HW229223   0.652   2.735   6.920 -0.8470 -0.4202  2.2931
 9442SOL     OW29224   1.586   2.078   1.165  0.1577  0.4060 -0.0869
 9442SOL    HW129225   1.644   1.999   1.188 -0.2917  0.5666  1.7769
 9442SOL    HW229226   1.642   2.160   1.161  0.1082  0.6076  1.9884
 9443SOL     OW29227   0.068   0.077   1.718 -0.6735 -0.1497 -0.1898
 9443SOL    HW129228   0.059   0.112   1.811 -1.6524  0.3728 -0.4649
 9443SOL    HW229229   0.130   0.137   1.666 -0.0141 -0.5211  0.1483
 9444SOL     OW29230   2.160   4.264   4.950  0.0037  0.0240  0.9922
 9444SOL    HW129231   2.144   4.204   5.028  0.8220 -1.4286  0.1038
 9444SOL    HW229232   2.204   4.212   4.877  0.4336  1.6499  0.0348
 9445SOL     OW29233   5.345   2.179   3.861  0.1966  0.7000 -0.3877
 9445SOL    HW129234   5.374   2.160   3.767 -0.3906  1.3515 -0.7131
 9445SOL    HW229235   5.250   2.151   3.874  1.7381 -4.8364  1.7170
 9446SOL     OW29236   0.037   3.759   0.898 -0.0922 -0.0719 -0.1261
 9446SOL    HW129237   0.133   3.734   0.915 -0.2974 -1.2369 -0.6067
 9446SOL    HW229238   0.015   3.842   0.950  1.0350 -0.0591  0.3705
 9447SOL     OW29239   5.842   0.277   1.474  0.4078  0.0253  0.3112
 9447SOL    HW129240   5.908   0.338   1.517 -0.2791  1.8236 -1.0713
 9447SOL    HW229241   5.799   0.323   1.396 -1.2887 -1.6746  0.1600
 9448SOL     OW29242   6.151   6.202   6.793 -0.4615 -0.1864 -0.3958
 9448SOL    HW129243   6.069   6.161   6.752  0.5631 -1.4070 -1.3193
 9448SOL    HW229244   6.221   6.212   6.722  0.6486 -0.4007  0.6547
 9449SOL     OW29245   5.315   4.241   5.203  0.2707 -0.0573  0.2015
 9449SOL    HW129246   5.355   4.169   5.147 -0.7810  0.5933 -1.5140
 9449SOL    HW229247   5.387   4.301   5.238  1.0695 -1.3345  0.8149
 9450SOL     OW29248   0.465   3.998   4.521 -0.4358 -0.2414  0.1706
 9450SOL    HW129249   0.398   3.973   4.590  0.7736  1.0126  1.8950
 9450SOL    HW229250   0.433   4.079   4.471 -0.0437  0.6415  1.3102
 9451SOL     OW29251   3.768   3.610   4.170  0.3369 -0.3974 -0.0256
 9451SOL    HW129252   3.845   3.674   4.160 -0.6747  1.0412  1.1061
 9451SOL    HW229253   3.683   3.661   4.179 -0.6964 -1.9615 -0.5512
 9452SOL     OW29254   2.880   4.252   1.279 -0.7059 -0.3184 -0.1406
 9452SOL    HW129255   2.900   4.178   1.214  1.2499  2.0849 -2.4825
 9452SOL    HW229256   2.918   4.228   1.368 -2.9659 -3.4718  0.1271
 9453SOL     OW29257   3.453   6.081   1.976  0.8503  0.3381  0.0037
 9453SOL    HW129258   3.486   5.988   1.958  1.6423  0.6955 -0.4112
 9453SOL    HW229259   3.469   6.104   2.072 -0.7920 -0.5203  0.5273
 9454SOL     OW29260   2.088   1.059   6.851 -0.3244  0.6001 -0.0530
 9454SOL    HW129261   2.146   0.980   6.871  0.2992  0.8060 -0.9818
 9454SOL    HW229262   1.997   1.028   6.826  0.2294  0.0618 -1.5629
 9455SOL     OW29263   1.621   0.169   0.746  0.0623  0.0803 -0.1971
 9455SOL    HW129264   1.662   0.203   0.661 -0.4912  0.5896 -0.2669
 9455SOL    HW229265   1.529   0.135   0.728 -0.0580  0.1881  0.1971
 9456SOL     OW29266   6.407   2.720   0.935  0.2457  0.1363  0.2345
 9456SOL    HW129267   6.498   2.710   0.894 -0.2389  0.1797 -0.8752
 9456SOL    HW229268   6.401   2.809   0.981  0.5412  0.4131 -0.2555
 9457SOL     OW29269   6.961   3.119   6.439 -0.3632  0.5039  0.1200
 9457SOL    HW129270   7.040   3.157   6.487  1.2796 -2.3524 -0.1439
 9457SOL    HW229271   6.980   3.117   6.341 -0.6367 -0.4564  0.0789
 9458SOL     OW29272   1.942   6.298   2.696  0.0702 -0.0567  0.3023
 9458SOL    HW129273   1.846   6.311   2.722 -0.0962  1.1060 -0.7911
 9458SOL    HW229274   1.947   6.237   2.617 -0.0729  2.2031 -1.5576
 9459SOL     OW29275   4.587   6.923   6.068  0.0105 -0.2253  0.0773
 9459SOL    HW129276   4.631   6.991   6.125  0.5811 -1.4112  1.1028
 9459SOL    HW229277   4.488   6.937   6.070  0.1784  1.2092 -0.6092
 9460SOL     OW29278   1.354   4.259   5.194  0.0537  0.3251 -0.5124
 9460SOL    HW129279   1.432   4.221   5.143 -0.0125  0.6503 -0.8634
 9460SOL    HW229280   1.301   4.184   5.234 -0.9027 -0.0938 -2.4007
 9461SOL     OW29281   0.638   0.441   1.477  0.2577  0.3951  0.5417
 9461SOL    HW129282   0.692   0.412   1.556  0.0365 -1.9964 -0.1131
 9461SOL    HW229283   0.627   0.365   1.414 -0.6453  1.8899 -1.2238
 9462SOL     OW29284   0.659   5.576   2.700 -0.0999  0.1133  0.6040
 9462SOL    HW129285   0.728   5.551   2.632 -0.1553  1.5979 -0.0390
 9462SOL    HW229286   0.684   5.664   2.741 -0.7690 -0.1198  1.5471
 9463SOL     OW29287   4.861   1.944   6.533 -0.1382  0.0492 -0.4026
 9463SOL    HW129288   4.914   1.863   6.558 -0.5608 -0.4479 -1.0621
 9463SOL    HW229289   4.920   2.009   6.486  0.1979  0.1083  0.0982
 9464SOL     OW29290   4.948   4.670   6.217  0.5003  0.8297 -0.1407
 9464SOL    HW129291   4.881   4.740   6.244  0.1719  0.3552  0.2969
 9464SOL    HW229292   5.036   4.714   6.200 -0.0397  1.5299 -1.2284
 9465SOL     OW29293   2.865   5.658   2.969 -0.1783 -0.7774  0.0548
 9465SOL    HW129294   2.836   5.688   2.878  1.4130  0.5573 -0.0497
 9465SOL    HW229295   2.797   5.686   3.036  0.1512  1.1094 -0.3439
 9466SOL     OW29296   4.244   2.314   0.944 -0.2441 -0.4744  0.1345
 9466SOL    HW129297   4.324   2.275   0.899 -0.0351 -0.1782  0.2522
 9466SOL    HW229298   4.169   2.247   0.941 -0.3334 -0.3433 -0.9172
 9467SOL     OW29299   1.789   2.521   2.639  0.4954 -1.1404 -0.8223
 9467SOL    HW129300   1.870   2.579   2.638  0.5402 -1.1945 -0.5832
 9467SOL    HW229301   1.743   2.525   2.551  1.4257 -2.0441 -1.3733
 9468SOL     OW29302   7.023   3.824   5.857  0.0660 -0.1413 -0.0837
 9468SOL    HW129303   7.044   3.892   5.927 -0.3376  2.0909 -2.0253
 9468SOL    HW229304   7.094   3.754   5.856 -0.1512 -0.5322  2.8075
 9469SOL     OW29305   6.866   4.875   3.134 -0.6418  0.1094 -0.2804
 9469SOL    HW129306   6.816   4.942   3.189  0.6490 -0.0417  1.1237
 9469SOL    HW229307   6.834   4.783   3.155  0.9521 -0.0934  1.5139
 9470SOL     OW29308   0.156   4.182   1.595 -0.1754 -0.3793 -0.5277
 9470SOL    HW129309   0.169   4.113   1.666 -0.9061  1.4315  1.4988
 9470SOL    HW229310   0.232   4.247   1.597  0.9738 -1.5289 -3.0124
 9471SOL     OW29311   4.888   1.070   0.305 -0.1251 -0.4524 -0.8661
 9471SOL    HW129312   4.829   1.148   0.326 -0.2938 -0.1812 -2.2740
 9471SOL    HW229313   4.884   1.050   0.208  1.6863 -0.7894 -0.9034
 9472SOL     OW29314   4.948   2.271   5.289 -0.0281 -0.5770 -0.0260
 9472SOL    HW129315   4.967   2.366   5.264  0.1762 -0.7230 -0.4364
 9472SOL    HW229316   4.867   2.239   5.240 -0.1361 -0.5928  0.1618
 9473SOL     OW29317   2.136   3.604   5.167  0.5218  0.1258  0.1402
 9473SOL    HW129318   2.126   3.532   5.098 -1.4714 -1.5654  2.0754
 9473SOL    HW229319   2.216   3.586   5.223 -0.4655 -1.2160  1.2025
 9474SOL     OW29320   4.369   4.575   4.358 -0.4999  0.0986 -0.0711
 9474SOL    HW129321   4.454   4.555   4.310 -1.0099 -0.0793 -0.9317
 9474SOL    HW229322   4.369   4.530   4.447  0.4270  0.3563  0.0640
 9475SOL     OW29323   3.317   3.733   1.679  0.3606 -0.3954  0.5501
 9475SOL    HW129324   3.310   3.807   1.746  0.4801  0.0658  0.0576
 9475SOL    HW229325   3.313   3.645   1.726  0.1990 -0.0770  1.1392
 9476SOL     OW29326   1.432   3.111   6.191  0.1072  0.7523  0.3544
 9476SOL    HW129327   1.453   3.065   6.105 -0.7788  0.1803  0.4325
 9476SOL    HW229328   1.333   3.112   6.205  0.2593  0.5382  1.5323
 9477SOL     OW29329   6.567   2.889   2.968  0.1993  0.1899  0.2708
 9477SOL    HW129330   6.537   2.980   2.997 -1.7940 -0.5653  0.7399
 9477SOL    HW229331   6.597   2.837   3.048 -0.3500 -0.1552  0.2542
 9478SOL     OW29332   1.118   3.757   4.829 -0.6309 -0.4129  0.6040
 9478SOL    HW129333   1.187   3.826   4.808 -0.2476 -0.4229  1.7304
 9478SOL    HW229334   1.114   3.743   4.928 -1.1613 -1.5414  0.4451
 9479SOL     OW29335   4.459   6.437   5.695 -0.0554  0.2475  0.1053
 9479SOL    HW129336   4.420   6.412   5.784 -0.0577  1.1619  0.3761
 9479SOL    HW229337   4.533   6.374   5.672 -0.7903 -0.6714  0.2317
 9480SOL     OW29338   6.601   5.446   6.601  0.4419 -0.3874  0.5973
 9480SOL    HW129339   6.593   5.395   6.686 -0.2965 -0.4856  0.4740
 9480SOL    HW229340   6.529   5.419   6.538  0.4293  0.3418  0.2828
 9481SOL     OW29341   0.507   3.351   2.574 -0.4855 -0.0867 -0.1639
 9481SOL    HW129342   0.599   3.390   2.581 -0.6517 -0.0197  2.5705
 9481SOL    HW229343   0.443   3.423   2.547  0.2369 -0.2005 -2.4032
 9482SOL     OW29344   3.827   0.002   2.117 -0.0940  0.1009 -0.3449
 9482SOL    HW129345   3.769   0.042   2.046  1.0584 -1.0501 -2.0083
 9482SOL    HW229346   3.771  -0.016   2.198 -2.0156 -0.6483 -1.7449
 9483SOL     OW29347   1.220   2.231   0.946 -0.0944 -0.6560 -0.4765
 9483SOL    HW129348   1.266   2.301   1.000  0.7086 -1.0377 -0.6470
 9483SOL    HW229349   1.121   2.242   0.954  0.0020 -0.5940  0.9246
 9484SOL     OW29350   5.751   1.439   3.174 -0.2359 -0.1160 -0.8058
 9484SOL    HW129351   5.704   1.510   3.227 -0.3979 -0.7823 -0.0391
 9484SOL    HW229352   5.799   1.377   3.236 -0.0979 -0.6862 -1.4656
 9485SOL     OW29353   6.401   1.365   2.835  0.2370 -0.4831 -0.6008
 9485SOL    HW129354   6.477   1.427   2.856  0.2215 -0.2538 -1.2073
 9485SOL    HW229355   6.433   1.271   2.840  0.6703 -0.3799 -1.2159
 9486SOL     OW29356   3.014   0.605   0.717 -0.1992  0.0480  0.1152
 9486SOL    HW129357   3.000   0.601   0.618 -1.1042 -0.7876  0.2656
 9486SOL    HW229358   3.096   0.555   0.741 -0.1981 -0.0909 -0.1730
 9487SOL     OW29359   2.986   3.408   1.395  0.1685  0.0770  0.3229
 9487SOL    HW129360   2.988   3.309   1.405  0.2332 -0.2185 -2.0284
 9487SOL    HW229361   2.900   3.436   1.352  0.3748  0.9700  0.4601
 9488SOL     OW29362   2.469   6.653   1.166  0.4858  0.8446  0.1470
 9488SOL    HW129363   2.491   6.556   1.170 -0.3205  0.6781  0.6930
 9488SOL    HW229364   2.482   6.687   1.073 -0.5824 -0.1085 -0.3587
 9489SOL     OW29365   3.108   3.945   0.566  0.0167 -0.0082 -0.2157
 9489SOL    HW129366   3.038   3.995   0.615 -0.5919  0.6096 -1.6532
 9489SOL    HW229367   3.139   3.868   0.621 -1.7545 -0.2748  0.4657
 9490SOL     OW29368   5.398   2.086   5.341  0.1082  0.4224  0.2787
 9490SOL    HW129369   5.447   2.010   5.383  0.2651  0.9182  1.0152
 9490SOL    HW229370   5.300   2.071   5.349  0.1364  0.0235 -0.0953
 9491SOL     OW29371   6.536   5.918   5.669  0.5702 -0.5076  0.1092
 9491SOL    HW129372   6.568   6.000   5.623 -0.0058  0.6651  1.7215
 9491SOL    HW229373   6.546   5.929   5.768  0.1478 -2.2454  0.3827
 9492SOL     OW29374   4.657   6.384   2.559  0.1178 -0.2925 -0.2968
 9492SOL    HW129375   4.694   6.458   2.615 -2.2764  0.4312  0.4596
 9492SOL    HW229376   4.678   6.296   2.601 -0.9261  0.2023  1.3719
 9493SOL     OW29377   5.001   5.501   3.053 -0.2998  0.0874  0.2304
 9493SOL    HW129378   5.079   5.441   3.071 -0.4016 -0.1205 -0.0298
 9493SOL    HW229379   5.017   5.589   3.098 -0.1998 -0.1663  0.7000
 9494SOL     OW29380   4.934   2.837   6.353  0.6327 -0.0992 -0.0478
 9494SOL    HW129381   4.892   2.827   6.263 -0.0396 -2.2699  0.4440
 9494SOL    HW229382   4.991   2.920   6.355  0.7098 -0.0340 -2.4585
 9495SOL     OW29383   4.825   0.988   6.047 -0.2144 -0.0842  0.1097
 9495SOL    HW129384   4.917   1.019   6.022 -0.5741 -0.2791 -1.5919
 9495SOL    HW229385   4.831   0.920   6.120  0.8620  1.1086  1.1693
 9496SOL     OW29386   6.812   4.008   6.493  0.1126 -0.3359 -0.5598
 9496SOL    HW129387   6.902   4.016   6.536 -1.2115  1.9696  2.0882
 9496SOL    HW229388   6.758   3.939   6.542 -0.6623  0.7083  0.0893
 9497SOL     OW29389   2.299   5.376   6.180 -0.0614 -0.5134  0.9856
 9497SOL    HW129390   2.388   5.372   6.136 -0.1953  2.8675  0.1258
 9497SOL    HW229391   2.311   5.404   6.276 -0.1777  2.2367  0.2828
 9498SOL     OW29392   4.034   5.884   5.274  0.2847  0.0262 -0.6446
 9498SOL    HW129393   4.040   5.791   5.309  1.3614  0.6796  1.0523
 9498SOL    HW229394   3.942   5.920   5.292  0.5874  0.0918  0.9963
 9499SOL     OW29395   4.789   3.991   5.412  0.1569  0.0970  0.0127
 9499SOL    HW129396   4.729   3.919   5.379  0.8865 -0.4668 -0.1130
 9499SOL    HW229397   4.734   4.065   5.451 -0.5961 -1.3253  1.8513
 9500SOL     OW29398   3.987   4.611   6.130  0.2126 -0.0433 -0.0499
 9500SOL    HW129399   3.977   4.710   6.119  2.2333  0.2623  0.3782
 9500SOL    HW229400   4.000   4.569   6.040 -0.9137  0.0252 -0.2556
 9501SOL     OW29401   4.263   1.416   5.877  0.1091  0.2758  0.4131
 9501SOL    HW129402   4.296   1.475   5.950 -1.5763 -0.1558  1.5840
 9501SOL    HW229403   4.320   1.334   5.872  0.5269  0.5270  0.9161
 9502SOL     OW29404   3.661   4.187   6.100  0.6787  0.2927  0.2584
 9502SOL    HW129405   3.626   4.096   6.121 -0.3954  0.3248 -1.2615
 9502SOL    HW229406   3.756   4.180   6.068  0.5996 -0.2925  0.1454
 9503SOL     OW29407   0.904   6.131   1.180 -0.0989  0.1302  0.6937
 9503SOL    HW129408   0.869   6.185   1.257 -1.1576 -0.1366  0.4126
 9503SOL    HW229409   0.976   6.183   1.135  0.7721  0.1560  2.0513
 9504SOL     OW29410   6.298   3.689   6.730 -0.7221  0.4886  0.1736
 9504SOL    HW129411   6.227   3.660   6.795 -1.3474  0.5324 -0.4837
 9504SOL    HW229412   6.377   3.722   6.781 -1.1021  0.2811  0.9201
 9505SOL     OW29413   5.591   1.586   3.340  0.5579  0.0955 -0.6166
 9505SOL    HW129414   5.630   1.616   3.427 -1.6088  0.4206  0.3017
 9505SOL    HW229415   5.568   1.667   3.285 -0.5041 -0.0277 -0.3593
 9506SOL     OW29416   5.127   1.961   0.984  0.1712 -0.1695  0.6616
 9506SOL    HW129417   5.135   1.907   0.900  1.9513  0.3932  0.4349
 9506SOL    HW229418   5.047   2.020   0.977  0.6116  0.3042 -0.9280
 9507SOL     OW29419   1.198   2.226   4.463 -0.3347  0.3629  0.3239
 9507SOL    HW129420   1.226   2.187   4.550  0.6355 -2.5151 -1.1541
 9507SOL    HW229421   1.266   2.293   4.433 -0.2929  0.8172  1.4042
 9508SOL     OW29422   5.724   1.452   5.363 -0.2450  0.3700 -0.3531
 9508SOL    HW129423   5.672   1.436   5.447 -0.6472 -0.9182 -0.8179
 9508SOL    HW229424   5.795   1.520   5.380  2.5019 -2.7401  2.3049
 9509SOL     OW29425   3.591   6.711   1.896 -0.4433 -0.4756 -0.1191
 9509SOL    HW129426   3.547   6.735   1.983 -2.2134  0.6025 -1.2365
 9509SOL    HW229427   3.652   6.634   1.910 -0.1414  0.1039  2.2091
 9510SOL     OW29428   4.728   4.383   2.849 -0.3976 -0.1946 -0.3485
 9510SOL    HW129429   4.770   4.442   2.780  1.3209  1.3096  1.8427
 9510SOL    HW229430   4.637   4.417   2.871 -0.5236 -0.0382 -1.0930
 9511SOL     OW29431   3.313   2.268   1.674 -0.1272 -1.2895  0.2285
 9511SOL    HW129432   3.340   2.348   1.728  0.0785 -1.2118  0.0171
 9511SOL    HW229433   3.269   2.201   1.733 -1.0647 -0.6702  0.2580
 9512SOL     OW29434   0.709   3.051   6.530  0.1509 -0.1962 -0.3712
 9512SOL    HW129435   0.695   3.029   6.434 -0.0324 -0.3798 -0.3041
 9512SOL    HW229436   0.730   3.149   6.539 -0.7202  0.0159 -0.5198
 9513SOL     OW29437   4.258   5.090   3.416  0.0774 -0.4576  0.3188
 9513SOL    HW129438   4.214   5.010   3.457  0.4560  0.2953  2.2862
 9513SOL    HW229439   4.194   5.167   3.415  0.4219 -0.1662  0.4893
 9514SOL     OW29440   3.211   3.078   6.874  0.0625 -0.0936 -0.0706
 9514SOL    HW129441   3.221   3.140   6.951  1.4303 -0.6814  0.2576
 9514SOL    HW229442   3.179   3.128   6.794  0.1305  0.8231  0.4665
 9515SOL     OW29443   1.208   4.578   6.010 -0.3557  0.0307  0.5211
 9515SOL    HW129444   1.252   4.652   5.959  2.8577 -0.9756  1.5697
 9515SOL    HW229445   1.252   4.491   5.987 -1.1832 -0.9399  2.3871
 9516SOL     OW29446   0.212   4.996   6.096 -0.1564  0.0819  0.5188
 9516SOL    HW129447   0.161   4.926   6.046 -2.3450  0.9426  1.4087
 9516SOL    HW229448   0.286   4.953   6.148 -0.3006 -1.3069 -0.3697
 9517SOL     OW29449   1.725   6.668   1.943 -0.4726 -0.1264 -0.4344
 9517SOL    HW129450   1.685   6.750   1.984 -2.1213 -0.6973 -0.8265
 9517SOL    HW229451   1.751   6.688   1.848 -2.7860 -0.5388 -1.2261
 9518SOL     OW29452   1.236   1.603   6.266 -0.2488  0.2049 -0.1952
 9518SOL    HW129453   1.278   1.599   6.357 -1.6923 -2.0906  0.4470
 9518SOL    HW229454   1.203   1.696   6.250  1.6007  1.1103  0.8485
 9519SOL     OW29455   4.083   3.692   3.767  0.2144  0.1342 -0.1679
 9519SOL    HW129456   4.103   3.719   3.673  0.5648  2.1039  0.4317
 9519SOL    HW229457   4.085   3.592   3.774 -0.4427 -0.0914 -2.3702
 9520SOL     OW29458   4.555   1.452   6.277 -0.2130 -0.4725  0.9206
 9520SOL    HW129459   4.652   1.426   6.270 -0.6141 -1.9628  0.5271
 9520SOL    HW229460   4.525   1.440   6.372  0.1973  0.8447  1.2337
 9521SOL     OW29461   1.514   1.727   1.346  0.6294 -0.2260 -0.4067
 9521SOL    HW129462   1.571   1.802   1.315 -2.1734  1.8940 -0.7967
 9521SOL    HW229463   1.462   1.690   1.269 -0.8788  0.0753  0.4391
 9522SOL     OW29464   4.685   0.133   2.394  0.7135 -0.1496 -0.1259
 9522SOL    HW129465   4.707   0.226   2.423  0.0194 -0.4337  1.4299
 9522SOL    HW229466   4.616   0.136   2.321  0.6639  0.5510 -0.0569
 9523SOL     OW29467   2.299   4.304   4.617  0.1487 -0.7889  0.6792
 9523SOL    HW129468   2.298   4.228   4.682  2.4060  0.2501  2.0344
 9523SOL    HW229469   2.357   4.377   4.652 -1.3786  1.3163 -0.9011
 9524SOL     OW29470   1.509   3.958   1.117 -0.2386 -0.0313 -0.3400
 9524SOL    HW129471   1.536   3.885   1.054 -0.0550 -1.3786  1.2372
 9524SOL    HW229472   1.463   3.918   1.197  1.2114  1.4166  1.2893
 9525SOL     OW29473   3.230   2.518   5.345 -0.1518 -0.0579 -0.0287
 9525SOL    HW129474   3.245   2.593   5.281 -0.7197 -0.9548 -1.2398
 9525SOL    HW229475   3.239   2.431   5.298  0.1103 -0.7707  1.2744
 9526SOL     OW29476   5.497   2.230   6.490 -0.5466 -0.2251  0.9528
 9526SOL    HW129477   5.486   2.146   6.436 -0.1126 -0.5021  1.2863
 9526SOL    HW229478   5.584   2.226   6.541 -1.7925 -0.8340  3.1714
 9527SOL     OW29479   5.094   6.608   5.363 -0.1954 -0.0137 -0.0184
 9527SOL    HW129480   5.047   6.688   5.400  0.3875  0.9779 -1.3370
 9527SOL    HW229481   5.058   6.586   5.272  0.1865 -0.7667  0.0009
 9528SOL     OW29482   4.842   3.278   1.862 -0.2053  0.0085 -0.7858
 9528SOL    HW129483   4.858   3.344   1.936 -0.1348  0.3539 -1.1035
 9528SOL    HW229484   4.795   3.198   1.898 -2.6884  1.3437 -0.8359
 9529SOL     OW29485   6.565   6.381   0.630 -0.4552 -0.0742 -0.3734
 9529SOL    HW129486   6.639   6.314   0.632  1.2560  1.7658  0.8753
 9529SOL    HW229487   6.566   6.430   0.543 -0.6906 -0.5179 -0.6347
 9530SOL     OW29488   0.712   6.075   2.753 -0.5246  0.3177 -0.0932
 9530SOL    HW129489   0.721   6.135   2.832  0.2065 -2.5850  2.1670
 9530SOL    HW229490   0.787   6.094   2.688  0.9757  0.4286  1.5988
 9531SOL     OW29491   3.279   6.867   2.298 -0.0535  0.2457 -0.0756
 9531SOL    HW129492   3.308   6.957   2.268 -0.5542 -0.0798 -1.6294
 9531SOL    HW229493   3.179   6.864   2.305 -0.0215 -0.0924  0.2881
 9532SOL     OW29494   0.740   5.798   2.833 -0.4347 -0.4005  0.3941
 9532SOL    HW129495   0.830   5.770   2.867 -0.0055  0.5057  0.0320
 9532SOL    HW229496   0.721   5.892   2.862 -1.0597 -0.4300  0.0875
 9533SOL     OW29497   0.336   3.990   2.714  0.1211 -0.1137 -0.3283
 9533SOL    HW129498   0.322   3.903   2.667  0.8522 -0.8359  0.7530
 9533SOL    HW229499   0.365   3.973   2.808 -1.0485  1.2904  0.3337
 9534SOL     OW29500   3.431   6.232   2.980 -0.2932 -0.2181  0.5620
 9534SOL    HW129501   3.510   6.290   2.959 -0.0093 -0.0009  2.1200
 9534SOL    HW229502   3.458   6.136   2.975 -0.4276 -0.2096 -0.7194
 9535SOL     OW29503   6.824   3.699   4.726  0.3885 -0.2783  0.2798
 9535SOL    HW129504   6.913   3.674   4.688  0.6085 -0.2495  0.7603
 9535SOL    HW229505   6.782   3.772   4.671  1.2200  0.5772  0.7419
 9536SOL     OW29506   4.161   3.904   0.591  0.4485 -0.5080  0.0551
 9536SOL    HW129507   4.156   3.818   0.641  1.7493  0.1424  1.3858
 9536SOL    HW229508   4.240   3.957   0.623  0.1323  0.8437 -1.2770
 9537SOL     OW29509   0.590   1.662   4.957  0.2421 -0.0610 -0.4227
 9537SOL    HW129510   0.633   1.575   4.934  1.5664  0.8594 -1.5511
 9537SOL    HW229511   0.651   1.715   5.016 -0.3578  0.3201 -0.1263
 9538SOL     OW29512   6.286   0.437   6.263 -0.1769  0.0656 -0.4879
 9538SOL    HW129513   6.356   0.507   6.271  0.5482 -0.6494 -0.4983
 9538SOL    HW229514   6.252   0.413   6.353  1.6491 -1.6214 -0.1816
 9539SOL     OW29515   4.282   3.652   1.740 -0.1890 -0.0985  0.4596
 9539SOL    HW129516   4.240   3.654   1.649  1.4170  0.5900 -0.3224
 9539SOL    HW229517   4.334   3.567   1.751 -0.8061 -0.4147  0.9435
 9540SOL     OW29518   4.442   5.320   3.363  0.5679  0.5434  0.0567
 9540SOL    HW129519   4.402   5.411   3.370 -0.0113  0.4769 -1.7482
 9540SOL    HW229520   4.371   5.251   3.379 -0.2115  0.4244 -3.1816
 9541SOL     OW29521   1.288   5.310   4.946 -0.1873  0.2390 -0.6363
 9541SOL    HW129522   1.339   5.301   5.031 -2.2729 -1.9268  0.4929
 9541SOL    HW229523   1.323   5.389   4.895  2.7921  0.1260  0.9864
 9542SOL     OW29524   5.064   5.205   4.959  0.4933  0.3782 -0.2395
 9542SOL    HW129525   5.034   5.255   5.041  0.6978  2.2675 -1.2596
 9542SOL    HW229526   5.018   5.243   4.879  0.7913 -1.0118 -1.0972
 9543SOL     OW29527   1.380   2.120   4.665 -0.2163 -0.6542 -0.8887
 9543SOL    HW129528   1.367   2.207   4.712 -1.1608  0.4491 -3.0339
 9543SOL    HW229529   1.367   2.044   4.730  0.7848  0.7609  1.0511
 9544SOL     OW29530   1.181   3.592   4.615 -0.1334  0.2853 -0.2267
 9544SOL    HW129531   1.275   3.560   4.632 -0.2551  0.0567  0.0201
 9544SOL    HW229532   1.155   3.658   4.685 -0.4195 -0.2058  0.1372
 9545SOL     OW29533   5.925   5.579   2.043 -0.3142  0.2502  0.4361
 9545SOL    HW129534   5.840   5.533   2.019  0.0202  0.1441 -0.5664
 9545SOL    HW229535   5.988   5.577   1.965 -0.1164  1.9987  0.5023
 9546SOL     OW29536   4.708   2.092   1.618 -0.3784 -0.0015  0.0583
 9546SOL    HW129537   4.773   2.051   1.554 -0.9886 -1.1762  0.1766
 9546SOL    HW229538   4.635   2.027   1.639 -1.5710  1.2570 -0.0057
 9547SOL     OW29539   5.609   0.956   3.758  0.7813  0.5010 -0.1958
 9547SOL    HW129540   5.534   0.913   3.809 -0.5385  0.9479 -1.6842
 9547SOL    HW229541   5.668   0.886   3.719  0.6034  0.1292  0.1903
 9548SOL     OW29542   6.069   5.245   6.421  0.0397  0.2946 -0.0095
 9548SOL    HW129543   6.134   5.299   6.368  0.0515 -0.2566 -0.5634
 9548SOL    HW229544   5.983   5.295   6.428  0.0342  0.3666 -0.5581
 9549SOL     OW29545   4.854   1.389   1.623 -0.0390 -0.0364 -0.6414
 9549SOL    HW129546   4.868   1.322   1.695 -0.1734  0.2042 -0.3888
 9549SOL    HW229547   4.756   1.404   1.610 -0.0246  2.1457  1.2258
 9550SOL     OW29548   0.179   2.346   2.037 -0.3244 -0.5948  0.2306
 9550SOL    HW129549   0.164   2.438   2.073 -1.0769 -0.8006  0.4578
 9550SOL    HW229550   0.276   2.323   2.042  0.2515  1.0752 -1.9835
 9551SOL     OW29551   5.477   2.090   2.473  0.2010 -0.0369 -0.0112
 9551SOL    HW129552   5.492   2.164   2.407 -2.5773 -0.4360 -1.2679
 9551SOL    HW229553   5.471   2.128   2.565 -2.0105  1.5453 -0.7103
 9552SOL     OW29554   3.769   6.404   0.670 -0.0572 -0.4895 -0.8335
 9552SOL    HW129555   3.807   6.369   0.756  1.4223 -1.0440 -1.6749
 9552SOL    HW229556   3.746   6.327   0.610 -1.4157 -0.1168 -0.8212
 9553SOL     OW29557   4.139   0.100   6.830  0.4130 -0.1186  0.0379
 9553SOL    HW129558   4.143   0.125   6.733  1.5412  1.4885  0.4603
 9553SOL    HW229559   4.143   0.183   6.886  1.5773 -1.1130  1.5071
 9554SOL     OW29560   1.112   1.767   4.725  0.5545 -0.1459  0.2576
 9554SOL    HW129561   1.158   1.701   4.666 -1.3365 -1.6914  0.4058
 9554SOL    HW229562   1.013   1.756   4.717  0.2038  1.1504  2.0333
 9555SOL     OW29563   0.162   0.977   2.047 -0.1779 -0.1700  0.5368
 9555SOL    HW129564   0.074   0.950   2.087  0.6879 -3.3652  0.6025
 9555SOL    HW229565   0.169   0.941   1.954  1.0971 -0.1216  0.5908
 9556SOL     OW29566   4.803   5.229   6.899  0.0776  0.4486 -0.7354
 9556SOL    HW129567   4.863   5.234   6.979 -1.2827  3.6983  0.2203
 9556SOL    HW229568   4.711   5.205   6.927  0.1413 -1.1562 -1.7648
 9557SOL     OW29569   5.707   0.909   0.769 -0.0350 -0.6693  0.6409
 9557SOL    HW129570   5.657   0.955   0.696  0.5351  0.9004  1.1778
 9557SOL    HW229571   5.724   0.975   0.843  0.1397 -1.9876  1.8118
 9558SOL     OW29572   4.614   6.574   5.516  0.2490  0.2669 -0.0810
 9558SOL    HW129573   4.702   6.592   5.560  0.1599  1.9244 -0.4953
 9558SOL    HW229574   4.545   6.556   5.585  0.2328  2.2930  0.5068
 9559SOL     OW29575   1.410   5.482   0.306 -0.7291  0.2720  0.2844
 9559SOL    HW129576   1.450   5.520   0.223 -1.1210  2.0818  0.8993
 9559SOL    HW229577   1.451   5.524   0.386 -1.4560 -0.3270  0.9979
 9560SOL     OW29578   3.320   0.490   3.349  0.4087 -0.3530  0.5085
 9560SOL    HW129579   3.224   0.461   3.342 -0.0283  0.4113  2.5428
 9560SOL    HW229580   3.380   0.413   3.327 -0.5709 -0.3167 -2.9145
 9561SOL     OW29581   5.282   6.502   0.146  0.1649 -0.2738  0.1109
 9561SOL    HW129582   5.318   6.472   0.234 -2.4919 -2.5424  0.5972
 9561SOL    HW229583   5.195   6.550   0.160  0.6201  0.9820 -1.1889
 9562SOL     OW29584   2.041   4.311   3.289  0.0285  0.1831  0.4642
 9562SOL    HW129585   2.109   4.257   3.239  1.8204  2.3408  0.3583
 9562SOL    HW229586   1.992   4.370   3.224 -0.4583  0.1561  0.8045
 9563SOL     OW29587   6.461   4.865   1.542 -0.3494  0.1100  0.9178
 9563SOL    HW129588   6.520   4.943   1.525 -0.3406 -0.4249 -2.1496
 9563SOL    HW229589   6.399   4.885   1.618  0.7581  2.4027  1.2855
 9564SOL     OW29590   1.016   2.527   6.942 -0.2584  0.3382  0.0740
 9564SOL    HW129591   0.949   2.465   6.901 -0.6005 -0.1779  1.3579
 9564SOL    HW229592   0.991   2.546   7.037  1.3088  0.2665  0.5439
 9565SOL     OW29593   3.083   1.724   4.003 -0.6018  0.2941 -0.0036
 9565SOL    HW129594   3.131   1.810   4.016  0.0914 -0.0268 -0.3674
 9565SOL    HW229595   3.042   1.695   4.090  1.8688 -0.5959  0.9665
 9566SOL     OW29596   3.149   0.348   6.742 -0.2865  0.2276  0.7267
 9566SOL    HW129597   3.171   0.265   6.691  1.0521  0.0652  1.5128
 9566SOL    HW229598   3.161   0.428   6.683  0.4101 -0.0055  0.5520
 9567SOL     OW29599   6.172   3.965   1.407  0.1181  0.3625  0.0658
 9567SOL    HW129600   6.102   4.031   1.435 -0.5287  0.1091 -0.9116
 9567SOL    HW229601   6.135   3.904   1.336  0.7587 -0.9390  0.8057
 9568SOL     OW29602   4.866   1.624   5.785  0.0643  0.2491  1.0525
 9568SOL    HW129603   4.948   1.681   5.792 -0.5763  1.1521  1.4379
 9568SOL    HW229604   4.876   1.561   5.709  1.3712 -0.0855  1.4698
 9569SOL     OW29605   4.468   1.107   1.325 -0.2518  0.1056 -0.2045
 9569SOL    HW129606   4.409   1.120   1.246  1.8918  0.0431 -1.9199
 9569SOL    HW229607   4.501   1.195   1.358  0.1529  0.0497 -0.4491
 9570SOL     OW29608   1.701   4.365   2.236 -0.2886 -0.4787  0.4295
 9570SOL    HW129609   1.747   4.281   2.266 -1.1215 -1.2051 -0.2393
 9570SOL    HW229610   1.706   4.371   2.136 -1.4447 -0.4730  0.3568
 9571SOL     OW29611   0.705   2.352   0.241 -0.3423  0.1004  0.3823
 9571SOL    HW129612   0.613   2.391   0.251 -0.6585 -0.5516  0.0843
 9571SOL    HW229613   0.755   2.364   0.327 -1.2450 -0.8744  1.0772
 9572SOL     OW29614   2.614   5.450   3.865 -0.0774  0.0179  0.6893
 9572SOL    HW129615   2.608   5.533   3.809 -1.0811 -1.5180 -1.6202
 9572SOL    HW229616   2.524   5.431   3.905  0.4627  0.7006  2.3175
 9573SOL     OW29617   6.921   5.749   5.010  0.0927  0.1749  0.7052
 9573SOL    HW129618   6.825   5.722   5.006  0.6368 -1.9103  0.5771
 9573SOL    HW229619   6.928   5.849   5.006 -1.9908  0.3240 -0.6001
 9574SOL     OW29620   4.402   2.448   0.009 -0.7112  0.3362 -0.2665
 9574SOL    HW129621   4.415   2.349   0.011 -0.4066  0.3836  1.1859
 9574SOL    HW229622   4.354   2.477   0.092 -0.7402  1.4195 -0.6459
 9575SOL     OW29623   6.558   1.407   1.796 -0.0657  0.7103 -0.0445
 9575SOL    HW129624   6.494   1.340   1.758  0.0111  0.8644 -0.4461
 9575SOL    HW229625   6.613   1.363   1.867 -0.8383  0.6600  0.5446
 9576SOL     OW29626   0.728   2.298   6.096 -0.0433  0.6928 -0.1244
 9576SOL    HW129627   0.815   2.251   6.111 -0.3572 -0.0354 -0.5290
 9576SOL    HW229628   0.663   2.272   6.167 -0.1788  0.6155 -0.2756
 9577SOL     OW29629   1.228   1.310   4.029  0.1689 -0.0729 -1.0740
 9577SOL    HW129630   1.227   1.311   4.129 -0.7427 -1.9438 -1.0307
 9577SOL    HW229631   1.296   1.376   3.996 -0.4466  1.5481  0.7230
 9578SOL     OW29632   2.291   2.536   1.950  0.1300  0.3410  0.3299
 9578SOL    HW129633   2.370   2.479   1.928 -0.1067  0.3922 -0.7451
 9578SOL    HW229634   2.312   2.594   2.029  0.3442 -1.2672  1.5015
 9579SOL     OW29635   6.641   6.525   3.666  0.1782  0.3965  0.0688
 9579SOL    HW129636   6.697   6.598   3.626 -0.4555  1.1966  0.6226
 9579SOL    HW229637   6.698   6.470   3.727  0.1966  1.7430  1.3235
 9580SOL     OW29638   4.215   5.080   5.061  0.5485 -0.1229  0.0363
 9580SOL    HW129639   4.289   5.014   5.076 -0.5403 -1.3066  0.2713
 9580SOL    HW229640   4.248   5.152   5.000  1.1324 -1.9766 -1.9516
 9581SOL     OW29641   6.189   1.344   0.828  0.1293  0.2325  0.0328
 9581SOL    HW129642   6.271   1.302   0.868 -0.5815 -0.0680  1.2256
 9581SOL    HW229643   6.203   1.357   0.730  2.2200  1.6229  0.4327
 9582SOL     OW29644   5.686   6.791   5.113 -0.1288  0.5031  0.3589
 9582SOL    HW129645   5.671   6.867   5.176  1.2509 -0.6527  2.1921
 9582SOL    HW229646   5.631   6.713   5.143  1.2659 -0.3633  0.7337
 9583SOL     OW29647   2.378   4.985   6.948 -0.0783 -0.7887 -0.9993
 9583SOL    HW129648   2.340   4.894   6.934 -0.0447 -0.7098 -1.6355
 9583SOL    HW229649   2.477   4.979   6.956 -0.2134 -1.0334  0.9926
 9584SOL     OW29650   1.431   4.361   2.240  0.3616  0.3950  0.0597
 9584SOL    HW129651   1.531   4.354   2.249  0.3980  1.6745  0.9122
 9584SOL    HW229652   1.401   4.451   2.271 -0.9433  0.5054 -1.4205
 9585SOL     OW29653   5.378   6.796   3.843  0.4403 -0.2712 -0.1427
 9585SOL    HW129654   5.444   6.847   3.787  0.4832 -0.4311 -0.2372
 9585SOL    HW229655   5.401   6.699   3.841  0.6573 -0.2329  0.4475
 9586SOL     OW29656   3.346   5.426   3.054 -0.2966 -0.3100  0.3706
 9586SOL    HW129657   3.308   5.442   3.145  0.9132  3.2219  0.4234
 9586SOL    HW229658   3.271   5.407   2.990 -1.3594 -0.8612  1.7231
 9587SOL     OW29659   4.595   4.800   6.530 -0.5193 -0.4741 -0.4260
 9587SOL    HW129660   4.524   4.845   6.476  0.0350  0.5372 -0.3414
 9587SOL    HW229661   4.628   4.863   6.601  1.4415 -0.3831 -1.3438
 9588SOL     OW29662   6.784   5.262   2.439 -0.1212  0.5655  0.2083
 9588SOL    HW129663   6.716   5.329   2.471  1.1586  0.8450  2.5878
 9588SOL    HW229664   6.821   5.212   2.518  0.6340 -1.3579 -1.2857
 9589SOL     OW29665   0.343   6.192   4.278 -0.1109 -0.2445  0.1275
 9589SOL    HW129666   0.249   6.158   4.285 -0.2045 -0.2691 -0.9921
 9589SOL    HW229667   0.363   6.253   4.354 -1.8886  1.7909 -0.9443
 9590SOL     OW29668   6.313   6.508   1.811 -0.0726 -0.2136  0.4482
 9590SOL    HW129669   6.341   6.412   1.810 -2.6374 -1.0441 -0.7871
 9590SOL    HW229670   6.259   6.526   1.893  0.2313  0.1157  0.5760
 9591SOL     OW29671   5.343   1.114   1.238  0.9546  0.4088 -0.2140
 9591SOL    HW129672   5.428   1.099   1.187  1.8680  0.2760  1.2731
 9591SOL    HW229673   5.342   1.207   1.274  0.9418  0.1150  0.5764
 9592SOL     OW29674   2.469   4.847   4.368  0.3220  0.2295 -0.2767
 9592SOL    HW129675   2.486   4.884   4.276  0.6365 -1.9262 -1.1639
 9592SOL    HW229676   2.517   4.902   4.436  0.1690  1.8232 -1.4128
 9593SOL     OW29677   2.829   1.543   3.490  0.1226 -0.2398  0.3583
 9593SOL    HW129678   2.872   1.453   3.488  1.3179  0.3148 -1.4109
 9593SOL    HW229679   2.780   1.559   3.404 -0.9744  0.4074  1.0712
 9594SOL     OW29680   0.912   1.691   3.766  0.1282  0.0536 -0.2030
 9594SOL    HW129681   0.834   1.688   3.829 -0.8204 -2.5479 -1.3634
 9594SOL    HW229682   0.996   1.671   3.817  0.0285  2.2858  0.9518
 9595SOL     OW29683   6.793   4.867   2.571  0.6735 -0.3846  0.8425
 9595SOL    HW129684   6.857   4.838   2.501 -0.3076 -0.0348 -0.2324
 9595SOL    HW229685   6.795   4.803   2.648  0.7309 -1.5810 -0.1407
 9596SOL     OW29686   1.504   3.619   3.359  0.0390 -0.7461  0.0774
 9596SOL    HW129687   1.576   3.684   3.386 -1.3174  1.6060 -1.5779
 9596SOL    HW229688   1.512   3.536   3.414  1.3207  1.1447  3.0229
 9597SOL     OW29689   0.069   3.484   0.264 -0.3170 -0.1850  0.3138
 9597SOL    HW129690   0.036   3.406   0.318 -0.5806 -0.7757 -0.6777
 9597SOL    HW229691   0.013   3.565   0.285 -0.0616 -0.2612  1.3231
 9598SOL     OW29692   3.172   5.316   2.323  0.4322 -0.4572 -0.2490
 9598SOL    HW129693   3.166   5.339   2.226 -0.4368 -1.8387 -0.5638
 9598SOL    HW229694   3.080   5.311   2.361  0.7359 -0.5775  0.4847
 9599SOL     OW29695   3.313   0.701   4.364  0.2923 -0.4588 -0.6642
 9599SOL    HW129696   3.227   0.750   4.377  0.8902  0.8584 -1.5279
 9599SOL    HW229697   3.303   0.607   4.398 -1.4410 -0.3027 -0.6570
 9600SOL     OW29698   4.090   1.679   6.588 -0.1087  0.0079 -0.3607
 9600SOL    HW129699   4.182   1.716   6.575  0.2258 -0.6929 -0.0324
 9600SOL    HW229700   4.077   1.600   6.528 -0.3737 -0.1007 -0.1610
 9601SOL     OW29701   1.063   4.402   0.671 -0.4004 -0.3556 -0.3295
 9601SOL    HW129702   1.025   4.363   0.755  1.0704 -3.0079 -0.8065
 9601SOL    HW229703   1.132   4.471   0.695 -0.3478 -0.7279  0.6180
 9602SOL     OW29704   5.044   4.043   5.323  0.5388  0.8861 -0.3358
 9602SOL    HW129705   4.951   4.019   5.350  1.5278  1.0705  3.9901
 9602SOL    HW229706   5.085   4.100   5.394  4.2168  0.1483 -1.6710
 9603SOL     OW29707   6.968   5.605   5.577 -0.1566 -0.4967 -0.5085
 9603SOL    HW129708   6.925   5.621   5.489 -0.2367 -1.0115 -0.5673
 9603SOL    HW229709   6.981   5.507   5.591 -0.2710 -0.4299  0.1122
 9604SOL     OW29710   5.359   5.830   1.945 -0.4174 -0.1629  0.2508
 9604SOL    HW129711   5.397   5.812   2.036 -2.3731 -1.9001  0.8178
 9604SOL    HW229712   5.260   5.840   1.952 -0.3502  2.7401 -1.3387
 9605SOL     OW29713   5.782   6.178   2.147  0.4761  0.3270 -1.1571
 9605SOL    HW129714   5.790   6.143   2.240 -0.3446  0.4014 -1.0513
 9605SOL    HW229715   5.698   6.144   2.106  0.1742  1.3359 -1.4135
 9606SOL     OW29716   0.220   0.309   0.425  0.1531  0.2300  0.1524
 9606SOL    HW129717   0.273   0.377   0.375 -0.5586  1.9150  1.5882
 9606SOL    HW229718   0.281   0.245   0.471  0.8895  0.9651  0.2071
 9607SOL     OW29719   1.486   2.603   6.045  0.4927 -0.2550  0.3809
 9607SOL    HW129720   1.501   2.666   6.121  1.0436  0.4141 -0.2580
 9607SOL    HW229721   1.560   2.614   5.978 -0.9756  0.6091 -1.2066
 9608SOL     OW29722   6.437   3.166   3.056  0.2415 -0.1633 -0.0871
 9608SOL    HW129723   6.528   3.159   3.099  0.6660  1.0003 -0.7487
 9608SOL    HW229724   6.367   3.173   3.127  0.5736 -1.7376  0.4477
 9609SOL     OW29725   4.158   3.669   1.003  0.8199  0.0544 -0.3846
 9609SOL    HW129726   4.113   3.697   1.088  1.2573  2.3176 -0.8413
 9609SOL    HW229727   4.229   3.602   1.023  0.5157  0.1089  0.9512
 9610SOL     OW29728   1.432   5.114   3.552  0.6759 -0.0188  0.3502
 9610SOL    HW129729   1.356   5.174   3.532  0.2332 -0.3439  1.0185
 9610SOL    HW229730   1.463   5.070   3.468 -0.8634 -1.0429  0.2800
 9611SOL     OW29731   3.601   6.261   6.981 -0.5026  0.5820 -0.0421
 9611SOL    HW129732   3.567   6.193   6.917 -1.3971  1.1861 -0.2282
 9611SOL    HW229733   3.665   6.218   7.045 -0.6092 -0.2987 -0.5123
 9612SOL     OW29734   6.278   2.496   4.711  0.5620  0.4987 -1.1085
 9612SOL    HW129735   6.302   2.570   4.774  0.2844 -0.1078 -0.2728
 9612SOL    HW229736   6.309   2.520   4.619 -0.8435  2.3302 -1.1731
 9613SOL     OW29737   5.819   4.127   4.312  0.1822  0.0746  0.1161
 9613SOL    HW129738   5.812   4.210   4.366  1.2953  0.9925 -1.0946
 9613SOL    HW229739   5.773   4.052   4.360  1.3359  0.7567  2.4498
 9614SOL     OW29740   3.604   6.614   5.248  0.3240 -0.1946 -0.3871
 9614SOL    HW129741   3.642   6.521   5.244 -0.2834 -0.4202 -1.5871
 9614SOL    HW229742   3.504   6.608   5.254  0.3133  0.3902  0.0617
 9615SOL     OW29743   0.996   3.920   1.883 -0.6030  0.5502  0.3903
 9615SOL    HW129744   1.038   3.830   1.874 -1.0356  0.4685 -1.0044
 9615SOL    HW229745   1.052   3.978   1.942  2.2180  0.8668 -2.3272
 9616SOL     OW29746   3.330   4.049   6.084 -0.0482 -0.3000 -0.5747
 9616SOL    HW129747   3.250   4.005   6.043  0.3814 -1.3650 -0.2984
 9616SOL    HW229748   3.411   4.028   6.028  0.3832 -0.9864  0.2803
 9617SOL     OW29749   1.453   3.475   2.277 -0.0158  0.2708 -1.0444
 9617SOL    HW129750   1.534   3.492   2.221  0.9285 -1.3110 -0.2371
 9617SOL    HW229751   1.414   3.385   2.253  0.0297 -0.1462  0.3705
 9618SOL     OW29752   2.701   3.440   1.380 -0.0830  0.2209  0.0657
 9618SOL    HW129753   2.696   3.399   1.471 -0.3589 -0.0861 -0.0818
 9618SOL    HW229754   2.706   3.539   1.388 -0.3511  0.2093  0.4134
 9619SOL     OW29755   1.438   6.450   0.297  0.1223  0.6551 -0.1438
 9619SOL    HW129756   1.459   6.357   0.267  0.0237  0.6232 -0.1129
 9619SOL    HW229757   1.388   6.447   0.384  0.8742  0.7599  0.3072
 9620SOL     OW29758   4.107   0.740   0.050 -0.7881  0.4166  0.0316
 9620SOL    HW129759   4.105   0.724  -0.049 -0.5259  0.0406  0.0835
 9620SOL    HW229760   4.150   0.662   0.095  1.7156  1.7565  0.1816
 9621SOL     OW29761   2.420   5.527   2.979  0.2569 -0.2582  0.1388
 9621SOL    HW129762   2.357   5.470   3.032 -1.0060  0.6650 -0.3092
 9621SOL    HW229763   2.416   5.621   3.014 -0.3155  0.2808 -1.3189
 9622SOL     OW29764   4.201   5.444   0.183  0.3041 -0.1017 -0.1430
 9622SOL    HW129765   4.133   5.441   0.110  1.4452  0.5341 -1.2867
 9622SOL    HW229766   4.158   5.426   0.271 -1.4393  0.9169 -0.7532
 9623SOL     OW29767   1.867   4.066   6.181 -0.2630  0.0367  0.5712
 9623SOL    HW129768   1.935   4.024   6.241  0.0667 -0.1614  0.0620
 9623SOL    HW229769   1.790   4.098   6.236 -0.2268 -0.6560  1.0384
 9624SOL     OW29770   0.294   2.546   3.590  0.1058 -0.4643  0.5793
 9624SOL    HW129771   0.354   2.613   3.635 -1.3900 -0.3604  2.5235
 9624SOL    HW229772   0.287   2.568   3.492  0.4629  1.5967  0.9732
 9625SOL     OW29773   4.097   5.258   3.179 -0.5962  0.1462  0.0696
 9625SOL    HW129774   4.039   5.179   3.198  0.7532 -0.7973  0.4145
 9625SOL    HW229775   4.066   5.335   3.235 -0.1863 -0.9699  1.9404
 9626SOL     OW29776   2.938   6.565   6.655  0.4050 -0.2651  0.4828
 9626SOL    HW129777   2.912   6.555   6.559 -1.1216 -0.2572  0.8563
 9626SOL    HW229778   2.912   6.656   6.687 -2.4565 -1.3959  1.7803
 9627SOL     OW29779   1.681   6.243   0.663 -0.4455 -0.2081  0.1457
 9627SOL    HW129780   1.687   6.340   0.638 -0.2591  0.0221  1.0462
 9627SOL    HW229781   1.674   6.188   0.580  0.4019  0.5107 -0.4240
 9628SOL     OW29782   5.020   0.976   1.580 -0.0708  0.2785  1.2222
 9628SOL    HW129783   4.954   0.989   1.506  2.2119 -1.5597 -1.3652
 9628SOL    HW229784   4.996   0.895   1.633  0.2897 -0.6605 -0.0070
 9629SOL     OW29785   3.552   1.108   5.959  0.2855 -0.1547 -0.0996
 9629SOL    HW129786   3.475   1.102   6.023  0.7220 -0.7245  0.3924
 9629SOL    HW229787   3.579   1.016   5.930  0.7353  0.0394 -0.3157
 9630SOL     OW29788   0.679   3.021   0.594 -0.2451  0.1167  0.0197
 9630SOL    HW129789   0.777   3.038   0.585 -0.1828 -0.2196  0.0458
 9630SOL    HW229790   0.646   3.066   0.677  0.5072 -2.2685  1.7321
 9631SOL     OW29791   5.349   4.721   0.757 -0.4382  0.5565 -0.2871
 9631SOL    HW129792   5.363   4.747   0.662 -0.9280 -2.2711 -1.2246
 9631SOL    HW229793   5.429   4.672   0.792 -1.4812 -1.3436 -0.3980
 9632SOL     OW29794   1.423   5.198   0.767 -0.4400 -0.7082  0.1129
 9632SOL    HW129795   1.362   5.164   0.838 -1.9105  0.2455 -0.6420
 9632SOL    HW229796   1.370   5.241   0.694  1.1375  0.2838 -0.5263
 9633SOL     OW29797   0.624   3.553   0.061 -0.2882 -0.0227 -0.4013
 9633SOL    HW129798   0.536   3.570   0.016 -1.9690 -1.7089  2.0340
 9633SOL    HW229799   0.636   3.618   0.136  0.4604  0.0262 -0.5552
 9634SOL     OW29800   1.380   6.684   5.967  0.5180 -0.1303  0.1791
 9634SOL    HW129801   1.401   6.597   5.922 -0.2386 -0.9706  1.4046
 9634SOL    HW229802   1.310   6.670   6.037  1.3113  1.2217  1.3037
 9635SOL     OW29803   6.887   0.254   4.843 -0.2455  0.4735  0.0458
 9635SOL    HW129804   6.824   0.285   4.773 -1.0744  0.0349  0.5770
 9635SOL    HW229805   6.917   0.160   4.823 -0.4071  0.3831  0.2184
 9636SOL     OW29806   4.148   1.889   0.158  0.6011 -0.1301  0.2741
 9636SOL    HW129807   4.219   1.820   0.141  0.1534 -0.4695 -0.2708
 9636SOL    HW229808   4.146   1.953   0.082 -0.4684 -0.8215 -0.2973
 9637SOL     OW29809   2.902   2.413   6.440  0.5769 -0.3147 -0.2695
 9637SOL    HW129810   2.990   2.408   6.392  0.2772  1.5604 -1.0828
 9637SOL    HW229811   2.916   2.389   6.536  2.0323  0.2240 -0.3159
 9638SOL     OW29812   7.012   2.419   6.821 -0.3102  0.5538 -0.2253
 9638SOL    HW129813   7.094   2.371   6.792 -0.6950  0.0273 -0.4581
 9638SOL    HW229814   6.961   2.361   6.885 -0.6756  0.7293 -0.3564
 9639SOL     OW29815   2.675   6.297   4.258 -0.2482 -0.9323 -0.0057
 9639SOL    HW129816   2.577   6.316   4.251  0.1393  2.0431  1.1054
 9639SOL    HW229817   2.715   6.295   4.167 -1.0503 -0.1821 -0.3883
 9640SOL     OW29818   2.494   2.589   3.347  0.0188  0.0224 -0.2631
 9640SOL    HW129819   2.530   2.531   3.420  0.0052  0.2812 -0.0487
 9640SOL    HW229820   2.531   2.559   3.259  0.4410  0.0345 -0.0925
 9641SOL     OW29821   6.517   0.590   6.158  0.2875 -0.2209  0.3751
 9641SOL    HW129822   6.561   0.668   6.115 -0.5305  0.8223  1.3801
 9641SOL    HW229823   6.579   0.550   6.226  0.6337 -0.3353 -0.0055
 9642SOL     OW29824   3.634   0.326   3.699  0.0037 -0.6654  0.2445
 9642SOL    HW129825   3.685   0.286   3.623 -1.4485 -1.0733 -0.5470
 9642SOL    HW229826   3.537   0.305   3.689 -0.4524  0.7926  1.2564
 9643SOL     OW29827   3.638   5.403   2.683 -0.3323  0.3312 -0.3512
 9643SOL    HW129828   3.617   5.406   2.585  0.3507  0.1723 -0.5101
 9643SOL    HW229829   3.582   5.333   2.726 -2.3950  2.0048 -0.1580
 9644SOL     OW29830   4.228   0.064   1.003 -0.5559 -0.1764 -0.3178
 9644SOL    HW129831   4.223   0.001   1.081 -0.7520  0.3432  0.0895
 9644SOL    HW229832   4.172   0.029   0.929 -2.1309  0.4013  0.5403
 9645SOL     OW29833   4.075   6.549   5.348 -0.0977  0.1711 -0.7000
 9645SOL    HW129834   4.061   6.630   5.290 -1.9440 -0.3778 -1.0618
 9645SOL    HW229835   4.127   6.576   5.429 -0.5390  1.6998 -0.8810
 9646SOL     OW29836   1.263   6.499   4.022  0.1279 -0.1448  0.0945
 9646SOL    HW129837   1.352   6.456   4.035  0.1247 -0.0420  0.4503
 9646SOL    HW229838   1.203   6.436   3.972  0.9021  0.3934 -1.6016
 9647SOL     OW29839   0.429   2.273   5.278 -0.3647  0.1483  0.3051
 9647SOL    HW129840   0.467   2.256   5.369 -1.9307  0.8633  1.1479
 9647SOL    HW229841   0.397   2.187   5.239  0.0314 -0.1197  0.5601
 9648SOL     OW29842   3.531   4.647   0.817 -0.0982 -0.2211  0.2746
 9648SOL    HW129843   3.535   4.642   0.917  1.3862 -1.5297  0.1831
 9648SOL    HW229844   3.529   4.554   0.779  0.2394  0.2491 -0.9349
 9649SOL     OW29845   2.248   4.539   1.752 -0.1347 -0.2780 -0.2572
 9649SOL    HW129846   2.219   4.459   1.700 -0.0931  0.5863 -1.6504
 9649SOL    HW229847   2.305   4.598   1.695  0.9745  0.0870  1.1698
 9650SOL     OW29848   2.478   0.055   1.073  0.1616  0.6093  0.5396
 9650SOL    HW129849   2.439   0.122   1.136  0.8288  1.5632 -0.0311
 9650SOL    HW229850   2.467   0.087   0.979  0.5171 -0.0734  0.2568
 9651SOL     OW29851   0.512   3.281   0.495  0.2335  0.3164 -0.2717
 9651SOL    HW129852   0.517   3.207   0.427 -0.9050  0.3464 -0.4099
 9651SOL    HW229853   0.484   3.366   0.450 -1.5652  0.1016  0.3627
 9652SOL     OW29854   0.620   4.965   1.320 -0.4212 -1.1369 -0.1984
 9652SOL    HW129855   0.623   4.885   1.260  0.1062 -1.0376 -0.3121
 9652SOL    HW229856   0.713   4.999   1.334 -0.5603 -1.0215  0.4907
 9653SOL     OW29857   0.413   6.832   4.043  0.3357 -0.2507  0.0914
 9653SOL    HW129858   0.340   6.804   4.105  1.2727 -5.0483 -0.5690
 9653SOL    HW229859   0.502   6.812   4.085  1.0894 -0.2802 -1.4362
 9654SOL     OW29860   2.239   2.167   3.011  0.3627 -0.5343  0.4549
 9654SOL    HW129861   2.255   2.081   3.060  1.5356 -0.2906  0.5376
 9654SOL    HW229862   2.293   2.240   3.054 -0.7033  0.2814  0.4619
 9655SOL     OW29863   0.670   1.234   0.309 -0.6267  0.1126  0.2614
 9655SOL    HW129864   0.693   1.141   0.281 -1.1683  0.1777 -0.4179
 9655SOL    HW229865   0.574   1.253   0.288 -0.0499  1.4602 -1.3995
 9656SOL     OW29866   2.315   1.523   1.404  0.4383 -0.3416 -0.1168
 9656SOL    HW129867   2.244   1.458   1.428 -0.6685  1.4710  1.8418
 9656SOL    HW229868   2.305   1.549   1.308  2.5550 -4.8454 -1.8580
 9657SOL     OW29869   0.251   1.455   5.447 -0.0930  0.1489  0.0928
 9657SOL    HW129870   0.213   1.445   5.355  1.0100 -1.8361 -0.2135
 9657SOL    HW229871   0.196   1.402   5.512  0.5816 -0.5698  0.0980
 9658SOL     OW29872   6.314   0.966   3.025  0.2009  0.1365 -0.2651
 9658SOL    HW129873   6.292   0.874   3.057 -0.7488  0.2561 -0.5636
 9658SOL    HW229874   6.233   1.024   3.029  0.7000  0.8627 -0.4339
 9659SOL     OW29875   0.517   4.374   6.677  0.4684  0.3233 -0.5317
 9659SOL    HW129876   0.443   4.350   6.615  0.5592 -0.6913 -0.2598
 9659SOL    HW229877   0.485   4.444   6.741 -0.3448 -0.2805 -0.2560
 9660SOL     OW29878   1.950   3.912   6.595  0.2703 -0.0496  0.0487
 9660SOL    HW129879   1.988   3.821   6.585 -1.3264 -0.6528 -0.9417
 9660SOL    HW229880   1.947   3.937   6.692  2.9248 -0.0162  0.1924
 9661SOL     OW29881   3.078   3.440   0.653  0.0959 -0.1729  0.1320
 9661SOL    HW129882   3.013   3.434   0.728 -0.0442 -1.2425 -0.0524
 9661SOL    HW229883   3.164   3.396   0.679  0.1576 -0.2658 -0.2190
 9662SOL     OW29884   4.680   0.176   2.838 -0.2602 -0.1461  0.1455
 9662SOL    HW129885   4.770   0.202   2.803  0.1837  0.4466  1.6315
 9662SOL    HW229886   4.622   0.257   2.841 -0.0350 -0.0111  1.4541
 9663SOL     OW29887   5.073   6.604   3.448  0.4883 -0.0008  0.3824
 9663SOL    HW129888   5.090   6.524   3.506  1.1412 -1.0120 -1.1505
 9663SOL    HW229889   5.086   6.580   3.352 -1.5855  1.3491 -0.3193
 9664SOL     OW29890   2.478   5.679   1.594 -0.3129  0.3874  0.7843
 9664SOL    HW129891   2.498   5.775   1.611  0.4655  0.6244 -1.2208
 9664SOL    HW229892   2.555   5.623   1.623  0.3499  0.6403 -0.4244
 9665SOL     OW29893   4.503   4.400   2.331 -0.1468 -0.0412  0.0230
 9665SOL    HW129894   4.528   4.419   2.236  0.3487  0.0192  0.1615
 9665SOL    HW229895   4.420   4.345   2.334 -1.5501  1.9435 -0.3975
 9666SOL     OW29896   4.305   5.256   5.479  0.1607 -0.0481 -0.5334
 9666SOL    HW129897   4.277   5.160   5.483  0.5426 -0.1353  0.0554
 9666SOL    HW229898   4.404   5.261   5.471  0.3400  0.3198  1.5229
 9667SOL     OW29899   2.126   1.585   0.711 -0.1185 -0.3470 -0.5918
 9667SOL    HW129900   2.147   1.656   0.778 -2.7202 -0.2174  0.2107
 9667SOL    HW229901   2.099   1.628   0.625 -1.7257 -0.2978 -0.0959
 9668SOL     OW29902   0.814   2.089   5.577  0.5933  0.4620 -0.1122
 9668SOL    HW129903   0.762   2.146   5.640  2.9334  1.7359  0.8003
 9668SOL    HW229904   0.752   2.031   5.525 -1.5367  0.1924  2.5213
 9669SOL     OW29905   1.823   6.360   0.429  0.3644  0.0742  0.2474
 9669SOL    HW129906   1.776   6.414   0.499  0.8557 -1.8377  2.1662
 9669SOL    HW229907   1.900   6.412   0.394 -0.3738  1.4073  0.5005
 9670SOL     OW29908   5.814   3.146   6.208 -0.0828 -0.1277  0.2776
 9670SOL    HW129909   5.725   3.125   6.249 -0.3196  1.8079  0.8609
 9670SOL    HW229910   5.801   3.183   6.116  0.1978 -0.7676 -0.0271
 9671SOL     OW29911   5.661   2.658   0.458 -0.0891  0.4345 -0.1871
 9671SOL    HW129912   5.574   2.616   0.484 -0.9160  0.7649 -2.2280
 9671SOL    HW229913   5.668   2.749   0.500  0.9435 -0.9170  2.8549
 9672SOL     OW29914   1.647   1.323   4.508 -0.0111 -0.1994 -0.0049
 9672SOL    HW129915   1.688   1.258   4.572  1.6464  0.4321 -0.3779
 9672SOL    HW229916   1.698   1.409   4.510 -1.9560  1.0187  0.2439
 9673SOL     OW29917   4.495   2.636   6.268  0.1300 -0.6680  0.4669
 9673SOL    HW129918   4.464   2.551   6.310 -0.7804  0.1176  1.4440
 9673SOL    HW229919   4.433   2.660   6.193  0.0022 -0.5196  0.6213
 9674SOL     OW29920   2.695   6.862   3.961 -0.5668 -0.3197  0.6304
 9674SOL    HW129921   2.612   6.849   4.016 -1.5638  2.4078 -0.0959
 9674SOL    HW229922   2.772   6.882   4.022 -1.2901  0.9530  1.1704
 9675SOL     OW29923   0.440   0.719   0.123 -0.4909  0.2430 -0.6714
 9675SOL    HW129924   0.460   0.741   0.219 -2.1876  2.1303 -0.7092
 9675SOL    HW229925   0.351   0.674   0.117  0.3223 -1.3894 -1.2457
 9676SOL     OW29926   4.704   2.775   4.615 -0.0195  0.6370 -0.0029
 9676SOL    HW129927   4.792   2.785   4.568 -0.8664  1.4536 -1.4729
 9676SOL    HW229928   4.717   2.794   4.713  1.6932 -0.6739  0.0632
 9677SOL     OW29929   1.875   4.713   5.153  0.1194 -0.4482  0.1086
 9677SOL    HW129930   1.969   4.684   5.168  1.2747  2.6061 -0.3299
 9677SOL    HW229931   1.838   4.750   5.238 -0.3473 -0.7697  0.0467
 9678SOL     OW29932   3.430   4.128   3.143  0.2057 -0.0034 -0.5046
 9678SOL    HW129933   3.486   4.202   3.108  0.1757 -0.4972 -1.6625
 9678SOL    HW229934   3.397   4.150   3.234 -0.7006  1.8998 -1.2434
 9679SOL     OW29935   0.028   3.802   1.978 -0.6275  0.0695  0.0901
 9679SOL    HW129936  -0.008   3.847   2.061 -0.4447 -2.0895  1.4122
 9679SOL    HW229937   0.107   3.853   1.945  1.1460 -0.5294  3.0161
 9680SOL     OW29938   6.592   0.121   3.817  0.0948 -0.4167 -0.0886
 9680SOL    HW129939   6.523   0.074   3.762 -0.2711  0.1137 -0.0906
 9680SOL    HW229940   6.599   0.078   3.907  0.9628 -1.5270 -0.6624
 9681SOL     OW29941   1.866   0.243   4.158  0.1456 -0.2130  0.1465
 9681SOL    HW129942   1.855   0.215   4.254 -1.6971 -0.9369 -0.2323
 9681SOL    HW229943   1.839   0.339   4.148 -0.0602 -0.2551  0.2880
 9682SOL     OW29944   2.100   5.491   1.921  0.2349 -0.0009  0.3982
 9682SOL    HW129945   2.181   5.549   1.915 -1.0614  2.2177  2.6749
 9682SOL    HW229946   2.122   5.410   1.977  0.9923  0.3812  0.6761
 9683SOL     OW29947   4.155   6.183   4.100 -0.3733 -0.0966 -0.5977
 9683SOL    HW129948   4.239   6.208   4.052  0.7061  1.2690  1.8004
 9683SOL    HW229949   4.076   6.225   4.055  0.6073  1.2879 -1.0875
 9684SOL     OW29950   0.308   4.235   1.977  0.6083 -0.0429  0.5593
 9684SOL    HW129951   0.283   4.322   2.018 -0.7059 -1.3075  2.5779
 9684SOL    HW229952   0.381   4.250   1.910  0.0236  2.6484  0.4030
 9685SOL     OW29953   1.593   0.970   4.257  0.0966 -0.5054 -0.2103
 9685SOL    HW129954   1.591   0.990   4.355  0.5683  1.4469 -0.5619
 9685SOL    HW229955   1.501   0.948   4.225 -0.4735  1.1238  0.2465
 9686SOL     OW29956   5.341   3.914   3.264 -0.0243  0.4350 -0.2130
 9686SOL    HW129957   5.325   3.913   3.166  1.2822  2.7809 -0.5399
 9686SOL    HW229958   5.255   3.932   3.312 -0.2747  1.8861 -1.1418
 9687SOL     OW29959   2.576   1.764   5.136 -0.3830  0.7747  0.5924
 9687SOL    HW129960   2.492   1.739   5.184  0.3673 -2.2057  0.5430
 9687SOL    HW229961   2.655   1.726   5.184  0.6375  0.3824 -1.2830
 9688SOL     OW29962   5.415   3.565   3.352  0.4059 -0.3175  0.7151
 9688SOL    HW129963   5.482   3.635   3.374  0.9625 -0.2239 -1.0716
 9688SOL    HW229964   5.461   3.477   3.337  0.1049 -0.3646 -0.0242
 9689SOL     OW29965   2.161   5.381   5.448  0.6574  0.0530 -0.3145
 9689SOL    HW129966   2.148   5.466   5.397 -2.5028  0.1599  0.4271
 9689SOL    HW229967   2.094   5.313   5.417 -0.1118 -0.5059  2.2994
 9690SOL     OW29968   6.031   3.587   1.554  0.4581  0.1457 -0.1300
 9690SOL    HW129969   6.083   3.598   1.470  0.0693 -1.8953 -0.6763
 9690SOL    HW229970   6.089   3.612   1.632  1.1226  1.1434 -0.9148
 9691SOL     OW29971   0.058   3.953   0.363 -0.2432  0.1558 -0.4201
 9691SOL    HW129972   0.051   3.919   0.457 -2.1171  1.4435 -0.0304
 9691SOL    HW229973   0.008   3.892   0.301 -1.3002  0.7311 -0.1457
 9692SOL     OW29974   4.914   0.607   5.529  0.1848 -0.1732 -0.1539
 9692SOL    HW129975   4.850   0.622   5.604  1.2733  2.6789  0.3403
 9692SOL    HW229976   5.005   0.587   5.566  0.4158 -0.2682 -0.7583
 9693SOL     OW29977   5.134   5.514   2.681 -0.0975  0.0121  0.2032
 9693SOL    HW129978   5.203   5.442   2.692 -0.5933 -0.3183  1.3399
 9693SOL    HW229979   5.165   5.597   2.726  0.5563  0.5884 -1.2724
 9694SOL     OW29980   0.735   1.128   5.177 -0.6603  0.2959  0.0380
 9694SOL    HW129981   0.787   1.078   5.245  0.5046  1.1805 -0.1703
 9694SOL    HW229982   0.667   1.067   5.136 -0.3677 -0.6532  0.9168
 9695SOL     OW29983   6.133   3.979   6.549 -0.3858  0.4262 -0.2214
 9695SOL    HW129984   6.106   4.018   6.462  0.3945 -0.4830 -0.8948
 9695SOL    HW229985   6.144   3.880   6.539 -0.1029  0.3339  0.8567
 9696SOL     OW29986   3.417   4.339   6.706  0.2353  0.4465 -0.2142
 9696SOL    HW129987   3.369   4.396   6.639  1.8306  1.2100 -0.7527
 9696SOL    HW229988   3.404   4.377   6.798  0.2924  0.9660 -0.4208
 9697SOL     OW29989   1.164   5.425   0.202 -0.2677 -0.3330  0.0019
 9697SOL    HW129990   1.169   5.510   0.149  3.5657 -0.8374 -0.7360
 9697SOL    HW229991   1.214   5.436   0.288 -0.9491 -1.4106  0.5563
 9698SOL     OW29992   4.755   2.218   4.594 -0.1156  0.5905 -0.5490
 9698SOL    HW129993   4.816   2.142   4.617 -0.4027 -0.1277 -2.0624
 9698SOL    HW229994   4.675   2.215   4.653  0.3332  0.3094  0.0594
 9699SOL     OW29995   1.588   0.312   5.394  0.1787  0.2423 -0.1921
 9699SOL    HW129996   1.594   0.245   5.320  1.1144  0.5621 -0.4208
 9699SOL    HW229997   1.582   0.264   5.482 -0.2076 -0.1343 -0.4166
 9700SOL     OW29998   3.725   2.951   2.958 -0.5075 -0.1933  0.3081
 9700SOL    HW129999   3.814   2.997   2.956 -0.6903  0.1767 -1.6458
 9700SOL    HW230000   3.709   2.907   2.870 -1.8525 -1.0895  0.9735
 9701SOL     OW30001   2.960   5.501   2.312 -0.0672  0.1757  0.4555
 9701SOL    HW130002   2.956   5.490   2.212 -2.0640  1.3142  0.3709
 9701SOL    HW230003   2.869   5.486   2.351  0.5781  0.2571  2.0630
 9702SOL     OW30004   5.247   0.486   5.638 -0.2038  0.0694  0.4235
 9702SOL    HW130005   5.231   0.387   5.642 -0.2501 -0.0282 -1.5929
 9702SOL    HW230006   5.235   0.519   5.545  0.3097  1.9155  0.9610
 9703SOL     OW30007   0.788   4.844   3.301 -0.2969 -0.0759 -0.0311
 9703SOL    HW130008   0.837   4.775   3.354  0.3275  0.7776  0.5345
 9703SOL    HW230009   0.711   4.880   3.354 -2.0734 -1.9446 -1.1961
 9704SOL     OW30010   3.908   0.118   3.783 -0.1626 -0.0965 -0.2018
 9704SOL    HW130011   3.990   0.065   3.804  0.4243  1.3973  1.6263
 9704SOL    HW230012   3.931   0.215   3.781 -2.0750  0.5115  1.8300
 9705SOL     OW30013   2.290   4.649   0.667 -0.7650  0.1374 -0.2521
 9705SOL    HW130014   2.205   4.657   0.615  0.6658  1.4726 -2.5719
 9705SOL    HW230015   2.338   4.737   0.667  2.2472 -1.3167 -2.0750
 9706SOL     OW30016   5.966   3.044   4.476 -0.0121 -0.4092  0.0095
 9706SOL    HW130017   5.940   3.109   4.547  0.7131  0.8072 -0.7960
 9706SOL    HW230018   5.931   2.954   4.498  0.1030 -0.0318  1.8472
 9707SOL     OW30019   2.911   5.935   0.579 -0.5457 -0.6136 -0.3076
 9707SOL    HW130020   2.916   5.884   0.665 -0.2245  0.5041  0.3567
 9707SOL    HW230021   3.000   5.976   0.560 -0.5009 -1.1804 -1.3970
 9708SOL     OW30022   1.912   0.769   3.297 -0.5126 -0.4134  0.7909
 9708SOL    HW130023   1.893   0.695   3.361 -3.8277  0.4340  0.9835
 9708SOL    HW230024   1.915   0.856   3.347  0.4290 -0.1012  0.2116
 9709SOL     OW30025   0.869   6.257   3.614  0.0615 -0.1543  0.1499
 9709SOL    HW130026   0.778   6.283   3.645  0.9238  1.1800  1.7495
 9709SOL    HW230027   0.909   6.333   3.561  0.5218 -0.4003  0.1381
 9710SOL     OW30028   6.270   5.937   3.935 -0.1460  0.4409  0.0078
 9710SOL    HW130029   6.282   5.919   4.033  1.0873  1.1436  0.0054
 9710SOL    HW230030   6.198   5.877   3.899  0.9092 -1.4477  0.8696
 9711SOL     OW30031   6.835   2.568   3.948 -0.8448 -0.0399  0.2989
 9711SOL    HW130032   6.923   2.609   3.972 -0.1554  0.3281 -2.4170
 9711SOL    HW230033   6.840   2.469   3.957  0.2008 -0.0979 -0.6410
 9712SOL     OW30034   5.787   4.320   4.674  0.3717 -0.1319 -0.2811
 9712SOL    HW130035   5.695   4.329   4.635  0.8282  0.0682 -1.3450
 9712SOL    HW230036   5.810   4.223   4.684  0.6317 -0.2107 -1.4877
 9713SOL     OW30037   0.340   1.021   4.476 -0.5484  0.0431  0.9333
 9713SOL    HW130038   0.440   1.023   4.488 -0.1706 -3.6791 -0.1684
 9713SOL    HW230039   0.296   1.014   4.565 -0.0663  3.4580  1.5689
 9714SOL     OW30040   3.050   0.956   1.468 -0.3927  0.1878 -0.1994
 9714SOL    HW130041   3.015   0.947   1.375 -0.0785  2.9442 -0.6840
 9714SOL    HW230042   2.975   0.985   1.528 -0.2147  0.1529  0.0390
 9715SOL     OW30043   4.192   3.824   6.390  0.5134 -0.2564  0.2764
 9715SOL    HW130044   4.188   3.751   6.459  1.2191  0.4785  1.1118
 9715SOL    HW230045   4.149   3.792   6.306 -1.4020 -0.7921  1.3990
 9716SOL     OW30046   1.501   1.019   5.185 -0.1480 -0.1333 -0.1476
 9716SOL    HW130047   1.584   0.985   5.140 -0.8337  1.3044 -2.6403
 9716SOL    HW230048   1.527   1.066   5.269  1.5958  0.3905 -0.9213
 9717SOL     OW30049   5.713   5.984   3.550 -0.0047 -0.0754  0.3453
 9717SOL    HW130050   5.652   5.923   3.499  0.7654  0.1073 -0.8428
 9717SOL    HW230051   5.806   5.945   3.550  0.2280  0.4667  0.6918
 9718SOL     OW30052   6.536   2.015   3.230 -0.5337 -0.6222  0.4670
 9718SOL    HW130053   6.572   1.930   3.193 -0.2991 -0.3083 -0.0343
 9718SOL    HW230054   6.589   2.041   3.311  1.0630  0.3648 -0.8492
 9719SOL     OW30055   0.018   2.042   5.957  0.4791  0.0590 -1.1041
 9719SOL    HW130056   0.075   2.109   6.004  0.3992 -0.5092 -0.1800
 9719SOL    HW230057  -0.003   2.075   5.865  1.1897  0.8791 -0.9825
 9720SOL     OW30058   0.320   3.781   0.459  0.1948  0.4629  0.3459
 9720SOL    HW130059   0.353   3.868   0.423  1.2964  0.5170  1.4405
 9720SOL    HW230060   0.325   3.711   0.387 -0.5589  1.2488 -0.4948
 9721SOL     OW30061   0.533   1.102   2.901  0.1136 -0.4195  1.0320
 9721SOL    HW130062   0.486   1.060   2.825  0.0258  0.2155  0.7252
 9721SOL    HW230063   0.527   1.044   2.982  0.5191 -1.2660  0.4629
 9722SOL     OW30064   0.351   0.162   4.142 -0.6536 -0.4827  0.0065
 9722SOL    HW130065   0.290   0.111   4.081  0.0560 -0.2899 -0.8842
 9722SOL    HW230066   0.445   0.153   4.110 -0.3791  0.3904  0.5390
 9723SOL     OW30067   6.516   1.937   4.738  0.2064 -0.4078 -0.1350
 9723SOL    HW130068   6.472   2.017   4.779  0.9454 -0.1874  0.2276
 9723SOL    HW230069   6.453   1.896   4.672 -1.3121 -1.2097  1.7285
 9724SOL     OW30070   3.022   2.900   0.995  0.7126  0.3972  0.1378
 9724SOL    HW130071   3.017   2.914   1.094 -2.2053  2.1502 -0.1380
 9724SOL    HW230072   3.078   2.971   0.953  1.8905 -0.3044  0.4938
 9725SOL     OW30073   3.340   3.736   5.774  0.0667 -0.1916 -0.3316
 9725SOL    HW130074   3.310   3.737   5.679 -0.5136  0.9301 -0.1576
 9725SOL    HW230075   3.269   3.697   5.832 -0.6697  1.4343 -0.0651
 9726SOL     OW30076   4.905   6.073   5.181 -0.3381 -0.1569 -0.0763
 9726SOL    HW130077   4.900   6.108   5.087 -1.8167  0.4730  0.2183
 9726SOL    HW230078   4.890   6.148   5.245 -0.0007 -0.7120  0.6650
 9727SOL     OW30079   0.388   1.091   6.675 -0.0303 -0.0971 -0.0480
 9727SOL    HW130080   0.356   1.021   6.612  0.4880 -0.4330  0.0568
 9727SOL    HW230081   0.470   1.134   6.638  1.2799 -1.4471  1.1298
 9728SOL     OW30082   4.415   4.709   6.132 -0.5997  0.0808 -0.1592
 9728SOL    HW130083   4.412   4.689   6.035 -2.4037  0.0895 -0.1355
 9728SOL    HW230084   4.358   4.645   6.182  1.5145 -0.9094  1.1264
 9729SOL     OW30085   2.675   5.534   2.610 -0.1963  0.1916 -0.3271
 9729SOL    HW130086   2.687   5.484   2.524  0.3690  0.8704 -0.6496
 9729SOL    HW230087   2.634   5.473   2.678 -0.2257 -0.4872 -0.9376
 9730SOL     OW30088   6.422   5.104   2.407  0.2416 -0.6409 -0.2342
 9730SOL    HW130089   6.479   5.089   2.326  0.6653 -0.7312  0.0766
 9730SOL    HW230090   6.328   5.076   2.388  0.2732 -0.3855 -0.7916
 9731SOL     OW30091   4.685   3.441   1.052 -0.5779 -0.3621  0.6597
 9731SOL    HW130092   4.685   3.384   1.134 -0.0260  0.7837  1.4650
 9731SOL    HW230093   4.749   3.517   1.063  1.7970 -1.7781 -1.9571
 9732SOL     OW30094   5.507   6.806   5.602 -0.1522  0.1176 -0.2306
 9732SOL    HW130095   5.428   6.865   5.617  0.1803  0.4032  0.4428
 9732SOL    HW230096   5.585   6.861   5.571 -0.4704 -0.2921 -1.8614
 9733SOL     OW30097   5.794   5.233   5.379  0.2551  0.0744  0.3742
 9733SOL    HW130098   5.846   5.305   5.334  2.3439  0.0401  2.5286
 9733SOL    HW230099   5.810   5.146   5.332  1.1356  0.2999  0.2385
 9734SOL     OW30100   0.628   2.989   6.284  0.3677  0.5273 -0.2781
 9734SOL    HW130101   0.563   2.914   6.274 -0.6602  1.2116  0.9048
 9734SOL    HW230102   0.710   2.970   6.230 -0.1280 -1.1345 -0.5017
 9735SOL     OW30103   1.432   4.553   0.978 -0.2923  0.5665 -0.4830
 9735SOL    HW130104   1.468   4.626   0.919 -0.2053  0.7935 -0.1526
 9735SOL    HW230105   1.378   4.490   0.923 -1.5059  1.6248 -0.5574
 9736SOL     OW30106   5.234   1.527   3.343 -0.0954 -0.1725 -0.8813
 9736SOL    HW130107   5.268   1.620   3.341 -1.8558  0.5122 -0.5376
 9736SOL    HW230108   5.282   1.472   3.274  1.8142  0.6392 -0.2441
 9737SOL     OW30109   4.258   1.386   3.393 -0.6580  0.6305 -0.0414
 9737SOL    HW130110   4.225   1.307   3.340 -0.9858 -0.2324  1.3805
 9737SOL    HW230111   4.279   1.461   3.331  0.8356 -0.9556 -1.6011
 9738SOL     OW30112   3.153   0.839   2.470 -0.1966  0.0625 -0.6862
 9738SOL    HW130113   3.172   0.741   2.456  1.3502  0.3746 -0.9609
 9738SOL    HW230114   3.222   0.878   2.530 -1.4341  0.7807  0.3133
 9739SOL     OW30115   3.583   5.708   2.168 -0.0100 -0.3384  0.3457
 9739SOL    HW130116   3.630   5.789   2.134  0.3610 -1.5625 -2.3762
 9739SOL    HW230117   3.485   5.717   2.151  0.2507 -1.3051 -2.2112
 9740SOL     OW30118   0.989   4.251   2.804  0.0084  0.0396 -0.2329
 9740SOL    HW130119   0.986   4.351   2.814  0.4017 -0.0424  0.8162
 9740SOL    HW230120   1.082   4.219   2.825 -0.7292 -0.7856  2.1378
 9741SOL     OW30121   4.912   6.827   2.678 -0.3600 -0.0837 -0.3748
 9741SOL    HW130122   4.906   6.842   2.580  0.7014 -1.7623 -0.7261
 9741SOL    HW230123   4.827   6.784   2.710 -0.6450  0.3222 -0.5771
 9742SOL     OW30124   3.979   6.648   3.514  0.2097 -0.2356  0.5554
 9742SOL    HW130125   3.894   6.698   3.528  0.1299 -0.4864  0.9671
 9742SOL    HW230126   4.018   6.673   3.426 -0.4970 -0.4248  0.1825
 9743SOL     OW30127   6.157   1.341   4.728  0.3363  0.2496 -0.1563
 9743SOL    HW130128   6.157   1.242   4.723 -1.2128  0.0286  2.4384
 9743SOL    HW230129   6.087   1.372   4.794  2.6073  2.8942  1.2690
 9744SOL     OW30130   2.258   1.281   1.029  0.0677  0.1507 -0.4263
 9744SOL    HW130131   2.185   1.242   1.085 -0.3332  1.1980 -0.2072
 9744SOL    HW230132   2.341   1.225   1.039 -0.4531 -0.5739 -0.0381
 9745SOL     OW30133   0.572   2.692   4.648 -0.6803  0.0226  0.0615
 9745SOL    HW130134   0.646   2.708   4.713  0.6833  3.5291 -2.0690
 9745SOL    HW230135   0.489   2.737   4.680 -0.7878 -0.5486  0.5986
 9746SOL     OW30136   1.528   5.938   7.004 -0.3953  0.3988 -0.0585
 9746SOL    HW130137   1.566   6.022   7.041 -1.7624  1.0626 -0.1067
 9746SOL    HW230138   1.442   5.917   7.050  0.0128 -1.0766  0.0755
 9747SOL     OW30139   1.092   6.859   5.036 -0.4003  0.3488  0.2901
 9747SOL    HW130140   1.143   6.834   5.119 -0.8500  1.5981  0.9660
 9747SOL    HW230141   1.152   6.849   4.956  0.6295  0.9041  0.9676
 9748SOL     OW30142   2.815   4.779   3.528 -0.1151  0.4933 -0.4144
 9748SOL    HW130143   2.767   4.706   3.576  0.6020  0.8718  0.9073
 9748SOL    HW230144   2.765   4.865   3.538 -0.3565  0.4310 -1.0061
 9749SOL     OW30145   0.974   4.817   4.713  0.7121  0.4404 -0.3196
 9749SOL    HW130146   1.033   4.885   4.758 -0.7934  0.2228  2.1776
 9749SOL    HW230147   0.878   4.841   4.729  0.1411 -1.4420 -0.7021
 9750SOL     OW30148   4.221   6.222   1.267  0.3576  0.4709  0.7376
 9750SOL    HW130149   4.175   6.143   1.226  1.1425  0.6038 -0.4693
 9750SOL    HW230150   4.296   6.191   1.325  0.6445  0.3088  0.2897
 9751SOL     OW30151   1.085   2.063   0.061  0.1241 -0.3672 -0.1797
 9751SOL    HW130152   1.158   2.054   0.130 -0.7310  1.4120  1.0318
 9751SOL    HW230153   1.006   2.009   0.090  0.3359 -0.9470 -0.6475
 9752SOL     OW30154   3.219   6.925   5.341  0.0960 -0.5169 -0.0636
 9752SOL    HW130155   3.249   6.918   5.436  1.0728  0.0086 -0.3165
 9752SOL    HW230156   3.196   7.021   5.320 -1.5185 -0.8584  0.0363
 9753SOL     OW30157   0.113   0.542   5.571 -0.0100 -0.1669  0.0631
 9753SOL    HW130158   0.212   0.529   5.576  0.2223  1.0070 -0.8998
 9753SOL    HW230159   0.088   0.626   5.619 -0.3658  0.1975 -0.7389
 9754SOL     OW30160   0.963   2.855   5.493 -0.0766 -0.3143 -0.0560
 9754SOL    HW130161   1.043   2.908   5.521  0.2089 -0.3946 -0.7108
 9754SOL    HW230162   0.941   2.788   5.563  0.0370  0.1423  0.4220
 9755SOL     OW30163   4.134   6.697   4.666 -0.6681 -0.6353 -0.3558
 9755SOL    HW130164   4.234   6.693   4.665 -0.6581 -1.7757  1.2986
 9755SOL    HW230165   4.105   6.793   4.677  0.2768 -0.3945  0.1751
 9756SOL     OW30166   2.354   1.153   6.015 -1.0022  0.2831  0.5635
 9756SOL    HW130167   2.274   1.096   5.994 -1.3768  0.9645  0.1232
 9756SOL    HW230168   2.428   1.132   5.951 -1.8758  1.8086 -1.0194
 9757SOL     OW30169   6.477   1.943   2.578  0.0543  0.0896 -0.0148
 9757SOL    HW130170   6.475   1.845   2.592 -2.0626 -0.0082 -0.6548
 9757SOL    HW230171   6.416   1.988   2.644 -0.6213  0.7436 -1.0550
 9758SOL     OW30172   4.639   0.826   2.349  0.6818  0.1540 -0.0634
 9758SOL    HW130173   4.607   0.782   2.265 -0.7759 -2.9900  1.9564
 9758SOL    HW230174   4.578   0.901   2.372 -0.7356 -0.8869 -0.2980
 9759SOL     OW30175   3.691   6.762   2.303  0.0930 -0.2576  0.2667
 9759SOL    HW130176   3.649   6.853   2.294  1.1186  0.2662  0.6221
 9759SOL    HW230177   3.790   6.770   2.296  0.0909 -1.7359 -2.5475
 9760SOL     OW30178   4.550   4.856   3.227 -0.9467 -0.0724 -0.1928
 9760SOL    HW130179   4.537   4.904   3.314 -0.8431  0.2655 -0.3658
 9760SOL    HW230180   4.475   4.877   3.165 -0.8720 -0.0882 -0.2893
 9761SOL     OW30181   6.396   4.862   3.342  0.2919 -0.1326 -0.3024
 9761SOL    HW130182   6.303   4.897   3.343  0.2783 -0.1573 -0.5858
 9761SOL    HW230183   6.412   4.812   3.257 -0.1633 -2.1149  0.7068
 9762SOL     OW30184   4.602   1.707   1.532  0.1912 -0.3201 -0.1423
 9762SOL    HW130185   4.538   1.669   1.599 -0.8383  0.2991 -0.7373
 9762SOL    HW230186   4.566   1.691   1.440  2.8427 -3.5217 -0.7925
 9763SOL     OW30187   2.524   2.534   2.228  0.4091  0.7537 -0.1531
 9763SOL    HW130188   2.592   2.556   2.297 -0.4321 -1.7539  1.6154
 9763SOL    HW230189   2.564   2.472   2.160  0.2579  0.3068  0.1615
 9764SOL     OW30190   0.631   2.924   3.842 -0.9545 -0.1169 -0.4662
 9764SOL    HW130191   0.642   2.985   3.920 -1.8489  3.5022 -2.9343
 9764SOL    HW230192   0.716   2.920   3.790 -0.5852 -1.9248  0.2011
 9765SOL     OW30193   2.379   1.446   6.435 -0.2531  0.3258 -0.0357
 9765SOL    HW130194   2.474   1.465   6.411  0.1999  0.3781  1.6324
 9765SOL    HW230195   2.319   1.513   6.392  0.4001  0.0276 -1.4660
 9766SOL     OW30196   3.805   0.562   1.521 -0.5473 -0.0501 -0.2495
 9766SOL    HW130197   3.731   0.574   1.586  0.0178 -1.6998  0.7539
 9766SOL    HW230198   3.881   0.623   1.546 -0.5876 -0.1977  0.2384
 9767SOL     OW30199   6.295   1.998   5.237  0.1033  0.3289  0.4063
 9767SOL    HW130200   6.284   1.996   5.137  0.4447 -0.0627  0.3745
 9767SOL    HW230201   6.383   1.957   5.262  1.1328  2.5575  0.7075
 9768SOL     OW30202   4.323   1.420   3.645 -0.1586  0.4091  0.5696
 9768SOL    HW130203   4.275   1.402   3.559 -0.8535 -0.2369  1.0859
 9768SOL    HW230204   4.274   1.377   3.721  1.9760 -1.5563  0.9509
 9769SOL     OW30205   0.194   3.483   5.121  0.6845  0.2704 -0.2743
 9769SOL    HW130206   0.097   3.462   5.110  0.8167 -0.2562 -0.4591
 9769SOL    HW230207   0.238   3.484   5.031  0.9392  0.0679 -0.1525
 9770SOL     OW30208   5.450   2.805   4.796  0.2459  0.6277 -0.0720
 9770SOL    HW130209   5.365   2.757   4.816  0.8233  0.0985  1.2848
 9770SOL    HW230210   5.494   2.764   4.716  0.8761 -1.3921  1.2332
 9771SOL     OW30211   3.416   4.973   4.888  0.3861 -1.0633  0.1018
 9771SOL    HW130212   3.454   5.052   4.839 -0.4652 -1.6831 -1.6523
 9771SOL    HW230213   3.437   4.981   4.985  0.8231  1.0216 -0.1074
 9772SOL     OW30214   4.234   5.013   2.473  0.2870  0.1046 -0.1409
 9772SOL    HW130215   4.167   5.083   2.495  0.5316  0.2561  0.1345
 9772SOL    HW230216   4.236   4.998   2.374  0.1839  0.4384 -0.1940
 9773SOL     OW30217   6.934   5.495   3.995  0.1044 -0.8014 -0.1034
 9773SOL    HW130218   6.890   5.465   3.910  1.6142 -0.5413 -1.0177
 9773SOL    HW230219   6.959   5.415   4.050  1.0111 -1.0908 -0.9144
 9774SOL     OW30220   5.476   6.544   3.842  0.1313 -0.0576  0.3456
 9774SOL    HW130221   5.473   6.468   3.907 -0.2066 -1.4295 -1.2049
 9774SOL    HW230222   5.509   6.511   3.753  0.0857  1.6410 -0.3481
 9775SOL     OW30223   3.647   0.953   4.787  0.1233 -0.1254 -0.1626
 9775SOL    HW130224   3.592   0.933   4.869  0.6173 -0.9940 -0.0232
 9775SOL    HW230225   3.719   1.018   4.810  0.2203 -0.3179  0.0871
 9776SOL     OW30226   0.521   4.694   6.194 -0.4676  0.2924  0.2299
 9776SOL    HW130227   0.611   4.729   6.171 -0.8702  0.6565 -0.8361
 9776SOL    HW230228   0.530   4.617   6.258  0.6252 -0.1046 -0.3900
 9777SOL     OW30229   6.122   5.843   1.326 -0.4609  0.4775  0.2353
 9777SOL    HW130230   6.189   5.901   1.373 -0.1371  0.0694  0.2826
 9777SOL    HW230231   6.148   5.747   1.337 -0.2675  0.3774 -0.9577
 9778SOL     OW30232   1.519   0.995   3.646  0.0551  0.0072  0.0829
 9778SOL    HW130233   1.466   0.910   3.640  0.6092 -0.4266  1.0882
 9778SOL    HW230234   1.473   1.059   3.707 -0.5887  0.6154 -1.0187
 9779SOL     OW30235   3.035   1.728   0.179  0.5368 -0.5348 -0.0368
 9779SOL    HW130236   3.100   1.803   0.165  0.1229 -0.2060 -0.2198
 9779SOL    HW230237   3.083   1.650   0.221  0.7423  0.2059  1.1375
 9780SOL     OW30238   2.385   2.365   1.636  0.2555 -0.3915 -0.2492
 9780SOL    HW130239   2.373   2.366   1.537 -0.1641 -2.0987 -0.2426
 9780SOL    HW230240   2.412   2.456   1.667  0.1024  0.2439 -1.8843
 9781SOL     OW30241   5.668   6.899   6.139  0.1846 -0.1933  0.0371
 9781SOL    HW130242   5.739   6.952   6.186  0.6067 -0.3514 -0.4104
 9781SOL    HW230243   5.651   6.937   6.049 -0.0303 -0.3812 -0.0035
 9782SOL     OW30244   6.350   6.994   0.256  0.3397 -0.3493  0.0873
 9782SOL    HW130245   6.416   6.937   0.304 -1.3892 -2.8609 -0.3143
 9782SOL    HW230246   6.397   7.048   0.186  2.0653 -1.4483  0.3342
 9783SOL     OW30247   0.140   1.190   4.113  0.2693 -0.3910  0.5058
 9783SOL    HW130248   0.216   1.143   4.069  0.5932  0.3718  0.2553
 9783SOL    HW230249   0.090   1.243   4.045 -0.0998 -0.3688  0.7935
 9784SOL     OW30250   6.217   1.846   6.191  0.1337 -0.1195 -0.0424
 9784SOL    HW130251   6.120   1.826   6.177 -0.4504  0.6388  2.3424
 9784SOL    HW230252   6.271   1.765   6.172 -1.2626 -1.3574  0.9880
 9785SOL     OW30253   1.549   2.528   1.161 -0.1796  0.1793 -0.1122
 9785SOL    HW130254   1.605   2.594   1.112 -1.4831  0.4751 -1.2643
 9785SOL    HW230255   1.607   2.460   1.204  1.0206 -0.4857 -2.6324
 9786SOL     OW30256   2.254   0.990   1.882  0.1254  0.2580  0.1046
 9786SOL    HW130257   2.160   0.956   1.874  0.4564 -0.5714 -0.3873
 9786SOL    HW230258   2.279   1.038   1.799  0.3370 -0.0420 -0.0059
 9787SOL     OW30259   5.977   3.052   1.883  0.8285 -0.2638 -0.1374
 9787SOL    HW130260   5.926   3.103   1.813 -1.0701 -0.9223  0.6800
 9787SOL    HW230261   5.922   3.047   1.966  2.5120 -0.5645  1.0068
 9788SOL     OW30262   6.526   0.682   4.132  0.9567 -0.2086  0.3314
 9788SOL    HW130263   6.610   0.695   4.079  0.3507  2.2621 -0.1485
 9788SOL    HW230264   6.517   0.756   4.199 -1.1265 -0.0338 -0.0732
 9789SOL     OW30265   1.866   3.510   5.549  0.0623 -0.5945  0.0097
 9789SOL    HW130266   1.887   3.528   5.453  1.1552  0.1460  0.3663
 9789SOL    HW230267   1.796   3.439   5.555  0.9735 -1.6485 -1.3075
 9790SOL     OW30268   5.682   1.658   5.103 -0.4389  0.2412 -0.4073
 9790SOL    HW130269   5.619   1.583   5.123 -1.1650  0.2097 -2.5189
 9790SOL    HW230270   5.634   1.745   5.107  0.0234  0.4651  0.4969
 9791SOL     OW30271   0.161   2.516   0.082  0.0947  0.1557  0.4298
 9791SOL    HW130272   0.064   2.534   0.094  0.0120  0.8215 -0.9975
 9791SOL    HW230273   0.174   2.419   0.060 -0.2962  0.1484  0.2195
 9792SOL     OW30274   5.512   6.477   2.325  0.1009 -0.4066  0.1447
 9792SOL    HW130275   5.536   6.476   2.422 -0.0597 -1.0575  0.1827
 9792SOL    HW230276   5.470   6.389   2.300 -1.4256  0.3518 -0.1133
 9793SOL     OW30277   4.802   4.736   1.292  0.4923 -0.1882 -0.2889
 9793SOL    HW130278   4.768   4.752   1.385 -0.3507  1.3049 -0.8203
 9793SOL    HW230279   4.752   4.661   1.251  2.0313 -2.0295  1.0101
 9794SOL     OW30280   1.769   4.972   0.292 -0.5649 -0.5716  0.4274
 9794SOL    HW130281   1.742   4.884   0.252 -1.8835 -1.0822  2.3225
 9794SOL    HW230282   1.695   5.038   0.284  0.1066  0.1324 -0.2180
 9795SOL     OW30283   2.120   3.743   2.418 -0.1481 -0.0552  0.1384
 9795SOL    HW130284   2.148   3.701   2.332  0.3467  1.0513 -0.2654
 9795SOL    HW230285   2.021   3.739   2.427 -0.3118  0.8381 -1.0484
 9796SOL     OW30286   4.200   5.491   5.747 -0.0785 -0.6334  0.0710
 9796SOL    HW130287   4.286   5.524   5.785 -0.1881  1.6926 -1.5090
 9796SOL    HW230288   4.145   5.450   5.819  2.4237 -2.4425  1.0642
 9797SOL     OW30289   0.339   5.749   5.607 -0.6034  0.1601  0.5354
 9797SOL    HW130290   0.338   5.681   5.534  1.6035  0.7976 -0.1440
 9797SOL    HW230291   0.343   5.703   5.696  1.4252 -0.6498  0.0659
 9798SOL     OW30292   2.073   1.799   1.371  0.0308  0.3295  0.2802
 9798SOL    HW130293   2.106   1.832   1.460 -2.3183  1.3604  0.8429
 9798SOL    HW230294   2.149   1.760   1.320  1.8942  1.7108  1.8444
 9799SOL     OW30295   2.600   3.032   1.345 -0.2752 -0.2071 -0.0642
 9799SOL    HW130296   2.643   3.121   1.332 -2.2753  0.7253 -0.7509
 9799SOL    HW230297   2.589   3.013   1.442  0.2947  0.2109  0.0855
 9800SOL     OW30298   4.664   4.819   1.519 -0.6041  0.2784 -0.8193
 9800SOL    HW130299   4.594   4.883   1.488 -0.1960  0.3919 -1.5473
 9800SOL    HW230300   4.626   4.758   1.588 -1.2031  0.8330 -0.6505
 9801SOL     OW30301   4.620   6.078   2.594  0.0702  0.0205  0.4426
 9801SOL    HW130302   4.546   6.102   2.531 -1.7214  0.3485  2.5275
 9801SOL    HW230303   4.632   5.978   2.595  0.4942  0.0447 -0.7630
 9802SOL     OW30304   1.058   6.117   4.626  0.0859  0.0254 -0.9243
 9802SOL    HW130305   1.050   6.216   4.616 -0.6580 -0.1136 -1.8793
 9802SOL    HW230306   1.091   6.095   4.717 -0.3522  1.1191 -0.4866
 9803SOL     OW30307   5.095   0.470   5.077 -0.3895 -0.6129  0.5769
 9803SOL    HW130308   5.184   0.436   5.047  0.3230  0.0587  1.8459
 9803SOL    HW230309   5.063   0.541   5.015  0.6811  0.2101  0.9521
 9804SOL     OW30310   5.506   5.158   4.324  0.2237 -0.4052  0.3879
 9804SOL    HW130311   5.595   5.125   4.354 -0.0264 -0.8216  0.6775
 9804SOL    HW230312   5.434   5.112   4.375 -0.2035 -0.8336 -0.5752
 9805SOL     OW30313   1.182   6.536   1.527 -0.1117  0.0586 -0.4050
 9805SOL    HW130314   1.250   6.590   1.478 -0.2750 -0.3868 -1.1249
 9805SOL    HW230315   1.209   6.528   1.623  0.4451  0.5403 -0.5162
 9806SOL     OW30316   0.968   1.840   5.684  0.4711  0.3308  0.3662
 9806SOL    HW130317   0.894   1.772   5.692  0.2620  0.3999 -0.7565
 9806SOL    HW230318   0.929   1.929   5.661  0.5787  1.2936  3.5203
 9807SOL     OW30319   0.452   2.880   0.111 -0.2458  0.2784 -0.7357
 9807SOL    HW130320   0.355   2.856   0.114  0.1981 -1.7023 -1.1397
 9807SOL    HW230321   0.486   2.868   0.018  0.3587  1.1583 -0.6359
 9808SOL     OW30322   2.733   1.359   2.749 -0.0851 -0.0317 -0.3449
 9808SOL    HW130323   2.684   1.382   2.664  2.4536  0.3790 -1.7979
 9808SOL    HW230324   2.817   1.310   2.726  1.4310  1.4143  1.8513
 9809SOL     OW30325   6.219   0.416   4.125  0.5046 -0.1751  0.1797
 9809SOL    HW130326   6.304   0.422   4.176  0.7250  0.4382 -0.2449
 9809SOL    HW230327   6.200   0.504   4.082 -1.8177  0.5872  2.5495
 9810SOL     OW30328   6.413   3.668   2.737  0.2856 -0.0472  0.2599
 9810SOL    HW130329   6.356   3.666   2.820 -0.0859  2.1873  0.1230
 9810SOL    HW230330   6.508   3.683   2.763  0.5805 -1.8669  0.3750
 9811SOL     OW30331   0.229   6.103   3.370  0.1884  0.0744 -0.1049
 9811SOL    HW130332   0.307   6.094   3.433 -0.2193 -1.3595  0.2312
 9811SOL    HW230333   0.145   6.074   3.416 -0.7700  2.5149 -0.1420
 9812SOL     OW30334   6.520   2.746   6.731 -0.3760  0.5030  0.5221
 9812SOL    HW130335   6.610   2.733   6.773 -0.1741  0.7103  0.1618
 9812SOL    HW230336   6.466   2.662   6.740 -0.3955  0.5885  1.3229
 9813SOL     OW30337   5.929   3.246   0.784  0.1762  0.3768 -0.1270
 9813SOL    HW130338   5.962   3.217   0.874 -0.2443  0.8699  0.1914
 9813SOL    HW230339   5.829   3.253   0.786  0.1733  0.5028 -0.6001
 9814SOL     OW30340   1.698   6.688   6.141  0.1901  0.3350  0.7719
 9814SOL    HW130341   1.611   6.651   6.174  0.0432 -0.5080 -0.4910
 9814SOL    HW230342   1.774   6.641   6.187 -0.0184  0.1317  0.9099
 9815SOL     OW30343   0.821   5.294   1.980  0.2747  0.3066  0.7110
 9815SOL    HW130344   0.821   5.273   1.882  1.0734 -0.0390  0.7698
 9815SOL    HW230345   0.733   5.270   2.019 -0.7837  2.3372 -0.2913
 9816SOL     OW30346   6.561   1.359   5.082 -0.1271  0.1509  0.3308
 9816SOL    HW130347   6.484   1.392   5.028  1.2643  1.3651 -0.9759
 9816SOL    HW230348   6.532   1.278   5.134 -2.2103  0.4619 -0.2463
 9817SOL     OW30349   0.589   3.576   0.784  0.7560 -0.1811 -0.2948
 9817SOL    HW130350   0.581   3.651   0.850  1.1663  0.5912 -1.1089
 9817SOL    HW230351   0.524   3.504   0.808  0.7429  0.1867  0.8183
 9818SOL     OW30352   1.039   0.478   2.469  0.4109 -0.6001 -0.6092
 9818SOL    HW130353   1.104   0.551   2.491 -1.4200  0.2643  2.3602
 9818SOL    HW230354   1.088   0.391   2.465  1.9826  0.2110 -0.0019
 9819SOL     OW30355   5.417   0.665   6.446 -0.7440 -0.7411 -0.7918
 9819SOL    HW130356   5.318   0.653   6.439 -0.6143 -1.6328 -1.3610
 9819SOL    HW230357   5.447   0.637   6.537 -0.8955 -1.5338 -0.9705
 9820SOL     OW30358   2.782   6.993   6.167  0.1259  0.2434 -0.4248
 9820SOL    HW130359   2.761   6.954   6.256 -0.0047 -1.4457 -1.1653
 9820SOL    HW230360   2.710   7.058   6.142  0.3849  1.0641  0.8599
 9821SOL     OW30361   4.972   3.875   5.579  0.0744  0.2953 -0.6539
 9821SOL    HW130362   5.022   3.806   5.526 -0.6107 -0.4826 -0.2992
 9821SOL    HW230363   4.940   3.947   5.517  0.7899  0.3053 -1.0264
 9822SOL     OW30364   2.816   6.416   4.490  1.1731 -0.1316  0.4903
 9822SOL    HW130365   2.765   6.500   4.509  0.5697 -0.0858 -1.1163
 9822SOL    HW230366   2.784   6.377   4.403  1.5033 -1.9826  1.1557
 9823SOL     OW30367   3.792   6.749   2.967  0.1966 -0.3835 -0.2904
 9823SOL    HW130368   3.764   6.715   2.877  0.1546  0.2899 -0.5397
 9823SOL    HW230369   3.865   6.692   3.003  0.1766 -0.6936 -0.7320
 9824SOL     OW30370   2.257   4.479   6.209  0.5338 -0.1548  0.8787
 9824SOL    HW130371   2.221   4.426   6.287 -0.5704  0.5525  0.8762
 9824SOL    HW230372   2.216   4.445   6.125  1.8815 -1.0518  0.5495
 9825SOL     OW30373   6.924   6.916   4.159 -0.9070  0.0158 -0.5469
 9825SOL    HW130374   6.864   6.840   4.182  0.3361 -1.4665 -2.0299
 9825SOL    HW230375   6.936   6.921   4.060  1.2213  0.4188 -0.3111
 9826SOL     OW30376   1.518   1.182   4.041  0.4666 -0.0825  0.5218
 9826SOL    HW130377   1.457   1.168   4.119  0.0196  1.0897  0.4015
 9826SOL    HW230378   1.591   1.114   4.043 -0.7769 -1.4792  0.7303
 9827SOL     OW30379   2.275   5.227   3.407 -0.3875  0.0138 -0.0969
 9827SOL    HW130380   2.273   5.166   3.328  0.2406 -0.3753  0.1916
 9827SOL    HW230381   2.330   5.308   3.385 -1.2314  0.5111 -0.4836
 9828SOL     OW30382   4.638   1.143   3.802 -0.8926  0.4066  0.6748
 9828SOL    HW130383   4.615   1.063   3.858 -0.7378  0.8270  1.3502
 9828SOL    HW230384   4.583   1.142   3.719  1.7971 -2.5467 -1.3301
 9829SOL     OW30385   5.415   4.527   4.272 -0.7622  0.1362  0.0438
 9829SOL    HW130386   5.441   4.432   4.252  0.3863  0.7969 -1.8719
 9829SOL    HW230387   5.447   4.586   4.198  0.0404  2.2814  2.0085
 9830SOL     OW30388   4.698   2.491   3.054 -0.2355 -0.2760 -0.4275
 9830SOL    HW130389   4.681   2.551   3.131  0.2306  1.0843 -1.3437
 9830SOL    HW230390   4.660   2.532   2.971 -0.4769 -1.5653 -0.9711
 9831SOL     OW30391   0.910   6.806   1.138 -0.0295  0.3074 -0.6335
 9831SOL    HW130392   0.958   6.723   1.167  1.2914  1.5199  0.7981
 9831SOL    HW230393   0.976   6.878   1.117 -1.1702  1.3060 -0.9048
 9832SOL     OW30394   4.965   6.335   5.300 -0.0640  0.7492 -0.2075
 9832SOL    HW130395   4.936   6.346   5.395  0.4250  0.9441 -0.0754
 9832SOL    HW230396   5.038   6.267   5.295  0.3898  1.2391 -0.3448
 9833SOL     OW30397   3.161   3.361   3.823  0.2269  0.7098 -0.4607
 9833SOL    HW130398   3.167   3.272   3.777  0.3757  0.9759 -0.9667
 9833SOL    HW230399   3.067   3.395   3.819  0.0929  0.4134  0.0520
 9834SOL     OW30400   3.875   0.732   3.652  0.0632  0.7229 -0.3144
 9834SOL    HW130401   3.966   0.765   3.628 -0.7396  1.2927 -2.8580
 9834SOL    HW230402   3.855   0.649   3.601 -1.2339  1.2045 -0.6317
 9835SOL     OW30403   2.923   3.687   3.347 -0.1949  0.1042  0.4776
 9835SOL    HW130404   2.879   3.638   3.272 -1.4542  0.0832  1.2053
 9835SOL    HW230405   2.920   3.631   3.430  0.9851  0.2156  0.6167
 9836SOL     OW30406   0.231   2.923   3.655  0.1425 -0.3809 -0.3392
 9836SOL    HW130407   0.237   3.008   3.707  1.5640  0.8271 -2.3247
 9836SOL    HW230408   0.319   2.875   3.660 -0.2261 -1.0675 -0.3355
 9837SOL     OW30409   4.367   0.824   4.668  0.3044 -0.8478 -0.1996
 9837SOL    HW130410   4.384   0.807   4.766 -0.5464  0.8672  0.2720
 9837SOL    HW230411   4.453   0.848   4.624  0.4011  0.2941  0.5622
 9838SOL     OW30412   6.403   5.536   1.896  0.1220  0.0100 -0.1139
 9838SOL    HW130413   6.452   5.453   1.871  0.8343  0.4371 -0.1722
 9838SOL    HW230414   6.465   5.614   1.889  0.7221  0.0807  3.9189
 9839SOL     OW30415   3.889   5.254   4.131 -0.2803 -0.3747 -0.0143
 9839SOL    HW130416   3.840   5.341   4.137 -0.8947 -0.7468  0.4338
 9839SOL    HW230417   3.967   5.264   4.070 -1.1624  0.1119 -1.0870
 9840SOL     OW30418   4.113   1.875   5.975  0.5294  0.1458  0.0027
 9840SOL    HW130419   4.129   1.777   5.978  0.8820  0.2218  1.2689
 9840SOL    HW230420   4.046   1.900   6.045 -0.0171  0.7383 -0.7104
 9841SOL     OW30421   6.131   4.902   1.370  1.2656  0.5501  0.2600
 9841SOL    HW130422   6.228   4.878   1.361  1.1430  0.7892 -3.7965
 9841SOL    HW230423   6.078   4.845   1.307 -0.8373  2.2923  0.3504
 9842SOL     OW30424   2.993   6.127   5.347  0.0265 -0.4448  0.0273
 9842SOL    HW130425   2.912   6.181   5.374 -0.7986 -1.3522 -0.5773
 9842SOL    HW230426   3.062   6.133   5.419  0.4464  2.3336 -0.4744
 9843SOL     OW30427   1.222   6.901   0.064  0.2621  0.1129 -0.0694
 9843SOL    HW130428   1.137   6.953   0.075  0.2276  0.1492 -0.5033
 9843SOL    HW230429   1.210   6.810   0.103 -0.5863 -0.5242 -1.7182
 9844SOL     OW30430   5.213   0.867   2.827  0.5304  0.3688  0.2074
 9844SOL    HW130431   5.155   0.894   2.750 -0.2000 -1.4722  0.0694
 9844SOL    HW230432   5.280   0.799   2.796 -0.5534 -1.3171  1.4048
 9845SOL     OW30433   2.234   2.939   3.466  0.1208 -0.1403  0.2810
 9845SOL    HW130434   2.167   2.973   3.532  0.4992  1.3259 -0.0518
 9845SOL    HW230435   2.300   2.880   3.513  0.2605  0.7126  1.1840
 9846SOL     OW30436   5.825   2.011   4.953 -0.0306 -0.4182 -0.7806
 9846SOL    HW130437   5.862   2.103   4.938  0.1103 -0.3278  0.1179
 9846SOL    HW230438   5.743   2.016   5.010 -0.9225 -0.7141 -1.9912
 9847SOL     OW30439   5.063   2.991   0.230 -0.1495  0.7629 -0.1325
 9847SOL    HW130440   5.028   2.956   0.317  0.5993  0.2935 -0.0049
 9847SOL    HW230441   5.028   2.935   0.155 -0.1640  0.6764 -0.0616
 9848SOL     OW30442   2.180   3.903   1.478 -0.0147 -0.2087  0.2141
 9848SOL    HW130443   2.186   3.824   1.540  0.2636  0.4894  1.0912
 9848SOL    HW230444   2.193   3.987   1.530 -0.2230  0.4182 -0.7324
 9849SOL     OW30445   1.504   2.455   4.086 -0.2827  0.4775 -0.7188
 9849SOL    HW130446   1.534   2.481   4.178 -1.5408 -1.9924  0.4961
 9849SOL    HW230447   1.577   2.474   4.021  2.3109 -1.3645  1.4177
 9850SOL     OW30448   2.187   0.663   3.227 -0.0518  0.3722  0.3021
 9850SOL    HW130449   2.257   0.691   3.294  0.0579 -0.2289  0.4483
 9850SOL    HW230450   2.098   0.696   3.256  0.2309  1.5811 -0.1419
 9851SOL     OW30451   4.508   0.051   5.477  0.2599  0.0932  0.0218
 9851SOL    HW130452   4.555   0.003   5.551  0.2267  0.0152 -0.0072
 9851SOL    HW230453   4.454  -0.014   5.424 -0.1900  0.2458  0.2919
 9852SOL     OW30454   3.761   0.396   0.077  0.0882 -0.3200 -0.3999
 9852SOL    HW130455   3.704   0.328   0.122 -1.1148 -0.3126 -1.8393
 9852SOL    HW230456   3.750   0.389  -0.023  0.8149  1.2215 -0.6215
 9853SOL     OW30457   1.322   3.921   5.760  0.2199  0.0549  0.7669
 9853SOL    HW130458   1.233   3.884   5.783  0.2904 -0.3482  0.3913
 9853SOL    HW230459   1.388   3.896   5.831  0.5027 -1.4323  0.0151
 9854SOL     OW30460   5.058   5.583   0.401  0.1908 -0.4967  0.0510
 9854SOL    HW130461   5.028   5.666   0.354  0.1339  1.1004  2.7362
 9854SOL    HW230462   4.979   5.523   0.416  0.2549 -1.1710 -2.0167
 9855SOL     OW30463   6.959   5.999   0.595 -0.4518 -0.0024 -0.0041
 9855SOL    HW130464   6.890   5.971   0.528 -0.0255 -1.6862  0.2266
 9855SOL    HW230465   7.037   6.040   0.547 -1.5309  1.8825 -0.2683
 9856SOL     OW30466   2.744   4.979   2.867 -0.6069  0.3275  0.1233
 9856SOL    HW130467   2.719   4.932   2.951  2.1240 -0.3630  0.6472
 9856SOL    HW230468   2.814   5.048   2.886 -1.3966  1.5967 -1.3075
 9857SOL     OW30469   4.299   6.944   6.092 -0.3525 -0.2738  0.3456
 9857SOL    HW130470   4.286   7.043   6.084  1.6079 -0.1159 -4.7465
 9857SOL    HW230471   4.229   6.897   6.038  1.2675 -1.2630 -0.9961
 9858SOL     OW30472   6.975   5.878   2.773 -0.5426  0.1971 -0.0489
 9858SOL    HW130473   6.916   5.930   2.834 -0.2914 -1.5057  1.7346
 9858SOL    HW230474   7.002   5.792   2.817  2.1173  0.2550 -1.3575
 9859SOL     OW30475   5.117   0.910   3.175 -0.0923  0.3239 -0.5191
 9859SOL    HW130476   5.152   0.878   3.263 -1.6510 -0.7814 -0.2534
 9859SOL    HW230477   5.021   0.937   3.185  0.0225  1.2241 -1.6568
 9860SOL     OW30478   1.458   4.216   4.106 -0.0577  0.2986  0.3754
 9860SOL    HW130479   1.521   4.237   4.181  1.2024 -0.7011 -0.3687
 9860SOL    HW230480   1.430   4.121   4.112  2.0772 -0.5672 -1.7916
 9861SOL     OW30481   4.161   5.296   4.526 -0.4649 -1.5756  0.5400
 9861SOL    HW130482   4.188   5.204   4.498 -0.8928 -1.5690  0.0905
 9861SOL    HW230483   4.242   5.350   4.546 -0.1582 -1.6990 -0.3390
 9862SOL     OW30484   1.928   3.996   4.921 -0.1099 -0.0126 -0.2575
 9862SOL    HW130485   2.023   3.969   4.934  0.1881  1.1912  0.1614
 9862SOL    HW230486   1.924   4.081   4.867 -0.8010  1.2381  1.6649
 9863SOL     OW30487   4.264   5.476   1.552  0.0634 -0.4628  0.1007
 9863SOL    HW130488   4.289   5.380   1.560  1.0495 -0.1427  1.0717
 9863SOL    HW230489   4.238   5.512   1.642  0.2783  0.3270 -0.1414
 9864SOL     OW30490   4.003   5.402   5.945  0.2497 -0.5959  0.2585
 9864SOL    HW130491   3.927   5.465   5.936  0.7543  0.0845  0.6933
 9864SOL    HW230492   3.969   5.308   5.941 -0.4035 -0.3163 -1.3185
 9865SOL     OW30493   3.782   4.513   5.775  0.4992  0.7922 -0.4274
 9865SOL    HW130494   3.809   4.462   5.694  1.2487 -0.0400  0.3296
 9865SOL    HW230495   3.699   4.473   5.814  2.2081 -1.2346  1.3434
 9866SOL     OW30496   1.138   6.685   5.792 -0.1626  0.9804 -0.5358
 9866SOL    HW130497   1.228   6.722   5.815 -0.9136  1.7380  1.4188
 9866SOL    HW230498   1.068   6.753   5.813 -1.2491  0.1290 -1.3027
 9867SOL     OW30499   5.097   1.152   2.941 -0.1216 -0.3655 -0.2743
 9867SOL    HW130500   5.061   1.170   2.849 -1.4822 -1.2419  0.0743
 9867SOL    HW230501   5.175   1.090   2.933 -0.4066 -0.6648 -0.8182
 9868SOL     OW30502   1.081   6.377   4.408  0.2657  0.5193 -0.9083
 9868SOL    HW130503   1.156   6.441   4.425  1.7175 -0.8420 -1.9425
 9868SOL    HW230504   1.115   6.299   4.357 -1.9712  0.0376 -1.7568
 9869SOL     OW30505   5.403   1.432   3.143 -0.2305 -0.0990 -0.0022
 9869SOL    HW130506   5.478   1.425   3.208  0.0529 -0.7979 -0.3993
 9869SOL    HW230507   5.430   1.490   3.066 -0.4221  0.3922  0.2961
 9870SOL     OW30508   1.828   3.135   1.570  0.5016  0.4426 -0.5827
 9870SOL    HW130509   1.733   3.167   1.572  1.1004  2.2888  0.2998
 9870SOL    HW230510   1.833   3.051   1.515 -1.7912 -0.2833  0.1839
 9871SOL     OW30511   5.097   4.419   3.035  0.1185  0.1740 -0.3564
 9871SOL    HW130512   5.015   4.472   3.054 -0.3524 -0.3794 -0.8341
 9871SOL    HW230513   5.117   4.358   3.111 -0.1944 -0.0450 -0.4506
 9872SOL     OW30514   6.172   0.127   4.932  0.1443 -0.4238 -0.3937
 9872SOL    HW130515   6.165   0.225   4.915  0.7537 -0.4463 -0.8276
 9872SOL    HW230516   6.103   0.099   4.999  0.6153  0.4659  0.4716
 9873SOL     OW30517   5.821   1.217   5.611  0.1874 -0.2426  0.2063
 9873SOL    HW130518   5.731   1.238   5.650  1.1001 -1.7004  3.3619
 9873SOL    HW230519   5.860   1.300   5.571 -1.2731  1.1615  1.5421
 9874SOL     OW30520   0.060   4.376   5.301  0.5480  0.2243 -0.2937
 9874SOL    HW130521   0.046   4.282   5.333 -0.5766  1.0488  1.8576
 9874SOL    HW230522   0.157   4.389   5.279  0.8052 -1.3112 -0.2303
 9875SOL     OW30523   6.538   5.670   1.267  0.1863 -0.0284 -0.1946
 9875SOL    HW130524   6.598   5.744   1.237 -0.3853  0.7665  0.5565
 9875SOL    HW230525   6.558   5.587   1.215  1.0807  0.5561 -0.8077
 9876SOL     OW30526   6.865   2.857   1.951 -0.4416  0.7328  0.1600
 9876SOL    HW130527   6.877   2.758   1.942 -2.6703  0.2827  1.5036
 9876SOL    HW230528   6.945   2.903   1.913  0.6112 -1.5559 -0.6102
 9877SOL     OW30529   2.368   5.751   3.165 -0.1391 -0.1940  0.0615
 9877SOL    HW130530   2.391   5.766   3.261  0.6558 -1.4373  0.0865
 9877SOL    HW230531   2.269   5.760   3.152 -0.3670 -0.9011  1.1838
 9878SOL     OW30532   5.628   4.219   1.467  0.4360 -0.4095  0.1389
 9878SOL    HW130533   5.538   4.248   1.434  0.1557 -1.7545 -0.3073
 9878SOL    HW230534   5.647   4.126   1.436  1.8451 -0.2629  0.5124
 9879SOL     OW30535   6.264   6.542   5.275  0.1381  0.1510 -0.2408
 9879SOL    HW130536   6.290   6.556   5.371  1.0392  0.0332 -0.4644
 9879SOL    HW230537   6.248   6.444   5.259 -0.1485  0.1871 -0.1792
 9880SOL     OW30538   2.679   2.524   1.793 -0.2156  0.3034  0.0715
 9880SOL    HW130539   2.776   2.513   1.818 -0.0836  0.0100 -0.5505
 9880SOL    HW230540   2.673   2.572   1.706 -0.6944  1.9441  0.9699
 9881SOL     OW30541   0.949   1.022   2.391  0.0271 -0.6142 -0.4324
 9881SOL    HW130542   0.951   1.004   2.489  1.3182  2.7081  0.2713
 9881SOL    HW230543   0.881   0.962   2.348 -2.2013 -0.6993  2.8228
 9882SOL     OW30544   3.714   4.239   4.795  0.0729  0.4440  0.3374
 9882SOL    HW130545   3.741   4.311   4.731 -0.1254 -0.6183 -0.9840
 9882SOL    HW230546   3.631   4.268   4.844 -0.8071  0.5888 -1.1601
 9883SOL     OW30547   1.085   6.051   1.398  0.4911  0.1790  0.2958
 9883SOL    HW130548   1.077   6.124   1.466 -1.5527  0.4013 -0.1024
 9883SOL    HW230549   1.052   6.084   1.309  1.7475 -0.5469 -0.4768
 9884SOL     OW30550   3.324   2.814   5.205  0.4336  0.3474 -0.4211
 9884SOL    HW130551   3.275   2.895   5.239 -0.7926 -0.0152 -1.2607
 9884SOL    HW230552   3.354   2.830   5.111  0.4194 -0.0713 -0.4975
 9885SOL     OW30553   4.716   2.789   4.911  1.0855  0.2948  0.7529
 9885SOL    HW130554   4.738   2.886   4.911 -0.9272  0.7878  0.1074
 9885SOL    HW230555   4.693   2.760   5.004 -1.8987  1.3711  0.4507
 9886SOL     OW30556   2.462   0.655   4.550  0.3997  0.2843 -0.5686
 9886SOL    HW130557   2.414   0.581   4.503 -0.8856  1.1889 -0.7333
 9886SOL    HW230558   2.520   0.703   4.484  0.5467 -0.0156 -0.6614
 9887SOL     OW30559   4.663   1.291   6.663  0.2447  0.4449  0.3038
 9887SOL    HW130560   4.665   1.327   6.756  1.7188  2.6690 -0.4929
 9887SOL    HW230561   4.581   1.323   6.616 -0.0367  0.0946  0.5537
 9888SOL     OW30562   6.253   1.390   5.150 -0.0081  0.0445  0.0085
 9888SOL    HW130563   6.280   1.430   5.062  2.0527 -2.1618 -0.4688
 9888SOL    HW230564   6.162   1.349   5.141 -1.0511  2.2388 -0.2022
 9889SOL     OW30565   4.276   5.060   2.214 -0.4424 -0.2787  0.2436
 9889SOL    HW130566   4.244   5.114   2.136  0.2471  0.9617  0.7803
 9889SOL    HW230567   4.262   4.963   2.196 -0.6024  0.0049 -1.2768
 9890SOL     OW30568   1.919   3.480   2.462 -0.4181 -0.3806  0.2602
 9890SOL    HW130569   1.965   3.450   2.379  1.3832  0.2634  0.9814
 9890SOL    HW230570   1.884   3.573   2.449 -1.2402 -0.7436 -0.1759
 9891SOL     OW30571   2.656   1.549   0.256  0.1109 -0.0708 -0.4351
 9891SOL    HW130572   2.560   1.554   0.280  0.3856  1.6374  0.4440
 9891SOL    HW230573   2.712   1.560   0.338  1.0552  1.0162 -1.1904
 9892SOL     OW30574   1.372   6.266   2.762 -0.1252  0.3677  0.3361
 9892SOL    HW130575   1.351   6.285   2.666  0.8626  0.2283  0.0830
 9892SOL    HW230576   1.350   6.171   2.783 -1.4718  0.7077  0.5868
 9893SOL     OW30577   4.846   5.213   6.011  0.5377  0.4752 -0.1208
 9893SOL    HW130578   4.768   5.212   6.074  0.1868  1.9419 -0.4808
 9893SOL    HW230579   4.871   5.308   5.991  1.0820  0.0371 -1.6549
 9894SOL     OW30580   4.562   1.989   5.851  0.3361 -0.5442 -0.2580
 9894SOL    HW130581   4.558   2.079   5.894 -0.5932 -0.5150 -0.3980
 9894SOL    HW230582   4.593   1.999   5.756 -1.8804 -0.0916 -0.9915
 9895SOL     OW30583   4.046   2.753   0.735 -0.7670 -0.2727  0.3860
 9895SOL    HW130584   4.122   2.768   0.799  1.2209 -0.6839 -1.7368
 9895SOL    HW230585   4.007   2.842   0.709  0.0002  0.0731  0.3783
 9896SOL     OW30586   4.654   3.994   0.128  0.4704  0.0484  0.1693
 9896SOL    HW130587   4.578   4.056   0.110  1.3745  1.2925  0.5436
 9896SOL    HW230588   4.629   3.901   0.099 -0.2009  0.9151 -2.2435
 9897SOL     OW30589   1.345   1.700   1.119  0.4350 -0.2035 -0.3486
 9897SOL    HW130590   1.360   1.791   1.080 -0.8135  0.5763  0.9249
 9897SOL    HW230591   1.248   1.689   1.142  0.1833 -2.5818 -2.2176
 9898SOL     OW30592   0.142   4.802   1.217 -0.4968  0.6606  0.0078
 9898SOL    HW130593   0.093   4.725   1.177 -1.0888  0.6863  0.6461
 9898SOL    HW230594   0.164   4.781   1.312  1.0050  0.5380 -0.3533
 9899SOL     OW30595   3.905   4.346   0.921  0.4744 -0.2529 -0.5051
 9899SOL    HW130596   3.813   4.310   0.906  0.8384 -2.9652  2.6486
 9899SOL    HW230597   3.970   4.298   0.861 -0.0195  1.8509 -2.9321
 9900SOL     OW30598   2.345   4.637   3.326  0.2065 -0.1028 -0.4643
 9900SOL    HW130599   2.287   4.692   3.266  0.6523  1.5714  0.5794
 9900SOL    HW230600   2.287   4.584   3.388 -0.2293 -0.0259 -0.7997
 9901SOL     OW30601   2.188   0.605   6.627 -0.2491 -0.5720  0.4485
 9901SOL    HW130602   2.124   0.530   6.611  0.3312 -0.9813  0.0320
 9901SOL    HW230603   2.276   0.584   6.585 -0.3516  0.7425 -0.4979
 9902SOL     OW30604   5.468   3.714   6.089 -0.1305  0.1746  0.2224
 9902SOL    HW130605   5.450   3.628   6.041 -1.9635  0.0904  0.9606
 9902SOL    HW230606   5.486   3.786   6.023 -0.3569 -0.4077 -0.4951
 9903SOL     OW30607   1.574   1.796   0.680 -0.1792  0.3642 -0.5496
 9903SOL    HW130608   1.485   1.752   0.690 -0.5583  1.0547 -0.8394
 9903SOL    HW230609   1.644   1.726   0.668 -0.6115 -0.2045  0.1399
 9904SOL     OW30610   6.955   6.154   1.725  0.7424  0.0906  1.1024
 9904SOL    HW130611   7.022   6.225   1.702  0.3124  0.0814 -0.2934
 9904SOL    HW230612   6.891   6.190   1.792  0.5953  1.0033  0.5016
 9905SOL     OW30613   2.746   1.411   6.448 -0.6783  1.1423  0.3070
 9905SOL    HW130614   2.799   1.326   6.452  0.9812  1.9586 -2.2566
 9905SOL    HW230615   2.798   1.485   6.491 -0.0599  1.7670 -1.4485
 9906SOL     OW30616   3.317   3.817   6.993  0.0562  0.5411  0.6493
 9906SOL    HW130617   3.271   3.780   6.913  1.3477  0.9405 -0.3034
 9906SOL    HW230618   3.292   3.913   7.006  1.1859  0.9951 -0.3459
 9907SOL     OW30619   0.889   0.716   1.737  0.1597  0.1540 -0.6955
 9907SOL    HW130620   0.968   0.768   1.705  1.2982 -1.4100 -0.5275
 9907SOL    HW230621   0.841   0.676   1.659 -0.5631  1.1971 -0.8056
 9908SOL     OW30622   0.237   4.660   6.805  0.0269  0.7801 -0.3773
 9908SOL    HW130623   0.205   4.747   6.842  0.8737  0.7165  0.5574
 9908SOL    HW230624   0.332   4.645   6.833 -0.3039 -0.7375  0.0258
 9909SOL     OW30625   2.209   6.762   1.229 -0.0003  0.3998  0.8717
 9909SOL    HW130626   2.215   6.856   1.265  0.7049  0.4556  0.6312
 9909SOL    HW230627   2.301   6.729   1.208 -0.2754 -0.2220  0.6283
 9910SOL     OW30628   0.890   5.113   6.935 -0.2142 -0.0369  0.6821
 9910SOL    HW130629   0.873   5.019   6.906 -3.3468  0.3928  0.7273
 9910SOL    HW230630   0.937   5.113   7.023  2.5537 -1.4374 -0.6647
 9911SOL     OW30631   2.971   3.961   1.938 -0.0979 -0.2326  0.2478
 9911SOL    HW130632   2.932   4.009   2.017 -0.3024 -0.4428  0.2754
 9911SOL    HW230633   2.939   3.866   1.937 -1.0047  0.0536 -0.6997
 9912SOL     OW30634   4.422   6.646   4.651  0.1497 -0.2163  0.3050
 9912SOL    HW130635   4.510   6.663   4.696  0.9260 -0.7914 -0.9331
 9912SOL    HW230636   4.434   6.578   4.578 -1.3821 -0.4972  0.2779
 9913SOL     OW30637   6.151   2.378   0.217  0.3408  0.3549  0.4400
 9913SOL    HW130638   6.075   2.412   0.273  1.1638  0.5649  1.4746
 9913SOL    HW230639   6.189   2.453   0.163 -0.2723  0.2171 -0.1921
 9914SOL     OW30640   1.853   4.629   4.512  0.0516  0.3525  0.2844
 9914SOL    HW130641   1.918   4.553   4.521 -0.0167  0.2077 -0.3972
 9914SOL    HW230642   1.874   4.681   4.429 -1.8064 -0.7827 -0.9845
 9915SOL     OW30643   6.827   6.251   3.181  0.0525 -0.4945  0.1093
 9915SOL    HW130644   6.784   6.163   3.202  1.4366 -1.2740 -0.1755
 9915SOL    HW230645   6.811   6.274   3.085 -0.8198 -0.1159  0.3318
 9916SOL     OW30646   0.162   2.723   6.157 -0.4229 -0.2940 -0.4051
 9916SOL    HW130647   0.176   2.642   6.101  2.7406 -0.4641  0.4793
 9916SOL    HW230648   0.145   2.695   6.252  0.4600  0.0352 -0.1388
 9917SOL     OW30649   1.771   3.020   3.447  0.3104 -0.2771 -0.3548
 9917SOL    HW130650   1.780   2.923   3.423 -0.6788 -0.7196  0.9761
 9917SOL    HW230651   1.754   3.029   3.545 -0.3071  1.2054 -0.5730
 9918SOL     OW30652   3.700   1.821   3.800 -0.7067  0.7388 -0.2729
 9918SOL    HW130653   3.775   1.763   3.834 -0.3154  1.4234  0.0486
 9918SOL    HW230654   3.657   1.776   3.721 -2.1811 -1.3014  1.5779
 9919SOL     OW30655   0.544   6.163   1.143 -0.0383 -0.5665 -0.2791
 9919SOL    HW130656   0.615   6.136   1.077 -0.2311 -1.8629  0.0067
 9919SOL    HW230657   0.458   6.119   1.118 -0.3867 -0.1700  0.2144
 9920SOL     OW30658   4.264   6.960   2.741  0.5408 -0.0954 -0.0281
 9920SOL    HW130659   4.334   6.998   2.682  0.3114  0.6302  0.1617
 9920SOL    HW230660   4.224   6.879   2.697  1.1256 -0.2075 -0.3636
 9921SOL     OW30661   3.492   0.390   2.788 -0.2731  0.3972 -0.0034
 9921SOL    HW130662   3.444   0.421   2.707 -0.1300  2.7333  0.7406
 9921SOL    HW230663   3.432   0.396   2.868  0.1079 -0.2346  0.3430
 9922SOL     OW30664   6.003   3.390   2.694 -0.3082  0.6267 -0.4745
 9922SOL    HW130665   6.101   3.411   2.694 -0.0191 -0.5879 -1.2000
 9922SOL    HW230666   5.988   3.302   2.740 -0.9149  0.2595 -1.3417
 9923SOL     OW30667   5.599   6.612   4.539 -1.1162  0.1152  0.4860
 9923SOL    HW130668   5.682   6.558   4.524 -0.4040  1.7430 -2.1646
 9923SOL    HW230669   5.603   6.656   4.628 -0.1491 -1.4777  1.2775
 9924SOL     OW30670   5.019   5.545   5.543 -0.1558 -0.4432 -0.2667
 9924SOL    HW130671   5.033   5.528   5.445  0.5658  0.9605 -0.4391
 9924SOL    HW230672   5.104   5.525   5.592 -0.5912 -1.3828  0.1274
 9925SOL     OW30673   3.995   4.015   5.099  0.4803 -0.1548 -0.5526
 9925SOL    HW130674   3.957   3.939   5.151 -1.7870  1.1302 -0.2457
 9925SOL    HW230675   3.975   4.002   5.002 -0.2569  0.2264 -0.4563
 9926SOL     OW30676   1.892   2.333   6.927 -0.1746  0.2478 -0.2055
 9926SOL    HW130677   1.870   2.431   6.930  0.4310  0.3787  0.2369
 9926SOL    HW230678   1.808   2.280   6.927 -0.5358  0.6733  2.8609
 9927SOL     OW30679   2.631   2.420   2.484  0.3890 -0.5825  0.5190
 9927SOL    HW130680   2.718   2.374   2.464  0.1889 -0.5207 -0.5842
 9927SOL    HW230681   2.557   2.353   2.482  0.3404 -0.5367  0.8599
 9928SOL     OW30682   6.248   4.358   4.426  0.0467  0.2075 -0.0682
 9928SOL    HW130683   6.210   4.273   4.463 -1.4329 -0.4541 -2.8202
 9928SOL    HW230684   6.344   4.345   4.403  0.4441  0.0294  1.5684
 9929SOL     OW30685   1.164   4.241   4.749 -0.4812 -0.3981  0.2230
 9929SOL    HW130686   1.183   4.173   4.678  1.4894  0.3218  0.0070
 9929SOL    HW230687   1.085   4.296   4.721 -0.2616 -0.6773 -1.0292
 9930SOL     OW30688   5.392   6.278   0.022  0.8330 -0.2795  0.0841
 9930SOL    HW130689   5.327   6.346   0.053  0.0774 -0.7232 -0.4989
 9930SOL    HW230690   5.485   6.315   0.028  0.3775  1.1199 -1.0531
 9931SOL     OW30691   6.073   3.531   6.810 -0.0097  0.3833 -0.0107
 9931SOL    HW130692   6.110   3.485   6.730 -0.2889  2.0210 -1.1307
 9931SOL    HW230693   5.978   3.502   6.824  0.0118  0.1570 -0.3181
 9932SOL     OW30694   0.625   0.766   0.924 -0.0527 -0.8543  0.1704
 9932SOL    HW130695   0.573   0.712   0.858  0.1850 -0.5983 -0.2280
 9932SOL    HW230696   0.646   0.709   1.004 -0.3394 -1.1663  0.0249
 9933SOL     OW30697   3.984   0.901   2.160 -0.2385  0.6749  0.1640
 9933SOL    HW130698   4.082   0.892   2.176 -0.1160 -0.4823 -1.1292
 9933SOL    HW230699   3.941   0.940   2.242  0.9785 -0.7404  1.5405
 9934SOL     OW30700   3.547   0.887   0.383 -0.1016 -0.2122 -0.1641
 9934SOL    HW130701   3.544   0.959   0.313  1.2732 -0.6435 -0.6962
 9934SOL    HW230702   3.640   0.851   0.389 -0.9395 -2.5767 -0.5375
 9935SOL     OW30703   4.964   1.510   0.258  0.2238 -0.4246  0.0262
 9935SOL    HW130704   5.045   1.508   0.200  0.5890 -0.0955  0.5193
 9935SOL    HW230705   4.954   1.601   0.298 -0.2833 -0.5174  0.1221
 9936SOL     OW30706   5.643   6.796   1.228  0.0025 -0.2382 -0.1565
 9936SOL    HW130707   5.565   6.775   1.286  0.8712 -1.5781  0.5649
 9936SOL    HW230708   5.696   6.870   1.269 -0.1898 -0.1933  0.0104
 9937SOL     OW30709   5.580   0.164   5.835  0.4327 -0.2626  0.2791
 9937SOL    HW130710   5.522   0.243   5.821  1.4156  0.6356  1.0783
 9937SOL    HW230711   5.654   0.188   5.898  1.1634 -1.6101 -0.0245
 9938SOL     OW30712   1.615   0.915   2.705 -0.1273 -0.0219  0.5013
 9938SOL    HW130713   1.536   0.893   2.647  0.6589 -2.2733  0.1909
 9938SOL    HW230714   1.679   0.972   2.653 -0.3400 -0.3748 -0.1620
 9939SOL     OW30715   1.250   3.236   5.651 -0.4380 -0.2414 -0.2580
 9939SOL    HW130716   1.160   3.272   5.627 -2.4450 -2.7924  2.6201
 9939SOL    HW230717   1.270   3.259   5.746  1.7433 -0.2432 -0.6657
 9940SOL     OW30718   0.038   1.284   1.667 -0.2634  0.4264 -0.4627
 9940SOL    HW130719   0.007   1.191   1.686  1.6222 -0.5458 -1.8516
 9940SOL    HW230720   0.062   1.292   1.570  0.4388  2.1095 -0.1793
 9941SOL     OW30721   5.554   3.928   0.855 -0.2938  0.0975  0.7621
 9941SOL    HW130722   5.472   3.874   0.876 -0.0251 -1.5061 -1.8274
 9941SOL    HW230723   5.635   3.873   0.872  0.0320  0.0522 -0.8168
 9942SOL     OW30724   4.859   5.421   3.343  0.2213 -0.1068  0.7937
 9942SOL    HW130725   4.838   5.427   3.245  1.5543  0.1508  0.5009
 9942SOL    HW230726   4.935   5.357   3.357 -0.6254 -0.9304  1.7845
 9943SOL     OW30727   6.628   4.822   6.278  0.3496 -0.1227  0.2648
 9943SOL    HW130728   6.698   4.766   6.235  1.3339  0.1036  1.4967
 9943SOL    HW230729   6.538   4.779   6.267  0.8468 -1.0388 -0.2994
 9944SOL     OW30730   2.905   5.372   0.264 -0.4602  0.3698 -0.0502
 9944SOL    HW130731   2.992   5.421   0.273 -1.1183  1.5158  0.2528
 9944SOL    HW230732   2.851   5.413   0.190 -0.4001 -0.8787 -0.8143
 9945SOL     OW30733   6.208   3.785   0.054  0.4316 -0.0449  0.2080
 9945SOL    HW130734   6.192   3.686   0.051  1.1566 -0.1581 -1.5491
 9945SOL    HW230735   6.121   3.833   0.042  0.3237 -0.5343 -1.2634
 9946SOL     OW30736   5.001   2.649   1.167  0.4091  0.4434 -0.1071
 9946SOL    HW130737   4.943   2.621   1.090 -2.2433  0.0514  1.8893
 9946SOL    HW230738   5.094   2.618   1.151 -0.6109 -2.0765 -1.8990
 9947SOL     OW30739   1.004   0.008   4.337  0.0649 -0.1424  0.2592
 9947SOL    HW130740   0.922   0.033   4.388 -0.3130 -2.0036  0.6284
 9947SOL    HW230741   1.006  -0.091   4.323  3.0480 -0.4308  1.7471
 9948SOL     OW30742   4.692   2.237   6.284  0.0443 -0.1079 -0.0258
 9948SOL    HW130743   4.787   2.210   6.270  1.0070  1.9931  1.9366
 9948SOL    HW230744   4.669   2.229   6.381 -1.5332  0.2652 -0.3394
 9949SOL     OW30745   6.517   2.443   3.335  0.9347 -0.3513  0.6640
 9949SOL    HW130746   6.475   2.375   3.396 -0.2252  0.2328  0.5458
 9949SOL    HW230747   6.486   2.534   3.361  3.3458  0.2952  1.5403
 9950SOL     OW30748   4.031   5.164   6.752  0.0278  0.2687  0.3956
 9950SOL    HW130749   3.942   5.188   6.714 -1.2070 -0.5502  2.6023
 9950SOL    HW230750   4.065   5.081   6.709 -0.4380  0.3968 -0.2250
 9951SOL     OW30751   6.624   2.455   6.385  0.0848  0.5070  0.4015
 9951SOL    HW130752   6.539   2.425   6.343 -0.5714  0.2692  1.8282
 9951SOL    HW230753   6.664   2.380   6.437  0.3687  1.0451  0.9762
 9952SOL     OW30754   1.774   3.740   6.163  0.3013 -0.1953  0.2597
 9952SOL    HW130755   1.682   3.708   6.184 -0.5408  2.6363  1.2172
 9952SOL    HW230756   1.826   3.750   6.248 -0.0742  2.5105  0.2585
 9953SOL     OW30757   0.571   3.226   4.969  0.6774 -0.0516 -0.2635
 9953SOL    HW130758   0.556   3.201   5.064  1.7651  1.2014  0.2794
 9953SOL    HW230759   0.669   3.244   4.955  0.3746  0.8864 -1.3182
 9954SOL     OW30760   4.913   2.068   0.765  0.2131 -0.2386  0.1946
 9954SOL    HW130761   4.856   2.002   0.717  1.7977 -1.0858 -0.5997
 9954SOL    HW230762   4.860   2.111   0.838 -1.3410 -1.1651 -0.3481
 9955SOL     OW30763   6.104   4.792   2.988  0.3057 -0.4172  0.0842
 9955SOL    HW130764   6.123   4.874   2.934  0.2646 -0.5524 -0.1409
 9955SOL    HW230765   6.005   4.784   3.002  0.4321  0.5198  1.6295
 9956SOL     OW30766   2.212   5.024   3.578  0.4786  0.3951 -0.0829
 9956SOL    HW130767   2.186   4.940   3.531  0.7534 -0.0196  0.4979
 9956SOL    HW230768   2.242   5.092   3.510  1.3579 -0.3643 -0.4857
 9957SOL     OW30769   5.372   0.292   1.179  0.6076  0.4211  0.3437
 9957SOL    HW130770   5.438   0.319   1.110  1.5083  1.7508  1.6613
 9957SOL    HW230771   5.395   0.335   1.267 -1.8730  0.8036  0.9075
 9958SOL     OW30772   4.922   6.223   5.581 -0.1762  0.4878  0.1134
 9958SOL    HW130773   4.894   6.284   5.655 -2.1720  0.1504 -0.3119
 9958SOL    HW230774   5.019   6.201   5.591 -0.0633  1.5775  1.7982
 9959SOL     OW30775   5.542   5.324   6.390  0.2077 -0.7404  0.3304
 9959SOL    HW130776   5.480   5.376   6.331 -0.7381 -1.5450  0.5981
 9959SOL    HW230777   5.490   5.278   6.461  1.2564 -0.4351  1.3258
 9960SOL     OW30778   5.551   6.496   5.661  0.6065 -0.6438 -0.1460
 9960SOL    HW130779   5.585   6.588   5.641 -0.4063 -0.0826  0.6232
 9960SOL    HW230780   5.452   6.495   5.655  0.5330 -1.4292  0.8601
 9961SOL     OW30781   2.486   6.902   5.505 -0.0127  0.4221  0.7776
 9961SOL    HW130782   2.496   6.813   5.461 -0.6847  1.3067 -1.2718
 9961SOL    HW230783   2.427   6.893   5.586  0.4839 -1.0838  1.0031
 9962SOL     OW30784   4.572   0.853   0.913  0.5206  0.7673 -0.4751
 9962SOL    HW130785   4.612   0.920   0.977 -0.2233  0.4542  0.3370
 9962SOL    HW230786   4.615   0.864   0.823  1.2237  1.5679 -0.0658
 9963SOL     OW30787   0.126   0.829   5.661 -0.8735  0.1956  0.5362
 9963SOL    HW130788   0.128   0.892   5.584 -0.8572 -1.0182 -0.4881
 9963SOL    HW230789   0.210   0.838   5.714 -0.9398  1.1286  0.4991
 9964SOL     OW30790   5.498   6.584   5.159 -0.0756 -0.6610 -0.0138
 9964SOL    HW130791   5.451   6.504   5.198  0.7456 -1.4016 -0.5108
 9964SOL    HW230792   5.501   6.576   5.060  3.2205 -1.9186  0.0716
 9965SOL     OW30793   2.073   3.970   6.358 -0.3515 -0.3251 -0.6106
 9965SOL    HW130794   2.028   3.969   6.447 -1.7690  1.5207 -1.2623
 9965SOL    HW230795   2.167   3.937   6.368 -0.9685 -1.6734  1.2469
 9966SOL     OW30796   2.551   4.578   2.215 -0.1803 -0.3126 -0.0388
 9966SOL    HW130797   2.644   4.544   2.200 -0.4778 -0.6720 -1.1327
 9966SOL    HW230798   2.503   4.582   2.128 -1.5335 -1.1164  0.6436
 9967SOL     OW30799   5.774   6.866   1.566 -0.3424 -0.0256  0.1685
 9967SOL    HW130800   5.729   6.884   1.654  2.6111  2.8658  1.2790
 9967SOL    HW230801   5.862   6.823   1.582 -0.0518 -0.0891 -1.4626
 9968SOL     OW30802   5.333   4.880   6.648 -0.1511 -0.4254  0.5740
 9968SOL    HW130803   5.326   4.919   6.741 -0.0380  1.5585 -0.1897
 9968SOL    HW230804   5.241   4.863   6.612 -0.2672  0.3088  0.4905
 9969SOL     OW30805   1.982   0.408   2.191  0.2805  0.6835  0.9567
 9969SOL    HW130806   2.055   0.427   2.256  0.1960 -0.5418  1.4462
 9969SOL    HW230807   1.913   0.350   2.235  0.4423 -0.5358 -0.3279
 9970SOL     OW30808   6.876   3.573   1.010 -0.2494 -0.0511 -0.8678
 9970SOL    HW130809   6.922   3.634   0.946  1.1696 -2.8621 -2.7065
 9970SOL    HW230810   6.875   3.616   1.101  2.9715  1.6497 -1.4570
 9971SOL     OW30811   0.231   5.220   6.577  0.2464  0.1602 -0.3608
 9971SOL    HW130812   0.136   5.209   6.546  0.6480  1.0125 -2.0262
 9971SOL    HW230813   0.244   5.313   6.611  0.3659 -0.1058  0.3200
 9972SOL     OW30814   3.257   4.102   6.352 -0.2451 -0.3751 -0.7380
 9972SOL    HW130815   3.271   4.078   6.256  0.1255  1.1854 -1.0981
 9972SOL    HW230816   3.342   4.087   6.403 -0.5409 -1.5425 -0.5533
 9973SOL     OW30817   3.947   0.947   3.780  0.5952 -0.3348  0.0580
 9973SOL    HW130818   3.895   1.007   3.841  0.0709 -0.3718 -0.3411
 9973SOL    HW230819   3.892   0.866   3.759  0.2659  0.2410 -1.4299
 9974SOL     OW30820   1.087   5.015   3.427  0.2749 -0.5107 -0.1024
 9974SOL    HW130821   1.035   5.075   3.487  0.5986 -0.7967  0.4722
 9974SOL    HW230822   1.091   4.923   3.467  0.6132 -0.6679 -0.4930
 9975SOL     OW30823   2.339   4.358   0.407 -0.0293 -0.2650 -0.2287
 9975SOL    HW130824   2.427   4.320   0.436  0.5828  1.3068  0.1084
 9975SOL    HW230825   2.283   4.377   0.487 -0.2866 -0.3822 -0.3807
 9976SOL     OW30826   4.430   4.667   5.285  0.1640 -0.6760 -0.1929
 9976SOL    HW130827   4.409   4.590   5.226 -1.0602  0.4809 -1.3497
 9976SOL    HW230828   4.423   4.752   5.232  0.4084  0.3030  1.2922
 9977SOL     OW30829   4.475   5.587   0.139  0.5158 -0.5911  0.1777
 9977SOL    HW130830   4.381   5.557   0.155  1.3325 -1.8638  3.3200
 9977SOL    HW230831   4.534   5.508   0.126  1.3070  0.1614 -1.0099
 9978SOL     OW30832   5.429   3.790   6.452 -0.3387 -0.3085 -0.0900
 9978SOL    HW130833   5.405   3.873   6.402  3.1980 -0.2794 -2.0879
 9978SOL    HW230834   5.466   3.815   6.542 -1.2501  0.0725  0.1947
 9979SOL     OW30835   3.792   3.059   3.641 -0.3215 -0.6516  0.7272
 9979SOL    HW130836   3.799   3.010   3.728 -1.7642 -1.6304  0.3325
 9979SOL    HW230837   3.797   2.994   3.565  0.5929  0.1559  0.0764
 9980SOL     OW30838   6.022   4.718   0.872  0.4149  0.1100 -0.3001
 9980SOL    HW130839   6.043   4.657   0.948  2.8325 -0.0547 -1.0252
 9980SOL    HW230840   6.056   4.810   0.893  1.3949 -0.0078 -1.2545
 9981SOL     OW30841   5.872   1.607   1.513  0.3351  0.1010 -0.2115
 9981SOL    HW130842   5.829   1.628   1.600 -0.8481  1.8714 -1.1447
 9981SOL    HW230843   5.972   1.614   1.522  0.1743  2.3680  0.5611
 9982SOL     OW30844   0.266   1.949   4.610  1.0803  0.4465 -0.2518
 9982SOL    HW130845   0.218   1.958   4.697  0.2063  0.2414 -0.7080
 9982SOL    HW230846   0.312   1.860   4.606  1.8191  0.7835  0.3275
 9983SOL     OW30847   1.202   2.790   0.772  0.0794 -0.2037  0.3401
 9983SOL    HW130848   1.165   2.822   0.685 -1.4373  0.4261  1.1848
 9983SOL    HW230849   1.219   2.869   0.832  2.5266 -0.4820  0.1287
 9984SOL     OW30850   0.877   6.336   1.381 -0.5323 -0.5104 -0.4353
 9984SOL    HW130851   0.790   6.363   1.421  0.3000  1.4776  0.1385
 9984SOL    HW230852   0.893   6.388   1.297 -0.3343 -1.5964 -1.0969
 9985SOL     OW30853   4.559   3.743   0.053 -0.3283 -0.3880  0.0442
 9985SOL    HW130854   4.575   3.739  -0.045 -1.3351 -0.4716 -0.1240
 9985SOL    HW230855   4.466   3.714   0.073 -0.7291  1.3237  0.8532
 9986SOL     OW30856   5.920   4.284   2.161 -0.1052  0.2178 -0.1993
 9986SOL    HW130857   5.944   4.253   2.069 -0.0011 -0.8715  0.1823
 9986SOL    HW230858   5.879   4.374   2.155 -2.7281 -0.9484 -1.6647
 9987SOL     OW30859   5.891   1.982   2.951  0.2263 -0.0748 -0.2744
 9987SOL    HW130860   5.801   2.016   2.921 -0.1412  0.4943  1.3946
 9987SOL    HW230861   5.905   1.890   2.915 -1.9940 -1.0665  1.1816
 9988SOL     OW30862   4.995   5.315   3.657 -0.0369 -0.2720 -0.3810
 9988SOL    HW130863   5.063   5.251   3.692  0.6556 -0.1450 -1.4158
 9988SOL    HW230864   4.937   5.269   3.589  2.1067  0.7086 -3.0820
 9989SOL     OW30865   0.294   5.405   2.231  0.4928 -0.0240 -0.0275
 9989SOL    HW130866   0.352   5.472   2.277  0.7834  0.7524 -1.4616
 9989SOL    HW230867   0.288   5.427   2.134 -1.7473 -0.4153 -0.0429
 9990SOL     OW30868   1.123   6.536   2.562 -0.0443 -0.0526 -0.1242
 9990SOL    HW130869   1.152   6.449   2.521 -0.4936 -0.9593  1.3702
 9990SOL    HW230870   1.045   6.573   2.511  0.6645 -0.1006 -1.2614
 9991SOL     OW30871   2.045   3.484   1.342  0.3309 -0.3119  0.0280
 9991SOL    HW130872   2.138   3.458   1.367  1.5216  3.2190 -0.1834
 9991SOL    HW230873   1.987   3.484   1.424  1.6528  1.4503  1.0359
 9992SOL     OW30874   2.647   2.916   6.180  1.2199  0.0975  0.6826
 9992SOL    HW130875   2.572   2.852   6.164 -0.0401  1.4813  0.8384
 9992SOL    HW230876   2.681   2.951   6.093  0.7940  0.4459  0.6531
 9993SOL     OW30877   2.549   0.520   3.772  0.3721  0.3801  0.1447
 9993SOL    HW130878   2.478   0.466   3.728  1.2435 -1.2601  0.6827
 9993SOL    HW230879   2.553   0.611   3.730 -0.7190 -0.1632 -1.1893
 9994SOL     OW30880   6.066   4.469   5.327  0.2465  0.5089 -0.0737
 9994SOL    HW130881   6.121   4.419   5.260  0.2910 -1.0159  1.0350
 9994SOL    HW230882   6.126   4.512   5.394  0.1493  0.8549 -0.2043
 9995SOL     OW30883   3.246   2.714   0.141  0.0757 -0.9896  0.2463
 9995SOL    HW130884   3.243   2.705   0.241  0.1141 -0.4206  0.3041
 9995SOL    HW230885   3.334   2.682   0.107  0.5646  0.0152  0.5341
 9996SOL     OW30886   2.311   3.304   0.892 -0.1700 -0.3963 -0.0203
 9996SOL    HW130887   2.376   3.236   0.859  0.2947 -0.6553  1.3646
 9996SOL    HW230888   2.323   3.389   0.841 -0.7577 -1.3220 -1.7724
 9997SOL     OW30889   5.894   0.656   1.929 -0.5061  0.2705  0.0258
 9997SOL    HW130890   5.816   0.679   1.988 -0.1362 -1.1825  1.1613
 9997SOL    HW230891   5.896   0.557   1.915  1.0035  0.3008 -0.1597
 9998SOL     OW30892   6.205   2.365   0.900  0.3972  0.1675 -0.0115
 9998SOL    HW130893   6.267   2.288   0.884  0.6389  0.0801  1.2841
 9998SOL    HW230894   6.230   2.412   0.984 -0.8866  0.5398  0.1861
 9999SOL     OW30895   0.201   1.505   4.450 -0.7524 -0.6678 -0.3416
 9999SOL    HW130896   0.103   1.514   4.466 -0.3619  2.8324  0.8551
 9999SOL    HW230897   0.218   1.506   4.351 -1.8853 -0.1491 -0.5524
10000SOL     OW30898   5.685   3.594   2.044 -0.3928  0.1994 -0.2334
10000SOL    HW130899   5.719   3.568   1.954  0.7565 -0.8445  0.4742
10000SOL    HW230900   5.680   3.693   2.050 -2.4148  0.2888 -2.1185
10001SOL     OW30901   4.499   5.240   0.442 -0.2582 -0.6848 -0.0739
10001SOL    HW130902   4.436   5.235   0.520 -0.0459  0.9890  0.2496
10001SOL    HW230903   4.542   5.151   0.428 -0.1021 -0.9641  1.9019
10002SOL     OW30904   3.084   0.192   3.608 -0.5094 -0.3147 -0.0689
10002SOL    HW130905   3.089   0.093   3.618 -0.8256 -0.3409 -0.1488
10002SOL    HW230906   3.035   0.231   3.686  0.2469 -0.1467  0.3269
10003SOL     OW30907   1.015   2.022   1.196 -0.3664 -0.4277  0.5187
10003SOL    HW130908   1.039   2.079   1.274 -0.0564  0.0574  0.0714
10003SOL    HW230909   0.922   2.044   1.165 -0.2876 -0.2402  0.4149
10004SOL     OW30910   6.859   3.858   3.151  0.1849  0.4862 -1.0989
10004SOL    HW130911   6.776   3.806   3.135  0.5089  0.0358 -1.3490
10004SOL    HW230912   6.928   3.834   3.082  1.3234 -0.8928  0.4238
10005SOL     OW30913   1.435   0.155   3.508  0.6716 -0.0250 -0.2315
10005SOL    HW130914   1.448   0.166   3.607  2.1812  0.4420 -0.4494
10005SOL    HW230915   1.404   0.062   3.489  0.7998 -0.2645  0.6598
10006SOL     OW30916   4.508   3.019   6.235 -0.2686 -0.0260  0.4937
10006SOL    HW130917   4.554   3.107   6.237 -0.5211  0.0940  1.3531
10006SOL    HW230918   4.531   2.971   6.150 -0.0139  0.7975  0.0875
10007SOL     OW30919   2.254   5.229   2.740  0.7547  0.6124  0.7428
10007SOL    HW130920   2.169   5.195   2.780 -0.2184  0.4681 -1.3591
10007SOL    HW230921   2.321   5.155   2.738 -0.5875 -0.6331 -1.6731
10008SOL     OW30922   2.578   0.242   6.467  0.5393 -0.0510  0.1860
10008SOL    HW130923   2.537   0.174   6.528  1.3983 -0.7442  0.0104
10008SOL    HW230924   2.676   0.249   6.487  0.5653  0.7312 -0.1832
10009SOL     OW30925   1.229   6.872   0.638 -0.1340  0.1969  0.0276
10009SOL    HW130926   1.137   6.835   0.626 -0.5236  1.5991 -1.5525
10009SOL    HW230927   1.294   6.819   0.584 -0.2462  0.1663 -0.0765
10010SOL     OW30928   3.062   4.820   2.111  0.0860 -0.4920 -0.5999
10010SOL    HW130929   3.144   4.840   2.165 -0.4576 -2.0132  0.8681
10010SOL    HW230930   2.996   4.771   2.167 -1.5305 -0.0081 -1.9933
10011SOL     OW30931   3.463   1.631   0.199 -0.3078  0.1019 -0.3512
10011SOL    HW130932   3.465   1.701   0.271  0.0465 -0.3165  0.0469
10011SOL    HW230933   3.555   1.593   0.188 -0.5460 -0.4511 -0.4181
10012SOL     OW30934   5.279   3.876   3.961 -0.3690  0.3665 -0.0897
10012SOL    HW130935   5.303   3.810   4.032  1.2332  0.8162 -0.1798
10012SOL    HW230936   5.182   3.866   3.938 -0.2884 -1.5974  0.2546
10013SOL     OW30937   0.860   6.100   0.261  0.1360  0.1404  0.1036
10013SOL    HW130938   0.931   6.164   0.231 -1.2651  2.2227  1.0164
10013SOL    HW230939   0.771   6.131   0.227 -0.9093  0.1005  2.6209
10014SOL     OW30940   1.765   0.800   1.367 -0.3015 -0.1033 -0.1982
10014SOL    HW130941   1.741   0.790   1.463  0.4432 -0.0176  0.0031
10014SOL    HW230942   1.767   0.710   1.323 -3.1918  0.0357 -0.7970
10015SOL     OW30943   3.429   0.134   1.301 -0.2801 -0.8417 -0.1990
10015SOL    HW130944   3.474   0.224   1.297  0.0583 -0.9973  0.0929
10015SOL    HW230945   3.492   0.067   1.339 -0.8844 -0.9811  0.5970
10016SOL     OW30946   3.346   1.536   5.460 -0.2195  0.4175  0.3775
10016SOL    HW130947   3.259   1.493   5.436 -0.4245  0.9587  0.1339
10016SOL    HW230948   3.417   1.504   5.398 -0.5476  1.0716 -0.3508
10017SOL     OW30949   2.599   1.503   3.914  0.1275  0.0539  0.2891
10017SOL    HW130950   2.556   1.582   3.960 -0.9570 -0.6792  0.5796
10017SOL    HW230951   2.554   1.419   3.944  1.0097 -0.6477 -0.3187
10018SOL     OW30952   6.313   3.354   6.222  0.0205  0.2522 -0.0855
10018SOL    HW130953   6.359   3.422   6.279  0.9388 -0.0413 -0.4623
10018SOL    HW230954   6.336   3.262   6.255  0.0913  0.0952 -0.5611
10019SOL     OW30955   1.546   3.294   5.169 -0.3515 -0.2318 -0.4316
10019SOL    HW130956   1.514   3.211   5.214 -1.9081  0.8764  0.5931
10019SOL    HW230957   1.590   3.354   5.236  1.9226 -0.7327 -1.3974
10020SOL     OW30958   5.317   1.530   4.279 -0.4664 -0.3790 -0.6752
10020SOL    HW130959   5.254   1.468   4.327 -0.6333 -0.9418 -1.5882
10020SOL    HW230960   5.296   1.624   4.304 -0.2810 -0.6716  0.6603
10021SOL     OW30961   0.477   4.119   1.756 -0.0094  0.4813 -0.3977
10021SOL    HW130962   0.475   4.111   1.657  1.7354 -1.5012 -0.3451
10021SOL    HW230963   0.572   4.111   1.788 -0.4148  2.1623  1.3748
10022SOL     OW30964   1.566   6.197   0.078  0.0483  0.1694  0.0602
10022SOL    HW130965   1.613   6.285   0.066 -0.0771  0.2428  0.1067
10022SOL    HW230966   1.510   6.201   0.161  0.9601 -0.3473  0.7207
10023SOL     OW30967   2.281   2.349   3.498 -0.1047  0.2434  0.1980
10023SOL    HW130968   2.353   2.295   3.455 -1.1882 -1.2651  0.1964
10023SOL    HW230969   2.192   2.308   3.479 -1.1596  2.8034 -0.9703
10024SOL     OW30970   1.084   5.158   3.703  0.0541  0.0063 -0.4330
10024SOL    HW130971   1.106   5.082   3.763  0.5308 -0.6362 -1.3987
10024SOL    HW230972   1.161   5.222   3.699 -0.8596  1.3438  1.4970
10025SOL     OW30973   0.543   2.214   6.615  0.2961 -0.0938 -0.0534
10025SOL    HW130974   0.591   2.174   6.537  1.6167  0.7076  0.3146
10025SOL    HW230975   0.605   2.220   6.693 -1.2098 -1.6574  1.3751
10026SOL     OW30976   6.011   1.498   6.192  0.1441 -0.1376 -0.7031
10026SOL    HW130977   6.011   1.593   6.222 -1.1766 -0.4936  0.4999
10026SOL    HW230978   5.917   1.465   6.184  0.6006 -1.8054  0.4251
10027SOL     OW30979   3.979   2.627   5.855  0.1494 -0.1456 -0.0254
10027SOL    HW130980   3.957   2.683   5.935  0.0543  3.2116 -2.1857
10027SOL    HW230981   3.897   2.615   5.800  0.7894  0.1725 -1.0663
10028SOL     OW30982   5.217   6.394   0.875 -0.2908 -0.1650  0.4335
10028SOL    HW130983   5.186   6.447   0.954 -2.0798 -2.9367  1.7639
10028SOL    HW230984   5.255   6.307   0.907  0.0499 -0.8518 -1.7349
10029SOL     OW30985   0.153   5.065   3.880 -0.0425 -0.6385 -0.1089
10029SOL    HW130986   0.173   4.990   3.943  1.9756  0.3696  0.5286
10029SOL    HW230987   0.113   5.141   3.930  0.9112 -0.0997 -0.1373
10030SOL     OW30988   1.520   5.360   5.425 -0.0096 -0.3001  0.2753
10030SOL    HW130989   1.532   5.444   5.478 -0.0481  0.4433 -0.8481
10030SOL    HW230990   1.467   5.294   5.478  0.0014  0.3967  1.1734
10031SOL     OW30991   2.259   6.894   3.906  0.2364  0.3503 -0.4326
10031SOL    HW130992   2.159   6.884   3.898  0.3054 -1.7944  0.6888
10031SOL    HW230993   2.301   6.886   3.816 -0.4745 -0.9402 -0.6716
10032SOL     OW30994   1.860   4.272   5.129 -0.2763 -0.5726 -0.1990
10032SOL    HW130995   1.859   4.348   5.064  0.2930  0.0670  0.5199
10032SOL    HW230996   1.950   4.229   5.129 -0.5532 -1.1586 -0.4975
10033SOL     OW30997   2.582   0.665   6.783  0.8191  0.7717 -0.1429
10033SOL    HW130998   2.561   0.753   6.826  0.8008  1.0100 -0.6413
10033SOL    HW230999   2.517   0.647   6.710 -0.7042 -0.7945  1.4995
10034SOL     OW31000   2.321   0.634   2.807  0.5661  0.1906  0.3347
10034SOL    HW131001   2.408   0.635   2.856 -0.1239  0.1877  1.6107
10034SOL    HW231002   2.257   0.575   2.855 -0.2803  0.5449 -0.3377
10035SOL     OW31003   6.991   2.601   2.697 -0.2290  0.2247 -0.5096
10035SOL    HW131004   7.046   2.602   2.614  1.8345  1.6738  0.7827
10035SOL    HW231005   6.996   2.690   2.742  0.1004 -0.9720  2.0145
10036SOL     OW31006   6.795   1.587   0.354 -0.2939  0.1580 -0.4600
10036SOL    HW131007   6.706   1.573   0.309 -0.0491 -0.2025 -0.8395
10036SOL    HW231008   6.808   1.685   0.371 -0.6124  0.2494 -0.7224
10037SOL     OW31009   6.760   0.444   5.557  0.4001 -0.8190  0.3109
10037SOL    HW131010   6.834   0.383   5.528  0.4732 -0.5044 -0.1688
10037SOL    HW231011   6.719   0.488   5.477  0.8638  0.3534  0.6958
10038SOL     OW31012   5.147   6.802   6.556 -0.6027 -0.1634 -0.1976
10038SOL    HW131013   5.203   6.879   6.526  0.1505 -0.5348  0.2114
10038SOL    HW231014   5.148   6.798   6.656 -2.3898  0.5627 -0.1253
10039SOL     OW31015   5.101   3.941   5.839  0.2723  0.9654  0.1264
10039SOL    HW131016   5.193   3.962   5.805  0.6123 -2.4330 -1.4474
10039SOL    HW231017   5.048   3.900   5.765 -0.6170 -2.2541  2.3828
10040SOL     OW31018   4.272   0.361   0.613  0.0966  0.8721 -0.1867
10040SOL    HW131019   4.262   0.425   0.689 -0.7209 -0.5946  1.0023
10040SOL    HW231020   4.185   0.313   0.599  0.7589 -0.1583 -0.8656
10041SOL     OW31021   5.385   4.043   6.280 -0.0324 -0.1348  0.5116
10041SOL    HW131022   5.299   4.091   6.299 -0.2710 -0.2548 -0.2409
10041SOL    HW231023   5.428   4.082   6.199  0.8444  0.2010  1.1195
10042SOL     OW31024   6.288   6.998   5.720 -0.0226  0.4066 -0.2201
10042SOL    HW131025   6.249   6.956   5.802 -1.1987  0.6012 -0.6563
10042SOL    HW231026   6.315   7.092   5.740 -1.6540  0.9425 -0.3945
10043SOL     OW31027   1.170   0.226   2.521 -0.3877 -0.1959 -0.2386
10043SOL    HW131028   1.261   0.184   2.522 -0.5323 -0.5420 -0.8737
10043SOL    HW231029   1.148   0.260   2.612  1.3962  2.1298 -0.5971
10044SOL     OW31030   2.622   1.983   6.971  0.0885  0.0306 -0.1386
10044SOL    HW131031   2.536   1.939   6.998 -0.5600 -0.7533 -3.0253
10044SOL    HW231032   2.699   1.933   7.010 -0.7200 -2.0234 -1.0089
10045SOL     OW31033   3.332   6.623   5.210  0.3603 -0.3049 -0.0524
10045SOL    HW131034   3.269   6.689   5.170 -2.0574 -2.0128  0.7275
10045SOL    HW231035   3.347   6.548   5.146  1.1362 -0.2150  0.0116
10046SOL     OW31036   6.415   3.037   6.267 -0.1212 -0.2691  0.4747
10046SOL    HW131037   6.499   3.076   6.231 -0.3884  0.3141  0.4713
10046SOL    HW231038   6.400   3.069   6.361 -1.7492  1.9221 -0.4359
10047SOL     OW31039   0.028   1.257   4.353  0.4363  0.1476 -0.3468
10047SOL    HW131040   0.045   1.204   4.270 -0.3329  0.6100 -0.8159
10047SOL    HW231041  -0.046   1.322   4.336  1.1850  1.1840  0.3054
10048SOL     OW31042   2.129   2.016   2.811 -0.4704  0.0059  0.4062
10048SOL    HW131043   2.174   2.016   2.721  1.8375 -1.8928  1.4492
10048SOL    HW231044   2.168   2.089   2.868 -1.1906  0.5423  0.2234
10049SOL     OW31045   0.395   4.907   6.311  0.0181  0.2486  0.2445
10049SOL    HW131046   0.351   4.853   6.382  0.8264 -0.1780  0.4253
10049SOL    HW231047   0.459   4.850   6.259  0.3682  0.8572 -0.0101
10050SOL     OW31048   5.479   0.974   4.853 -0.0300 -0.0875 -0.1367
10050SOL    HW131049   5.485   0.878   4.825 -0.3898 -0.4289  0.9192
10050SOL    HW231050   5.384   0.999   4.871  0.1186  0.3168  0.1131
10051SOL     OW31051   6.232   1.857   1.873  0.0864  0.1424 -0.3529
10051SOL    HW131052   6.282   1.775   1.845 -0.5011 -1.1260  2.0477
10051SOL    HW231053   6.297   1.929   1.899  0.6934 -0.8773  1.0639
10052SOL     OW31054   3.962   3.802   1.588  0.0300  0.0865 -0.2404
10052SOL    HW131055   3.871   3.774   1.621  0.7513 -0.5667  1.3044
10052SOL    HW231056   4.013   3.721   1.559 -0.1442  0.5352 -1.8830
10053SOL     OW31057   5.085   6.739   2.359 -0.0257  0.0953  0.2909
10053SOL    HW131058   5.089   6.820   2.300  0.1818  0.4430  0.7719
10053SOL    HW231059   4.995   6.733   2.402 -0.2923 -0.3453 -0.3106
10054SOL     OW31060   4.731   4.762   4.117 -0.9278 -0.2164 -0.3617
10054SOL    HW131061   4.777   4.763   4.206  1.7002 -0.9695 -1.6198
10054SOL    HW231062   4.692   4.852   4.099  1.6182  1.0471  0.0733
10055SOL     OW31063   4.835   3.468   0.526 -0.0244  0.4238  0.1915
10055SOL    HW131064   4.772   3.435   0.455  1.1171 -0.1583 -0.5798
10055SOL    HW231065   4.799   3.443   0.616  0.5111 -2.5425 -0.3168
10056SOL     OW31066   5.263   3.247   3.243  0.9000 -1.0891 -0.0834
10056SOL    HW131067   5.353   3.290   3.232  0.4796 -0.5437 -1.6393
10056SOL    HW231068   5.273   3.160   3.291  2.0480 -0.2968  1.1686
10057SOL     OW31069   2.768   2.251   2.206 -0.0732 -0.3288  0.0746
10057SOL    HW131070   2.817   2.281   2.124 -0.4068  0.2053  0.0703
10057SOL    HW231071   2.684   2.203   2.179  0.7450 -1.8207  0.0627
10058SOL     OW31072   0.491   4.955   3.149  0.4506  0.4642  0.3430
10058SOL    HW131073   0.437   4.916   3.223  0.1944  0.6915  0.2805
10058SOL    HW231074   0.545   5.032   3.183 -0.3052  1.1005  0.1232
10059SOL     OW31075   4.391   5.236   2.387 -0.0934 -0.8347 -0.8849
10059SOL    HW131076   4.343   5.166   2.334 -0.8103  1.9589 -4.2533
10059SOL    HW231077   4.375   5.326   2.346  0.1043  1.5497  3.6184
10060SOL     OW31078   1.812   2.763   1.795  0.1506 -0.1308 -0.8200
10060SOL    HW131079   1.754   2.840   1.821  0.9521  0.6995 -1.4489
10060SOL    HW231080   1.902   2.773   1.838 -0.7239 -2.5330  2.0029
10061SOL     OW31081   0.099   1.435   6.300 -0.6713 -0.4516  0.3473
10061SOL    HW131082   0.161   1.420   6.377  0.3341 -3.5146 -0.8954
10061SOL    HW231083   0.029   1.364   6.300 -0.9361 -0.2162 -1.2932
10062SOL     OW31084   6.313   5.747   3.494 -0.1039 -0.2688 -0.1206
10062SOL    HW131085   6.286   5.842   3.504 -1.9425 -0.9112  1.7694
10062SOL    HW231086   6.396   5.741   3.438  0.0283  2.3952 -0.3142
10063SOL     OW31087   0.866   2.426   2.031 -0.5749  0.2168 -0.2608
10063SOL    HW131088   0.954   2.428   1.984 -1.0380  0.4831 -1.1397
10063SOL    HW231089   0.828   2.333   2.026 -0.3545  0.1094  0.0908
10064SOL     OW31090   6.180   4.540   0.209  0.3085 -0.1563  0.5151
10064SOL    HW131091   6.147   4.512   0.118  2.2619  1.2077 -0.6896
10064SOL    HW231092   6.106   4.584   0.259 -0.6311 -0.2946 -0.6991
10065SOL     OW31093   1.932   5.444   0.854  0.0665  0.3356 -0.5037
10065SOL    HW131094   1.907   5.357   0.895 -1.3289  1.2544  0.6782
10065SOL    HW231095   2.029   5.463   0.873  0.3263 -0.8364 -0.6017
10066SOL     OW31096   5.574   0.463   4.153 -0.2998  0.1920 -0.5290
10066SOL    HW131097   5.636   0.491   4.080  0.6102  0.3907  0.2913
10066SOL    HW231098   5.611   0.382   4.200 -1.2912 -0.4464 -0.8132
10067SOL     OW31099   4.495   6.005   4.546 -0.0410 -0.1139 -0.2296
10067SOL    HW131100   4.537   5.932   4.599 -0.1494 -0.4630 -0.6218
10067SOL    HW231101   4.523   5.998   4.450 -0.0555  0.3544 -0.2718
10068SOL     OW31102   5.038   2.548   4.645 -0.1073  0.1414 -0.6710
10068SOL    HW131103   5.030   2.647   4.659  0.0136  0.5078 -2.8420
10068SOL    HW231104   5.134   2.524   4.630  0.0053 -0.5004  0.9365
10069SOL     OW31105   4.866   1.794   5.010 -0.7376  0.1216  0.1644
10069SOL    HW131106   4.851   1.866   4.943 -0.0026  1.0800  0.9999
10069SOL    HW231107   4.778   1.768   5.050 -0.8388  1.9774  1.2644
10070SOL     OW31108   1.399   0.721   4.181 -0.2028  0.3358  0.4527
10070SOL    HW131109   1.361   0.813   4.187 -1.1847 -0.0989  1.3670
10070SOL    HW231110   1.340   0.664   4.124 -1.3784 -0.5118  2.3916
10071SOL     OW31111   4.408   4.986   5.516  0.6112 -0.1284 -0.0617
10071SOL    HW131112   4.432   5.001   5.612 -0.4891 -0.7461  0.3323
10071SOL    HW231113   4.349   4.906   5.509  0.8606 -0.2213 -1.2912
10072SOL     OW31114   6.543   0.434   5.262  0.0444 -0.3176 -0.0851
10072SOL    HW131115   6.536   0.362   5.331 -0.2624 -0.1734  0.0373
10072SOL    HW231116   6.561   0.393   5.173 -1.9951 -0.7165 -0.3616
10073SOL     OW31117   6.256   4.566   5.540  0.7459  0.0366 -0.2691
10073SOL    HW131118   6.333   4.517   5.499  2.1728  0.6087  1.5660
10073SOL    HW231119   6.280   4.593   5.633 -1.1409  1.5514 -0.1609
10074SOL     OW31120   3.310   6.259   5.277  0.2187 -0.5401 -0.9102
10074SOL    HW131121   3.295   6.337   5.216 -0.8217  1.1824  1.4108
10074SOL    HW231122   3.230   6.245   5.335  0.5869 -3.0504 -0.8532
10075SOL     OW31123   1.218   1.966   2.290 -0.3641 -0.1980 -0.0587
10075SOL    HW131124   1.129   1.973   2.246  0.7547  0.9198 -2.2945
10075SOL    HW231125   1.227   2.037   2.359 -1.4632 -0.8294  0.7798
10076SOL     OW31126   5.610   6.910   3.674  0.1620  0.2497 -0.2191
10076SOL    HW131127   5.613   6.865   3.764  1.3630 -0.4100 -0.5632
10076SOL    HW231128   5.561   6.997   3.682 -1.3588 -0.6412  0.6693
10077SOL     OW31129   0.924   1.875   4.352 -0.4263 -0.2218 -0.4105
10077SOL    HW131130   0.842   1.820   4.367  0.1049 -0.8705  0.1878
10077SOL    HW231131   0.922   1.955   4.411  0.2842 -1.2605  1.0746
10078SOL     OW31132   5.641   5.976   3.998 -0.1744 -0.3915 -1.0548
10078SOL    HW131133   5.689   5.896   3.963  0.2472 -0.3806 -0.5345
10078SOL    HW231134   5.655   6.054   3.936 -0.3909 -0.6571 -1.4390
10079SOL     OW31135   1.559   2.000   5.764  0.0562  0.1480 -0.7074
10079SOL    HW131136   1.496   2.064   5.808 -0.5695 -0.9072 -0.0134
10079SOL    HW231137   1.548   2.004   5.665 -1.7285 -0.5966 -0.5765
10080SOL     OW31138   6.763   1.412   4.888  0.1900  0.0765 -0.5154
10080SOL    HW131139   6.702   1.490   4.871 -0.6210 -0.4701 -0.1469
10080SOL    HW231140   6.716   1.344   4.943  1.2085 -0.2744 -0.0571
10081SOL     OW31141   6.028   6.453   6.773 -0.0661 -0.4918 -0.4486
10081SOL    HW131142   6.075   6.541   6.774  0.1056 -0.5918  0.0186
10081SOL    HW231143   6.093   6.379   6.789 -0.5911 -0.5345  1.7270
10082SOL     OW31144   0.005   2.446   6.482 -0.2084 -0.1320 -0.2525
10082SOL    HW131145  -0.059   2.502   6.536  1.6710  0.1752  1.7871
10082SOL    HW231146   0.084   2.502   6.456  0.0581 -0.9497 -1.2298
10083SOL     OW31147   6.946   0.862   4.253 -0.0325 -0.5862 -0.5686
10083SOL    HW131148   6.932   0.764   4.268  0.3851 -0.7416 -1.1646
10083SOL    HW231149   7.037   0.888   4.284 -0.2759 -0.3002 -0.0642
10084SOL     OW31150   3.067   6.440   6.871 -0.3014  0.4147 -0.0933
10084SOL    HW131151   3.110   6.365   6.821 -2.6665 -0.3410 -1.1406
10084SOL    HW231152   3.022   6.501   6.806  1.5069  2.8133  0.7321
10085SOL     OW31153   0.921   5.864   3.206  0.3906 -0.3025 -0.3599
10085SOL    HW131154   0.873   5.783   3.171 -0.6620 -0.1171  0.6081
10085SOL    HW231155   0.969   5.909   3.130  0.9529 -1.7852 -0.9236
10086SOL     OW31156   1.945   0.342   3.122  0.3699  0.4762  0.0714
10086SOL    HW131157   1.978   0.416   3.064  1.7249 -0.9777 -1.0999
10086SOL    HW231158   1.852   0.317   3.096  1.2600 -0.7500 -2.1655
10087SOL     OW31159   3.208   6.519   2.614 -0.0340  0.0282 -0.1664
10087SOL    HW131160   3.121   6.530   2.565  1.1678 -0.1973 -2.4973
10087SOL    HW231161   3.280   6.569   2.565  1.4659 -1.0956  0.8202
10088SOL     OW31162   5.642   0.474   5.623 -0.1007  0.0508  0.0559
10088SOL    HW131163   5.741   0.479   5.627 -0.0505  0.1527 -1.1364
10088SOL    HW231164   5.605   0.565   5.601 -0.3992 -0.1812 -0.4140
10089SOL     OW31165   2.055   2.726   1.902  0.2094  0.0169 -0.0762
10089SOL    HW131166   2.113   2.805   1.918 -0.4019  0.9165 -1.9730
10089SOL    HW231167   2.110   2.650   1.869  0.6852 -0.0944  0.9483
10090SOL     OW31168   1.743   6.096   2.044  0.6669 -0.2386  0.2378
10090SOL    HW131169   1.754   6.112   1.946  1.5986 -1.6944  0.0766
10090SOL    HW231170   1.799   6.161   2.095 -0.6300  1.2159 -0.1323
10091SOL     OW31171   7.013   2.630   3.593  0.3779 -0.2057  0.3417
10091SOL    HW131172   7.112   2.620   3.584  0.7890  1.8045  1.9593
10091SOL    HW231173   6.992   2.705   3.656 -2.1886 -0.7800  0.2931
10092SOL     OW31174   2.959   2.119   4.154 -0.0756 -0.3435 -0.0687
10092SOL    HW131175   2.863   2.100   4.172 -0.0690 -2.1399 -1.6123
10092SOL    HW231176   2.969   2.165   4.066  0.5006 -0.6363 -0.1649
10093SOL     OW31177   0.543   0.777   0.372 -0.0609  0.2127 -0.4450
10093SOL    HW131178   0.623   0.719   0.356  0.0487  0.1915  0.1553
10093SOL    HW231179   0.557   0.832   0.454 -0.2104  1.0243 -0.9555
10094SOL     OW31180   3.026   6.064   0.904 -0.3493 -0.0929 -0.1560
10094SOL    HW131181   3.092   6.103   0.968 -0.6977 -0.2544  0.3076
10094SOL    HW231182   2.965   6.002   0.953  0.0068 -0.9976 -0.8273
10095SOL     OW31183   0.844   2.153   3.025  0.4731 -0.0613 -0.1788
10095SOL    HW131184   0.892   2.241   3.018 -1.2306  0.8785 -0.4315
10095SOL    HW231185   0.905   2.086   3.068  1.3737  1.5746  1.2240
10096SOL     OW31186   0.274   4.834   2.117  0.2203  0.1677  0.0688
10096SOL    HW131187   0.237   4.742   2.112  1.0650 -0.1262 -2.4754
10096SOL    HW231188   0.238   4.889   2.041 -0.8435  2.2059  1.9343
10097SOL     OW31189   0.056   1.088   6.237  0.2543 -0.2673  0.3249
10097SOL    HW131190  -0.028   1.104   6.289 -2.7337 -3.0929 -3.1129
10097SOL    HW231191   0.065   1.157   6.165 -0.5415 -1.3552 -0.8432
10098SOL     OW31192   2.783   5.118   5.657  0.5517  0.2122  0.3766
10098SOL    HW131193   2.730   5.033   5.651  1.0615 -0.0925  0.1934
10098SOL    HW231194   2.800   5.153   5.565  0.0699  0.6928  0.4586
10099SOL     OW31195   0.219   2.022   3.678  0.2108 -0.1580  0.2503
10099SOL    HW131196   0.308   2.066   3.686 -0.1237  1.0323 -1.7339
10099SOL    HW231197   0.149   2.079   3.719  0.0933 -0.0055 -0.1530
10100SOL     OW31198   3.683   0.097   5.386 -0.0504  0.9155 -0.5460
10100SOL    HW131199   3.783   0.089   5.385 -0.0466  0.3388  1.4891
10100SOL    HW231200   3.642   0.006   5.381 -0.4140  0.9794  0.8722
10101SOL     OW31201   5.124   3.146   1.484 -0.5353  0.4918 -0.3858
10101SOL    HW131202   5.089   3.176   1.573 -1.3968  0.5889 -0.7513
10101SOL    HW231203   5.183   3.218   1.446 -0.9725  0.8756 -0.3454
10102SOL     OW31204   4.116   5.884   3.796 -0.5332 -0.1223 -0.1166
10102SOL    HW131205   4.129   5.965   3.739  1.4425 -0.5109 -0.2759
10102SOL    HW231206   4.123   5.802   3.740 -1.2024 -0.4580  0.2714
10103SOL     OW31207   0.220   1.730   0.784  0.1091  0.5339 -0.8915
10103SOL    HW131208   0.240   1.826   0.801 -1.3629  1.3626 -3.3266
10103SOL    HW231209   0.292   1.690   0.728  1.5280 -0.3107  1.3943
10104SOL     OW31210   1.331   6.194   0.252 -0.3308 -0.5144  0.3206
10104SOL    HW131211   1.307   6.114   0.197 -0.2629 -0.1154 -0.3083
10104SOL    HW231212   1.357   6.166   0.344 -0.1044 -1.2287  0.0425
10105SOL     OW31213   4.474   0.492   1.648  0.7199 -0.1674 -0.1880
10105SOL    HW131214   4.449   0.402   1.612 -1.2355  0.3819 -0.3431
10105SOL    HW231215   4.523   0.544   1.577  3.7154 -1.7468  0.5577
10106SOL     OW31216   3.619   4.427   0.349  0.1389 -0.5222  0.0668
10106SOL    HW131217   3.576   4.363   0.285 -0.3242 -0.1664  0.0176
10106SOL    HW231218   3.631   4.516   0.305  0.8204 -0.5818  0.1216
10107SOL     OW31219   6.537   1.334   0.397 -0.3599 -0.0170 -0.0331
10107SOL    HW131220   6.553   1.412   0.336  0.8562  0.4836  0.8779
10107SOL    HW231221   6.616   1.274   0.396  0.3788  0.8173  2.1805
10108SOL     OW31222   6.600   5.850   2.287 -0.1907 -0.2182  0.3677
10108SOL    HW131223   6.582   5.755   2.258  1.4978 -0.1492 -1.0441
10108SOL    HW231224   6.548   5.869   2.371  0.3860 -2.7924  1.4164
10109SOL     OW31225   4.358   5.079   6.341 -0.9522 -0.6105 -0.1089
10109SOL    HW131226   4.355   5.178   6.353  2.8962 -0.4655  1.0946
10109SOL    HW231227   4.343   5.034   6.428  0.0088 -0.9221 -0.0941
10110SOL     OW31228   5.685   1.331   6.332  0.4745 -0.4315 -0.0696
10110SOL    HW131229   5.621   1.380   6.391  0.6558 -0.8681  0.4985
10110SOL    HW231230   5.681   1.369   6.239  0.1929  0.2607  0.2227
10111SOL     OW31231   0.682   3.976   2.454 -0.1217  0.1713 -0.3221
10111SOL    HW131232   0.773   4.002   2.486 -1.0106 -0.6557  3.3888
10111SOL    HW231233   0.616   4.045   2.483 -0.7239  1.0543 -3.4708
10112SOL     OW31234   4.318   2.500   0.298 -0.3861 -0.3126 -0.1526
10112SOL    HW131235   4.342   2.465   0.388 -0.1382 -0.3149 -0.2173
10112SOL    HW231236   4.329   2.600   0.297  2.1942 -0.5176 -0.9153
10113SOL     OW31237   1.096   5.436   2.485 -0.5198 -0.4355  0.8629
10113SOL    HW131238   1.050   5.352   2.514 -0.0593 -1.0063  0.0005
10113SOL    HW231239   1.147   5.418   2.401 -1.9075  1.1591 -0.3875
10114SOL     OW31240   3.242   0.975   0.156 -0.3669  0.1691 -0.2350
10114SOL    HW131241   3.335   1.002   0.181 -1.6874  5.4444  0.2774
10114SOL    HW231242   3.232   0.980   0.057 -0.1070 -0.3976 -0.2902
10115SOL     OW31243   1.858   0.404   4.424 -0.4561  0.2435  0.2910
10115SOL    HW131244   1.816   0.464   4.491  0.2316  0.2409  0.7338
10115SOL    HW231245   1.853   0.446   4.333 -0.8101  0.5384  0.4482
10116SOL     OW31246   7.015   0.881   6.594  0.2786 -0.2362  0.1666
10116SOL    HW131247   6.971   0.873   6.505 -1.0258  0.4837  0.7237
10116SOL    HW231248   7.095   0.821   6.597  0.1447 -0.5260 -1.3567
10117SOL     OW31249   4.770   6.226   6.207  0.1172 -0.1602 -0.0527
10117SOL    HW131250   4.816   6.294   6.263  0.6304  0.0596 -0.7318
10117SOL    HW231251   4.803   6.135   6.231 -0.3450 -0.1536  0.6411
10118SOL     OW31252   6.250   4.405   3.681 -0.1500  0.0709  0.1741
10118SOL    HW131253   6.304   4.347   3.742  0.6185 -0.3873 -0.9214
10118SOL    HW231254   6.211   4.481   3.734 -0.0310 -0.6616  1.3520
10119SOL     OW31255   3.043   6.596   0.219  0.1266 -0.5238 -0.2174
10119SOL    HW131256   3.113   6.525   0.228  0.2264 -0.2487  1.5132
10119SOL    HW231257   3.055   6.643   0.132  2.4828 -0.1250  0.2494
10120SOL     OW31258   5.649   2.985   4.121 -0.0152  0.0173  0.1088
10120SOL    HW131259   5.681   3.028   4.205 -3.8815  0.6025  1.4345
10120SOL    HW231260   5.675   3.042   4.043 -0.1895  1.8277  1.3223
10121SOL     OW31261   4.247   4.033   6.925  0.0782 -0.5712 -0.2019
10121SOL    HW131262   4.310   4.014   6.850 -0.0017 -2.1468  0.0952
10121SOL    HW231263   4.159   3.988   6.907 -0.5364  0.4710  0.0390
10122SOL     OW31264   5.538   5.142   1.380  0.4062  0.4268  0.3093
10122SOL    HW131265   5.478   5.190   1.442  0.0745 -0.6193  0.8263
10122SOL    HW231266   5.580   5.064   1.427 -0.0706 -0.5599 -0.8374
10123SOL     OW31267   1.458   6.911   6.258  0.5518  0.2121 -0.2203
10123SOL    HW131268   1.388   6.982   6.255 -1.0803 -1.3648 -1.4679
10123SOL    HW231269   1.543   6.950   6.294 -0.5530  2.5150  0.0886
10124SOL     OW31270   3.660   4.191   0.920 -1.2001  0.1349 -0.1645
10124SOL    HW131271   3.717   4.144   0.987  0.6912  2.4623 -0.0275
10124SOL    HW231272   3.576   4.224   0.964 -2.7884 -3.2496 -0.3532
10125SOL     OW31273   3.228   6.535   1.288  0.7701 -0.2435 -0.2538
10125SOL    HW131274   3.222   6.596   1.366  0.8312 -0.2673 -0.2304
10125SOL    HW231275   3.198   6.443   1.314 -1.1447  0.1951 -0.7570
10126SOL     OW31276   5.231   3.854   5.104 -0.1505 -0.3662 -0.2175
10126SOL    HW131277   5.262   3.852   5.199 -0.6200  0.3901 -0.0434
10126SOL    HW231278   5.153   3.792   5.093 -1.0527  0.6634  0.2446
10127SOL     OW31279   5.280   4.187   6.605  0.5030  0.3297 -0.6108
10127SOL    HW131280   5.271   4.204   6.507 -3.2541  1.7741 -0.2008
10127SOL    HW231281   5.318   4.267   6.650 -1.3657  1.2163 -0.5355
10128SOL     OW31282   2.333   0.618   0.335 -0.4123 -0.5832  0.4421
10128SOL    HW131283   2.334   0.551   0.409  0.0191 -0.1686  0.8181
10128SOL    HW231284   2.426   0.654   0.321 -0.8734  0.9941  1.2198
10129SOL     OW31285   3.192   1.536   2.134  0.3789  0.2512 -0.0334
10129SOL    HW131286   3.281   1.567   2.166  0.0872 -1.2484  2.5013
10129SOL    HW231287   3.120   1.579   2.188 -0.2894 -0.6412 -0.1950
10130SOL     OW31288   5.781   4.031   2.679  0.3402  0.4781 -0.3224
10130SOL    HW131289   5.839   4.040   2.760 -0.1117  0.6739 -0.0102
10130SOL    HW231290   5.729   3.945   2.685 -1.8586  1.7990  1.0730
10131SOL     OW31291   5.911   0.522   5.683  0.2969 -0.1418 -0.2273
10131SOL    HW131292   5.902   0.621   5.675 -0.2895 -0.2315 -0.7337
10131SOL    HW231293   5.986   0.491   5.624  0.2473 -0.0409 -0.3441
10132SOL     OW31294   2.265   6.671   2.160 -0.1232  0.0631 -0.6405
10132SOL    HW131295   2.254   6.705   2.067 -1.5555 -2.2810 -1.4176
10132SOL    HW231296   2.192   6.708   2.218 -0.5328 -0.1822 -0.9968
10133SOL     OW31297   0.225   4.429   2.710  0.4707  0.3565 -0.3260
10133SOL    HW131298   0.216   4.457   2.806 -0.4554 -2.2972  0.4557
10133SOL    HW231299   0.318   4.395   2.694 -0.0325 -1.4632  0.3700
10134SOL     OW31300   1.968   0.085   0.287 -0.0817 -0.3272 -0.3284
10134SOL    HW131301   1.964   0.128   0.197  0.3169 -0.4696 -0.4175
10134SOL    HW231302   2.054   0.110   0.332  0.0555 -0.8530 -0.2950
10135SOL     OW31303   5.175   6.686   1.952 -0.1659  0.1137  0.3556
10135SOL    HW131304   5.110   6.729   1.890 -1.5729  0.1413  1.8020
10135SOL    HW231305   5.134   6.605   1.994  1.7052 -1.4879 -0.7309
10136SOL     OW31306   6.322   2.270   2.945  0.3807  0.1401  0.5849
10136SOL    HW131307   6.242   2.273   2.885  0.9399  0.7525 -0.1544
10136SOL    HW231308   6.354   2.363   2.962  2.2871 -0.1519 -1.0077
10137SOL     OW31309   4.792   4.445   3.104 -0.6326 -0.1179 -0.2852
10137SOL    HW131310   4.801   4.359   3.154 -3.4225 -0.0223  0.5385
10137SOL    HW231311   4.759   4.426   3.012  0.5871 -0.0090 -0.7664
10138SOL     OW31312   0.380   3.423   4.629  0.1990 -0.2200  0.3284
10138SOL    HW131313   0.393   3.423   4.728  1.6497 -0.1040  0.1720
10138SOL    HW231314   0.345   3.334   4.600  1.6370 -0.9618  0.7642
10139SOL     OW31315   3.697   2.900   4.840 -0.7201 -0.0640  0.2426
10139SOL    HW131316   3.743   2.832   4.782 -0.3717 -0.1563  0.6251
10139SOL    HW231317   3.742   2.988   4.830  0.7487 -0.5572  2.0221
10140SOL     OW31318   1.986   4.841   5.717  0.1653 -0.2942  0.7358
10140SOL    HW131319   2.068   4.877   5.672  2.2268 -1.2708  3.4240
10140SOL    HW231320   2.013   4.788   5.797 -3.0157 -2.7794  0.3695
10141SOL     OW31321   0.391   6.963   4.802  0.3358 -0.5259 -0.3578
10141SOL    HW131322   0.392   6.863   4.802  0.2455 -0.5603  1.3391
10141SOL    HW231323   0.411   6.997   4.710 -0.8094 -2.0970 -1.2217
10142SOL     OW31324   5.321   5.354   3.947  0.0489 -0.2621 -0.1542
10142SOL    HW131325   5.258   5.373   4.022 -0.4775 -0.3853 -0.5560
10142SOL    HW231326   5.394   5.293   3.979  0.7049  0.8973  0.6515
10143SOL     OW31327   5.543   5.976   0.336 -0.6852 -0.6224 -0.1922
10143SOL    HW131328   5.463   5.986   0.278 -2.5792 -1.7099  2.0705
10143SOL    HW231329   5.530   5.898   0.398  1.6794 -0.2064  0.9582
10144SOL     OW31330   1.937   5.632   3.315 -0.3584 -0.2318  0.6729
10144SOL    HW131331   2.013   5.697   3.320 -1.7667  1.6483 -1.0989
10144SOL    HW231332   1.901   5.616   3.407 -0.6969  2.4177  1.0857
10145SOL     OW31333   3.225   6.247   6.097  1.3030 -0.1055  0.0331
10145SOL    HW131334   3.146   6.185   6.103 -0.3490  1.0879 -4.7138
10145SOL    HW231335   3.215   6.320   6.164 -2.7330  0.9645 -1.4348
10146SOL     OW31336   5.861   5.255   6.764 -0.2637 -0.9520 -0.2631
10146SOL    HW131337   5.926   5.180   6.775 -0.0348 -0.9008 -1.1802
10146SOL    HW231338   5.863   5.287   6.670 -0.5349  0.0532  0.0655
10147SOL     OW31339   4.546   6.765   5.166 -1.0220  0.1246  0.6238
10147SOL    HW131340   4.633   6.720   5.186 -0.3181  1.2905  0.2348
10147SOL    HW231341   4.491   6.706   5.107  0.1017 -0.0131 -0.3114
10148SOL     OW31342   5.691   0.176   2.413 -0.0018 -0.4573  0.1772
10148SOL    HW131343   5.622   0.199   2.482 -1.7613 -1.5953 -1.1282
10148SOL    HW231344   5.670   0.087   2.373  2.5695 -1.0922  0.0905
10149SOL     OW31345   3.859   2.884   1.924 -0.0728  0.0939 -0.6507
10149SOL    HW131346   3.772   2.932   1.908  0.0978  0.6056 -0.0678
10149SOL    HW231347   3.890   2.902   2.017  0.6900 -0.0463 -0.8766
10150SOL     OW31348   6.426   5.076   0.463 -0.5465  0.6985 -0.3170
10150SOL    HW131349   6.434   4.985   0.505 -1.2845 -0.1660 -1.9579
10150SOL    HW231350   6.388   5.140   0.530 -0.7326 -0.3739  0.6457
10151SOL     OW31351   1.683   3.583   6.449  0.5569 -0.4818  0.0630
10151SOL    HW131352   1.632   3.557   6.368 -0.0605  2.8217 -0.7673
10151SOL    HW231353   1.640   3.544   6.530 -0.3053 -1.7789 -0.9823
10152SOL     OW31354   6.859   6.520   4.085 -0.0218 -0.2054  0.1373
10152SOL    HW131355   6.811   6.608   4.092 -0.9547 -0.8123  2.0358
10152SOL    HW231356   6.957   6.537   4.081 -0.2342  0.9615 -1.0333
10153SOL     OW31357   6.126   5.006   5.177 -0.4583 -0.0506 -0.1213
10153SOL    HW131358   6.115   4.910   5.151 -1.6692 -0.2479  0.9987
10153SOL    HW231359   6.054   5.061   5.134 -0.2407  0.2216 -0.1367
10154SOL     OW31360   6.620   5.242   5.408 -0.1637  0.0959  0.1364
10154SOL    HW131361   6.711   5.236   5.448  0.1252  0.8228 -0.3857
10154SOL    HW231362   6.610   5.173   5.337 -0.1278 -0.1721  0.3881
10155SOL     OW31363   4.381   2.355   4.827  0.4142 -0.0313  0.1194
10155SOL    HW131364   4.326   2.391   4.902 -1.8423  1.8543 -2.2779
10155SOL    HW231365   4.463   2.411   4.815  2.5162 -2.1746  2.9680
10156SOL     OW31366   0.374   6.682   1.720 -0.0271 -0.0335 -0.0058
10156SOL    HW131367   0.467   6.699   1.687 -0.0499  0.5859  0.2532
10156SOL    HW231368   0.321   6.638   1.647  0.4120 -0.2139 -0.2192
10157SOL     OW31369   3.328   0.118   3.270  0.0953  0.2930 -0.6751
10157SOL    HW131370   3.250   0.156   3.221  0.8324  0.2344 -1.9691
10157SOL    HW231371   3.309   0.023   3.295 -0.5390  0.5228 -0.2651
10158SOL     OW31372   5.279   5.176   6.787  0.3395  0.1445  0.7329
10158SOL    HW131373   5.301   5.191   6.883  1.9181 -1.6070  0.7158
10158SOL    HW231374   5.186   5.207   6.768  0.0205  0.5727  2.7935
10159SOL     OW31375   6.982   1.782   1.532  0.3468  0.6467 -0.2285
10159SOL    HW131376   7.020   1.813   1.445  0.6694  0.8514 -0.0149
10159SOL    HW231377   7.015   1.690   1.553  0.6144  0.7703 -0.1095
10160SOL     OW31378   1.549   0.661   2.844 -0.9304  0.3048 -0.1174
10160SOL    HW131379   1.569   0.748   2.799  1.3800 -0.7331 -1.2685
10160SOL    HW231380   1.516   0.596   2.776  1.6458 -0.9890 -0.2378
10161SOL     OW31381   1.784   4.871   3.903  0.3148 -0.2925 -0.4082
10161SOL    HW131382   1.808   4.843   3.810  1.8894  1.9271 -0.7390
10161SOL    HW231383   1.819   4.962   3.921 -0.8052 -0.2592  2.0730
10162SOL     OW31384   3.174   3.015   5.270  0.2054 -0.6145  0.8221
10162SOL    HW131385   3.074   3.012   5.268  0.2046 -0.4556  0.5897
10162SOL    HW231386   3.208   3.070   5.193  0.5194 -1.6734  0.1866
10163SOL     OW31387   0.276   2.567   5.028 -0.3363  0.4783  0.3623
10163SOL    HW131388   0.324   2.652   5.049 -2.0557  1.4018  0.7086
10163SOL    HW231389   0.193   2.560   5.084  0.1279 -1.7993  0.8960
10164SOL     OW31390   2.207   2.962   5.322  0.0951 -0.4204 -0.6750
10164SOL    HW131391   2.269   2.992   5.250  0.2512  1.5135  0.1811
10164SOL    HW231392   2.203   2.862   5.325  0.4975 -0.5563 -2.9665
10165SOL     OW31393   0.735   3.636   4.258 -0.3867  0.7777  0.2038
10165SOL    HW131394   0.682   3.703   4.311 -1.2117 -0.4265  0.9593
10165SOL    HW231395   0.804   3.595   4.316 -0.9365 -0.1616  0.2152
10166SOL     OW31396   0.836   3.160   1.523 -0.5131 -0.2189  0.3668
10166SOL    HW131397   0.915   3.103   1.544  0.0845  0.2140 -0.6232
10166SOL    HW231398   0.771   3.156   1.599  1.2336  0.7762  2.0169
10167SOL     OW31399   4.554   0.840   0.182  0.1700 -0.0213 -0.3004
10167SOL    HW131400   4.647   0.809   0.205 -0.2920 -0.7585  0.6530
10167SOL    HW231401   4.489   0.768   0.204 -0.7374  0.8691  0.0076
10168SOL     OW31402   5.574   6.616   6.138  0.3403 -0.5190  0.3711
10168SOL    HW131403   5.611   6.709   6.131 -0.1196 -0.3790 -0.2548
10168SOL    HW231404   5.494   6.607   6.079  1.1758 -1.7060 -0.6544
10169SOL     OW31405   0.154   5.164   4.318  0.2458  0.1385 -0.3761
10169SOL    HW131406   0.072   5.135   4.367  2.1515 -1.2031  2.2449
10169SOL    HW231407   0.176   5.098   4.246 -0.8072  0.4093 -0.9692
10170SOL     OW31408   1.801   2.577   3.682 -0.1568  0.3412  0.1234
10170SOL    HW131409   1.891   2.598   3.643 -0.1402  0.6118  0.3094
10170SOL    HW231410   1.734   2.569   3.608 -0.1274  0.8698  0.0394
10171SOL     OW31411   1.932   1.345   5.413 -0.3135  0.4914  0.0267
10171SOL    HW131412   1.924   1.444   5.423 -0.1093  0.4459  0.7004
10171SOL    HW231413   2.022   1.323   5.376  0.3351  0.4774  1.5253
10172SOL     OW31414   4.526   1.481   5.092 -0.2347 -0.2750  0.1891
10172SOL    HW131415   4.625   1.480   5.081 -0.3714 -0.9566 -1.1206
10172SOL    HW231416   4.501   1.437   5.178  0.5382 -1.4734 -0.1726
10173SOL     OW31417   6.572   4.164   1.982  0.6144  0.1556 -0.3444
10173SOL    HW131418   6.541   4.203   2.069  0.2671 -1.4300  0.2853
10173SOL    HW231419   6.586   4.237   1.915 -1.4032  1.2391  0.3268
10174SOL     OW31420   6.042   4.201   0.316 -0.3039  0.0799 -0.8272
10174SOL    HW131421   5.957   4.165   0.279 -0.0602 -0.3687 -0.9574
10174SOL    HW231422   6.119   4.165   0.263  0.3427 -3.2718  2.0567
10175SOL     OW31423   1.877   1.508   6.939  0.2538  0.0383 -0.4894
10175SOL    HW131424   1.955   1.449   6.916 -0.4484 -0.2543 -2.2931
10175SOL    HW231425   1.835   1.542   6.855 -1.0797  0.8507  0.4686
10176SOL     OW31426   2.443   2.975   5.576  0.3342 -0.6838  0.5771
10176SOL    HW131427   2.378   3.029   5.629  1.4860  0.7685  0.5850
10176SOL    HW231428   2.464   3.022   5.490  4.4115  1.1480  2.2945
10177SOL     OW31429   6.354   0.960   4.584 -0.0672 -0.3615  0.2411
10177SOL    HW131430   6.254   0.962   4.591 -0.0546  1.3349  0.2939
10177SOL    HW231431   6.392   1.038   4.633  1.1084  0.6479 -2.1302
10178SOL     OW31432   5.339   3.246   4.836 -0.7396 -0.1176 -0.3612
10178SOL    HW131433   5.293   3.206   4.756 -2.2115  0.1097  0.3363
10178SOL    HW231434   5.398   3.321   4.806 -0.0577 -1.0328 -1.3936
10179SOL     OW31435   1.211   2.702   0.013  0.1163  0.2019 -0.2745
10179SOL    HW131436   1.302   2.662   0.023 -0.3864 -0.9970 -0.4400
10179SOL    HW231437   1.146   2.632  -0.015 -0.5976  1.3379 -1.5650
10180SOL     OW31438   1.281   0.259   6.471  0.4756 -0.4405  0.1447
10180SOL    HW131439   1.379   0.263   6.455  0.7131 -2.3186  0.7636
10180SOL    HW231440   1.264   0.255   6.570  0.1072 -3.8571  0.0669
10181SOL     OW31441   5.173   2.721   2.144  0.0891 -0.5849 -0.0412
10181SOL    HW131442   5.127   2.796   2.190  1.1351  2.2131 -3.2017
10181SOL    HW231443   5.114   2.641   2.143 -1.6375  0.5538  2.2592
10182SOL     OW31444   2.046   0.460   0.430  0.6682  0.0711  0.1873
10182SOL    HW131445   2.044   0.529   0.358  1.5008 -0.8040 -0.7058
10182SOL    HW231446   2.019   0.502   0.517 -0.2339  1.1768 -0.5859
10183SOL     OW31447   2.462   2.042   6.481  0.1702  0.6024  0.2508
10183SOL    HW131448   2.407   2.021   6.562 -0.7808  2.2807  0.0819
10183SOL    HW231449   2.552   2.077   6.510  0.1325  0.4296  0.5724
10184SOL     OW31450   4.955   6.543   6.930  0.0469 -0.2802 -0.0082
10184SOL    HW131451   4.946   6.615   6.861 -1.0826  0.6135  1.0174
10184SOL    HW231452   4.954   6.584   7.021 -0.8646 -1.6124  0.6172
10185SOL     OW31453   5.662   0.733   5.467  0.3832 -0.0056 -0.5488
10185SOL    HW131454   5.710   0.700   5.386  2.2204  1.6597 -0.2091
10185SOL    HW231455   5.709   0.814   5.503 -1.8529  0.8170  0.7057
10186SOL     OW31456   5.591   2.138   3.168 -0.4435  0.7273  0.1955
10186SOL    HW131457   5.523   2.078   3.126 -0.4140  0.4323  0.5587
10186SOL    HW231458   5.546   2.210   3.220 -0.4787  0.6840  0.2247
10187SOL     OW31459   0.116   1.822   3.488 -0.3002 -0.3424  0.2743
10187SOL    HW131460   0.195   1.777   3.448 -0.9682 -0.0509 -1.4432
10187SOL    HW231461   0.144   1.910   3.527  0.1673 -0.1100 -0.5796
10188SOL     OW31462   5.123   6.116   6.133 -0.1111  0.7885  0.1368
10188SOL    HW131463   5.099   6.108   6.037  0.5663  0.0551  0.0235
10188SOL    HW231464   5.051   6.074   6.189  0.2954 -0.3032 -0.1397
10189SOL     OW31465   0.210   4.846   4.524 -0.0606 -0.0308  0.3405
10189SOL    HW131466   0.153   4.919   4.561  0.4692 -0.0930  1.3243
10189SOL    HW231467   0.153   4.768   4.500 -0.6504  0.7575 -0.8808
10190SOL     OW31468   4.709   2.940   0.020  0.2214  0.2718  0.5697
10190SOL    HW131469   4.671   2.956  -0.071 -1.6821 -3.2034  0.5563
10190SOL    HW231470   4.797   2.893   0.012  0.8059  1.3284  0.5862
10191SOL     OW31471   5.932   2.448   0.525 -0.8320 -0.1012 -0.5393
10191SOL    HW131472   5.937   2.532   0.471 -3.5029 -0.8224 -2.1078
10191SOL    HW231473   5.887   2.467   0.613  0.6511  0.4661  0.1407
10192SOL     OW31474   2.187   2.845   1.102 -0.3528  0.7399  0.9951
10192SOL    HW131475   2.134   2.909   1.047  0.7240  0.5524 -0.3156
10192SOL    HW231476   2.274   2.886   1.129  0.4498 -0.2044 -0.0537
10193SOL     OW31477   4.099   4.598   1.746 -0.5665  0.7408  0.4059
10193SOL    HW131478   4.017   4.547   1.771 -0.2641  1.6613  3.6631
10193SOL    HW231479   4.176   4.535   1.739 -0.8260  0.3438  1.0533
10194SOL     OW31480   4.437   1.524   4.600 -0.4006 -0.2645 -0.3676
10194SOL    HW131481   4.451   1.438   4.551 -1.6141 -0.8134  0.2022
10194SOL    HW231482   4.366   1.512   4.669  1.5625  0.3044  1.9345
10195SOL     OW31483   4.695   5.619   4.134 -0.1293 -0.8614  0.0091
10195SOL    HW131484   4.651   5.633   4.046  0.3227 -2.2333 -0.4476
10195SOL    HW231485   4.777   5.563   4.123  0.9378  0.4049  1.0595
10196SOL     OW31486   0.638   1.750   4.172  0.0414 -0.0411 -0.0876
10196SOL    HW131487   0.674   1.723   4.082 -1.5191 -2.1330 -0.1672
10196SOL    HW231488   0.668   1.684   4.241 -1.4175 -0.3332  0.3000
10197SOL     OW31489   4.756   0.874   0.624  0.0173 -0.0645  0.3757
10197SOL    HW131490   4.699   0.795   0.601  0.2068  0.0845 -0.6708
10197SOL    HW231491   4.852   0.852   0.607  0.1566  0.0913  0.9561
10198SOL     OW31492   4.099   5.867   4.524  0.1499 -0.0381  0.8528
10198SOL    HW131493   4.074   5.825   4.436  1.6086 -2.6620  1.5640
10198SOL    HW231494   4.137   5.958   4.508  0.3755 -0.4496 -1.2576
10199SOL     OW31495   4.321   2.680   6.007 -0.0005 -0.4415 -0.3126
10199SOL    HW131496   4.316   2.593   5.958  1.7469  1.1466 -3.5972
10199SOL    HW231497   4.416   2.712   6.009 -0.7312  1.8974 -0.1117
10200SOL     OW31498   4.915   2.504   1.707 -0.2757  0.4528 -0.5564
10200SOL    HW131499   4.922   2.415   1.752  2.2720  0.9462  0.1833
10200SOL    HW231500   4.909   2.491   1.608  0.6307 -0.5423 -0.4964
10201SOL     OW31501   1.743   2.325   1.701 -0.5079 -0.2395 -0.2201
10201SOL    HW131502   1.643   2.319   1.704 -0.5458  0.3485  2.3232
10201SOL    HW231503   1.770   2.403   1.645 -1.4890 -0.0805 -0.4947
10202SOL     OW31504   6.488   6.777   4.096  0.1573 -0.5163 -0.1026
10202SOL    HW131505   6.475   6.730   4.009 -1.8116  2.5513 -1.6347
10202SOL    HW231506   6.399   6.806   4.132  0.9976 -0.9030  2.5518
10203SOL     OW31507   0.316   3.332   6.776 -0.0675  0.3151 -0.3558
10203SOL    HW131508   0.310   3.428   6.747 -0.1791  0.5661  0.4627
10203SOL    HW231509   0.312   3.327   6.876 -1.1849 -0.6161 -0.4225
10204SOL     OW31510   3.557   4.533   5.255  0.6555 -0.1899  0.6629
10204SOL    HW131511   3.548   4.498   5.162 -0.8816  3.0750 -0.5872
10204SOL    HW231512   3.482   4.498   5.311  1.3720 -1.8776  0.6329
10205SOL     OW31513   6.185   2.953   6.655 -0.6904 -0.4450 -1.0656
10205SOL    HW131514   6.119   2.895   6.704 -1.0563 -0.1888 -1.2453
10205SOL    HW231515   6.204   2.912   6.565 -0.4197 -0.6440 -0.9179
10206SOL     OW31516   2.133   0.611   5.010 -0.2866 -0.4230  0.6818
10206SOL    HW131517   2.229   0.592   4.990 -0.1781  0.0779  0.7108
10206SOL    HW231518   2.118   0.606   5.109  0.3728  2.3115  1.0164
10207SOL     OW31519   1.768   2.090   0.342 -0.0750  0.8853 -0.1305
10207SOL    HW131520   1.805   2.086   0.435  0.3759  1.0631 -0.3047
10207SOL    HW231521   1.825   2.148   0.285  0.3382 -0.2000 -0.8453
10208SOL     OW31522   6.703   1.363   4.600  0.1865  0.0760  0.2438
10208SOL    HW131523   6.729   1.403   4.688 -0.5887  0.2492  0.4017
10208SOL    HW231524   6.637   1.423   4.555 -1.4119 -1.2499  0.7140
10209SOL     OW31525   6.886   0.536   4.493  0.4630  0.0593  0.3405
10209SOL    HW131526   6.933   0.454   4.525 -1.1097 -0.0896  2.4251
10209SOL    HW231527   6.941   0.617   4.514  2.0927 -0.3795 -1.8654
10210SOL     OW31528   4.829   1.376   4.496 -0.4702  0.4708  0.4832
10210SOL    HW131529   4.830   1.350   4.400 -2.0380 -0.8186  0.7831
10210SOL    HW231530   4.859   1.472   4.505  2.5744 -0.2152 -0.9476
10211SOL     OW31531   4.889   3.061   6.715 -0.5295  0.0666 -0.1783
10211SOL    HW131532   4.930   3.103   6.796  1.2051 -0.3022 -0.8326
10211SOL    HW231533   4.791   3.047   6.732 -0.2603  0.1616  1.7775
10212SOL     OW31534   0.440   5.163   6.407  0.1572 -0.5088 -0.1665
10212SOL    HW131535   0.371   5.206   6.465  0.8311  3.1292 -1.8047
10212SOL    HW231536   0.427   5.064   6.407 -1.3234 -0.5065  4.2003
10213SOL     OW31537   0.027   2.827   0.310  0.8940  0.1955  0.0006
10213SOL    HW131538  -0.018   2.887   0.376  0.6040 -0.0490  0.0292
10213SOL    HW231539   0.121   2.858   0.295  1.6449 -0.8332  2.0217
10214SOL     OW31540   0.952   3.099   0.605  0.5353 -0.4621  0.3511
10214SOL    HW131541   1.044   3.062   0.590  0.3442 -0.6494 -0.3993
10214SOL    HW231542   0.929   3.163   0.532 -1.1772 -2.8640 -1.3736
10215SOL     OW31543   3.320   3.697   2.988 -0.2069  0.2722 -0.3739
10215SOL    HW131544   3.234   3.725   2.946 -0.0200  0.2651 -0.7706
10215SOL    HW231545   3.383   3.775   2.990 -0.8038  0.7497  1.4712
10216SOL     OW31546   6.905   0.037   0.464  0.0860 -0.3115 -0.2836
10216SOL    HW131547   6.832  -0.004   0.518  0.7742 -1.3542 -0.1114
10216SOL    HW231548   6.874   0.051   0.370 -1.1305  1.5393  0.3338
10217SOL     OW31549   3.276   1.945   0.502  0.3005 -0.1360 -0.0076
10217SOL    HW131550   3.191   1.977   0.460  0.2918 -0.2150 -0.0509
10217SOL    HW231551   3.350   1.947   0.434  0.2344 -0.4832 -0.0906
10218SOL     OW31552   0.067   1.885   3.119 -0.0314  0.3055 -0.2241
10218SOL    HW131553   0.133   1.914   3.050  1.6927  0.6785  1.5138
10218SOL    HW231554   0.082   1.788   3.141 -1.3280 -0.1351 -1.1412
10219SOL     OW31555   5.919   1.339   2.731  0.5477  0.3027  0.2846
10219SOL    HW131556   5.970   1.326   2.646  0.5099 -0.4119  0.3606
10219SOL    HW231557   5.983   1.350   2.807  0.5951 -0.5605  0.3755
10220SOL     OW31558   3.450   2.559   6.810 -0.0974  0.1575 -0.1801
10220SOL    HW131559   3.494   2.471   6.794 -1.7515 -0.9257  0.8695
10220SOL    HW231560   3.490   2.628   6.750  3.4980 -0.5169  1.2189
10221SOL     OW31561   2.542   6.710   2.149 -0.2064  0.3032  0.0845
10221SOL    HW131562   2.561   6.714   2.051 -2.4747  0.2144 -0.4197
10221SOL    HW231563   2.444   6.701   2.163  0.1480 -0.5840  2.3725
10222SOL     OW31564   3.378   3.482   3.745 -0.6722  0.0041  0.1804
10222SOL    HW131565   3.364   3.541   3.666 -3.7070  0.2241  0.7631
10222SOL    HW231566   3.295   3.430   3.763  0.7872 -1.9694  1.7419
10223SOL     OW31567   4.820   1.957   3.575  0.3064  0.5227  0.1073
10223SOL    HW131568   4.833   1.906   3.660 -0.2548  0.8202  0.3776
10223SOL    HW231569   4.844   2.053   3.590  0.3509  0.5467 -0.1138
10224SOL     OW31570   0.572   1.601   2.980 -0.1278  0.3175 -0.4361
10224SOL    HW131571   0.558   1.515   2.931  0.9567 -1.5580  2.2931
10224SOL    HW231572   0.507   1.607   3.055 -0.4530  2.1538 -0.8198
10225SOL     OW31573   2.120   3.794   4.964  0.2570 -0.2794 -0.0402
10225SOL    HW131574   2.185   3.867   4.981  0.7384 -0.6985 -0.0517
10225SOL    HW231575   2.137   3.718   5.027  0.7511 -1.0043 -1.0017
10226SOL     OW31576   3.749   4.717   0.476  0.2860 -0.1121  0.0888
10226SOL    HW131577   3.652   4.731   0.494  0.4599 -0.1722  1.1867
10226SOL    HW231578   3.777   4.629   0.514  1.3926  1.2104  2.6385
10227SOL     OW31579   3.783   3.256   0.044 -0.3470  0.2032  0.2811
10227SOL    HW131580   3.813   3.280  -0.048 -2.7547 -2.2584 -1.2938
10227SOL    HW231581   3.714   3.321   0.075 -2.3957 -1.0181 -1.4078
10228SOL     OW31582   5.454   6.480   0.402  0.3395  0.3046 -0.1357
10228SOL    HW131583   5.417   6.497   0.494 -0.0569 -0.3329 -0.1698
10228SOL    HW231584   5.498   6.390   0.400 -0.8351 -0.2954 -0.9048
10229SOL     OW31585   0.747   2.573   3.998 -0.0025  0.3615 -0.2708
10229SOL    HW131586   0.759   2.474   3.985 -0.1534  0.1660  0.9294
10229SOL    HW231587   0.678   2.607   3.934 -0.5906 -0.4850 -0.1099
10230SOL     OW31588   5.796   6.431   2.284 -0.8800 -0.4594 -0.5723
10230SOL    HW131589   5.794   6.340   2.244 -1.8326 -0.9933  0.6229
10230SOL    HW231590   5.702   6.463   2.300 -0.5480 -0.1690  0.9575
10231SOL     OW31591   0.588   4.383   1.933 -0.7433 -0.4187 -0.4324
10231SOL    HW131592   0.645   4.304   1.956  0.4445  0.7984  1.1009
10231SOL    HW231593   0.600   4.407   1.837  3.2521  1.1156  0.2489
10232SOL     OW31594   1.882   6.436   1.532  0.3752  0.1412 -0.1406
10232SOL    HW131595   1.869   6.340   1.507 -0.1057 -0.4271  2.0167
10232SOL    HW231596   1.977   6.449   1.561  0.2597  0.1362  0.2431
10233SOL     OW31597   2.756   4.117   6.448  0.3607 -0.2353  0.0091
10233SOL    HW131598   2.843   4.162   6.467  1.8156 -2.7695 -0.1615
10233SOL    HW231599   2.766   4.018   6.463 -0.7651 -1.4558 -5.2720
10234SOL     OW31600   0.451   1.904   6.846 -0.7340  0.2920  0.5947
10234SOL    HW131601   0.352   1.892   6.837 -0.7588  0.0299  1.1685
10234SOL    HW231602   0.494   1.899   6.755 -1.2799  0.7476  0.3116
10235SOL     OW31603   6.839   1.766   1.209 -0.2110 -0.3999 -0.0257
10235SOL    HW131604   6.857   1.694   1.141 -2.7529 -0.0004 -1.2589
10235SOL    HW231605   6.925   1.809   1.235  1.2656 -3.1073 -0.0879
10236SOL     OW31606   2.610   0.638   2.171 -0.2641  0.4460 -0.3317
10236SOL    HW131607   2.547   0.573   2.214 -0.1875 -0.0842 -1.0054
10236SOL    HW231608   2.579   0.731   2.189  1.4971  0.4530  3.6241
10237SOL     OW31609   6.447   4.769   6.528  0.0029 -0.2694 -0.0267
10237SOL    HW131610   6.480   4.685   6.571 -0.2488  0.4090  1.5773
10237SOL    HW231611   6.522   4.813   6.478  0.1535 -1.3918 -0.8197
10238SOL     OW31612   2.764   5.503   0.071  0.0762  0.1360 -0.6656
10238SOL    HW131613   2.805   5.582   0.025 -1.5807  1.0919 -0.5577
10238SOL    HW231614   2.735   5.437   0.002 -0.5792  0.6578 -0.9039
10239SOL     OW31615   0.924   1.635   4.920 -0.6688  0.2896  0.1161
10239SOL    HW131616   0.892   1.726   4.891 -2.3896  0.2503  1.7093
10239SOL    HW231617   1.015   1.643   4.960 -0.0016  0.9838 -1.4638
10240SOL     OW31618   3.206   0.880   0.914  0.3053  0.2750 -0.0262
10240SOL    HW131619   3.297   0.887   0.872  1.4190  0.7906  2.2902
10240SOL    HW231620   3.196   0.791   0.958 -0.2286  0.3053 -0.0778
10241SOL     OW31621   5.206   3.551   2.098 -0.5399 -0.1068  0.3579
10241SOL    HW131622   5.250   3.625   2.149 -0.7374  0.8761 -0.8387
10241SOL    HW231623   5.270   3.515   2.030 -0.5315 -0.8745  0.7654
10242SOL     OW31624   0.450   2.424   0.294  0.2860 -0.6137  0.0009
10242SOL    HW131625   0.381   2.474   0.241 -0.1536  3.4602  3.8907
10242SOL    HW231626   0.404   2.361   0.357  0.2651  0.0010  0.6102
10243SOL     OW31627   5.265   6.125   0.889 -0.2512 -0.1331 -0.0895
10243SOL    HW131628   5.333   6.068   0.843 -0.8530  0.9020 -2.4220
10243SOL    HW231629   5.185   6.069   0.911 -0.0557 -0.6199 -0.5848
10244SOL     OW31630   1.965   5.251   1.697  0.4184  0.0708 -0.3499
10244SOL    HW131631   1.911   5.316   1.643  1.2049  1.2139  0.2035
10244SOL    HW231632   2.052   5.293   1.722  1.6464 -1.7766 -1.3146
10245SOL     OW31633   6.859   3.447   1.693 -0.2535 -0.2465 -0.1965
10245SOL    HW131634   6.934   3.394   1.735  0.5046  0.9164 -0.0319
10245SOL    HW231635   6.845   3.531   1.745  2.1827  2.3508 -3.3498
10246SOL     OW31636   3.248   3.001   2.935  0.0363 -0.1552  0.2050
10246SOL    HW131637   3.299   2.933   2.987  0.0415  0.4554  1.0255
10246SOL    HW231638   3.290   3.091   2.947 -0.2257  0.0688 -0.5057
10247SOL     OW31639   0.963   3.951   4.336  0.4173  0.2695  0.4416
10247SOL    HW131640   0.950   3.890   4.258  2.0527 -0.2785  0.5460
10247SOL    HW231641   0.982   4.044   4.303  2.7038 -0.2675  0.0568
10248SOL     OW31642   1.023   0.368   3.153 -0.4295  0.1497  0.3889
10248SOL    HW131643   1.075   0.286   3.176  1.2325  1.3337  1.0434
10248SOL    HW231644   0.933   0.342   3.117  0.0067 -1.9276  0.6997
10249SOL     OW31645   3.235   6.389   4.469  0.1577  0.1401  0.1295
10249SOL    HW131646   3.312   6.352   4.521 -0.8998 -0.6220  1.1827
10249SOL    HW231647   3.160   6.411   4.530 -1.1396 -0.8154 -1.0460
10250SOL     OW31648   2.942   2.873   0.599  0.3521 -0.1529 -1.2401
10250SOL    HW131649   3.010   2.803   0.616  2.3965  1.5130 -2.1667
10250SOL    HW231650   2.986   2.963   0.595 -2.4206  1.6542  2.5195
10251SOL     OW31651   1.215   5.918   3.723  0.6550  0.0139 -0.4011
10251SOL    HW131652   1.118   5.939   3.731  0.4740 -0.7053 -0.6906
10251SOL    HW231653   1.260   5.937   3.811  0.0675 -0.5961  0.0390
10252SOL     OW31654   4.584   2.732   5.970 -0.9496 -0.8387 -0.3578
10252SOL    HW131655   4.671   2.690   5.994 -0.8599  0.6454  2.2543
10252SOL    HW231656   4.591   2.775   5.880  1.0802 -0.5821 -0.1179
10253SOL     OW31657   4.424   6.039   6.046  0.1149 -0.0656  0.0126
10253SOL    HW131658   4.492   5.974   6.012  1.0479 -0.6212  2.7160
10253SOL    HW231659   4.385   6.005   6.132 -2.1343  1.2254 -0.4191
10254SOL     OW31660   0.083   0.213   5.712 -0.5634 -0.2265  0.0318
10254SOL    HW131661   0.045   0.245   5.625 -1.5306  1.4576  1.0323
10254SOL    HW231662   0.117   0.291   5.764  0.1317 -1.2332  1.1268
10255SOL     OW31663   4.643   4.460   1.834  0.3077 -0.6159 -0.5299
10255SOL    HW131664   4.732   4.425   1.807  1.2929  0.5564  1.0514
10255SOL    HW231665   4.594   4.391   1.888  1.5786 -0.2168  1.2200
10256SOL     OW31666   3.374   0.569   3.735  0.0707 -0.3960 -0.2969
10256SOL    HW131667   3.355   0.491   3.796  0.5709 -0.9293 -0.8077
10256SOL    HW231668   3.427   0.537   3.657  1.1173  0.6310 -0.0305
10257SOL     OW31669   2.703   5.698   3.412 -0.1073 -0.2758 -0.0850
10257SOL    HW131670   2.621   5.744   3.378  0.0477 -0.4696 -0.7451
10257SOL    HW231671   2.699   5.601   3.386 -0.5350 -0.7126  1.4652
10258SOL     OW31672   2.300   0.692   1.475 -0.5875  0.0134 -0.3884
10258SOL    HW131673   2.225   0.626   1.471 -1.9690  1.4522  0.6457
10258SOL    HW231674   2.328   0.705   1.570  0.1792  0.3788 -0.6572
10259SOL     OW31675   2.167   3.235   4.002 -0.3320 -0.5007 -0.1767
10259SOL    HW131676   2.125   3.325   3.993  1.7855  0.3854 -2.0428
10259SOL    HW231677   2.152   3.183   3.918 -1.0799 -1.7341  0.6820
10260SOL     OW31678   0.686   1.703   3.902 -0.7113 -0.4266  0.5815
10260SOL    HW131679   0.651   1.612   3.923 -1.2333 -0.2549  0.4658
10260SOL    HW231680   0.610   1.768   3.894 -0.3377  0.0482  0.7902
10261SOL     OW31681   5.876   3.345   2.441  0.3243 -0.6142  0.1882
10261SOL    HW131682   5.943   3.387   2.502  1.6026 -1.1798 -0.7576
10261SOL    HW231683   5.826   3.416   2.392  0.5171 -0.1806  0.6172
10262SOL     OW31684   5.023   0.432   4.428  0.7656  0.6997  0.6828
10262SOL    HW131685   4.978   0.426   4.339  2.5530 -0.4030 -0.2047
10262SOL    HW231686   4.962   0.397   4.498 -0.2997  0.6300 -0.2493
10263SOL     OW31687   6.192   0.201   3.315 -0.6228  0.2365 -0.0406
10263SOL    HW131688   6.155   0.145   3.389 -0.3930  1.3853  0.9750
10263SOL    HW231689   6.256   0.147   3.261 -1.0140 -0.6997  0.4190
10264SOL     OW31690   5.852   0.442   5.036  0.5916 -0.4794 -0.7384
10264SOL    HW131691   5.822   0.404   5.123 -0.5185  0.8689 -0.4910
10264SOL    HW231692   5.796   0.406   4.962 -0.4272  0.5879 -0.5111
10265SOL     OW31693   2.522   0.893   2.047 -0.1912  0.6814  0.3096
10265SOL    HW131694   2.423   0.901   2.032 -0.2997 -0.3305  0.3982
10265SOL    HW231695   2.567   0.979   2.021 -0.9309  0.6786 -1.0821
10266SOL     OW31696   3.752   3.460   3.403 -0.8962  0.0194 -0.0530
10266SOL    HW131697   3.714   3.551   3.384 -2.7995 -0.9656 -1.3275
10266SOL    HW231698   3.800   3.462   3.491  0.0321  2.4806 -0.5091
10267SOL     OW31699   6.720   6.866   0.549 -0.2672 -0.0692 -0.3153
10267SOL    HW131700   6.778   6.793   0.513 -1.5637 -0.5601 -1.4962
10267SOL    HW231701   6.652   6.827   0.610 -0.1219  0.3499  0.1256
10268SOL     OW31702   4.362   4.947   4.078  0.2198  0.0749 -0.2961
10268SOL    HW131703   4.458   4.970   4.092 -0.2115  1.4501  0.5790
10268SOL    HW231704   4.324   4.911   4.163 -0.0399 -0.5482 -0.6636
10269SOL     OW31705   2.566   1.605   6.087 -1.1434 -0.2541 -0.0553
10269SOL    HW131706   2.505   1.526   6.088 -1.3887 -0.0701 -0.3922
10269SOL    HW231707   2.567   1.647   6.178 -0.5629 -0.9838  0.2805
10270SOL     OW31708   3.014   0.639   3.860  0.2175 -0.2282 -0.7235
10270SOL    HW131709   2.956   0.591   3.794 -3.2511  1.3442  0.8808
10270SOL    HW231710   3.085   0.689   3.812 -1.6742  0.2476 -3.2403
10271SOL     OW31711   0.554   2.982   1.102  0.8730  0.6627 -0.1959
10271SOL    HW131712   0.631   2.924   1.074 -0.2094 -0.7838 -0.3131
10271SOL    HW231713   0.574   3.021   1.192  3.1700  3.0904 -1.6030
10272SOL     OW31714   4.507   0.032   5.182 -0.3036 -0.5745 -0.1781
10272SOL    HW131715   4.533  -0.062   5.160  1.3196  0.1762 -1.6064
10272SOL    HW231716   4.471   0.077   5.100  1.2824  0.7920 -0.1707
10273SOL     OW31717   2.085   6.291   1.869 -0.3578 -0.0664  0.2431
10273SOL    HW131718   2.094   6.262   1.965  1.8063 -2.3401 -0.5421
10273SOL    HW231719   1.995   6.332   1.855 -0.5696  0.7578  3.3247
10274SOL     OW31720   6.963   4.492   4.663 -0.2603 -0.0524  0.0001
10274SOL    HW131721   7.014   4.540   4.734 -1.2295 -0.0598  0.7259
10274SOL    HW231722   7.001   4.400   4.651 -0.9393 -0.5764  1.5345
10275SOL     OW31723   0.197   3.042   1.328  0.3875 -0.4019 -0.1917
10275SOL    HW131724   0.147   2.957   1.308  0.8248 -0.4068 -1.3744
10275SOL    HW231725   0.289   3.036   1.288  0.2621  0.8178 -0.7018
10276SOL     OW31726   3.753   4.776   5.832 -0.5455 -0.7435 -0.3169
10276SOL    HW131727   3.785   4.830   5.754 -0.5809 -0.6146 -0.2422
10276SOL    HW231728   3.755   4.679   5.808 -0.1670 -0.7313 -0.3361
10277SOL     OW31729   6.889   6.845   3.890 -0.0979 -0.6440 -0.1417
10277SOL    HW131730   6.868   6.939   3.863  1.8659  0.2060  1.0471
10277SOL    HW231731   6.805   6.797   3.911 -1.1997  0.6390 -1.3534
10278SOL     OW31732   5.176   6.651   4.930  0.2237 -0.2223 -0.3648
10278SOL    HW131733   5.222   6.579   4.878  0.2983  1.2722 -2.4647
10278SOL    HW231734   5.139   6.612   5.015  1.4119 -2.4127 -0.7812
10279SOL     OW31735   0.340   4.094   4.980 -0.1993  0.0994 -0.1067
10279SOL    HW131736   0.280   4.172   4.999  0.9289  0.7054  1.1297
10279SOL    HW231737   0.365   4.094   4.883  0.9757  2.2017  0.1376
10280SOL     OW31738   4.458   6.094   1.429  0.7298 -0.1899 -0.4252
10280SOL    HW131739   4.383   6.047   1.475  0.2456  0.1140 -0.8831
10280SOL    HW231740   4.527   6.121   1.496  1.1702 -1.7933 -0.1922
10281SOL     OW31741   5.408   0.110   3.671  0.2807  0.1713 -0.1780
10281SOL    HW131742   5.309   0.119   3.663  0.4225  1.1695 -1.1204
10281SOL    HW231743   5.439   0.150   3.757 -0.0847  0.2730 -0.0934
10282SOL     OW31744   4.264   2.156   2.912 -0.4573  0.1943  0.0769
10282SOL    HW131745   4.321   2.080   2.942  0.3704  0.8677  0.2551
10282SOL    HW231746   4.209   2.189   2.989  0.7247  1.1010  0.5620
10283SOL     OW31747   0.238   2.143   5.565  0.2512  0.0308 -0.4866
10283SOL    HW131748   0.319   2.084   5.559  1.1316  1.2447 -0.7859
10283SOL    HW231749   0.212   2.175   5.474  0.9358  1.6161 -0.1512
10284SOL     OW31750   2.054   4.528   4.224 -0.1449  0.1634  0.0053
10284SOL    HW131751   2.140   4.547   4.176  1.0486  0.9133  2.2992
10284SOL    HW231752   2.055   4.573   4.313 -2.7116 -0.2921  0.3392
10285SOL     OW31753   6.885   6.754   5.737  0.0687 -0.4289 -0.5545
10285SOL    HW131754   6.834   6.832   5.770  2.0285  1.4896 -1.7926
10285SOL    HW231755   6.842   6.718   5.654 -0.4209 -0.2078 -0.3980
10286SOL     OW31756   4.094   2.190   2.385 -0.4271  0.0922  0.2816
10286SOL    HW131757   4.140   2.185   2.296 -1.7019  2.5698 -0.6221
10286SOL    HW231758   4.148   2.245   2.448 -1.5859  2.2037 -0.4805
10287SOL     OW31759   1.821   6.904   2.332  0.1943  0.3810 -0.7157
10287SOL    HW131760   1.906   6.852   2.325 -0.5026 -1.1584  1.0918
10287SOL    HW231761   1.813   6.942   2.424 -1.2899  0.0329 -0.6761
10288SOL     OW31762   4.091   5.615   5.333 -0.3170 -0.0527  0.1502
10288SOL    HW131763   4.087   5.546   5.405 -1.9381  1.2853  1.4158
10288SOL    HW231764   4.046   5.579   5.251 -1.3555 -0.4562  0.8667
10289SOL     OW31765   2.058   0.339   5.187  0.2992  0.6892  0.4304
10289SOL    HW131766   1.974   0.387   5.214  0.5930  1.7476 -0.4601
10289SOL    HW231767   2.043   0.293   5.099  0.0966 -0.6982  1.1631
10290SOL     OW31768   3.999   3.533   3.325  0.4635 -0.0975 -0.0022
10290SOL    HW131769   4.053   3.449   3.337 -0.1270 -0.8254 -2.0108
10290SOL    HW231770   3.902   3.513   3.341  0.3877  0.3635  0.1327
10291SOL     OW31771   3.869   2.112   2.527 -0.4786  0.6736  0.0298
10291SOL    HW131772   3.939   2.140   2.461  2.9836 -2.8774  1.8004
10291SOL    HW231773   3.893   2.146   2.618 -1.5752  0.1228  0.5489
10292SOL     OW31774   0.463   0.819   5.822 -0.3215 -0.2330  0.4903
10292SOL    HW131775   0.528   0.851   5.892 -0.5840 -1.2227  1.2067
10292SOL    HW231776   0.440   0.895   5.761  1.8516  0.0427 -0.0677
10293SOL     OW31777   2.490   3.983   1.594  0.5773 -0.3720 -0.1302
10293SOL    HW131778   2.501   3.912   1.523  1.6788 -0.4281  0.0792
10293SOL    HW231779   2.575   4.034   1.603 -0.4513  1.5477 -0.8511
10294SOL     OW31780   1.664   0.712   1.604 -0.5917  0.1727 -0.0341
10294SOL    HW131781   1.616   0.749   1.683 -1.1964  0.7178 -0.6547
10294SOL    HW231782   1.600   0.660   1.547 -0.1617 -0.2149 -0.1694
10295SOL     OW31783   1.399   3.603   5.829  0.4678  0.0820  0.4205
10295SOL    HW131784   1.453   3.615   5.746 -0.8782  0.7531 -0.3905
10295SOL    HW231785   1.415   3.679   5.891 -0.5395  1.0128 -0.4170
10296SOL     OW31786   6.909   4.184   4.079  0.1790  0.3833 -0.3176
10296SOL    HW131787   6.867   4.114   4.022  2.6940  0.7592 -2.8408
10296SOL    HW231788   6.840   4.254   4.102 -2.1270 -2.2408  1.4345
10297SOL     OW31789   4.740   1.888   0.677  0.6291 -0.1655 -0.0881
10297SOL    HW131790   4.714   1.909   0.582  2.1227 -0.0218 -0.4965
10297SOL    HW231791   4.718   1.792   0.696  0.6843 -0.3157 -0.7238
10298SOL     OW31792   1.920   0.445   3.389 -0.0920  0.0346 -0.1812
10298SOL    HW131793   1.835   0.452   3.442 -0.0987 -1.9001  0.1379
10298SOL    HW231794   1.900   0.404   3.300  0.5718 -0.9908  0.1290
10299SOL     OW31795   6.172   0.987   2.522 -0.3193 -0.3059  0.1822
10299SOL    HW131796   6.187   0.938   2.436  2.9558 -0.1405  0.5060
10299SOL    HW231797   6.205   0.931   2.598 -0.9801  0.5006  1.0843
10300SOL     OW31798   2.982   5.441   6.845  0.0517  0.2610 -0.6805
10300SOL    HW131799   3.035   5.376   6.791 -1.0255 -1.4019  0.1643
10300SOL    HW231800   2.885   5.429   6.824 -0.5027 -1.1401  2.2447
10301SOL     OW31801   4.559   1.520   0.490 -0.2423 -0.4275 -0.2267
10301SOL    HW131802   4.521   1.478   0.407  0.1808  1.2996 -1.3418
10301SOL    HW231803   4.524   1.613   0.498  1.5836  0.2482  0.2374
10302SOL     OW31804   3.230   4.885   6.348  0.7916  0.2206 -0.8184
10302SOL    HW131805   3.312   4.922   6.392  0.8473 -0.6980 -0.1168
10302SOL    HW231806   3.233   4.904   6.250  1.4049  0.9711 -0.6655
10303SOL     OW31807   1.106   4.218   3.986  0.7658  0.3393  0.4339
10303SOL    HW131808   1.147   4.182   3.903 -0.6064 -0.8199  0.2045
10303SOL    HW231809   1.009   4.193   3.989  0.9175 -0.2506  2.6915
10304SOL     OW31810   3.167   5.812   0.853  0.0677 -0.0520 -0.1026
10304SOL    HW131811   3.103   5.735   0.861 -2.5972  2.1740  2.0590
10304SOL    HW231812   3.140   5.884   0.917  2.7473  2.5177 -1.6408
10305SOL     OW31813   3.716   3.967   4.823  0.0336  0.0032  0.2772
10305SOL    HW131814   3.731   4.064   4.806 -1.3144  0.3423  0.9174
10305SOL    HW231815   3.677   3.924   4.741  0.4466  0.0372  0.0611
10306SOL     OW31816   1.386   0.852   0.053 -0.6224 -0.8455  0.0069
10306SOL    HW131817   1.379   0.927  -0.012 -0.9652 -0.7716  0.1289
10306SOL    HW231818   1.461   0.792   0.026  1.1614  0.7581  1.1838
10307SOL     OW31819   1.689   5.065   5.838  0.0848  0.9406  0.4048
10307SOL    HW131820   1.778   5.101   5.865  0.7752 -0.6529  0.3408
10307SOL    HW231821   1.627   5.069   5.916  0.6196  0.8080  0.8399
10308SOL     OW31822   1.227   3.914   1.480  0.5640  0.5076 -0.4912
10308SOL    HW131823   1.165   3.969   1.425  0.6739  0.6682 -0.4567
10308SOL    HW231824   1.185   3.825   1.501 -0.7231  1.5620  1.6971
10309SOL     OW31825   6.567   1.239   5.409  0.7862 -0.4228  0.2088
10309SOL    HW131826   6.652   1.288   5.393 -0.4785  1.8903  0.0970
10309SOL    HW231827   6.555   1.169   5.338  3.1192 -1.6923  0.9569
10310SOL     OW31828   1.425   4.366   5.895  0.4535 -0.5662 -0.1948
10310SOL    HW131829   1.391   4.324   5.811  2.1868 -1.3859 -0.5386
10310SOL    HW231830   1.510   4.320   5.923  0.2503  0.1016  1.6682
10311SOL     OW31831   5.502   5.657   6.625 -0.1796 -0.1338  0.7888
10311SOL    HW131832   5.558   5.717   6.683 -0.3529 -0.1564  0.9780
10311SOL    HW231833   5.418   5.705   6.599 -0.2036 -0.2041  0.7363
10312SOL     OW31834   2.948   1.178   0.238 -0.3109 -0.5659 -0.2133
10312SOL    HW131835   3.036   1.225   0.230 -0.9064  1.0227  1.8209
10312SOL    HW231836   2.879   1.228   0.186 -0.3611 -0.8656 -0.4357
10313SOL     OW31837   5.944   6.140   3.301  0.0035  0.4086  0.3101
10313SOL    HW131838   5.897   6.225   3.325  0.0940  0.7844 -0.7922
10313SOL    HW231839   5.972   6.093   3.384 -1.1819  0.8199  0.9655
10314SOL     OW31840   2.113   6.432   0.067  0.2666  0.2331  0.2842
10314SOL    HW131841   2.209   6.457   0.085 -0.1277  1.8243  0.3367
10314SOL    HW231842   2.069   6.506   0.016 -1.1129 -0.1979  0.8253
10315SOL     OW31843   6.123   6.282   4.076  0.1316 -0.3668 -0.3726
10315SOL    HW131844   6.024   6.290   4.088  0.3800  1.0198  1.0053
10315SOL    HW231845   6.149   6.320   3.987 -0.4476  0.3393 -0.2432
10316SOL     OW31846   0.265   0.653   0.817  0.0032  0.3499 -0.1131
10316SOL    HW131847   0.274   0.580   0.885 -0.8003  1.8490  1.6775
10316SOL    HW231848   0.179   0.701   0.831  1.0356  2.3995 -0.4809
10317SOL     OW31849   4.016   0.257   4.254  0.2476  0.5624  0.1822
10317SOL    HW131850   3.970   0.343   4.233  0.6062  0.2756 -2.0094
10317SOL    HW231851   3.987   0.187   4.189 -0.1889 -1.0778  2.0419
10318SOL     OW31852   5.701   0.594   1.023 -0.4739 -0.4516 -0.2342
10318SOL    HW131853   5.719   0.577   0.926  0.2211 -0.2586 -0.1498
10318SOL    HW231854   5.671   0.688   1.036 -0.5249 -0.4644 -0.2623
10319SOL     OW31855   2.146   4.618   5.174  0.1329 -0.2714 -0.3641
10319SOL    HW131856   2.139   4.590   5.078  0.8149  1.1785 -0.8652
10319SOL    HW231857   2.218   4.686   5.184 -0.1161 -0.1907  1.1403
10320SOL     OW31858   6.644   6.529   2.571  0.3103 -0.4619  0.7108
10320SOL    HW131859   6.742   6.524   2.588  0.2540 -3.9227  0.7025
10320SOL    HW231860   6.624   6.609   2.514  2.9929  0.6203  1.1140
10321SOL     OW31861   6.279   3.159   2.819  0.1977  0.2094  0.1140
10321SOL    HW131862   6.350   3.146   2.749  0.2407 -1.3498  0.4102
10321SOL    HW231863   6.321   3.155   2.910 -0.1556  0.0272  0.2701
10322SOL     OW31864   4.485   4.505   2.985 -0.2653 -0.0747  0.3081
10322SOL    HW131865   4.408   4.558   2.948  1.0450  1.1236 -0.8467
10322SOL    HW231866   4.492   4.519   3.083 -1.2504  0.1704  0.3480
10323SOL     OW31867   1.730   4.762   6.884  0.5328  0.1000 -0.0420
10323SOL    HW131868   1.713   4.760   6.786  0.0074  0.3034  0.0379
10323SOL    HW231869   1.648   4.796   6.931  0.3268 -1.1629  0.5644
10324SOL     OW31870   3.420   2.983   2.220  0.4762  0.3398  0.1768
10324SOL    HW131871   3.351   2.996   2.291  0.5497 -0.2780  0.3636
10324SOL    HW231872   3.380   3.001   2.131  0.2387  0.5841  0.3302
10325SOL     OW31873   0.292   0.227   6.520 -0.0761  0.4116 -0.2818
10325SOL    HW131874   0.199   0.202   6.493  0.3247 -1.4688 -0.0530
10325SOL    HW231875   0.342   0.260   6.439 -1.1351  2.1894 -0.2551
10326SOL     OW31876   6.334   3.734   5.173  0.7709  0.2564  0.0347
10326SOL    HW131877   6.304   3.713   5.267 -1.3307 -0.9544 -0.8260
10326SOL    HW231878   6.361   3.649   5.127 -0.5077  0.4644 -1.1616
10327SOL     OW31879   1.711   5.718   6.945 -0.0022  0.0404 -0.0474
10327SOL    HW131880   1.750   5.694   6.856  3.2676  1.1172  0.9232
10327SOL    HW231881   1.650   5.796   6.934 -1.4459 -1.2230 -1.5846
10328SOL     OW31882   6.558   3.905   4.126  0.3354  0.0932 -0.0282
10328SOL    HW131883   6.569   3.863   4.035 -2.5120  0.0374 -0.4271
10328SOL    HW231884   6.500   3.986   4.119  1.0136  0.7696  1.6134
10329SOL     OW31885   3.394   2.599   1.351 -0.2691 -0.2227 -0.4438
10329SOL    HW131886   3.471   2.604   1.416  1.8656  1.6069 -2.8945
10329SOL    HW231887   3.312   2.570   1.400  1.4667 -0.2409  2.7860
10330SOL     OW31888   4.532   1.364   1.387  0.0871 -0.5191  0.5051
10330SOL    HW131889   4.578   1.378   1.474 -2.1696 -1.7224  1.9772
10330SOL    HW231890   4.445   1.414   1.387  0.0722 -0.4885 -1.0925
10331SOL     OW31891   6.156   5.378   5.375  0.0007  0.4327 -0.8163
10331SOL    HW131892   6.081   5.316   5.352 -0.3524  0.4374  0.2699
10331SOL    HW231893   6.143   5.414   5.467  1.8053 -0.3129 -0.2071
10332SOL     OW31894   4.466   0.963   6.565  0.2766 -0.1054  0.0847
10332SOL    HW131895   4.396   1.034   6.561  0.0164 -0.4008 -0.8051
10332SOL    HW231896   4.447   0.902   6.641  0.2583  0.5226  0.5935
10333SOL     OW31897   6.438   3.517   5.066  0.0313 -0.1262 -0.4553
10333SOL    HW131898   6.512   3.524   4.999  1.9000  1.2810  1.6173
10333SOL    HW231899   6.462   3.449   5.135 -0.3015  0.7583  0.5605
10334SOL     OW31900   2.975   1.402   4.444 -0.0522 -0.2702 -0.3650
10334SOL    HW131901   2.977   1.315   4.395 -0.8589  0.3645 -1.5624
10334SOL    HW231902   2.882   1.421   4.475 -0.0437  0.5596 -0.8290
10335SOL     OW31903   6.718   1.599   3.953 -0.2837 -0.0077  0.3366
10335SOL    HW131904   6.774   1.682   3.954 -0.3032  0.0320  1.9708
10335SOL    HW231905   6.625   1.622   3.924  0.2006  0.1548 -1.1607
10336SOL     OW31906   6.149   0.039   2.941 -0.7825 -0.4773 -0.2769
10336SOL    HW131907   6.183   0.099   3.013 -0.1993 -0.2401 -0.7463
10336SOL    HW231908   6.185  -0.053   2.955 -1.2182 -0.5958  0.1146
10337SOL     OW31909   4.834   5.992   6.874 -0.5126 -0.6141  0.1096
10337SOL    HW131910   4.830   5.892   6.865  2.9708 -0.7088 -1.8422
10337SOL    HW231911   4.927   6.020   6.897 -1.5303  2.2361  1.1741
10338SOL     OW31912   7.023   0.247   0.596 -0.7623 -0.1048 -0.2900
10338SOL    HW131913   7.001   0.161   0.551  1.5415 -1.8473  1.6609
10338SOL    HW231914   7.085   0.301   0.539  1.2976 -1.8142  0.2112
10339SOL     OW31915   6.885   3.051   5.764 -0.5456 -0.4804  0.3984
10339SOL    HW131916   6.964   3.004   5.804 -2.0027 -2.7111  0.8053
10339SOL    HW231917   6.848   3.116   5.831  0.8864  0.5997  0.1988
10340SOL     OW31918   3.578   2.656   6.171 -0.5442  1.0019 -0.0730
10340SOL    HW131919   3.596   2.748   6.139  0.8790  0.3131 -1.3556
10340SOL    HW231920   3.608   2.646   6.266  0.8740  1.3962 -0.4705
10341SOL     OW31921   2.538   4.921   2.476 -0.0932  0.1877  0.5434
10341SOL    HW131922   2.586   4.834   2.488  1.6902  1.1961  0.9644
10341SOL    HW231923   2.458   4.906   2.417  0.3002 -1.6759  0.4066
10342SOL     OW31924   1.749   2.009   4.295 -0.0776 -0.4865 -0.3125
10342SOL    HW131925   1.670   2.056   4.335  0.9350  0.7159  0.3785
10342SOL    HW231926   1.813   1.985   4.368  1.2106  0.5703 -1.0571
10343SOL     OW31927   3.466   4.963   3.882  0.0361 -0.1565  0.4312
10343SOL    HW131928   3.452   4.943   3.786  0.3162  0.0650  0.3425
10343SOL    HW231929   3.558   4.932   3.909 -0.4058 -1.1323  0.8709
10344SOL     OW31930   5.535   6.189   6.823  0.7320 -0.4067  0.1972
10344SOL    HW131931   5.462   6.190   6.892  1.0105  0.9004  0.4972
10344SOL    HW231932   5.502   6.142   6.741 -0.8311  1.0128 -0.0402
10345SOL     OW31933   0.975   3.263   3.979 -0.4402  0.9055 -0.6118
10345SOL    HW131934   1.040   3.338   3.987  1.5387 -0.7803  0.2801
10345SOL    HW231935   0.949   3.251   3.883  1.9718  0.5996 -1.2890
10346SOL     OW31936   0.354   3.739   6.969  0.3639  0.1215 -0.4784
10346SOL    HW131937   0.263   3.769   6.997  0.2133  0.2290 -1.0679
10346SOL    HW231938   0.420   3.813   6.988  0.2715  0.1776 -0.3733
10347SOL     OW31939   0.220   2.414   5.355 -0.0846 -0.5587 -0.3910
10347SOL    HW131940   0.254   2.437   5.446 -0.4932 -0.8800 -0.1517
10347SOL    HW231941   0.297   2.390   5.296  0.2486  0.3396 -0.3398
10348SOL     OW31942   1.011   6.247   1.576  0.1478  0.4687  0.0857
10348SOL    HW131943   0.963   6.293   1.501 -0.8097  0.7614  0.8579
10348SOL    HW231944   0.971   6.275   1.663  1.3716  0.2734  0.7252
10349SOL     OW31945   5.426   0.064   6.579  0.1309  0.2701  0.1157
10349SOL    HW131946   5.337   0.085   6.539 -0.3904  0.8497  1.4831
10349SOL    HW231947   5.477   0.004   6.519 -0.6351  1.0215 -1.3317
10350SOL     OW31948   5.205   6.234   6.548  0.4463 -0.2023 -0.1387
10350SOL    HW131949   5.199   6.262   6.644 -0.7266  1.4905 -0.6515
10350SOL    HW231950   5.300   6.211   6.526  0.6674 -1.0545  1.5076
10351SOL     OW31951   2.098   5.683   5.614  0.4207 -0.1118 -0.6443
10351SOL    HW131952   2.080   5.717   5.521  0.4720 -1.4701 -1.1634
10351SOL    HW231953   2.139   5.592   5.610 -1.1373 -0.9399  0.7219
10352SOL     OW31954   4.131   3.685   0.733  0.4528  0.2112  0.2297
10352SOL    HW131955   4.139   3.687   0.833 -1.7079 -0.7843  0.4871
10352SOL    HW231956   4.145   3.592   0.700  2.0606  0.6802 -0.5552
10353SOL     OW31957   1.548   3.574   6.208 -0.0505  0.1151  0.2116
10353SOL    HW131958   1.560   3.476   6.194  0.7497  0.0739  1.1168
10353SOL    HW231959   1.457   3.591   6.247 -0.1009 -0.2800  0.2719
10354SOL     OW31960   3.627   6.098   6.030  0.6895 -0.1408  0.0021
10354SOL    HW131961   3.573   6.062   6.107 -0.3846  1.5425  0.0955
10354SOL    HW231962   3.580   6.076   5.944 -1.1189  2.6794  0.1572
10355SOL     OW31963   0.695   6.862   0.971 -0.6601  0.2090  0.1011
10355SOL    HW131964   0.765   6.825   1.033 -1.5023  0.1563  1.0405
10355SOL    HW231965   0.617   6.801   0.968 -1.3961  1.1123  0.4181
10356SOL     OW31966   5.636   4.323   4.931 -0.1696  0.0881  0.1594
10356SOL    HW131967   5.687   4.344   4.847  1.0250  1.0389  1.0859
10356SOL    HW231968   5.540   4.310   4.909  0.4487 -1.9568 -1.6869
10357SOL     OW31969   3.070   1.744   6.459 -0.4325  0.2886 -0.0755
10357SOL    HW131970   3.164   1.769   6.438 -0.1102  0.0154  0.9716
10357SOL    HW231971   3.007   1.805   6.410  0.2363 -0.5950 -2.1382
10358SOL     OW31972   6.313   0.831   2.751 -0.0267 -0.1968 -0.1717
10358SOL    HW131973   6.310   0.731   2.742 -0.1056 -0.3619  1.3919
10358SOL    HW231974   6.248   0.860   2.821 -0.6413  1.0539 -1.2203
10359SOL     OW31975   0.863   2.821   6.570  0.2179 -0.1860 -0.4689
10359SOL    HW131976   0.814   2.907   6.555 -0.1820 -0.5515 -1.3021
10359SOL    HW231977   0.800   2.752   6.606  1.0307  0.5105  2.6008
10360SOL     OW31978   6.854   4.317   4.450 -0.0542 -0.2329 -0.2745
10360SOL    HW131979   6.933   4.255   4.440 -0.7090 -1.1886  0.2452
10360SOL    HW231980   6.865   4.370   4.534 -0.2565 -0.8253  0.1335
10361SOL     OW31981   3.211   5.597   6.151 -0.3256 -0.0113 -0.3117
10361SOL    HW131982   3.171   5.595   6.060 -0.1841 -0.9135 -0.3654
10361SOL    HW231983   3.211   5.505   6.190 -1.8717  0.6031  1.2646
10362SOL     OW31984   0.502   4.609   5.351  0.3612 -0.4143  0.0649
10362SOL    HW131985   0.486   4.676   5.424  1.9990  0.1254 -0.0386
10362SOL    HW231986   0.597   4.616   5.320 -0.2925 -0.6313 -2.1209
10363SOL     OW31987   5.457   0.090   5.437  0.2481 -0.0849  0.2641
10363SOL    HW131988   5.431   0.060   5.529 -1.7520  1.9313  0.4508
10363SOL    HW231989   5.455   0.190   5.433  2.3323 -0.0418 -1.4635
10364SOL     OW31990   0.498   2.625   0.500 -0.0378  0.2732  0.0508
10364SOL    HW131991   0.511   2.552   0.432 -0.3810  0.5325 -0.2999
10364SOL    HW231992   0.506   2.714   0.454 -3.3173  0.5017 -0.3209
10365SOL     OW31993   6.700   4.720   5.243  0.3180  0.4995  0.6399
10365SOL    HW131994   6.611   4.742   5.284 -0.0768  0.3355 -0.1296
10365SOL    HW231995   6.690   4.704   5.145  0.9957 -0.7347  0.7459
10366SOL     OW31996   5.643   0.767   2.852  0.0957 -0.0638 -0.0298
10366SOL    HW131997   5.621   0.860   2.882  0.9240  0.3437 -0.6410
10366SOL    HW231998   5.565   0.728   2.804 -0.2893  0.2852  0.3061
10367SOL     OW31999   5.516   1.236   2.718 -0.7633  0.2997  0.4629
10367SOL    HW132000   5.487   1.270   2.629  0.9451  0.6560  0.0029
10367SOL    HW232001   5.586   1.296   2.756 -1.5082  0.1984  2.1055
10368SOL     OW32002   3.162   0.631   1.758 -0.6386 -0.7992  0.2062
10368SOL    HW132003   3.087   0.612   1.820 -2.9757  1.2785 -1.7402
10368SOL    HW232004   3.217   0.706   1.794 -2.0696  0.4983 -0.1946
10369SOL     OW32005   3.987   2.566   0.557 -0.1144  0.0348 -0.1083
10369SOL    HW132006   4.006   2.471   0.579 -2.0774 -0.3363  0.2047
10369SOL    HW232007   3.999   2.622   0.640 -1.0019 -0.2913  0.2486
10370SOL     OW32008   1.439   5.496   6.337  0.6627 -0.3542 -0.5457
10370SOL    HW132009   1.413   5.544   6.421  0.7241 -1.0844 -0.0980
10370SOL    HW232010   1.532   5.523   6.311  0.3282  0.5163 -0.8606
10371SOL     OW32011   3.859   1.169   5.637 -0.3324 -0.9352 -0.4894
10371SOL    HW132012   3.819   1.108   5.569 -1.2484  0.0254 -0.8378
10371SOL    HW232013   3.788   1.202   5.698  0.2047 -0.4512 -0.1136
10372SOL     OW32014   6.678   0.945   4.323  0.2079 -0.0923 -0.0823
10372SOL    HW132015   6.777   0.942   4.312  0.3710  0.4215  1.1240
10372SOL    HW232016   6.653   1.029   4.370 -0.6641 -0.9578  1.0319
10373SOL     OW32017   1.212   6.154   6.423  0.0555 -0.5840 -1.0019
10373SOL    HW132018   1.148   6.152   6.346 -0.8068 -1.2728 -0.2894
10373SOL    HW232019   1.208   6.067   6.473 -0.1815  0.2156  0.4356
10374SOL     OW32020   3.567   2.098   4.939  0.5909 -0.2925 -0.4256
10374SOL    HW132021   3.539   2.131   5.029  3.2164  0.2990  0.2679
10374SOL    HW232022   3.494   2.116   4.872 -0.4982  1.3678  1.1151
10375SOL     OW32023   5.245   2.536   0.525  0.0596  0.5332 -0.6323
10375SOL    HW132024   5.203   2.532   0.434 -0.4435  0.1004 -0.3886
10375SOL    HW232025   5.339   2.502   0.521 -0.6091 -1.4226 -0.6345
10376SOL     OW32026   6.948   2.014   2.278  0.4636  0.1368  0.5563
10376SOL    HW132027   6.913   2.001   2.185  0.7461 -0.4788  0.5309
10376SOL    HW232028   7.008   2.094   2.279  0.1126  0.4121  0.3121
10377SOL     OW32029   1.064   1.452   3.463 -0.7584  0.2820  0.5342
10377SOL    HW132030   1.152   1.461   3.508 -0.6846 -0.1670  0.4818
10377SOL    HW232031   1.073   1.395   3.381 -1.4785 -1.5173  1.6436
10378SOL     OW32032   0.659   5.675   0.169  0.2412  0.2790 -0.5388
10378SOL    HW132033   0.736   5.721   0.126  0.3763  0.0133 -0.5768
10378SOL    HW232034   0.594   5.645   0.099  1.2146 -1.5625 -0.7038
10379SOL     OW32035   4.074   2.813   6.154  0.4592  0.0419  0.6354
10379SOL    HW132036   4.128   2.771   6.081 -0.2467  0.3564 -0.0839
10379SOL    HW232037   4.116   2.898   6.183  0.4134  0.2265  0.1623
10380SOL     OW32038   4.807   2.013   4.874 -0.1123  0.2790  0.1769
10380SOL    HW132039   4.716   2.046   4.851 -1.5395 -3.2579  0.0572
10380SOL    HW232040   4.868   2.025   4.796 -1.3821 -0.1148 -0.9060
10381SOL     OW32041   2.110   6.308   6.333  0.3161  0.1726  0.1885
10381SOL    HW132042   2.096   6.212   6.309 -1.1963  0.5663 -0.6176
10381SOL    HW232043   2.178   6.348   6.272 -0.0757 -0.0394 -0.3945
10382SOL     OW32044   0.140   4.438   0.186  0.1070 -0.3240 -0.0831
10382SOL    HW132045   0.087   4.483   0.114 -0.2690 -0.4053  0.1396
10382SOL    HW232046   0.078   4.390   0.248  0.2277  1.5555  1.5701
10383SOL     OW32047   5.593   5.096   2.867  0.2492  0.2439  0.6317
10383SOL    HW132048   5.586   5.019   2.931  0.3818 -0.0575  0.2920
10383SOL    HW232049   5.650   5.167   2.907 -1.1652  0.8672  1.6147
10384SOL     OW32050   3.789   2.228   1.502  0.3248 -0.6624 -0.2235
10384SOL    HW132051   3.742   2.184   1.426 -1.6654  2.7101 -1.1316
10384SOL    HW232052   3.745   2.203   1.588 -0.1987 -1.1250 -0.6235
10385SOL     OW32053   6.170   3.207   5.759 -0.0324 -0.0785  0.5149
10385SOL    HW132054   6.204   3.299   5.742 -0.1797 -0.1525 -0.2173
10385SOL    HW232055   6.217   3.168   5.838  0.8537  0.1982  0.1327
10386SOL     OW32056   0.973   1.591   4.026  0.0015 -0.0876  0.8040
10386SOL    HW132057   0.971   1.686   4.057 -1.0849 -0.4694  1.9731
10386SOL    HW232058   1.062   1.572   3.983  1.1191  0.8280  2.5731
10387SOL     OW32059   0.456   4.630   4.490  0.0033  0.1418 -0.0193
10387SOL    HW132060   0.426   4.609   4.583 -1.3283  0.5551 -0.3462
10387SOL    HW232061   0.456   4.729   4.476 -0.9820  0.0344 -0.8379
10388SOL     OW32062   2.028   5.068   2.868  0.2737 -0.0774  0.4425
10388SOL    HW132063   2.078   4.981   2.876  0.2146 -0.0628  1.0305
10388SOL    HW232064   2.019   5.109   2.958  1.4917  1.2283 -0.0010
10389SOL     OW32065   1.454   0.047   3.788 -0.1980  0.1355 -0.0483
10389SOL    HW132066   1.405  -0.036   3.761 -0.3007 -0.5756  2.1776
10389SOL    HW232067   1.434   0.069   3.883  2.9053  0.4565  0.6387
10390SOL     OW32068   0.972   2.360   3.410  0.0575  0.1116  0.0928
10390SOL    HW132069   1.059   2.379   3.364  0.1408 -1.1565 -0.3377
10390SOL    HW232070   0.913   2.308   3.348 -0.6252  0.1011  0.7343
10391SOL     OW32071   4.181   4.742   3.984  0.1659  0.2620  0.3002
10391SOL    HW132072   4.118   4.804   4.031  0.9077  0.4004  1.1406
10391SOL    HW232073   4.190   4.770   3.888  0.7656  1.6975  0.7530
10392SOL     OW32074   2.075   6.997   2.666 -0.3841 -0.4224  0.5094
10392SOL    HW132075   2.112   6.908   2.690  1.7359  0.6703  1.5109
10392SOL    HW232076   2.100   7.064   2.736  0.6562  1.5803 -1.6383
10393SOL     OW32077   1.075   0.716   2.780  0.2353  0.4008  0.2372
10393SOL    HW132078   1.016   0.679   2.851 -1.5712 -0.2213 -1.5069
10393SOL    HW232079   1.052   0.812   2.763 -0.2185  0.1821 -0.3884
10394SOL     OW32080   2.007   6.040   0.422  0.3091 -0.1762 -0.1841
10394SOL    HW132081   2.079   6.017   0.488 -0.5229 -1.5972  0.2723
10394SOL    HW232082   2.008   5.973   0.348  0.2369  0.5182 -0.8213
10395SOL     OW32083   1.346   1.669   0.729  0.3309 -0.9217 -0.0592
10395SOL    HW132084   1.289   1.620   0.663 -1.1672 -0.9527  1.1867
10395SOL    HW232085   1.288   1.729   0.784  1.6207 -0.4567  0.8450
10396SOL     OW32086   1.394   3.690   4.292  0.4249 -0.1325  0.0726
10396SOL    HW132087   1.416   3.773   4.345  0.7931  0.3377 -0.7992
10396SOL    HW232088   1.441   3.612   4.333  0.0196  0.0674  0.9476
10397SOL     OW32089   4.167   1.982   1.898 -0.1574 -0.2600  0.2583
10397SOL    HW132090   4.098   1.972   1.970  1.0564 -0.8197  1.3847
10397SOL    HW232091   4.129   2.034   1.822 -2.1831 -1.5487  0.3376
10398SOL     OW32092   0.738   3.094   1.769  0.5557 -0.6776 -0.2615
10398SOL    HW132093   0.761   3.004   1.808 -1.2092 -1.6253 -1.2623
10398SOL    HW232094   0.753   3.165   1.837  0.6791 -1.8933  1.0258
10399SOL     OW32095   0.253   2.093   4.377 -0.4359  0.1766 -0.3048
10399SOL    HW132096   0.281   2.047   4.461 -0.4915  1.8472  0.6639
10399SOL    HW232097   0.203   2.028   4.319 -0.6746 -0.9191  1.0662
10400SOL     OW32098   1.621   6.757   2.579 -0.3776 -0.4477 -0.4676
10400SOL    HW132099   1.657   6.846   2.608 -2.2103  0.5432 -1.0317
10400SOL    HW232100   1.649   6.686   2.643  1.6488  0.3947 -0.3317
10401SOL     OW32101   0.715   6.668   6.737  0.0422  0.2785  0.3738
10401SOL    HW132102   0.658   6.617   6.801 -1.9471 -0.2300 -1.6640
10401SOL    HW232103   0.752   6.605   6.668  0.3867  1.0944 -0.2042
10402SOL     OW32104   2.832   0.927   5.434 -0.0692 -0.4519 -0.7641
10402SOL    HW132105   2.812   0.857   5.503 -2.1589 -0.0902 -0.9590
10402SOL    HW232106   2.907   0.894   5.376  1.5882 -0.8697  1.4594
10403SOL     OW32107   5.581   0.171   1.805 -0.0779  0.0447  0.3430
10403SOL    HW132108   5.525   0.179   1.888  0.2223 -1.5005  0.7222
10403SOL    HW232109   5.586   0.076   1.776  1.0053  0.3633 -0.6394
10404SOL     OW32110   0.945   0.806   3.726 -0.6215  0.2741  0.7110
10404SOL    HW132111   1.026   0.849   3.764 -0.3702  0.7855 -0.3822
10404SOL    HW232112   0.911   0.737   3.790  0.2116  0.5992  1.5209
10405SOL     OW32113   4.853   4.916   6.289  0.2189 -0.0587  0.1872
10405SOL    HW132114   4.754   4.924   6.276  0.2023  0.0367  0.3724
10405SOL    HW232115   4.899   4.923   6.200  0.1847  1.7208  0.2726
10406SOL     OW32116   0.402   5.865   4.175  0.5273  0.1672 -0.1571
10406SOL    HW132117   0.414   5.963   4.192 -0.4240  0.2237  0.2788
10406SOL    HW232118   0.409   5.815   4.262  1.9307 -0.2586 -0.5053
10407SOL     OW32119   3.498   0.343   6.751  0.5772 -0.0502 -0.1958
10407SOL    HW132120   3.463   0.427   6.792 -0.1926 -0.1681 -0.5909
10407SOL    HW232121   3.546   0.365   6.666 -1.7028 -0.1970 -1.5887
10408SOL     OW32122   3.355   6.629   2.410  0.2668  0.3046 -0.6935
10408SOL    HW132123   3.330   6.709   2.355  1.1978  0.1090 -1.4200
10408SOL    HW232124   3.373   6.552   2.349  0.8232 -0.0549 -0.0820
10409SOL     OW32125   6.518   5.254   3.665 -0.2040  0.1289 -0.6729
10409SOL    HW132126   6.522   5.354   3.665  4.6943  0.1748  1.1022
10409SOL    HW232127   6.529   5.221   3.571  0.1691  1.2982 -1.0581
10410SOL     OW32128   4.915   6.162   0.296 -0.5244 -0.3427 -0.5230
10410SOL    HW132129   4.943   6.236   0.357  0.0163  0.4525 -1.6776
10410SOL    HW232130   4.996   6.112   0.266 -0.9308 -1.7640  0.6465
10411SOL     OW32131   2.215   5.464   0.916 -0.5355  0.1789  0.1693
10411SOL    HW132132   2.245   5.481   1.010 -0.6961 -0.3640  0.3158
10411SOL    HW232133   2.248   5.539   0.858  0.4171  0.0228  0.4771
10412SOL     OW32134   1.268   2.200   5.481  0.4895 -0.0921  0.4100
10412SOL    HW132135   1.190   2.200   5.544  0.5931 -1.2613  0.5485
10412SOL    HW232136   1.296   2.106   5.463 -0.0817  0.1451 -2.0478
10413SOL     OW32137   2.251   3.014   4.173 -0.3177 -0.5132 -0.4460
10413SOL    HW132138   2.305   2.945   4.124  1.2389  0.6612 -0.4794
10413SOL    HW232139   2.252   3.099   4.121 -1.6753 -0.2671 -0.0927
10414SOL     OW32140   4.641   4.918   5.087 -0.5511 -0.2022 -0.1490
10414SOL    HW132141   4.637   4.918   5.187 -1.9826  2.6760 -0.1083
10414SOL    HW232142   4.736   4.922   5.058 -0.1466  1.1370  1.1999
10415SOL     OW32143   5.100   4.009   2.569 -0.1855  0.0832  0.2043
10415SOL    HW132144   5.109   4.108   2.573  0.1333  0.0768 -0.3328
10415SOL    HW232145   5.098   3.972   2.662 -1.4947  0.6908  0.4418
10416SOL     OW32146   4.883   0.319   1.389  0.5495 -0.4226  0.1325
10416SOL    HW132147   4.885   0.406   1.339 -0.7970 -1.4478 -1.7993
10416SOL    HW232148   4.942   0.253   1.344 -0.0170 -1.1145  0.3946
10417SOL     OW32149   6.617   5.678   6.446  0.3075  0.3049 -0.4628
10417SOL    HW132150   6.622   5.599   6.508 -0.4038  0.3362 -0.3593
10417SOL    HW232151   6.522   5.696   6.423  0.4730  1.0626 -0.5798
10418SOL     OW32152   4.362   3.354   0.832  0.5705  0.4876  0.4134
10418SOL    HW132153   4.337   3.266   0.874  2.6226  0.0830  0.8673
10418SOL    HW232154   4.396   3.416   0.903  3.0286  0.1843 -0.4210
10419SOL     OW32155   0.093   1.046   3.215  0.2660 -0.4383 -0.2357
10419SOL    HW132156   0.060   0.956   3.186  0.9432 -0.6560 -0.3701
10419SOL    HW232157   0.098   1.107   3.136 -0.7767 -0.0890 -0.0371
10420SOL     OW32158   6.061   4.767   3.330  0.3259  0.3955  0.1830
10420SOL    HW132159   6.124   4.723   3.266 -0.3240  1.6577 -1.4240
10420SOL    HW232160   6.033   4.702   3.400  2.8406 -0.3940  0.5664
10421SOL     OW32161   1.755   3.559   3.903 -0.0610 -0.3166 -0.0748
10421SOL    HW132162   1.747   3.658   3.916  0.8790 -0.3891  1.3139
10421SOL    HW232163   1.736   3.536   3.808 -2.5949  0.9158  0.0336
10422SOL     OW32164   5.509   1.401   6.969  0.6193 -0.1357  0.3140
10422SOL    HW132165   5.483   1.321   6.915  0.1929  0.1308  0.1197
10422SOL    HW232166   5.477   1.389   7.063  0.9033 -0.3648  0.3852
10423SOL     OW32167   3.613   5.815   1.637  0.3141  0.2278 -0.0879
10423SOL    HW132168   3.621   5.737   1.574  0.4670 -1.2021  1.6295
10423SOL    HW232169   3.705   5.849   1.660  0.2557  0.7991 -0.6594
10424SOL     OW32170   4.716   2.426   3.363  0.2023 -0.4723 -0.0113
10424SOL    HW132171   4.642   2.360   3.353  0.4016 -0.3625 -3.1840
10424SOL    HW232172   4.682   2.507   3.410 -1.1267 -1.2434  0.4083
10425SOL     OW32173   0.551   4.148   2.129 -0.4187  0.5197  0.1106
10425SOL    HW132174   0.568   4.229   2.187  0.9369  0.5296 -0.2706
10425SOL    HW232175   0.462   4.157   2.085 -0.7086  1.3431  0.8256
10426SOL     OW32176   5.238   3.667   5.709 -0.1446  0.1502  0.5955
10426SOL    HW132177   5.316   3.605   5.707  0.0831  0.4391 -1.5050
10426SOL    HW232178   5.270   3.762   5.709 -0.4986  0.2774  1.2270
10427SOL     OW32179   5.917   2.961   3.617  0.5249  0.1512  0.6269
10427SOL    HW132180   5.869   3.039   3.657  1.3670  0.7850  0.4181
10427SOL    HW232181   5.888   2.877   3.663 -2.0879  0.2639 -0.6027
10428SOL     OW32182   2.687   5.138   4.270 -0.4500  0.4068 -0.4226
10428SOL    HW132183   2.665   5.126   4.173  1.9974  1.5856 -1.2081
10428SOL    HW232184   2.746   5.064   4.301  2.6336  2.3039 -1.2530
10429SOL     OW32185   3.323   5.249   0.122  0.1960 -0.3079  0.5368
10429SOL    HW132186   3.417   5.252   0.156  0.9758 -0.3692 -1.4890
10429SOL    HW232187   3.323   5.235   0.023 -1.9918 -1.3151  0.6168
10430SOL     OW32188   3.344   1.653   5.696 -0.0382  0.2376  0.0531
10430SOL    HW132189   3.344   1.610   5.606  1.0079 -0.7439  0.4979
10430SOL    HW232190   3.270   1.720   5.701 -1.3514 -1.0722 -0.8802
10431SOL     OW32191   3.356   2.127   4.459 -0.0714 -0.0823 -0.6377
10431SOL    HW132192   3.396   2.147   4.549 -1.5558 -0.8374  0.2334
10431SOL    HW232193   3.260   2.153   4.460 -0.1489 -0.2902 -1.9727
10432SOL     OW32194   1.883   5.185   0.940  0.0047  0.2622 -0.2454
10432SOL    HW132195   1.939   5.117   0.988  0.5682 -0.1855 -1.4842
10432SOL    HW232196   1.789   5.182   0.975  0.2799 -0.3907  0.4680
10433SOL     OW32197   3.167   0.958   3.825 -0.2127  0.0872 -0.3590
10433SOL    HW132198   3.153   1.030   3.892  1.6198 -0.5981  0.8401
10433SOL    HW232199   3.238   0.895   3.857  1.3218  0.1629 -3.2548
10434SOL     OW32200   4.046   0.483   0.993  0.5071 -0.1184  0.1100
10434SOL    HW132201   4.024   0.400   1.045  1.8919  0.1506  1.1771
10434SOL    HW232202   4.047   0.461   0.895  3.6764 -2.1367  0.4570
10435SOL     OW32203   2.780   0.636   1.444 -0.2358 -0.0668  0.4878
10435SOL    HW132204   2.863   0.636   1.501 -0.2649 -1.8490  0.5975
10435SOL    HW232205   2.806   0.617   1.349 -0.4614 -0.0669  0.4279
10436SOL     OW32206   0.844   3.300   5.141  0.3768  0.3262 -0.0628
10436SOL    HW132207   0.906   3.305   5.220 -0.2462  0.2055  0.4487
10436SOL    HW232208   0.751   3.282   5.174 -0.2097  2.0103 -0.6906
10437SOL     OW32209   6.499   6.667   6.698 -0.1974  0.1504  0.0161
10437SOL    HW132210   6.590   6.627   6.712  0.4163  0.9849 -1.4598
10437SOL    HW232211   6.433   6.620   6.757  0.5249 -2.8555 -1.3958
10438SOL     OW32212   6.281   5.129   2.075 -0.2824 -0.0076 -0.7677
10438SOL    HW132213   6.208   5.185   2.035 -0.2793  0.4764 -0.1139
10438SOL    HW232214   6.262   5.114   2.172  0.8342  0.7167 -0.4179
10439SOL     OW32215   4.614   6.215   5.608 -0.1413 -0.1354  0.1554
10439SOL    HW132216   4.693   6.183   5.555 -0.3394  1.1596 -0.9701
10439SOL    HW232217   4.578   6.139   5.662  0.4742 -1.3468 -1.0547
10440SOL     OW32218   4.708   2.485   1.195 -0.3594 -0.1184  0.5290
10440SOL    HW132219   4.771   2.466   1.119 -0.6501 -2.9097  0.8864
10440SOL    HW232220   4.755   2.539   1.265  0.4396  1.0219 -0.8277
10441SOL     OW32221   5.160   1.794   5.166  0.1007 -0.4323  0.0198
10441SOL    HW132222   5.075   1.816   5.117 -0.6062 -0.6552  1.1069
10441SOL    HW232223   5.237   1.838   5.120 -1.0192  2.9750  1.0851
10442SOL     OW32224   1.205   1.370   6.066 -0.8557 -0.6276  0.0033
10442SOL    HW132225   1.296   1.329   6.062 -0.4382  0.3140 -1.1557
10442SOL    HW232226   1.214   1.467   6.092 -1.5035 -0.4938 -0.2627
10443SOL     OW32227   1.862   0.894   0.283  0.2310  0.1771 -0.5427
10443SOL    HW132228   1.952   0.851   0.279  0.1427 -0.1490  0.6568
10443SOL    HW232229   1.853   0.959   0.208  1.7288  0.7218 -0.2799
10444SOL     OW32230   4.602   5.146   4.917 -0.3822 -0.0367 -0.3149
10444SOL    HW132231   4.641   5.091   4.843 -0.7590 -0.4643 -0.2002
10444SOL    HW232232   4.584   5.087   4.996  0.6476  0.5418  0.3655
10445SOL     OW32233   2.658   2.071   2.605 -0.1503  1.3865  0.4322
10445SOL    HW132234   2.728   2.142   2.604  1.7388 -0.2755  2.9303
10445SOL    HW232235   2.670   2.010   2.527  0.2912  1.9100  0.0857
10446SOL     OW32236   4.627   4.531   6.508  0.0430 -0.3110 -0.9312
10446SOL    HW132237   4.604   4.484   6.593 -0.6660 -2.0329 -2.0257
10446SOL    HW232238   4.607   4.629   6.517 -1.5881 -0.7276  0.3286
10447SOL     OW32239   2.363   1.588   5.117 -0.5790 -0.0645 -0.3424
10447SOL    HW132240   2.297   1.519   5.090 -1.5905  0.6868  0.1506
10447SOL    HW232241   2.455   1.549   5.112 -1.1658 -1.6842  0.6403
10448SOL     OW32242   1.833   6.092   2.555  0.0409 -0.1371 -0.0207
10448SOL    HW132243   1.848   6.038   2.638  0.4586  0.9383  0.6331
10448SOL    HW232244   1.769   6.044   2.495 -1.7055 -0.1440  1.7394
10449SOL     OW32245   4.489   4.622   4.658  0.6624  0.4381  0.2642
10449SOL    HW132246   4.520   4.561   4.730 -0.1657 -1.4044 -0.8719
10449SOL    HW232247   4.399   4.660   4.683  1.4150  1.6561  1.2090
10450SOL     OW32248   1.329   4.542   4.514 -0.3568  0.2682 -0.5993
10450SOL    HW132249   1.311   4.457   4.466 -0.7055  0.8230 -1.4656
10450SOL    HW232250   1.244   4.577   4.555  0.2184 -1.1173  2.0338
10451SOL     OW32251   0.973   2.043   3.415  0.2820  0.2133 -0.0502
10451SOL    HW132252   0.896   2.091   3.458 -0.1159  0.2945 -0.8328
10451SOL    HW232253   0.990   1.958   3.464  0.9382  1.0933  1.2957
10452SOL     OW32254   1.205   2.606   2.647  0.4110 -0.6007 -0.3767
10452SOL    HW132255   1.157   2.691   2.668 -0.4776 -1.2294  0.2082
10452SOL    HW232256   1.228   2.559   2.732 -1.3230 -2.1383 -0.6897
10453SOL     OW32257   4.780   4.780   3.628  0.1719  0.2363 -0.4529
10453SOL    HW132258   4.712   4.782   3.701 -1.9825 -0.7175 -2.3341
10453SOL    HW232259   4.826   4.691   3.628 -1.4128 -0.6288 -1.5673
10454SOL     OW32260   5.281   3.396   5.077  0.5621  0.0775  0.0630
10454SOL    HW132261   5.369   3.354   5.057  0.4534  0.7504 -2.0839
10454SOL    HW232262   5.216   3.375   5.004 -0.4381  1.2759  0.5574
10455SOL     OW32263   3.023   4.835   4.308 -0.1288 -0.1971 -0.1804
10455SOL    HW132264   3.031   4.747   4.355  1.9575 -0.7113 -1.3596
10455SOL    HW232265   3.110   4.884   4.316 -1.1222  1.5810  0.0826
10456SOL     OW32266   1.478   4.995   5.274  0.2305 -0.3390 -0.1025
10456SOL    HW132267   1.477   4.895   5.268  1.3626 -0.3970  0.3052
10456SOL    HW232268   1.494   5.023   5.369  3.1472  0.1241 -0.6124
10457SOL     OW32269   5.024   2.011   1.586  0.6525  0.1525  0.3490
10457SOL    HW132270   4.981   1.933   1.632 -1.3688  1.2798  0.4540
10457SOL    HW232271   4.975   2.030   1.501  2.7366 -0.2627 -1.0391
10458SOL     OW32272   2.129   6.454   6.724  0.2980 -0.0577 -0.7411
10458SOL    HW132273   2.039   6.493   6.708 -0.8535 -2.3400 -0.2193
10458SOL    HW232274   2.179   6.511   6.790 -1.5402  0.2033  0.4941
10459SOL     OW32275   4.865   4.226   2.628 -0.1636  0.0392  0.0958
10459SOL    HW132276   4.964   4.214   2.634 -0.3786 -1.4677  1.1453
10459SOL    HW232277   4.832   4.268   2.713 -0.4190  0.7416 -0.3391
10460SOL     OW32278   5.427   2.484   6.147  0.5990  0.0664  0.2708
10460SOL    HW132279   5.424   2.556   6.078 -0.3084  0.0580  0.2896
10460SOL    HW232280   5.397   2.521   6.235 -1.3634 -0.6798 -0.0466
10461SOL     OW32281   6.903   4.509   5.729 -0.0132  0.3952 -0.0761
10461SOL    HW132282   6.804   4.524   5.736 -0.1261 -0.8815  2.3603
10461SOL    HW232283   6.941   4.497   5.820  2.2680 -0.0769 -1.0197
10462SOL     OW32284   5.283   3.679   6.763 -0.3161 -0.0466  0.3552
10462SOL    HW132285   5.382   3.671   6.773 -0.5085 -0.7259  2.0354
10462SOL    HW232286   5.262   3.749   6.694  1.3106 -0.9576 -1.1468
10463SOL     OW32287   2.768   4.554   6.601  0.1655  0.0125 -0.3704
10463SOL    HW132288   2.759   4.529   6.505 -1.7856 -0.2290 -0.1630
10463SOL    HW232289   2.694   4.616   6.627  0.3903 -0.2836  1.0852
10464SOL     OW32290   5.083   4.026   2.056 -0.1263  0.4467 -0.4138
10464SOL    HW132291   5.060   4.049   1.961 -0.5243 -2.9537 -1.2419
10464SOL    HW232292   5.179   3.999   2.061 -0.2124  0.2322  0.0929
10465SOL     OW32293   2.917   3.757   1.021 -0.2189  0.0301 -0.2150
10465SOL    HW132294   2.857   3.759   0.941  0.3203 -3.3008 -0.8524
10465SOL    HW232295   3.009   3.731   0.993  0.6451  1.2984  1.2453
10466SOL     OW32296   6.519   3.013   5.699  0.2226  0.4828  1.0080
10466SOL    HW132297   6.421   3.008   5.679 -0.0221  0.6041  2.0989
10466SOL    HW232298   6.532   3.055   5.789  1.1331 -2.0656  2.1471
10467SOL     OW32299   1.077   3.258   6.674  0.1240  0.2405 -0.1068
10467SOL    HW132300   1.016   3.238   6.751  1.3410 -0.1652  0.7871
10467SOL    HW232301   1.153   3.315   6.705  1.2377 -0.8428 -0.7166
10468SOL     OW32302   2.092   3.588   4.461  0.4372  0.2524 -0.3959
10468SOL    HW132303   2.002   3.629   4.447  0.7599  1.3982  0.6915
10468SOL    HW232304   2.148   3.602   4.379 -0.2869 -0.2816 -0.9972
10469SOL     OW32305   2.974   5.778   4.955  0.5439 -0.4956 -0.4506
10469SOL    HW132306   3.002   5.836   5.031 -0.0879  1.5036 -1.6779
10469SOL    HW232307   2.879   5.750   4.967  0.0705  0.7964 -1.0470
10470SOL     OW32308   2.043   6.553   2.576 -0.1264 -0.6086  0.0868
10470SOL    HW132309   1.992   6.608   2.642 -0.0331  0.1790 -0.4752
10470SOL    HW232310   2.047   6.458   2.606  0.2201 -0.1981  1.3821
10471SOL     OW32311   2.606   4.780   6.663 -0.0374 -0.1187  0.0406
10471SOL    HW132312   2.539   4.712   6.692 -0.8606 -0.0325 -1.5300
10471SOL    HW232313   2.559   4.868   6.648  0.4804  0.0413 -0.6943
10472SOL     OW32314   3.678   6.054   4.639 -0.4924 -0.3954 -0.6994
10472SOL    HW132315   3.743   5.978   4.641  0.7157  0.6225  0.1225
10472SOL    HW232316   3.723   6.138   4.669 -1.9036  0.5809 -1.1933
10473SOL     OW32317   6.694   5.646   0.595 -0.0879 -0.0526  0.0074
10473SOL    HW132318   6.599   5.617   0.596 -0.5584  1.4093  1.4120
10473SOL    HW232319   6.699   5.746   0.601  1.5242 -0.1187  0.3336
10474SOL     OW32320   6.205   4.925   6.158 -0.3746 -0.2851  0.5019
10474SOL    HW132321   6.246   4.992   6.097 -0.5910 -1.8823 -1.5022
10474SOL    HW232322   6.120   4.961   6.196 -0.0957  0.8447  0.0840
10475SOL     OW32323   0.945   5.200   2.264 -0.4976 -0.2169 -0.1415
10475SOL    HW132324   0.856   5.164   2.235 -0.9342  0.5213  0.2369
10475SOL    HW232325   0.960   5.288   2.219 -0.3708  0.0871  0.4949
10476SOL     OW32326   4.311   5.859   0.925  0.3380 -0.1539 -0.5396
10476SOL    HW132327   4.258   5.780   0.894  0.1030  0.3205 -1.4131
10476SOL    HW232328   4.332   5.917   0.846 -1.0683  1.6025  0.3113
10477SOL     OW32329   6.455   1.947   0.856 -0.2384 -0.3242 -0.2781
10477SOL    HW132330   6.487   1.903   0.939  0.6843 -1.4539 -1.1943
10477SOL    HW232331   6.358   1.925   0.841  0.0627 -1.6469 -0.4294
10478SOL     OW32332   0.008   1.524   0.575 -0.7814 -0.0906 -0.2442
10478SOL    HW132333   0.026   1.506   0.478  0.7425 -0.6447  0.1155
10478SOL    HW232334  -0.091   1.528   0.590 -1.1175 -2.2049 -1.4515
10479SOL     OW32335   0.095   5.654   2.844  0.0403  0.4620 -0.1140
10479SOL    HW132336   0.191   5.632   2.863  0.0008 -0.0783 -0.5453
10479SOL    HW232337   0.059   5.591   2.776 -1.1631 -0.5129  1.3618
10480SOL     OW32338   1.744   2.750   3.422  0.2677  0.4602  0.2843
10480SOL    HW132339   1.789   2.733   3.335 -0.1426  2.5147 -0.3987
10480SOL    HW232340   1.689   2.670   3.447  1.0399 -0.4881 -0.9055
10481SOL     OW32341   5.590   2.042   3.442 -0.3220 -0.0308 -0.2401
10481SOL    HW132342   5.648   2.066   3.364 -1.0890 -0.5318 -0.9789
10481SOL    HW232343   5.648   2.032   3.524  1.0650 -2.8885 -1.4184
10482SOL     OW32344   6.568   3.755   4.354 -0.0349  0.4193  0.0629
10482SOL    HW132345   6.559   3.811   4.271 -1.5757  0.2031  0.0487
10482SOL    HW232346   6.661   3.719   4.360  0.8340  2.4550 -0.2460
10483SOL     OW32347   0.308   0.986   0.102  0.1196 -0.1351 -0.4261
10483SOL    HW132348   0.399   0.950   0.079  0.4928  0.4621  0.0988
10483SOL    HW232349   0.295   0.981   0.201  0.2292  1.2966 -0.3278
10484SOL     OW32350   5.708   0.043   1.382  0.6279 -0.3277 -0.9448
10484SOL    HW132351   5.745  -0.039   1.426  0.5995 -0.9856 -2.1238
10484SOL    HW232352   5.748   0.124   1.425  1.2994 -0.9716 -0.3259
10485SOL     OW32353   3.028   3.136   0.643 -0.0363 -0.6059  0.0923
10485SOL    HW132354   3.098   3.164   0.578 -0.2481 -1.7248 -0.6443
10485SOL    HW232355   2.940   3.175   0.617 -0.3049 -1.7907 -0.8555
10486SOL     OW32356   6.222   3.048   4.376 -0.0509 -0.1482 -0.4467
10486SOL    HW132357   6.238   2.978   4.306  1.1558  1.1076 -1.4980
10486SOL    HW232358   6.132   3.035   4.417 -2.0210  0.6117 -4.1236
10487SOL     OW32359   4.299   5.915   1.604 -0.9587  0.6979  0.6880
10487SOL    HW132360   4.230   5.919   1.677 -1.0845 -1.5142  0.7439
10487SOL    HW232361   4.384   5.878   1.640 -1.2196 -1.0423 -0.3812
10488SOL     OW32362   3.997   3.870   5.840  0.4072 -0.2131  0.2636
10488SOL    HW132363   3.966   3.918   5.922  0.0510 -0.3233  0.1948
10488SOL    HW232364   4.065   3.801   5.865 -0.3675 -0.8816  0.5954
10489SOL     OW32365   1.175   5.285   6.590 -0.9817  0.5022 -0.2867
10489SOL    HW132366   1.122   5.275   6.506 -0.2751  0.0166 -0.6846
10489SOL    HW232367   1.118   5.258   6.668 -0.8907 -1.4735 -0.8356
10490SOL     OW32368   5.544   6.921   6.408 -0.0574  0.2759  0.2626
10490SOL    HW132369   5.638   6.893   6.426 -0.0786  0.8905  1.3875
10490SOL    HW232370   5.527   6.919   6.309  1.1969  0.3609  0.0328
10491SOL     OW32371   6.650   1.361   6.553 -0.7275  0.1568  0.1955
10491SOL    HW132372   6.624   1.271   6.520 -2.4804  0.2846  1.1076
10491SOL    HW232373   6.589   1.388   6.627 -0.1784  2.0645  0.0052
10492SOL     OW32374   5.191   3.231   6.616 -0.6308 -0.4484  0.0883
10492SOL    HW132375   5.169   3.325   6.642 -1.6760 -0.2511 -1.3842
10492SOL    HW232376   5.156   3.168   6.685  0.3407  0.2376  1.2437
10493SOL     OW32377   4.215   1.167   6.510 -0.6792 -0.0179 -0.3285
10493SOL    HW132378   4.233   1.254   6.556 -2.2040  0.1919 -0.0853
10493SOL    HW232379   4.264   1.164   6.423  0.1885  0.6464  0.1224
10494SOL     OW32380   4.484   2.064   3.888  0.6685  0.1280 -0.1544
10494SOL    HW132381   4.440   2.033   3.804  1.6737  0.5729 -0.8617
10494SOL    HW232382   4.519   1.985   3.938  0.0183 -0.1426 -0.1144
10495SOL     OW32383   6.676   6.738   0.003 -0.6373  0.4097  0.6130
10495SOL    HW132384   6.717   6.722  -0.086 -0.6303  0.8446  0.5354
10495SOL    HW232385   6.579   6.759  -0.008 -1.0117 -1.0880  0.8295
10496SOL     OW32386   1.238   2.322   4.764  0.3982  0.2273 -0.1989
10496SOL    HW132387   1.235   2.351   4.859  1.6464 -0.9501  0.2417
10496SOL    HW232388   1.248   2.402   4.705 -2.9641  1.2283  0.4002
10497SOL     OW32389   2.016   0.056   6.203  0.4487  0.1482  0.6381
10497SOL    HW132390   1.952   0.004   6.147 -1.9415  1.1708  2.2649
10497SOL    HW232391   2.048   0.136   6.153 -0.8313  0.4772  0.3037
10498SOL     OW32392   1.661   6.925   5.370 -0.6003  0.2595  0.3918
10498SOL    HW132393   1.710   6.878   5.296 -0.3184  1.1700 -0.0171
10498SOL    HW232394   1.726   6.950   5.442 -0.4374  1.4400 -0.1366
10499SOL     OW32395   4.189   5.382   3.483  0.2152  0.4593  0.0653
10499SOL    HW132396   4.175   5.312   3.553 -0.5746 -1.2324 -1.6859
10499SOL    HW232397   4.267   5.439   3.509  1.4041 -1.5574  1.2140
10500SOL     OW32398   1.056   0.653   0.235 -0.0286 -0.4535  0.3830
10500SOL    HW132399   0.984   0.585   0.220 -0.5243 -0.4788  2.6588
10500SOL    HW232400   1.099   0.674   0.147 -2.7104 -0.5164 -1.0537
10501SOL     OW32401   1.864   2.241   3.520 -0.7242 -0.4955 -0.1202
10501SOL    HW132402   1.779   2.191   3.507 -0.4399 -1.0526  0.1374
10501SOL    HW232403   1.878   2.304   3.443 -0.5472 -1.6082 -1.0168
10502SOL     OW32404   3.403   6.178   4.634  0.4431 -0.1419  0.2771
10502SOL    HW132405   3.469   6.221   4.573  0.4533 -0.2336  0.2226
10502SOL    HW232406   3.450   6.113   4.694  0.1258 -1.9260 -1.3028
10503SOL     OW32407   0.759   4.206   0.538  0.0478 -0.0718 -0.0479
10503SOL    HW132408   0.800   4.138   0.599  2.2136  2.2532  1.3266
10503SOL    HW232409   0.819   4.220   0.460 -1.3379 -1.0377 -1.3268
10504SOL     OW32410   2.982   1.935   6.662  0.3879  0.0693 -0.4107
10504SOL    HW132411   2.973   1.836   6.652  0.4624 -0.0104  0.2457
10504SOL    HW232412   3.074   1.963   6.637  0.1892  0.0570 -1.1781
10505SOL     OW32413   1.732   3.002   6.583  0.3816 -0.1791  0.2581
10505SOL    HW132414   1.730   3.099   6.560  0.0168 -0.4919 -1.0686
10505SOL    HW232415   1.798   2.987   6.658  0.3092  1.0988  0.5896
10506SOL     OW32416   0.844   4.752   0.258  0.0808 -0.3546  0.0502
10506SOL    HW132417   0.818   4.658   0.280  1.4952 -1.4485 -2.5579
10506SOL    HW232418   0.932   4.753   0.211 -0.6214  2.1265 -1.4182
10507SOL     OW32419   4.082   0.137   3.462 -0.1947  0.5461 -0.3093
10507SOL    HW132420   4.153   0.068   3.467 -0.7518 -0.0218 -0.1189
10507SOL    HW232421   4.030   0.126   3.377 -2.2980 -1.3188  1.0835
10508SOL     OW32422   5.530   4.913   2.677  0.0127 -0.2364  0.2046
10508SOL    HW132423   5.555   4.991   2.735 -0.9377  0.8424 -0.7629
10508SOL    HW232424   5.533   4.829   2.730  1.3509  0.4045  1.2196
10509SOL     OW32425   1.593   2.537   4.428  0.4418  0.0550  0.2523
10509SOL    HW132426   1.669   2.484   4.390  1.5674  0.6799  1.5466
10509SOL    HW232427   1.607   2.634   4.407 -1.0033  0.0059 -1.1085
10510SOL     OW32428   4.123   0.146   6.562 -0.7126  0.1618  0.2431
10510SOL    HW132429   4.182   0.225   6.548 -0.1916 -0.1528  0.6228
10510SOL    HW232430   4.031   0.167   6.531 -0.8817  1.3471  1.4673
10511SOL     OW32431   6.919   1.836   5.609  0.4125 -0.1806 -0.6349
10511SOL    HW132432   6.911   1.854   5.511  2.7884 -0.5621 -0.9700
10511SOL    HW232433   6.993   1.890   5.647 -0.8338  0.3830  1.1200
10512SOL     OW32434   2.420   5.998   5.888 -0.5369 -0.4479 -0.7289
10512SOL    HW132435   2.347   6.066   5.884 -0.6018 -0.3806  0.9225
10512SOL    HW232436   2.476   6.014   5.970 -0.8023 -2.5972 -0.0531
10513SOL     OW32437   6.721   3.113   0.721  0.1114 -0.5272 -0.2597
10513SOL    HW132438   6.775   3.044   0.768 -0.0721 -1.5960 -1.5553
10513SOL    HW232439   6.736   3.202   0.764  1.5029 -1.1085  0.5196
10514SOL     OW32440   2.246   1.038   1.362  0.1826  0.2931 -0.0358
10514SOL    HW132441   2.165   0.985   1.336  1.0685 -1.8943  1.3383
10514SOL    HW232442   2.323   1.009   1.305  0.3188  1.3979 -0.4337
10515SOL     OW32443   1.670   5.259   4.464  0.8331 -0.1644 -0.1203
10515SOL    HW132444   1.589   5.247   4.521  0.5692  0.1570 -0.4259
10515SOL    HW232445   1.680   5.180   4.403  0.0056  0.3908 -1.0023
10516SOL     OW32446   1.048   6.223   0.616  0.0853 -0.0254 -0.4024
10516SOL    HW132447   1.002   6.144   0.576 -0.0531 -0.3538  0.3926
10516SOL    HW232448   1.044   6.300   0.552 -0.1385 -0.5327 -1.0099
10517SOL     OW32449   6.797   3.171   2.980 -0.0455 -0.0360 -0.1601
10517SOL    HW132450   6.781   3.175   2.881 -0.2194 -2.3248 -0.2896
10517SOL    HW232451   6.893   3.147   2.996 -0.2745 -0.7542  0.1753
10518SOL     OW32452   2.240   6.296   3.350  0.0976 -0.2855  0.7082
10518SOL    HW132453   2.208   6.364   3.415 -0.7398 -2.0367  2.2252
10518SOL    HW232454   2.163   6.264   3.294  0.0526 -1.3360  1.3362
10519SOL     OW32455   2.617   3.586   5.359  0.0572 -0.1372  0.7921
10519SOL    HW132456   2.668   3.537   5.289  0.1484 -0.0735  0.8134
10519SOL    HW232457   2.629   3.685   5.346  1.7733 -0.1216  2.1270
10520SOL     OW32458   4.341   5.985   7.010 -0.2284  0.2637 -0.4573
10520SOL    HW132459   4.423   6.014   7.060 -1.2501  1.4764  0.6186
10520SOL    HW232460   4.348   6.012   6.914  0.8854 -0.2279 -0.5266
10521SOL     OW32461   6.095   6.072   1.827  0.1042  0.1623 -0.0203
10521SOL    HW132462   6.033   6.148   1.845  0.2769  0.4732 -0.6950
10521SOL    HW232463   6.047   5.985   1.840 -0.8312  0.3948 -1.6626
10522SOL     OW32464   5.027   1.043   2.052  0.6475  0.2521  0.1994
10522SOL    HW132465   5.103   1.107   2.066  0.1377  0.8927  0.0783
10522SOL    HW232466   5.013   0.989   2.135  0.3099  1.1447  0.7348
10523SOL     OW32467   6.105   6.754   6.263 -0.0004  0.1523 -0.4218
10523SOL    HW132468   6.098   6.679   6.198  0.9942  0.2422 -0.6526
10523SOL    HW232469   6.150   6.832   6.220  0.4062  0.3143  0.2793
10524SOL     OW32470   4.297   0.327   4.086  0.6832  0.1322 -0.7623
10524SOL    HW132471   4.348   0.392   4.143 -0.2340  0.3791 -0.2156
10524SOL    HW232472   4.208   0.365   4.063  0.6210 -0.4251 -1.4690
10525SOL     OW32473   2.228   0.457   5.348  0.1289 -0.4885  0.0442
10525SOL    HW132474   2.219   0.556   5.352 -0.2983 -0.4480 -1.2025
10525SOL    HW232475   2.155   0.420   5.290  0.7968 -1.4386 -0.2152
10526SOL     OW32476   4.983   4.838   3.285  0.2550 -0.9001 -0.1880
10526SOL    HW132477   4.940   4.894   3.356  0.7999 -1.5406  0.6720
10526SOL    HW232478   4.914   4.779   3.242  0.1127 -1.3233  0.6021
10527SOL     OW32479   2.015   2.903   4.244  0.1053  0.2127  0.5253
10527SOL    HW132480   2.024   2.867   4.337 -1.1136  1.4785  1.1881
10527SOL    HW232481   2.103   2.938   4.213  0.9476 -1.8484  0.4500
10528SOL     OW32482   6.135   3.199   6.993  0.4865  0.4838  0.4375
10528SOL    HW132483   6.087   3.199   7.080  0.1791  0.1088  0.2682
10528SOL    HW232484   6.070   3.187   6.918  1.0076 -2.2573  0.3121
10529SOL     OW32485   1.492   6.160   6.431 -0.0342  0.0022  0.0780
10529SOL    HW132486   1.525   6.250   6.403 -0.7389  0.5705  1.0162
10529SOL    HW232487   1.394   6.165   6.452 -0.7998 -1.6042 -2.5690
10530SOL     OW32488   0.610   0.698   5.042  0.5202 -0.0139  0.2279
10530SOL    HW132489   0.580   0.792   5.060  1.8710  0.6109 -0.6029
10530SOL    HW232490   0.544   0.652   4.983  0.3385  0.7646 -0.1928
10531SOL     OW32491   2.596   1.958   3.934 -0.2888  0.5358  0.1564
10531SOL    HW132492   2.631   1.891   3.869 -0.0277  0.7406  0.0841
10531SOL    HW232493   2.513   1.922   3.978  0.8735 -0.6403  1.4998
10532SOL     OW32494   2.452   4.975   5.317  0.3064  0.3110  0.0890
10532SOL    HW132495   2.420   4.885   5.345 -0.0379 -0.1733 -1.7003
10532SOL    HW232496   2.549   4.970   5.290  0.2599  0.4380 -0.1092
10533SOL     OW32497   4.253   0.011   4.533 -0.1091  0.9181  0.1092
10533SOL    HW132498   4.203  -0.050   4.472  0.1451 -0.5444  1.2967
10533SOL    HW232499   4.202   0.096   4.545 -2.1506 -0.3640  0.9873
10534SOL     OW32500   4.642   4.478   3.882 -0.5566 -0.4308  0.0192
10534SOL    HW132501   4.649   4.462   3.783  0.7935  0.3650 -0.0409
10534SOL    HW232502   4.554   4.519   3.903 -0.3501  0.6092 -1.0456
10535SOL     OW32503   3.628   1.547   1.310  0.1403 -0.1421  0.0490
10535SOL    HW132504   3.620   1.643   1.335 -0.8259  0.4364 -2.2095
10535SOL    HW232505   3.553   1.495   1.351 -1.7343  0.8781 -1.9049
10536SOL     OW32506   1.146   6.181   2.002  0.2763 -0.4960  0.3816
10536SOL    HW132507   1.189   6.228   1.925 -1.5198  0.5206 -0.0740
10536SOL    HW232508   1.086   6.244   2.050 -1.3373 -1.9933  0.4610
10537SOL     OW32509   6.078   5.958   2.325 -0.2804  0.9563  0.1623
10537SOL    HW132510   6.097   5.966   2.227 -2.0796  2.2919 -0.1293
10537SOL    HW232511   6.137   6.022   2.375  0.9420 -0.0307  0.0243
10538SOL     OW32512   5.993   2.790   6.788  0.0167 -0.7599 -0.5102
10538SOL    HW132513   5.899   2.781   6.821  0.2924 -1.2630  0.1788
10538SOL    HW232514   6.018   2.708   6.738 -0.0682 -0.4153 -1.1269
10539SOL     OW32515   1.159   2.711   5.242  0.0982 -0.1211  0.6712
10539SOL    HW132516   1.135   2.620   5.207  0.6715 -0.3459  0.8582
10539SOL    HW232517   1.107   2.729   5.326  0.1404 -0.3638  0.7507
10540SOL     OW32518   4.113   5.819   1.820 -0.3500  0.2000  0.4696
10540SOL    HW132519   4.025   5.836   1.776  0.2315  2.4323  0.0365
10540SOL    HW232520   4.115   5.864   1.909  0.0195 -0.6324  0.8875
10541SOL     OW32521   3.125   3.401   1.853  0.0203 -0.4197 -0.3973
10541SOL    HW132522   3.051   3.437   1.795  1.3902 -0.7560 -2.4890
10541SOL    HW232523   3.129   3.302   1.844  0.5887 -0.4226 -0.1378
10542SOL     OW32524   3.774   1.746   0.332  0.2854 -0.0284  0.4486
10542SOL    HW132525   3.780   1.688   0.251 -2.5335  0.8336 -0.4633
10542SOL    HW232526   3.867   1.762   0.367  1.3850 -2.6236 -0.9455
10543SOL     OW32527   2.434   1.087   5.505  0.1403 -0.3709 -0.1979
10543SOL    HW132528   2.437   1.182   5.474 -1.6097  0.2657  1.3530
10543SOL    HW232529   2.502   1.033   5.456  1.5225  1.7734 -0.7769
10544SOL     OW32530   6.825   0.155   0.971  0.5700  0.1193  0.3349
10544SOL    HW132531   6.815   0.093   1.049 -0.9698 -0.2302 -0.1186
10544SOL    HW232532   6.735   0.176   0.933  1.0887  2.1849  0.1140
10545SOL     OW32533   2.444   1.231   5.073  0.4468  0.3651  0.1708
10545SOL    HW132534   2.491   1.298   5.130  0.1923  0.6017  0.1054
10545SOL    HW232535   2.448   1.141   5.117 -0.5277  0.7165  1.0216
10546SOL     OW32536   4.704   0.210   4.952 -0.0658 -0.0357 -0.2473
10546SOL    HW132537   4.655   0.288   4.991 -0.4423 -1.2088  1.7301
10546SOL    HW232538   4.799   0.211   4.983  0.5952  0.8815 -2.1217
10547SOL     OW32539   5.304   6.318   3.357  0.0480  0.5580 -0.5319
10547SOL    HW132540   5.391   6.301   3.310 -0.0704  1.1645 -0.9964
10547SOL    HW232541   5.309   6.285   3.451  1.7716  2.9855  0.3465
10548SOL     OW32542   6.452   4.955   4.266 -0.3253  0.6298 -0.1479
10548SOL    HW132543   6.422   4.870   4.223  4.4130 -1.3033 -0.3445
10548SOL    HW232544   6.508   5.007   4.201 -1.0358  2.6413  0.7867
10549SOL     OW32545   6.360   1.253   5.846 -0.0544  0.1267 -0.0243
10549SOL    HW132546   6.304   1.305   5.911 -2.4202 -2.0338 -0.1686
10549SOL    HW232547   6.326   1.267   5.753  0.9797  0.3450 -0.3867
10550SOL     OW32548   3.632   6.240   5.564  0.1633 -0.2605  0.5941
10550SOL    HW132549   3.618   6.269   5.658 -0.1894  1.0371  0.1724
10550SOL    HW232550   3.686   6.310   5.516 -0.9995 -0.1348 -0.5746
10551SOL     OW32551   2.880   3.060   5.246 -0.4557  0.0685  0.2300
10551SOL    HW132552   2.916   3.137   5.299  0.3485 -0.4721  0.4840
10551SOL    HW232553   2.798   3.025   5.291 -1.4818  1.4502 -0.4731
10552SOL     OW32554   4.572   2.770   5.207 -0.1631 -0.1381 -0.1430
10552SOL    HW132555   4.518   2.706   5.261 -0.0522 -0.1136 -0.0025
10552SOL    HW232556   4.662   2.783   5.250  0.1227 -0.5205 -0.6187
10553SOL     OW32557   1.743   3.780   0.952 -0.2211  0.4430 -0.1092
10553SOL    HW132558   1.834   3.741   0.950  0.0196  0.7225  2.4009
10553SOL    HW232559   1.749   3.879   0.970 -1.0066  0.3374  0.8420
10554SOL     OW32560   0.518   2.188   6.291  0.3845 -0.1098  0.3064
10554SOL    HW132561   0.488   2.127   6.217  1.0225 -0.3370  0.2323
10554SOL    HW232562   0.453   2.183   6.367  0.1349 -0.4593  0.0718
10555SOL     OW32563   2.304   1.138   0.684 -0.5222  0.3401 -0.0110
10555SOL    HW132564   2.331   1.074   0.756  3.3753  1.0616 -0.6212
10555SOL    HW232565   2.259   1.088   0.610 -1.0308 -1.0235  1.1650
10556SOL     OW32566   3.575   5.222   5.222  0.0206 -0.0416 -0.2084
10556SOL    HW132567   3.576   5.187   5.316  0.6067  0.4857 -0.0057
10556SOL    HW232568   3.489   5.270   5.206 -0.5065 -0.9876 -0.2752
10557SOL     OW32569   6.604   3.377   3.409  0.0648  0.2328  0.2226
10557SOL    HW132570   6.674   3.371   3.481  0.1980  1.0008  0.1663
10557SOL    HW232571   6.645   3.357   3.320 -0.1649 -1.0218  0.3813
10558SOL     OW32572   1.375   4.531   6.678 -0.2947 -0.8292  0.1665
10558SOL    HW132573   1.352   4.443   6.636 -0.8680  0.0211 -1.4110
10558SOL    HW232574   1.471   4.530   6.707 -0.3799 -2.0662  0.4587
10559SOL     OW32575   3.097   3.007   2.206  0.4270 -0.6201  0.2570
10559SOL    HW132576   3.115   2.910   2.188  3.8613 -0.2219  0.8105
10559SOL    HW232577   3.132   3.031   2.297  0.5538  1.3376 -0.2646
10560SOL     OW32578   6.647   4.464   3.730 -0.0647 -0.4190  0.2014
10560SOL    HW132579   6.661   4.488   3.634  0.8439  1.3881  0.7316
10560SOL    HW232580   6.667   4.544   3.787 -1.7123 -1.0963  1.8379
10561SOL     OW32581   0.323   3.904   6.128  0.3651 -0.0181 -0.3988
10561SOL    HW132582   0.412   3.918   6.172  0.5572 -0.1588 -0.7350
10561SOL    HW232583   0.337   3.860   6.039 -0.1431 -1.3227  0.1468
10562SOL     OW32584   3.416   1.274   0.476  0.3751 -0.1438  0.0222
10562SOL    HW132585   3.444   1.191   0.524  1.3495  0.1450 -0.0247
10562SOL    HW232586   3.316   1.283   0.480  0.4252  1.7531  5.2837
10563SOL     OW32587   0.713   2.210   1.918 -0.3087  0.2244  0.9593
10563SOL    HW132588   0.760   2.210   1.830  1.7082 -2.1281  1.9078
10563SOL    HW232589   0.629   2.157   1.912 -0.0657 -0.1074  0.5027
10564SOL     OW32590   6.836   1.417   3.289 -0.3778 -0.4923 -0.9984
10564SOL    HW132591   6.883   1.494   3.331 -0.8315 -0.9455  0.3889
10564SOL    HW232592   6.880   1.332   3.317 -1.6113 -0.8878 -0.1847
10565SOL     OW32593   5.656   0.543   3.869  0.2527 -0.5637  0.2318
10565SOL    HW132594   5.581   0.604   3.841  1.5492  0.2826 -1.6219
10565SOL    HW232595   5.722   0.595   3.923  2.3957  0.4015 -3.0381
10566SOL     OW32596   5.367   5.351   0.660  0.3081  0.4039 -0.4799
10566SOL    HW132597   5.294   5.414   0.685  1.7277  2.2084 -0.6246
10566SOL    HW232598   5.456   5.398   0.670  1.3447 -1.1411 -1.9208
10567SOL     OW32599   3.063   6.698   4.611 -0.5980  0.0196 -0.0151
10567SOL    HW132600   3.110   6.787   4.610 -0.5207 -0.0070  0.6243
10567SOL    HW232601   2.980   6.704   4.557  0.2873 -0.0200 -1.4399
10568SOL     OW32602   3.794   6.425   3.299  0.2231 -0.0500 -0.2630
10568SOL    HW132603   3.813   6.433   3.397  0.2344  0.9861 -0.3399
10568SOL    HW232604   3.703   6.461   3.280  0.8852  1.4249 -0.8603
10569SOL     OW32605   6.340   2.613   5.157 -0.6578 -0.5654 -0.2801
10569SOL    HW132606   6.262   2.625   5.094 -0.3165 -0.3134 -0.6600
10569SOL    HW232607   6.408   2.684   5.139 -0.0859 -1.1217 -0.3276
10570SOL     OW32608   6.449   3.365   3.852  0.0203 -0.5809  0.0943
10570SOL    HW132609   6.412   3.384   3.761  0.9449  2.1829  0.1973
10570SOL    HW232610   6.428   3.271   3.877 -2.0784 -0.8004 -2.0847
10571SOL     OW32611   6.878   6.822   6.342 -0.4783  0.5593  0.3332
10571SOL    HW132612   6.789   6.803   6.385  0.1311  0.9804  1.8650
10571SOL    HW232613   6.883   6.918   6.317 -0.4421  0.5416  0.2716
10572SOL     OW32614   0.937   5.177   2.530 -0.0904 -0.1563 -0.1664
10572SOL    HW132615   0.924   5.082   2.559  1.4021 -0.5198 -0.6281
10572SOL    HW232616   0.927   5.184   2.431  0.0461  0.1295 -0.1609
10573SOL     OW32617   5.317   4.840   6.916  0.2993 -0.6971  0.4146
10573SOL    HW132618   5.262   4.757   6.926  1.8470 -1.7029  0.9438
10573SOL    HW232619   5.401   4.819   6.867  0.9877  0.4428  1.0573
10574SOL     OW32620   6.619   1.735   1.451 -0.0936  0.0371  0.0798
10574SOL    HW132621   6.629   1.636   1.461 -1.2589 -0.3655 -2.2428
10574SOL    HW232622   6.700   1.773   1.408 -0.5619 -0.2772 -1.1057
10575SOL     OW32623   6.721   3.155   6.547  0.0006 -0.9702 -0.3251
10575SOL    HW132624   6.658   3.082   6.517 -0.5553  0.4180 -2.8514
10575SOL    HW232625   6.810   3.141   6.503  0.0053 -0.3625 -0.5108
10576SOL     OW32626   6.736   1.041   1.491  0.1308  0.1673 -0.3437
10576SOL    HW132627   6.811   1.075   1.435  1.6212 -1.4156  0.5890
10576SOL    HW232628   6.770   1.016   1.581 -1.8238  0.7508  0.5971
10577SOL     OW32629   0.334   3.288   5.266 -0.4354 -0.1157  0.5413
10577SOL    HW132630   0.336   3.301   5.365  0.8882 -0.5880  0.5926
10577SOL    HW232631   0.281   3.362   5.224 -2.3450 -0.7434  1.7004
10578SOL     OW32632   5.419   0.654   5.364  0.2498 -0.3793  0.6202
10578SOL    HW132633   5.487   0.719   5.401  0.3092  0.2207 -0.4996
10578SOL    HW232634   5.329   0.697   5.363  0.3835 -0.1020 -0.6309
10579SOL     OW32635   5.463   6.989   1.467 -0.3023 -0.2641 -0.0154
10579SOL    HW132636   5.461   6.905   1.522 -0.1358  1.1296  2.2350
10579SOL    HW232637   5.555   7.003   1.431 -0.0646 -0.5257  0.4759
10580SOL     OW32638   2.529   5.201   0.777  0.2550 -0.5456 -0.0015
10580SOL    HW132639   2.562   5.257   0.853  0.7227 -0.0918 -0.5273
10580SOL    HW232640   2.445   5.154   0.804 -0.0359  0.2584  0.5090
10581SOL     OW32641   4.573   0.506   3.855  0.3883  0.3562 -0.1229
10581SOL    HW132642   4.491   0.512   3.910  0.7530 -2.0262  0.8012
10581SOL    HW232643   4.606   0.598   3.833 -0.8369  1.3643  1.9902
10582SOL     OW32644   2.709   5.631   0.335 -0.1308 -0.3740  0.5999
10582SOL    HW132645   2.708   5.590   0.244 -0.5376 -0.0409  0.4512
10582SOL    HW232646   2.748   5.566   0.400 -0.7206 -0.9869  0.3586
10583SOL     OW32647   4.740   2.278   4.120  0.5585 -0.4865 -0.5974
10583SOL    HW132648   4.771   2.290   4.215  0.5002 -0.5821 -0.5662
10583SOL    HW232649   4.650   2.319   4.110  1.7137  2.0810 -1.3175
10584SOL     OW32650   6.974   6.458   2.199  0.2591 -0.0132 -0.2178
10584SOL    HW132651   6.987   6.475   2.296 -0.7692 -0.9095  0.0907
10584SOL    HW232652   6.901   6.391   2.186  0.3030  0.1782 -1.6109
10585SOL     OW32653   2.233   4.068   4.778  0.3052 -0.7613  0.0338
10585SOL    HW132654   2.209   3.995   4.715 -2.4813 -2.0935  2.4298
10585SOL    HW232655   2.248   4.030   4.869 -1.4152  1.5891  1.4148
10586SOL     OW32656   6.257   3.180   3.250  0.3451  0.3640  0.2482
10586SOL    HW132657   6.303   3.099   3.288  1.4800  0.8023 -0.1389
10586SOL    HW232658   6.162   3.182   3.280  0.6020 -0.5277  1.1641
10587SOL     OW32659   6.518   3.171   5.934 -0.0882  0.3037 -0.3457
10587SOL    HW132660   6.433   3.136   5.973 -0.1612  0.1220 -0.6591
10587SOL    HW232661   6.510   3.269   5.919  0.5689  0.7141  1.7092
10588SOL     OW32662   1.059   4.215   4.267 -0.2285  0.0133  0.1526
10588SOL    HW132663   1.010   4.301   4.283 -0.2293  0.1403 -0.5053
10588SOL    HW232664   1.085   4.210   4.171  0.1218 -0.5431  0.2771
10589SOL     OW32665   4.260   0.386   5.381  0.1907 -0.2682  0.1332
10589SOL    HW132666   4.262   0.453   5.307 -1.1257 -0.8488 -0.4443
10589SOL    HW232667   4.257   0.294   5.343 -1.0530 -0.5612  0.8838
10590SOL     OW32668   0.318   1.492   2.640 -0.1480 -0.3033  0.2534
10590SOL    HW132669   0.413   1.520   2.656  0.1107  2.2696 -4.0686
10590SOL    HW232670   0.316   1.420   2.570 -1.1933  2.2251 -2.5839
10591SOL     OW32671   6.858   3.350   0.834 -0.3204 -0.0683 -0.2953
10591SOL    HW132672   6.877   3.417   0.906 -0.5053  1.3701 -1.5550
10591SOL    HW232673   6.943   3.310   0.801 -0.2030 -0.3963  0.3888
10592SOL     OW32674   4.734   1.841   6.077  0.2881 -0.1974 -0.3710
10592SOL    HW132675   4.779   1.886   5.999 -1.9776 -1.4389 -2.5097
10592SOL    HW232676   4.635   1.841   6.063  0.0063 -3.5084  0.7625
10593SOL     OW32677   1.596   4.651   3.117 -0.3977 -0.3795 -0.7588
10593SOL    HW132678   1.511   4.633   3.165  0.5007  0.7202  1.4152
10593SOL    HW232679   1.596   4.746   3.084  0.0926 -0.2606 -0.4381
10594SOL     OW32680   1.745   0.744   3.087  0.2291  0.0274  0.5208
10594SOL    HW132681   1.725   0.840   3.065 -0.0759  0.1278  1.2177
10594SOL    HW232682   1.819   0.740   3.153 -0.4235 -0.1677  1.2590
10595SOL     OW32683   1.271   5.873   6.036 -0.2758  0.6874  0.2664
10595SOL    HW132684   1.338   5.809   5.998 -0.4838  0.3504  0.4732
10595SOL    HW232685   1.319   5.943   6.089 -0.0891  0.4127  0.4629
10596SOL     OW32686   1.183   1.863   0.349  0.3905 -0.3770 -0.0343
10596SOL    HW132687   1.256   1.925   0.379 -1.1343  0.9686  1.0612
10596SOL    HW232688   1.201   1.833   0.256  2.6987 -0.6811  0.4398
10597SOL     OW32689   1.770   1.069   3.696  0.0528  0.5081 -0.1523
10597SOL    HW132690   1.674   1.042   3.685  1.1558 -3.5439 -1.2555
10597SOL    HW232691   1.798   1.056   3.791 -0.2624  1.0370  0.0205
10598SOL     OW32692   1.922   2.741   0.091 -0.2842  0.2109  0.1809
10598SOL    HW132693   1.971   2.713   0.174  0.7438  0.5912 -0.2826
10598SOL    HW232694   1.873   2.662   0.054  0.3367 -0.2992  0.4164
10599SOL     OW32695   6.193   4.560   6.863 -0.1361  0.1536 -0.3427
10599SOL    HW132696   6.263   4.587   6.929  0.6752 -2.5208  0.0036
10599SOL    HW232697   6.223   4.478   6.815 -2.7230 -0.6222 -0.7459
10600SOL     OW32698   3.374   2.506   5.591 -0.1339  0.3427  0.2999
10600SOL    HW132699   3.409   2.412   5.592 -0.3919  0.2309 -0.6181
10600SOL    HW232700   3.340   2.528   5.500 -1.3237  0.8736  0.8535
10601SOL     OW32701   3.618   6.094   3.837  0.0780 -0.2785 -0.9964
10601SOL    HW132702   3.537   6.097   3.778 -0.5080 -0.8149 -0.2451
10601SOL    HW232703   3.692   6.045   3.791 -0.1066 -0.0012 -1.5923
10602SOL     OW32704   5.302   1.885   2.430 -0.0490 -0.0884  0.6280
10602SOL    HW132705   5.380   1.937   2.465  2.2808 -2.7281 -0.3382
10602SOL    HW232706   5.260   1.936   2.355  2.9170 -0.0165 -1.1192
10603SOL     OW32707   5.873   6.566   3.497 -0.2164 -0.3675 -0.5167
10603SOL    HW132708   5.963   6.595   3.528 -0.2951 -0.4379 -0.2254
10603SOL    HW232709   5.807   6.573   3.572 -0.6518  0.5391 -0.9546
10604SOL     OW32710   6.223   3.824   0.345 -0.4307  0.5340 -0.0521
10604SOL    HW132711   6.127   3.808   0.368 -0.4704  0.1956 -0.4619
10604SOL    HW232712   6.259   3.746   0.295 -0.4346  1.4004 -1.4527
10605SOL     OW32713   1.747   4.873   0.822 -0.0045 -0.1526  0.2766
10605SOL    HW132714   1.825   4.889   0.882 -0.2882 -0.3930  0.7123
10605SOL    HW232715   1.749   4.939   0.746 -0.5895  1.3067  1.4786
10606SOL     OW32716   3.601   5.856   0.579  0.0905  0.7366  1.1179
10606SOL    HW132717   3.576   5.770   0.622  0.3053  1.4327  2.7092
10606SOL    HW232718   3.563   5.860   0.487 -1.0797 -0.4810  1.5264
10607SOL     OW32719   4.844   4.876   1.830  0.1035 -0.9348 -0.8080
10607SOL    HW132720   4.832   4.790   1.879 -1.0983  0.8931  2.3981
10607SOL    HW232721   4.755   4.910   1.801 -0.0658  1.1739  1.7932
10608SOL     OW32722   3.131   5.593   2.670 -0.1605  0.5593 -0.2197
10608SOL    HW132723   3.144   5.646   2.586 -3.2642  1.6620 -0.1616
10608SOL    HW232724   3.058   5.526   2.655  0.8738 -0.8887  0.9495
10609SOL     OW32725   3.737   1.218   2.557  0.3813 -0.0878 -0.1393
10609SOL    HW132726   3.828   1.245   2.525 -0.8504  3.2017 -1.2600
10609SOL    HW232727   3.692   1.162   2.488  0.4304  0.8789 -0.9694
10610SOL     OW32728   1.148   4.960   5.888 -0.1953  0.3093  0.2118
10610SOL    HW132729   1.191   5.049   5.877  0.8694 -0.3474 -1.1897
10610SOL    HW232730   1.206   4.901   5.944  0.0196 -0.1069 -0.4440
10611SOL     OW32731   6.363   3.118   6.539  0.1981  1.0615  0.0587
10611SOL    HW132732   6.445   3.060   6.533  0.4268  1.4923 -1.0532
10611SOL    HW232733   6.294   3.071   6.594  0.5786 -0.0355 -0.3695
10612SOL     OW32734   0.754   1.795   0.977  0.3082  0.1469  0.1945
10612SOL    HW132735   0.836   1.765   0.929  1.1152  1.0436  0.9757
10612SOL    HW232736   0.722   1.881   0.937 -0.6713 -0.5416 -0.5552
10613SOL     OW32737   2.975   6.291   1.623 -0.1700  0.2703  0.3938
10613SOL    HW132738   3.056   6.235   1.604  0.5083  0.6929  1.8983
10613SOL    HW232739   2.960   6.354   1.547  2.5199  2.0174  1.1916
10614SOL     OW32740   1.519   1.211   2.622  0.1295 -0.3801  0.4351
10614SOL    HW132741   1.577   1.160   2.686 -0.6050 -2.1716 -0.2480
10614SOL    HW232742   1.553   1.197   2.529 -0.0459  0.4722  0.2347
10615SOL     OW32743   1.269   6.179   5.693  1.3046 -0.9752  0.1109
10615SOL    HW132744   1.311   6.251   5.637  0.3405  1.0127  1.8108
10615SOL    HW232745   1.212   6.121   5.636 -1.6729  2.4728 -0.8083
10616SOL     OW32746   3.442   5.179   1.950 -0.8202  0.1882  0.1990
10616SOL    HW132747   3.360   5.134   1.914  0.0626  0.0154 -1.7195
10616SOL    HW232748   3.521   5.118   1.941  0.0489  1.4060 -0.7320
10617SOL     OW32749   5.656   1.320   0.481 -0.2104  0.3114 -0.0572
10617SOL    HW132750   5.664   1.221   0.492  0.4737  0.2479 -0.9665
10617SOL    HW232751   5.561   1.347   0.493 -0.1823 -0.2405  1.6638
10618SOL     OW32752   0.758   6.797   0.624  0.2019  0.0183 -0.3370
10618SOL    HW132753   0.710   6.743   0.556  0.4816  0.2950 -0.7588
10618SOL    HW232754   0.707   6.795   0.711  0.0525 -0.6540 -0.4394
10619SOL     OW32755   0.193   4.499   3.948 -0.0590  0.4440  0.0133
10619SOL    HW132756   0.257   4.424   3.930 -1.3468 -0.6955  0.0537
10619SOL    HW232757   0.139   4.517   3.866 -1.3481 -0.2555  0.6833
10620SOL     OW32758   6.978   0.114   6.170 -0.2113  0.4335 -0.1765
10620SOL    HW132759   6.995   0.053   6.093 -0.9076 -0.8745  0.6776
10620SOL    HW232760   7.007   0.207   6.145  0.7772 -0.1928 -1.5348
10621SOL     OW32761   4.234   0.652   1.394  0.0394  0.3666  0.3210
10621SOL    HW132762   4.302   0.637   1.322  0.2275  1.1374  0.3257
10621SOL    HW232763   4.176   0.571   1.403  0.7324 -0.1627  0.0778
10622SOL     OW32764   6.084   1.125   1.809  0.0290 -0.0119  0.1436
10622SOL    HW132765   6.164   1.114   1.868 -0.3478  0.5115  0.7582
10622SOL    HW232766   6.067   1.222   1.794  0.1030 -0.1337 -0.8145
10623SOL     OW32767   6.389   1.991   4.205  0.2330 -0.0683  0.3463
10623SOL    HW132768   6.301   1.967   4.164  0.5312 -2.0997  0.8064
10623SOL    HW232769   6.454   2.016   4.133 -0.2680 -0.0440 -0.1048
10624SOL     OW32770   1.450   1.198   3.062  0.5758 -0.5205 -0.7980
10624SOL    HW132771   1.394   1.241   2.991 -0.0173  0.2809  0.1330
10624SOL    HW232772   1.425   1.236   3.151  1.3771 -1.4423 -0.1695
10625SOL     OW32773   0.296   3.542   2.657  0.7738 -0.3161  0.5487
10625SOL    HW132774   0.236   3.619   2.635 -1.2308 -1.1886  2.5394
10625SOL    HW232775   0.356   3.568   2.733 -0.4793 -0.9124  1.7803
10626SOL     OW32776   0.352   1.220   2.539  0.6186  0.0420  0.6337
10626SOL    HW132777   0.315   1.140   2.585 -0.4353  0.4866  0.6104
10626SOL    HW232778   0.450   1.209   2.524  0.3296 -1.6813 -0.2709
10627SOL     OW32779   2.417   4.822   3.742 -0.0194  0.4623  0.1693
10627SOL    HW132780   2.511   4.851   3.720  0.2199 -1.2724 -1.3157
10627SOL    HW232781   2.368   4.804   3.657 -1.2643 -0.0165  0.9773
10628SOL     OW32782   0.415   6.071   5.190  0.6382  0.4215  0.6392
10628SOL    HW132783   0.485   6.006   5.219  0.4920  0.6144  1.4380
10628SOL    HW232784   0.339   6.022   5.148  0.5369  0.0794  1.2205
10629SOL     OW32785   3.231   4.250   0.634  0.4860 -0.3366 -0.3087
10629SOL    HW132786   3.320   4.230   0.593  1.2938  0.5270  0.9329
10629SOL    HW232787   3.218   4.191   0.714 -0.3387 -0.8612 -0.8117
10630SOL     OW32788   5.160   1.709   2.898  0.9152  0.0377 -0.2065
10630SOL    HW132789   5.110   1.774   2.955  0.4966 -1.0022  0.6398
10630SOL    HW232790   5.198   1.637   2.955  1.7711 -0.2259 -1.0774
10631SOL     OW32791   0.504   5.327   4.313 -0.5071  0.4298 -0.5288
10631SOL    HW132792   0.457   5.295   4.394 -1.4544 -1.5070 -1.7740
10631SOL    HW232793   0.602   5.310   4.323 -0.6807 -0.3186 -0.0275
10632SOL     OW32794   5.378   1.374   0.501 -0.9792 -0.7663  0.4149
10632SOL    HW132795   5.371   1.459   0.553 -1.0039 -0.4444 -0.1167
10632SOL    HW232796   5.292   1.356   0.454 -0.6944 -0.6271 -0.1768
10633SOL     OW32797   5.837   4.707   6.598  0.0384  0.1188 -0.0364
10633SOL    HW132798   5.803   4.789   6.552  0.2786  0.1054 -0.2406
10633SOL    HW232799   5.890   4.652   6.534 -0.4676 -0.4039 -0.0078
10634SOL     OW32800   4.816   5.781   2.977  0.5454 -0.4650 -0.0480
10634SOL    HW132801   4.900   5.788   3.031  0.5227  1.4603 -0.2157
10634SOL    HW232802   4.783   5.686   2.980  2.0600 -1.0027  0.9911
10635SOL     OW32803   1.465   0.659   6.330  1.0055  0.1876 -0.3252
10635SOL    HW132804   1.479   0.669   6.231 -0.4547 -1.2616 -0.7091
10635SOL    HW232805   1.385   0.603   6.347  2.1696 -0.9698  1.7053
10636SOL     OW32806   5.030   2.178   6.542 -0.4654  0.5088 -1.2906
10636SOL    HW132807   5.107   2.240   6.558  0.8549 -0.6415 -2.8693
10636SOL    HW232808   4.950   2.212   6.591  0.5624  2.6901 -0.9887
10637SOL     OW32809   3.074   3.374   6.010  0.3363  0.5152  0.0374
10637SOL    HW132810   3.034   3.299   5.956  0.5027  1.0772 -0.8947
10637SOL    HW232811   3.071   3.351   6.107  1.3279 -1.1606 -0.2935
10638SOL     OW32812   2.127   1.694   5.745  0.1422  0.4762 -0.5087
10638SOL    HW132813   2.128   1.773   5.684  0.5672  0.8042 -0.0952
10638SOL    HW232814   2.219   1.656   5.751  0.2305  0.7969  0.3542
10639SOL     OW32815   4.290   6.612   3.306 -0.3313 -0.0951 -0.3147
10639SOL    HW132816   4.356   6.630   3.380 -1.9487 -1.5184  1.5896
10639SOL    HW232817   4.215   6.677   3.313 -1.2397 -1.1814  0.2966
10640SOL     OW32818   3.920   5.929   0.781  0.5117 -0.0956  0.2761
10640SOL    HW132819   4.012   5.926   0.741  1.0611 -2.4937  1.5126
10640SOL    HW232820   3.927   5.955   0.877 -0.5169  2.8215 -0.3174
10641SOL     OW32821   3.935   6.365   6.934 -0.5242  0.3976  0.1455
10641SOL    HW132822   3.987   6.447   6.960  0.5699 -0.3468  0.4152
10641SOL    HW232823   3.888   6.328   7.015 -0.5372  0.4334  0.1542
10642SOL     OW32824   5.935   4.722   1.785 -0.2887  0.1242  0.5375
10642SOL    HW132825   5.911   4.639   1.735 -0.5649  0.7904 -0.4510
10642SOL    HW232826   5.956   4.795   1.721  1.1749  0.4871  1.3924
10643SOL     OW32827   4.019   4.497   5.897 -0.4646  0.1535 -0.8483
10643SOL    HW132828   4.095   4.495   5.833 -0.4924  1.3065 -0.9374
10643SOL    HW232829   3.933   4.502   5.847 -0.5252  0.3393 -0.7262
10644SOL     OW32830   4.219   2.119   5.874 -0.1515 -0.4654 -0.6142
10644SOL    HW132831   4.170   2.034   5.894  1.6315 -2.0504 -2.5197
10644SOL    HW232832   4.253   2.159   5.959 -1.9037 -1.0515  0.4162
10645SOL     OW32833   1.216   1.981   2.903  0.3513  0.2862  0.6136
10645SOL    HW132834   1.140   1.934   2.857  0.2963 -1.0758  2.0148
10645SOL    HW232835   1.233   2.069   2.858 -0.0759 -0.7039 -1.5977
10646SOL     OW32836   5.779   4.922   1.285 -0.0838 -0.4830  0.1779
10646SOL    HW132837   5.854   4.856   1.281  1.8544  1.4445  2.0080
10646SOL    HW232838   5.703   4.890   1.229  1.4234 -3.3649 -0.3925
10647SOL     OW32839   6.743   5.405   1.784  0.0753  0.2045 -0.6872
10647SOL    HW132840   6.665   5.351   1.815 -0.1114  2.3655  3.0549
10647SOL    HW232841   6.828   5.364   1.819  0.2617  0.2847 -1.0375
10648SOL     OW32842   5.510   4.035   6.676 -0.3704  0.5263 -0.3884
10648SOL    HW132843   5.430   4.094   6.661 -0.5147  0.0716 -1.5392
10648SOL    HW232844   5.583   4.063   6.614  0.3192  0.8464  0.5601
10649SOL     OW32845   0.244   5.818   5.107 -0.0461  0.3434  0.0913
10649SOL    HW132846   0.192   5.897   5.074 -1.6721 -0.2923  1.0018
10649SOL    HW232847   0.181   5.745   5.134  1.3282 -0.5138  1.1712
10650SOL     OW32848   1.595   2.298   0.615 -0.0301 -0.0008  0.2823
10650SOL    HW132849   1.694   2.311   0.610 -0.1976  0.9966 -1.7947
10650SOL    HW232850   1.557   2.356   0.687  0.6549  1.7801 -0.7084
10651SOL     OW32851   1.275   1.190   5.518  0.6956  0.5089  0.1239
10651SOL    HW132852   1.280   1.181   5.617 -2.1945  0.4769  0.3643
10651SOL    HW232853   1.197   1.249   5.494  1.0808  0.1976 -2.1445
10652SOL     OW32854   3.581   1.192   4.668 -0.2385 -0.5095 -0.4420
10652SOL    HW132855   3.664   1.247   4.680 -0.0308 -1.2453  2.0071
10652SOL    HW232856   3.600   1.097   4.692 -1.7821 -0.6907  0.1602
10653SOL     OW32857   5.116   4.245   2.793  0.7285  0.4308 -0.0472
10653SOL    HW132858   5.212   4.270   2.783  0.8737  0.1179  0.5151
10653SOL    HW232859   5.086   4.264   2.886  0.4871 -0.2693  0.0311
10654SOL     OW32860   0.349   6.829   0.814  0.0139  0.5966  0.3241
10654SOL    HW132861   0.406   6.757   0.776  1.3791  1.9645 -0.3365
10654SOL    HW232862   0.296   6.873   0.741 -0.4949  0.5379  0.6504
10655SOL     OW32863   2.705   5.525   5.897 -0.0236 -0.3699  0.2134
10655SOL    HW132864   2.721   5.613   5.851 -1.2370 -0.1923  0.1010
10655SOL    HW232865   2.770   5.515   5.972 -0.8103  1.3444  1.1980
10656SOL     OW32866   0.999   2.201   6.178  0.1227 -0.3129 -0.6567
10656SOL    HW132867   1.099   2.198   6.181  0.1224 -0.5842 -0.9106
10656SOL    HW232868   0.962   2.137   6.246  0.1135  1.0401  0.6676
10657SOL     OW32869   6.444   0.727   1.004  0.1343  0.2223  0.1156
10657SOL    HW132870   6.530   0.682   0.979  0.6371  1.6707 -0.8558
10657SOL    HW232871   6.404   0.771   0.924 -2.2010 -1.4273  0.2509
10658SOL     OW32872   6.281   0.492   5.223 -0.3320  0.6386  0.6683
10658SOL    HW132873   6.260   0.474   5.127  0.2438  1.8273  0.3013
10658SOL    HW232874   6.380   0.493   5.236 -0.3497  2.2575  0.8861
10659SOL     OW32875   4.116   0.662   1.980 -0.6065  0.0225 -0.2796
10659SOL    HW132876   4.067   0.731   2.033  0.1294  1.1345 -0.9962
10659SOL    HW232877   4.158   0.596   2.042 -1.4398  0.1236  0.4156
10660SOL     OW32878   5.095   4.333   5.081 -0.6087  0.0160  0.7381
10660SOL    HW132879   5.016   4.275   5.101 -0.6874  0.4340  1.6942
10660SOL    HW232880   5.176   4.296   5.125 -0.1034 -0.7670 -0.7610
10661SOL     OW32881   0.340   6.388   0.382  0.4472  0.1039 -0.7140
10661SOL    HW132882   0.386   6.303   0.406 -2.4985 -1.0991  1.3561
10661SOL    HW232883   0.351   6.406   0.285  1.6372 -2.3274 -1.0933
10662SOL     OW32884   0.049   2.180   6.509  0.3797 -0.5190 -0.3271
10662SOL    HW132885   0.014   2.270   6.485  0.4595 -0.0891  1.0768
10662SOL    HW232886  -0.025   2.113   6.503  0.6668 -0.7069 -2.9224
10663SOL     OW32887   0.055   1.574   3.122  0.2740 -0.1486  0.0778
10663SOL    HW132888   0.138   1.523   3.146  1.1858  0.3338 -1.8261
10663SOL    HW232889   0.009   1.526   3.047 -0.2601  0.4770  0.0081
10664SOL     OW32890   2.034   4.401   6.040 -0.2375  0.0751  0.3878
10664SOL    HW132891   1.958   4.450   6.081 -0.3732  0.8463 -0.7291
10664SOL    HW232892   2.030   4.304   6.065 -0.9131  0.3247  1.2734
10665SOL     OW32893   5.281   2.715   2.585 -0.0713  0.3350 -0.3046
10665SOL    HW132894   5.343   2.641   2.559  0.0337  0.5688 -0.7359
10665SOL    HW232895   5.228   2.743   2.505  0.0452  0.8701 -0.1972
10666SOL     OW32896   1.142   6.544   6.463  0.0856  0.7375 -0.8961
10666SOL    HW132897   1.238   6.536   6.488  0.7081  0.8282 -3.0750
10666SOL    HW232898   1.090   6.470   6.507  1.0631  0.8346  0.5081
10667SOL     OW32899   3.340   2.273   6.035 -0.6391  0.0793 -0.0645
10667SOL    HW132900   3.405   2.281   5.959  0.5139  0.2510  0.9018
10667SOL    HW232901   3.326   2.363   6.076 -1.5624  0.0530 -0.3040
10668SOL     OW32902   0.795   6.962   5.424  0.3821  0.1794 -0.1411
10668SOL    HW132903   0.831   7.055   5.419  0.7047  0.0609 -0.0750
10668SOL    HW232904   0.871   6.897   5.427  0.1937 -0.2092 -2.1498
10669SOL     OW32905   0.009   7.008   5.169  0.4210 -0.1537  0.2229
10669SOL    HW132906   0.071   7.057   5.108 -0.4562 -1.4532 -1.7907
10669SOL    HW232907   0.033   7.029   5.264  2.9469  0.5820 -0.4983
10670SOL     OW32908   5.639   0.040   5.227  0.4915  0.7595 -0.1263
10670SOL    HW132909   5.615   0.110   5.159 -0.5980 -0.7304 -1.3620
10670SOL    HW232910   5.562   0.026   5.289 -0.3736 -1.1099 -1.5124
10671SOL     OW32911   1.849   3.380   2.008  0.4614 -0.0348 -0.0918
10671SOL    HW132912   1.904   3.357   2.089  1.3265  0.1028 -0.6261
10671SOL    HW232913   1.773   3.316   2.000 -0.7953  1.0664  1.9001
10672SOL     OW32914   5.778   4.106   1.680  0.4200 -0.1243 -0.5953
10672SOL    HW132915   5.713   4.166   1.634  1.1284  1.9751  0.9923
10672SOL    HW232916   5.739   4.014   1.688 -2.1008  0.8965 -0.2284
10673SOL     OW32917   3.755   3.874   2.983 -0.3167  0.0883 -0.4353
10673SOL    HW132918   3.852   3.893   2.968 -0.7123  1.1991 -1.8485
10673SOL    HW232919   3.730   3.789   2.936  0.0725 -0.4701  0.3596
10674SOL     OW32920   4.231   2.291   2.630 -0.4127 -0.1233 -0.0807
10674SOL    HW132921   4.248   2.216   2.694 -0.3224 -1.5928 -1.7555
10674SOL    HW232922   4.142   2.332   2.650  0.0682  0.1590  1.6236
10675SOL     OW32923   1.811   0.894   5.773  0.5292  0.1975 -0.0595
10675SOL    HW132924   1.893   0.900   5.716  0.6157 -1.1231 -0.1200
10675SOL    HW232925   1.752   0.972   5.755  1.5484  0.9308 -0.3591
10676SOL     OW32926   5.646   6.366   0.037 -0.0683 -0.4903  0.1242
10676SOL    HW132927   5.739   6.391   0.066  0.5266  0.5177 -2.3644
10676SOL    HW232928   5.635   6.388  -0.060 -3.0229 -0.3578  0.4158
10677SOL     OW32929   4.667   0.355   6.067  0.1155  0.4774  0.0515
10677SOL    HW132930   4.716   0.434   6.103  0.7448 -0.0938  0.4874
10677SOL    HW232931   4.637   0.374   5.974  0.1062  1.2887  0.2098
10678SOL     OW32932   1.411   5.103   2.069 -0.3220  0.5250  0.2151
10678SOL    HW132933   1.494   5.152   2.096  0.3867  0.3402 -1.4795
10678SOL    HW232934   1.351   5.164   2.018  0.2746 -0.1430 -1.3559
10679SOL     OW32935   5.995   4.596   3.522 -0.1096 -0.3395  0.1822
10679SOL    HW132936   6.060   4.582   3.597 -0.0144 -0.6384  0.0455
10679SOL    HW232937   5.903   4.607   3.559 -0.0574 -0.4464  0.3428
10680SOL     OW32938   6.667   2.641   0.830  0.5404  0.0323 -0.0435
10680SOL    HW132939   6.702   2.638   0.924 -1.5785  1.4975  0.8797
10680SOL    HW232940   6.677   2.550   0.789 -1.3553 -1.6501  2.7879
10681SOL     OW32941   2.680   2.203   6.807  0.0719  1.0695  0.0266
10681SOL    HW132942   2.769   2.247   6.799  0.6276  0.3845  1.8286
10681SOL    HW232943   2.684   2.133   6.879 -1.6181  0.2401 -0.6252
10682SOL     OW32944   5.797   2.735   3.721  0.1928 -0.5426  0.1734
10682SOL    HW132945   5.732   2.773   3.786 -0.8663  0.5398 -1.4455
10682SOL    HW232946   5.749   2.706   3.638  1.6542 -0.5786 -0.7068
10683SOL     OW32947   1.676   1.742   3.357 -0.4191 -0.6488  0.9029
10683SOL    HW132948   1.604   1.807   3.332 -0.5213 -1.3052 -0.5484
10683SOL    HW232949   1.675   1.664   3.295  0.0702 -1.8001  2.2764
10684SOL     OW32950   4.425   5.829   2.924  0.1662 -0.1789 -0.4842
10684SOL    HW132951   4.469   5.751   2.880  0.2468 -0.2603 -0.2598
10684SOL    HW232952   4.333   5.840   2.887 -0.4708 -1.3920  0.6326
10685SOL     OW32953   5.634   2.480   3.977 -0.4845 -0.2741  0.2014
10685SOL    HW132954   5.609   2.413   4.047  1.4981 -0.8323  0.4356
10685SOL    HW232955   5.594   2.454   3.889 -2.4708  0.0894  0.9577
10686SOL     OW32956   4.954   5.308   1.761  0.4311  0.2593 -0.6078
10686SOL    HW132957   4.870   5.357   1.734 -0.6566 -1.1034  0.1718
10686SOL    HW232958   5.032   5.369   1.750 -0.8257  2.1145  0.1041
10687SOL     OW32959   6.080   4.328   2.821 -0.0629 -0.4399  0.1992
10687SOL    HW132960   6.134   4.411   2.811  1.0438 -1.2090 -0.5719
10687SOL    HW232961   6.070   4.306   2.919  0.7485 -0.0878  0.3723
10688SOL     OW32962   1.683   5.596   1.064 -0.1747 -0.2507 -0.3683
10688SOL    HW132963   1.606   5.540   1.033  1.8676 -1.0363 -4.7465
10688SOL    HW232964   1.691   5.678   1.008  0.9710  0.9204  1.3988
10689SOL     OW32965   6.991   1.532   1.655 -0.0288 -0.4169 -0.3246
10689SOL    HW132966   7.017   1.594   1.729  0.9723 -0.7177 -0.4195
10689SOL    HW232967   6.976   1.440   1.693 -0.1255 -0.4333 -0.4022
10690SOL     OW32968   4.993   0.188   2.413 -0.0247  0.1952  0.3659
10690SOL    HW132969   4.990   0.152   2.320  1.3343  0.5319  0.1789
10690SOL    HW232970   4.909   0.240   2.431  0.4040  1.5133 -1.2463
10691SOL     OW32971   3.654   1.754   1.898  0.1477  0.4240 -0.7112
10691SOL    HW132972   3.580   1.809   1.860 -0.6948  0.2638  0.6116
10691SOL    HW232973   3.615   1.683   1.956  1.3407  1.5498  1.6268
10692SOL     OW32974   0.090   1.036   3.574  0.4357  0.5689  0.1870
10692SOL    HW132975   0.053   1.074   3.489 -1.0594 -0.6574  0.2572
10692SOL    HW232976   0.113   1.111   3.636 -0.7151  1.4353 -0.3876
10693SOL     OW32977   4.208   2.298   4.628  0.4493  0.1053  0.0571
10693SOL    HW132978   4.112   2.319   4.645  0.4001  0.3659 -0.5215
10693SOL    HW232979   4.263   2.328   4.706 -0.0008 -0.5694  0.6464
10694SOL     OW32980   5.019   0.064   6.901  0.2723 -0.3768 -0.1523
10694SOL    HW132981   4.992  -0.021   6.855  0.8027 -1.1408  0.9002
10694SOL    HW232982   5.085   0.043   6.973 -0.4257  0.7869  0.8692
10695SOL     OW32983   5.098   2.260   4.791 -0.7606 -0.2386 -0.2298
10695SOL    HW132984   5.190   2.250   4.828 -0.3034 -2.0754 -1.6691
10695SOL    HW232985   5.079   2.357   4.774  0.0354  0.3790  2.0872
10696SOL     OW32986   5.058   0.242   6.686 -0.6143  0.2257 -0.4663
10696SOL    HW132987   5.041   0.204   6.777 -0.3071  0.6048 -0.2488
10696SOL    HW232988   5.067   0.341   6.692  2.2782  0.0368 -0.4447
10697SOL     OW32989   3.953   5.372   2.662 -0.1268  0.1936 -0.1330
10697SOL    HW132990   3.893   5.358   2.741 -0.3484  0.6418 -0.2177
10697SOL    HW232991   3.932   5.305   2.591  0.6271 -0.7446  0.5029
10698SOL     OW32992   3.207   1.016   2.975 -0.7033 -0.2361  0.6020
10698SOL    HW132993   3.181   1.031   3.071  0.2465  0.1326  0.8173
10698SOL    HW232994   3.250   0.926   2.966  1.0091  0.5053  0.9410
10699SOL     OW32995   5.776   5.672   3.190 -0.0473 -0.1114 -0.0637
10699SOL    HW132996   5.799   5.726   3.109 -1.4736  1.0847  0.2920
10699SOL    HW232997   5.836   5.592   3.194  1.2714  0.7519 -1.3022
10700SOL     OW32998   6.231   2.193   4.757  0.2316 -0.2617 -0.4281
10700SOL    HW132999   6.176   2.159   4.681 -0.8373  0.3200  0.0712
10700SOL    HW233000   6.282   2.274   4.727 -0.6855  0.3555 -0.3614
10701SOL     OW33001   2.540   0.963   1.634 -0.1133  0.3784 -0.6846
10701SOL    HW133002   2.549   0.904   1.554  1.8518  0.8120 -0.8178
10701SOL    HW233003   2.604   0.933   1.705 -0.3218  1.2962 -0.0965
10702SOL     OW33004   4.852   2.045   1.372 -0.4585 -0.3172  0.3253
10702SOL    HW133005   4.788   2.102   1.319  0.3297  0.6157  0.3357
10702SOL    HW233006   4.847   1.951   1.340 -1.0052 -0.0333 -0.4649
10703SOL     OW33007   3.397   4.234   5.171 -0.4604  0.4732  0.2952
10703SOL    HW133008   3.311   4.238   5.222 -0.6962 -0.2683 -0.0329
10703SOL    HW233009   3.474   4.249   5.233 -0.7723  0.0685  0.7796
10704SOL     OW33010   5.118   4.521   1.363  0.1615  0.7603 -0.5130
10704SOL    HW133011   5.067   4.602   1.393 -0.7406  0.1607 -0.3989
10704SOL    HW233012   5.117   4.517   1.263 -0.6945  0.3237 -0.4878
10705SOL     OW33013   6.683   3.053   6.212 -0.2706 -1.3214 -0.0070
10705SOL    HW133014   6.770   3.102   6.212 -1.3011  0.5683  0.1238
10705SOL    HW233015   6.685   2.983   6.139 -0.0084  1.2332 -2.6312
10706SOL     OW33016   3.300   3.838   2.596 -0.4465 -0.1671  0.2552
10706SOL    HW133017   3.279   3.768   2.664 -1.3480 -0.2398 -0.0799
10706SOL    HW233018   3.321   3.795   2.508 -3.6191 -0.0500 -0.6924
10707SOL     OW33019   0.045   0.944   0.010 -0.2251  0.4090 -0.1108
10707SOL    HW133020   0.135   0.958   0.052 -0.0811 -1.9126  0.5226
10707SOL    HW233021   0.052   0.955  -0.089  0.6219  0.7995 -0.0146
10708SOL     OW33022   4.809   1.788   1.299  0.8024  0.4610 -0.6350
10708SOL    HW133023   4.868   1.710   1.321  1.5985  0.2271 -3.2110
10708SOL    HW233024   4.776   1.779   1.205 -2.2568  1.3374  0.2520
10709SOL     OW33025   0.271   1.134   6.397 -0.2491 -0.1295  0.2354
10709SOL    HW133026   0.185   1.125   6.347 -0.0040  0.6017 -0.3417
10709SOL    HW233027   0.321   1.047   6.393 -1.5143 -0.9464  1.6557
10710SOL     OW33028   6.016   1.063   4.746  0.6348 -0.6752  0.1691
10710SOL    HW133029   5.918   1.082   4.751  0.8387  0.4975 -0.0173
10710SOL    HW233030   6.050   1.082   4.654  1.1750 -0.3335  0.4270
10711SOL     OW33031   1.947   3.261   6.323  0.3177  0.2280  0.1484
10711SOL    HW133032   1.988   3.295   6.239 -2.0759 -1.4380 -1.8659
10711SOL    HW233033   2.013   3.202   6.371  1.9101  1.6492 -0.2025
10712SOL     OW33034   3.174   3.159   4.794 -0.5752 -0.8368  1.0567
10712SOL    HW133035   3.226   3.237   4.760 -0.1976 -2.1641 -1.6687
10712SOL    HW233036   3.080   3.187   4.812 -0.0490  0.5864  1.7369
10713SOL     OW33037   2.872   6.974   5.639 -0.4468 -0.3409 -0.0554
10713SOL    HW133038   2.860   6.890   5.586  1.0204 -0.6922  0.1245
10713SOL    HW233039   2.938   6.958   5.712  2.2465  1.7386 -1.8582
10714SOL     OW33040   4.640   4.566   6.240  0.0887 -0.0400  0.0002
10714SOL    HW133041   4.576   4.638   6.213  1.5672  1.2793 -0.1411
10714SOL    HW233042   4.629   4.548   6.338 -0.5331  0.1369 -0.0304
10715SOL     OW33043   6.105   5.554   1.847  1.1231  0.5352  0.9041
10715SOL    HW133044   6.205   5.563   1.854  1.1787 -0.2579  1.2913
10715SOL    HW233045   6.081   5.529   1.753  1.2297  1.3407  0.6544
10716SOL     OW33046   6.163   1.052   1.507  0.1714  0.0792 -0.0019
10716SOL    HW133047   6.237   0.990   1.481 -0.3528 -0.0418 -1.2786
10716SOL    HW233048   6.087   1.000   1.546  0.4845  0.1284  0.6746
10717SOL     OW33049   6.978   0.455   1.607  0.5700 -0.0823 -0.0227
10717SOL    HW133050   6.959   0.535   1.663  1.1274 -0.7183  1.1094
10717SOL    HW233051   6.943   0.373   1.653 -0.3843 -0.4749 -1.3555
10718SOL     OW33052   6.543   2.930   4.573 -0.1507  0.2726  0.0244
10718SOL    HW133053   6.536   3.030   4.571  0.5172  0.3412 -2.5632
10718SOL    HW233054   6.481   2.891   4.506  1.8299 -0.8301 -1.2533
10719SOL     OW33055   2.670   0.604   4.710  0.0061 -0.0215 -0.0028
10719SOL    HW133056   2.592   0.597   4.648 -0.0600  0.8281 -0.0336
10719SOL    HW233057   2.728   0.523   4.701  0.6585  0.6121 -2.0783
10720SOL     OW33058   0.536   2.359   4.401 -0.0152  0.0829 -0.2940
10720SOL    HW133059   0.623   2.340   4.446 -0.6193  1.1704  1.4475
10720SOL    HW233060   0.509   2.281   4.345  1.9286 -0.3776 -0.6627
10721SOL     OW33061   5.167   6.818   4.716 -0.2562  0.0034  0.3865
10721SOL    HW133062   5.168   6.787   4.811 -0.0017  3.3343  1.6157
10721SOL    HW233063   5.239   6.771   4.665  0.2009 -1.2081  2.0662
10722SOL     OW33064   0.888   4.386   1.257 -0.4621 -0.2941 -0.0952
10722SOL    HW133065   0.838   4.414   1.339  0.5027 -0.5470  0.6024
10722SOL    HW233066   0.986   4.382   1.278 -0.3966 -2.6787 -0.5869
10723SOL     OW33067   6.776   4.349   6.317  0.0065  0.2166  0.0403
10723SOL    HW133068   6.707   4.358   6.388 -1.1396 -1.9311 -0.6944
10723SOL    HW233069   6.832   4.432   6.313 -0.0308  0.5012  3.2234
10724SOL     OW33070   2.540   5.581   5.328 -0.4744 -0.0061 -0.0305
10724SOL    HW133071   2.544   5.513   5.402  0.7710 -0.8352 -0.8287
10724SOL    HW233072   2.480   5.547   5.255  0.5271 -0.5095 -0.6466
10725SOL     OW33073   0.268   0.076   5.022  0.0245 -0.5354  0.0774
10725SOL    HW133074   0.338   0.039   4.962 -0.6671  0.6856 -1.5578
10725SOL    HW233075   0.309   0.106   5.108  1.5572  0.3888 -0.9453
10726SOL     OW33076   6.142   0.597   4.376 -0.7825  0.2272  0.7591
10726SOL    HW133077   6.192   0.617   4.292 -2.4042 -0.5676 -0.4384
10726SOL    HW233078   6.179   0.514   4.417 -1.8364 -1.0488 -0.7703
10727SOL     OW33079   4.912   4.615   6.477 -0.2770  0.4001 -0.1565
10727SOL    HW133080   4.945   4.635   6.385  0.8672 -0.6949 -0.0040
10727SOL    HW233081   4.818   4.580   6.471 -1.8667  4.1601 -0.5409
10728SOL     OW33082   3.812   5.324   5.499 -0.3316 -0.1283 -0.7498
10728SOL    HW133083   3.902   5.367   5.504 -0.3177 -0.0043 -1.8907
10728SOL    HW233084   3.821   5.233   5.459 -0.6543 -0.3224 -0.3883
10729SOL     OW33085   6.376   4.700   4.080  0.6992 -0.3174  0.2149
10729SOL    HW133086   6.433   4.642   4.138 -0.7870 -2.9630 -0.7775
10729SOL    HW233087   6.283   4.664   4.079  0.2258  0.7590 -2.2590
10730SOL     OW33088   1.535   6.368   3.362 -0.0324  0.3082  0.5410
10730SOL    HW133089   1.442   6.400   3.343 -0.1880  0.3952  1.3716
10730SOL    HW233090   1.535   6.319   3.450  1.3404  3.4518  2.4642
10731SOL     OW33091   6.503   5.391   4.583  0.1859 -0.4516  0.4888
10731SOL    HW133092   6.521   5.489   4.594  1.3699 -0.6886  0.7580
10731SOL    HW233093   6.425   5.366   4.640  0.4741  0.1571  1.1730
10732SOL     OW33094   4.642   6.052   3.285 -0.0604 -0.0094  0.1151
10732SOL    HW133095   4.636   6.045   3.186 -0.2936  2.4601 -0.1094
10732SOL    HW233096   4.716   5.993   3.318  0.7171 -0.0819 -1.6470
10733SOL     OW33097   0.796   1.733   6.667 -0.5457  0.1428  0.1559
10733SOL    HW133098   0.777   1.667   6.739 -0.0226 -0.2589 -0.0611
10733SOL    HW233099   0.838   1.815   6.706  1.3321 -0.7578  0.1541
10734SOL     OW33100   0.963   1.408   4.212  0.7530 -0.2534  0.1759
10734SOL    HW133101   0.988   1.482   4.150 -1.4272  0.0115 -0.4644
10734SOL    HW233102   0.968   1.441   4.307 -1.0284  1.0402 -0.1335
10735SOL     OW33103   1.365   6.821   3.684 -0.6665 -0.0813  0.0943
10735SOL    HW133104   1.384   6.814   3.586 -0.4689 -2.3419  0.2422
10735SOL    HW233105   1.266   6.818   3.699 -0.6894  0.0446 -0.0357
10736SOL     OW33106   6.788   6.592   4.466  0.2077  0.5260  0.7623
10736SOL    HW133107   6.856   6.519   4.478  0.6686  0.5572 -1.2743
10736SOL    HW233108   6.707   6.570   4.519 -1.5122 -3.8722 -2.9235
10737SOL     OW33109   4.285   0.254   1.543 -0.2506 -0.7099  0.1224
10737SOL    HW133110   4.248   0.249   1.636  0.1227 -0.6856  0.2738
10737SOL    HW233111   4.223   0.307   1.485 -0.9466 -1.4998  0.1266
10738SOL     OW33112   2.702   0.559   1.776  0.1175 -0.1267 -0.3521
10738SOL    HW133113   2.680   0.654   1.800 -0.0103 -0.3981  0.6727
10738SOL    HW233114   2.708   0.550   1.677 -0.0227  0.9192 -0.4685
10739SOL     OW33115   4.981   1.320   4.165 -0.3017  0.5779  0.1301
10739SOL    HW133116   4.953   1.276   4.080  1.8971  0.0074 -0.3563
10739SOL    HW233117   4.963   1.418   4.159  0.4989  0.6655 -1.3158
10740SOL     OW33118   2.281   1.651   6.735 -0.0422 -0.0402 -0.3541
10740SOL    HW133119   2.246   1.561   6.711  0.5511 -0.5581  0.6416
10740SOL    HW233120   2.379   1.655   6.718  0.0987  0.1066  0.4182
10741SOL     OW33121   1.595   2.506   3.524 -0.3753 -0.3853  0.1087
10741SOL    HW133122   1.504   2.511   3.567  0.3695 -0.2396  1.7419
10741SOL    HW233123   1.618   2.411   3.506 -1.2615 -0.3603 -1.2729
10742SOL     OW33124   3.173   0.182   1.688  0.3285  0.0503  0.0056
10742SOL    HW133125   3.154   0.216   1.596 -1.2690  0.4397  0.4502
10742SOL    HW233126   3.173   0.259   1.752  2.8139 -0.0179  0.1851
10743SOL     OW33127   4.226   3.138   0.934  0.1294 -0.0704 -0.0596
10743SOL    HW133128   4.151   3.204   0.938 -0.1137 -0.3325 -0.2270
10743SOL    HW233129   4.189   3.047   0.920  0.4148 -0.3583  0.9792
10744SOL     OW33130   2.240   1.992   0.694 -0.7095 -0.1173 -0.2270
10744SOL    HW133131   2.269   1.921   0.630  1.2755 -0.7433  1.2769
10744SOL    HW233132   2.314   2.057   0.708 -0.9066 -0.2206  1.6791
10745SOL     OW33133   4.419   6.637   2.585  0.5828 -0.5781 -0.1281
10745SOL    HW133134   4.416   6.628   2.486 -1.6438  0.3980 -0.2056
10745SOL    HW233135   4.349   6.579   2.626  0.9476 -0.3663  0.8221
10746SOL     OW33136   1.556   5.231   4.921 -0.0035 -0.0728 -0.5604
10746SOL    HW133137   1.472   5.194   4.880  0.1722  0.5246 -1.4901
10746SOL    HW233138   1.534   5.275   5.009 -0.7333  0.3984 -0.9702
10747SOL     OW33139   0.394   3.314   5.556  0.3953 -0.3044  0.2566
10747SOL    HW133140   0.406   3.332   5.654  2.2365 -2.5952  0.5237
10747SOL    HW233141   0.373   3.217   5.542 -0.0582  0.0293 -1.6354
10748SOL     OW33142   3.456   6.043   1.588  0.1862  0.1160 -0.4886
10748SOL    HW133143   3.497   6.055   1.498  1.2650 -1.1925 -0.2042
10748SOL    HW233144   3.495   5.962   1.632  0.6475  1.4213  1.6739
10749SOL     OW33145   4.954   2.760   2.921  0.1805  0.3403  0.1335
10749SOL    HW133146   5.048   2.780   2.947  0.9390  0.3085 -2.3690
10749SOL    HW233147   4.943   2.769   2.822 -1.7045 -2.5386 -0.0489
10750SOL     OW33148   4.028   1.642   4.518  0.1785  0.2043 -0.0952
10750SOL    HW133149   4.068   1.724   4.479  0.7923  0.5888  1.2940
10750SOL    HW233150   3.942   1.622   4.472  0.1959  1.4230 -0.6910
10751SOL     OW33151   5.574   5.948   3.002 -0.0276 -0.2781  0.0310
10751SOL    HW133152   5.506   5.994   2.945  1.7635 -0.3354 -2.3054
10751SOL    HW233153   5.573   5.850   2.983 -0.0128 -0.4421  0.8158
10752SOL     OW33154   6.612   4.632   0.009 -0.2285  0.2348  0.0401
10752SOL    HW133155   6.671   4.688  -0.050 -0.2658  1.1860  0.8813
10752SOL    HW233156   6.633   4.536  -0.006 -0.5366  0.4138 -1.8430
10753SOL     OW33157   5.495   6.769   3.476  0.7310 -0.5158  0.0778
10753SOL    HW133158   5.396   6.760   3.479  0.9398 -4.5476  0.9712
10753SOL    HW233159   5.525   6.836   3.545 -1.2474 -1.8717  2.4242
10754SOL     OW33160   6.703   3.509   0.685 -0.1891  0.3724 -0.0349
10754SOL    HW133161   6.766   3.437   0.716  0.4854  1.2772  0.7541
10754SOL    HW233162   6.669   3.560   0.764 -2.0094 -0.1370 -0.4308
10755SOL     OW33163   6.753   1.284   1.986  0.0882 -0.1634 -0.1151
10755SOL    HW133164   6.851   1.280   1.967 -0.1901 -0.0335 -1.7097
10755SOL    HW233165   6.738   1.285   2.085  1.6748 -0.4633  0.1487
10756SOL     OW33166   6.594   5.305   6.825 -0.3257 -0.2646 -0.4462
10756SOL    HW133167   6.620   5.210   6.811  0.3728 -0.3586  1.2488
10756SOL    HW233168   6.557   5.317   6.917  2.0772  1.5463  0.3987
10757SOL     OW33169   6.426   2.468   6.685  0.1555 -0.0927 -0.0281
10757SOL    HW133170   6.371   2.403   6.738  0.3087 -1.1094 -1.0830
10757SOL    HW233171   6.366   2.533   6.640  0.0860  2.3601  3.2383
10758SOL     OW33172   6.841   1.115   0.895  0.2265 -0.0463 -0.1877
10758SOL    HW133173   6.804   1.054   0.965 -0.6293  0.9619  0.2561
10758SOL    HW233174   6.941   1.110   0.897  0.1908 -0.8323  0.3745
10759SOL     OW33175   2.960   5.678   5.442 -0.2794 -0.0098  0.0265
10759SOL    HW133176   2.913   5.766   5.449 -2.3379 -1.0741  0.4265
10759SOL    HW233177   2.944   5.638   5.351  0.7245  0.0492 -0.1903
10760SOL     OW33178   1.756   5.255   5.416 -0.1998  0.2183 -0.1462
10760SOL    HW133179   1.664   5.295   5.416 -0.0100  0.6721  0.2031
10760SOL    HW233180   1.805   5.285   5.335 -0.4419 -0.2237 -0.4589
10761SOL     OW33181   3.272   5.983   6.878  0.2239  0.2265  0.4247
10761SOL    HW133182   3.313   6.014   6.964  1.5529 -0.6417  0.1328
10761SOL    HW233183   3.319   5.901   6.846 -1.8418 -0.8957  0.0964
10762SOL     OW33184   3.032   6.051   1.227 -0.8834 -0.2572 -0.3614
10762SOL    HW133185   2.957   6.015   1.172 -0.6817 -0.3185 -0.5974
10762SOL    HW233186   3.061   5.982   1.293  0.6071 -1.1809 -1.9116
10763SOL     OW33187   3.298   1.721   1.898 -0.0051 -0.2733  0.3564
10763SOL    HW133188   3.268   1.764   1.983  0.3387  0.1379  0.2746
10763SOL    HW233189   3.274   1.624   1.900 -0.0541 -0.2563  0.8954
10764SOL     OW33190   3.924   0.472   2.774 -0.3265 -0.8852  0.3549
10764SOL    HW133191   3.950   0.441   2.866  3.2402  2.9721  0.9398
10764SOL    HW233192   3.999   0.453   2.710  0.1832  2.3298 -0.1498
10765SOL     OW33193   6.686   2.554   2.995 -0.0395 -0.1435  0.1386
10765SOL    HW133194   6.651   2.597   2.912 -1.8057  0.1361  0.9741
10765SOL    HW233195   6.782   2.529   2.982 -0.5322 -1.0268 -2.3184
10766SOL     OW33196   2.325   6.349   6.142  0.7405 -0.2325  0.3037
10766SOL    HW133197   2.356   6.413   6.072 -0.8342  0.8492  0.5370
10766SOL    HW233198   2.392   6.344   6.216  2.0065 -0.7231 -0.8254
10767SOL     OW33199   6.449   5.437   6.365 -0.2955  0.4294  0.3764
10767SOL    HW133200   6.503   5.435   6.281 -1.3622 -3.4488 -0.4394
10767SOL    HW233201   6.358   5.473   6.346 -1.1697 -2.1221 -0.7489
10768SOL     OW33202   6.225   5.817   6.076  0.5865  0.2057 -0.7061
10768SOL    HW133203   6.218   5.721   6.047 -1.8671 -0.2425  0.9954
10768SOL    HW233204   6.301   5.827   6.140  1.3579 -0.4047 -1.4987
10769SOL     OW33205   3.725   3.231   4.130  0.1255  0.6549  0.0501
10769SOL    HW133206   3.683   3.256   4.218  1.1299  0.2936  0.6542
10769SOL    HW233207   3.825   3.231   4.140  0.2283 -0.7510 -0.6984
10770SOL     OW33208   4.948   0.252   6.136  0.6746  0.2917 -0.4980
10770SOL    HW133209   4.976   0.313   6.211 -0.7438  0.0156  0.3085
10770SOL    HW233210   4.860   0.211   6.159  1.0997 -1.2549 -1.5161
10771SOL     OW33211   4.908   4.358   6.274 -0.2842 -0.1326  0.0509
10771SOL    HW133212   4.898   4.287   6.344 -1.1463 -0.7736 -0.7081
10771SOL    HW233213   4.993   4.343   6.223 -1.0215 -1.3301 -0.8698
10772SOL     OW33214   6.880   3.747   4.324 -0.8236  0.6494  0.0501
10772SOL    HW133215   6.851   3.652   4.318 -0.1243  0.5290 -2.0607
10772SOL    HW233216   6.952   3.755   4.394 -0.0435 -0.6120 -0.5619
10773SOL     OW33217   0.917   4.245   0.301  1.0907 -0.1983  0.5504
10773SOL    HW133218   0.941   4.342   0.296  1.1961 -0.2557 -0.0298
10773SOL    HW233219   0.961   4.195   0.226  0.0927 -0.5055  0.1550
10774SOL     OW33220   4.061   1.283   1.416  0.2611 -0.3451 -0.1880
10774SOL    HW133221   4.136   1.279   1.482 -1.5370 -0.9946  1.9681
10774SOL    HW233222   4.011   1.196   1.417 -0.7392  0.1891 -1.2783
10775SOL     OW33223   1.799   4.773   6.149  0.5639 -0.1785 -0.1794
10775SOL    HW133224   1.871   4.801   6.214 -0.7178 -1.9236  2.1352
10775SOL    HW233225   1.719   4.831   6.161  0.8460  0.4917 -1.3661
10776SOL     OW33226   1.248   4.073   2.508 -0.1455 -0.0037  0.0006
10776SOL    HW133227   1.271   4.029   2.595 -3.4990 -0.2555  0.8794
10776SOL    HW233228   1.248   4.172   2.520 -0.5582 -0.0366  0.2852
10777SOL     OW33229   3.185   6.260   1.030 -0.1101  0.1824 -0.1943
10777SOL    HW133230   3.161   6.296   1.120 -0.7652  1.9976 -1.0485
10777SOL    HW233231   3.261   6.195   1.039 -1.6318 -1.4245  1.8968
10778SOL     OW33232   5.235   5.364   3.229 -0.2280 -0.7355  0.0789
10778SOL    HW133233   5.312   5.326   3.178 -2.0130 -2.6460 -1.3895
10778SOL    HW233234   5.196   5.293   3.287  0.4682  0.8477  2.6545
10779SOL     OW33235   4.324   3.844   5.363  0.2991  0.1271  0.0555
10779SOL    HW133236   4.370   3.835   5.452 -0.1031 -2.3080  0.0843
10779SOL    HW233237   4.234   3.802   5.369 -0.4820  1.6029 -1.0236
10780SOL     OW33238   0.557   4.614   2.847  0.1496 -0.1913  0.0107
10780SOL    HW133239   0.553   4.529   2.796  3.1821 -0.8031  0.6045
10780SOL    HW233240   0.573   4.690   2.784  0.6817 -0.5225 -0.2665
10781SOL     OW33241   6.058   2.512   5.939 -0.4588  0.3933 -0.4413
10781SOL    HW133242   6.084   2.417   5.955  0.0518  0.2535 -1.9220
10781SOL    HW233243   5.978   2.515   5.878  0.1383  0.9045 -1.2267
10782SOL     OW33244   0.787   4.179   5.253 -0.2759  0.4466 -0.1049
10782SOL    HW133245   0.880   4.216   5.255  0.2375 -0.8513  0.3688
10782SOL    HW233246   0.788   4.086   5.219 -1.3416  0.2267  0.4098
10783SOL     OW33247   3.948   6.348   3.089 -0.1494 -0.1848  0.1859
10783SOL    HW133248   3.920   6.395   3.173  0.8232  0.2805  0.2616
10783SOL    HW233249   4.041   6.314   3.100  0.0267 -0.0117 -0.7460
10784SOL     OW33250   0.153   5.863   3.153 -0.1456 -0.3824 -0.2184
10784SOL    HW133251   0.168   5.935   3.221 -0.3037 -1.2906  0.7974
10784SOL    HW233252   0.197   5.890   3.067 -0.6758  1.1759 -0.0480
10785SOL     OW33253   1.874   5.693   2.417 -0.2121  0.1873 -0.6806
10785SOL    HW133254   1.856   5.666   2.322 -0.9245 -1.6082 -0.0843
10785SOL    HW233255   1.811   5.765   2.444 -1.4473 -0.7438 -0.9666
10786SOL     OW33256   4.984   6.783   1.782 -0.5369  0.0558 -0.3114
10786SOL    HW133257   4.887   6.796   1.763 -0.5818 -0.4007 -0.4054
10786SOL    HW233258   5.036   6.786   1.697 -0.3906  0.9168 -0.2000
10787SOL     OW33259   3.325   1.187   3.643 -0.5008  0.1995  0.5610
10787SOL    HW133260   3.403   1.131   3.669 -0.2143  1.3263  2.3086
10787SOL    HW233261   3.245   1.130   3.629  0.4117 -0.8879 -0.4351
10788SOL     OW33262   1.462   2.593   0.124 -0.2274 -0.1248 -0.0392
10788SOL    HW133263   1.469   2.687   0.157 -0.4847 -0.5892  1.3874
10788SOL    HW233264   1.551   2.548   0.134 -0.4837 -0.4787  0.7189
10789SOL     OW33265   6.994   2.228   4.175 -0.3206 -0.4302  0.8838
10789SOL    HW133266   6.911   2.237   4.230 -0.0905  0.2871  1.1246
10789SOL    HW233267   7.068   2.279   4.219 -0.6251  1.9152 -1.1132
10790SOL     OW33268   0.920   5.330   3.905  0.3175 -0.0081  0.5559
10790SOL    HW133269   0.930   5.265   3.980 -0.3144 -1.0086 -0.1902
10790SOL    HW233270   0.993   5.316   3.838  0.2447  0.1219  0.4477
10791SOL     OW33271   0.618   1.816   2.830  0.3155 -0.9720  0.1393
10791SOL    HW133272   0.609   1.726   2.872 -1.4096 -0.6095  0.6291
10791SOL    HW233273   0.561   1.821   2.748  0.5626 -0.3983 -0.0063
10792SOL     OW33274   4.255   6.817   0.157  0.2407 -0.3974 -0.3744
10792SOL    HW133275   4.324   6.870   0.207 -0.1982 -1.6355  1.6229
10792SOL    HW233276   4.287   6.723   0.145 -0.7969 -0.8103 -0.0117
10793SOL     OW33277   5.060   2.187   4.018  0.0524 -0.3423  0.2362
10793SOL    HW133278   5.108   2.215   4.102 -1.1177  2.0542  0.1985
10793SOL    HW233279   4.963   2.175   4.038 -0.1431 -0.3048 -0.6724
10794SOL     OW33280   4.765   4.167   0.867  0.1426 -0.1242 -0.0242
10794SOL    HW133281   4.845   4.222   0.893  0.2126 -0.0279 -0.4311
10794SOL    HW233282   4.710   4.218   0.800 -0.2847 -0.1712  0.2839
10795SOL     OW33283   6.621   4.065   2.991  0.1468  0.6570 -0.0359
10795SOL    HW133284   6.687   4.124   2.944  0.9837  0.3656  0.7544
10795SOL    HW233285   6.603   4.101   3.082  1.9034 -1.1016  1.1021
10796SOL     OW33286   7.021   3.240   6.992  0.3973 -0.5381  0.2150
10796SOL    HW133287   6.975   3.199   7.071 -2.9327 -0.5035 -1.5329
10796SOL    HW233288   7.037   3.170   6.923 -0.3570  0.0915 -0.6193
10797SOL     OW33289   6.254   4.010   6.233 -0.2251 -0.4179 -0.4143
10797SOL    HW133290   6.163   4.047   6.211  0.0473 -1.0892 -3.0083
10797SOL    HW233291   6.309   4.081   6.276 -1.6651  0.2730  0.3821
10798SOL     OW33292   2.588   4.268   0.451  0.3407 -1.1640 -0.2807
10798SOL    HW133293   2.686   4.290   0.458  0.2217 -0.3014 -1.1255
10798SOL    HW233294   2.566   4.194   0.514  1.2826 -0.4915  0.8901
10799SOL     OW33295   2.448   0.074   3.952  0.1124  0.5943 -0.2609
10799SOL    HW133296   2.457   0.095   4.049  0.7765  0.2384 -0.2460
10799SOL    HW233297   2.385  -0.003   3.940  0.1040  0.5784 -0.1128
10800SOL     OW33298   1.233   6.741   4.157 -0.5267  0.3374 -0.3334
10800SOL    HW133299   1.259   6.664   4.099  1.4458  1.0668 -0.5048
10800SOL    HW233300   1.138   6.731   4.186 -0.3978 -2.0145 -0.5508
10801SOL     OW33301   2.407   6.439   5.298  0.1590 -0.1354  0.6153
10801SOL    HW133302   2.413   6.417   5.395  2.2559  0.5372  0.6976
10801SOL    HW233303   2.464   6.374   5.246 -2.8853 -2.1167 -0.5511
10802SOL     OW33304   1.043   5.858   4.036 -0.0330  0.1463 -0.6026
10802SOL    HW133305   0.969   5.865   4.103  0.3551 -3.2762  0.4042
10802SOL    HW233306   1.007   5.821   3.950 -0.0249  1.7254 -1.3092
10803SOL     OW33307   1.337   3.941   4.813  0.1095  0.0262  0.2588
10803SOL    HW133308   1.319   4.032   4.852  0.1811 -0.3349  1.1482
10803SOL    HW233309   1.405   3.894   4.869 -0.1291 -0.6858 -0.0457
10804SOL     OW33310   4.513   4.412   6.742  0.1082 -0.2285  0.1198
10804SOL    HW133311   4.581   4.344   6.768  1.3455  1.4220  1.4471
10804SOL    HW233312   4.487   4.466   6.823  1.2875  2.6915 -1.2981
10805SOL     OW33313   5.584   5.045   6.174 -0.2210  0.0641 -0.0327
10805SOL    HW133314   5.542   5.132   6.149  1.4798  0.6820 -0.8932
10805SOL    HW233315   5.675   5.039   6.134 -0.9450 -2.8931 -1.4851
10806SOL     OW33316   5.738   2.561   4.897  0.3534  0.4305  0.0251
10806SOL    HW133317   5.695   2.574   4.807  0.5298 -1.1680 -0.3088
10806SOL    HW233318   5.830   2.600   4.895  1.1046 -1.2768 -1.1515
10807SOL     OW33319   4.900   2.686   5.819 -0.3057 -0.6279  0.2138
10807SOL    HW133320   4.886   2.785   5.826 -1.2341 -0.6368 -1.0715
10807SOL    HW233321   4.995   2.664   5.840 -0.5485  0.2690  2.6153
10808SOL     OW33322   6.604   4.357   1.783 -0.1333  0.1206  0.2217
10808SOL    HW133323   6.534   4.350   1.713  0.0336 -0.6361  0.1168
10808SOL    HW233324   6.694   4.342   1.742  0.2760  2.5384  0.0751
10809SOL     OW33325   0.403   2.359   2.903 -0.1142 -0.1532  0.1128
10809SOL    HW133326   0.342   2.416   2.847  1.3763  1.9292  0.4855
10809SOL    HW233327   0.382   2.372   2.999  1.5195  1.4381  0.3100
10810SOL     OW33328   3.041   6.909   6.429  0.2144  0.5785 -0.3718
10810SOL    HW133329   3.083   6.997   6.453 -0.5790  1.2051 -1.1745
10810SOL    HW233330   3.113   6.842   6.410  0.8322  0.9296  0.6564
10811SOL     OW33331   3.472   5.184   6.209 -0.5962 -0.4067  0.2619
10811SOL    HW133332   3.463   5.154   6.114  0.6434 -0.7971  0.2420
10811SOL    HW233333   3.502   5.280   6.211 -0.9993 -0.2776  0.2755
10812SOL     OW33334   6.644   2.867   2.666  0.4557  0.1950 -0.3810
10812SOL    HW133335   6.616   2.918   2.747  0.8863  0.4224 -0.3745
10812SOL    HW233336   6.594   2.901   2.586 -1.7148 -1.5530  0.1223
10813SOL     OW33337   4.884   6.338   3.027  0.3324 -0.4672  0.6377
10813SOL    HW133338   4.958   6.357   3.091  0.3721 -0.2155  0.5177
10813SOL    HW233339   4.821   6.271   3.067  1.0326 -1.2646  0.4445
10814SOL     OW33340   3.164   4.854   3.297  0.1455 -0.0110  0.6520
10814SOL    HW133341   3.243   4.806   3.258 -1.5097 -2.8706  0.5461
10814SOL    HW233342   3.178   4.867   3.395  0.5514 -0.9188  0.7229
10815SOL     OW33343   6.022   2.534   5.623 -0.4197 -0.1044  1.0262
10815SOL    HW133344   6.111   2.528   5.669  0.3572  2.3961 -0.0213
10815SOL    HW233345   5.971   2.612   5.659 -0.2284  1.2865 -1.5480
10816SOL     OW33346   2.778   6.382   1.772 -0.4022 -0.5415 -0.9638
10816SOL    HW133347   2.863   6.333   1.751 -0.8129 -0.9054 -1.8076
10816SOL    HW233348   2.786   6.477   1.742  0.8129  0.3067  1.6551
10817SOL     OW33349   4.679   2.664   2.164  0.8011 -0.4804 -0.6278
10817SOL    HW133350   4.664   2.660   2.065  1.9914 -1.0087 -0.8043
10817SOL    HW233351   4.599   2.627   2.212 -0.3811  1.0561 -1.3162
10818SOL     OW33352   5.108   2.074   5.367  0.0187 -0.0241 -0.0896
10818SOL    HW133353   5.071   2.162   5.338 -0.1698  0.0247  0.2951
10818SOL    HW233354   5.048   2.001   5.336 -0.7182  0.0872  1.0118
10819SOL     OW33355   1.418   2.803   4.953 -0.0422 -0.1013  0.3222
10819SOL    HW133356   1.513   2.776   4.943  0.4753  1.8693 -0.6738
10819SOL    HW233357   1.408   2.861   5.034 -0.1205  0.7426 -0.2792
10820SOL     OW33358   6.340   5.204   5.479  0.6283 -0.2076  0.1728
10820SOL    HW133359   6.433   5.230   5.452  0.6483  0.4786  0.8627
10820SOL    HW233360   6.276   5.276   5.452  0.5846  0.2817  1.4957
10821SOL     OW33361   7.022   0.303   6.414 -0.1348 -0.5005  0.4196
10821SOL    HW133362   7.002   0.325   6.319  1.4653 -2.7455 -0.5030
10821SOL    HW233363   7.029   0.204   6.426 -0.0171 -0.2778  2.8278
10822SOL     OW33364   1.901   0.689   1.725  0.5964  0.1236  0.2699
10822SOL    HW133365   1.804   0.705   1.705  0.1976  0.9114  2.5181
10822SOL    HW233366   1.940   0.771   1.766  2.1476 -0.3059 -0.2921
10823SOL     OW33367   2.851   0.211   0.139 -0.3657  0.6495  0.4974
10823SOL    HW133368   2.769   0.212   0.196  0.3183  0.5107  1.4990
10823SOL    HW233369   2.907   0.291   0.160  1.3484 -0.9040  2.2220
10824SOL     OW33370   4.731   1.574   4.763  0.2167 -0.6152 -0.2170
10824SOL    HW133371   4.756   1.488   4.807  0.9185  0.2762  1.1850
10824SOL    HW233372   4.652   1.614   4.811  0.6623  0.1120 -0.0868
10825SOL     OW33373   5.028   1.772   1.847  0.4782  0.3241 -0.3460
10825SOL    HW133374   5.059   1.678   1.852 -0.0739  0.1001 -1.0048
10825SOL    HW233375   4.954   1.780   1.781  0.0090  1.0848  0.2423
10826SOL     OW33376   0.574   2.129   0.590  0.6367  0.1135  0.6434
10826SOL    HW133377   0.573   2.125   0.490 -1.2585  3.4722  0.3653
10826SOL    HW233378   0.668   2.136   0.623  1.2211  0.3327 -1.0012
10827SOL     OW33379   0.540   4.845   5.029  0.2449 -0.2179  0.1070
10827SOL    HW133380   0.510   4.750   5.042  0.5525 -0.6388 -1.9067
10827SOL    HW233381   0.631   4.846   4.987  0.9495  1.0090  1.5705
10828SOL     OW33382   3.127   3.383   0.240 -0.8618  0.0738 -0.2780
10828SOL    HW133383   3.168   3.461   0.194 -1.8302  1.1974  0.6917
10828SOL    HW233384   3.042   3.411   0.283 -0.7031 -1.2573  0.9867
10829SOL     OW33385   1.185   3.926   4.505  0.6620  0.2843  0.2485
10829SOL    HW133386   1.186   3.826   4.508 -1.8515  0.2211  1.0112
10829SOL    HW233387   1.131   3.956   4.427 -0.4568  0.9765  1.2493
10830SOL     OW33388   6.251   0.694   4.078 -0.4502  0.6018  0.4397
10830SOL    HW133389   6.349   0.692   4.092 -0.5690  0.0298  1.2119
10830SOL    HW233390   6.227   0.775   4.023  0.7476 -0.6935 -2.2017
10831SOL     OW33391   6.637   2.308   2.397  0.1525  0.1005 -0.5180
10831SOL    HW133392   6.667   2.235   2.459  1.3617  0.2904 -0.8468
10831SOL    HW233393   6.653   2.280   2.302 -0.9437  0.1337 -0.7291
10832SOL     OW33394   1.061   2.821   1.762  0.3714  0.5665  0.0571
10832SOL    HW133395   1.019   2.750   1.819 -0.8371  0.2113 -1.2050
10832SOL    HW233396   1.115   2.778   1.690  0.6970  0.9610  0.0664
10833SOL     OW33397   2.544   0.638   2.983  0.3454  0.2248  0.4422
10833SOL    HW133398   2.562   0.734   3.007 -1.3066  0.5227  0.6259
10833SOL    HW233399   2.522   0.587   3.065 -0.8774  0.2068  0.1304
10834SOL     OW33400   6.847   1.092   5.494 -0.3622  0.6274  0.4844
10834SOL    HW133401   6.896   1.163   5.443 -1.2603  0.5100 -0.5746
10834SOL    HW233402   6.870   1.099   5.591  2.0153  0.3416  0.0053
10835SOL     OW33403   5.312   2.022   0.587 -0.2501  0.0519 -0.2990
10835SOL    HW133404   5.350   1.951   0.647  0.3973  0.4211 -0.2545
10835SOL    HW233405   5.281   2.099   0.642  3.6229  1.9895 -0.4836
10836SOL     OW33406   5.350   0.889   0.408  0.0570  0.3760  0.5213
10836SOL    HW133407   5.289   0.966   0.392 -0.4149  0.6601  3.1571
10836SOL    HW233408   5.406   0.873   0.327 -0.3976  2.9654 -0.3952
10837SOL     OW33409   2.251   4.516   0.905  0.6526 -0.2285 -0.0394
10837SOL    HW133410   2.218   4.577   0.976  1.8718  0.5722 -0.1261
10837SOL    HW233411   2.266   4.568   0.821  4.1775  0.0061  0.5906
10838SOL     OW33412   2.924   0.430   1.826  0.1691  0.2507 -0.7137
10838SOL    HW133413   2.910   0.338   1.788  0.1667  0.3494 -0.9520
10838SOL    HW233414   2.838   0.481   1.821  0.0664  0.1265 -0.2051
10839SOL     OW33415   3.119   1.392   4.057 -0.4501  0.0195 -0.2301
10839SOL    HW133416   3.150   1.449   4.133  0.2239 -0.7981  0.1174
10839SOL    HW233417   3.043   1.438   4.010 -0.3055  0.9266  0.3984
10840SOL     OW33418   0.247   6.585   2.241 -0.5039 -0.4406 -0.3700
10840SOL    HW133419   0.299   6.593   2.156 -0.9540  0.9601 -0.5358
10840SOL    HW233420   0.166   6.529   2.225 -0.6523 -0.0832 -0.9047
10841SOL     OW33421   3.514   5.532   6.576 -0.0232 -0.0177  0.4748
10841SOL    HW133422   3.593   5.590   6.597 -1.3131  1.4325  1.6498
10841SOL    HW233423   3.471   5.565   6.491  0.3178 -0.4858  0.1126
10842SOL     OW33424   5.713   3.199   3.288  0.4025  0.1287  0.0254
10842SOL    HW133425   5.736   3.233   3.197  1.3770 -1.6962 -0.4679
10842SOL    HW233426   5.755   3.109   3.301 -0.0978  0.1514  2.1199
10843SOL     OW33427   0.967   3.887   1.218 -0.5599  0.2789  0.1368
10843SOL    HW133428   0.929   3.811   1.270  0.3380 -0.2462  0.0483
10843SOL    HW233429   0.932   3.973   1.254 -0.1939 -0.0929  1.4091
10844SOL     OW33430   2.602   6.574   4.594  0.1883  0.4933  0.3172
10844SOL    HW133431   2.587   6.499   4.658 -1.1548  0.9615  0.5929
10844SOL    HW233432   2.515   6.597   4.549  0.5726  1.8555  0.2135
10845SOL     OW33433   3.083   2.884   1.265 -0.0248 -0.5633 -0.4134
10845SOL    HW133434   3.119   2.975   1.247  0.0822  0.3976  3.6830
10845SOL    HW233435   3.157   2.824   1.296 -0.8574 -0.1830  2.6609
10846SOL     OW33436   2.474   1.471   2.083 -0.0820 -1.4224 -0.7472
10846SOL    HW133437   2.420   1.388   2.069 -1.9102 -0.4853  0.2531
10846SOL    HW233438   2.413   1.551   2.075  1.3660 -0.2526 -0.4373
10847SOL     OW33439   0.418   1.288   4.459 -0.0112 -0.2985 -0.2148
10847SOL    HW133440   0.359   1.369   4.458 -1.9821 -1.6566 -0.2330
10847SOL    HW233441   0.364   1.208   4.486  1.9035 -1.5977 -0.0674
10848SOL     OW33442   1.086   6.317   6.919 -0.0416 -0.0586  0.1867
10848SOL    HW133443   1.183   6.305   6.900  0.1839  3.2845 -1.5694
10848SOL    HW233444   1.035   6.239   6.883  1.8026 -0.7830 -1.0000
10849SOL     OW33445   0.822   3.865   3.731 -0.1031 -0.0955 -0.6332
10849SOL    HW133446   0.877   3.782   3.722  0.2390  0.2425 -1.8040
10849SOL    HW233447   0.730   3.841   3.761  0.3541 -0.7680  0.2859
10850SOL     OW33448   1.565   1.142   2.371 -0.4574  0.0990  0.4477
10850SOL    HW133449   1.488   1.101   2.322  0.5155 -1.8929  0.4680
10850SOL    HW233450   1.596   1.224   2.323 -1.0214 -0.4715 -0.9436
10851SOL     OW33451   4.762   3.874   0.490  0.5040  0.2377  0.1680
10851SOL    HW133452   4.772   3.805   0.418 -1.5478  0.1256 -0.0645
10851SOL    HW233453   4.708   3.951   0.456  1.3420  1.2123  0.9454
10852SOL     OW33454   2.271   2.130   5.043  0.3680  0.2331  0.1385
10852SOL    HW133455   2.214   2.179   5.109  0.8146  0.9658 -0.0190
10852SOL    HW233456   2.214   2.098   4.967  0.0639  0.4309  0.2836
10853SOL     OW33457   2.676   6.383   6.132 -0.3017 -0.5914  0.0784
10853SOL    HW133458   2.775   6.391   6.120 -0.3072 -0.6299  0.0083
10853SOL    HW233459   2.629   6.421   6.053 -0.2946 -3.7521 -1.5866
10854SOL     OW33460   3.895   6.535   4.826  0.4724 -0.0231  0.0283
10854SOL    HW133461   3.897   6.568   4.920  3.1996 -0.2941  0.1545
10854SOL    HW233462   3.960   6.588   4.771 -0.5757 -0.3212 -1.5439
10855SOL     OW33463   1.026   6.810   5.451 -0.2944  0.2825  0.1090
10855SOL    HW133464   1.056   6.742   5.519 -0.1643 -0.0255 -0.2495
10855SOL    HW233465   1.106   6.843   5.400  0.1000  2.8310  2.1589
10856SOL     OW33466   2.526   1.562   6.945  0.1656 -0.4986 -0.2134
10856SOL    HW133467   2.546   1.632   6.876 -1.6944 -0.8528 -1.1584
10856SOL    HW233468   2.583   1.481   6.927  0.8023 -0.0258 -0.3834
10857SOL     OW33469   6.721   6.616   6.011  0.3224  0.5871  0.1979
10857SOL    HW133470   6.693   6.527   5.974 -1.5809  1.1580  0.1721
10857SOL    HW233471   6.809   6.605   6.058 -0.7347 -1.7658  1.8572
10858SOL     OW33472   3.269   1.361   6.263  0.9771  0.5743 -0.0658
10858SOL    HW133473   3.232   1.434   6.206  0.9966 -0.7606 -1.8641
10858SOL    HW233474   3.227   1.365   6.354 -0.1129  1.8887 -0.5981
10859SOL     OW33475   0.521   4.388   2.256  0.0348  0.6208 -0.4599
10859SOL    HW133476   0.594   4.452   2.280 -0.5191  0.4266  1.9248
10859SOL    HW233477   0.449   4.393   2.325  0.2631 -3.0466  0.1981
10860SOL     OW33478   5.207   0.754   3.721  0.1390 -0.5336  0.3853
10860SOL    HW133479   5.224   0.844   3.683 -0.2429  0.2100  1.8988
10860SOL    HW233480   5.110   0.732   3.714  0.1471 -0.6003  0.4824
10861SOL     OW33481   3.856   5.909   6.236  0.1276 -0.0890  0.2916
10861SOL    HW133482   3.827   5.867   6.150 -0.4740  1.9332 -0.5443
10861SOL    HW233483   3.781   5.961   6.275  0.6690 -0.2594  1.6090
10862SOL     OW33484   2.697   4.385   6.834  0.5805 -0.3749 -0.4343
10862SOL    HW133485   2.693   4.453   6.761  0.7187 -0.6153 -0.6668
10862SOL    HW233486   2.659   4.299   6.801  1.0995 -0.6263 -0.3763
10863SOL     OW33487   0.926   2.079   5.903 -0.1549  1.4694 -0.5925
10863SOL    HW133488   0.836   2.035   5.899  1.0978 -1.4616  0.9826
10863SOL    HW233489   0.937   2.123   5.992  0.9772 -0.6836  0.3879
10864SOL     OW33490   3.692   2.877   2.693  0.3202 -0.2635 -0.1440
10864SOL    HW133491   3.778   2.899   2.647  0.1067  0.5205 -0.1835
10864SOL    HW233492   3.621   2.861   2.624  0.9197 -3.2147 -0.2122
10865SOL     OW33493   5.878   0.942   2.650 -0.1547 -0.3882  0.6008
10865SOL    HW133494   5.919   0.853   2.629  1.1165 -0.1071  1.7720
10865SOL    HW233495   5.934   1.015   2.611 -0.5814 -0.0614  0.5957
10866SOL     OW33496   5.011   4.788   5.269  0.1941 -1.1283 -0.1890
10866SOL    HW133497   4.996   4.695   5.237 -0.2426 -1.6574  1.4570
10866SOL    HW233498   4.950   4.808   5.345 -0.7128  1.0107 -1.3759
10867SOL     OW33499   5.072   5.057   1.423 -0.1546 -0.6797  0.3659
10867SOL    HW133500   5.037   5.069   1.516 -0.5586 -0.9733  0.2535
10867SOL    HW233501   4.996   5.048   1.360  0.1161 -1.8763  0.1864
10868SOL     OW33502   0.352   0.553   5.904  0.5798 -0.7217  0.3678
10868SOL    HW133503   0.415   0.505   5.844  0.4680 -2.0787  1.2834
10868SOL    HW233504   0.335   0.645   5.869  2.4775 -0.5840 -0.2846
10869NA      NA33505   6.608   1.865   0.621 -0.1630  0.2047  0.0823
10870NA      NA33506   4.803   4.486   6.103 -0.8473  0.1378 -0.2121
10871NA      NA33507   1.267   5.796   1.747 -0.0770 -0.0555  0.5911
10872NA      NA33508   5.379   4.095   3.921 -0.3217  0.3712 -0.0446
10873NA      NA33509   4.284   2.376   5.263  0.2314  0.6145  0.4428
10874NA      NA33510   3.036   4.180   0.057 -0.2615 -0.0737 -0.1072
10875NA      NA33511   1.564   3.662   0.831 -0.1835 -0.4784 -0.2189
10876NA      NA33512   4.888   4.034   2.236 -0.0711 -0.3562  0.3549
10877NA      NA33513   4.947   2.735   1.822  0.0784  0.4487 -0.0814
10878NA      NA33514   4.035   2.581   1.297  0.2584 -0.0506  0.1631
10879NA      NA33515   5.876   6.930   2.175  0.2876  0.1495 -0.3996
10880NA      NA33516   3.530   5.379   3.869 -0.2541  0.1772 -0.1009
10881NA      NA33517   5.036   5.735   3.904  0.2175 -0.5879 -0.2753
10882NA      NA33518   4.047   3.842   5.613 -0.0050  0.1266  0.3535
   7.02306   7.02306   7.02306
